Protein in INSANE! Membrane UpperLeaflet>POPC=1.0 LowerLeaflet>POPC=1.0
241666
   81AUC    AUC    1  -2.933  14.154   7.502
   82AUC    AUC    2  -2.687  14.154   7.350
   83AUC    AUC    3  -2.687  14.154   7.653
   84AUC    AUC    4  -3.178  14.154   7.350
   85AUC    AUC    5  -3.178  14.154   7.653
   86AUC    AUC    6  -3.085  14.399   7.502
   87AUC    AUC    7  -2.781  14.399   7.502
   88AUC    AUC    8  -3.085  13.908   7.502
   89AUC    AUC    9  -2.781  13.908   7.502
   90AUC    AUC   10  -2.933  14.002   7.747
   91AUC    AUC   11  -2.933  14.305   7.747
   92AUC    AUC   12  -2.933  14.002   7.256
   93AUC    AUC   13  -2.933  14.305   7.256
   94AUC    AUC   14  -2.442  14.154   7.198
   95AUC    AUC   15  -2.442  14.154   7.502
   96AUC    AUC   16  -2.442  14.154   7.805
   97AUC    AUC   17  -3.424  14.154   7.198
   98AUC    AUC   18  -3.424  14.154   7.502
   99AUC    AUC   19  -3.424  14.154   7.805
  100AUC    AUC   20  -3.236  14.644   7.502
  101AUC    AUC   21  -2.933  14.644   7.502
  102AUC    AUC   22  -2.630  14.644   7.502
  103AUC    AUC   23  -3.236  13.663   7.502
  104AUC    AUC   24  -2.933  13.663   7.502
  105AUC    AUC   25  -2.630  13.663   7.502
  106AUC    AUC   26  -2.933  13.850   7.992
  107AUC    AUC   27  -2.933  14.154   7.992
  108AUC    AUC   28  -2.933  14.457   7.992
  109AUC    AUC   29  -2.933  13.850   7.011
  110AUC    AUC   30  -2.933  14.154   7.011
  111AUC    AUC   31  -2.933  14.457   7.011
  112AUC    AUC   32  -2.687  14.002   7.899
  113AUC    AUC   33  -2.687  14.305   7.899
  114AUC    AUC   34  -2.687  14.002   7.105
  115AUC    AUC   35  -2.687  14.305   7.105
  116AUC    AUC   36  -3.178  14.002   7.899
  117AUC    AUC   37  -3.178  14.305   7.899
  118AUC    AUC   38  -3.178  14.002   7.105
  119AUC    AUC   39  -3.178  14.305   7.105
  120AUC    AUC   40  -2.536  14.399   7.350
  121AUC    AUC   41  -2.536  14.399   7.653
  122AUC    AUC   42  -3.330  14.399   7.350
  123AUC    AUC   43  -3.330  14.399   7.653
  124AUC    AUC   44  -2.536  13.908   7.350
  125AUC    AUC   45  -2.536  13.908   7.653
  126AUC    AUC   46  -3.330  13.908   7.350
  127AUC    AUC   47  -3.330  13.908   7.653
  128AUC    AUC   48  -3.085  14.551   7.747
  129AUC    AUC   49  -2.781  14.551   7.747
  130AUC    AUC   50  -3.085  13.756   7.747
  131AUC    AUC   51  -2.781  13.756   7.747
  132AUC    AUC   52  -3.085  14.551   7.256
  133AUC    AUC   53  -2.781  14.551   7.256
  134AUC    AUC   54  -3.085  13.756   7.256
  135AUC    AUC   55  -2.781  13.756   7.256
  136AUSL   AUS   56  -2.524  14.154   8.082
  137AUSL   AUS   57  -2.668  13.737   8.012
  138AUL    AUL   58  -2.442  13.850   8.296
  139THSLK    S   59  -2.554  13.549   8.156
  140ETHY    C1   60  -2.488  13.164   8.391
  141ETHY    C1   61  -2.345  12.756   8.710
  142ETHY    C1   62  -2.136  12.420   9.066
  143ETHY    C1   63  -1.870  12.162   9.450
  144ETHY    C1   64  -1.554  11.986   9.855
  145THSLK    S   65  -2.428  14.104   8.326
  146ETHY    C1   66  -2.212  13.918   8.681
  147ETHY    C1   67  -1.937  13.783   9.124
  148ETHY    C1   68  -1.656  13.753   9.575
  149ETHY    C1   69  -1.378  13.822  10.025
  150ETHY    C1   70  -1.109  13.990  10.466
  151AUSL   AUS   71  -2.769  14.002   8.175
  152AUSL   AUS   72  -3.096  14.305   8.175
  153AUL    AUL   73  -2.933  14.154   8.483
  154THSLK    S   74  -2.691  13.949   8.417
  155ETHY    C1   75  -2.614  13.699   8.790
  156ETHY    C1   76  -2.498  13.482   9.269
  157ETHY    C1   77  -2.361  13.366   9.769
  158ETHY    C1   78  -2.211  13.348  10.281
  159ETHY    C1   79  -2.052  13.429  10.794
  160THSLK    S   80  -3.183  14.262   8.431
  161ETHY    C1   81  -3.265  14.150   8.864
  162ETHY    C1   82  -3.379  14.104   9.388
  163ETHY    C1   83  -3.511  14.162   9.901
  164ETHY    C1   84  -3.662  14.315  10.389
  165ETHY    C1   85  -3.828  14.559  10.844
  166AUSL   AUS   86  -2.769  14.305   8.175
  167AUSL   AUS   87  -2.423  14.418   7.918
  168AUL    AUL   88  -2.442  14.457   8.296
  169THSLK    S   89  -2.682  14.359   8.414
  170ETHY    C1   90  -2.601  14.610   8.786
  171ETHY    C1   91  -2.487  14.826   9.265
  172ETHY    C1   92  -2.354  14.942   9.767
  173ETHY    C1   93  -2.204  14.960  10.279
  174ETHY    C1   94  -2.038  14.880  10.789
  175THSLK    S   95  -2.249  14.520   8.080
  176ETHY    C1   96  -1.885  14.530   8.354
  177ETHY    C1   97  -1.469  14.632   8.680
  178ETHY    C1   98  -1.089  14.831   8.995
  179ETHY    C1   99  -0.754  15.118   9.296
  180ETHY    C1  100  -0.473  15.486   9.577
  181AUSL   AUS  101  -2.524  14.154   6.922
  182AUSL   AUS  102  -2.668  14.570   6.992
  183AUL    AUL  103  -2.442  14.457   6.707
  184THSLK    S  104  -2.421  14.104   6.681
  185ETHY    C1  105  -2.200  13.918   6.329
  186ETHY    C1  106  -1.927  13.783   5.885
  187ETHY    C1  107  -1.649  13.753   5.432
  188ETHY    C1  108  -1.371  13.822   4.982
  189ETHY    C1  109  -1.097  13.990   4.545
  190THSLK    S  110  -2.490  14.685   6.825
  191ETHY    C1  111  -2.202  14.790   6.488
  192ETHY    C1  112  -1.902  14.994   6.090
  193ETHY    C1  113  -1.659  15.282   5.714
  194ETHY    C1  114  -1.475  15.646   5.371
  195ETHY    C1  115  -1.351  16.077   5.065
  196AUSL   AUS  116  -2.769  14.002   6.828
  197AUSL   AUS  117  -2.423  13.889   7.085
  198AUL    AUL  118  -2.442  13.850   6.707
  199THSLK    S  119  -2.286  13.697   6.944
  200ETHY    C1  120  -2.078  13.354   6.729
  201ETHY    C1  121  -1.777  13.012   6.442
  202ETHY    C1  122  -1.426  12.759   6.133
  203ETHY    C1  123  -1.032  12.597   5.812
  204ETHY    C1  124  -0.603  12.526   5.486
  205THSLK    S  125  -2.682  13.948   6.590
  206ETHY    C1  126  -2.601  13.697   6.217
  207ETHY    C1  127  -2.487  13.481   5.738
  208ETHY    C1  128  -2.354  13.365   5.236
  209ETHY    C1  129  -2.204  13.347   4.725
  210ETHY    C1  130  -2.038  13.427   4.214
  211AUSL   AUS  131  -2.769  14.305   6.828
  212AUSL   AUS  132  -3.096  14.002   6.828
  213AUL    AUL  133  -2.933  14.154   6.520
  214THSLK    S  134  -3.191  13.948   6.592
  215ETHY    C1  135  -3.328  13.700   6.235
  216ETHY    C1  136  -3.488  13.486   5.767
  217ETHY    C1  137  -3.635  13.371   5.269
  218ETHY    C1  138  -3.762  13.352   4.751
  219ETHY    C1  139  -3.867  13.428   4.224
  220THSLK    S  140  -2.666  14.263   6.578
  221ETHY    C1  141  -2.525  14.148   6.160
  222ETHY    C1  142  -2.367  14.101   5.647
  223ETHY    C1  143  -2.224  14.157   5.138
  224ETHY    C1  144  -2.096  14.311   4.643
  225ETHY    C1  145  -1.985  14.559   4.174
  226AUSL   AUS  146  -3.342  14.154   8.082
  227AUSL   AUS  147  -3.198  14.570   8.012
  228AUL    AUL  148  -3.424  14.457   8.296
  229THSLK    S  149  -3.445  14.104   8.322
  230ETHY    C1  150  -3.666  13.918   8.674
  231ETHY    C1  151  -3.939  13.783   9.118
  232ETHY    C1  152  -4.216  13.753   9.571
  233ETHY    C1  153  -4.494  13.822  10.021
  234ETHY    C1  154  -4.769  13.990  10.458
  235THSLK    S  155  -3.318  14.699   8.202
  236ETHY    C1  156  -3.387  14.868   8.620
  237ETHY    C1  157  -3.529  15.121   9.073
  238ETHY    C1  158  -3.735  15.422   9.460
  239ETHY    C1  159  -4.002  15.761   9.775
  240ETHY    C1  160  -4.322  16.128  10.013
  241AUSL   AUS  161  -3.096  14.002   8.175
  242AUSL   AUS  162  -3.443  13.889   7.918
  243AUL    AUL  163  -3.424  13.850   8.296
  244THSLK    S  164  -3.621  13.725   8.029
  245ETHY    C1  165  -3.989  13.472   8.125
  246ETHY    C1  166  -4.404  13.193   8.323
  247ETHY    C1  167  -4.782  12.953   8.611
  248ETHY    C1  168  -5.116  12.757   8.978
  249ETHY    C1  169  -5.402  12.611   9.415
  250THSLK    S  170  -3.199  13.950   8.410
  251ETHY    C1  171  -3.341  13.703   8.766
  252ETHY    C1  172  -3.499  13.488   9.233
  253ETHY    C1  173  -3.642  13.372   9.733
  254ETHY    C1  174  -3.769  13.354  10.250
  255ETHY    C1  175  -3.881  13.432  10.775
  256AUSL   AUS  176  -3.342  14.154   6.922
  257AUSL   AUS  177  -3.198  13.737   6.992
  258AUL    AUL  178  -3.424  13.850   6.707
  259THSLK    S  179  -3.437  14.104   6.677
  260ETHY    C1  180  -3.654  13.918   6.322
  261ETHY    C1  181  -3.929  13.783   5.879
  262ETHY    C1  182  -4.210  13.753   5.429
  263ETHY    C1  183  -4.488  13.822   4.978
  264ETHY    C1  184  -4.756  13.990   4.537
  265THSLK    S  185  -3.370  13.563   6.872
  266ETHY    C1  186  -3.655  13.242   6.717
  267ETHY    C1  187  -3.956  12.883   6.453
  268ETHY    C1  188  -4.201  12.560   6.109
  269ETHY    C1  189  -4.385  12.277   5.696
  270ETHY    C1  190  -4.504  12.037   5.223
  271AUSL   AUS  191  -3.096  14.305   6.828
  272AUSL   AUS  192  -3.443  14.418   7.085
  273AUL    AUL  193  -3.424  14.457   6.707
  274THSLK    S  194  -3.574  14.548   6.893
  275ETHY    C1  195  -3.780  14.648   6.499
  276ETHY    C1  196  -4.082  14.812   6.085
  277ETHY    C1  197  -4.436  15.024   5.748
  278ETHY    C1  198  -4.829  15.278   5.494
  279ETHY    C1  199  -5.254  15.571   5.324
  280THSLK    S  200  -3.175  14.264   6.571
  281ETHY    C1  201  -3.252  14.152   6.136
  282ETHY    C1  202  -3.368  14.107   5.612
  283ETHY    C1  203  -3.504  14.163   5.101
  284ETHY    C1  204  -3.654  14.317   4.613
  285ETHY    C1  205  -3.814  14.562   4.156
  286AUSL   AUS  206  -2.353  14.563   7.502
  287AUSL   AUS  207  -2.423  14.418   7.085
  288AUL    AUL  208  -2.139  14.644   7.198
  289THSLK    S  209  -2.244  14.521   6.930
  290ETHY    C1  210  -1.877  14.532   6.659
  291ETHY    C1  211  -1.462  14.634   6.332
  292ETHY    C1  212  -1.084  14.832   6.014
  293ETHY    C1  213  -0.750  15.119   5.713
  294ETHY    C1  214  -0.464  15.489   5.438
  295THSLK    S  215  -2.085  14.619   7.506
  296ETHY    C1  216  -1.633  14.680   7.508
  297ETHY    C1  217  -1.119  14.839   7.507
  298ETHY    C1  218  -0.651  15.093   7.505
  299ETHY    C1  219  -0.238  15.430   7.506
  300ETHY    C1  220   0.114  15.844   7.509
  301AUSL   AUS  221  -2.259  14.317   7.350
  302AUSL   AUS  222  -2.259  13.990   7.653
  303AUL    AUL  223  -1.951  14.154   7.502
  304THSLK    S  224  -2.000  14.360   7.348
  305ETHY    C1  225  -1.555  14.290   7.278
  306ETHY    C1  226  -1.024  14.297   7.190
  307ETHY    C1  227  -0.511  14.407   7.101
  308ETHY    C1  228  -0.026  14.613   7.017
  309ETHY    C1  229   0.421  14.910   6.940
  310THSLK    S  230  -2.027  13.852   7.662
  311ETHY    C1  231  -1.681  13.563   7.728
  312ETHY    C1  232  -1.220  13.296   7.809
  313ETHY    C1  233  -0.723  13.127   7.892
  314ETHY    C1  234  -0.202  13.055   7.980
  315ETHY    C1  235   0.333  13.081   8.071
  316AUSL   AUS  236  -2.259  14.317   7.653
  317AUSL   AUS  237  -2.516  14.664   7.766
  318AUL    AUL  238  -2.139  14.644   7.805
  319THSLK    S  239  -2.333  14.783   7.926
  320ETHY    C1  240  -1.961  14.938   8.139
  321ETHY    C1  241  -1.561  15.203   8.385
  322ETHY    C1  242  -1.227  15.547   8.615
  323ETHY    C1  243  -0.965  15.960   8.827
  324ETHY    C1  244  -0.778  16.432   9.019
  325THSLK    S  245  -2.001  14.360   7.664
  326ETHY    C1  246  -1.557  14.290   7.738
  327ETHY    C1  247  -1.026  14.297   7.825
  328ETHY    C1  248  -0.512  14.407   7.910
  329ETHY    C1  249  -0.028  14.613   7.994
  330ETHY    C1  250   0.419  14.910   8.078
  331AUSL   AUS  251  -3.513  14.563   7.502
  332AUSL   AUS  252  -3.443  14.418   7.918
  333AUL    AUL  253  -3.727  14.644   7.805
  334THSLK    S  254  -3.579  14.541   8.109
  335ETHY    C1  255  -3.788  14.637   8.503
  336ETHY    C1  256  -4.089  14.803   8.917
  337ETHY    C1  257  -4.440  15.018   9.254
  338ETHY    C1  258  -4.834  15.272   9.509
  339ETHY    C1  259  -5.263  15.559   9.678
  340THSLK    S  260  -3.729  14.703   7.506
  341ETHY    C1  261  -3.985  15.081   7.508
  342ETHY    C1  262  -4.358  15.469   7.507
  343ETHY    C1  263  -4.794  15.775   7.505
  344ETHY    C1  264  -5.280  15.993   7.506
  345ETHY    C1  265  -5.807  16.123   7.509
  346AUSL   AUS  266  -3.607  14.317   7.350
  347AUSL   AUS  267  -3.349  14.664   7.237
  348AUL    AUL  268  -3.727  14.644   7.198
  349THSLK    S  269  -3.838  14.432   7.303
  350ETHY    C1  270  -4.185  14.620   7.075
  351ETHY    C1  271  -4.645  14.812   6.872
  352ETHY    C1  272  -5.143  14.962   6.758
  353ETHY    C1  273  -5.664  15.072   6.733
  354ETHY    C1  274  -6.198  15.142   6.796
  355THSLK    S  275  -3.465  14.829   7.058
  356ETHY    C1  276  -3.581  15.145   6.750
  357ETHY    C1  277  -3.795  15.523   6.432
  358ETHY    C1  278  -4.087  15.892   6.183
  359ETHY    C1  279  -4.445  16.245   6.008
  360ETHY    C1  280  -4.863  16.578   5.909
  361AUSL   AUS  281  -3.607  14.317   7.653
  362AUSL   AUS  282  -3.607  13.990   7.350
  363AUL    AUL  283  -3.915  14.154   7.502
  364THSLK    S  284  -3.865  13.916   7.390
  365ETHY    C1  285  -4.309  13.881   7.486
  366ETHY    C1  286  -4.840  13.800   7.518
  367ETHY    C1  287  -5.354  13.675   7.458
  368ETHY    C1  288  -5.838  13.507   7.311
  369ETHY    C1  289  -6.285  13.300   7.083
  370THSLK    S  290  -3.840  14.424   7.704
  371ETHY    C1  291  -4.187  14.608   7.935
  372ETHY    C1  292  -4.647  14.801   8.137
  373ETHY    C1  293  -5.144  14.956   8.249
  374ETHY    C1  294  -5.665  15.066   8.274
  375ETHY    C1  295  -6.201  15.129   8.213
  376AUSL   AUS  296  -2.353  13.744   7.502
  377AUSL   AUS  297  -2.423  13.889   7.918
  378AUL    AUL  298  -2.139  13.663   7.805
  379THSLK    S  299  -2.137  13.604   7.506
  380ETHY    C1  300  -1.881  13.226   7.508
  381ETHY    C1  301  -1.508  12.838   7.507
  382ETHY    C1  302  -1.072  12.532   7.505
  383ETHY    C1  303  -0.586  12.314   7.506
  384ETHY    C1  304  -0.059  12.184   7.509
  385THSLK    S  305  -2.291  13.699   8.066
  386ETHY    C1  306  -2.086  13.356   8.285
  387ETHY    C1  307  -1.784  13.014   8.570
  388ETHY    C1  308  -1.430  12.761   8.877
  389ETHY    C1  309  -1.036  12.598   9.198
  390ETHY    C1  310  -0.612  12.528   9.529
  391AUSL   AUS  311  -2.259  13.990   7.350
  392AUSL   AUS  312  -2.516  13.643   7.237
  393AUL    AUL  313  -2.139  13.663   7.198
  394THSLK    S  314  -2.026  13.852   7.350
  395ETHY    C1  315  -1.678  13.563   7.289
  396ETHY    C1  316  -1.219  13.296   7.206
  397ETHY    C1  317  -0.722  13.127   7.118
  398ETHY    C1  318  -0.200  13.055   7.031
  399ETHY    C1  319   0.335  13.081   6.947
  400THSLK    S  320  -2.397  13.453   7.104
  401ETHY    C1  321  -2.280  13.036   6.963
  402ETHY    C1  322  -2.066  12.582   6.765
  403ETHY    C1  323  -1.776  12.196   6.543
  404ETHY    C1  324  -1.417  11.881   6.306
  405ETHY    C1  325  -0.997  11.642   6.058
  406AUSL   AUS  326  -3.513  13.744   7.502
  407AUSL   AUS  327  -3.443  13.889   7.085
  408AUL    AUL  328  -3.727  13.663   7.198
  409THSLK    S  329  -3.616  13.718   6.973
  410ETHY    C1  330  -3.981  13.461   6.877
  411ETHY    C1  331  -4.397  13.184   6.679
  412ETHY    C1  332  -4.777  12.947   6.392
  413ETHY    C1  333  -5.111  12.751   6.025
  414ETHY    C1  334  -5.393  12.599   5.587
  415THSLK    S  335  -3.781  13.688   7.506
  416ETHY    C1  336  -4.233  13.627   7.508
  417ETHY    C1  337  -4.747  13.468   7.507
  418ETHY    C1  338  -5.215  13.214   7.505
  419ETHY    C1  339  -5.628  12.877   7.506
  420ETHY    C1  340  -5.980  12.463   7.509
  421AUSL   AUS  341  -3.607  13.990   7.653
  422AUSL   AUS  342  -3.349  13.643   7.766
  423AUL    AUL  343  -3.727  13.663   7.805
  424THSLK    S  344  -3.537  13.499   7.880
  425ETHY    C1  345  -3.911  13.242   7.926
  426ETHY    C1  346  -4.309  12.902   8.052
  427ETHY    C1  347  -4.642  12.540   8.255
  428ETHY    C1  348  -4.904  12.166   8.529
  429ETHY    C1  349  -5.095  11.788   8.870
  430THSLK    S  350  -3.866  13.923   7.617
  431ETHY    C1  351  -4.311  13.893   7.524
  432ETHY    C1  352  -4.842  13.811   7.490
  433ETHY    C1  353  -5.355  13.682   7.549
  434ETHY    C1  354  -5.839  13.514   7.696
  435ETHY    C1  355  -6.287  13.312   7.928
  436AUSL   AUS  356  -2.933  14.734   7.911
  437AUSL   AUS  357  -3.349  14.664   7.766
  438AUL    AUL  358  -3.236  14.948   7.992
  439THSLK    S  359  -3.469  14.823   7.950
  440ETHY    C1  360  -3.586  15.135   8.261
  441ETHY    C1  361  -3.800  15.515   8.578
  442ETHY    C1  362  -4.090  15.886   8.824
  443ETHY    C1  363  -4.448  16.240   9.000
  444ETHY    C1  364  -4.869  16.568   9.102
  445THSLK    S  365  -2.893  14.960   8.035
  446ETHY    C1  366  -2.736  15.262   8.339
  447ETHY    C1  367  -2.621  15.668   8.672
  448ETHY    C1  368  -2.594  16.112   8.964
  449ETHY    C1  369  -2.654  16.581   9.211
  450ETHY    C1  370  -2.798  17.065   9.410
  451AUSL   AUS  371  -3.085  14.827   7.665
  452AUSL   AUS  372  -2.781  14.827   7.338
  453AUL    AUL  373  -2.933  15.135   7.502
  454THSLK    S  374  -3.044  15.075   7.774
  455ETHY    C1  375  -2.935  15.485   7.942
  456ETHY    C1  376  -2.891  15.992   8.118
  457ETHY    C1  377  -2.948  16.500   8.265
  458ETHY    C1  378  -3.101  16.997   8.383
  459ETHY    C1  379  -3.344  17.474   8.472
  460THSLK    S  380  -2.728  15.062   7.241
  461ETHY    C1  381  -2.483  15.418   7.094
  462ETHY    C1  382  -2.270  15.883   6.927
  463ETHY    C1  383  -2.155  16.381   6.779
  464ETHY    C1  384  -2.135  16.900   6.655
  465ETHY    C1  385  -2.210  17.429   6.558
  466AUSL   AUS  386  -2.781  14.827   7.665
  467AUSL   AUS  387  -2.668  14.570   8.012
  468AUL    AUL  388  -2.630  14.948   7.992
  469THSLK    S  389  -2.496  14.683   8.184
  470ETHY    C1  390  -2.211  14.786   8.524
  471ETHY    C1  391  -1.909  14.990   8.921
  472ETHY    C1  392  -1.664  15.280   9.294
  473ETHY    C1  393  -1.480  15.643   9.638
  474ETHY    C1  394  -1.361  16.073   9.948
  475THSLK    S  395  -2.730  15.061   7.771
  476ETHY    C1  396  -2.486  15.415   7.922
  477ETHY    C1  397  -2.273  15.881   8.087
  478ETHY    C1  398  -2.157  16.380   8.231
  479ETHY    C1  399  -2.138  16.898   8.356
  480ETHY    C1  400  -2.213  17.426   8.458
  481AUSL   AUS  401  -2.933  13.574   7.911
  482AUSL   AUS  402  -2.516  13.643   7.766
  483AUL    AUL  403  -2.630  13.359   7.992
  484THSLK    S  404  -2.977  13.319   7.990
  485ETHY    C1  405  -3.137  12.915   8.128
  486ETHY    C1  406  -3.251  12.434   8.341
  487ETHY    C1  407  -3.276  11.973   8.605
  488ETHY    C1  408  -3.217  11.543   8.915
  489ETHY    C1  409  -3.076  11.151   9.263
  490THSLK    S  410  -2.401  13.454   7.908
  491ETHY    C1  411  -2.285  13.038   8.052
  492ETHY    C1  412  -2.071  12.585   8.248
  493ETHY    C1  413  -1.779  12.197   8.467
  494ETHY    C1  414  -1.420  11.882   8.705
  495ETHY    C1  415  -1.003  11.645   8.958
  496AUSL   AUS  416  -3.085  13.480   7.665
  497AUSL   AUS  417  -3.198  13.737   8.012
  498AUL    AUL  418  -3.236  13.359   7.992
  499THSLK    S  419  -3.138  13.240   7.745
  500ETHY    C1  420  -3.383  12.859   7.801
  501ETHY    C1  421  -3.596  12.374   7.897
  502ETHY    C1  422  -3.711  11.871   8.025
  503ETHY    C1  423  -3.730  11.362   8.186
  504ETHY    C1  424  -3.656  10.859   8.374
  505THSLK    S  425  -3.376  13.569   8.133
  506ETHY    C1  426  -3.664  13.251   8.289
  507ETHY    C1  427  -3.964  12.891   8.552
  508ETHY    C1  428  -4.207  12.565   8.896
  509ETHY    C1  429  -4.391  12.282   9.309
  510ETHY    C1  430  -4.515  12.048   9.783
  511AUSL   AUS  431  -2.781  13.480   7.665
  512AUSL   AUS  432  -3.085  13.480   7.338
  513AUL    AUL  433  -2.933  13.172   7.502
  514THSLK    S  434  -3.136  13.237   7.266
  515ETHY    C1  435  -3.380  12.855   7.215
  516ETHY    C1  436  -3.593  12.371   7.117
  517ETHY    C1  437  -3.709  11.869   6.984
  518ETHY    C1  438  -3.728  11.360   6.825
  519ETHY    C1  439  -3.652  10.855   6.642
  520THSLK    S  440  -2.824  13.224   7.749
  521ETHY    C1  441  -2.934  12.788   7.821
  522ETHY    C1  442  -2.977  12.262   7.928
  523ETHY    C1  443  -2.920  11.750   8.059
  524ETHY    C1  444  -2.767  11.262   8.213
  525ETHY    C1  445  -2.525  10.809   8.388
  526AUSL   AUS  446  -2.933  14.734   7.093
  527AUSL   AUS  447  -2.516  14.664   7.237
  528AUL    AUL  448  -2.630  14.948   7.011
  529THSLK    S  449  -2.889  14.964   6.975
  530ETHY    C1  450  -2.729  15.268   6.674
  531ETHY    C1  451  -2.615  15.673   6.339
  532ETHY    C1  452  -2.590  16.116   6.045
  533ETHY    C1  453  -2.649  16.585   5.798
  534ETHY    C1  454  -2.790  17.072   5.604
  535THSLK    S  455  -2.329  14.785   7.085
  536ETHY    C1  456  -1.955  14.941   6.876
  537ETHY    C1  457  -1.557  15.205   6.629
  538ETHY    C1  458  -1.224  15.549   6.395
  539ETHY    C1  459  -0.962  15.961   6.184
  540ETHY    C1  460  -0.771  16.435   5.998
  541AUSL   AUS  461  -3.085  14.827   7.338
  542AUSL   AUS  462  -3.198  14.570   6.992
  543AUL    AUL  463  -3.236  14.948   7.011
  544THSLK    S  464  -3.042  15.078   7.237
  545ETHY    C1  465  -2.932  15.489   7.074
  546ETHY    C1  466  -2.889  15.995   6.896
  547ETHY    C1  467  -2.946  16.503   6.745
  548ETHY    C1  468  -3.099  17.000   6.627
  549ETHY    C1  469  -3.341  17.479   6.545
  550THSLK    S  470  -3.312  14.705   6.802
  551ETHY    C1  471  -3.378  14.877   6.385
  552ETHY    C1  472  -3.521  15.129   5.932
  553ETHY    C1  473  -3.730  15.428   5.544
  554ETHY    C1  474  -3.996  15.766   5.230
  555ETHY    C1  475  -4.312  16.139   4.993
  556AUSL   AUS  476  -2.933  13.574   7.093
  557AUSL   AUS  477  -3.349  13.643   7.237
  558AUL    AUL  478  -3.236  13.359   7.011
  559THSLK    S  479  -3.533  13.493   7.128
  560ETHY    C1  480  -3.905  13.232   7.085
  561ETHY    C1  481  -4.304  12.894   6.958
  562ETHY    C1  482  -4.639  12.535   6.753
  563ETHY    C1  483  -4.901  12.161   6.478
  564ETHY    C1  484  -5.088  11.778   6.142
  565THSLK    S  485  -2.973  13.315   7.019
  566ETHY    C1  486  -3.130  12.909   6.885
  567ETHY    C1  487  -3.245  12.429   6.671
  568ETHY    C1  488  -3.272  11.970   6.404
  569ETHY    C1  489  -3.212  11.539   6.094
  570ETHY    C1  490  -3.068  11.144   5.751
  571AUSL   AUS  491  -2.781  13.480   7.338
  572AUSL   AUS  492  -2.668  13.737   6.992
  573AUL    AUL  493  -2.630  13.359   7.011
  574THSLK    S  494  -2.822  13.223   7.262
  575ETHY    C1  495  -2.931  12.785   7.195
  576ETHY    C1  496  -2.974  12.259   7.086
  577ETHY    C1  497  -2.918  11.748   6.951
  578ETHY    C1  498  -2.765  11.260   6.798
  579ETHY    C1  499  -2.521  10.806   6.629
  580THSLK    S  500  -2.548  13.547   6.853
  581ETHY    C1  501  -2.479  13.161   6.621
  582ETHY    C1  502  -2.337  12.753   6.300
  583ETHY    C1  503  -2.130  12.417   5.942
  584ETHY    C1  504  -1.864  12.160   5.559
  585ETHY    C1  505  -1.544  11.982   5.158
  586AUC    AUC  506  18.272  15.296   7.502
  587AUC    AUC  507  18.518  15.296   7.350
  588AUC    AUC  508  18.518  15.296   7.653
  589AUC    AUC  509  18.027  15.296   7.350
  590AUC    AUC  510  18.027  15.296   7.653
  591AUC    AUC  511  18.120  15.541   7.502
  592AUC    AUC  512  18.424  15.541   7.502
  593AUC    AUC  513  18.120  15.050   7.502
  594AUC    AUC  514  18.424  15.050   7.502
  595AUC    AUC  515  18.272  15.144   7.747
  596AUC    AUC  516  18.272  15.447   7.747
  597AUC    AUC  517  18.272  15.144   7.256
  598AUC    AUC  518  18.272  15.447   7.256
  599AUC    AUC  519  18.763  15.296   7.198
  600AUC    AUC  520  18.763  15.296   7.502
  601AUC    AUC  521  18.763  15.296   7.805
  602AUC    AUC  522  17.781  15.296   7.198
  603AUC    AUC  523  17.781  15.296   7.502
  604AUC    AUC  524  17.781  15.296   7.805
  605AUC    AUC  525  17.969  15.786   7.502
  606AUC    AUC  526  18.272  15.786   7.502
  607AUC    AUC  527  18.575  15.786   7.502
  608AUC    AUC  528  17.969  14.805   7.502
  609AUC    AUC  529  18.272  14.805   7.502
  610AUC    AUC  530  18.575  14.805   7.502
  611AUC    AUC  531  18.272  14.992   7.992
  612AUC    AUC  532  18.272  15.296   7.992
  613AUC    AUC  533  18.272  15.599   7.992
  614AUC    AUC  534  18.272  14.992   7.011
  615AUC    AUC  535  18.272  15.296   7.011
  616AUC    AUC  536  18.272  15.599   7.011
  617AUC    AUC  537  18.518  15.144   7.899
  618AUC    AUC  538  18.518  15.447   7.899
  619AUC    AUC  539  18.518  15.144   7.105
  620AUC    AUC  540  18.518  15.447   7.105
  621AUC    AUC  541  18.027  15.144   7.899
  622AUC    AUC  542  18.027  15.447   7.899
  623AUC    AUC  543  18.027  15.144   7.105
  624AUC    AUC  544  18.027  15.447   7.105
  625AUC    AUC  545  18.669  15.541   7.350
  626AUC    AUC  546  18.669  15.541   7.653
  627AUC    AUC  547  17.875  15.541   7.350
  628AUC    AUC  548  17.875  15.541   7.653
  629AUC    AUC  549  18.669  15.050   7.350
  630AUC    AUC  550  18.669  15.050   7.653
  631AUC    AUC  551  17.875  15.050   7.350
  632AUC    AUC  552  17.875  15.050   7.653
  633AUC    AUC  553  18.120  15.693   7.747
  634AUC    AUC  554  18.424  15.693   7.747
  635AUC    AUC  555  18.120  14.898   7.747
  636AUC    AUC  556  18.424  14.898   7.747
  637AUC    AUC  557  18.120  15.693   7.256
  638AUC    AUC  558  18.424  15.693   7.256
  639AUC    AUC  559  18.120  14.898   7.256
  640AUC    AUC  560  18.424  14.898   7.256
  641AUSL   AUS  561  18.681  15.296   8.082
  642AUSL   AUS  562  18.537  14.879   8.012
  643AUL    AUL  563  18.763  14.992   8.296
  644THSLK    S  564  18.651  14.691   8.156
  645ETHY    C1  565  18.717  14.306   8.391
  646ETHY    C1  566  18.860  13.898   8.710
  647ETHY    C1  567  19.069  13.562   9.066
  648ETHY    C1  568  19.335  13.304   9.450
  649ETHY    C1  569  19.651  13.128   9.855
  650THSLK    S  570  18.777  15.246   8.326
  651ETHY    C1  571  18.993  15.060   8.681
  652ETHY    C1  572  19.268  14.925   9.124
  653ETHY    C1  573  19.549  14.895   9.575
  654ETHY    C1  574  19.827  14.964  10.025
  655ETHY    C1  575  20.096  15.132  10.466
  656AUSL   AUS  576  18.436  15.144   8.175
  657AUSL   AUS  577  18.109  15.447   8.175
  658AUL    AUL  578  18.272  15.296   8.483
  659THSLK    S  579  18.514  15.091   8.417
  660ETHY    C1  580  18.591  14.841   8.790
  661ETHY    C1  581  18.707  14.624   9.269
  662ETHY    C1  582  18.844  14.508   9.769
  663ETHY    C1  583  18.994  14.490  10.281
  664ETHY    C1  584  19.153  14.571  10.794
  665THSLK    S  585  18.022  15.404   8.431
  666ETHY    C1  586  17.940  15.292   8.864
  667ETHY    C1  587  17.826  15.246   9.388
  668ETHY    C1  588  17.694  15.304   9.901
  669ETHY    C1  589  17.543  15.457  10.389
  670ETHY    C1  590  17.377  15.701  10.844
  671AUSL   AUS  591  18.436  15.447   8.175
  672AUSL   AUS  592  18.782  15.560   7.918
  673AUL    AUL  593  18.763  15.599   8.296
  674THSLK    S  594  18.523  15.501   8.414
  675ETHY    C1  595  18.604  15.752   8.786
  676ETHY    C1  596  18.718  15.968   9.265
  677ETHY    C1  597  18.851  16.084   9.767
  678ETHY    C1  598  19.001  16.102  10.279
  679ETHY    C1  599  19.167  16.022  10.789
  680THSLK    S  600  18.956  15.662   8.080
  681ETHY    C1  601  19.320  15.672   8.354
  682ETHY    C1  602  19.736  15.774   8.680
  683ETHY    C1  603  20.116  15.973   8.995
  684ETHY    C1  604  20.451  16.260   9.296
  685ETHY    C1  605  20.732  16.628   9.577
  686AUSL   AUS  606  18.681  15.296   6.922
  687AUSL   AUS  607  18.537  15.712   6.992
  688AUL    AUL  608  18.763  15.599   6.707
  689THSLK    S  609  18.784  15.246   6.681
  690ETHY    C1  610  19.005  15.060   6.329
  691ETHY    C1  611  19.278  14.925   5.885
  692ETHY    C1  612  19.556  14.895   5.432
  693ETHY    C1  613  19.834  14.964   4.982
  694ETHY    C1  614  20.108  15.132   4.545
  695THSLK    S  615  18.715  15.827   6.825
  696ETHY    C1  616  19.003  15.932   6.488
  697ETHY    C1  617  19.303  16.136   6.090
  698ETHY    C1  618  19.546  16.424   5.714
  699ETHY    C1  619  19.730  16.788   5.371
  700ETHY    C1  620  19.854  17.219   5.065
  701AUSL   AUS  621  18.436  15.144   6.828
  702AUSL   AUS  622  18.782  15.031   7.085
  703AUL    AUL  623  18.763  14.992   6.707
  704THSLK    S  624  18.919  14.839   6.944
  705ETHY    C1  625  19.127  14.496   6.729
  706ETHY    C1  626  19.428  14.154   6.442
  707ETHY    C1  627  19.779  13.901   6.133
  708ETHY    C1  628  20.173  13.739   5.812
  709ETHY    C1  629  20.602  13.668   5.486
  710THSLK    S  630  18.523  15.090   6.590
  711ETHY    C1  631  18.604  14.839   6.217
  712ETHY    C1  632  18.718  14.623   5.738
  713ETHY    C1  633  18.851  14.507   5.236
  714ETHY    C1  634  19.001  14.489   4.725
  715ETHY    C1  635  19.167  14.569   4.214
  716AUSL   AUS  636  18.436  15.447   6.828
  717AUSL   AUS  637  18.109  15.144   6.828
  718AUL    AUL  638  18.272  15.296   6.520
  719THSLK    S  639  18.014  15.090   6.592
  720ETHY    C1  640  17.877  14.842   6.235
  721ETHY    C1  641  17.717  14.628   5.767
  722ETHY    C1  642  17.570  14.513   5.269
  723ETHY    C1  643  17.443  14.494   4.751
  724ETHY    C1  644  17.338  14.570   4.224
  725THSLK    S  645  18.539  15.405   6.578
  726ETHY    C1  646  18.680  15.290   6.160
  727ETHY    C1  647  18.838  15.243   5.647
  728ETHY    C1  648  18.981  15.299   5.138
  729ETHY    C1  649  19.109  15.453   4.643
  730ETHY    C1  650  19.220  15.701   4.174
  731AUSL   AUS  651  17.863  15.296   8.082
  732AUSL   AUS  652  18.007  15.712   8.012
  733AUL    AUL  653  17.781  15.599   8.296
  734THSLK    S  654  17.760  15.246   8.322
  735ETHY    C1  655  17.539  15.060   8.674
  736ETHY    C1  656  17.266  14.925   9.118
  737ETHY    C1  657  16.989  14.895   9.571
  738ETHY    C1  658  16.711  14.964  10.021
  739ETHY    C1  659  16.436  15.132  10.458
  740THSLK    S  660  17.887  15.841   8.202
  741ETHY    C1  661  17.818  16.010   8.620
  742ETHY    C1  662  17.676  16.263   9.073
  743ETHY    C1  663  17.470  16.564   9.460
  744ETHY    C1  664  17.203  16.903   9.775
  745ETHY    C1  665  16.883  17.270  10.013
  746AUSL   AUS  666  18.109  15.144   8.175
  747AUSL   AUS  667  17.762  15.031   7.918
  748AUL    AUL  668  17.781  14.992   8.296
  749THSLK    S  669  17.584  14.867   8.029
  750ETHY    C1  670  17.216  14.614   8.125
  751ETHY    C1  671  16.801  14.335   8.323
  752ETHY    C1  672  16.423  14.095   8.611
  753ETHY    C1  673  16.089  13.899   8.978
  754ETHY    C1  674  15.803  13.753   9.415
  755THSLK    S  675  18.006  15.092   8.410
  756ETHY    C1  676  17.864  14.845   8.766
  757ETHY    C1  677  17.706  14.630   9.233
  758ETHY    C1  678  17.563  14.514   9.733
  759ETHY    C1  679  17.436  14.496  10.250
  760ETHY    C1  680  17.324  14.574  10.775
  761AUSL   AUS  681  17.863  15.296   6.922
  762AUSL   AUS  682  18.007  14.879   6.992
  763AUL    AUL  683  17.781  14.992   6.707
  764THSLK    S  684  17.768  15.246   6.677
  765ETHY    C1  685  17.551  15.060   6.322
  766ETHY    C1  686  17.276  14.925   5.879
  767ETHY    C1  687  16.995  14.895   5.429
  768ETHY    C1  688  16.717  14.964   4.978
  769ETHY    C1  689  16.449  15.132   4.537
  770THSLK    S  690  17.835  14.705   6.872
  771ETHY    C1  691  17.550  14.384   6.717
  772ETHY    C1  692  17.249  14.025   6.453
  773ETHY    C1  693  17.004  13.702   6.109
  774ETHY    C1  694  16.820  13.419   5.696
  775ETHY    C1  695  16.701  13.179   5.223
  776AUSL   AUS  696  18.109  15.447   6.828
  777AUSL   AUS  697  17.762  15.560   7.085
  778AUL    AUL  698  17.781  15.599   6.707
  779THSLK    S  699  17.631  15.690   6.893
  780ETHY    C1  700  17.425  15.790   6.499
  781ETHY    C1  701  17.123  15.954   6.085
  782ETHY    C1  702  16.769  16.166   5.748
  783ETHY    C1  703  16.376  16.420   5.494
  784ETHY    C1  704  15.951  16.713   5.324
  785THSLK    S  705  18.030  15.406   6.571
  786ETHY    C1  706  17.953  15.294   6.136
  787ETHY    C1  707  17.837  15.249   5.612
  788ETHY    C1  708  17.701  15.305   5.101
  789ETHY    C1  709  17.551  15.459   4.613
  790ETHY    C1  710  17.391  15.704   4.156
  791AUSL   AUS  711  18.852  15.705   7.502
  792AUSL   AUS  712  18.782  15.560   7.085
  793AUL    AUL  713  19.066  15.786   7.198
  794THSLK    S  714  18.961  15.663   6.930
  795ETHY    C1  715  19.328  15.674   6.659
  796ETHY    C1  716  19.743  15.776   6.332
  797ETHY    C1  717  20.121  15.974   6.014
  798ETHY    C1  718  20.455  16.261   5.713
  799ETHY    C1  719  20.741  16.631   5.438
  800THSLK    S  720  19.120  15.761   7.506
  801ETHY    C1  721  19.572  15.822   7.508
  802ETHY    C1  722  20.086  15.981   7.507
  803ETHY    C1  723  20.554  16.235   7.505
  804ETHY    C1  724  20.967  16.572   7.506
  805ETHY    C1  725  21.319  16.986   7.509
  806AUSL   AUS  726  18.946  15.459   7.350
  807AUSL   AUS  727  18.946  15.132   7.653
  808AUL    AUL  728  19.254  15.296   7.502
  809THSLK    S  729  19.205  15.502   7.348
  810ETHY    C1  730  19.650  15.432   7.278
  811ETHY    C1  731  20.181  15.439   7.190
  812ETHY    C1  732  20.694  15.549   7.101
  813ETHY    C1  733  21.179  15.755   7.017
  814ETHY    C1  734  21.626  16.052   6.940
  815THSLK    S  735  19.178  14.994   7.662
  816ETHY    C1  736  19.524  14.705   7.728
  817ETHY    C1  737  19.985  14.438   7.809
  818ETHY    C1  738  20.482  14.269   7.892
  819ETHY    C1  739  21.003  14.197   7.980
  820ETHY    C1  740  21.538  14.223   8.071
  821AUSL   AUS  741  18.946  15.459   7.653
  822AUSL   AUS  742  18.689  15.806   7.766
  823AUL    AUL  743  19.066  15.786   7.805
  824THSLK    S  744  18.872  15.925   7.926
  825ETHY    C1  745  19.244  16.080   8.139
  826ETHY    C1  746  19.644  16.345   8.385
  827ETHY    C1  747  19.978  16.689   8.615
  828ETHY    C1  748  20.240  17.102   8.827
  829ETHY    C1  749  20.427  17.574   9.019
  830THSLK    S  750  19.204  15.502   7.664
  831ETHY    C1  751  19.648  15.432   7.738
  832ETHY    C1  752  20.179  15.439   7.825
  833ETHY    C1  753  20.693  15.549   7.910
  834ETHY    C1  754  21.177  15.755   7.994
  835ETHY    C1  755  21.624  16.052   8.078
  836AUSL   AUS  756  17.692  15.705   7.502
  837AUSL   AUS  757  17.762  15.560   7.918
  838AUL    AUL  758  17.478  15.786   7.805
  839THSLK    S  759  17.626  15.683   8.109
  840ETHY    C1  760  17.417  15.779   8.503
  841ETHY    C1  761  17.116  15.945   8.917
  842ETHY    C1  762  16.765  16.160   9.254
  843ETHY    C1  763  16.371  16.414   9.509
  844ETHY    C1  764  15.942  16.701   9.678
  845THSLK    S  765  17.476  15.845   7.506
  846ETHY    C1  766  17.220  16.223   7.508
  847ETHY    C1  767  16.847  16.611   7.507
  848ETHY    C1  768  16.411  16.917   7.505
  849ETHY    C1  769  15.925  17.135   7.506
  850ETHY    C1  770  15.398  17.265   7.509
  851AUSL   AUS  771  17.598  15.459   7.350
  852AUSL   AUS  772  17.856  15.806   7.237
  853AUL    AUL  773  17.478  15.786   7.198
  854THSLK    S  774  17.367  15.574   7.303
  855ETHY    C1  775  17.020  15.762   7.075
  856ETHY    C1  776  16.560  15.954   6.872
  857ETHY    C1  777  16.062  16.104   6.758
  858ETHY    C1  778  15.541  16.214   6.733
  859ETHY    C1  779  15.007  16.284   6.796
  860THSLK    S  780  17.740  15.971   7.058
  861ETHY    C1  781  17.624  16.287   6.750
  862ETHY    C1  782  17.410  16.665   6.432
  863ETHY    C1  783  17.118  17.034   6.183
  864ETHY    C1  784  16.760  17.387   6.008
  865ETHY    C1  785  16.342  17.720   5.909
  866AUSL   AUS  786  17.598  15.459   7.653
  867AUSL   AUS  787  17.598  15.132   7.350
  868AUL    AUL  788  17.290  15.296   7.502
  869THSLK    S  789  17.340  15.058   7.390
  870ETHY    C1  790  16.896  15.023   7.486
  871ETHY    C1  791  16.365  14.942   7.518
  872ETHY    C1  792  15.851  14.817   7.458
  873ETHY    C1  793  15.367  14.649   7.311
  874ETHY    C1  794  14.920  14.442   7.083
  875THSLK    S  795  17.365  15.566   7.704
  876ETHY    C1  796  17.018  15.750   7.935
  877ETHY    C1  797  16.558  15.943   8.137
  878ETHY    C1  798  16.061  16.098   8.249
  879ETHY    C1  799  15.540  16.208   8.274
  880ETHY    C1  800  15.004  16.271   8.213
  881AUSL   AUS  801  18.852  14.886   7.502
  882AUSL   AUS  802  18.782  15.031   7.918
  883AUL    AUL  803  19.066  14.805   7.805
  884THSLK    S  804  19.068  14.746   7.506
  885ETHY    C1  805  19.324  14.368   7.508
  886ETHY    C1  806  19.697  13.980   7.507
  887ETHY    C1  807  20.133  13.674   7.505
  888ETHY    C1  808  20.619  13.456   7.506
  889ETHY    C1  809  21.146  13.326   7.509
  890THSLK    S  810  18.914  14.841   8.066
  891ETHY    C1  811  19.119  14.498   8.285
  892ETHY    C1  812  19.421  14.156   8.570
  893ETHY    C1  813  19.775  13.903   8.877
  894ETHY    C1  814  20.169  13.740   9.198
  895ETHY    C1  815  20.593  13.670   9.529
  896AUSL   AUS  816  18.946  15.132   7.350
  897AUSL   AUS  817  18.689  14.785   7.237
  898AUL    AUL  818  19.066  14.805   7.198
  899THSLK    S  819  19.179  14.994   7.350
  900ETHY    C1  820  19.527  14.705   7.289
  901ETHY    C1  821  19.986  14.438   7.206
  902ETHY    C1  822  20.483  14.269   7.118
  903ETHY    C1  823  21.005  14.197   7.031
  904ETHY    C1  824  21.540  14.223   6.947
  905THSLK    S  825  18.808  14.595   7.104
  906ETHY    C1  826  18.925  14.178   6.963
  907ETHY    C1  827  19.139  13.724   6.765
  908ETHY    C1  828  19.429  13.338   6.543
  909ETHY    C1  829  19.788  13.023   6.306
  910ETHY    C1  830  20.208  12.784   6.058
  911AUSL   AUS  831  17.692  14.886   7.502
  912AUSL   AUS  832  17.762  15.031   7.085
  913AUL    AUL  833  17.478  14.805   7.198
  914THSLK    S  834  17.589  14.860   6.973
  915ETHY    C1  835  17.224  14.603   6.877
  916ETHY    C1  836  16.808  14.326   6.679
  917ETHY    C1  837  16.428  14.089   6.392
  918ETHY    C1  838  16.094  13.893   6.025
  919ETHY    C1  839  15.812  13.741   5.587
  920THSLK    S  840  17.424  14.830   7.506
  921ETHY    C1  841  16.972  14.769   7.508
  922ETHY    C1  842  16.458  14.610   7.507
  923ETHY    C1  843  15.990  14.356   7.505
  924ETHY    C1  844  15.577  14.019   7.506
  925ETHY    C1  845  15.225  13.605   7.509
  926AUSL   AUS  846  17.598  15.132   7.653
  927AUSL   AUS  847  17.856  14.785   7.766
  928AUL    AUL  848  17.478  14.805   7.805
  929THSLK    S  849  17.668  14.641   7.880
  930ETHY    C1  850  17.294  14.384   7.926
  931ETHY    C1  851  16.896  14.044   8.052
  932ETHY    C1  852  16.563  13.682   8.255
  933ETHY    C1  853  16.301  13.308   8.529
  934ETHY    C1  854  16.110  12.930   8.870
  935THSLK    S  855  17.339  15.065   7.617
  936ETHY    C1  856  16.894  15.035   7.524
  937ETHY    C1  857  16.363  14.953   7.490
  938ETHY    C1  858  15.850  14.824   7.549
  939ETHY    C1  859  15.366  14.656   7.696
  940ETHY    C1  860  14.918  14.454   7.928
  941AUSL   AUS  861  18.272  15.876   7.911
  942AUSL   AUS  862  17.856  15.806   7.766
  943AUL    AUL  863  17.969  16.090   7.992
  944THSLK    S  864  17.736  15.965   7.950
  945ETHY    C1  865  17.619  16.277   8.261
  946ETHY    C1  866  17.405  16.657   8.578
  947ETHY    C1  867  17.115  17.028   8.824
  948ETHY    C1  868  16.757  17.382   9.000
  949ETHY    C1  869  16.336  17.710   9.102
  950THSLK    S  870  18.312  16.102   8.035
  951ETHY    C1  871  18.469  16.404   8.339
  952ETHY    C1  872  18.584  16.810   8.672
  953ETHY    C1  873  18.611  17.254   8.964
  954ETHY    C1  874  18.551  17.723   9.211
  955ETHY    C1  875  18.407  18.207   9.410
  956AUSL   AUS  876  18.120  15.969   7.665
  957AUSL   AUS  877  18.424  15.969   7.338
  958AUL    AUL  878  18.272  16.277   7.502
  959THSLK    S  879  18.161  16.217   7.774
  960ETHY    C1  880  18.270  16.627   7.942
  961ETHY    C1  881  18.314  17.134   8.118
  962ETHY    C1  882  18.257  17.642   8.265
  963ETHY    C1  883  18.104  18.139   8.383
  964ETHY    C1  884  17.861  18.616   8.472
  965THSLK    S  885  18.477  16.204   7.241
  966ETHY    C1  886  18.722  16.560   7.094
  967ETHY    C1  887  18.935  17.025   6.927
  968ETHY    C1  888  19.050  17.523   6.779
  969ETHY    C1  889  19.070  18.042   6.655
  970ETHY    C1  890  18.995  18.571   6.558
  971AUSL   AUS  891  18.424  15.969   7.665
  972AUSL   AUS  892  18.537  15.712   8.012
  973AUL    AUL  893  18.575  16.090   7.992
  974THSLK    S  894  18.709  15.825   8.184
  975ETHY    C1  895  18.994  15.928   8.524
  976ETHY    C1  896  19.296  16.132   8.921
  977ETHY    C1  897  19.541  16.422   9.294
  978ETHY    C1  898  19.725  16.785   9.638
  979ETHY    C1  899  19.844  17.215   9.948
  980THSLK    S  900  18.475  16.203   7.771
  981ETHY    C1  901  18.719  16.557   7.922
  982ETHY    C1  902  18.932  17.023   8.087
  983ETHY    C1  903  19.048  17.522   8.231
  984ETHY    C1  904  19.067  18.040   8.356
  985ETHY    C1  905  18.992  18.568   8.458
  986AUSL   AUS  906  18.272  14.716   7.911
  987AUSL   AUS  907  18.689  14.785   7.766
  988AUL    AUL  908  18.575  14.501   7.992
  989THSLK    S  909  18.228  14.461   7.990
  990ETHY    C1  910  18.068  14.057   8.128
  991ETHY    C1  911  17.954  13.576   8.341
  992ETHY    C1  912  17.929  13.115   8.605
  993ETHY    C1  913  17.988  12.685   8.915
  994ETHY    C1  914  18.129  12.293   9.263
  995THSLK    S  915  18.804  14.596   7.908
  996ETHY    C1  916  18.920  14.180   8.052
  997ETHY    C1  917  19.134  13.727   8.248
  998ETHY    C1  918  19.426  13.339   8.467
  999ETHY    C1  919  19.785  13.024   8.705
 1000ETHY    C1  920  20.202  12.787   8.958
 1001AUSL   AUS  921  18.120  14.622   7.665
 1002AUSL   AUS  922  18.007  14.879   8.012
 1003AUL    AUL  923  17.969  14.501   7.992
 1004THSLK    S  924  18.067  14.382   7.745
 1005ETHY    C1  925  17.822  14.001   7.801
 1006ETHY    C1  926  17.609  13.516   7.897
 1007ETHY    C1  927  17.494  13.013   8.025
 1008ETHY    C1  928  17.475  12.504   8.186
 1009ETHY    C1  929  17.549  12.001   8.374
 1010THSLK    S  930  17.829  14.711   8.133
 1011ETHY    C1  931  17.541  14.393   8.289
 1012ETHY    C1  932  17.241  14.033   8.552
 1013ETHY    C1  933  16.998  13.707   8.896
 1014ETHY    C1  934  16.814  13.424   9.309
 1015ETHY    C1  935  16.690  13.190   9.783
 1016AUSL   AUS  936  18.424  14.622   7.665
 1017AUSL   AUS  937  18.120  14.622   7.338
 1018AUL    AUL  938  18.272  14.314   7.502
 1019THSLK    S  939  18.069  14.379   7.266
 1020ETHY    C1  940  17.825  13.997   7.215
 1021ETHY    C1  941  17.612  13.513   7.117
 1022ETHY    C1  942  17.496  13.011   6.984
 1023ETHY    C1  943  17.477  12.502   6.825
 1024ETHY    C1  944  17.553  11.997   6.642
 1025THSLK    S  945  18.381  14.366   7.749
 1026ETHY    C1  946  18.271  13.930   7.821
 1027ETHY    C1  947  18.228  13.404   7.928
 1028ETHY    C1  948  18.285  12.892   8.059
 1029ETHY    C1  949  18.438  12.404   8.213
 1030ETHY    C1  950  18.680  11.951   8.388
 1031AUSL   AUS  951  18.272  15.876   7.093
 1032AUSL   AUS  952  18.689  15.806   7.237
 1033AUL    AUL  953  18.575  16.090   7.011
 1034THSLK    S  954  18.316  16.106   6.975
 1035ETHY    C1  955  18.476  16.410   6.674
 1036ETHY    C1  956  18.590  16.815   6.339
 1037ETHY    C1  957  18.615  17.258   6.045
 1038ETHY    C1  958  18.556  17.727   5.798
 1039ETHY    C1  959  18.415  18.214   5.604
 1040THSLK    S  960  18.876  15.927   7.085
 1041ETHY    C1  961  19.250  16.083   6.876
 1042ETHY    C1  962  19.648  16.347   6.629
 1043ETHY    C1  963  19.981  16.691   6.395
 1044ETHY    C1  964  20.243  17.103   6.184
 1045ETHY    C1  965  20.434  17.577   5.998
 1046AUSL   AUS  966  18.120  15.969   7.338
 1047AUSL   AUS  967  18.007  15.712   6.992
 1048AUL    AUL  968  17.969  16.090   7.011
 1049THSLK    S  969  18.163  16.220   7.237
 1050ETHY    C1  970  18.273  16.631   7.074
 1051ETHY    C1  971  18.316  17.137   6.896
 1052ETHY    C1  972  18.259  17.645   6.745
 1053ETHY    C1  973  18.106  18.142   6.627
 1054ETHY    C1  974  17.864  18.621   6.545
 1055THSLK    S  975  17.893  15.847   6.802
 1056ETHY    C1  976  17.827  16.019   6.385
 1057ETHY    C1  977  17.684  16.271   5.932
 1058ETHY    C1  978  17.475  16.570   5.544
 1059ETHY    C1  979  17.209  16.908   5.230
 1060ETHY    C1  980  16.893  17.281   4.993
 1061AUSL   AUS  981  18.272  14.716   7.093
 1062AUSL   AUS  982  17.856  14.785   7.237
 1063AUL    AUL  983  17.969  14.501   7.011
 1064THSLK    S  984  17.672  14.635   7.128
 1065ETHY    C1  985  17.300  14.374   7.085
 1066ETHY    C1  986  16.901  14.036   6.958
 1067ETHY    C1  987  16.566  13.677   6.753
 1068ETHY    C1  988  16.304  13.303   6.478
 1069ETHY    C1  989  16.117  12.920   6.142
 1070THSLK    S  990  18.232  14.457   7.019
 1071ETHY    C1  991  18.075  14.051   6.885
 1072ETHY    C1  992  17.960  13.571   6.671
 1073ETHY    C1  993  17.933  13.112   6.404
 1074ETHY    C1  994  17.993  12.681   6.094
 1075ETHY    C1  995  18.137  12.286   5.751
 1076AUSL   AUS  996  18.424  14.622   7.338
 1077AUSL   AUS  997  18.537  14.879   6.992
 1078AUL    AUL  998  18.575  14.501   7.011
 1079THSLK    S  999  18.383  14.365   7.262
 1080ETHY    C1 1000  18.274  13.927   7.195
 1081ETHY    C1 1001  18.231  13.401   7.086
 1082ETHY    C1 1002  18.287  12.890   6.951
 1083ETHY    C1 1003  18.440  12.402   6.798
 1084ETHY    C1 1004  18.684  11.948   6.629
 1085THSLK    S 1005  18.657  14.689   6.853
 1086ETHY    C1 1006  18.726  14.303   6.621
 1087ETHY    C1 1007  18.868  13.895   6.300
 1088ETHY    C1 1008  19.075  13.559   5.942
 1089ETHY    C1 1009  19.341  13.302   5.559
 1090ETHY    C1 1010  19.661  13.124   5.158
 1091AUC    AUC 1011  43.057   8.366   7.502
 1092AUC    AUC 1012  43.303   8.366   7.350
 1093AUC    AUC 1013  43.303   8.366   7.653
 1094AUC    AUC 1014  42.812   8.366   7.350
 1095AUC    AUC 1015  42.812   8.366   7.653
 1096AUC    AUC 1016  42.905   8.611   7.502
 1097AUC    AUC 1017  43.209   8.611   7.502
 1098AUC    AUC 1018  42.905   8.120   7.502
 1099AUC    AUC 1019  43.209   8.120   7.502
 1100AUC    AUC 1020  43.057   8.214   7.747
 1101AUC    AUC 1021  43.057   8.517   7.747
 1102AUC    AUC 1022  43.057   8.214   7.256
 1103AUC    AUC 1023  43.057   8.517   7.256
 1104AUC    AUC 1024  43.548   8.366   7.198
 1105AUC    AUC 1025  43.548   8.366   7.502
 1106AUC    AUC 1026  43.548   8.366   7.805
 1107AUC    AUC 1027  42.566   8.366   7.198
 1108AUC    AUC 1028  42.566   8.366   7.502
 1109AUC    AUC 1029  42.566   8.366   7.805
 1110AUC    AUC 1030  42.754   8.856   7.502
 1111AUC    AUC 1031  43.057   8.856   7.502
 1112AUC    AUC 1032  43.360   8.856   7.502
 1113AUC    AUC 1033  42.754   7.875   7.502
 1114AUC    AUC 1034  43.057   7.875   7.502
 1115AUC    AUC 1035  43.360   7.875   7.502
 1116AUC    AUC 1036  43.057   8.062   7.992
 1117AUC    AUC 1037  43.057   8.366   7.992
 1118AUC    AUC 1038  43.057   8.669   7.992
 1119AUC    AUC 1039  43.057   8.062   7.011
 1120AUC    AUC 1040  43.057   8.366   7.011
 1121AUC    AUC 1041  43.057   8.669   7.011
 1122AUC    AUC 1042  43.303   8.214   7.899
 1123AUC    AUC 1043  43.303   8.517   7.899
 1124AUC    AUC 1044  43.303   8.214   7.105
 1125AUC    AUC 1045  43.303   8.517   7.105
 1126AUC    AUC 1046  42.812   8.214   7.899
 1127AUC    AUC 1047  42.812   8.517   7.899
 1128AUC    AUC 1048  42.812   8.214   7.105
 1129AUC    AUC 1049  42.812   8.517   7.105
 1130AUC    AUC 1050  43.454   8.611   7.350
 1131AUC    AUC 1051  43.454   8.611   7.653
 1132AUC    AUC 1052  42.660   8.611   7.350
 1133AUC    AUC 1053  42.660   8.611   7.653
 1134AUC    AUC 1054  43.454   8.120   7.350
 1135AUC    AUC 1055  43.454   8.120   7.653
 1136AUC    AUC 1056  42.660   8.120   7.350
 1137AUC    AUC 1057  42.660   8.120   7.653
 1138AUC    AUC 1058  42.905   8.763   7.747
 1139AUC    AUC 1059  43.209   8.763   7.747
 1140AUC    AUC 1060  42.905   7.968   7.747
 1141AUC    AUC 1061  43.209   7.968   7.747
 1142AUC    AUC 1062  42.905   8.763   7.256
 1143AUC    AUC 1063  43.209   8.763   7.256
 1144AUC    AUC 1064  42.905   7.968   7.256
 1145AUC    AUC 1065  43.209   7.968   7.256
 1146AUSL   AUS 1066  43.466   8.366   8.082
 1147AUSL   AUS 1067  43.322   7.949   8.012
 1148AUL    AUL 1068  43.548   8.062   8.296
 1149THSLK    S 1069  43.436   7.761   8.156
 1150ETHY    C1 1070  43.502   7.376   8.391
 1151ETHY    C1 1071  43.645   6.968   8.710
 1152ETHY    C1 1072  43.854   6.632   9.066
 1153ETHY    C1 1073  44.120   6.374   9.450
 1154ETHY    C1 1074  44.436   6.198   9.855
 1155THSLK    S 1075  43.562   8.316   8.326
 1156ETHY    C1 1076  43.778   8.130   8.681
 1157ETHY    C1 1077  44.053   7.995   9.124
 1158ETHY    C1 1078  44.334   7.965   9.575
 1159ETHY    C1 1079  44.612   8.034  10.025
 1160ETHY    C1 1080  44.881   8.202  10.466
 1161AUSL   AUS 1081  43.221   8.214   8.175
 1162AUSL   AUS 1082  42.894   8.517   8.175
 1163AUL    AUL 1083  43.057   8.366   8.483
 1164THSLK    S 1084  43.299   8.161   8.417
 1165ETHY    C1 1085  43.376   7.911   8.790
 1166ETHY    C1 1086  43.492   7.694   9.269
 1167ETHY    C1 1087  43.629   7.578   9.769
 1168ETHY    C1 1088  43.779   7.560  10.281
 1169ETHY    C1 1089  43.938   7.641  10.794
 1170THSLK    S 1090  42.807   8.474   8.431
 1171ETHY    C1 1091  42.725   8.362   8.864
 1172ETHY    C1 1092  42.611   8.316   9.388
 1173ETHY    C1 1093  42.479   8.374   9.901
 1174ETHY    C1 1094  42.328   8.527  10.389
 1175ETHY    C1 1095  42.162   8.771  10.844
 1176AUSL   AUS 1096  43.221   8.517   8.175
 1177AUSL   AUS 1097  43.567   8.630   7.918
 1178AUL    AUL 1098  43.548   8.669   8.296
 1179THSLK    S 1099  43.308   8.571   8.414
 1180ETHY    C1 1100  43.389   8.822   8.786
 1181ETHY    C1 1101  43.503   9.038   9.265
 1182ETHY    C1 1102  43.636   9.154   9.767
 1183ETHY    C1 1103  43.786   9.172  10.279
 1184ETHY    C1 1104  43.952   9.092  10.789
 1185THSLK    S 1105  43.741   8.732   8.080
 1186ETHY    C1 1106  44.105   8.742   8.354
 1187ETHY    C1 1107  44.521   8.844   8.680
 1188ETHY    C1 1108  44.901   9.043   8.995
 1189ETHY    C1 1109  45.236   9.330   9.296
 1190ETHY    C1 1110  45.517   9.698   9.577
 1191AUSL   AUS 1111  43.466   8.366   6.922
 1192AUSL   AUS 1112  43.322   8.782   6.992
 1193AUL    AUL 1113  43.548   8.669   6.707
 1194THSLK    S 1114  43.569   8.316   6.681
 1195ETHY    C1 1115  43.790   8.130   6.329
 1196ETHY    C1 1116  44.063   7.995   5.885
 1197ETHY    C1 1117  44.341   7.965   5.432
 1198ETHY    C1 1118  44.619   8.034   4.982
 1199ETHY    C1 1119  44.893   8.202   4.545
 1200THSLK    S 1120  43.500   8.897   6.825
 1201ETHY    C1 1121  43.788   9.002   6.488
 1202ETHY    C1 1122  44.088   9.206   6.090
 1203ETHY    C1 1123  44.331   9.494   5.714
 1204ETHY    C1 1124  44.515   9.858   5.371
 1205ETHY    C1 1125  44.639  10.289   5.065
 1206AUSL   AUS 1126  43.221   8.214   6.828
 1207AUSL   AUS 1127  43.567   8.101   7.085
 1208AUL    AUL 1128  43.548   8.062   6.707
 1209THSLK    S 1129  43.704   7.909   6.944
 1210ETHY    C1 1130  43.912   7.566   6.729
 1211ETHY    C1 1131  44.213   7.224   6.442
 1212ETHY    C1 1132  44.564   6.971   6.133
 1213ETHY    C1 1133  44.958   6.809   5.812
 1214ETHY    C1 1134  45.387   6.738   5.486
 1215THSLK    S 1135  43.308   8.160   6.590
 1216ETHY    C1 1136  43.389   7.909   6.217
 1217ETHY    C1 1137  43.503   7.693   5.738
 1218ETHY    C1 1138  43.636   7.577   5.236
 1219ETHY    C1 1139  43.786   7.559   4.725
 1220ETHY    C1 1140  43.952   7.639   4.214
 1221AUSL   AUS 1141  43.221   8.517   6.828
 1222AUSL   AUS 1142  42.894   8.214   6.828
 1223AUL    AUL 1143  43.057   8.366   6.520
 1224THSLK    S 1144  42.799   8.160   6.592
 1225ETHY    C1 1145  42.662   7.912   6.235
 1226ETHY    C1 1146  42.502   7.698   5.767
 1227ETHY    C1 1147  42.355   7.583   5.269
 1228ETHY    C1 1148  42.228   7.564   4.751
 1229ETHY    C1 1149  42.123   7.640   4.224
 1230THSLK    S 1150  43.324   8.475   6.578
 1231ETHY    C1 1151  43.465   8.360   6.160
 1232ETHY    C1 1152  43.623   8.313   5.647
 1233ETHY    C1 1153  43.766   8.369   5.138
 1234ETHY    C1 1154  43.894   8.523   4.643
 1235ETHY    C1 1155  44.005   8.771   4.174
 1236AUSL   AUS 1156  42.648   8.366   8.082
 1237AUSL   AUS 1157  42.792   8.782   8.012
 1238AUL    AUL 1158  42.566   8.669   8.296
 1239THSLK    S 1159  42.545   8.316   8.322
 1240ETHY    C1 1160  42.324   8.130   8.674
 1241ETHY    C1 1161  42.051   7.995   9.118
 1242ETHY    C1 1162  41.774   7.965   9.571
 1243ETHY    C1 1163  41.496   8.034  10.021
 1244ETHY    C1 1164  41.221   8.202  10.458
 1245THSLK    S 1165  42.672   8.911   8.202
 1246ETHY    C1 1166  42.603   9.080   8.620
 1247ETHY    C1 1167  42.461   9.333   9.073
 1248ETHY    C1 1168  42.255   9.634   9.460
 1249ETHY    C1 1169  41.988   9.973   9.775
 1250ETHY    C1 1170  41.668  10.340  10.013
 1251AUSL   AUS 1171  42.894   8.214   8.175
 1252AUSL   AUS 1172  42.547   8.101   7.918
 1253AUL    AUL 1173  42.566   8.062   8.296
 1254THSLK    S 1174  42.369   7.937   8.029
 1255ETHY    C1 1175  42.001   7.684   8.125
 1256ETHY    C1 1176  41.586   7.405   8.323
 1257ETHY    C1 1177  41.208   7.165   8.611
 1258ETHY    C1 1178  40.874   6.969   8.978
 1259ETHY    C1 1179  40.588   6.823   9.415
 1260THSLK    S 1180  42.791   8.162   8.410
 1261ETHY    C1 1181  42.649   7.915   8.766
 1262ETHY    C1 1182  42.491   7.700   9.233
 1263ETHY    C1 1183  42.348   7.584   9.733
 1264ETHY    C1 1184  42.221   7.566  10.250
 1265ETHY    C1 1185  42.109   7.644  10.775
 1266AUSL   AUS 1186  42.648   8.366   6.922
 1267AUSL   AUS 1187  42.792   7.949   6.992
 1268AUL    AUL 1188  42.566   8.062   6.707
 1269THSLK    S 1189  42.553   8.316   6.677
 1270ETHY    C1 1190  42.336   8.130   6.322
 1271ETHY    C1 1191  42.061   7.995   5.879
 1272ETHY    C1 1192  41.780   7.965   5.429
 1273ETHY    C1 1193  41.502   8.034   4.978
 1274ETHY    C1 1194  41.234   8.202   4.537
 1275THSLK    S 1195  42.620   7.775   6.872
 1276ETHY    C1 1196  42.335   7.454   6.717
 1277ETHY    C1 1197  42.034   7.095   6.453
 1278ETHY    C1 1198  41.789   6.772   6.109
 1279ETHY    C1 1199  41.605   6.489   5.696
 1280ETHY    C1 1200  41.486   6.249   5.223
 1281AUSL   AUS 1201  42.894   8.517   6.828
 1282AUSL   AUS 1202  42.547   8.630   7.085
 1283AUL    AUL 1203  42.566   8.669   6.707
 1284THSLK    S 1204  42.416   8.760   6.893
 1285ETHY    C1 1205  42.210   8.860   6.499
 1286ETHY    C1 1206  41.908   9.024   6.085
 1287ETHY    C1 1207  41.554   9.236   5.748
 1288ETHY    C1 1208  41.161   9.490   5.494
 1289ETHY    C1 1209  40.736   9.783   5.324
 1290THSLK    S 1210  42.815   8.476   6.571
 1291ETHY    C1 1211  42.738   8.364   6.136
 1292ETHY    C1 1212  42.622   8.319   5.612
 1293ETHY    C1 1213  42.486   8.375   5.101
 1294ETHY    C1 1214  42.336   8.529   4.613
 1295ETHY    C1 1215  42.176   8.774   4.156
 1296AUSL   AUS 1216  43.637   8.775   7.502
 1297AUSL   AUS 1217  43.567   8.630   7.085
 1298AUL    AUL 1218  43.851   8.856   7.198
 1299THSLK    S 1219  43.746   8.733   6.930
 1300ETHY    C1 1220  44.113   8.744   6.659
 1301ETHY    C1 1221  44.528   8.846   6.332
 1302ETHY    C1 1222  44.906   9.044   6.014
 1303ETHY    C1 1223  45.240   9.331   5.713
 1304ETHY    C1 1224  45.526   9.701   5.438
 1305THSLK    S 1225  43.905   8.831   7.506
 1306ETHY    C1 1226  44.357   8.892   7.508
 1307ETHY    C1 1227  44.871   9.051   7.507
 1308ETHY    C1 1228  45.339   9.305   7.505
 1309ETHY    C1 1229  45.752   9.642   7.506
 1310ETHY    C1 1230  46.104  10.056   7.509
 1311AUSL   AUS 1231  43.731   8.529   7.350
 1312AUSL   AUS 1232  43.731   8.202   7.653
 1313AUL    AUL 1233  44.039   8.366   7.502
 1314THSLK    S 1234  43.990   8.572   7.348
 1315ETHY    C1 1235  44.435   8.502   7.278
 1316ETHY    C1 1236  44.966   8.509   7.190
 1317ETHY    C1 1237  45.479   8.619   7.101
 1318ETHY    C1 1238  45.964   8.825   7.017
 1319ETHY    C1 1239  46.411   9.122   6.940
 1320THSLK    S 1240  43.963   8.064   7.662
 1321ETHY    C1 1241  44.309   7.775   7.728
 1322ETHY    C1 1242  44.770   7.508   7.809
 1323ETHY    C1 1243  45.267   7.339   7.892
 1324ETHY    C1 1244  45.788   7.267   7.980
 1325ETHY    C1 1245  46.323   7.293   8.071
 1326AUSL   AUS 1246  43.731   8.529   7.653
 1327AUSL   AUS 1247  43.474   8.876   7.766
 1328AUL    AUL 1248  43.851   8.856   7.805
 1329THSLK    S 1249  43.657   8.995   7.926
 1330ETHY    C1 1250  44.029   9.150   8.139
 1331ETHY    C1 1251  44.429   9.415   8.385
 1332ETHY    C1 1252  44.763   9.759   8.615
 1333ETHY    C1 1253  45.025  10.172   8.827
 1334ETHY    C1 1254  45.212  10.644   9.019
 1335THSLK    S 1255  43.989   8.572   7.664
 1336ETHY    C1 1256  44.433   8.502   7.738
 1337ETHY    C1 1257  44.964   8.509   7.825
 1338ETHY    C1 1258  45.478   8.619   7.910
 1339ETHY    C1 1259  45.962   8.825   7.994
 1340ETHY    C1 1260  46.409   9.122   8.078
 1341AUSL   AUS 1261  42.477   8.775   7.502
 1342AUSL   AUS 1262  42.547   8.630   7.918
 1343AUL    AUL 1263  42.263   8.856   7.805
 1344THSLK    S 1264  42.411   8.753   8.109
 1345ETHY    C1 1265  42.202   8.849   8.503
 1346ETHY    C1 1266  41.901   9.015   8.917
 1347ETHY    C1 1267  41.550   9.230   9.254
 1348ETHY    C1 1268  41.156   9.484   9.509
 1349ETHY    C1 1269  40.727   9.771   9.678
 1350THSLK    S 1270  42.261   8.915   7.506
 1351ETHY    C1 1271  42.005   9.293   7.508
 1352ETHY    C1 1272  41.632   9.681   7.507
 1353ETHY    C1 1273  41.196   9.987   7.505
 1354ETHY    C1 1274  40.710  10.205   7.506
 1355ETHY    C1 1275  40.183  10.335   7.509
 1356AUSL   AUS 1276  42.383   8.529   7.350
 1357AUSL   AUS 1277  42.641   8.876   7.237
 1358AUL    AUL 1278  42.263   8.856   7.198
 1359THSLK    S 1279  42.152   8.644   7.303
 1360ETHY    C1 1280  41.805   8.832   7.075
 1361ETHY    C1 1281  41.345   9.024   6.872
 1362ETHY    C1 1282  40.847   9.174   6.758
 1363ETHY    C1 1283  40.326   9.284   6.733
 1364ETHY    C1 1284  39.792   9.354   6.796
 1365THSLK    S 1285  42.525   9.041   7.058
 1366ETHY    C1 1286  42.409   9.357   6.750
 1367ETHY    C1 1287  42.195   9.735   6.432
 1368ETHY    C1 1288  41.903  10.104   6.183
 1369ETHY    C1 1289  41.545  10.457   6.008
 1370ETHY    C1 1290  41.127  10.790   5.909
 1371AUSL   AUS 1291  42.383   8.529   7.653
 1372AUSL   AUS 1292  42.383   8.202   7.350
 1373AUL    AUL 1293  42.075   8.366   7.502
 1374THSLK    S 1294  42.125   8.128   7.390
 1375ETHY    C1 1295  41.681   8.093   7.486
 1376ETHY    C1 1296  41.150   8.012   7.518
 1377ETHY    C1 1297  40.636   7.887   7.458
 1378ETHY    C1 1298  40.152   7.719   7.311
 1379ETHY    C1 1299  39.705   7.512   7.083
 1380THSLK    S 1300  42.150   8.636   7.704
 1381ETHY    C1 1301  41.803   8.820   7.935
 1382ETHY    C1 1302  41.343   9.013   8.137
 1383ETHY    C1 1303  40.846   9.168   8.249
 1384ETHY    C1 1304  40.325   9.278   8.274
 1385ETHY    C1 1305  39.789   9.341   8.213
 1386AUSL   AUS 1306  43.637   7.956   7.502
 1387AUSL   AUS 1307  43.567   8.101   7.918
 1388AUL    AUL 1308  43.851   7.875   7.805
 1389THSLK    S 1309  43.853   7.816   7.506
 1390ETHY    C1 1310  44.109   7.438   7.508
 1391ETHY    C1 1311  44.482   7.050   7.507
 1392ETHY    C1 1312  44.918   6.744   7.505
 1393ETHY    C1 1313  45.404   6.526   7.506
 1394ETHY    C1 1314  45.931   6.396   7.509
 1395THSLK    S 1315  43.699   7.911   8.066
 1396ETHY    C1 1316  43.904   7.568   8.285
 1397ETHY    C1 1317  44.206   7.226   8.570
 1398ETHY    C1 1318  44.560   6.973   8.877
 1399ETHY    C1 1319  44.954   6.810   9.198
 1400ETHY    C1 1320  45.378   6.740   9.529
 1401AUSL   AUS 1321  43.731   8.202   7.350
 1402AUSL   AUS 1322  43.474   7.855   7.237
 1403AUL    AUL 1323  43.851   7.875   7.198
 1404THSLK    S 1324  43.964   8.064   7.350
 1405ETHY    C1 1325  44.312   7.775   7.289
 1406ETHY    C1 1326  44.771   7.508   7.206
 1407ETHY    C1 1327  45.268   7.339   7.118
 1408ETHY    C1 1328  45.790   7.267   7.031
 1409ETHY    C1 1329  46.325   7.293   6.947
 1410THSLK    S 1330  43.593   7.665   7.104
 1411ETHY    C1 1331  43.710   7.248   6.963
 1412ETHY    C1 1332  43.924   6.794   6.765
 1413ETHY    C1 1333  44.214   6.408   6.543
 1414ETHY    C1 1334  44.573   6.093   6.306
 1415ETHY    C1 1335  44.993   5.854   6.058
 1416AUSL   AUS 1336  42.477   7.956   7.502
 1417AUSL   AUS 1337  42.547   8.101   7.085
 1418AUL    AUL 1338  42.263   7.875   7.198
 1419THSLK    S 1339  42.374   7.930   6.973
 1420ETHY    C1 1340  42.009   7.673   6.877
 1421ETHY    C1 1341  41.593   7.396   6.679
 1422ETHY    C1 1342  41.213   7.159   6.392
 1423ETHY    C1 1343  40.879   6.963   6.025
 1424ETHY    C1 1344  40.597   6.811   5.587
 1425THSLK    S 1345  42.209   7.900   7.506
 1426ETHY    C1 1346  41.757   7.839   7.508
 1427ETHY    C1 1347  41.243   7.680   7.507
 1428ETHY    C1 1348  40.775   7.426   7.505
 1429ETHY    C1 1349  40.362   7.089   7.506
 1430ETHY    C1 1350  40.010   6.675   7.509
 1431AUSL   AUS 1351  42.383   8.202   7.653
 1432AUSL   AUS 1352  42.641   7.855   7.766
 1433AUL    AUL 1353  42.263   7.875   7.805
 1434THSLK    S 1354  42.453   7.711   7.880
 1435ETHY    C1 1355  42.079   7.454   7.926
 1436ETHY    C1 1356  41.681   7.114   8.052
 1437ETHY    C1 1357  41.348   6.752   8.255
 1438ETHY    C1 1358  41.086   6.378   8.529
 1439ETHY    C1 1359  40.895   6.000   8.870
 1440THSLK    S 1360  42.124   8.135   7.617
 1441ETHY    C1 1361  41.679   8.105   7.524
 1442ETHY    C1 1362  41.148   8.023   7.490
 1443ETHY    C1 1363  40.635   7.894   7.549
 1444ETHY    C1 1364  40.151   7.726   7.696
 1445ETHY    C1 1365  39.703   7.524   7.928
 1446AUSL   AUS 1366  43.057   8.946   7.911
 1447AUSL   AUS 1367  42.641   8.876   7.766
 1448AUL    AUL 1368  42.754   9.160   7.992
 1449THSLK    S 1369  42.521   9.035   7.950
 1450ETHY    C1 1370  42.404   9.347   8.261
 1451ETHY    C1 1371  42.190   9.727   8.578
 1452ETHY    C1 1372  41.900  10.098   8.824
 1453ETHY    C1 1373  41.542  10.452   9.000
 1454ETHY    C1 1374  41.121  10.780   9.102
 1455THSLK    S 1375  43.097   9.172   8.035
 1456ETHY    C1 1376  43.254   9.474   8.339
 1457ETHY    C1 1377  43.369   9.880   8.672
 1458ETHY    C1 1378  43.396  10.324   8.964
 1459ETHY    C1 1379  43.336  10.793   9.211
 1460ETHY    C1 1380  43.192  11.277   9.410
 1461AUSL   AUS 1381  42.905   9.039   7.665
 1462AUSL   AUS 1382  43.209   9.039   7.338
 1463AUL    AUL 1383  43.057   9.347   7.502
 1464THSLK    S 1384  42.946   9.287   7.774
 1465ETHY    C1 1385  43.055   9.697   7.942
 1466ETHY    C1 1386  43.099  10.204   8.118
 1467ETHY    C1 1387  43.042  10.712   8.265
 1468ETHY    C1 1388  42.889  11.209   8.383
 1469ETHY    C1 1389  42.646  11.686   8.472
 1470THSLK    S 1390  43.262   9.274   7.241
 1471ETHY    C1 1391  43.507   9.630   7.094
 1472ETHY    C1 1392  43.720  10.095   6.927
 1473ETHY    C1 1393  43.835  10.593   6.779
 1474ETHY    C1 1394  43.855  11.112   6.655
 1475ETHY    C1 1395  43.780  11.641   6.558
 1476AUSL   AUS 1396  43.209   9.039   7.665
 1477AUSL   AUS 1397  43.322   8.782   8.012
 1478AUL    AUL 1398  43.360   9.160   7.992
 1479THSLK    S 1399  43.494   8.895   8.184
 1480ETHY    C1 1400  43.779   8.998   8.524
 1481ETHY    C1 1401  44.081   9.202   8.921
 1482ETHY    C1 1402  44.326   9.492   9.294
 1483ETHY    C1 1403  44.510   9.855   9.638
 1484ETHY    C1 1404  44.629  10.285   9.948
 1485THSLK    S 1405  43.260   9.273   7.771
 1486ETHY    C1 1406  43.504   9.627   7.922
 1487ETHY    C1 1407  43.717  10.093   8.087
 1488ETHY    C1 1408  43.833  10.592   8.231
 1489ETHY    C1 1409  43.852  11.110   8.356
 1490ETHY    C1 1410  43.777  11.638   8.458
 1491AUSL   AUS 1411  43.057   7.786   7.911
 1492AUSL   AUS 1412  43.474   7.855   7.766
 1493AUL    AUL 1413  43.360   7.571   7.992
 1494THSLK    S 1414  43.013   7.531   7.990
 1495ETHY    C1 1415  42.853   7.127   8.128
 1496ETHY    C1 1416  42.739   6.646   8.341
 1497ETHY    C1 1417  42.714   6.185   8.605
 1498ETHY    C1 1418  42.773   5.755   8.915
 1499ETHY    C1 1419  42.914   5.363   9.263
 1500THSLK    S 1420  43.589   7.666   7.908
 1501ETHY    C1 1421  43.705   7.250   8.052
 1502ETHY    C1 1422  43.919   6.797   8.248
 1503ETHY    C1 1423  44.211   6.409   8.467
 1504ETHY    C1 1424  44.570   6.094   8.705
 1505ETHY    C1 1425  44.987   5.857   8.958
 1506AUSL   AUS 1426  42.905   7.692   7.665
 1507AUSL   AUS 1427  42.792   7.949   8.012
 1508AUL    AUL 1428  42.754   7.571   7.992
 1509THSLK    S 1429  42.852   7.452   7.745
 1510ETHY    C1 1430  42.607   7.071   7.801
 1511ETHY    C1 1431  42.394   6.586   7.897
 1512ETHY    C1 1432  42.279   6.083   8.025
 1513ETHY    C1 1433  42.260   5.574   8.186
 1514ETHY    C1 1434  42.334   5.071   8.374
 1515THSLK    S 1435  42.614   7.781   8.133
 1516ETHY    C1 1436  42.326   7.463   8.289
 1517ETHY    C1 1437  42.026   7.103   8.552
 1518ETHY    C1 1438  41.783   6.777   8.896
 1519ETHY    C1 1439  41.599   6.494   9.309
 1520ETHY    C1 1440  41.475   6.260   9.783
 1521AUSL   AUS 1441  43.209   7.692   7.665
 1522AUSL   AUS 1442  42.905   7.692   7.338
 1523AUL    AUL 1443  43.057   7.384   7.502
 1524THSLK    S 1444  42.854   7.449   7.266
 1525ETHY    C1 1445  42.610   7.067   7.215
 1526ETHY    C1 1446  42.397   6.583   7.117
 1527ETHY    C1 1447  42.281   6.081   6.984
 1528ETHY    C1 1448  42.262   5.572   6.825
 1529ETHY    C1 1449  42.338   5.067   6.642
 1530THSLK    S 1450  43.166   7.436   7.749
 1531ETHY    C1 1451  43.056   7.000   7.821
 1532ETHY    C1 1452  43.013   6.474   7.928
 1533ETHY    C1 1453  43.070   5.962   8.059
 1534ETHY    C1 1454  43.223   5.474   8.213
 1535ETHY    C1 1455  43.465   5.021   8.388
 1536AUSL   AUS 1456  43.057   8.946   7.093
 1537AUSL   AUS 1457  43.474   8.876   7.237
 1538AUL    AUL 1458  43.360   9.160   7.011
 1539THSLK    S 1459  43.101   9.176   6.975
 1540ETHY    C1 1460  43.261   9.480   6.674
 1541ETHY    C1 1461  43.375   9.885   6.339
 1542ETHY    C1 1462  43.400  10.328   6.045
 1543ETHY    C1 1463  43.341  10.797   5.798
 1544ETHY    C1 1464  43.200  11.284   5.604
 1545THSLK    S 1465  43.661   8.997   7.085
 1546ETHY    C1 1466  44.035   9.153   6.876
 1547ETHY    C1 1467  44.433   9.417   6.629
 1548ETHY    C1 1468  44.766   9.761   6.395
 1549ETHY    C1 1469  45.028  10.173   6.184
 1550ETHY    C1 1470  45.219  10.647   5.998
 1551AUSL   AUS 1471  42.905   9.039   7.338
 1552AUSL   AUS 1472  42.792   8.782   6.992
 1553AUL    AUL 1473  42.754   9.160   7.011
 1554THSLK    S 1474  42.948   9.290   7.237
 1555ETHY    C1 1475  43.058   9.701   7.074
 1556ETHY    C1 1476  43.101  10.207   6.896
 1557ETHY    C1 1477  43.044  10.715   6.745
 1558ETHY    C1 1478  42.891  11.212   6.627
 1559ETHY    C1 1479  42.649  11.691   6.545
 1560THSLK    S 1480  42.678   8.917   6.802
 1561ETHY    C1 1481  42.612   9.089   6.385
 1562ETHY    C1 1482  42.469   9.341   5.932
 1563ETHY    C1 1483  42.260   9.640   5.544
 1564ETHY    C1 1484  41.994   9.978   5.230
 1565ETHY    C1 1485  41.678  10.351   4.993
 1566AUSL   AUS 1486  43.057   7.786   7.093
 1567AUSL   AUS 1487  42.641   7.855   7.237
 1568AUL    AUL 1488  42.754   7.571   7.011
 1569THSLK    S 1489  42.457   7.705   7.128
 1570ETHY    C1 1490  42.085   7.444   7.085
 1571ETHY    C1 1491  41.686   7.106   6.958
 1572ETHY    C1 1492  41.351   6.747   6.753
 1573ETHY    C1 1493  41.089   6.373   6.478
 1574ETHY    C1 1494  40.902   5.990   6.142
 1575THSLK    S 1495  43.017   7.527   7.019
 1576ETHY    C1 1496  42.860   7.121   6.885
 1577ETHY    C1 1497  42.745   6.641   6.671
 1578ETHY    C1 1498  42.718   6.182   6.404
 1579ETHY    C1 1499  42.778   5.751   6.094
 1580ETHY    C1 1500  42.922   5.356   5.751
 1581AUSL   AUS 1501  43.209   7.692   7.338
 1582AUSL   AUS 1502  43.322   7.949   6.992
 1583AUL    AUL 1503  43.360   7.571   7.011
 1584THSLK    S 1504  43.168   7.435   7.262
 1585ETHY    C1 1505  43.059   6.997   7.195
 1586ETHY    C1 1506  43.016   6.471   7.086
 1587ETHY    C1 1507  43.072   5.960   6.951
 1588ETHY    C1 1508  43.225   5.472   6.798
 1589ETHY    C1 1509  43.469   5.018   6.629
 1590THSLK    S 1510  43.442   7.759   6.853
 1591ETHY    C1 1511  43.511   7.373   6.621
 1592ETHY    C1 1512  43.653   6.965   6.300
 1593ETHY    C1 1513  43.860   6.629   5.942
 1594ETHY    C1 1514  44.126   6.372   5.559
 1595ETHY    C1 1515  44.446   6.194   5.158
 1596AUC    AUC 1516  10.942   8.158   7.502
 1597AUC    AUC 1517  11.188   8.158   7.350
 1598AUC    AUC 1518  11.188   8.158   7.653
 1599AUC    AUC 1519  10.697   8.158   7.350
 1600AUC    AUC 1520  10.697   8.158   7.653
 1601AUC    AUC 1521  10.790   8.403   7.502
 1602AUC    AUC 1522  11.094   8.403   7.502
 1603AUC    AUC 1523  10.790   7.912   7.502
 1604AUC    AUC 1524  11.094   7.912   7.502
 1605AUC    AUC 1525  10.942   8.006   7.747
 1606AUC    AUC 1526  10.942   8.309   7.747
 1607AUC    AUC 1527  10.942   8.006   7.256
 1608AUC    AUC 1528  10.942   8.309   7.256
 1609AUC    AUC 1529  11.433   8.158   7.198
 1610AUC    AUC 1530  11.433   8.158   7.502
 1611AUC    AUC 1531  11.433   8.158   7.805
 1612AUC    AUC 1532  10.451   8.158   7.198
 1613AUC    AUC 1533  10.451   8.158   7.502
 1614AUC    AUC 1534  10.451   8.158   7.805
 1615AUC    AUC 1535  10.639   8.648   7.502
 1616AUC    AUC 1536  10.942   8.648   7.502
 1617AUC    AUC 1537  11.245   8.648   7.502
 1618AUC    AUC 1538  10.639   7.667   7.502
 1619AUC    AUC 1539  10.942   7.667   7.502
 1620AUC    AUC 1540  11.245   7.667   7.502
 1621AUC    AUC 1541  10.942   7.854   7.992
 1622AUC    AUC 1542  10.942   8.158   7.992
 1623AUC    AUC 1543  10.942   8.461   7.992
 1624AUC    AUC 1544  10.942   7.854   7.011
 1625AUC    AUC 1545  10.942   8.158   7.011
 1626AUC    AUC 1546  10.942   8.461   7.011
 1627AUC    AUC 1547  11.188   8.006   7.899
 1628AUC    AUC 1548  11.188   8.309   7.899
 1629AUC    AUC 1549  11.188   8.006   7.105
 1630AUC    AUC 1550  11.188   8.309   7.105
 1631AUC    AUC 1551  10.697   8.006   7.899
 1632AUC    AUC 1552  10.697   8.309   7.899
 1633AUC    AUC 1553  10.697   8.006   7.105
 1634AUC    AUC 1554  10.697   8.309   7.105
 1635AUC    AUC 1555  11.339   8.403   7.350
 1636AUC    AUC 1556  11.339   8.403   7.653
 1637AUC    AUC 1557  10.545   8.403   7.350
 1638AUC    AUC 1558  10.545   8.403   7.653
 1639AUC    AUC 1559  11.339   7.912   7.350
 1640AUC    AUC 1560  11.339   7.912   7.653
 1641AUC    AUC 1561  10.545   7.912   7.350
 1642AUC    AUC 1562  10.545   7.912   7.653
 1643AUC    AUC 1563  10.790   8.555   7.747
 1644AUC    AUC 1564  11.094   8.555   7.747
 1645AUC    AUC 1565  10.790   7.760   7.747
 1646AUC    AUC 1566  11.094   7.760   7.747
 1647AUC    AUC 1567  10.790   8.555   7.256
 1648AUC    AUC 1568  11.094   8.555   7.256
 1649AUC    AUC 1569  10.790   7.760   7.256
 1650AUC    AUC 1570  11.094   7.760   7.256
 1651AUSL   AUS 1571  11.351   8.158   8.082
 1652AUSL   AUS 1572  11.207   7.741   8.012
 1653AUL    AUL 1573  11.433   7.854   8.296
 1654THSLK    S 1574  11.321   7.553   8.156
 1655ETHY    C1 1575  11.387   7.168   8.391
 1656ETHY    C1 1576  11.530   6.760   8.710
 1657ETHY    C1 1577  11.739   6.424   9.066
 1658ETHY    C1 1578  12.005   6.166   9.450
 1659ETHY    C1 1579  12.321   5.990   9.855
 1660THSLK    S 1580  11.447   8.108   8.326
 1661ETHY    C1 1581  11.663   7.922   8.681
 1662ETHY    C1 1582  11.938   7.787   9.124
 1663ETHY    C1 1583  12.219   7.757   9.575
 1664ETHY    C1 1584  12.497   7.826  10.025
 1665ETHY    C1 1585  12.766   7.994  10.466
 1666AUSL   AUS 1586  11.106   8.006   8.175
 1667AUSL   AUS 1587  10.779   8.309   8.175
 1668AUL    AUL 1588  10.942   8.158   8.483
 1669THSLK    S 1589  11.184   7.953   8.417
 1670ETHY    C1 1590  11.261   7.703   8.790
 1671ETHY    C1 1591  11.377   7.486   9.269
 1672ETHY    C1 1592  11.514   7.370   9.769
 1673ETHY    C1 1593  11.664   7.352  10.281
 1674ETHY    C1 1594  11.823   7.433  10.794
 1675THSLK    S 1595  10.692   8.266   8.431
 1676ETHY    C1 1596  10.610   8.154   8.864
 1677ETHY    C1 1597  10.496   8.108   9.388
 1678ETHY    C1 1598  10.364   8.166   9.901
 1679ETHY    C1 1599  10.213   8.319  10.389
 1680ETHY    C1 1600  10.047   8.563  10.844
 1681AUSL   AUS 1601  11.106   8.309   8.175
 1682AUSL   AUS 1602  11.452   8.422   7.918
 1683AUL    AUL 1603  11.433   8.461   8.296
 1684THSLK    S 1604  11.193   8.363   8.414
 1685ETHY    C1 1605  11.274   8.614   8.786
 1686ETHY    C1 1606  11.388   8.830   9.265
 1687ETHY    C1 1607  11.521   8.946   9.767
 1688ETHY    C1 1608  11.671   8.964  10.279
 1689ETHY    C1 1609  11.837   8.884  10.789
 1690THSLK    S 1610  11.626   8.524   8.080
 1691ETHY    C1 1611  11.990   8.534   8.354
 1692ETHY    C1 1612  12.406   8.636   8.680
 1693ETHY    C1 1613  12.786   8.835   8.995
 1694ETHY    C1 1614  13.121   9.122   9.296
 1695ETHY    C1 1615  13.402   9.490   9.577
 1696AUSL   AUS 1616  11.351   8.158   6.922
 1697AUSL   AUS 1617  11.207   8.574   6.992
 1698AUL    AUL 1618  11.433   8.461   6.707
 1699THSLK    S 1619  11.454   8.108   6.681
 1700ETHY    C1 1620  11.675   7.922   6.329
 1701ETHY    C1 1621  11.948   7.787   5.885
 1702ETHY    C1 1622  12.226   7.757   5.432
 1703ETHY    C1 1623  12.504   7.826   4.982
 1704ETHY    C1 1624  12.778   7.994   4.545
 1705THSLK    S 1625  11.385   8.689   6.825
 1706ETHY    C1 1626  11.673   8.794   6.488
 1707ETHY    C1 1627  11.973   8.998   6.090
 1708ETHY    C1 1628  12.216   9.286   5.714
 1709ETHY    C1 1629  12.400   9.650   5.371
 1710ETHY    C1 1630  12.524  10.081   5.065
 1711AUSL   AUS 1631  11.106   8.006   6.828
 1712AUSL   AUS 1632  11.452   7.893   7.085
 1713AUL    AUL 1633  11.433   7.854   6.707
 1714THSLK    S 1634  11.589   7.701   6.944
 1715ETHY    C1 1635  11.797   7.358   6.729
 1716ETHY    C1 1636  12.098   7.016   6.442
 1717ETHY    C1 1637  12.449   6.763   6.133
 1718ETHY    C1 1638  12.843   6.601   5.812
 1719ETHY    C1 1639  13.272   6.530   5.486
 1720THSLK    S 1640  11.193   7.952   6.590
 1721ETHY    C1 1641  11.274   7.701   6.217
 1722ETHY    C1 1642  11.388   7.485   5.738
 1723ETHY    C1 1643  11.521   7.369   5.236
 1724ETHY    C1 1644  11.671   7.351   4.725
 1725ETHY    C1 1645  11.837   7.431   4.214
 1726AUSL   AUS 1646  11.106   8.309   6.828
 1727AUSL   AUS 1647  10.779   8.006   6.828
 1728AUL    AUL 1648  10.942   8.158   6.520
 1729THSLK    S 1649  10.684   7.952   6.592
 1730ETHY    C1 1650  10.547   7.704   6.235
 1731ETHY    C1 1651  10.387   7.490   5.767
 1732ETHY    C1 1652  10.240   7.375   5.269
 1733ETHY    C1 1653  10.113   7.356   4.751
 1734ETHY    C1 1654  10.008   7.432   4.224
 1735THSLK    S 1655  11.209   8.267   6.578
 1736ETHY    C1 1656  11.350   8.152   6.160
 1737ETHY    C1 1657  11.508   8.105   5.647
 1738ETHY    C1 1658  11.651   8.161   5.138
 1739ETHY    C1 1659  11.779   8.315   4.643
 1740ETHY    C1 1660  11.890   8.563   4.174
 1741AUSL   AUS 1661  10.533   8.158   8.082
 1742AUSL   AUS 1662  10.677   8.574   8.012
 1743AUL    AUL 1663  10.451   8.461   8.296
 1744THSLK    S 1664  10.430   8.108   8.322
 1745ETHY    C1 1665  10.209   7.922   8.674
 1746ETHY    C1 1666   9.936   7.787   9.118
 1747ETHY    C1 1667   9.659   7.757   9.571
 1748ETHY    C1 1668   9.381   7.826  10.021
 1749ETHY    C1 1669   9.106   7.994  10.458
 1750THSLK    S 1670  10.557   8.703   8.202
 1751ETHY    C1 1671  10.488   8.872   8.620
 1752ETHY    C1 1672  10.346   9.125   9.073
 1753ETHY    C1 1673  10.140   9.426   9.460
 1754ETHY    C1 1674   9.873   9.765   9.775
 1755ETHY    C1 1675   9.553  10.132  10.013
 1756AUSL   AUS 1676  10.779   8.006   8.175
 1757AUSL   AUS 1677  10.432   7.893   7.918
 1758AUL    AUL 1678  10.451   7.854   8.296
 1759THSLK    S 1679  10.254   7.729   8.029
 1760ETHY    C1 1680   9.886   7.476   8.125
 1761ETHY    C1 1681   9.471   7.197   8.323
 1762ETHY    C1 1682   9.093   6.957   8.611
 1763ETHY    C1 1683   8.759   6.761   8.978
 1764ETHY    C1 1684   8.473   6.615   9.415
 1765THSLK    S 1685  10.676   7.954   8.410
 1766ETHY    C1 1686  10.534   7.707   8.766
 1767ETHY    C1 1687  10.376   7.492   9.233
 1768ETHY    C1 1688  10.233   7.376   9.733
 1769ETHY    C1 1689  10.106   7.358  10.250
 1770ETHY    C1 1690   9.994   7.436  10.775
 1771AUSL   AUS 1691  10.533   8.158   6.922
 1772AUSL   AUS 1692  10.677   7.741   6.992
 1773AUL    AUL 1693  10.451   7.854   6.707
 1774THSLK    S 1694  10.438   8.108   6.677
 1775ETHY    C1 1695  10.221   7.922   6.322
 1776ETHY    C1 1696   9.946   7.787   5.879
 1777ETHY    C1 1697   9.665   7.757   5.429
 1778ETHY    C1 1698   9.387   7.826   4.978
 1779ETHY    C1 1699   9.119   7.994   4.537
 1780THSLK    S 1700  10.505   7.567   6.872
 1781ETHY    C1 1701  10.220   7.246   6.717
 1782ETHY    C1 1702   9.919   6.887   6.453
 1783ETHY    C1 1703   9.674   6.564   6.109
 1784ETHY    C1 1704   9.490   6.281   5.696
 1785ETHY    C1 1705   9.371   6.041   5.223
 1786AUSL   AUS 1706  10.779   8.309   6.828
 1787AUSL   AUS 1707  10.432   8.422   7.085
 1788AUL    AUL 1708  10.451   8.461   6.707
 1789THSLK    S 1709  10.301   8.552   6.893
 1790ETHY    C1 1710  10.095   8.652   6.499
 1791ETHY    C1 1711   9.793   8.816   6.085
 1792ETHY    C1 1712   9.439   9.028   5.748
 1793ETHY    C1 1713   9.046   9.282   5.494
 1794ETHY    C1 1714   8.621   9.575   5.324
 1795THSLK    S 1715  10.700   8.268   6.571
 1796ETHY    C1 1716  10.623   8.156   6.136
 1797ETHY    C1 1717  10.507   8.111   5.612
 1798ETHY    C1 1718  10.371   8.167   5.101
 1799ETHY    C1 1719  10.221   8.321   4.613
 1800ETHY    C1 1720  10.061   8.566   4.156
 1801AUSL   AUS 1721  11.522   8.567   7.502
 1802AUSL   AUS 1722  11.452   8.422   7.085
 1803AUL    AUL 1723  11.736   8.648   7.198
 1804THSLK    S 1724  11.631   8.525   6.930
 1805ETHY    C1 1725  11.998   8.536   6.659
 1806ETHY    C1 1726  12.413   8.638   6.332
 1807ETHY    C1 1727  12.791   8.836   6.014
 1808ETHY    C1 1728  13.125   9.123   5.713
 1809ETHY    C1 1729  13.411   9.493   5.438
 1810THSLK    S 1730  11.790   8.623   7.506
 1811ETHY    C1 1731  12.242   8.684   7.508
 1812ETHY    C1 1732  12.756   8.843   7.507
 1813ETHY    C1 1733  13.224   9.097   7.505
 1814ETHY    C1 1734  13.637   9.434   7.506
 1815ETHY    C1 1735  13.989   9.848   7.509
 1816AUSL   AUS 1736  11.616   8.321   7.350
 1817AUSL   AUS 1737  11.616   7.994   7.653
 1818AUL    AUL 1738  11.924   8.158   7.502
 1819THSLK    S 1739  11.875   8.364   7.348
 1820ETHY    C1 1740  12.320   8.294   7.278
 1821ETHY    C1 1741  12.851   8.301   7.190
 1822ETHY    C1 1742  13.364   8.411   7.101
 1823ETHY    C1 1743  13.849   8.617   7.017
 1824ETHY    C1 1744  14.296   8.914   6.940
 1825THSLK    S 1745  11.848   7.856   7.662
 1826ETHY    C1 1746  12.194   7.567   7.728
 1827ETHY    C1 1747  12.655   7.300   7.809
 1828ETHY    C1 1748  13.152   7.131   7.892
 1829ETHY    C1 1749  13.673   7.059   7.980
 1830ETHY    C1 1750  14.208   7.085   8.071
 1831AUSL   AUS 1751  11.616   8.321   7.653
 1832AUSL   AUS 1752  11.359   8.668   7.766
 1833AUL    AUL 1753  11.736   8.648   7.805
 1834THSLK    S 1754  11.542   8.787   7.926
 1835ETHY    C1 1755  11.914   8.942   8.139
 1836ETHY    C1 1756  12.314   9.207   8.385
 1837ETHY    C1 1757  12.648   9.551   8.615
 1838ETHY    C1 1758  12.910   9.964   8.827
 1839ETHY    C1 1759  13.097  10.436   9.019
 1840THSLK    S 1760  11.874   8.364   7.664
 1841ETHY    C1 1761  12.318   8.294   7.738
 1842ETHY    C1 1762  12.849   8.301   7.825
 1843ETHY    C1 1763  13.363   8.411   7.910
 1844ETHY    C1 1764  13.847   8.617   7.994
 1845ETHY    C1 1765  14.294   8.914   8.078
 1846AUSL   AUS 1766  10.362   8.567   7.502
 1847AUSL   AUS 1767  10.432   8.422   7.918
 1848AUL    AUL 1768  10.148   8.648   7.805
 1849THSLK    S 1769  10.296   8.545   8.109
 1850ETHY    C1 1770  10.087   8.641   8.503
 1851ETHY    C1 1771   9.786   8.807   8.917
 1852ETHY    C1 1772   9.435   9.022   9.254
 1853ETHY    C1 1773   9.041   9.276   9.509
 1854ETHY    C1 1774   8.612   9.563   9.678
 1855THSLK    S 1775  10.146   8.707   7.506
 1856ETHY    C1 1776   9.890   9.085   7.508
 1857ETHY    C1 1777   9.517   9.473   7.507
 1858ETHY    C1 1778   9.081   9.779   7.505
 1859ETHY    C1 1779   8.595   9.997   7.506
 1860ETHY    C1 1780   8.068  10.127   7.509
 1861AUSL   AUS 1781  10.268   8.321   7.350
 1862AUSL   AUS 1782  10.526   8.668   7.237
 1863AUL    AUL 1783  10.148   8.648   7.198
 1864THSLK    S 1784  10.037   8.436   7.303
 1865ETHY    C1 1785   9.690   8.624   7.075
 1866ETHY    C1 1786   9.230   8.816   6.872
 1867ETHY    C1 1787   8.732   8.966   6.758
 1868ETHY    C1 1788   8.211   9.076   6.733
 1869ETHY    C1 1789   7.677   9.146   6.796
 1870THSLK    S 1790  10.410   8.833   7.058
 1871ETHY    C1 1791  10.294   9.149   6.750
 1872ETHY    C1 1792  10.080   9.527   6.432
 1873ETHY    C1 1793   9.788   9.896   6.183
 1874ETHY    C1 1794   9.430  10.249   6.008
 1875ETHY    C1 1795   9.012  10.582   5.909
 1876AUSL   AUS 1796  10.268   8.321   7.653
 1877AUSL   AUS 1797  10.268   7.994   7.350
 1878AUL    AUL 1798   9.960   8.158   7.502
 1879THSLK    S 1799  10.010   7.920   7.390
 1880ETHY    C1 1800   9.566   7.885   7.486
 1881ETHY    C1 1801   9.035   7.804   7.518
 1882ETHY    C1 1802   8.521   7.679   7.458
 1883ETHY    C1 1803   8.037   7.511   7.311
 1884ETHY    C1 1804   7.590   7.304   7.083
 1885THSLK    S 1805  10.035   8.428   7.704
 1886ETHY    C1 1806   9.688   8.612   7.935
 1887ETHY    C1 1807   9.228   8.805   8.137
 1888ETHY    C1 1808   8.731   8.960   8.249
 1889ETHY    C1 1809   8.210   9.070   8.274
 1890ETHY    C1 1810   7.674   9.133   8.213
 1891AUSL   AUS 1811  11.522   7.748   7.502
 1892AUSL   AUS 1812  11.452   7.893   7.918
 1893AUL    AUL 1813  11.736   7.667   7.805
 1894THSLK    S 1814  11.738   7.608   7.506
 1895ETHY    C1 1815  11.994   7.230   7.508
 1896ETHY    C1 1816  12.367   6.842   7.507
 1897ETHY    C1 1817  12.803   6.536   7.505
 1898ETHY    C1 1818  13.289   6.318   7.506
 1899ETHY    C1 1819  13.816   6.188   7.509
 1900THSLK    S 1820  11.584   7.703   8.066
 1901ETHY    C1 1821  11.789   7.360   8.285
 1902ETHY    C1 1822  12.091   7.018   8.570
 1903ETHY    C1 1823  12.445   6.765   8.877
 1904ETHY    C1 1824  12.839   6.602   9.198
 1905ETHY    C1 1825  13.263   6.532   9.529
 1906AUSL   AUS 1826  11.616   7.994   7.350
 1907AUSL   AUS 1827  11.359   7.647   7.237
 1908AUL    AUL 1828  11.736   7.667   7.198
 1909THSLK    S 1829  11.849   7.856   7.350
 1910ETHY    C1 1830  12.197   7.567   7.289
 1911ETHY    C1 1831  12.656   7.300   7.206
 1912ETHY    C1 1832  13.153   7.131   7.118
 1913ETHY    C1 1833  13.675   7.059   7.031
 1914ETHY    C1 1834  14.210   7.085   6.947
 1915THSLK    S 1835  11.478   7.457   7.104
 1916ETHY    C1 1836  11.595   7.040   6.963
 1917ETHY    C1 1837  11.809   6.586   6.765
 1918ETHY    C1 1838  12.099   6.200   6.543
 1919ETHY    C1 1839  12.458   5.885   6.306
 1920ETHY    C1 1840  12.878   5.646   6.058
 1921AUSL   AUS 1841  10.362   7.748   7.502
 1922AUSL   AUS 1842  10.432   7.893   7.085
 1923AUL    AUL 1843  10.148   7.667   7.198
 1924THSLK    S 1844  10.259   7.722   6.973
 1925ETHY    C1 1845   9.894   7.465   6.877
 1926ETHY    C1 1846   9.478   7.188   6.679
 1927ETHY    C1 1847   9.098   6.951   6.392
 1928ETHY    C1 1848   8.764   6.755   6.025
 1929ETHY    C1 1849   8.482   6.603   5.587
 1930THSLK    S 1850  10.094   7.692   7.506
 1931ETHY    C1 1851   9.642   7.631   7.508
 1932ETHY    C1 1852   9.128   7.472   7.507
 1933ETHY    C1 1853   8.660   7.218   7.505
 1934ETHY    C1 1854   8.247   6.881   7.506
 1935ETHY    C1 1855   7.895   6.467   7.509
 1936AUSL   AUS 1856  10.268   7.994   7.653
 1937AUSL   AUS 1857  10.526   7.647   7.766
 1938AUL    AUL 1858  10.148   7.667   7.805
 1939THSLK    S 1859  10.338   7.503   7.880
 1940ETHY    C1 1860   9.964   7.246   7.926
 1941ETHY    C1 1861   9.566   6.906   8.052
 1942ETHY    C1 1862   9.233   6.544   8.255
 1943ETHY    C1 1863   8.971   6.170   8.529
 1944ETHY    C1 1864   8.780   5.792   8.870
 1945THSLK    S 1865  10.009   7.927   7.617
 1946ETHY    C1 1866   9.564   7.897   7.524
 1947ETHY    C1 1867   9.033   7.815   7.490
 1948ETHY    C1 1868   8.520   7.686   7.549
 1949ETHY    C1 1869   8.036   7.518   7.696
 1950ETHY    C1 1870   7.588   7.316   7.928
 1951AUSL   AUS 1871  10.942   8.738   7.911
 1952AUSL   AUS 1872  10.526   8.668   7.766
 1953AUL    AUL 1873  10.639   8.952   7.992
 1954THSLK    S 1874  10.406   8.827   7.950
 1955ETHY    C1 1875  10.289   9.139   8.261
 1956ETHY    C1 1876  10.075   9.519   8.578
 1957ETHY    C1 1877   9.785   9.890   8.824
 1958ETHY    C1 1878   9.427  10.244   9.000
 1959ETHY    C1 1879   9.006  10.572   9.102
 1960THSLK    S 1880  10.982   8.964   8.035
 1961ETHY    C1 1881  11.139   9.266   8.339
 1962ETHY    C1 1882  11.254   9.672   8.672
 1963ETHY    C1 1883  11.281  10.116   8.964
 1964ETHY    C1 1884  11.221  10.585   9.211
 1965ETHY    C1 1885  11.077  11.069   9.410
 1966AUSL   AUS 1886  10.790   8.831   7.665
 1967AUSL   AUS 1887  11.094   8.831   7.338
 1968AUL    AUL 1888  10.942   9.139   7.502
 1969THSLK    S 1889  10.831   9.079   7.774
 1970ETHY    C1 1890  10.940   9.489   7.942
 1971ETHY    C1 1891  10.984   9.996   8.118
 1972ETHY    C1 1892  10.927  10.504   8.265
 1973ETHY    C1 1893  10.774  11.001   8.383
 1974ETHY    C1 1894  10.531  11.478   8.472
 1975THSLK    S 1895  11.147   9.066   7.241
 1976ETHY    C1 1896  11.392   9.422   7.094
 1977ETHY    C1 1897  11.605   9.887   6.927
 1978ETHY    C1 1898  11.720  10.385   6.779
 1979ETHY    C1 1899  11.740  10.904   6.655
 1980ETHY    C1 1900  11.665  11.433   6.558
 1981AUSL   AUS 1901  11.094   8.831   7.665
 1982AUSL   AUS 1902  11.207   8.574   8.012
 1983AUL    AUL 1903  11.245   8.952   7.992
 1984THSLK    S 1904  11.379   8.687   8.184
 1985ETHY    C1 1905  11.664   8.790   8.524
 1986ETHY    C1 1906  11.966   8.994   8.921
 1987ETHY    C1 1907  12.211   9.284   9.294
 1988ETHY    C1 1908  12.395   9.647   9.638
 1989ETHY    C1 1909  12.514  10.077   9.948
 1990THSLK    S 1910  11.145   9.065   7.771
 1991ETHY    C1 1911  11.389   9.419   7.922
 1992ETHY    C1 1912  11.602   9.885   8.087
 1993ETHY    C1 1913  11.718  10.384   8.231
 1994ETHY    C1 1914  11.737  10.902   8.356
 1995ETHY    C1 1915  11.662  11.430   8.458
 1996AUSL   AUS 1916  10.942   7.578   7.911
 1997AUSL   AUS 1917  11.359   7.647   7.766
 1998AUL    AUL 1918  11.245   7.363   7.992
 1999THSLK    S 1919  10.898   7.323   7.990
 2000ETHY    C1 1920  10.738   6.919   8.128
 2001ETHY    C1 1921  10.624   6.438   8.341
 2002ETHY    C1 1922  10.599   5.977   8.605
 2003ETHY    C1 1923  10.658   5.547   8.915
 2004ETHY    C1 1924  10.799   5.155   9.263
 2005THSLK    S 1925  11.474   7.458   7.908
 2006ETHY    C1 1926  11.590   7.042   8.052
 2007ETHY    C1 1927  11.804   6.589   8.248
 2008ETHY    C1 1928  12.096   6.201   8.467
 2009ETHY    C1 1929  12.455   5.886   8.705
 2010ETHY    C1 1930  12.872   5.649   8.958
 2011AUSL   AUS 1931  10.790   7.484   7.665
 2012AUSL   AUS 1932  10.677   7.741   8.012
 2013AUL    AUL 1933  10.639   7.363   7.992
 2014THSLK    S 1934  10.737   7.244   7.745
 2015ETHY    C1 1935  10.492   6.863   7.801
 2016ETHY    C1 1936  10.279   6.378   7.897
 2017ETHY    C1 1937  10.164   5.875   8.025
 2018ETHY    C1 1938  10.145   5.366   8.186
 2019ETHY    C1 1939  10.219   4.863   8.374
 2020THSLK    S 1940  10.499   7.573   8.133
 2021ETHY    C1 1941  10.211   7.255   8.289
 2022ETHY    C1 1942   9.911   6.895   8.552
 2023ETHY    C1 1943   9.668   6.569   8.896
 2024ETHY    C1 1944   9.484   6.286   9.309
 2025ETHY    C1 1945   9.360   6.052   9.783
 2026AUSL   AUS 1946  11.094   7.484   7.665
 2027AUSL   AUS 1947  10.790   7.484   7.338
 2028AUL    AUL 1948  10.942   7.176   7.502
 2029THSLK    S 1949  10.739   7.241   7.266
 2030ETHY    C1 1950  10.495   6.859   7.215
 2031ETHY    C1 1951  10.282   6.375   7.117
 2032ETHY    C1 1952  10.166   5.873   6.984
 2033ETHY    C1 1953  10.147   5.364   6.825
 2034ETHY    C1 1954  10.223   4.859   6.642
 2035THSLK    S 1955  11.051   7.228   7.749
 2036ETHY    C1 1956  10.941   6.792   7.821
 2037ETHY    C1 1957  10.898   6.266   7.928
 2038ETHY    C1 1958  10.955   5.754   8.059
 2039ETHY    C1 1959  11.108   5.266   8.213
 2040ETHY    C1 1960  11.350   4.813   8.388
 2041AUSL   AUS 1961  10.942   8.738   7.093
 2042AUSL   AUS 1962  11.359   8.668   7.237
 2043AUL    AUL 1963  11.245   8.952   7.011
 2044THSLK    S 1964  10.986   8.968   6.975
 2045ETHY    C1 1965  11.146   9.272   6.674
 2046ETHY    C1 1966  11.260   9.677   6.339
 2047ETHY    C1 1967  11.285  10.120   6.045
 2048ETHY    C1 1968  11.226  10.589   5.798
 2049ETHY    C1 1969  11.085  11.076   5.604
 2050THSLK    S 1970  11.546   8.789   7.085
 2051ETHY    C1 1971  11.920   8.945   6.876
 2052ETHY    C1 1972  12.318   9.209   6.629
 2053ETHY    C1 1973  12.651   9.553   6.395
 2054ETHY    C1 1974  12.913   9.965   6.184
 2055ETHY    C1 1975  13.104  10.439   5.998
 2056AUSL   AUS 1976  10.790   8.831   7.338
 2057AUSL   AUS 1977  10.677   8.574   6.992
 2058AUL    AUL 1978  10.639   8.952   7.011
 2059THSLK    S 1979  10.833   9.082   7.237
 2060ETHY    C1 1980  10.943   9.493   7.074
 2061ETHY    C1 1981  10.986   9.999   6.896
 2062ETHY    C1 1982  10.929  10.507   6.745
 2063ETHY    C1 1983  10.776  11.004   6.627
 2064ETHY    C1 1984  10.534  11.483   6.545
 2065THSLK    S 1985  10.563   8.709   6.802
 2066ETHY    C1 1986  10.497   8.881   6.385
 2067ETHY    C1 1987  10.354   9.133   5.932
 2068ETHY    C1 1988  10.145   9.432   5.544
 2069ETHY    C1 1989   9.879   9.770   5.230
 2070ETHY    C1 1990   9.563  10.143   4.993
 2071AUSL   AUS 1991  10.942   7.578   7.093
 2072AUSL   AUS 1992  10.526   7.647   7.237
 2073AUL    AUL 1993  10.639   7.363   7.011
 2074THSLK    S 1994  10.342   7.497   7.128
 2075ETHY    C1 1995   9.970   7.236   7.085
 2076ETHY    C1 1996   9.571   6.898   6.958
 2077ETHY    C1 1997   9.236   6.539   6.753
 2078ETHY    C1 1998   8.974   6.165   6.478
 2079ETHY    C1 1999   8.787   5.782   6.142
 2080THSLK    S 2000  10.902   7.319   7.019
 2081ETHY    C1 2001  10.745   6.913   6.885
 2082ETHY    C1 2002  10.630   6.433   6.671
 2083ETHY    C1 2003  10.603   5.974   6.404
 2084ETHY    C1 2004  10.663   5.543   6.094
 2085ETHY    C1 2005  10.807   5.148   5.751
 2086AUSL   AUS 2006  11.094   7.484   7.338
 2087AUSL   AUS 2007  11.207   7.741   6.992
 2088AUL    AUL 2008  11.245   7.363   7.011
 2089THSLK    S 2009  11.053   7.227   7.262
 2090ETHY    C1 2010  10.944   6.789   7.195
 2091ETHY    C1 2011  10.901   6.263   7.086
 2092ETHY    C1 2012  10.957   5.752   6.951
 2093ETHY    C1 2013  11.110   5.264   6.798
 2094ETHY    C1 2014  11.354   4.810   6.629
 2095THSLK    S 2015  11.327   7.551   6.853
 2096ETHY    C1 2016  11.396   7.165   6.621
 2097ETHY    C1 2017  11.538   6.757   6.300
 2098ETHY    C1 2018  11.745   6.421   5.942
 2099ETHY    C1 2019  12.011   6.164   5.559
 2100ETHY    C1 2020  12.331   5.986   5.158
 2101AUC    AUC 2021  34.699   7.178   7.502
 2102AUC    AUC 2022  34.945   7.178   7.350
 2103AUC    AUC 2023  34.945   7.178   7.653
 2104AUC    AUC 2024  34.454   7.178   7.350
 2105AUC    AUC 2025  34.454   7.178   7.653
 2106AUC    AUC 2026  34.547   7.423   7.502
 2107AUC    AUC 2027  34.851   7.423   7.502
 2108AUC    AUC 2028  34.547   6.932   7.502
 2109AUC    AUC 2029  34.851   6.932   7.502
 2110AUC    AUC 2030  34.699   7.026   7.747
 2111AUC    AUC 2031  34.699   7.329   7.747
 2112AUC    AUC 2032  34.699   7.026   7.256
 2113AUC    AUC 2033  34.699   7.329   7.256
 2114AUC    AUC 2034  35.190   7.178   7.198
 2115AUC    AUC 2035  35.190   7.178   7.502
 2116AUC    AUC 2036  35.190   7.178   7.805
 2117AUC    AUC 2037  34.208   7.178   7.198
 2118AUC    AUC 2038  34.208   7.178   7.502
 2119AUC    AUC 2039  34.208   7.178   7.805
 2120AUC    AUC 2040  34.396   7.668   7.502
 2121AUC    AUC 2041  34.699   7.668   7.502
 2122AUC    AUC 2042  35.002   7.668   7.502
 2123AUC    AUC 2043  34.396   6.687   7.502
 2124AUC    AUC 2044  34.699   6.687   7.502
 2125AUC    AUC 2045  35.002   6.687   7.502
 2126AUC    AUC 2046  34.699   6.874   7.992
 2127AUC    AUC 2047  34.699   7.178   7.992
 2128AUC    AUC 2048  34.699   7.481   7.992
 2129AUC    AUC 2049  34.699   6.874   7.011
 2130AUC    AUC 2050  34.699   7.178   7.011
 2131AUC    AUC 2051  34.699   7.481   7.011
 2132AUC    AUC 2052  34.945   7.026   7.899
 2133AUC    AUC 2053  34.945   7.329   7.899
 2134AUC    AUC 2054  34.945   7.026   7.105
 2135AUC    AUC 2055  34.945   7.329   7.105
 2136AUC    AUC 2056  34.454   7.026   7.899
 2137AUC    AUC 2057  34.454   7.329   7.899
 2138AUC    AUC 2058  34.454   7.026   7.105
 2139AUC    AUC 2059  34.454   7.329   7.105
 2140AUC    AUC 2060  35.096   7.423   7.350
 2141AUC    AUC 2061  35.096   7.423   7.653
 2142AUC    AUC 2062  34.302   7.423   7.350
 2143AUC    AUC 2063  34.302   7.423   7.653
 2144AUC    AUC 2064  35.096   6.932   7.350
 2145AUC    AUC 2065  35.096   6.932   7.653
 2146AUC    AUC 2066  34.302   6.932   7.350
 2147AUC    AUC 2067  34.302   6.932   7.653
 2148AUC    AUC 2068  34.547   7.575   7.747
 2149AUC    AUC 2069  34.851   7.575   7.747
 2150AUC    AUC 2070  34.547   6.780   7.747
 2151AUC    AUC 2071  34.851   6.780   7.747
 2152AUC    AUC 2072  34.547   7.575   7.256
 2153AUC    AUC 2073  34.851   7.575   7.256
 2154AUC    AUC 2074  34.547   6.780   7.256
 2155AUC    AUC 2075  34.851   6.780   7.256
 2156AUSL   AUS 2076  35.108   7.178   8.082
 2157AUSL   AUS 2077  34.964   6.761   8.012
 2158AUL    AUL 2078  35.190   6.874   8.296
 2159THSLK    S 2079  35.078   6.573   8.156
 2160ETHY    C1 2080  35.144   6.188   8.391
 2161ETHY    C1 2081  35.287   5.780   8.710
 2162ETHY    C1 2082  35.496   5.444   9.066
 2163ETHY    C1 2083  35.762   5.186   9.450
 2164ETHY    C1 2084  36.078   5.010   9.855
 2165THSLK    S 2085  35.204   7.128   8.326
 2166ETHY    C1 2086  35.420   6.942   8.681
 2167ETHY    C1 2087  35.695   6.807   9.124
 2168ETHY    C1 2088  35.976   6.777   9.575
 2169ETHY    C1 2089  36.254   6.846  10.025
 2170ETHY    C1 2090  36.523   7.014  10.466
 2171AUSL   AUS 2091  34.863   7.026   8.175
 2172AUSL   AUS 2092  34.536   7.329   8.175
 2173AUL    AUL 2093  34.699   7.178   8.483
 2174THSLK    S 2094  34.941   6.973   8.417
 2175ETHY    C1 2095  35.018   6.723   8.790
 2176ETHY    C1 2096  35.134   6.506   9.269
 2177ETHY    C1 2097  35.271   6.390   9.769
 2178ETHY    C1 2098  35.421   6.372  10.281
 2179ETHY    C1 2099  35.580   6.453  10.794
 2180THSLK    S 2100  34.449   7.286   8.431
 2181ETHY    C1 2101  34.367   7.174   8.864
 2182ETHY    C1 2102  34.253   7.128   9.388
 2183ETHY    C1 2103  34.121   7.186   9.901
 2184ETHY    C1 2104  33.970   7.339  10.389
 2185ETHY    C1 2105  33.804   7.583  10.844
 2186AUSL   AUS 2106  34.863   7.329   8.175
 2187AUSL   AUS 2107  35.209   7.442   7.918
 2188AUL    AUL 2108  35.190   7.481   8.296
 2189THSLK    S 2109  34.950   7.383   8.414
 2190ETHY    C1 2110  35.031   7.634   8.786
 2191ETHY    C1 2111  35.145   7.850   9.265
 2192ETHY    C1 2112  35.278   7.966   9.767
 2193ETHY    C1 2113  35.428   7.984  10.279
 2194ETHY    C1 2114  35.594   7.904  10.789
 2195THSLK    S 2115  35.383   7.544   8.080
 2196ETHY    C1 2116  35.747   7.554   8.354
 2197ETHY    C1 2117  36.163   7.656   8.680
 2198ETHY    C1 2118  36.543   7.855   8.995
 2199ETHY    C1 2119  36.878   8.142   9.296
 2200ETHY    C1 2120  37.159   8.510   9.577
 2201AUSL   AUS 2121  35.108   7.178   6.922
 2202AUSL   AUS 2122  34.964   7.594   6.992
 2203AUL    AUL 2123  35.190   7.481   6.707
 2204THSLK    S 2124  35.211   7.128   6.681
 2205ETHY    C1 2125  35.432   6.942   6.329
 2206ETHY    C1 2126  35.705   6.807   5.885
 2207ETHY    C1 2127  35.983   6.777   5.432
 2208ETHY    C1 2128  36.261   6.846   4.982
 2209ETHY    C1 2129  36.535   7.014   4.545
 2210THSLK    S 2130  35.142   7.709   6.825
 2211ETHY    C1 2131  35.430   7.814   6.488
 2212ETHY    C1 2132  35.730   8.018   6.090
 2213ETHY    C1 2133  35.973   8.306   5.714
 2214ETHY    C1 2134  36.157   8.670   5.371
 2215ETHY    C1 2135  36.281   9.101   5.065
 2216AUSL   AUS 2136  34.863   7.026   6.828
 2217AUSL   AUS 2137  35.209   6.913   7.085
 2218AUL    AUL 2138  35.190   6.874   6.707
 2219THSLK    S 2139  35.346   6.721   6.944
 2220ETHY    C1 2140  35.554   6.378   6.729
 2221ETHY    C1 2141  35.855   6.036   6.442
 2222ETHY    C1 2142  36.206   5.783   6.133
 2223ETHY    C1 2143  36.600   5.621   5.812
 2224ETHY    C1 2144  37.029   5.550   5.486
 2225THSLK    S 2145  34.950   6.972   6.590
 2226ETHY    C1 2146  35.031   6.721   6.217
 2227ETHY    C1 2147  35.145   6.505   5.738
 2228ETHY    C1 2148  35.278   6.389   5.236
 2229ETHY    C1 2149  35.428   6.371   4.725
 2230ETHY    C1 2150  35.594   6.451   4.214
 2231AUSL   AUS 2151  34.863   7.329   6.828
 2232AUSL   AUS 2152  34.536   7.026   6.828
 2233AUL    AUL 2153  34.699   7.178   6.520
 2234THSLK    S 2154  34.441   6.972   6.592
 2235ETHY    C1 2155  34.304   6.724   6.235
 2236ETHY    C1 2156  34.144   6.510   5.767
 2237ETHY    C1 2157  33.997   6.395   5.269
 2238ETHY    C1 2158  33.870   6.376   4.751
 2239ETHY    C1 2159  33.765   6.452   4.224
 2240THSLK    S 2160  34.966   7.287   6.578
 2241ETHY    C1 2161  35.107   7.172   6.160
 2242ETHY    C1 2162  35.265   7.125   5.647
 2243ETHY    C1 2163  35.408   7.181   5.138
 2244ETHY    C1 2164  35.536   7.335   4.643
 2245ETHY    C1 2165  35.647   7.583   4.174
 2246AUSL   AUS 2166  34.290   7.178   8.082
 2247AUSL   AUS 2167  34.434   7.594   8.012
 2248AUL    AUL 2168  34.208   7.481   8.296
 2249THSLK    S 2169  34.187   7.128   8.322
 2250ETHY    C1 2170  33.966   6.942   8.674
 2251ETHY    C1 2171  33.693   6.807   9.118
 2252ETHY    C1 2172  33.416   6.777   9.571
 2253ETHY    C1 2173  33.138   6.846  10.021
 2254ETHY    C1 2174  32.863   7.014  10.458
 2255THSLK    S 2175  34.314   7.723   8.202
 2256ETHY    C1 2176  34.245   7.892   8.620
 2257ETHY    C1 2177  34.103   8.145   9.073
 2258ETHY    C1 2178  33.897   8.446   9.460
 2259ETHY    C1 2179  33.630   8.785   9.775
 2260ETHY    C1 2180  33.310   9.152  10.013
 2261AUSL   AUS 2181  34.536   7.026   8.175
 2262AUSL   AUS 2182  34.189   6.913   7.918
 2263AUL    AUL 2183  34.208   6.874   8.296
 2264THSLK    S 2184  34.011   6.749   8.029
 2265ETHY    C1 2185  33.643   6.496   8.125
 2266ETHY    C1 2186  33.228   6.217   8.323
 2267ETHY    C1 2187  32.850   5.977   8.611
 2268ETHY    C1 2188  32.516   5.781   8.978
 2269ETHY    C1 2189  32.230   5.635   9.415
 2270THSLK    S 2190  34.433   6.974   8.410
 2271ETHY    C1 2191  34.291   6.727   8.766
 2272ETHY    C1 2192  34.133   6.512   9.233
 2273ETHY    C1 2193  33.990   6.396   9.733
 2274ETHY    C1 2194  33.863   6.378  10.250
 2275ETHY    C1 2195  33.751   6.456  10.775
 2276AUSL   AUS 2196  34.290   7.178   6.922
 2277AUSL   AUS 2197  34.434   6.761   6.992
 2278AUL    AUL 2198  34.208   6.874   6.707
 2279THSLK    S 2199  34.195   7.128   6.677
 2280ETHY    C1 2200  33.978   6.942   6.322
 2281ETHY    C1 2201  33.703   6.807   5.879
 2282ETHY    C1 2202  33.422   6.777   5.429
 2283ETHY    C1 2203  33.144   6.846   4.978
 2284ETHY    C1 2204  32.876   7.014   4.537
 2285THSLK    S 2205  34.262   6.587   6.872
 2286ETHY    C1 2206  33.977   6.266   6.717
 2287ETHY    C1 2207  33.676   5.907   6.453
 2288ETHY    C1 2208  33.431   5.584   6.109
 2289ETHY    C1 2209  33.247   5.301   5.696
 2290ETHY    C1 2210  33.128   5.061   5.223
 2291AUSL   AUS 2211  34.536   7.329   6.828
 2292AUSL   AUS 2212  34.189   7.442   7.085
 2293AUL    AUL 2213  34.208   7.481   6.707
 2294THSLK    S 2214  34.058   7.572   6.893
 2295ETHY    C1 2215  33.852   7.672   6.499
 2296ETHY    C1 2216  33.550   7.836   6.085
 2297ETHY    C1 2217  33.196   8.048   5.748
 2298ETHY    C1 2218  32.803   8.302   5.494
 2299ETHY    C1 2219  32.378   8.595   5.324
 2300THSLK    S 2220  34.457   7.288   6.571
 2301ETHY    C1 2221  34.380   7.176   6.136
 2302ETHY    C1 2222  34.264   7.131   5.612
 2303ETHY    C1 2223  34.128   7.187   5.101
 2304ETHY    C1 2224  33.978   7.341   4.613
 2305ETHY    C1 2225  33.818   7.586   4.156
 2306AUSL   AUS 2226  35.279   7.587   7.502
 2307AUSL   AUS 2227  35.209   7.442   7.085
 2308AUL    AUL 2228  35.493   7.668   7.198
 2309THSLK    S 2229  35.388   7.545   6.930
 2310ETHY    C1 2230  35.755   7.556   6.659
 2311ETHY    C1 2231  36.170   7.658   6.332
 2312ETHY    C1 2232  36.548   7.856   6.014
 2313ETHY    C1 2233  36.882   8.143   5.713
 2314ETHY    C1 2234  37.168   8.513   5.438
 2315THSLK    S 2235  35.547   7.643   7.506
 2316ETHY    C1 2236  35.999   7.704   7.508
 2317ETHY    C1 2237  36.513   7.863   7.507
 2318ETHY    C1 2238  36.981   8.117   7.505
 2319ETHY    C1 2239  37.394   8.454   7.506
 2320ETHY    C1 2240  37.746   8.868   7.509
 2321AUSL   AUS 2241  35.373   7.341   7.350
 2322AUSL   AUS 2242  35.373   7.014   7.653
 2323AUL    AUL 2243  35.681   7.178   7.502
 2324THSLK    S 2244  35.632   7.384   7.348
 2325ETHY    C1 2245  36.077   7.314   7.278
 2326ETHY    C1 2246  36.608   7.321   7.190
 2327ETHY    C1 2247  37.121   7.431   7.101
 2328ETHY    C1 2248  37.606   7.637   7.017
 2329ETHY    C1 2249  38.053   7.934   6.940
 2330THSLK    S 2250  35.605   6.876   7.662
 2331ETHY    C1 2251  35.951   6.587   7.728
 2332ETHY    C1 2252  36.412   6.320   7.809
 2333ETHY    C1 2253  36.909   6.151   7.892
 2334ETHY    C1 2254  37.430   6.079   7.980
 2335ETHY    C1 2255  37.965   6.105   8.071
 2336AUSL   AUS 2256  35.373   7.341   7.653
 2337AUSL   AUS 2257  35.116   7.688   7.766
 2338AUL    AUL 2258  35.493   7.668   7.805
 2339THSLK    S 2259  35.299   7.807   7.926
 2340ETHY    C1 2260  35.671   7.962   8.139
 2341ETHY    C1 2261  36.071   8.227   8.385
 2342ETHY    C1 2262  36.405   8.571   8.615
 2343ETHY    C1 2263  36.667   8.984   8.827
 2344ETHY    C1 2264  36.854   9.456   9.019
 2345THSLK    S 2265  35.631   7.384   7.664
 2346ETHY    C1 2266  36.075   7.314   7.738
 2347ETHY    C1 2267  36.606   7.321   7.825
 2348ETHY    C1 2268  37.120   7.431   7.910
 2349ETHY    C1 2269  37.604   7.637   7.994
 2350ETHY    C1 2270  38.051   7.934   8.078
 2351AUSL   AUS 2271  34.119   7.587   7.502
 2352AUSL   AUS 2272  34.189   7.442   7.918
 2353AUL    AUL 2273  33.905   7.668   7.805
 2354THSLK    S 2274  34.053   7.565   8.109
 2355ETHY    C1 2275  33.844   7.661   8.503
 2356ETHY    C1 2276  33.543   7.827   8.917
 2357ETHY    C1 2277  33.192   8.042   9.254
 2358ETHY    C1 2278  32.798   8.296   9.509
 2359ETHY    C1 2279  32.369   8.583   9.678
 2360THSLK    S 2280  33.903   7.727   7.506
 2361ETHY    C1 2281  33.647   8.105   7.508
 2362ETHY    C1 2282  33.274   8.493   7.507
 2363ETHY    C1 2283  32.838   8.799   7.505
 2364ETHY    C1 2284  32.352   9.017   7.506
 2365ETHY    C1 2285  31.825   9.147   7.509
 2366AUSL   AUS 2286  34.025   7.341   7.350
 2367AUSL   AUS 2287  34.283   7.688   7.237
 2368AUL    AUL 2288  33.905   7.668   7.198
 2369THSLK    S 2289  33.794   7.456   7.303
 2370ETHY    C1 2290  33.447   7.644   7.075
 2371ETHY    C1 2291  32.987   7.836   6.872
 2372ETHY    C1 2292  32.489   7.986   6.758
 2373ETHY    C1 2293  31.968   8.096   6.733
 2374ETHY    C1 2294  31.434   8.166   6.796
 2375THSLK    S 2295  34.167   7.853   7.058
 2376ETHY    C1 2296  34.051   8.169   6.750
 2377ETHY    C1 2297  33.837   8.547   6.432
 2378ETHY    C1 2298  33.545   8.916   6.183
 2379ETHY    C1 2299  33.187   9.269   6.008
 2380ETHY    C1 2300  32.769   9.602   5.909
 2381AUSL   AUS 2301  34.025   7.341   7.653
 2382AUSL   AUS 2302  34.025   7.014   7.350
 2383AUL    AUL 2303  33.717   7.178   7.502
 2384THSLK    S 2304  33.767   6.940   7.390
 2385ETHY    C1 2305  33.323   6.905   7.486
 2386ETHY    C1 2306  32.792   6.824   7.518
 2387ETHY    C1 2307  32.278   6.699   7.458
 2388ETHY    C1 2308  31.794   6.531   7.311
 2389ETHY    C1 2309  31.347   6.324   7.083
 2390THSLK    S 2310  33.792   7.448   7.704
 2391ETHY    C1 2311  33.445   7.632   7.935
 2392ETHY    C1 2312  32.985   7.825   8.137
 2393ETHY    C1 2313  32.488   7.980   8.249
 2394ETHY    C1 2314  31.967   8.090   8.274
 2395ETHY    C1 2315  31.431   8.153   8.213
 2396AUSL   AUS 2316  35.279   6.768   7.502
 2397AUSL   AUS 2317  35.209   6.913   7.918
 2398AUL    AUL 2318  35.493   6.687   7.805
 2399THSLK    S 2319  35.495   6.628   7.506
 2400ETHY    C1 2320  35.751   6.250   7.508
 2401ETHY    C1 2321  36.124   5.862   7.507
 2402ETHY    C1 2322  36.560   5.556   7.505
 2403ETHY    C1 2323  37.046   5.338   7.506
 2404ETHY    C1 2324  37.573   5.208   7.509
 2405THSLK    S 2325  35.341   6.723   8.066
 2406ETHY    C1 2326  35.546   6.380   8.285
 2407ETHY    C1 2327  35.848   6.038   8.570
 2408ETHY    C1 2328  36.202   5.785   8.877
 2409ETHY    C1 2329  36.596   5.622   9.198
 2410ETHY    C1 2330  37.020   5.552   9.529
 2411AUSL   AUS 2331  35.373   7.014   7.350
 2412AUSL   AUS 2332  35.116   6.667   7.237
 2413AUL    AUL 2333  35.493   6.687   7.198
 2414THSLK    S 2334  35.606   6.876   7.350
 2415ETHY    C1 2335  35.954   6.587   7.289
 2416ETHY    C1 2336  36.413   6.320   7.206
 2417ETHY    C1 2337  36.910   6.151   7.118
 2418ETHY    C1 2338  37.432   6.079   7.031
 2419ETHY    C1 2339  37.967   6.105   6.947
 2420THSLK    S 2340  35.235   6.477   7.104
 2421ETHY    C1 2341  35.352   6.060   6.963
 2422ETHY    C1 2342  35.566   5.606   6.765
 2423ETHY    C1 2343  35.856   5.220   6.543
 2424ETHY    C1 2344  36.215   4.905   6.306
 2425ETHY    C1 2345  36.635   4.666   6.058
 2426AUSL   AUS 2346  34.119   6.768   7.502
 2427AUSL   AUS 2347  34.189   6.913   7.085
 2428AUL    AUL 2348  33.905   6.687   7.198
 2429THSLK    S 2349  34.016   6.742   6.973
 2430ETHY    C1 2350  33.651   6.485   6.877
 2431ETHY    C1 2351  33.235   6.208   6.679
 2432ETHY    C1 2352  32.855   5.971   6.392
 2433ETHY    C1 2353  32.521   5.775   6.025
 2434ETHY    C1 2354  32.239   5.623   5.587
 2435THSLK    S 2355  33.851   6.712   7.506
 2436ETHY    C1 2356  33.399   6.651   7.508
 2437ETHY    C1 2357  32.885   6.492   7.507
 2438ETHY    C1 2358  32.417   6.238   7.505
 2439ETHY    C1 2359  32.004   5.901   7.506
 2440ETHY    C1 2360  31.652   5.487   7.509
 2441AUSL   AUS 2361  34.025   7.014   7.653
 2442AUSL   AUS 2362  34.283   6.667   7.766
 2443AUL    AUL 2363  33.905   6.687   7.805
 2444THSLK    S 2364  34.095   6.523   7.880
 2445ETHY    C1 2365  33.721   6.266   7.926
 2446ETHY    C1 2366  33.323   5.926   8.052
 2447ETHY    C1 2367  32.990   5.564   8.255
 2448ETHY    C1 2368  32.728   5.190   8.529
 2449ETHY    C1 2369  32.537   4.812   8.870
 2450THSLK    S 2370  33.766   6.947   7.617
 2451ETHY    C1 2371  33.321   6.917   7.524
 2452ETHY    C1 2372  32.790   6.835   7.490
 2453ETHY    C1 2373  32.277   6.706   7.549
 2454ETHY    C1 2374  31.793   6.538   7.696
 2455ETHY    C1 2375  31.345   6.336   7.928
 2456AUSL   AUS 2376  34.699   7.758   7.911
 2457AUSL   AUS 2377  34.283   7.688   7.766
 2458AUL    AUL 2378  34.396   7.972   7.992
 2459THSLK    S 2379  34.163   7.847   7.950
 2460ETHY    C1 2380  34.046   8.159   8.261
 2461ETHY    C1 2381  33.832   8.539   8.578
 2462ETHY    C1 2382  33.542   8.910   8.824
 2463ETHY    C1 2383  33.184   9.264   9.000
 2464ETHY    C1 2384  32.763   9.592   9.102
 2465THSLK    S 2385  34.739   7.984   8.035
 2466ETHY    C1 2386  34.896   8.286   8.339
 2467ETHY    C1 2387  35.011   8.692   8.672
 2468ETHY    C1 2388  35.038   9.136   8.964
 2469ETHY    C1 2389  34.978   9.605   9.211
 2470ETHY    C1 2390  34.834  10.089   9.410
 2471AUSL   AUS 2391  34.547   7.851   7.665
 2472AUSL   AUS 2392  34.851   7.851   7.338
 2473AUL    AUL 2393  34.699   8.159   7.502
 2474THSLK    S 2394  34.588   8.099   7.774
 2475ETHY    C1 2395  34.697   8.509   7.942
 2476ETHY    C1 2396  34.741   9.016   8.118
 2477ETHY    C1 2397  34.684   9.524   8.265
 2478ETHY    C1 2398  34.531  10.021   8.383
 2479ETHY    C1 2399  34.288  10.498   8.472
 2480THSLK    S 2400  34.904   8.086   7.241
 2481ETHY    C1 2401  35.149   8.442   7.094
 2482ETHY    C1 2402  35.362   8.907   6.927
 2483ETHY    C1 2403  35.477   9.405   6.779
 2484ETHY    C1 2404  35.497   9.924   6.655
 2485ETHY    C1 2405  35.422  10.453   6.558
 2486AUSL   AUS 2406  34.851   7.851   7.665
 2487AUSL   AUS 2407  34.964   7.594   8.012
 2488AUL    AUL 2408  35.002   7.972   7.992
 2489THSLK    S 2409  35.136   7.707   8.184
 2490ETHY    C1 2410  35.421   7.810   8.524
 2491ETHY    C1 2411  35.723   8.014   8.921
 2492ETHY    C1 2412  35.968   8.304   9.294
 2493ETHY    C1 2413  36.152   8.667   9.638
 2494ETHY    C1 2414  36.271   9.097   9.948
 2495THSLK    S 2415  34.902   8.085   7.771
 2496ETHY    C1 2416  35.146   8.439   7.922
 2497ETHY    C1 2417  35.359   8.905   8.087
 2498ETHY    C1 2418  35.475   9.404   8.231
 2499ETHY    C1 2419  35.494   9.922   8.356
 2500ETHY    C1 2420  35.419  10.450   8.458
 2501AUSL   AUS 2421  34.699   6.598   7.911
 2502AUSL   AUS 2422  35.116   6.667   7.766
 2503AUL    AUL 2423  35.002   6.383   7.992
 2504THSLK    S 2424  34.655   6.343   7.990
 2505ETHY    C1 2425  34.495   5.939   8.128
 2506ETHY    C1 2426  34.381   5.458   8.341
 2507ETHY    C1 2427  34.356   4.997   8.605
 2508ETHY    C1 2428  34.415   4.567   8.915
 2509ETHY    C1 2429  34.556   4.175   9.263
 2510THSLK    S 2430  35.231   6.478   7.908
 2511ETHY    C1 2431  35.347   6.062   8.052
 2512ETHY    C1 2432  35.561   5.609   8.248
 2513ETHY    C1 2433  35.853   5.221   8.467
 2514ETHY    C1 2434  36.212   4.906   8.705
 2515ETHY    C1 2435  36.629   4.669   8.958
 2516AUSL   AUS 2436  34.547   6.504   7.665
 2517AUSL   AUS 2437  34.434   6.761   8.012
 2518AUL    AUL 2438  34.396   6.383   7.992
 2519THSLK    S 2439  34.494   6.264   7.745
 2520ETHY    C1 2440  34.249   5.883   7.801
 2521ETHY    C1 2441  34.036   5.398   7.897
 2522ETHY    C1 2442  33.921   4.895   8.025
 2523ETHY    C1 2443  33.902   4.386   8.186
 2524ETHY    C1 2444  33.976   3.883   8.374
 2525THSLK    S 2445  34.256   6.593   8.133
 2526ETHY    C1 2446  33.968   6.275   8.289
 2527ETHY    C1 2447  33.668   5.915   8.552
 2528ETHY    C1 2448  33.425   5.589   8.896
 2529ETHY    C1 2449  33.241   5.306   9.309
 2530ETHY    C1 2450  33.117   5.072   9.783
 2531AUSL   AUS 2451  34.851   6.504   7.665
 2532AUSL   AUS 2452  34.547   6.504   7.338
 2533AUL    AUL 2453  34.699   6.196   7.502
 2534THSLK    S 2454  34.496   6.261   7.266
 2535ETHY    C1 2455  34.252   5.879   7.215
 2536ETHY    C1 2456  34.039   5.395   7.117
 2537ETHY    C1 2457  33.923   4.893   6.984
 2538ETHY    C1 2458  33.904   4.384   6.825
 2539ETHY    C1 2459  33.980   3.879   6.642
 2540THSLK    S 2460  34.808   6.248   7.749
 2541ETHY    C1 2461  34.698   5.812   7.821
 2542ETHY    C1 2462  34.655   5.286   7.928
 2543ETHY    C1 2463  34.712   4.774   8.059
 2544ETHY    C1 2464  34.865   4.286   8.213
 2545ETHY    C1 2465  35.107   3.833   8.388
 2546AUSL   AUS 2466  34.699   7.758   7.093
 2547AUSL   AUS 2467  35.116   7.688   7.237
 2548AUL    AUL 2468  35.002   7.972   7.011
 2549THSLK    S 2469  34.743   7.988   6.975
 2550ETHY    C1 2470  34.903   8.292   6.674
 2551ETHY    C1 2471  35.017   8.697   6.339
 2552ETHY    C1 2472  35.042   9.140   6.045
 2553ETHY    C1 2473  34.983   9.609   5.798
 2554ETHY    C1 2474  34.842  10.096   5.604
 2555THSLK    S 2475  35.303   7.809   7.085
 2556ETHY    C1 2476  35.677   7.965   6.876
 2557ETHY    C1 2477  36.075   8.229   6.629
 2558ETHY    C1 2478  36.408   8.573   6.395
 2559ETHY    C1 2479  36.670   8.985   6.184
 2560ETHY    C1 2480  36.861   9.459   5.998
 2561AUSL   AUS 2481  34.547   7.851   7.338
 2562AUSL   AUS 2482  34.434   7.594   6.992
 2563AUL    AUL 2483  34.396   7.972   7.011
 2564THSLK    S 2484  34.590   8.102   7.237
 2565ETHY    C1 2485  34.700   8.513   7.074
 2566ETHY    C1 2486  34.743   9.019   6.896
 2567ETHY    C1 2487  34.686   9.527   6.745
 2568ETHY    C1 2488  34.533  10.024   6.627
 2569ETHY    C1 2489  34.291  10.503   6.545
 2570THSLK    S 2490  34.320   7.729   6.802
 2571ETHY    C1 2491  34.254   7.901   6.385
 2572ETHY    C1 2492  34.111   8.153   5.932
 2573ETHY    C1 2493  33.902   8.452   5.544
 2574ETHY    C1 2494  33.636   8.790   5.230
 2575ETHY    C1 2495  33.320   9.163   4.993
 2576AUSL   AUS 2496  34.699   6.598   7.093
 2577AUSL   AUS 2497  34.283   6.667   7.237
 2578AUL    AUL 2498  34.396   6.383   7.011
 2579THSLK    S 2499  34.099   6.517   7.128
 2580ETHY    C1 2500  33.727   6.256   7.085
 2581ETHY    C1 2501  33.328   5.918   6.958
 2582ETHY    C1 2502  32.993   5.559   6.753
 2583ETHY    C1 2503  32.731   5.185   6.478
 2584ETHY    C1 2504  32.544   4.802   6.142
 2585THSLK    S 2505  34.659   6.339   7.019
 2586ETHY    C1 2506  34.502   5.933   6.885
 2587ETHY    C1 2507  34.387   5.453   6.671
 2588ETHY    C1 2508  34.360   4.994   6.404
 2589ETHY    C1 2509  34.420   4.563   6.094
 2590ETHY    C1 2510  34.564   4.168   5.751
 2591AUSL   AUS 2511  34.851   6.504   7.338
 2592AUSL   AUS 2512  34.964   6.761   6.992
 2593AUL    AUL 2513  35.002   6.383   7.011
 2594THSLK    S 2514  34.810   6.247   7.262
 2595ETHY    C1 2515  34.701   5.809   7.195
 2596ETHY    C1 2516  34.658   5.283   7.086
 2597ETHY    C1 2517  34.714   4.772   6.951
 2598ETHY    C1 2518  34.867   4.284   6.798
 2599ETHY    C1 2519  35.111   3.830   6.629
 2600THSLK    S 2520  35.084   6.571   6.853
 2601ETHY    C1 2521  35.153   6.185   6.621
 2602ETHY    C1 2522  35.295   5.777   6.300
 2603ETHY    C1 2523  35.502   5.441   5.942
 2604ETHY    C1 2524  35.768   5.184   5.559
 2605ETHY    C1 2525  36.088   5.006   5.158
 2606AUC    AUC 2526  14.371  37.238   7.502
 2607AUC    AUC 2527  14.617  37.238   7.350
 2608AUC    AUC 2528  14.617  37.238   7.653
 2609AUC    AUC 2529  14.126  37.238   7.350
 2610AUC    AUC 2530  14.126  37.238   7.653
 2611AUC    AUC 2531  14.219  37.483   7.502
 2612AUC    AUC 2532  14.523  37.483   7.502
 2613AUC    AUC 2533  14.219  36.992   7.502
 2614AUC    AUC 2534  14.523  36.992   7.502
 2615AUC    AUC 2535  14.371  37.086   7.747
 2616AUC    AUC 2536  14.371  37.389   7.747
 2617AUC    AUC 2537  14.371  37.086   7.256
 2618AUC    AUC 2538  14.371  37.389   7.256
 2619AUC    AUC 2539  14.862  37.238   7.198
 2620AUC    AUC 2540  14.862  37.238   7.502
 2621AUC    AUC 2541  14.862  37.238   7.805
 2622AUC    AUC 2542  13.880  37.238   7.198
 2623AUC    AUC 2543  13.880  37.238   7.502
 2624AUC    AUC 2544  13.880  37.238   7.805
 2625AUC    AUC 2545  14.068  37.728   7.502
 2626AUC    AUC 2546  14.371  37.728   7.502
 2627AUC    AUC 2547  14.674  37.728   7.502
 2628AUC    AUC 2548  14.068  36.747   7.502
 2629AUC    AUC 2549  14.371  36.747   7.502
 2630AUC    AUC 2550  14.674  36.747   7.502
 2631AUC    AUC 2551  14.371  36.934   7.992
 2632AUC    AUC 2552  14.371  37.238   7.992
 2633AUC    AUC 2553  14.371  37.541   7.992
 2634AUC    AUC 2554  14.371  36.934   7.011
 2635AUC    AUC 2555  14.371  37.238   7.011
 2636AUC    AUC 2556  14.371  37.541   7.011
 2637AUC    AUC 2557  14.617  37.086   7.899
 2638AUC    AUC 2558  14.617  37.389   7.899
 2639AUC    AUC 2559  14.617  37.086   7.105
 2640AUC    AUC 2560  14.617  37.389   7.105
 2641AUC    AUC 2561  14.126  37.086   7.899
 2642AUC    AUC 2562  14.126  37.389   7.899
 2643AUC    AUC 2563  14.126  37.086   7.105
 2644AUC    AUC 2564  14.126  37.389   7.105
 2645AUC    AUC 2565  14.768  37.483   7.350
 2646AUC    AUC 2566  14.768  37.483   7.653
 2647AUC    AUC 2567  13.974  37.483   7.350
 2648AUC    AUC 2568  13.974  37.483   7.653
 2649AUC    AUC 2569  14.768  36.992   7.350
 2650AUC    AUC 2570  14.768  36.992   7.653
 2651AUC    AUC 2571  13.974  36.992   7.350
 2652AUC    AUC 2572  13.974  36.992   7.653
 2653AUC    AUC 2573  14.219  37.635   7.747
 2654AUC    AUC 2574  14.523  37.635   7.747
 2655AUC    AUC 2575  14.219  36.840   7.747
 2656AUC    AUC 2576  14.523  36.840   7.747
 2657AUC    AUC 2577  14.219  37.635   7.256
 2658AUC    AUC 2578  14.523  37.635   7.256
 2659AUC    AUC 2579  14.219  36.840   7.256
 2660AUC    AUC 2580  14.523  36.840   7.256
 2661AUSL   AUS 2581  14.780  37.238   8.082
 2662AUSL   AUS 2582  14.636  36.821   8.012
 2663AUL    AUL 2583  14.862  36.934   8.296
 2664THSLK    S 2584  14.750  36.633   8.156
 2665ETHY    C1 2585  14.816  36.248   8.391
 2666ETHY    C1 2586  14.959  35.840   8.710
 2667ETHY    C1 2587  15.168  35.504   9.066
 2668ETHY    C1 2588  15.434  35.246   9.450
 2669ETHY    C1 2589  15.750  35.070   9.855
 2670THSLK    S 2590  14.876  37.188   8.326
 2671ETHY    C1 2591  15.092  37.002   8.681
 2672ETHY    C1 2592  15.367  36.867   9.124
 2673ETHY    C1 2593  15.648  36.837   9.575
 2674ETHY    C1 2594  15.926  36.906  10.025
 2675ETHY    C1 2595  16.195  37.074  10.466
 2676AUSL   AUS 2596  14.535  37.086   8.175
 2677AUSL   AUS 2597  14.208  37.389   8.175
 2678AUL    AUL 2598  14.371  37.238   8.483
 2679THSLK    S 2599  14.613  37.033   8.417
 2680ETHY    C1 2600  14.690  36.783   8.790
 2681ETHY    C1 2601  14.806  36.566   9.269
 2682ETHY    C1 2602  14.943  36.450   9.769
 2683ETHY    C1 2603  15.093  36.432  10.281
 2684ETHY    C1 2604  15.252  36.513  10.794
 2685THSLK    S 2605  14.121  37.346   8.431
 2686ETHY    C1 2606  14.039  37.234   8.864
 2687ETHY    C1 2607  13.925  37.188   9.388
 2688ETHY    C1 2608  13.793  37.246   9.901
 2689ETHY    C1 2609  13.642  37.399  10.389
 2690ETHY    C1 2610  13.476  37.643  10.844
 2691AUSL   AUS 2611  14.535  37.389   8.175
 2692AUSL   AUS 2612  14.881  37.502   7.918
 2693AUL    AUL 2613  14.862  37.541   8.296
 2694THSLK    S 2614  14.622  37.443   8.414
 2695ETHY    C1 2615  14.703  37.694   8.786
 2696ETHY    C1 2616  14.817  37.910   9.265
 2697ETHY    C1 2617  14.950  38.026   9.767
 2698ETHY    C1 2618  15.100  38.044  10.279
 2699ETHY    C1 2619  15.266  37.964  10.789
 2700THSLK    S 2620  15.055  37.604   8.080
 2701ETHY    C1 2621  15.419  37.614   8.354
 2702ETHY    C1 2622  15.835  37.716   8.680
 2703ETHY    C1 2623  16.215  37.915   8.995
 2704ETHY    C1 2624  16.550  38.202   9.296
 2705ETHY    C1 2625  16.831  38.570   9.577
 2706AUSL   AUS 2626  14.780  37.238   6.922
 2707AUSL   AUS 2627  14.636  37.654   6.992
 2708AUL    AUL 2628  14.862  37.541   6.707
 2709THSLK    S 2629  14.883  37.188   6.681
 2710ETHY    C1 2630  15.104  37.002   6.329
 2711ETHY    C1 2631  15.377  36.867   5.885
 2712ETHY    C1 2632  15.655  36.837   5.432
 2713ETHY    C1 2633  15.933  36.906   4.982
 2714ETHY    C1 2634  16.207  37.074   4.545
 2715THSLK    S 2635  14.814  37.769   6.825
 2716ETHY    C1 2636  15.102  37.874   6.488
 2717ETHY    C1 2637  15.402  38.078   6.090
 2718ETHY    C1 2638  15.645  38.366   5.714
 2719ETHY    C1 2639  15.829  38.730   5.371
 2720ETHY    C1 2640  15.953  39.161   5.065
 2721AUSL   AUS 2641  14.535  37.086   6.828
 2722AUSL   AUS 2642  14.881  36.973   7.085
 2723AUL    AUL 2643  14.862  36.934   6.707
 2724THSLK    S 2644  15.018  36.781   6.944
 2725ETHY    C1 2645  15.226  36.438   6.729
 2726ETHY    C1 2646  15.527  36.096   6.442
 2727ETHY    C1 2647  15.878  35.843   6.133
 2728ETHY    C1 2648  16.272  35.681   5.812
 2729ETHY    C1 2649  16.701  35.610   5.486
 2730THSLK    S 2650  14.622  37.032   6.590
 2731ETHY    C1 2651  14.703  36.781   6.217
 2732ETHY    C1 2652  14.817  36.565   5.738
 2733ETHY    C1 2653  14.950  36.449   5.236
 2734ETHY    C1 2654  15.100  36.431   4.725
 2735ETHY    C1 2655  15.266  36.511   4.214
 2736AUSL   AUS 2656  14.535  37.389   6.828
 2737AUSL   AUS 2657  14.208  37.086   6.828
 2738AUL    AUL 2658  14.371  37.238   6.520
 2739THSLK    S 2659  14.113  37.032   6.592
 2740ETHY    C1 2660  13.976  36.784   6.235
 2741ETHY    C1 2661  13.816  36.570   5.767
 2742ETHY    C1 2662  13.669  36.455   5.269
 2743ETHY    C1 2663  13.542  36.436   4.751
 2744ETHY    C1 2664  13.437  36.512   4.224
 2745THSLK    S 2665  14.638  37.347   6.578
 2746ETHY    C1 2666  14.779  37.232   6.160
 2747ETHY    C1 2667  14.937  37.185   5.647
 2748ETHY    C1 2668  15.080  37.241   5.138
 2749ETHY    C1 2669  15.208  37.395   4.643
 2750ETHY    C1 2670  15.319  37.643   4.174
 2751AUSL   AUS 2671  13.962  37.238   8.082
 2752AUSL   AUS 2672  14.106  37.654   8.012
 2753AUL    AUL 2673  13.880  37.541   8.296
 2754THSLK    S 2674  13.859  37.188   8.322
 2755ETHY    C1 2675  13.638  37.002   8.674
 2756ETHY    C1 2676  13.365  36.867   9.118
 2757ETHY    C1 2677  13.088  36.837   9.571
 2758ETHY    C1 2678  12.810  36.906  10.021
 2759ETHY    C1 2679  12.535  37.074  10.458
 2760THSLK    S 2680  13.986  37.783   8.202
 2761ETHY    C1 2681  13.917  37.952   8.620
 2762ETHY    C1 2682  13.775  38.205   9.073
 2763ETHY    C1 2683  13.569  38.506   9.460
 2764ETHY    C1 2684  13.302  38.845   9.775
 2765ETHY    C1 2685  12.982  39.212  10.013
 2766AUSL   AUS 2686  14.208  37.086   8.175
 2767AUSL   AUS 2687  13.861  36.973   7.918
 2768AUL    AUL 2688  13.880  36.934   8.296
 2769THSLK    S 2689  13.683  36.809   8.029
 2770ETHY    C1 2690  13.315  36.556   8.125
 2771ETHY    C1 2691  12.900  36.277   8.323
 2772ETHY    C1 2692  12.522  36.037   8.611
 2773ETHY    C1 2693  12.188  35.841   8.978
 2774ETHY    C1 2694  11.902  35.695   9.415
 2775THSLK    S 2695  14.105  37.034   8.410
 2776ETHY    C1 2696  13.963  36.787   8.766
 2777ETHY    C1 2697  13.805  36.572   9.233
 2778ETHY    C1 2698  13.662  36.456   9.733
 2779ETHY    C1 2699  13.535  36.438  10.250
 2780ETHY    C1 2700  13.423  36.516  10.775
 2781AUSL   AUS 2701  13.962  37.238   6.922
 2782AUSL   AUS 2702  14.106  36.821   6.992
 2783AUL    AUL 2703  13.880  36.934   6.707
 2784THSLK    S 2704  13.867  37.188   6.677
 2785ETHY    C1 2705  13.650  37.002   6.322
 2786ETHY    C1 2706  13.375  36.867   5.879
 2787ETHY    C1 2707  13.094  36.837   5.429
 2788ETHY    C1 2708  12.816  36.906   4.978
 2789ETHY    C1 2709  12.548  37.074   4.537
 2790THSLK    S 2710  13.934  36.647   6.872
 2791ETHY    C1 2711  13.649  36.326   6.717
 2792ETHY    C1 2712  13.348  35.967   6.453
 2793ETHY    C1 2713  13.103  35.644   6.109
 2794ETHY    C1 2714  12.919  35.361   5.696
 2795ETHY    C1 2715  12.800  35.121   5.223
 2796AUSL   AUS 2716  14.208  37.389   6.828
 2797AUSL   AUS 2717  13.861  37.502   7.085
 2798AUL    AUL 2718  13.880  37.541   6.707
 2799THSLK    S 2719  13.730  37.632   6.893
 2800ETHY    C1 2720  13.524  37.732   6.499
 2801ETHY    C1 2721  13.222  37.896   6.085
 2802ETHY    C1 2722  12.868  38.108   5.748
 2803ETHY    C1 2723  12.475  38.362   5.494
 2804ETHY    C1 2724  12.050  38.655   5.324
 2805THSLK    S 2725  14.129  37.348   6.571
 2806ETHY    C1 2726  14.052  37.236   6.136
 2807ETHY    C1 2727  13.936  37.191   5.612
 2808ETHY    C1 2728  13.800  37.247   5.101
 2809ETHY    C1 2729  13.650  37.401   4.613
 2810ETHY    C1 2730  13.490  37.646   4.156
 2811AUSL   AUS 2731  14.951  37.647   7.502
 2812AUSL   AUS 2732  14.881  37.502   7.085
 2813AUL    AUL 2733  15.165  37.728   7.198
 2814THSLK    S 2734  15.060  37.605   6.930
 2815ETHY    C1 2735  15.427  37.616   6.659
 2816ETHY    C1 2736  15.842  37.718   6.332
 2817ETHY    C1 2737  16.220  37.916   6.014
 2818ETHY    C1 2738  16.554  38.203   5.713
 2819ETHY    C1 2739  16.840  38.573   5.438
 2820THSLK    S 2740  15.219  37.703   7.506
 2821ETHY    C1 2741  15.671  37.764   7.508
 2822ETHY    C1 2742  16.185  37.923   7.507
 2823ETHY    C1 2743  16.653  38.177   7.505
 2824ETHY    C1 2744  17.066  38.514   7.506
 2825ETHY    C1 2745  17.418  38.928   7.509
 2826AUSL   AUS 2746  15.045  37.401   7.350
 2827AUSL   AUS 2747  15.045  37.074   7.653
 2828AUL    AUL 2748  15.353  37.238   7.502
 2829THSLK    S 2749  15.304  37.444   7.348
 2830ETHY    C1 2750  15.749  37.374   7.278
 2831ETHY    C1 2751  16.280  37.381   7.190
 2832ETHY    C1 2752  16.793  37.491   7.101
 2833ETHY    C1 2753  17.278  37.697   7.017
 2834ETHY    C1 2754  17.725  37.994   6.940
 2835THSLK    S 2755  15.277  36.936   7.662
 2836ETHY    C1 2756  15.623  36.647   7.728
 2837ETHY    C1 2757  16.084  36.380   7.809
 2838ETHY    C1 2758  16.581  36.211   7.892
 2839ETHY    C1 2759  17.102  36.139   7.980
 2840ETHY    C1 2760  17.637  36.165   8.071
 2841AUSL   AUS 2761  15.045  37.401   7.653
 2842AUSL   AUS 2762  14.788  37.748   7.766
 2843AUL    AUL 2763  15.165  37.728   7.805
 2844THSLK    S 2764  14.971  37.867   7.926
 2845ETHY    C1 2765  15.343  38.022   8.139
 2846ETHY    C1 2766  15.743  38.287   8.385
 2847ETHY    C1 2767  16.077  38.631   8.615
 2848ETHY    C1 2768  16.339  39.044   8.827
 2849ETHY    C1 2769  16.526  39.516   9.019
 2850THSLK    S 2770  15.303  37.444   7.664
 2851ETHY    C1 2771  15.747  37.374   7.738
 2852ETHY    C1 2772  16.278  37.381   7.825
 2853ETHY    C1 2773  16.792  37.491   7.910
 2854ETHY    C1 2774  17.276  37.697   7.994
 2855ETHY    C1 2775  17.723  37.994   8.078
 2856AUSL   AUS 2776  13.791  37.647   7.502
 2857AUSL   AUS 2777  13.861  37.502   7.918
 2858AUL    AUL 2778  13.577  37.728   7.805
 2859THSLK    S 2779  13.725  37.625   8.109
 2860ETHY    C1 2780  13.516  37.721   8.503
 2861ETHY    C1 2781  13.215  37.887   8.917
 2862ETHY    C1 2782  12.864  38.102   9.254
 2863ETHY    C1 2783  12.470  38.356   9.509
 2864ETHY    C1 2784  12.041  38.643   9.678
 2865THSLK    S 2785  13.575  37.787   7.506
 2866ETHY    C1 2786  13.319  38.165   7.508
 2867ETHY    C1 2787  12.946  38.553   7.507
 2868ETHY    C1 2788  12.510  38.859   7.505
 2869ETHY    C1 2789  12.024  39.077   7.506
 2870ETHY    C1 2790  11.497  39.207   7.509
 2871AUSL   AUS 2791  13.697  37.401   7.350
 2872AUSL   AUS 2792  13.955  37.748   7.237
 2873AUL    AUL 2793  13.577  37.728   7.198
 2874THSLK    S 2794  13.466  37.516   7.303
 2875ETHY    C1 2795  13.119  37.704   7.075
 2876ETHY    C1 2796  12.659  37.896   6.872
 2877ETHY    C1 2797  12.161  38.046   6.758
 2878ETHY    C1 2798  11.640  38.156   6.733
 2879ETHY    C1 2799  11.106  38.226   6.796
 2880THSLK    S 2800  13.839  37.913   7.058
 2881ETHY    C1 2801  13.723  38.229   6.750
 2882ETHY    C1 2802  13.509  38.607   6.432
 2883ETHY    C1 2803  13.217  38.976   6.183
 2884ETHY    C1 2804  12.859  39.329   6.008
 2885ETHY    C1 2805  12.441  39.662   5.909
 2886AUSL   AUS 2806  13.697  37.401   7.653
 2887AUSL   AUS 2807  13.697  37.074   7.350
 2888AUL    AUL 2808  13.389  37.238   7.502
 2889THSLK    S 2809  13.439  37.000   7.390
 2890ETHY    C1 2810  12.995  36.965   7.486
 2891ETHY    C1 2811  12.464  36.884   7.518
 2892ETHY    C1 2812  11.950  36.759   7.458
 2893ETHY    C1 2813  11.466  36.591   7.311
 2894ETHY    C1 2814  11.019  36.384   7.083
 2895THSLK    S 2815  13.464  37.508   7.704
 2896ETHY    C1 2816  13.117  37.692   7.935
 2897ETHY    C1 2817  12.657  37.885   8.137
 2898ETHY    C1 2818  12.160  38.040   8.249
 2899ETHY    C1 2819  11.639  38.150   8.274
 2900ETHY    C1 2820  11.103  38.213   8.213
 2901AUSL   AUS 2821  14.951  36.828   7.502
 2902AUSL   AUS 2822  14.881  36.973   7.918
 2903AUL    AUL 2823  15.165  36.747   7.805
 2904THSLK    S 2824  15.167  36.688   7.506
 2905ETHY    C1 2825  15.423  36.310   7.508
 2906ETHY    C1 2826  15.796  35.922   7.507
 2907ETHY    C1 2827  16.232  35.616   7.505
 2908ETHY    C1 2828  16.718  35.398   7.506
 2909ETHY    C1 2829  17.245  35.268   7.509
 2910THSLK    S 2830  15.013  36.783   8.066
 2911ETHY    C1 2831  15.218  36.440   8.285
 2912ETHY    C1 2832  15.520  36.098   8.570
 2913ETHY    C1 2833  15.874  35.845   8.877
 2914ETHY    C1 2834  16.268  35.682   9.198
 2915ETHY    C1 2835  16.692  35.612   9.529
 2916AUSL   AUS 2836  15.045  37.074   7.350
 2917AUSL   AUS 2837  14.788  36.727   7.237
 2918AUL    AUL 2838  15.165  36.747   7.198
 2919THSLK    S 2839  15.278  36.936   7.350
 2920ETHY    C1 2840  15.626  36.647   7.289
 2921ETHY    C1 2841  16.085  36.380   7.206
 2922ETHY    C1 2842  16.582  36.211   7.118
 2923ETHY    C1 2843  17.104  36.139   7.031
 2924ETHY    C1 2844  17.639  36.165   6.947
 2925THSLK    S 2845  14.907  36.537   7.104
 2926ETHY    C1 2846  15.024  36.120   6.963
 2927ETHY    C1 2847  15.238  35.666   6.765
 2928ETHY    C1 2848  15.528  35.280   6.543
 2929ETHY    C1 2849  15.887  34.965   6.306
 2930ETHY    C1 2850  16.307  34.726   6.058
 2931AUSL   AUS 2851  13.791  36.828   7.502
 2932AUSL   AUS 2852  13.861  36.973   7.085
 2933AUL    AUL 2853  13.577  36.747   7.198
 2934THSLK    S 2854  13.688  36.802   6.973
 2935ETHY    C1 2855  13.323  36.545   6.877
 2936ETHY    C1 2856  12.907  36.268   6.679
 2937ETHY    C1 2857  12.527  36.031   6.392
 2938ETHY    C1 2858  12.193  35.835   6.025
 2939ETHY    C1 2859  11.911  35.683   5.587
 2940THSLK    S 2860  13.523  36.772   7.506
 2941ETHY    C1 2861  13.071  36.711   7.508
 2942ETHY    C1 2862  12.557  36.552   7.507
 2943ETHY    C1 2863  12.089  36.298   7.505
 2944ETHY    C1 2864  11.676  35.961   7.506
 2945ETHY    C1 2865  11.324  35.547   7.509
 2946AUSL   AUS 2866  13.697  37.074   7.653
 2947AUSL   AUS 2867  13.955  36.727   7.766
 2948AUL    AUL 2868  13.577  36.747   7.805
 2949THSLK    S 2869  13.767  36.583   7.880
 2950ETHY    C1 2870  13.393  36.326   7.926
 2951ETHY    C1 2871  12.995  35.986   8.052
 2952ETHY    C1 2872  12.662  35.624   8.255
 2953ETHY    C1 2873  12.400  35.250   8.529
 2954ETHY    C1 2874  12.209  34.872   8.870
 2955THSLK    S 2875  13.438  37.007   7.617
 2956ETHY    C1 2876  12.993  36.977   7.524
 2957ETHY    C1 2877  12.462  36.895   7.490
 2958ETHY    C1 2878  11.949  36.766   7.549
 2959ETHY    C1 2879  11.465  36.598   7.696
 2960ETHY    C1 2880  11.017  36.396   7.928
 2961AUSL   AUS 2881  14.371  37.818   7.911
 2962AUSL   AUS 2882  13.955  37.748   7.766
 2963AUL    AUL 2883  14.068  38.032   7.992
 2964THSLK    S 2884  13.835  37.907   7.950
 2965ETHY    C1 2885  13.718  38.219   8.261
 2966ETHY    C1 2886  13.504  38.599   8.578
 2967ETHY    C1 2887  13.214  38.970   8.824
 2968ETHY    C1 2888  12.856  39.324   9.000
 2969ETHY    C1 2889  12.435  39.652   9.102
 2970THSLK    S 2890  14.411  38.044   8.035
 2971ETHY    C1 2891  14.568  38.346   8.339
 2972ETHY    C1 2892  14.683  38.752   8.672
 2973ETHY    C1 2893  14.710  39.196   8.964
 2974ETHY    C1 2894  14.650  39.665   9.211
 2975ETHY    C1 2895  14.506  40.149   9.410
 2976AUSL   AUS 2896  14.219  37.911   7.665
 2977AUSL   AUS 2897  14.523  37.911   7.338
 2978AUL    AUL 2898  14.371  38.219   7.502
 2979THSLK    S 2899  14.260  38.159   7.774
 2980ETHY    C1 2900  14.369  38.569   7.942
 2981ETHY    C1 2901  14.413  39.076   8.118
 2982ETHY    C1 2902  14.356  39.584   8.265
 2983ETHY    C1 2903  14.203  40.081   8.383
 2984ETHY    C1 2904  13.960  40.558   8.472
 2985THSLK    S 2905  14.576  38.146   7.241
 2986ETHY    C1 2906  14.821  38.502   7.094
 2987ETHY    C1 2907  15.034  38.967   6.927
 2988ETHY    C1 2908  15.149  39.465   6.779
 2989ETHY    C1 2909  15.169  39.984   6.655
 2990ETHY    C1 2910  15.094  40.513   6.558
 2991AUSL   AUS 2911  14.523  37.911   7.665
 2992AUSL   AUS 2912  14.636  37.654   8.012
 2993AUL    AUL 2913  14.674  38.032   7.992
 2994THSLK    S 2914  14.808  37.767   8.184
 2995ETHY    C1 2915  15.093  37.870   8.524
 2996ETHY    C1 2916  15.395  38.074   8.921
 2997ETHY    C1 2917  15.640  38.364   9.294
 2998ETHY    C1 2918  15.824  38.727   9.638
 2999ETHY    C1 2919  15.943  39.157   9.948
 3000THSLK    S 2920  14.574  38.145   7.771
 3001ETHY    C1 2921  14.818  38.499   7.922
 3002ETHY    C1 2922  15.031  38.965   8.087
 3003ETHY    C1 2923  15.147  39.464   8.231
 3004ETHY    C1 2924  15.166  39.982   8.356
 3005ETHY    C1 2925  15.091  40.510   8.458
 3006AUSL   AUS 2926  14.371  36.658   7.911
 3007AUSL   AUS 2927  14.788  36.727   7.766
 3008AUL    AUL 2928  14.674  36.443   7.992
 3009THSLK    S 2929  14.327  36.403   7.990
 3010ETHY    C1 2930  14.167  35.999   8.128
 3011ETHY    C1 2931  14.053  35.518   8.341
 3012ETHY    C1 2932  14.028  35.057   8.605
 3013ETHY    C1 2933  14.087  34.627   8.915
 3014ETHY    C1 2934  14.228  34.235   9.263
 3015THSLK    S 2935  14.903  36.538   7.908
 3016ETHY    C1 2936  15.019  36.122   8.052
 3017ETHY    C1 2937  15.233  35.669   8.248
 3018ETHY    C1 2938  15.525  35.281   8.467
 3019ETHY    C1 2939  15.884  34.966   8.705
 3020ETHY    C1 2940  16.301  34.729   8.958
 3021AUSL   AUS 2941  14.219  36.564   7.665
 3022AUSL   AUS 2942  14.106  36.821   8.012
 3023AUL    AUL 2943  14.068  36.443   7.992
 3024THSLK    S 2944  14.166  36.324   7.745
 3025ETHY    C1 2945  13.921  35.943   7.801
 3026ETHY    C1 2946  13.708  35.458   7.897
 3027ETHY    C1 2947  13.593  34.955   8.025
 3028ETHY    C1 2948  13.574  34.446   8.186
 3029ETHY    C1 2949  13.648  33.943   8.374
 3030THSLK    S 2950  13.928  36.653   8.133
 3031ETHY    C1 2951  13.640  36.335   8.289
 3032ETHY    C1 2952  13.340  35.975   8.552
 3033ETHY    C1 2953  13.097  35.649   8.896
 3034ETHY    C1 2954  12.913  35.366   9.309
 3035ETHY    C1 2955  12.789  35.132   9.783
 3036AUSL   AUS 2956  14.523  36.564   7.665
 3037AUSL   AUS 2957  14.219  36.564   7.338
 3038AUL    AUL 2958  14.371  36.256   7.502
 3039THSLK    S 2959  14.168  36.321   7.266
 3040ETHY    C1 2960  13.924  35.939   7.215
 3041ETHY    C1 2961  13.711  35.455   7.117
 3042ETHY    C1 2962  13.595  34.953   6.984
 3043ETHY    C1 2963  13.576  34.444   6.825
 3044ETHY    C1 2964  13.652  33.939   6.642
 3045THSLK    S 2965  14.480  36.308   7.749
 3046ETHY    C1 2966  14.370  35.872   7.821
 3047ETHY    C1 2967  14.327  35.346   7.928
 3048ETHY    C1 2968  14.384  34.834   8.059
 3049ETHY    C1 2969  14.537  34.346   8.213
 3050ETHY    C1 2970  14.779  33.893   8.388
 3051AUSL   AUS 2971  14.371  37.818   7.093
 3052AUSL   AUS 2972  14.788  37.748   7.237
 3053AUL    AUL 2973  14.674  38.032   7.011
 3054THSLK    S 2974  14.415  38.048   6.975
 3055ETHY    C1 2975  14.575  38.352   6.674
 3056ETHY    C1 2976  14.689  38.757   6.339
 3057ETHY    C1 2977  14.714  39.200   6.045
 3058ETHY    C1 2978  14.655  39.669   5.798
 3059ETHY    C1 2979  14.514  40.156   5.604
 3060THSLK    S 2980  14.975  37.869   7.085
 3061ETHY    C1 2981  15.349  38.025   6.876
 3062ETHY    C1 2982  15.747  38.289   6.629
 3063ETHY    C1 2983  16.080  38.633   6.395
 3064ETHY    C1 2984  16.342  39.045   6.184
 3065ETHY    C1 2985  16.533  39.519   5.998
 3066AUSL   AUS 2986  14.219  37.911   7.338
 3067AUSL   AUS 2987  14.106  37.654   6.992
 3068AUL    AUL 2988  14.068  38.032   7.011
 3069THSLK    S 2989  14.262  38.162   7.237
 3070ETHY    C1 2990  14.372  38.573   7.074
 3071ETHY    C1 2991  14.415  39.079   6.896
 3072ETHY    C1 2992  14.358  39.587   6.745
 3073ETHY    C1 2993  14.205  40.084   6.627
 3074ETHY    C1 2994  13.963  40.563   6.545
 3075THSLK    S 2995  13.992  37.789   6.802
 3076ETHY    C1 2996  13.926  37.961   6.385
 3077ETHY    C1 2997  13.783  38.213   5.932
 3078ETHY    C1 2998  13.574  38.512   5.544
 3079ETHY    C1 2999  13.308  38.850   5.230
 3080ETHY    C1 3000  12.992  39.223   4.993
 3081AUSL   AUS 3001  14.371  36.658   7.093
 3082AUSL   AUS 3002  13.955  36.727   7.237
 3083AUL    AUL 3003  14.068  36.443   7.011
 3084THSLK    S 3004  13.771  36.577   7.128
 3085ETHY    C1 3005  13.399  36.316   7.085
 3086ETHY    C1 3006  13.000  35.978   6.958
 3087ETHY    C1 3007  12.665  35.619   6.753
 3088ETHY    C1 3008  12.403  35.245   6.478
 3089ETHY    C1 3009  12.216  34.862   6.142
 3090THSLK    S 3010  14.331  36.399   7.019
 3091ETHY    C1 3011  14.174  35.993   6.885
 3092ETHY    C1 3012  14.059  35.513   6.671
 3093ETHY    C1 3013  14.032  35.054   6.404
 3094ETHY    C1 3014  14.092  34.623   6.094
 3095ETHY    C1 3015  14.236  34.228   5.751
 3096AUSL   AUS 3016  14.523  36.564   7.338
 3097AUSL   AUS 3017  14.636  36.821   6.992
 3098AUL    AUL 3018  14.674  36.443   7.011
 3099THSLK    S 3019  14.482  36.307   7.262
 3100ETHY    C1 3020  14.373  35.869   7.195
 3101ETHY    C1 3021  14.330  35.343   7.086
 3102ETHY    C1 3022  14.386  34.832   6.951
 3103ETHY    C1 3023  14.539  34.344   6.798
 3104ETHY    C1 3024  14.783  33.890   6.629
 3105THSLK    S 3025  14.756  36.631   6.853
 3106ETHY    C1 3026  14.825  36.245   6.621
 3107ETHY    C1 3027  14.967  35.837   6.300
 3108ETHY    C1 3028  15.174  35.501   5.942
 3109ETHY    C1 3029  15.440  35.244   5.559
 3110ETHY    C1 3030  15.760  35.066   5.158
 3111AUC    AUC 3031  33.075  20.899   7.502
 3112AUC    AUC 3032  33.321  20.899   7.350
 3113AUC    AUC 3033  33.321  20.899   7.653
 3114AUC    AUC 3034  32.830  20.899   7.350
 3115AUC    AUC 3035  32.830  20.899   7.653
 3116AUC    AUC 3036  32.923  21.144   7.502
 3117AUC    AUC 3037  33.227  21.144   7.502
 3118AUC    AUC 3038  32.923  20.653   7.502
 3119AUC    AUC 3039  33.227  20.653   7.502
 3120AUC    AUC 3040  33.075  20.747   7.747
 3121AUC    AUC 3041  33.075  21.050   7.747
 3122AUC    AUC 3042  33.075  20.747   7.256
 3123AUC    AUC 3043  33.075  21.050   7.256
 3124AUC    AUC 3044  33.566  20.899   7.198
 3125AUC    AUC 3045  33.566  20.899   7.502
 3126AUC    AUC 3046  33.566  20.899   7.805
 3127AUC    AUC 3047  32.584  20.899   7.198
 3128AUC    AUC 3048  32.584  20.899   7.502
 3129AUC    AUC 3049  32.584  20.899   7.805
 3130AUC    AUC 3050  32.772  21.389   7.502
 3131AUC    AUC 3051  33.075  21.389   7.502
 3132AUC    AUC 3052  33.378  21.389   7.502
 3133AUC    AUC 3053  32.772  20.408   7.502
 3134AUC    AUC 3054  33.075  20.408   7.502
 3135AUC    AUC 3055  33.378  20.408   7.502
 3136AUC    AUC 3056  33.075  20.595   7.992
 3137AUC    AUC 3057  33.075  20.899   7.992
 3138AUC    AUC 3058  33.075  21.202   7.992
 3139AUC    AUC 3059  33.075  20.595   7.011
 3140AUC    AUC 3060  33.075  20.899   7.011
 3141AUC    AUC 3061  33.075  21.202   7.011
 3142AUC    AUC 3062  33.321  20.747   7.899
 3143AUC    AUC 3063  33.321  21.050   7.899
 3144AUC    AUC 3064  33.321  20.747   7.105
 3145AUC    AUC 3065  33.321  21.050   7.105
 3146AUC    AUC 3066  32.830  20.747   7.899
 3147AUC    AUC 3067  32.830  21.050   7.899
 3148AUC    AUC 3068  32.830  20.747   7.105
 3149AUC    AUC 3069  32.830  21.050   7.105
 3150AUC    AUC 3070  33.472  21.144   7.350
 3151AUC    AUC 3071  33.472  21.144   7.653
 3152AUC    AUC 3072  32.678  21.144   7.350
 3153AUC    AUC 3073  32.678  21.144   7.653
 3154AUC    AUC 3074  33.472  20.653   7.350
 3155AUC    AUC 3075  33.472  20.653   7.653
 3156AUC    AUC 3076  32.678  20.653   7.350
 3157AUC    AUC 3077  32.678  20.653   7.653
 3158AUC    AUC 3078  32.923  21.296   7.747
 3159AUC    AUC 3079  33.227  21.296   7.747
 3160AUC    AUC 3080  32.923  20.501   7.747
 3161AUC    AUC 3081  33.227  20.501   7.747
 3162AUC    AUC 3082  32.923  21.296   7.256
 3163AUC    AUC 3083  33.227  21.296   7.256
 3164AUC    AUC 3084  32.923  20.501   7.256
 3165AUC    AUC 3085  33.227  20.501   7.256
 3166AUSL   AUS 3086  33.484  20.899   8.082
 3167AUSL   AUS 3087  33.340  20.482   8.012
 3168AUL    AUL 3088  33.566  20.595   8.296
 3169THSLK    S 3089  33.454  20.294   8.156
 3170ETHY    C1 3090  33.520  19.909   8.391
 3171ETHY    C1 3091  33.663  19.501   8.710
 3172ETHY    C1 3092  33.872  19.165   9.066
 3173ETHY    C1 3093  34.138  18.907   9.450
 3174ETHY    C1 3094  34.454  18.731   9.855
 3175THSLK    S 3095  33.580  20.849   8.326
 3176ETHY    C1 3096  33.796  20.663   8.681
 3177ETHY    C1 3097  34.071  20.528   9.124
 3178ETHY    C1 3098  34.352  20.498   9.575
 3179ETHY    C1 3099  34.630  20.567  10.025
 3180ETHY    C1 3100  34.899  20.735  10.466
 3181AUSL   AUS 3101  33.239  20.747   8.175
 3182AUSL   AUS 3102  32.912  21.050   8.175
 3183AUL    AUL 3103  33.075  20.899   8.483
 3184THSLK    S 3104  33.317  20.694   8.417
 3185ETHY    C1 3105  33.394  20.444   8.790
 3186ETHY    C1 3106  33.510  20.227   9.269
 3187ETHY    C1 3107  33.647  20.111   9.769
 3188ETHY    C1 3108  33.797  20.093  10.281
 3189ETHY    C1 3109  33.956  20.174  10.794
 3190THSLK    S 3110  32.825  21.007   8.431
 3191ETHY    C1 3111  32.743  20.895   8.864
 3192ETHY    C1 3112  32.629  20.849   9.388
 3193ETHY    C1 3113  32.497  20.907   9.901
 3194ETHY    C1 3114  32.346  21.060  10.389
 3195ETHY    C1 3115  32.180  21.304  10.844
 3196AUSL   AUS 3116  33.239  21.050   8.175
 3197AUSL   AUS 3117  33.585  21.163   7.918
 3198AUL    AUL 3118  33.566  21.202   8.296
 3199THSLK    S 3119  33.326  21.104   8.414
 3200ETHY    C1 3120  33.407  21.355   8.786
 3201ETHY    C1 3121  33.521  21.571   9.265
 3202ETHY    C1 3122  33.654  21.687   9.767
 3203ETHY    C1 3123  33.804  21.705  10.279
 3204ETHY    C1 3124  33.970  21.625  10.789
 3205THSLK    S 3125  33.759  21.265   8.080
 3206ETHY    C1 3126  34.123  21.275   8.354
 3207ETHY    C1 3127  34.539  21.377   8.680
 3208ETHY    C1 3128  34.919  21.576   8.995
 3209ETHY    C1 3129  35.254  21.863   9.296
 3210ETHY    C1 3130  35.535  22.231   9.577
 3211AUSL   AUS 3131  33.484  20.899   6.922
 3212AUSL   AUS 3132  33.340  21.315   6.992
 3213AUL    AUL 3133  33.566  21.202   6.707
 3214THSLK    S 3134  33.587  20.849   6.681
 3215ETHY    C1 3135  33.808  20.663   6.329
 3216ETHY    C1 3136  34.081  20.528   5.885
 3217ETHY    C1 3137  34.359  20.498   5.432
 3218ETHY    C1 3138  34.637  20.567   4.982
 3219ETHY    C1 3139  34.911  20.735   4.545
 3220THSLK    S 3140  33.518  21.430   6.825
 3221ETHY    C1 3141  33.806  21.535   6.488
 3222ETHY    C1 3142  34.106  21.739   6.090
 3223ETHY    C1 3143  34.349  22.027   5.714
 3224ETHY    C1 3144  34.533  22.391   5.371
 3225ETHY    C1 3145  34.657  22.822   5.065
 3226AUSL   AUS 3146  33.239  20.747   6.828
 3227AUSL   AUS 3147  33.585  20.634   7.085
 3228AUL    AUL 3148  33.566  20.595   6.707
 3229THSLK    S 3149  33.722  20.442   6.944
 3230ETHY    C1 3150  33.930  20.099   6.729
 3231ETHY    C1 3151  34.231  19.757   6.442
 3232ETHY    C1 3152  34.582  19.504   6.133
 3233ETHY    C1 3153  34.976  19.342   5.812
 3234ETHY    C1 3154  35.405  19.271   5.486
 3235THSLK    S 3155  33.326  20.693   6.590
 3236ETHY    C1 3156  33.407  20.442   6.217
 3237ETHY    C1 3157  33.521  20.226   5.738
 3238ETHY    C1 3158  33.654  20.110   5.236
 3239ETHY    C1 3159  33.804  20.092   4.725
 3240ETHY    C1 3160  33.970  20.172   4.214
 3241AUSL   AUS 3161  33.239  21.050   6.828
 3242AUSL   AUS 3162  32.912  20.747   6.828
 3243AUL    AUL 3163  33.075  20.899   6.520
 3244THSLK    S 3164  32.817  20.693   6.592
 3245ETHY    C1 3165  32.680  20.445   6.235
 3246ETHY    C1 3166  32.520  20.231   5.767
 3247ETHY    C1 3167  32.373  20.116   5.269
 3248ETHY    C1 3168  32.246  20.097   4.751
 3249ETHY    C1 3169  32.141  20.173   4.224
 3250THSLK    S 3170  33.342  21.008   6.578
 3251ETHY    C1 3171  33.483  20.893   6.160
 3252ETHY    C1 3172  33.641  20.846   5.647
 3253ETHY    C1 3173  33.784  20.902   5.138
 3254ETHY    C1 3174  33.912  21.056   4.643
 3255ETHY    C1 3175  34.023  21.304   4.174
 3256AUSL   AUS 3176  32.666  20.899   8.082
 3257AUSL   AUS 3177  32.810  21.315   8.012
 3258AUL    AUL 3178  32.584  21.202   8.296
 3259THSLK    S 3179  32.563  20.849   8.322
 3260ETHY    C1 3180  32.342  20.663   8.674
 3261ETHY    C1 3181  32.069  20.528   9.118
 3262ETHY    C1 3182  31.792  20.498   9.571
 3263ETHY    C1 3183  31.514  20.567  10.021
 3264ETHY    C1 3184  31.239  20.735  10.458
 3265THSLK    S 3185  32.690  21.444   8.202
 3266ETHY    C1 3186  32.621  21.613   8.620
 3267ETHY    C1 3187  32.479  21.866   9.073
 3268ETHY    C1 3188  32.273  22.167   9.460
 3269ETHY    C1 3189  32.006  22.506   9.775
 3270ETHY    C1 3190  31.686  22.873  10.013
 3271AUSL   AUS 3191  32.912  20.747   8.175
 3272AUSL   AUS 3192  32.565  20.634   7.918
 3273AUL    AUL 3193  32.584  20.595   8.296
 3274THSLK    S 3194  32.387  20.470   8.029
 3275ETHY    C1 3195  32.019  20.217   8.125
 3276ETHY    C1 3196  31.604  19.938   8.323
 3277ETHY    C1 3197  31.226  19.698   8.611
 3278ETHY    C1 3198  30.892  19.502   8.978
 3279ETHY    C1 3199  30.606  19.356   9.415
 3280THSLK    S 3200  32.809  20.695   8.410
 3281ETHY    C1 3201  32.667  20.448   8.766
 3282ETHY    C1 3202  32.509  20.233   9.233
 3283ETHY    C1 3203  32.366  20.117   9.733
 3284ETHY    C1 3204  32.239  20.099  10.250
 3285ETHY    C1 3205  32.127  20.177  10.775
 3286AUSL   AUS 3206  32.666  20.899   6.922
 3287AUSL   AUS 3207  32.810  20.482   6.992
 3288AUL    AUL 3208  32.584  20.595   6.707
 3289THSLK    S 3209  32.571  20.849   6.677
 3290ETHY    C1 3210  32.354  20.663   6.322
 3291ETHY    C1 3211  32.079  20.528   5.879
 3292ETHY    C1 3212  31.798  20.498   5.429
 3293ETHY    C1 3213  31.520  20.567   4.978
 3294ETHY    C1 3214  31.252  20.735   4.537
 3295THSLK    S 3215  32.638  20.308   6.872
 3296ETHY    C1 3216  32.353  19.987   6.717
 3297ETHY    C1 3217  32.052  19.628   6.453
 3298ETHY    C1 3218  31.807  19.305   6.109
 3299ETHY    C1 3219  31.623  19.022   5.696
 3300ETHY    C1 3220  31.504  18.782   5.223
 3301AUSL   AUS 3221  32.912  21.050   6.828
 3302AUSL   AUS 3222  32.565  21.163   7.085
 3303AUL    AUL 3223  32.584  21.202   6.707
 3304THSLK    S 3224  32.434  21.293   6.893
 3305ETHY    C1 3225  32.228  21.393   6.499
 3306ETHY    C1 3226  31.926  21.557   6.085
 3307ETHY    C1 3227  31.572  21.769   5.748
 3308ETHY    C1 3228  31.179  22.023   5.494
 3309ETHY    C1 3229  30.754  22.316   5.324
 3310THSLK    S 3230  32.833  21.009   6.571
 3311ETHY    C1 3231  32.756  20.897   6.136
 3312ETHY    C1 3232  32.640  20.852   5.612
 3313ETHY    C1 3233  32.504  20.908   5.101
 3314ETHY    C1 3234  32.354  21.062   4.613
 3315ETHY    C1 3235  32.194  21.307   4.156
 3316AUSL   AUS 3236  33.655  21.308   7.502
 3317AUSL   AUS 3237  33.585  21.163   7.085
 3318AUL    AUL 3238  33.869  21.389   7.198
 3319THSLK    S 3239  33.764  21.266   6.930
 3320ETHY    C1 3240  34.131  21.277   6.659
 3321ETHY    C1 3241  34.546  21.379   6.332
 3322ETHY    C1 3242  34.924  21.577   6.014
 3323ETHY    C1 3243  35.258  21.864   5.713
 3324ETHY    C1 3244  35.544  22.234   5.438
 3325THSLK    S 3245  33.923  21.364   7.506
 3326ETHY    C1 3246  34.375  21.425   7.508
 3327ETHY    C1 3247  34.889  21.584   7.507
 3328ETHY    C1 3248  35.357  21.838   7.505
 3329ETHY    C1 3249  35.770  22.175   7.506
 3330ETHY    C1 3250  36.122  22.589   7.509
 3331AUSL   AUS 3251  33.749  21.062   7.350
 3332AUSL   AUS 3252  33.749  20.735   7.653
 3333AUL    AUL 3253  34.057  20.899   7.502
 3334THSLK    S 3254  34.008  21.105   7.348
 3335ETHY    C1 3255  34.453  21.035   7.278
 3336ETHY    C1 3256  34.984  21.042   7.190
 3337ETHY    C1 3257  35.497  21.152   7.101
 3338ETHY    C1 3258  35.982  21.358   7.017
 3339ETHY    C1 3259  36.429  21.655   6.940
 3340THSLK    S 3260  33.981  20.597   7.662
 3341ETHY    C1 3261  34.327  20.308   7.728
 3342ETHY    C1 3262  34.788  20.041   7.809
 3343ETHY    C1 3263  35.285  19.872   7.892
 3344ETHY    C1 3264  35.806  19.800   7.980
 3345ETHY    C1 3265  36.341  19.826   8.071
 3346AUSL   AUS 3266  33.749  21.062   7.653
 3347AUSL   AUS 3267  33.492  21.409   7.766
 3348AUL    AUL 3268  33.869  21.389   7.805
 3349THSLK    S 3269  33.675  21.528   7.926
 3350ETHY    C1 3270  34.047  21.683   8.139
 3351ETHY    C1 3271  34.447  21.948   8.385
 3352ETHY    C1 3272  34.781  22.292   8.615
 3353ETHY    C1 3273  35.043  22.705   8.827
 3354ETHY    C1 3274  35.230  23.177   9.019
 3355THSLK    S 3275  34.007  21.105   7.664
 3356ETHY    C1 3276  34.451  21.035   7.738
 3357ETHY    C1 3277  34.982  21.042   7.825
 3358ETHY    C1 3278  35.496  21.152   7.910
 3359ETHY    C1 3279  35.980  21.358   7.994
 3360ETHY    C1 3280  36.427  21.655   8.078
 3361AUSL   AUS 3281  32.495  21.308   7.502
 3362AUSL   AUS 3282  32.565  21.163   7.918
 3363AUL    AUL 3283  32.281  21.389   7.805
 3364THSLK    S 3284  32.429  21.286   8.109
 3365ETHY    C1 3285  32.220  21.382   8.503
 3366ETHY    C1 3286  31.919  21.548   8.917
 3367ETHY    C1 3287  31.568  21.763   9.254
 3368ETHY    C1 3288  31.174  22.017   9.509
 3369ETHY    C1 3289  30.745  22.304   9.678
 3370THSLK    S 3290  32.279  21.448   7.506
 3371ETHY    C1 3291  32.023  21.826   7.508
 3372ETHY    C1 3292  31.650  22.214   7.507
 3373ETHY    C1 3293  31.214  22.520   7.505
 3374ETHY    C1 3294  30.728  22.738   7.506
 3375ETHY    C1 3295  30.201  22.868   7.509
 3376AUSL   AUS 3296  32.401  21.062   7.350
 3377AUSL   AUS 3297  32.659  21.409   7.237
 3378AUL    AUL 3298  32.281  21.389   7.198
 3379THSLK    S 3299  32.170  21.177   7.303
 3380ETHY    C1 3300  31.823  21.365   7.075
 3381ETHY    C1 3301  31.363  21.557   6.872
 3382ETHY    C1 3302  30.865  21.707   6.758
 3383ETHY    C1 3303  30.344  21.817   6.733
 3384ETHY    C1 3304  29.810  21.887   6.796
 3385THSLK    S 3305  32.543  21.574   7.058
 3386ETHY    C1 3306  32.427  21.890   6.750
 3387ETHY    C1 3307  32.213  22.268   6.432
 3388ETHY    C1 3308  31.921  22.637   6.183
 3389ETHY    C1 3309  31.563  22.990   6.008
 3390ETHY    C1 3310  31.145  23.323   5.909
 3391AUSL   AUS 3311  32.401  21.062   7.653
 3392AUSL   AUS 3312  32.401  20.735   7.350
 3393AUL    AUL 3313  32.093  20.899   7.502
 3394THSLK    S 3314  32.143  20.661   7.390
 3395ETHY    C1 3315  31.699  20.626   7.486
 3396ETHY    C1 3316  31.168  20.545   7.518
 3397ETHY    C1 3317  30.654  20.420   7.458
 3398ETHY    C1 3318  30.170  20.252   7.311
 3399ETHY    C1 3319  29.723  20.045   7.083
 3400THSLK    S 3320  32.168  21.169   7.704
 3401ETHY    C1 3321  31.821  21.353   7.935
 3402ETHY    C1 3322  31.361  21.546   8.137
 3403ETHY    C1 3323  30.864  21.701   8.249
 3404ETHY    C1 3324  30.343  21.811   8.274
 3405ETHY    C1 3325  29.807  21.874   8.213
 3406AUSL   AUS 3326  33.655  20.489   7.502
 3407AUSL   AUS 3327  33.585  20.634   7.918
 3408AUL    AUL 3328  33.869  20.408   7.805
 3409THSLK    S 3329  33.871  20.349   7.506
 3410ETHY    C1 3330  34.127  19.971   7.508
 3411ETHY    C1 3331  34.500  19.583   7.507
 3412ETHY    C1 3332  34.936  19.277   7.505
 3413ETHY    C1 3333  35.422  19.059   7.506
 3414ETHY    C1 3334  35.949  18.929   7.509
 3415THSLK    S 3335  33.717  20.444   8.066
 3416ETHY    C1 3336  33.922  20.101   8.285
 3417ETHY    C1 3337  34.224  19.759   8.570
 3418ETHY    C1 3338  34.578  19.506   8.877
 3419ETHY    C1 3339  34.972  19.343   9.198
 3420ETHY    C1 3340  35.396  19.273   9.529
 3421AUSL   AUS 3341  33.749  20.735   7.350
 3422AUSL   AUS 3342  33.492  20.388   7.237
 3423AUL    AUL 3343  33.869  20.408   7.198
 3424THSLK    S 3344  33.982  20.597   7.350
 3425ETHY    C1 3345  34.330  20.308   7.289
 3426ETHY    C1 3346  34.789  20.041   7.206
 3427ETHY    C1 3347  35.286  19.872   7.118
 3428ETHY    C1 3348  35.808  19.800   7.031
 3429ETHY    C1 3349  36.343  19.826   6.947
 3430THSLK    S 3350  33.611  20.198   7.104
 3431ETHY    C1 3351  33.728  19.781   6.963
 3432ETHY    C1 3352  33.942  19.327   6.765
 3433ETHY    C1 3353  34.232  18.941   6.543
 3434ETHY    C1 3354  34.591  18.626   6.306
 3435ETHY    C1 3355  35.011  18.387   6.058
 3436AUSL   AUS 3356  32.495  20.489   7.502
 3437AUSL   AUS 3357  32.565  20.634   7.085
 3438AUL    AUL 3358  32.281  20.408   7.198
 3439THSLK    S 3359  32.392  20.463   6.973
 3440ETHY    C1 3360  32.027  20.206   6.877
 3441ETHY    C1 3361  31.611  19.929   6.679
 3442ETHY    C1 3362  31.231  19.692   6.392
 3443ETHY    C1 3363  30.897  19.496   6.025
 3444ETHY    C1 3364  30.615  19.344   5.587
 3445THSLK    S 3365  32.227  20.433   7.506
 3446ETHY    C1 3366  31.775  20.372   7.508
 3447ETHY    C1 3367  31.261  20.213   7.507
 3448ETHY    C1 3368  30.793  19.959   7.505
 3449ETHY    C1 3369  30.380  19.622   7.506
 3450ETHY    C1 3370  30.028  19.208   7.509
 3451AUSL   AUS 3371  32.401  20.735   7.653
 3452AUSL   AUS 3372  32.659  20.388   7.766
 3453AUL    AUL 3373  32.281  20.408   7.805
 3454THSLK    S 3374  32.471  20.244   7.880
 3455ETHY    C1 3375  32.097  19.987   7.926
 3456ETHY    C1 3376  31.699  19.647   8.052
 3457ETHY    C1 3377  31.366  19.285   8.255
 3458ETHY    C1 3378  31.104  18.911   8.529
 3459ETHY    C1 3379  30.913  18.533   8.870
 3460THSLK    S 3380  32.142  20.668   7.617
 3461ETHY    C1 3381  31.697  20.638   7.524
 3462ETHY    C1 3382  31.166  20.556   7.490
 3463ETHY    C1 3383  30.653  20.427   7.549
 3464ETHY    C1 3384  30.169  20.259   7.696
 3465ETHY    C1 3385  29.721  20.057   7.928
 3466AUSL   AUS 3386  33.075  21.479   7.911
 3467AUSL   AUS 3387  32.659  21.409   7.766
 3468AUL    AUL 3388  32.772  21.693   7.992
 3469THSLK    S 3389  32.539  21.568   7.950
 3470ETHY    C1 3390  32.422  21.880   8.261
 3471ETHY    C1 3391  32.208  22.260   8.578
 3472ETHY    C1 3392  31.918  22.631   8.824
 3473ETHY    C1 3393  31.560  22.985   9.000
 3474ETHY    C1 3394  31.139  23.313   9.102
 3475THSLK    S 3395  33.115  21.705   8.035
 3476ETHY    C1 3396  33.272  22.007   8.339
 3477ETHY    C1 3397  33.387  22.413   8.672
 3478ETHY    C1 3398  33.414  22.857   8.964
 3479ETHY    C1 3399  33.354  23.326   9.211
 3480ETHY    C1 3400  33.210  23.810   9.410
 3481AUSL   AUS 3401  32.923  21.572   7.665
 3482AUSL   AUS 3402  33.227  21.572   7.338
 3483AUL    AUL 3403  33.075  21.880   7.502
 3484THSLK    S 3404  32.964  21.820   7.774
 3485ETHY    C1 3405  33.073  22.230   7.942
 3486ETHY    C1 3406  33.117  22.737   8.118
 3487ETHY    C1 3407  33.060  23.245   8.265
 3488ETHY    C1 3408  32.907  23.742   8.383
 3489ETHY    C1 3409  32.664  24.219   8.472
 3490THSLK    S 3410  33.280  21.807   7.241
 3491ETHY    C1 3411  33.525  22.163   7.094
 3492ETHY    C1 3412  33.738  22.628   6.927
 3493ETHY    C1 3413  33.853  23.126   6.779
 3494ETHY    C1 3414  33.873  23.645   6.655
 3495ETHY    C1 3415  33.798  24.174   6.558
 3496AUSL   AUS 3416  33.227  21.572   7.665
 3497AUSL   AUS 3417  33.340  21.315   8.012
 3498AUL    AUL 3418  33.378  21.693   7.992
 3499THSLK    S 3419  33.512  21.428   8.184
 3500ETHY    C1 3420  33.797  21.531   8.524
 3501ETHY    C1 3421  34.099  21.735   8.921
 3502ETHY    C1 3422  34.344  22.025   9.294
 3503ETHY    C1 3423  34.528  22.388   9.638
 3504ETHY    C1 3424  34.647  22.818   9.948
 3505THSLK    S 3425  33.278  21.806   7.771
 3506ETHY    C1 3426  33.522  22.160   7.922
 3507ETHY    C1 3427  33.735  22.626   8.087
 3508ETHY    C1 3428  33.851  23.125   8.231
 3509ETHY    C1 3429  33.870  23.643   8.356
 3510ETHY    C1 3430  33.795  24.171   8.458
 3511AUSL   AUS 3431  33.075  20.319   7.911
 3512AUSL   AUS 3432  33.492  20.388   7.766
 3513AUL    AUL 3433  33.378  20.104   7.992
 3514THSLK    S 3434  33.031  20.064   7.990
 3515ETHY    C1 3435  32.871  19.660   8.128
 3516ETHY    C1 3436  32.757  19.179   8.341
 3517ETHY    C1 3437  32.732  18.718   8.605
 3518ETHY    C1 3438  32.791  18.288   8.915
 3519ETHY    C1 3439  32.932  17.896   9.263
 3520THSLK    S 3440  33.607  20.199   7.908
 3521ETHY    C1 3441  33.723  19.783   8.052
 3522ETHY    C1 3442  33.937  19.330   8.248
 3523ETHY    C1 3443  34.229  18.942   8.467
 3524ETHY    C1 3444  34.588  18.627   8.705
 3525ETHY    C1 3445  35.005  18.390   8.958
 3526AUSL   AUS 3446  32.923  20.225   7.665
 3527AUSL   AUS 3447  32.810  20.482   8.012
 3528AUL    AUL 3448  32.772  20.104   7.992
 3529THSLK    S 3449  32.870  19.985   7.745
 3530ETHY    C1 3450  32.625  19.604   7.801
 3531ETHY    C1 3451  32.412  19.119   7.897
 3532ETHY    C1 3452  32.297  18.616   8.025
 3533ETHY    C1 3453  32.278  18.107   8.186
 3534ETHY    C1 3454  32.352  17.604   8.374
 3535THSLK    S 3455  32.632  20.314   8.133
 3536ETHY    C1 3456  32.344  19.996   8.289
 3537ETHY    C1 3457  32.044  19.636   8.552
 3538ETHY    C1 3458  31.801  19.310   8.896
 3539ETHY    C1 3459  31.617  19.027   9.309
 3540ETHY    C1 3460  31.493  18.793   9.783
 3541AUSL   AUS 3461  33.227  20.225   7.665
 3542AUSL   AUS 3462  32.923  20.225   7.338
 3543AUL    AUL 3463  33.075  19.917   7.502
 3544THSLK    S 3464  32.872  19.982   7.266
 3545ETHY    C1 3465  32.628  19.600   7.215
 3546ETHY    C1 3466  32.415  19.116   7.117
 3547ETHY    C1 3467  32.299  18.614   6.984
 3548ETHY    C1 3468  32.280  18.105   6.825
 3549ETHY    C1 3469  32.356  17.600   6.642
 3550THSLK    S 3470  33.184  19.969   7.749
 3551ETHY    C1 3471  33.074  19.533   7.821
 3552ETHY    C1 3472  33.031  19.007   7.928
 3553ETHY    C1 3473  33.088  18.495   8.059
 3554ETHY    C1 3474  33.241  18.007   8.213
 3555ETHY    C1 3475  33.483  17.554   8.388
 3556AUSL   AUS 3476  33.075  21.479   7.093
 3557AUSL   AUS 3477  33.492  21.409   7.237
 3558AUL    AUL 3478  33.378  21.693   7.011
 3559THSLK    S 3479  33.119  21.709   6.975
 3560ETHY    C1 3480  33.279  22.013   6.674
 3561ETHY    C1 3481  33.393  22.418   6.339
 3562ETHY    C1 3482  33.418  22.861   6.045
 3563ETHY    C1 3483  33.359  23.330   5.798
 3564ETHY    C1 3484  33.218  23.817   5.604
 3565THSLK    S 3485  33.679  21.530   7.085
 3566ETHY    C1 3486  34.053  21.686   6.876
 3567ETHY    C1 3487  34.451  21.950   6.629
 3568ETHY    C1 3488  34.784  22.294   6.395
 3569ETHY    C1 3489  35.046  22.706   6.184
 3570ETHY    C1 3490  35.237  23.180   5.998
 3571AUSL   AUS 3491  32.923  21.572   7.338
 3572AUSL   AUS 3492  32.810  21.315   6.992
 3573AUL    AUL 3493  32.772  21.693   7.011
 3574THSLK    S 3494  32.966  21.823   7.237
 3575ETHY    C1 3495  33.076  22.234   7.074
 3576ETHY    C1 3496  33.119  22.740   6.896
 3577ETHY    C1 3497  33.062  23.248   6.745
 3578ETHY    C1 3498  32.909  23.745   6.627
 3579ETHY    C1 3499  32.667  24.224   6.545
 3580THSLK    S 3500  32.696  21.450   6.802
 3581ETHY    C1 3501  32.630  21.622   6.385
 3582ETHY    C1 3502  32.487  21.874   5.932
 3583ETHY    C1 3503  32.278  22.173   5.544
 3584ETHY    C1 3504  32.012  22.511   5.230
 3585ETHY    C1 3505  31.696  22.884   4.993
 3586AUSL   AUS 3506  33.075  20.319   7.093
 3587AUSL   AUS 3507  32.659  20.388   7.237
 3588AUL    AUL 3508  32.772  20.104   7.011
 3589THSLK    S 3509  32.475  20.238   7.128
 3590ETHY    C1 3510  32.103  19.977   7.085
 3591ETHY    C1 3511  31.704  19.639   6.958
 3592ETHY    C1 3512  31.369  19.280   6.753
 3593ETHY    C1 3513  31.107  18.906   6.478
 3594ETHY    C1 3514  30.920  18.523   6.142
 3595THSLK    S 3515  33.035  20.060   7.019
 3596ETHY    C1 3516  32.878  19.654   6.885
 3597ETHY    C1 3517  32.763  19.174   6.671
 3598ETHY    C1 3518  32.736  18.715   6.404
 3599ETHY    C1 3519  32.796  18.284   6.094
 3600ETHY    C1 3520  32.940  17.889   5.751
 3601AUSL   AUS 3521  33.227  20.225   7.338
 3602AUSL   AUS 3522  33.340  20.482   6.992
 3603AUL    AUL 3523  33.378  20.104   7.011
 3604THSLK    S 3524  33.186  19.968   7.262
 3605ETHY    C1 3525  33.077  19.530   7.195
 3606ETHY    C1 3526  33.034  19.004   7.086
 3607ETHY    C1 3527  33.090  18.493   6.951
 3608ETHY    C1 3528  33.243  18.005   6.798
 3609ETHY    C1 3529  33.487  17.551   6.629
 3610THSLK    S 3530  33.460  20.292   6.853
 3611ETHY    C1 3531  33.529  19.906   6.621
 3612ETHY    C1 3532  33.671  19.498   6.300
 3613ETHY    C1 3533  33.878  19.162   5.942
 3614ETHY    C1 3534  34.144  18.905   5.559
 3615ETHY    C1 3535  34.464  18.727   5.158
 3616AUC    AUC 3536  26.246  40.736   7.502
 3617AUC    AUC 3537  26.492  40.736   7.350
 3618AUC    AUC 3538  26.492  40.736   7.653
 3619AUC    AUC 3539  26.001  40.736   7.350
 3620AUC    AUC 3540  26.001  40.736   7.653
 3621AUC    AUC 3541  26.094  40.981   7.502
 3622AUC    AUC 3542  26.398  40.981   7.502
 3623AUC    AUC 3543  26.094  40.490   7.502
 3624AUC    AUC 3544  26.398  40.490   7.502
 3625AUC    AUC 3545  26.246  40.584   7.747
 3626AUC    AUC 3546  26.246  40.887   7.747
 3627AUC    AUC 3547  26.246  40.584   7.256
 3628AUC    AUC 3548  26.246  40.887   7.256
 3629AUC    AUC 3549  26.737  40.736   7.198
 3630AUC    AUC 3550  26.737  40.736   7.502
 3631AUC    AUC 3551  26.737  40.736   7.805
 3632AUC    AUC 3552  25.755  40.736   7.198
 3633AUC    AUC 3553  25.755  40.736   7.502
 3634AUC    AUC 3554  25.755  40.736   7.805
 3635AUC    AUC 3555  25.943  41.226   7.502
 3636AUC    AUC 3556  26.246  41.226   7.502
 3637AUC    AUC 3557  26.549  41.226   7.502
 3638AUC    AUC 3558  25.943  40.245   7.502
 3639AUC    AUC 3559  26.246  40.245   7.502
 3640AUC    AUC 3560  26.549  40.245   7.502
 3641AUC    AUC 3561  26.246  40.432   7.992
 3642AUC    AUC 3562  26.246  40.736   7.992
 3643AUC    AUC 3563  26.246  41.039   7.992
 3644AUC    AUC 3564  26.246  40.432   7.011
 3645AUC    AUC 3565  26.246  40.736   7.011
 3646AUC    AUC 3566  26.246  41.039   7.011
 3647AUC    AUC 3567  26.492  40.584   7.899
 3648AUC    AUC 3568  26.492  40.887   7.899
 3649AUC    AUC 3569  26.492  40.584   7.105
 3650AUC    AUC 3570  26.492  40.887   7.105
 3651AUC    AUC 3571  26.001  40.584   7.899
 3652AUC    AUC 3572  26.001  40.887   7.899
 3653AUC    AUC 3573  26.001  40.584   7.105
 3654AUC    AUC 3574  26.001  40.887   7.105
 3655AUC    AUC 3575  26.643  40.981   7.350
 3656AUC    AUC 3576  26.643  40.981   7.653
 3657AUC    AUC 3577  25.849  40.981   7.350
 3658AUC    AUC 3578  25.849  40.981   7.653
 3659AUC    AUC 3579  26.643  40.490   7.350
 3660AUC    AUC 3580  26.643  40.490   7.653
 3661AUC    AUC 3581  25.849  40.490   7.350
 3662AUC    AUC 3582  25.849  40.490   7.653
 3663AUC    AUC 3583  26.094  41.133   7.747
 3664AUC    AUC 3584  26.398  41.133   7.747
 3665AUC    AUC 3585  26.094  40.338   7.747
 3666AUC    AUC 3586  26.398  40.338   7.747
 3667AUC    AUC 3587  26.094  41.133   7.256
 3668AUC    AUC 3588  26.398  41.133   7.256
 3669AUC    AUC 3589  26.094  40.338   7.256
 3670AUC    AUC 3590  26.398  40.338   7.256
 3671AUSL   AUS 3591  26.655  40.736   8.082
 3672AUSL   AUS 3592  26.511  40.319   8.012
 3673AUL    AUL 3593  26.737  40.432   8.296
 3674THSLK    S 3594  26.625  40.131   8.156
 3675ETHY    C1 3595  26.691  39.746   8.391
 3676ETHY    C1 3596  26.834  39.338   8.710
 3677ETHY    C1 3597  27.043  39.002   9.066
 3678ETHY    C1 3598  27.309  38.744   9.450
 3679ETHY    C1 3599  27.625  38.568   9.855
 3680THSLK    S 3600  26.751  40.686   8.326
 3681ETHY    C1 3601  26.967  40.500   8.681
 3682ETHY    C1 3602  27.242  40.365   9.124
 3683ETHY    C1 3603  27.523  40.335   9.575
 3684ETHY    C1 3604  27.801  40.404  10.025
 3685ETHY    C1 3605  28.070  40.572  10.466
 3686AUSL   AUS 3606  26.410  40.584   8.175
 3687AUSL   AUS 3607  26.083  40.887   8.175
 3688AUL    AUL 3608  26.246  40.736   8.483
 3689THSLK    S 3609  26.488  40.531   8.417
 3690ETHY    C1 3610  26.565  40.281   8.790
 3691ETHY    C1 3611  26.681  40.064   9.269
 3692ETHY    C1 3612  26.818  39.948   9.769
 3693ETHY    C1 3613  26.968  39.930  10.281
 3694ETHY    C1 3614  27.127  40.011  10.794
 3695THSLK    S 3615  25.996  40.844   8.431
 3696ETHY    C1 3616  25.914  40.732   8.864
 3697ETHY    C1 3617  25.800  40.686   9.388
 3698ETHY    C1 3618  25.668  40.744   9.901
 3699ETHY    C1 3619  25.517  40.897  10.389
 3700ETHY    C1 3620  25.351  41.141  10.844
 3701AUSL   AUS 3621  26.410  40.887   8.175
 3702AUSL   AUS 3622  26.756  41.000   7.918
 3703AUL    AUL 3623  26.737  41.039   8.296
 3704THSLK    S 3624  26.497  40.941   8.414
 3705ETHY    C1 3625  26.578  41.192   8.786
 3706ETHY    C1 3626  26.692  41.408   9.265
 3707ETHY    C1 3627  26.825  41.524   9.767
 3708ETHY    C1 3628  26.975  41.542  10.279
 3709ETHY    C1 3629  27.141  41.462  10.789
 3710THSLK    S 3630  26.930  41.102   8.080
 3711ETHY    C1 3631  27.294  41.112   8.354
 3712ETHY    C1 3632  27.710  41.214   8.680
 3713ETHY    C1 3633  28.090  41.413   8.995
 3714ETHY    C1 3634  28.425  41.700   9.296
 3715ETHY    C1 3635  28.706  42.068   9.577
 3716AUSL   AUS 3636  26.655  40.736   6.922
 3717AUSL   AUS 3637  26.511  41.152   6.992
 3718AUL    AUL 3638  26.737  41.039   6.707
 3719THSLK    S 3639  26.758  40.686   6.681
 3720ETHY    C1 3640  26.979  40.500   6.329
 3721ETHY    C1 3641  27.252  40.365   5.885
 3722ETHY    C1 3642  27.530  40.335   5.432
 3723ETHY    C1 3643  27.808  40.404   4.982
 3724ETHY    C1 3644  28.082  40.572   4.545
 3725THSLK    S 3645  26.689  41.267   6.825
 3726ETHY    C1 3646  26.977  41.372   6.488
 3727ETHY    C1 3647  27.277  41.576   6.090
 3728ETHY    C1 3648  27.520  41.864   5.714
 3729ETHY    C1 3649  27.704  42.228   5.371
 3730ETHY    C1 3650  27.828  42.659   5.065
 3731AUSL   AUS 3651  26.410  40.584   6.828
 3732AUSL   AUS 3652  26.756  40.471   7.085
 3733AUL    AUL 3653  26.737  40.432   6.707
 3734THSLK    S 3654  26.893  40.279   6.944
 3735ETHY    C1 3655  27.101  39.936   6.729
 3736ETHY    C1 3656  27.402  39.594   6.442
 3737ETHY    C1 3657  27.753  39.341   6.133
 3738ETHY    C1 3658  28.147  39.179   5.812
 3739ETHY    C1 3659  28.576  39.108   5.486
 3740THSLK    S 3660  26.497  40.530   6.590
 3741ETHY    C1 3661  26.578  40.279   6.217
 3742ETHY    C1 3662  26.692  40.063   5.738
 3743ETHY    C1 3663  26.825  39.947   5.236
 3744ETHY    C1 3664  26.975  39.929   4.725
 3745ETHY    C1 3665  27.141  40.009   4.214
 3746AUSL   AUS 3666  26.410  40.887   6.828
 3747AUSL   AUS 3667  26.083  40.584   6.828
 3748AUL    AUL 3668  26.246  40.736   6.520
 3749THSLK    S 3669  25.988  40.530   6.592
 3750ETHY    C1 3670  25.851  40.282   6.235
 3751ETHY    C1 3671  25.691  40.068   5.767
 3752ETHY    C1 3672  25.544  39.953   5.269
 3753ETHY    C1 3673  25.417  39.934   4.751
 3754ETHY    C1 3674  25.312  40.010   4.224
 3755THSLK    S 3675  26.513  40.845   6.578
 3756ETHY    C1 3676  26.654  40.730   6.160
 3757ETHY    C1 3677  26.812  40.683   5.647
 3758ETHY    C1 3678  26.955  40.739   5.138
 3759ETHY    C1 3679  27.083  40.893   4.643
 3760ETHY    C1 3680  27.194  41.141   4.174
 3761AUSL   AUS 3681  25.837  40.736   8.082
 3762AUSL   AUS 3682  25.981  41.152   8.012
 3763AUL    AUL 3683  25.755  41.039   8.296
 3764THSLK    S 3684  25.734  40.686   8.322
 3765ETHY    C1 3685  25.513  40.500   8.674
 3766ETHY    C1 3686  25.240  40.365   9.118
 3767ETHY    C1 3687  24.963  40.335   9.571
 3768ETHY    C1 3688  24.685  40.404  10.021
 3769ETHY    C1 3689  24.410  40.572  10.458
 3770THSLK    S 3690  25.861  41.281   8.202
 3771ETHY    C1 3691  25.792  41.450   8.620
 3772ETHY    C1 3692  25.650  41.703   9.073
 3773ETHY    C1 3693  25.444  42.004   9.460
 3774ETHY    C1 3694  25.177  42.343   9.775
 3775ETHY    C1 3695  24.857  42.710  10.013
 3776AUSL   AUS 3696  26.083  40.584   8.175
 3777AUSL   AUS 3697  25.736  40.471   7.918
 3778AUL    AUL 3698  25.755  40.432   8.296
 3779THSLK    S 3699  25.558  40.307   8.029
 3780ETHY    C1 3700  25.190  40.054   8.125
 3781ETHY    C1 3701  24.775  39.775   8.323
 3782ETHY    C1 3702  24.397  39.535   8.611
 3783ETHY    C1 3703  24.063  39.339   8.978
 3784ETHY    C1 3704  23.777  39.193   9.415
 3785THSLK    S 3705  25.980  40.532   8.410
 3786ETHY    C1 3706  25.838  40.285   8.766
 3787ETHY    C1 3707  25.680  40.070   9.233
 3788ETHY    C1 3708  25.537  39.954   9.733
 3789ETHY    C1 3709  25.410  39.936  10.250
 3790ETHY    C1 3710  25.298  40.014  10.775
 3791AUSL   AUS 3711  25.837  40.736   6.922
 3792AUSL   AUS 3712  25.981  40.319   6.992
 3793AUL    AUL 3713  25.755  40.432   6.707
 3794THSLK    S 3714  25.742  40.686   6.677
 3795ETHY    C1 3715  25.525  40.500   6.322
 3796ETHY    C1 3716  25.250  40.365   5.879
 3797ETHY    C1 3717  24.969  40.335   5.429
 3798ETHY    C1 3718  24.691  40.404   4.978
 3799ETHY    C1 3719  24.423  40.572   4.537
 3800THSLK    S 3720  25.809  40.145   6.872
 3801ETHY    C1 3721  25.524  39.824   6.717
 3802ETHY    C1 3722  25.223  39.465   6.453
 3803ETHY    C1 3723  24.978  39.142   6.109
 3804ETHY    C1 3724  24.794  38.859   5.696
 3805ETHY    C1 3725  24.675  38.619   5.223
 3806AUSL   AUS 3726  26.083  40.887   6.828
 3807AUSL   AUS 3727  25.736  41.000   7.085
 3808AUL    AUL 3728  25.755  41.039   6.707
 3809THSLK    S 3729  25.605  41.130   6.893
 3810ETHY    C1 3730  25.399  41.230   6.499
 3811ETHY    C1 3731  25.097  41.394   6.085
 3812ETHY    C1 3732  24.743  41.606   5.748
 3813ETHY    C1 3733  24.350  41.860   5.494
 3814ETHY    C1 3734  23.925  42.153   5.324
 3815THSLK    S 3735  26.004  40.846   6.571
 3816ETHY    C1 3736  25.927  40.734   6.136
 3817ETHY    C1 3737  25.811  40.689   5.612
 3818ETHY    C1 3738  25.675  40.745   5.101
 3819ETHY    C1 3739  25.525  40.899   4.613
 3820ETHY    C1 3740  25.365  41.144   4.156
 3821AUSL   AUS 3741  26.826  41.145   7.502
 3822AUSL   AUS 3742  26.756  41.000   7.085
 3823AUL    AUL 3743  27.040  41.226   7.198
 3824THSLK    S 3744  26.935  41.103   6.930
 3825ETHY    C1 3745  27.302  41.114   6.659
 3826ETHY    C1 3746  27.717  41.216   6.332
 3827ETHY    C1 3747  28.095  41.414   6.014
 3828ETHY    C1 3748  28.429  41.701   5.713
 3829ETHY    C1 3749  28.715  42.071   5.438
 3830THSLK    S 3750  27.094  41.201   7.506
 3831ETHY    C1 3751  27.546  41.262   7.508
 3832ETHY    C1 3752  28.060  41.421   7.507
 3833ETHY    C1 3753  28.528  41.675   7.505
 3834ETHY    C1 3754  28.941  42.012   7.506
 3835ETHY    C1 3755  29.293  42.426   7.509
 3836AUSL   AUS 3756  26.920  40.899   7.350
 3837AUSL   AUS 3757  26.920  40.572   7.653
 3838AUL    AUL 3758  27.228  40.736   7.502
 3839THSLK    S 3759  27.179  40.942   7.348
 3840ETHY    C1 3760  27.624  40.872   7.278
 3841ETHY    C1 3761  28.155  40.879   7.190
 3842ETHY    C1 3762  28.668  40.989   7.101
 3843ETHY    C1 3763  29.153  41.195   7.017
 3844ETHY    C1 3764  29.600  41.492   6.940
 3845THSLK    S 3765  27.152  40.434   7.662
 3846ETHY    C1 3766  27.498  40.145   7.728
 3847ETHY    C1 3767  27.959  39.878   7.809
 3848ETHY    C1 3768  28.456  39.709   7.892
 3849ETHY    C1 3769  28.977  39.637   7.980
 3850ETHY    C1 3770  29.512  39.663   8.071
 3851AUSL   AUS 3771  26.920  40.899   7.653
 3852AUSL   AUS 3772  26.663  41.246   7.766
 3853AUL    AUL 3773  27.040  41.226   7.805
 3854THSLK    S 3774  26.846  41.365   7.926
 3855ETHY    C1 3775  27.218  41.520   8.139
 3856ETHY    C1 3776  27.618  41.785   8.385
 3857ETHY    C1 3777  27.952  42.129   8.615
 3858ETHY    C1 3778  28.214  42.542   8.827
 3859ETHY    C1 3779  28.401  43.014   9.019
 3860THSLK    S 3780  27.178  40.942   7.664
 3861ETHY    C1 3781  27.622  40.872   7.738
 3862ETHY    C1 3782  28.153  40.879   7.825
 3863ETHY    C1 3783  28.667  40.989   7.910
 3864ETHY    C1 3784  29.151  41.195   7.994
 3865ETHY    C1 3785  29.598  41.492   8.078
 3866AUSL   AUS 3786  25.666  41.145   7.502
 3867AUSL   AUS 3787  25.736  41.000   7.918
 3868AUL    AUL 3788  25.452  41.226   7.805
 3869THSLK    S 3789  25.600  41.123   8.109
 3870ETHY    C1 3790  25.391  41.219   8.503
 3871ETHY    C1 3791  25.090  41.385   8.917
 3872ETHY    C1 3792  24.739  41.600   9.254
 3873ETHY    C1 3793  24.345  41.854   9.509
 3874ETHY    C1 3794  23.916  42.141   9.678
 3875THSLK    S 3795  25.450  41.285   7.506
 3876ETHY    C1 3796  25.194  41.663   7.508
 3877ETHY    C1 3797  24.821  42.051   7.507
 3878ETHY    C1 3798  24.385  42.357   7.505
 3879ETHY    C1 3799  23.899  42.575   7.506
 3880ETHY    C1 3800  23.372  42.705   7.509
 3881AUSL   AUS 3801  25.572  40.899   7.350
 3882AUSL   AUS 3802  25.830  41.246   7.237
 3883AUL    AUL 3803  25.452  41.226   7.198
 3884THSLK    S 3804  25.341  41.014   7.303
 3885ETHY    C1 3805  24.994  41.202   7.075
 3886ETHY    C1 3806  24.534  41.394   6.872
 3887ETHY    C1 3807  24.036  41.544   6.758
 3888ETHY    C1 3808  23.515  41.654   6.733
 3889ETHY    C1 3809  22.981  41.724   6.796
 3890THSLK    S 3810  25.714  41.411   7.058
 3891ETHY    C1 3811  25.598  41.727   6.750
 3892ETHY    C1 3812  25.384  42.105   6.432
 3893ETHY    C1 3813  25.092  42.474   6.183
 3894ETHY    C1 3814  24.734  42.827   6.008
 3895ETHY    C1 3815  24.316  43.160   5.909
 3896AUSL   AUS 3816  25.572  40.899   7.653
 3897AUSL   AUS 3817  25.572  40.572   7.350
 3898AUL    AUL 3818  25.264  40.736   7.502
 3899THSLK    S 3819  25.314  40.498   7.390
 3900ETHY    C1 3820  24.870  40.463   7.486
 3901ETHY    C1 3821  24.339  40.382   7.518
 3902ETHY    C1 3822  23.825  40.257   7.458
 3903ETHY    C1 3823  23.341  40.089   7.311
 3904ETHY    C1 3824  22.894  39.882   7.083
 3905THSLK    S 3825  25.339  41.006   7.704
 3906ETHY    C1 3826  24.992  41.190   7.935
 3907ETHY    C1 3827  24.532  41.383   8.137
 3908ETHY    C1 3828  24.035  41.538   8.249
 3909ETHY    C1 3829  23.514  41.648   8.274
 3910ETHY    C1 3830  22.978  41.711   8.213
 3911AUSL   AUS 3831  26.826  40.326   7.502
 3912AUSL   AUS 3832  26.756  40.471   7.918
 3913AUL    AUL 3833  27.040  40.245   7.805
 3914THSLK    S 3834  27.042  40.186   7.506
 3915ETHY    C1 3835  27.298  39.808   7.508
 3916ETHY    C1 3836  27.671  39.420   7.507
 3917ETHY    C1 3837  28.107  39.114   7.505
 3918ETHY    C1 3838  28.593  38.896   7.506
 3919ETHY    C1 3839  29.120  38.766   7.509
 3920THSLK    S 3840  26.888  40.281   8.066
 3921ETHY    C1 3841  27.093  39.938   8.285
 3922ETHY    C1 3842  27.395  39.596   8.570
 3923ETHY    C1 3843  27.749  39.343   8.877
 3924ETHY    C1 3844  28.143  39.180   9.198
 3925ETHY    C1 3845  28.567  39.110   9.529
 3926AUSL   AUS 3846  26.920  40.572   7.350
 3927AUSL   AUS 3847  26.663  40.225   7.237
 3928AUL    AUL 3848  27.040  40.245   7.198
 3929THSLK    S 3849  27.153  40.434   7.350
 3930ETHY    C1 3850  27.501  40.145   7.289
 3931ETHY    C1 3851  27.960  39.878   7.206
 3932ETHY    C1 3852  28.457  39.709   7.118
 3933ETHY    C1 3853  28.979  39.637   7.031
 3934ETHY    C1 3854  29.514  39.663   6.947
 3935THSLK    S 3855  26.782  40.035   7.104
 3936ETHY    C1 3856  26.899  39.618   6.963
 3937ETHY    C1 3857  27.113  39.164   6.765
 3938ETHY    C1 3858  27.403  38.778   6.543
 3939ETHY    C1 3859  27.762  38.463   6.306
 3940ETHY    C1 3860  28.182  38.224   6.058
 3941AUSL   AUS 3861  25.666  40.326   7.502
 3942AUSL   AUS 3862  25.736  40.471   7.085
 3943AUL    AUL 3863  25.452  40.245   7.198
 3944THSLK    S 3864  25.563  40.300   6.973
 3945ETHY    C1 3865  25.198  40.043   6.877
 3946ETHY    C1 3866  24.782  39.766   6.679
 3947ETHY    C1 3867  24.402  39.529   6.392
 3948ETHY    C1 3868  24.068  39.333   6.025
 3949ETHY    C1 3869  23.786  39.181   5.587
 3950THSLK    S 3870  25.398  40.270   7.506
 3951ETHY    C1 3871  24.946  40.209   7.508
 3952ETHY    C1 3872  24.432  40.050   7.507
 3953ETHY    C1 3873  23.964  39.796   7.505
 3954ETHY    C1 3874  23.551  39.459   7.506
 3955ETHY    C1 3875  23.199  39.045   7.509
 3956AUSL   AUS 3876  25.572  40.572   7.653
 3957AUSL   AUS 3877  25.830  40.225   7.766
 3958AUL    AUL 3878  25.452  40.245   7.805
 3959THSLK    S 3879  25.642  40.081   7.880
 3960ETHY    C1 3880  25.268  39.824   7.926
 3961ETHY    C1 3881  24.870  39.484   8.052
 3962ETHY    C1 3882  24.537  39.122   8.255
 3963ETHY    C1 3883  24.275  38.748   8.529
 3964ETHY    C1 3884  24.084  38.370   8.870
 3965THSLK    S 3885  25.313  40.505   7.617
 3966ETHY    C1 3886  24.868  40.475   7.524
 3967ETHY    C1 3887  24.337  40.393   7.490
 3968ETHY    C1 3888  23.824  40.264   7.549
 3969ETHY    C1 3889  23.340  40.096   7.696
 3970ETHY    C1 3890  22.892  39.894   7.928
 3971AUSL   AUS 3891  26.246  41.316   7.911
 3972AUSL   AUS 3892  25.830  41.246   7.766
 3973AUL    AUL 3893  25.943  41.530   7.992
 3974THSLK    S 3894  25.710  41.405   7.950
 3975ETHY    C1 3895  25.593  41.717   8.261
 3976ETHY    C1 3896  25.379  42.097   8.578
 3977ETHY    C1 3897  25.089  42.468   8.824
 3978ETHY    C1 3898  24.731  42.822   9.000
 3979ETHY    C1 3899  24.310  43.150   9.102
 3980THSLK    S 3900  26.286  41.542   8.035
 3981ETHY    C1 3901  26.443  41.844   8.339
 3982ETHY    C1 3902  26.558  42.250   8.672
 3983ETHY    C1 3903  26.585  42.694   8.964
 3984ETHY    C1 3904  26.525  43.163   9.211
 3985ETHY    C1 3905  26.381  43.647   9.410
 3986AUSL   AUS 3906  26.094  41.409   7.665
 3987AUSL   AUS 3907  26.398  41.409   7.338
 3988AUL    AUL 3908  26.246  41.717   7.502
 3989THSLK    S 3909  26.135  41.657   7.774
 3990ETHY    C1 3910  26.244  42.067   7.942
 3991ETHY    C1 3911  26.288  42.574   8.118
 3992ETHY    C1 3912  26.231  43.082   8.265
 3993ETHY    C1 3913  26.078  43.579   8.383
 3994ETHY    C1 3914  25.835  44.056   8.472
 3995THSLK    S 3915  26.451  41.644   7.241
 3996ETHY    C1 3916  26.696  42.000   7.094
 3997ETHY    C1 3917  26.909  42.465   6.927
 3998ETHY    C1 3918  27.024  42.963   6.779
 3999ETHY    C1 3919  27.044  43.482   6.655
 4000ETHY    C1 3920  26.969  44.011   6.558
 4001AUSL   AUS 3921  26.398  41.409   7.665
 4002AUSL   AUS 3922  26.511  41.152   8.012
 4003AUL    AUL 3923  26.549  41.530   7.992
 4004THSLK    S 3924  26.683  41.265   8.184
 4005ETHY    C1 3925  26.968  41.368   8.524
 4006ETHY    C1 3926  27.270  41.572   8.921
 4007ETHY    C1 3927  27.515  41.862   9.294
 4008ETHY    C1 3928  27.699  42.225   9.638
 4009ETHY    C1 3929  27.818  42.655   9.948
 4010THSLK    S 3930  26.449  41.643   7.771
 4011ETHY    C1 3931  26.693  41.997   7.922
 4012ETHY    C1 3932  26.906  42.463   8.087
 4013ETHY    C1 3933  27.022  42.962   8.231
 4014ETHY    C1 3934  27.041  43.480   8.356
 4015ETHY    C1 3935  26.966  44.008   8.458
 4016AUSL   AUS 3936  26.246  40.156   7.911
 4017AUSL   AUS 3937  26.663  40.225   7.766
 4018AUL    AUL 3938  26.549  39.941   7.992
 4019THSLK    S 3939  26.202  39.901   7.990
 4020ETHY    C1 3940  26.042  39.497   8.128
 4021ETHY    C1 3941  25.928  39.016   8.341
 4022ETHY    C1 3942  25.903  38.555   8.605
 4023ETHY    C1 3943  25.962  38.125   8.915
 4024ETHY    C1 3944  26.103  37.733   9.263
 4025THSLK    S 3945  26.778  40.036   7.908
 4026ETHY    C1 3946  26.894  39.620   8.052
 4027ETHY    C1 3947  27.108  39.167   8.248
 4028ETHY    C1 3948  27.400  38.779   8.467
 4029ETHY    C1 3949  27.759  38.464   8.705
 4030ETHY    C1 3950  28.176  38.227   8.958
 4031AUSL   AUS 3951  26.094  40.062   7.665
 4032AUSL   AUS 3952  25.981  40.319   8.012
 4033AUL    AUL 3953  25.943  39.941   7.992
 4034THSLK    S 3954  26.041  39.822   7.745
 4035ETHY    C1 3955  25.796  39.441   7.801
 4036ETHY    C1 3956  25.583  38.956   7.897
 4037ETHY    C1 3957  25.468  38.453   8.025
 4038ETHY    C1 3958  25.449  37.944   8.186
 4039ETHY    C1 3959  25.523  37.441   8.374
 4040THSLK    S 3960  25.803  40.151   8.133
 4041ETHY    C1 3961  25.515  39.833   8.289
 4042ETHY    C1 3962  25.215  39.473   8.552
 4043ETHY    C1 3963  24.972  39.147   8.896
 4044ETHY    C1 3964  24.788  38.864   9.309
 4045ETHY    C1 3965  24.664  38.630   9.783
 4046AUSL   AUS 3966  26.398  40.062   7.665
 4047AUSL   AUS 3967  26.094  40.062   7.338
 4048AUL    AUL 3968  26.246  39.754   7.502
 4049THSLK    S 3969  26.043  39.819   7.266
 4050ETHY    C1 3970  25.799  39.437   7.215
 4051ETHY    C1 3971  25.586  38.953   7.117
 4052ETHY    C1 3972  25.470  38.451   6.984
 4053ETHY    C1 3973  25.451  37.942   6.825
 4054ETHY    C1 3974  25.527  37.437   6.642
 4055THSLK    S 3975  26.355  39.806   7.749
 4056ETHY    C1 3976  26.245  39.370   7.821
 4057ETHY    C1 3977  26.202  38.844   7.928
 4058ETHY    C1 3978  26.259  38.332   8.059
 4059ETHY    C1 3979  26.412  37.844   8.213
 4060ETHY    C1 3980  26.654  37.391   8.388
 4061AUSL   AUS 3981  26.246  41.316   7.093
 4062AUSL   AUS 3982  26.663  41.246   7.237
 4063AUL    AUL 3983  26.549  41.530   7.011
 4064THSLK    S 3984  26.290  41.546   6.975
 4065ETHY    C1 3985  26.450  41.850   6.674
 4066ETHY    C1 3986  26.564  42.255   6.339
 4067ETHY    C1 3987  26.589  42.698   6.045
 4068ETHY    C1 3988  26.530  43.167   5.798
 4069ETHY    C1 3989  26.389  43.654   5.604
 4070THSLK    S 3990  26.850  41.367   7.085
 4071ETHY    C1 3991  27.224  41.523   6.876
 4072ETHY    C1 3992  27.622  41.787   6.629
 4073ETHY    C1 3993  27.955  42.131   6.395
 4074ETHY    C1 3994  28.217  42.543   6.184
 4075ETHY    C1 3995  28.408  43.017   5.998
 4076AUSL   AUS 3996  26.094  41.409   7.338
 4077AUSL   AUS 3997  25.981  41.152   6.992
 4078AUL    AUL 3998  25.943  41.530   7.011
 4079THSLK    S 3999  26.137  41.660   7.237
 4080ETHY    C1 4000  26.247  42.071   7.074
 4081ETHY    C1 4001  26.290  42.577   6.896
 4082ETHY    C1 4002  26.233  43.085   6.745
 4083ETHY    C1 4003  26.080  43.582   6.627
 4084ETHY    C1 4004  25.838  44.061   6.545
 4085THSLK    S 4005  25.867  41.287   6.802
 4086ETHY    C1 4006  25.801  41.459   6.385
 4087ETHY    C1 4007  25.658  41.711   5.932
 4088ETHY    C1 4008  25.449  42.010   5.544
 4089ETHY    C1 4009  25.183  42.348   5.230
 4090ETHY    C1 4010  24.867  42.721   4.993
 4091AUSL   AUS 4011  26.246  40.156   7.093
 4092AUSL   AUS 4012  25.830  40.225   7.237
 4093AUL    AUL 4013  25.943  39.941   7.011
 4094THSLK    S 4014  25.646  40.075   7.128
 4095ETHY    C1 4015  25.274  39.814   7.085
 4096ETHY    C1 4016  24.875  39.476   6.958
 4097ETHY    C1 4017  24.540  39.117   6.753
 4098ETHY    C1 4018  24.278  38.743   6.478
 4099ETHY    C1 4019  24.091  38.360   6.142
 4100THSLK    S 4020  26.206  39.897   7.019
 4101ETHY    C1 4021  26.049  39.491   6.885
 4102ETHY    C1 4022  25.934  39.011   6.671
 4103ETHY    C1 4023  25.907  38.552   6.404
 4104ETHY    C1 4024  25.967  38.121   6.094
 4105ETHY    C1 4025  26.111  37.726   5.751
 4106AUSL   AUS 4026  26.398  40.062   7.338
 4107AUSL   AUS 4027  26.511  40.319   6.992
 4108AUL    AUL 4028  26.549  39.941   7.011
 4109THSLK    S 4029  26.357  39.805   7.262
 4110ETHY    C1 4030  26.248  39.367   7.195
 4111ETHY    C1 4031  26.205  38.841   7.086
 4112ETHY    C1 4032  26.261  38.330   6.951
 4113ETHY    C1 4033  26.414  37.842   6.798
 4114ETHY    C1 4034  26.658  37.388   6.629
 4115THSLK    S 4035  26.631  40.129   6.853
 4116ETHY    C1 4036  26.700  39.743   6.621
 4117ETHY    C1 4037  26.842  39.335   6.300
 4118ETHY    C1 4038  27.049  38.999   5.942
 4119ETHY    C1 4039  27.315  38.742   5.559
 4120ETHY    C1 4040  27.635  38.564   5.158
 4121AUC    AUC 4041  22.702  48.119   7.502
 4122AUC    AUC 4042  22.948  48.119   7.350
 4123AUC    AUC 4043  22.948  48.119   7.653
 4124AUC    AUC 4044  22.457  48.119   7.350
 4125AUC    AUC 4045  22.457  48.119   7.653
 4126AUC    AUC 4046  22.550  48.364   7.502
 4127AUC    AUC 4047  22.854  48.364   7.502
 4128AUC    AUC 4048  22.550  47.873   7.502
 4129AUC    AUC 4049  22.854  47.873   7.502
 4130AUC    AUC 4050  22.702  47.967   7.747
 4131AUC    AUC 4051  22.702  48.270   7.747
 4132AUC    AUC 4052  22.702  47.967   7.256
 4133AUC    AUC 4053  22.702  48.270   7.256
 4134AUC    AUC 4054  23.193  48.119   7.198
 4135AUC    AUC 4055  23.193  48.119   7.502
 4136AUC    AUC 4056  23.193  48.119   7.805
 4137AUC    AUC 4057  22.211  48.119   7.198
 4138AUC    AUC 4058  22.211  48.119   7.502
 4139AUC    AUC 4059  22.211  48.119   7.805
 4140AUC    AUC 4060  22.399  48.609   7.502
 4141AUC    AUC 4061  22.702  48.609   7.502
 4142AUC    AUC 4062  23.005  48.609   7.502
 4143AUC    AUC 4063  22.399  47.628   7.502
 4144AUC    AUC 4064  22.702  47.628   7.502
 4145AUC    AUC 4065  23.005  47.628   7.502
 4146AUC    AUC 4066  22.702  47.815   7.992
 4147AUC    AUC 4067  22.702  48.119   7.992
 4148AUC    AUC 4068  22.702  48.422   7.992
 4149AUC    AUC 4069  22.702  47.815   7.011
 4150AUC    AUC 4070  22.702  48.119   7.011
 4151AUC    AUC 4071  22.702  48.422   7.011
 4152AUC    AUC 4072  22.948  47.967   7.899
 4153AUC    AUC 4073  22.948  48.270   7.899
 4154AUC    AUC 4074  22.948  47.967   7.105
 4155AUC    AUC 4075  22.948  48.270   7.105
 4156AUC    AUC 4076  22.457  47.967   7.899
 4157AUC    AUC 4077  22.457  48.270   7.899
 4158AUC    AUC 4078  22.457  47.967   7.105
 4159AUC    AUC 4079  22.457  48.270   7.105
 4160AUC    AUC 4080  23.099  48.364   7.350
 4161AUC    AUC 4081  23.099  48.364   7.653
 4162AUC    AUC 4082  22.305  48.364   7.350
 4163AUC    AUC 4083  22.305  48.364   7.653
 4164AUC    AUC 4084  23.099  47.873   7.350
 4165AUC    AUC 4085  23.099  47.873   7.653
 4166AUC    AUC 4086  22.305  47.873   7.350
 4167AUC    AUC 4087  22.305  47.873   7.653
 4168AUC    AUC 4088  22.550  48.516   7.747
 4169AUC    AUC 4089  22.854  48.516   7.747
 4170AUC    AUC 4090  22.550  47.721   7.747
 4171AUC    AUC 4091  22.854  47.721   7.747
 4172AUC    AUC 4092  22.550  48.516   7.256
 4173AUC    AUC 4093  22.854  48.516   7.256
 4174AUC    AUC 4094  22.550  47.721   7.256
 4175AUC    AUC 4095  22.854  47.721   7.256
 4176AUSL   AUS 4096  23.111  48.119   8.082
 4177AUSL   AUS 4097  22.967  47.702   8.012
 4178AUL    AUL 4098  23.193  47.815   8.296
 4179THSLK    S 4099  23.081  47.514   8.156
 4180ETHY    C1 4100  23.147  47.129   8.391
 4181ETHY    C1 4101  23.290  46.721   8.710
 4182ETHY    C1 4102  23.499  46.385   9.066
 4183ETHY    C1 4103  23.765  46.127   9.450
 4184ETHY    C1 4104  24.081  45.951   9.855
 4185THSLK    S 4105  23.207  48.069   8.326
 4186ETHY    C1 4106  23.423  47.883   8.681
 4187ETHY    C1 4107  23.698  47.748   9.124
 4188ETHY    C1 4108  23.979  47.718   9.575
 4189ETHY    C1 4109  24.257  47.787  10.025
 4190ETHY    C1 4110  24.526  47.955  10.466
 4191AUSL   AUS 4111  22.866  47.967   8.175
 4192AUSL   AUS 4112  22.539  48.270   8.175
 4193AUL    AUL 4113  22.702  48.119   8.483
 4194THSLK    S 4114  22.944  47.914   8.417
 4195ETHY    C1 4115  23.021  47.664   8.790
 4196ETHY    C1 4116  23.137  47.447   9.269
 4197ETHY    C1 4117  23.274  47.331   9.769
 4198ETHY    C1 4118  23.424  47.313  10.281
 4199ETHY    C1 4119  23.583  47.394  10.794
 4200THSLK    S 4120  22.452  48.227   8.431
 4201ETHY    C1 4121  22.370  48.115   8.864
 4202ETHY    C1 4122  22.256  48.069   9.388
 4203ETHY    C1 4123  22.124  48.127   9.901
 4204ETHY    C1 4124  21.973  48.280  10.389
 4205ETHY    C1 4125  21.807  48.524  10.844
 4206AUSL   AUS 4126  22.866  48.270   8.175
 4207AUSL   AUS 4127  23.212  48.383   7.918
 4208AUL    AUL 4128  23.193  48.422   8.296
 4209THSLK    S 4129  22.953  48.324   8.414
 4210ETHY    C1 4130  23.034  48.575   8.786
 4211ETHY    C1 4131  23.148  48.791   9.265
 4212ETHY    C1 4132  23.281  48.907   9.767
 4213ETHY    C1 4133  23.431  48.925  10.279
 4214ETHY    C1 4134  23.597  48.845  10.789
 4215THSLK    S 4135  23.386  48.485   8.080
 4216ETHY    C1 4136  23.750  48.495   8.354
 4217ETHY    C1 4137  24.166  48.597   8.680
 4218ETHY    C1 4138  24.546  48.796   8.995
 4219ETHY    C1 4139  24.881  49.083   9.296
 4220ETHY    C1 4140  25.162  49.451   9.577
 4221AUSL   AUS 4141  23.111  48.119   6.922
 4222AUSL   AUS 4142  22.967  48.535   6.992
 4223AUL    AUL 4143  23.193  48.422   6.707
 4224THSLK    S 4144  23.214  48.069   6.681
 4225ETHY    C1 4145  23.435  47.883   6.329
 4226ETHY    C1 4146  23.708  47.748   5.885
 4227ETHY    C1 4147  23.986  47.718   5.432
 4228ETHY    C1 4148  24.264  47.787   4.982
 4229ETHY    C1 4149  24.538  47.955   4.545
 4230THSLK    S 4150  23.145  48.650   6.825
 4231ETHY    C1 4151  23.433  48.755   6.488
 4232ETHY    C1 4152  23.733  48.959   6.090
 4233ETHY    C1 4153  23.976  49.247   5.714
 4234ETHY    C1 4154  24.160  49.611   5.371
 4235ETHY    C1 4155  24.284  50.042   5.065
 4236AUSL   AUS 4156  22.866  47.967   6.828
 4237AUSL   AUS 4157  23.212  47.854   7.085
 4238AUL    AUL 4158  23.193  47.815   6.707
 4239THSLK    S 4159  23.349  47.662   6.944
 4240ETHY    C1 4160  23.557  47.319   6.729
 4241ETHY    C1 4161  23.858  46.977   6.442
 4242ETHY    C1 4162  24.209  46.724   6.133
 4243ETHY    C1 4163  24.603  46.562   5.812
 4244ETHY    C1 4164  25.032  46.491   5.486
 4245THSLK    S 4165  22.953  47.913   6.590
 4246ETHY    C1 4166  23.034  47.662   6.217
 4247ETHY    C1 4167  23.148  47.446   5.738
 4248ETHY    C1 4168  23.281  47.330   5.236
 4249ETHY    C1 4169  23.431  47.312   4.725
 4250ETHY    C1 4170  23.597  47.392   4.214
 4251AUSL   AUS 4171  22.866  48.270   6.828
 4252AUSL   AUS 4172  22.539  47.967   6.828
 4253AUL    AUL 4173  22.702  48.119   6.520
 4254THSLK    S 4174  22.444  47.913   6.592
 4255ETHY    C1 4175  22.307  47.665   6.235
 4256ETHY    C1 4176  22.147  47.451   5.767
 4257ETHY    C1 4177  22.000  47.336   5.269
 4258ETHY    C1 4178  21.873  47.317   4.751
 4259ETHY    C1 4179  21.768  47.393   4.224
 4260THSLK    S 4180  22.969  48.228   6.578
 4261ETHY    C1 4181  23.110  48.113   6.160
 4262ETHY    C1 4182  23.268  48.066   5.647
 4263ETHY    C1 4183  23.411  48.122   5.138
 4264ETHY    C1 4184  23.539  48.276   4.643
 4265ETHY    C1 4185  23.650  48.524   4.174
 4266AUSL   AUS 4186  22.293  48.119   8.082
 4267AUSL   AUS 4187  22.437  48.535   8.012
 4268AUL    AUL 4188  22.211  48.422   8.296
 4269THSLK    S 4189  22.190  48.069   8.322
 4270ETHY    C1 4190  21.969  47.883   8.674
 4271ETHY    C1 4191  21.696  47.748   9.118
 4272ETHY    C1 4192  21.419  47.718   9.571
 4273ETHY    C1 4193  21.141  47.787  10.021
 4274ETHY    C1 4194  20.866  47.955  10.458
 4275THSLK    S 4195  22.317  48.664   8.202
 4276ETHY    C1 4196  22.248  48.833   8.620
 4277ETHY    C1 4197  22.106  49.086   9.073
 4278ETHY    C1 4198  21.900  49.387   9.460
 4279ETHY    C1 4199  21.633  49.726   9.775
 4280ETHY    C1 4200  21.313  50.093  10.013
 4281AUSL   AUS 4201  22.539  47.967   8.175
 4282AUSL   AUS 4202  22.192  47.854   7.918
 4283AUL    AUL 4203  22.211  47.815   8.296
 4284THSLK    S 4204  22.014  47.690   8.029
 4285ETHY    C1 4205  21.646  47.437   8.125
 4286ETHY    C1 4206  21.231  47.158   8.323
 4287ETHY    C1 4207  20.853  46.918   8.611
 4288ETHY    C1 4208  20.519  46.722   8.978
 4289ETHY    C1 4209  20.233  46.576   9.415
 4290THSLK    S 4210  22.436  47.915   8.410
 4291ETHY    C1 4211  22.294  47.668   8.766
 4292ETHY    C1 4212  22.136  47.453   9.233
 4293ETHY    C1 4213  21.993  47.337   9.733
 4294ETHY    C1 4214  21.866  47.319  10.250
 4295ETHY    C1 4215  21.754  47.397  10.775
 4296AUSL   AUS 4216  22.293  48.119   6.922
 4297AUSL   AUS 4217  22.437  47.702   6.992
 4298AUL    AUL 4218  22.211  47.815   6.707
 4299THSLK    S 4219  22.198  48.069   6.677
 4300ETHY    C1 4220  21.981  47.883   6.322
 4301ETHY    C1 4221  21.706  47.748   5.879
 4302ETHY    C1 4222  21.425  47.718   5.429
 4303ETHY    C1 4223  21.147  47.787   4.978
 4304ETHY    C1 4224  20.879  47.955   4.537
 4305THSLK    S 4225  22.265  47.528   6.872
 4306ETHY    C1 4226  21.980  47.207   6.717
 4307ETHY    C1 4227  21.679  46.848   6.453
 4308ETHY    C1 4228  21.434  46.525   6.109
 4309ETHY    C1 4229  21.250  46.242   5.696
 4310ETHY    C1 4230  21.131  46.002   5.223
 4311AUSL   AUS 4231  22.539  48.270   6.828
 4312AUSL   AUS 4232  22.192  48.383   7.085
 4313AUL    AUL 4233  22.211  48.422   6.707
 4314THSLK    S 4234  22.061  48.513   6.893
 4315ETHY    C1 4235  21.855  48.613   6.499
 4316ETHY    C1 4236  21.553  48.777   6.085
 4317ETHY    C1 4237  21.199  48.989   5.748
 4318ETHY    C1 4238  20.806  49.243   5.494
 4319ETHY    C1 4239  20.381  49.536   5.324
 4320THSLK    S 4240  22.460  48.229   6.571
 4321ETHY    C1 4241  22.383  48.117   6.136
 4322ETHY    C1 4242  22.267  48.072   5.612
 4323ETHY    C1 4243  22.131  48.128   5.101
 4324ETHY    C1 4244  21.981  48.282   4.613
 4325ETHY    C1 4245  21.821  48.527   4.156
 4326AUSL   AUS 4246  23.282  48.528   7.502
 4327AUSL   AUS 4247  23.212  48.383   7.085
 4328AUL    AUL 4248  23.496  48.609   7.198
 4329THSLK    S 4249  23.391  48.486   6.930
 4330ETHY    C1 4250  23.758  48.497   6.659
 4331ETHY    C1 4251  24.173  48.599   6.332
 4332ETHY    C1 4252  24.551  48.797   6.014
 4333ETHY    C1 4253  24.885  49.084   5.713
 4334ETHY    C1 4254  25.171  49.454   5.438
 4335THSLK    S 4255  23.550  48.584   7.506
 4336ETHY    C1 4256  24.002  48.645   7.508
 4337ETHY    C1 4257  24.516  48.804   7.507
 4338ETHY    C1 4258  24.984  49.058   7.505
 4339ETHY    C1 4259  25.397  49.395   7.506
 4340ETHY    C1 4260  25.749  49.809   7.509
 4341AUSL   AUS 4261  23.376  48.282   7.350
 4342AUSL   AUS 4262  23.376  47.955   7.653
 4343AUL    AUL 4263  23.684  48.119   7.502
 4344THSLK    S 4264  23.635  48.325   7.348
 4345ETHY    C1 4265  24.080  48.255   7.278
 4346ETHY    C1 4266  24.611  48.262   7.190
 4347ETHY    C1 4267  25.124  48.372   7.101
 4348ETHY    C1 4268  25.609  48.578   7.017
 4349ETHY    C1 4269  26.056  48.875   6.940
 4350THSLK    S 4270  23.608  47.817   7.662
 4351ETHY    C1 4271  23.954  47.528   7.728
 4352ETHY    C1 4272  24.415  47.261   7.809
 4353ETHY    C1 4273  24.912  47.092   7.892
 4354ETHY    C1 4274  25.433  47.020   7.980
 4355ETHY    C1 4275  25.968  47.046   8.071
 4356AUSL   AUS 4276  23.376  48.282   7.653
 4357AUSL   AUS 4277  23.119  48.629   7.766
 4358AUL    AUL 4278  23.496  48.609   7.805
 4359THSLK    S 4279  23.302  48.748   7.926
 4360ETHY    C1 4280  23.674  48.903   8.139
 4361ETHY    C1 4281  24.074  49.168   8.385
 4362ETHY    C1 4282  24.408  49.512   8.615
 4363ETHY    C1 4283  24.670  49.925   8.827
 4364ETHY    C1 4284  24.857  50.397   9.019
 4365THSLK    S 4285  23.634  48.325   7.664
 4366ETHY    C1 4286  24.078  48.255   7.738
 4367ETHY    C1 4287  24.609  48.262   7.825
 4368ETHY    C1 4288  25.123  48.372   7.910
 4369ETHY    C1 4289  25.607  48.578   7.994
 4370ETHY    C1 4290  26.054  48.875   8.078
 4371AUSL   AUS 4291  22.122  48.528   7.502
 4372AUSL   AUS 4292  22.192  48.383   7.918
 4373AUL    AUL 4293  21.908  48.609   7.805
 4374THSLK    S 4294  22.056  48.506   8.109
 4375ETHY    C1 4295  21.847  48.602   8.503
 4376ETHY    C1 4296  21.546  48.768   8.917
 4377ETHY    C1 4297  21.195  48.983   9.254
 4378ETHY    C1 4298  20.801  49.237   9.509
 4379ETHY    C1 4299  20.372  49.524   9.678
 4380THSLK    S 4300  21.906  48.668   7.506
 4381ETHY    C1 4301  21.650  49.046   7.508
 4382ETHY    C1 4302  21.277  49.434   7.507
 4383ETHY    C1 4303  20.841  49.740   7.505
 4384ETHY    C1 4304  20.355  49.958   7.506
 4385ETHY    C1 4305  19.828  50.088   7.509
 4386AUSL   AUS 4306  22.028  48.282   7.350
 4387AUSL   AUS 4307  22.286  48.629   7.237
 4388AUL    AUL 4308  21.908  48.609   7.198
 4389THSLK    S 4309  21.797  48.397   7.303
 4390ETHY    C1 4310  21.450  48.585   7.075
 4391ETHY    C1 4311  20.990  48.777   6.872
 4392ETHY    C1 4312  20.492  48.927   6.758
 4393ETHY    C1 4313  19.971  49.037   6.733
 4394ETHY    C1 4314  19.437  49.107   6.796
 4395THSLK    S 4315  22.170  48.794   7.058
 4396ETHY    C1 4316  22.054  49.110   6.750
 4397ETHY    C1 4317  21.840  49.488   6.432
 4398ETHY    C1 4318  21.548  49.857   6.183
 4399ETHY    C1 4319  21.190  50.210   6.008
 4400ETHY    C1 4320  20.772  50.543   5.909
 4401AUSL   AUS 4321  22.028  48.282   7.653
 4402AUSL   AUS 4322  22.028  47.955   7.350
 4403AUL    AUL 4323  21.720  48.119   7.502
 4404THSLK    S 4324  21.770  47.881   7.390
 4405ETHY    C1 4325  21.326  47.846   7.486
 4406ETHY    C1 4326  20.795  47.765   7.518
 4407ETHY    C1 4327  20.281  47.640   7.458
 4408ETHY    C1 4328  19.797  47.472   7.311
 4409ETHY    C1 4329  19.350  47.265   7.083
 4410THSLK    S 4330  21.795  48.389   7.704
 4411ETHY    C1 4331  21.448  48.573   7.935
 4412ETHY    C1 4332  20.988  48.766   8.137
 4413ETHY    C1 4333  20.491  48.921   8.249
 4414ETHY    C1 4334  19.970  49.031   8.274
 4415ETHY    C1 4335  19.434  49.094   8.213
 4416AUSL   AUS 4336  23.282  47.709   7.502
 4417AUSL   AUS 4337  23.212  47.854   7.918
 4418AUL    AUL 4338  23.496  47.628   7.805
 4419THSLK    S 4339  23.498  47.569   7.506
 4420ETHY    C1 4340  23.754  47.191   7.508
 4421ETHY    C1 4341  24.127  46.803   7.507
 4422ETHY    C1 4342  24.563  46.497   7.505
 4423ETHY    C1 4343  25.049  46.279   7.506
 4424ETHY    C1 4344  25.576  46.149   7.509
 4425THSLK    S 4345  23.344  47.664   8.066
 4426ETHY    C1 4346  23.549  47.321   8.285
 4427ETHY    C1 4347  23.851  46.979   8.570
 4428ETHY    C1 4348  24.205  46.726   8.877
 4429ETHY    C1 4349  24.599  46.563   9.198
 4430ETHY    C1 4350  25.023  46.493   9.529
 4431AUSL   AUS 4351  23.376  47.955   7.350
 4432AUSL   AUS 4352  23.119  47.608   7.237
 4433AUL    AUL 4353  23.496  47.628   7.198
 4434THSLK    S 4354  23.609  47.817   7.350
 4435ETHY    C1 4355  23.957  47.528   7.289
 4436ETHY    C1 4356  24.416  47.261   7.206
 4437ETHY    C1 4357  24.913  47.092   7.118
 4438ETHY    C1 4358  25.435  47.020   7.031
 4439ETHY    C1 4359  25.970  47.046   6.947
 4440THSLK    S 4360  23.238  47.418   7.104
 4441ETHY    C1 4361  23.355  47.001   6.963
 4442ETHY    C1 4362  23.569  46.547   6.765
 4443ETHY    C1 4363  23.859  46.161   6.543
 4444ETHY    C1 4364  24.218  45.846   6.306
 4445ETHY    C1 4365  24.638  45.607   6.058
 4446AUSL   AUS 4366  22.122  47.709   7.502
 4447AUSL   AUS 4367  22.192  47.854   7.085
 4448AUL    AUL 4368  21.908  47.628   7.198
 4449THSLK    S 4369  22.019  47.683   6.973
 4450ETHY    C1 4370  21.654  47.426   6.877
 4451ETHY    C1 4371  21.238  47.149   6.679
 4452ETHY    C1 4372  20.858  46.912   6.392
 4453ETHY    C1 4373  20.524  46.716   6.025
 4454ETHY    C1 4374  20.242  46.564   5.587
 4455THSLK    S 4375  21.854  47.653   7.506
 4456ETHY    C1 4376  21.402  47.592   7.508
 4457ETHY    C1 4377  20.888  47.433   7.507
 4458ETHY    C1 4378  20.420  47.179   7.505
 4459ETHY    C1 4379  20.007  46.842   7.506
 4460ETHY    C1 4380  19.655  46.428   7.509
 4461AUSL   AUS 4381  22.028  47.955   7.653
 4462AUSL   AUS 4382  22.286  47.608   7.766
 4463AUL    AUL 4383  21.908  47.628   7.805
 4464THSLK    S 4384  22.098  47.464   7.880
 4465ETHY    C1 4385  21.724  47.207   7.926
 4466ETHY    C1 4386  21.326  46.867   8.052
 4467ETHY    C1 4387  20.993  46.505   8.255
 4468ETHY    C1 4388  20.731  46.131   8.529
 4469ETHY    C1 4389  20.540  45.753   8.870
 4470THSLK    S 4390  21.769  47.888   7.617
 4471ETHY    C1 4391  21.324  47.858   7.524
 4472ETHY    C1 4392  20.793  47.776   7.490
 4473ETHY    C1 4393  20.280  47.647   7.549
 4474ETHY    C1 4394  19.796  47.479   7.696
 4475ETHY    C1 4395  19.348  47.277   7.928
 4476AUSL   AUS 4396  22.702  48.699   7.911
 4477AUSL   AUS 4397  22.286  48.629   7.766
 4478AUL    AUL 4398  22.399  48.913   7.992
 4479THSLK    S 4399  22.166  48.788   7.950
 4480ETHY    C1 4400  22.049  49.100   8.261
 4481ETHY    C1 4401  21.835  49.480   8.578
 4482ETHY    C1 4402  21.545  49.851   8.824
 4483ETHY    C1 4403  21.187  50.205   9.000
 4484ETHY    C1 4404  20.766  50.533   9.102
 4485THSLK    S 4405  22.742  48.925   8.035
 4486ETHY    C1 4406  22.899  49.227   8.339
 4487ETHY    C1 4407  23.014  49.633   8.672
 4488ETHY    C1 4408  23.041  50.077   8.964
 4489ETHY    C1 4409  22.981  50.546   9.211
 4490ETHY    C1 4410  22.837  51.030   9.410
 4491AUSL   AUS 4411  22.550  48.792   7.665
 4492AUSL   AUS 4412  22.854  48.792   7.338
 4493AUL    AUL 4413  22.702  49.100   7.502
 4494THSLK    S 4414  22.591  49.040   7.774
 4495ETHY    C1 4415  22.700  49.450   7.942
 4496ETHY    C1 4416  22.744  49.957   8.118
 4497ETHY    C1 4417  22.687  50.465   8.265
 4498ETHY    C1 4418  22.534  50.962   8.383
 4499ETHY    C1 4419  22.291  51.439   8.472
 4500THSLK    S 4420  22.907  49.027   7.241
 4501ETHY    C1 4421  23.152  49.383   7.094
 4502ETHY    C1 4422  23.365  49.848   6.927
 4503ETHY    C1 4423  23.480  50.346   6.779
 4504ETHY    C1 4424  23.500  50.865   6.655
 4505ETHY    C1 4425  23.425  51.394   6.558
 4506AUSL   AUS 4426  22.854  48.792   7.665
 4507AUSL   AUS 4427  22.967  48.535   8.012
 4508AUL    AUL 4428  23.005  48.913   7.992
 4509THSLK    S 4429  23.139  48.648   8.184
 4510ETHY    C1 4430  23.424  48.751   8.524
 4511ETHY    C1 4431  23.726  48.955   8.921
 4512ETHY    C1 4432  23.971  49.245   9.294
 4513ETHY    C1 4433  24.155  49.608   9.638
 4514ETHY    C1 4434  24.274  50.038   9.948
 4515THSLK    S 4435  22.905  49.026   7.771
 4516ETHY    C1 4436  23.149  49.380   7.922
 4517ETHY    C1 4437  23.362  49.846   8.087
 4518ETHY    C1 4438  23.478  50.345   8.231
 4519ETHY    C1 4439  23.497  50.863   8.356
 4520ETHY    C1 4440  23.422  51.391   8.458
 4521AUSL   AUS 4441  22.702  47.539   7.911
 4522AUSL   AUS 4442  23.119  47.608   7.766
 4523AUL    AUL 4443  23.005  47.324   7.992
 4524THSLK    S 4444  22.658  47.284   7.990
 4525ETHY    C1 4445  22.498  46.880   8.128
 4526ETHY    C1 4446  22.384  46.399   8.341
 4527ETHY    C1 4447  22.359  45.938   8.605
 4528ETHY    C1 4448  22.418  45.508   8.915
 4529ETHY    C1 4449  22.559  45.116   9.263
 4530THSLK    S 4450  23.234  47.419   7.908
 4531ETHY    C1 4451  23.350  47.003   8.052
 4532ETHY    C1 4452  23.564  46.550   8.248
 4533ETHY    C1 4453  23.856  46.162   8.467
 4534ETHY    C1 4454  24.215  45.847   8.705
 4535ETHY    C1 4455  24.632  45.610   8.958
 4536AUSL   AUS 4456  22.550  47.445   7.665
 4537AUSL   AUS 4457  22.437  47.702   8.012
 4538AUL    AUL 4458  22.399  47.324   7.992
 4539THSLK    S 4459  22.497  47.205   7.745
 4540ETHY    C1 4460  22.252  46.824   7.801
 4541ETHY    C1 4461  22.039  46.339   7.897
 4542ETHY    C1 4462  21.924  45.836   8.025
 4543ETHY    C1 4463  21.905  45.327   8.186
 4544ETHY    C1 4464  21.979  44.824   8.374
 4545THSLK    S 4465  22.259  47.534   8.133
 4546ETHY    C1 4466  21.971  47.216   8.289
 4547ETHY    C1 4467  21.671  46.856   8.552
 4548ETHY    C1 4468  21.428  46.530   8.896
 4549ETHY    C1 4469  21.244  46.247   9.309
 4550ETHY    C1 4470  21.120  46.013   9.783
 4551AUSL   AUS 4471  22.854  47.445   7.665
 4552AUSL   AUS 4472  22.550  47.445   7.338
 4553AUL    AUL 4473  22.702  47.137   7.502
 4554THSLK    S 4474  22.499  47.202   7.266
 4555ETHY    C1 4475  22.255  46.820   7.215
 4556ETHY    C1 4476  22.042  46.336   7.117
 4557ETHY    C1 4477  21.926  45.834   6.984
 4558ETHY    C1 4478  21.907  45.325   6.825
 4559ETHY    C1 4479  21.983  44.820   6.642
 4560THSLK    S 4480  22.811  47.189   7.749
 4561ETHY    C1 4481  22.701  46.753   7.821
 4562ETHY    C1 4482  22.658  46.227   7.928
 4563ETHY    C1 4483  22.715  45.715   8.059
 4564ETHY    C1 4484  22.868  45.227   8.213
 4565ETHY    C1 4485  23.110  44.774   8.388
 4566AUSL   AUS 4486  22.702  48.699   7.093
 4567AUSL   AUS 4487  23.119  48.629   7.237
 4568AUL    AUL 4488  23.005  48.913   7.011
 4569THSLK    S 4489  22.746  48.929   6.975
 4570ETHY    C1 4490  22.906  49.233   6.674
 4571ETHY    C1 4491  23.020  49.638   6.339
 4572ETHY    C1 4492  23.045  50.081   6.045
 4573ETHY    C1 4493  22.986  50.550   5.798
 4574ETHY    C1 4494  22.845  51.037   5.604
 4575THSLK    S 4495  23.306  48.750   7.085
 4576ETHY    C1 4496  23.680  48.906   6.876
 4577ETHY    C1 4497  24.078  49.170   6.629
 4578ETHY    C1 4498  24.411  49.514   6.395
 4579ETHY    C1 4499  24.673  49.926   6.184
 4580ETHY    C1 4500  24.864  50.400   5.998
 4581AUSL   AUS 4501  22.550  48.792   7.338
 4582AUSL   AUS 4502  22.437  48.535   6.992
 4583AUL    AUL 4503  22.399  48.913   7.011
 4584THSLK    S 4504  22.593  49.043   7.237
 4585ETHY    C1 4505  22.703  49.454   7.074
 4586ETHY    C1 4506  22.746  49.960   6.896
 4587ETHY    C1 4507  22.689  50.468   6.745
 4588ETHY    C1 4508  22.536  50.965   6.627
 4589ETHY    C1 4509  22.294  51.444   6.545
 4590THSLK    S 4510  22.323  48.670   6.802
 4591ETHY    C1 4511  22.257  48.842   6.385
 4592ETHY    C1 4512  22.114  49.094   5.932
 4593ETHY    C1 4513  21.905  49.393   5.544
 4594ETHY    C1 4514  21.639  49.731   5.230
 4595ETHY    C1 4515  21.323  50.104   4.993
 4596AUSL   AUS 4516  22.702  47.539   7.093
 4597AUSL   AUS 4517  22.286  47.608   7.237
 4598AUL    AUL 4518  22.399  47.324   7.011
 4599THSLK    S 4519  22.102  47.458   7.128
 4600ETHY    C1 4520  21.730  47.197   7.085
 4601ETHY    C1 4521  21.331  46.859   6.958
 4602ETHY    C1 4522  20.996  46.500   6.753
 4603ETHY    C1 4523  20.734  46.126   6.478
 4604ETHY    C1 4524  20.547  45.743   6.142
 4605THSLK    S 4525  22.662  47.280   7.019
 4606ETHY    C1 4526  22.505  46.874   6.885
 4607ETHY    C1 4527  22.390  46.394   6.671
 4608ETHY    C1 4528  22.363  45.935   6.404
 4609ETHY    C1 4529  22.423  45.504   6.094
 4610ETHY    C1 4530  22.567  45.109   5.751
 4611AUSL   AUS 4531  22.854  47.445   7.338
 4612AUSL   AUS 4532  22.967  47.702   6.992
 4613AUL    AUL 4533  23.005  47.324   7.011
 4614THSLK    S 4534  22.813  47.188   7.262
 4615ETHY    C1 4535  22.704  46.750   7.195
 4616ETHY    C1 4536  22.661  46.224   7.086
 4617ETHY    C1 4537  22.717  45.713   6.951
 4618ETHY    C1 4538  22.870  45.225   6.798
 4619ETHY    C1 4539  23.114  44.771   6.629
 4620THSLK    S 4540  23.087  47.512   6.853
 4621ETHY    C1 4541  23.156  47.126   6.621
 4622ETHY    C1 4542  23.298  46.718   6.300
 4623ETHY    C1 4543  23.505  46.382   5.942
 4624ETHY    C1 4544  23.771  46.125   5.559
 4625ETHY    C1 4545  24.091  45.947   5.158
 4626AUC    AUC 4546  24.573  25.653   7.502
 4627AUC    AUC 4547  24.819  25.653   7.350
 4628AUC    AUC 4548  24.819  25.653   7.653
 4629AUC    AUC 4549  24.328  25.653   7.350
 4630AUC    AUC 4550  24.328  25.653   7.653
 4631AUC    AUC 4551  24.421  25.898   7.502
 4632AUC    AUC 4552  24.725  25.898   7.502
 4633AUC    AUC 4553  24.421  25.407   7.502
 4634AUC    AUC 4554  24.725  25.407   7.502
 4635AUC    AUC 4555  24.573  25.501   7.747
 4636AUC    AUC 4556  24.573  25.804   7.747
 4637AUC    AUC 4557  24.573  25.501   7.256
 4638AUC    AUC 4558  24.573  25.804   7.256
 4639AUC    AUC 4559  25.064  25.653   7.198
 4640AUC    AUC 4560  25.064  25.653   7.502
 4641AUC    AUC 4561  25.064  25.653   7.805
 4642AUC    AUC 4562  24.082  25.653   7.198
 4643AUC    AUC 4563  24.082  25.653   7.502
 4644AUC    AUC 4564  24.082  25.653   7.805
 4645AUC    AUC 4565  24.270  26.143   7.502
 4646AUC    AUC 4566  24.573  26.143   7.502
 4647AUC    AUC 4567  24.876  26.143   7.502
 4648AUC    AUC 4568  24.270  25.162   7.502
 4649AUC    AUC 4569  24.573  25.162   7.502
 4650AUC    AUC 4570  24.876  25.162   7.502
 4651AUC    AUC 4571  24.573  25.349   7.992
 4652AUC    AUC 4572  24.573  25.653   7.992
 4653AUC    AUC 4573  24.573  25.956   7.992
 4654AUC    AUC 4574  24.573  25.349   7.011
 4655AUC    AUC 4575  24.573  25.653   7.011
 4656AUC    AUC 4576  24.573  25.956   7.011
 4657AUC    AUC 4577  24.819  25.501   7.899
 4658AUC    AUC 4578  24.819  25.804   7.899
 4659AUC    AUC 4579  24.819  25.501   7.105
 4660AUC    AUC 4580  24.819  25.804   7.105
 4661AUC    AUC 4581  24.328  25.501   7.899
 4662AUC    AUC 4582  24.328  25.804   7.899
 4663AUC    AUC 4583  24.328  25.501   7.105
 4664AUC    AUC 4584  24.328  25.804   7.105
 4665AUC    AUC 4585  24.970  25.898   7.350
 4666AUC    AUC 4586  24.970  25.898   7.653
 4667AUC    AUC 4587  24.176  25.898   7.350
 4668AUC    AUC 4588  24.176  25.898   7.653
 4669AUC    AUC 4589  24.970  25.407   7.350
 4670AUC    AUC 4590  24.970  25.407   7.653
 4671AUC    AUC 4591  24.176  25.407   7.350
 4672AUC    AUC 4592  24.176  25.407   7.653
 4673AUC    AUC 4593  24.421  26.050   7.747
 4674AUC    AUC 4594  24.725  26.050   7.747
 4675AUC    AUC 4595  24.421  25.255   7.747
 4676AUC    AUC 4596  24.725  25.255   7.747
 4677AUC    AUC 4597  24.421  26.050   7.256
 4678AUC    AUC 4598  24.725  26.050   7.256
 4679AUC    AUC 4599  24.421  25.255   7.256
 4680AUC    AUC 4600  24.725  25.255   7.256
 4681AUSL   AUS 4601  24.982  25.653   8.082
 4682AUSL   AUS 4602  24.838  25.236   8.012
 4683AUL    AUL 4603  25.064  25.349   8.296
 4684THSLK    S 4604  24.952  25.048   8.156
 4685ETHY    C1 4605  25.018  24.663   8.391
 4686ETHY    C1 4606  25.161  24.255   8.710
 4687ETHY    C1 4607  25.370  23.919   9.066
 4688ETHY    C1 4608  25.636  23.661   9.450
 4689ETHY    C1 4609  25.952  23.485   9.855
 4690THSLK    S 4610  25.078  25.603   8.326
 4691ETHY    C1 4611  25.294  25.417   8.681
 4692ETHY    C1 4612  25.569  25.282   9.124
 4693ETHY    C1 4613  25.850  25.252   9.575
 4694ETHY    C1 4614  26.128  25.321  10.025
 4695ETHY    C1 4615  26.397  25.489  10.466
 4696AUSL   AUS 4616  24.737  25.501   8.175
 4697AUSL   AUS 4617  24.410  25.804   8.175
 4698AUL    AUL 4618  24.573  25.653   8.483
 4699THSLK    S 4619  24.815  25.448   8.417
 4700ETHY    C1 4620  24.892  25.198   8.790
 4701ETHY    C1 4621  25.008  24.981   9.269
 4702ETHY    C1 4622  25.145  24.865   9.769
 4703ETHY    C1 4623  25.295  24.847  10.281
 4704ETHY    C1 4624  25.454  24.928  10.794
 4705THSLK    S 4625  24.323  25.761   8.431
 4706ETHY    C1 4626  24.241  25.649   8.864
 4707ETHY    C1 4627  24.127  25.603   9.388
 4708ETHY    C1 4628  23.995  25.661   9.901
 4709ETHY    C1 4629  23.844  25.814  10.389
 4710ETHY    C1 4630  23.678  26.058  10.844
 4711AUSL   AUS 4631  24.737  25.804   8.175
 4712AUSL   AUS 4632  25.083  25.917   7.918
 4713AUL    AUL 4633  25.064  25.956   8.296
 4714THSLK    S 4634  24.824  25.858   8.414
 4715ETHY    C1 4635  24.905  26.109   8.786
 4716ETHY    C1 4636  25.019  26.325   9.265
 4717ETHY    C1 4637  25.152  26.441   9.767
 4718ETHY    C1 4638  25.302  26.459  10.279
 4719ETHY    C1 4639  25.468  26.379  10.789
 4720THSLK    S 4640  25.257  26.019   8.080
 4721ETHY    C1 4641  25.621  26.029   8.354
 4722ETHY    C1 4642  26.037  26.131   8.680
 4723ETHY    C1 4643  26.417  26.330   8.995
 4724ETHY    C1 4644  26.752  26.617   9.296
 4725ETHY    C1 4645  27.033  26.985   9.577
 4726AUSL   AUS 4646  24.982  25.653   6.922
 4727AUSL   AUS 4647  24.838  26.069   6.992
 4728AUL    AUL 4648  25.064  25.956   6.707
 4729THSLK    S 4649  25.085  25.603   6.681
 4730ETHY    C1 4650  25.306  25.417   6.329
 4731ETHY    C1 4651  25.579  25.282   5.885
 4732ETHY    C1 4652  25.857  25.252   5.432
 4733ETHY    C1 4653  26.135  25.321   4.982
 4734ETHY    C1 4654  26.409  25.489   4.545
 4735THSLK    S 4655  25.016  26.184   6.825
 4736ETHY    C1 4656  25.304  26.289   6.488
 4737ETHY    C1 4657  25.604  26.493   6.090
 4738ETHY    C1 4658  25.847  26.781   5.714
 4739ETHY    C1 4659  26.031  27.145   5.371
 4740ETHY    C1 4660  26.155  27.576   5.065
 4741AUSL   AUS 4661  24.737  25.501   6.828
 4742AUSL   AUS 4662  25.083  25.388   7.085
 4743AUL    AUL 4663  25.064  25.349   6.707
 4744THSLK    S 4664  25.220  25.196   6.944
 4745ETHY    C1 4665  25.428  24.853   6.729
 4746ETHY    C1 4666  25.729  24.511   6.442
 4747ETHY    C1 4667  26.080  24.258   6.133
 4748ETHY    C1 4668  26.474  24.096   5.812
 4749ETHY    C1 4669  26.903  24.025   5.486
 4750THSLK    S 4670  24.824  25.447   6.590
 4751ETHY    C1 4671  24.905  25.196   6.217
 4752ETHY    C1 4672  25.019  24.980   5.738
 4753ETHY    C1 4673  25.152  24.864   5.236
 4754ETHY    C1 4674  25.302  24.846   4.725
 4755ETHY    C1 4675  25.468  24.926   4.214
 4756AUSL   AUS 4676  24.737  25.804   6.828
 4757AUSL   AUS 4677  24.410  25.501   6.828
 4758AUL    AUL 4678  24.573  25.653   6.520
 4759THSLK    S 4679  24.315  25.447   6.592
 4760ETHY    C1 4680  24.178  25.199   6.235
 4761ETHY    C1 4681  24.018  24.985   5.767
 4762ETHY    C1 4682  23.871  24.870   5.269
 4763ETHY    C1 4683  23.744  24.851   4.751
 4764ETHY    C1 4684  23.639  24.927   4.224
 4765THSLK    S 4685  24.840  25.762   6.578
 4766ETHY    C1 4686  24.981  25.647   6.160
 4767ETHY    C1 4687  25.139  25.600   5.647
 4768ETHY    C1 4688  25.282  25.656   5.138
 4769ETHY    C1 4689  25.410  25.810   4.643
 4770ETHY    C1 4690  25.521  26.058   4.174
 4771AUSL   AUS 4691  24.164  25.653   8.082
 4772AUSL   AUS 4692  24.308  26.069   8.012
 4773AUL    AUL 4693  24.082  25.956   8.296
 4774THSLK    S 4694  24.061  25.603   8.322
 4775ETHY    C1 4695  23.840  25.417   8.674
 4776ETHY    C1 4696  23.567  25.282   9.118
 4777ETHY    C1 4697  23.290  25.252   9.571
 4778ETHY    C1 4698  23.012  25.321  10.021
 4779ETHY    C1 4699  22.737  25.489  10.458
 4780THSLK    S 4700  24.188  26.198   8.202
 4781ETHY    C1 4701  24.119  26.367   8.620
 4782ETHY    C1 4702  23.977  26.620   9.073
 4783ETHY    C1 4703  23.771  26.921   9.460
 4784ETHY    C1 4704  23.504  27.260   9.775
 4785ETHY    C1 4705  23.184  27.627  10.013
 4786AUSL   AUS 4706  24.410  25.501   8.175
 4787AUSL   AUS 4707  24.063  25.388   7.918
 4788AUL    AUL 4708  24.082  25.349   8.296
 4789THSLK    S 4709  23.885  25.224   8.029
 4790ETHY    C1 4710  23.517  24.971   8.125
 4791ETHY    C1 4711  23.102  24.692   8.323
 4792ETHY    C1 4712  22.724  24.452   8.611
 4793ETHY    C1 4713  22.390  24.256   8.978
 4794ETHY    C1 4714  22.104  24.110   9.415
 4795THSLK    S 4715  24.307  25.449   8.410
 4796ETHY    C1 4716  24.165  25.202   8.766
 4797ETHY    C1 4717  24.007  24.987   9.233
 4798ETHY    C1 4718  23.864  24.871   9.733
 4799ETHY    C1 4719  23.737  24.853  10.250
 4800ETHY    C1 4720  23.625  24.931  10.775
 4801AUSL   AUS 4721  24.164  25.653   6.922
 4802AUSL   AUS 4722  24.308  25.236   6.992
 4803AUL    AUL 4723  24.082  25.349   6.707
 4804THSLK    S 4724  24.069  25.603   6.677
 4805ETHY    C1 4725  23.852  25.417   6.322
 4806ETHY    C1 4726  23.577  25.282   5.879
 4807ETHY    C1 4727  23.296  25.252   5.429
 4808ETHY    C1 4728  23.018  25.321   4.978
 4809ETHY    C1 4729  22.750  25.489   4.537
 4810THSLK    S 4730  24.136  25.062   6.872
 4811ETHY    C1 4731  23.851  24.741   6.717
 4812ETHY    C1 4732  23.550  24.382   6.453
 4813ETHY    C1 4733  23.305  24.059   6.109
 4814ETHY    C1 4734  23.121  23.776   5.696
 4815ETHY    C1 4735  23.002  23.536   5.223
 4816AUSL   AUS 4736  24.410  25.804   6.828
 4817AUSL   AUS 4737  24.063  25.917   7.085
 4818AUL    AUL 4738  24.082  25.956   6.707
 4819THSLK    S 4739  23.932  26.047   6.893
 4820ETHY    C1 4740  23.726  26.147   6.499
 4821ETHY    C1 4741  23.424  26.311   6.085
 4822ETHY    C1 4742  23.070  26.523   5.748
 4823ETHY    C1 4743  22.677  26.777   5.494
 4824ETHY    C1 4744  22.252  27.070   5.324
 4825THSLK    S 4745  24.331  25.763   6.571
 4826ETHY    C1 4746  24.254  25.651   6.136
 4827ETHY    C1 4747  24.138  25.606   5.612
 4828ETHY    C1 4748  24.002  25.662   5.101
 4829ETHY    C1 4749  23.852  25.816   4.613
 4830ETHY    C1 4750  23.692  26.061   4.156
 4831AUSL   AUS 4751  25.153  26.062   7.502
 4832AUSL   AUS 4752  25.083  25.917   7.085
 4833AUL    AUL 4753  25.367  26.143   7.198
 4834THSLK    S 4754  25.262  26.020   6.930
 4835ETHY    C1 4755  25.629  26.031   6.659
 4836ETHY    C1 4756  26.044  26.133   6.332
 4837ETHY    C1 4757  26.422  26.331   6.014
 4838ETHY    C1 4758  26.756  26.618   5.713
 4839ETHY    C1 4759  27.042  26.988   5.438
 4840THSLK    S 4760  25.421  26.118   7.506
 4841ETHY    C1 4761  25.873  26.179   7.508
 4842ETHY    C1 4762  26.387  26.338   7.507
 4843ETHY    C1 4763  26.855  26.592   7.505
 4844ETHY    C1 4764  27.268  26.929   7.506
 4845ETHY    C1 4765  27.620  27.343   7.509
 4846AUSL   AUS 4766  25.247  25.816   7.350
 4847AUSL   AUS 4767  25.247  25.489   7.653
 4848AUL    AUL 4768  25.555  25.653   7.502
 4849THSLK    S 4769  25.506  25.859   7.348
 4850ETHY    C1 4770  25.951  25.789   7.278
 4851ETHY    C1 4771  26.482  25.796   7.190
 4852ETHY    C1 4772  26.995  25.906   7.101
 4853ETHY    C1 4773  27.480  26.112   7.017
 4854ETHY    C1 4774  27.927  26.409   6.940
 4855THSLK    S 4775  25.479  25.351   7.662
 4856ETHY    C1 4776  25.825  25.062   7.728
 4857ETHY    C1 4777  26.286  24.795   7.809
 4858ETHY    C1 4778  26.783  24.626   7.892
 4859ETHY    C1 4779  27.304  24.554   7.980
 4860ETHY    C1 4780  27.839  24.580   8.071
 4861AUSL   AUS 4781  25.247  25.816   7.653
 4862AUSL   AUS 4782  24.990  26.163   7.766
 4863AUL    AUL 4783  25.367  26.143   7.805
 4864THSLK    S 4784  25.173  26.282   7.926
 4865ETHY    C1 4785  25.545  26.437   8.139
 4866ETHY    C1 4786  25.945  26.702   8.385
 4867ETHY    C1 4787  26.279  27.046   8.615
 4868ETHY    C1 4788  26.541  27.459   8.827
 4869ETHY    C1 4789  26.728  27.931   9.019
 4870THSLK    S 4790  25.505  25.859   7.664
 4871ETHY    C1 4791  25.949  25.789   7.738
 4872ETHY    C1 4792  26.480  25.796   7.825
 4873ETHY    C1 4793  26.994  25.906   7.910
 4874ETHY    C1 4794  27.478  26.112   7.994
 4875ETHY    C1 4795  27.925  26.409   8.078
 4876AUSL   AUS 4796  23.993  26.062   7.502
 4877AUSL   AUS 4797  24.063  25.917   7.918
 4878AUL    AUL 4798  23.779  26.143   7.805
 4879THSLK    S 4799  23.927  26.040   8.109
 4880ETHY    C1 4800  23.718  26.136   8.503
 4881ETHY    C1 4801  23.417  26.302   8.917
 4882ETHY    C1 4802  23.066  26.517   9.254
 4883ETHY    C1 4803  22.672  26.771   9.509
 4884ETHY    C1 4804  22.243  27.058   9.678
 4885THSLK    S 4805  23.777  26.202   7.506
 4886ETHY    C1 4806  23.521  26.580   7.508
 4887ETHY    C1 4807  23.148  26.968   7.507
 4888ETHY    C1 4808  22.712  27.274   7.505
 4889ETHY    C1 4809  22.226  27.492   7.506
 4890ETHY    C1 4810  21.699  27.622   7.509
 4891AUSL   AUS 4811  23.899  25.816   7.350
 4892AUSL   AUS 4812  24.157  26.163   7.237
 4893AUL    AUL 4813  23.779  26.143   7.198
 4894THSLK    S 4814  23.668  25.931   7.303
 4895ETHY    C1 4815  23.321  26.119   7.075
 4896ETHY    C1 4816  22.861  26.311   6.872
 4897ETHY    C1 4817  22.363  26.461   6.758
 4898ETHY    C1 4818  21.842  26.571   6.733
 4899ETHY    C1 4819  21.308  26.641   6.796
 4900THSLK    S 4820  24.041  26.328   7.058
 4901ETHY    C1 4821  23.925  26.644   6.750
 4902ETHY    C1 4822  23.711  27.022   6.432
 4903ETHY    C1 4823  23.419  27.391   6.183
 4904ETHY    C1 4824  23.061  27.744   6.008
 4905ETHY    C1 4825  22.643  28.077   5.909
 4906AUSL   AUS 4826  23.899  25.816   7.653
 4907AUSL   AUS 4827  23.899  25.489   7.350
 4908AUL    AUL 4828  23.591  25.653   7.502
 4909THSLK    S 4829  23.641  25.415   7.390
 4910ETHY    C1 4830  23.197  25.380   7.486
 4911ETHY    C1 4831  22.666  25.299   7.518
 4912ETHY    C1 4832  22.152  25.174   7.458
 4913ETHY    C1 4833  21.668  25.006   7.311
 4914ETHY    C1 4834  21.221  24.799   7.083
 4915THSLK    S 4835  23.666  25.923   7.704
 4916ETHY    C1 4836  23.319  26.107   7.935
 4917ETHY    C1 4837  22.859  26.300   8.137
 4918ETHY    C1 4838  22.362  26.455   8.249
 4919ETHY    C1 4839  21.841  26.565   8.274
 4920ETHY    C1 4840  21.305  26.628   8.213
 4921AUSL   AUS 4841  25.153  25.243   7.502
 4922AUSL   AUS 4842  25.083  25.388   7.918
 4923AUL    AUL 4843  25.367  25.162   7.805
 4924THSLK    S 4844  25.369  25.103   7.506
 4925ETHY    C1 4845  25.625  24.725   7.508
 4926ETHY    C1 4846  25.998  24.337   7.507
 4927ETHY    C1 4847  26.434  24.031   7.505
 4928ETHY    C1 4848  26.920  23.813   7.506
 4929ETHY    C1 4849  27.447  23.683   7.509
 4930THSLK    S 4850  25.215  25.198   8.066
 4931ETHY    C1 4851  25.420  24.855   8.285
 4932ETHY    C1 4852  25.722  24.513   8.570
 4933ETHY    C1 4853  26.076  24.260   8.877
 4934ETHY    C1 4854  26.470  24.097   9.198
 4935ETHY    C1 4855  26.894  24.027   9.529
 4936AUSL   AUS 4856  25.247  25.489   7.350
 4937AUSL   AUS 4857  24.990  25.142   7.237
 4938AUL    AUL 4858  25.367  25.162   7.198
 4939THSLK    S 4859  25.480  25.351   7.350
 4940ETHY    C1 4860  25.828  25.062   7.289
 4941ETHY    C1 4861  26.287  24.795   7.206
 4942ETHY    C1 4862  26.784  24.626   7.118
 4943ETHY    C1 4863  27.306  24.554   7.031
 4944ETHY    C1 4864  27.841  24.580   6.947
 4945THSLK    S 4865  25.109  24.952   7.104
 4946ETHY    C1 4866  25.226  24.535   6.963
 4947ETHY    C1 4867  25.440  24.081   6.765
 4948ETHY    C1 4868  25.730  23.695   6.543
 4949ETHY    C1 4869  26.089  23.380   6.306
 4950ETHY    C1 4870  26.509  23.141   6.058
 4951AUSL   AUS 4871  23.993  25.243   7.502
 4952AUSL   AUS 4872  24.063  25.388   7.085
 4953AUL    AUL 4873  23.779  25.162   7.198
 4954THSLK    S 4874  23.890  25.217   6.973
 4955ETHY    C1 4875  23.525  24.960   6.877
 4956ETHY    C1 4876  23.109  24.683   6.679
 4957ETHY    C1 4877  22.729  24.446   6.392
 4958ETHY    C1 4878  22.395  24.250   6.025
 4959ETHY    C1 4879  22.113  24.098   5.587
 4960THSLK    S 4880  23.725  25.187   7.506
 4961ETHY    C1 4881  23.273  25.126   7.508
 4962ETHY    C1 4882  22.759  24.967   7.507
 4963ETHY    C1 4883  22.291  24.713   7.505
 4964ETHY    C1 4884  21.878  24.376   7.506
 4965ETHY    C1 4885  21.526  23.962   7.509
 4966AUSL   AUS 4886  23.899  25.489   7.653
 4967AUSL   AUS 4887  24.157  25.142   7.766
 4968AUL    AUL 4888  23.779  25.162   7.805
 4969THSLK    S 4889  23.969  24.998   7.880
 4970ETHY    C1 4890  23.595  24.741   7.926
 4971ETHY    C1 4891  23.197  24.401   8.052
 4972ETHY    C1 4892  22.864  24.039   8.255
 4973ETHY    C1 4893  22.602  23.665   8.529
 4974ETHY    C1 4894  22.411  23.287   8.870
 4975THSLK    S 4895  23.640  25.422   7.617
 4976ETHY    C1 4896  23.195  25.392   7.524
 4977ETHY    C1 4897  22.664  25.310   7.490
 4978ETHY    C1 4898  22.151  25.181   7.549
 4979ETHY    C1 4899  21.667  25.013   7.696
 4980ETHY    C1 4900  21.219  24.811   7.928
 4981AUSL   AUS 4901  24.573  26.233   7.911
 4982AUSL   AUS 4902  24.157  26.163   7.766
 4983AUL    AUL 4903  24.270  26.447   7.992
 4984THSLK    S 4904  24.037  26.322   7.950
 4985ETHY    C1 4905  23.920  26.634   8.261
 4986ETHY    C1 4906  23.706  27.014   8.578
 4987ETHY    C1 4907  23.416  27.385   8.824
 4988ETHY    C1 4908  23.058  27.739   9.000
 4989ETHY    C1 4909  22.637  28.067   9.102
 4990THSLK    S 4910  24.613  26.459   8.035
 4991ETHY    C1 4911  24.770  26.761   8.339
 4992ETHY    C1 4912  24.885  27.167   8.672
 4993ETHY    C1 4913  24.912  27.611   8.964
 4994ETHY    C1 4914  24.852  28.080   9.211
 4995ETHY    C1 4915  24.708  28.564   9.410
 4996AUSL   AUS 4916  24.421  26.326   7.665
 4997AUSL   AUS 4917  24.725  26.326   7.338
 4998AUL    AUL 4918  24.573  26.634   7.502
 4999THSLK    S 4919  24.462  26.574   7.774
 5000ETHY    C1 4920  24.571  26.984   7.942
 5001ETHY    C1 4921  24.615  27.491   8.118
 5002ETHY    C1 4922  24.558  27.999   8.265
 5003ETHY    C1 4923  24.405  28.496   8.383
 5004ETHY    C1 4924  24.162  28.973   8.472
 5005THSLK    S 4925  24.778  26.561   7.241
 5006ETHY    C1 4926  25.023  26.917   7.094
 5007ETHY    C1 4927  25.236  27.382   6.927
 5008ETHY    C1 4928  25.351  27.880   6.779
 5009ETHY    C1 4929  25.371  28.399   6.655
 5010ETHY    C1 4930  25.296  28.928   6.558
 5011AUSL   AUS 4931  24.725  26.326   7.665
 5012AUSL   AUS 4932  24.838  26.069   8.012
 5013AUL    AUL 4933  24.876  26.447   7.992
 5014THSLK    S 4934  25.010  26.182   8.184
 5015ETHY    C1 4935  25.295  26.285   8.524
 5016ETHY    C1 4936  25.597  26.489   8.921
 5017ETHY    C1 4937  25.842  26.779   9.294
 5018ETHY    C1 4938  26.026  27.142   9.638
 5019ETHY    C1 4939  26.145  27.572   9.948
 5020THSLK    S 4940  24.776  26.560   7.771
 5021ETHY    C1 4941  25.020  26.914   7.922
 5022ETHY    C1 4942  25.233  27.380   8.087
 5023ETHY    C1 4943  25.349  27.879   8.231
 5024ETHY    C1 4944  25.368  28.397   8.356
 5025ETHY    C1 4945  25.293  28.925   8.458
 5026AUSL   AUS 4946  24.573  25.073   7.911
 5027AUSL   AUS 4947  24.990  25.142   7.766
 5028AUL    AUL 4948  24.876  24.858   7.992
 5029THSLK    S 4949  24.529  24.818   7.990
 5030ETHY    C1 4950  24.369  24.414   8.128
 5031ETHY    C1 4951  24.255  23.933   8.341
 5032ETHY    C1 4952  24.230  23.472   8.605
 5033ETHY    C1 4953  24.289  23.042   8.915
 5034ETHY    C1 4954  24.430  22.650   9.263
 5035THSLK    S 4955  25.105  24.953   7.908
 5036ETHY    C1 4956  25.221  24.537   8.052
 5037ETHY    C1 4957  25.435  24.084   8.248
 5038ETHY    C1 4958  25.727  23.696   8.467
 5039ETHY    C1 4959  26.086  23.381   8.705
 5040ETHY    C1 4960  26.503  23.144   8.958
 5041AUSL   AUS 4961  24.421  24.979   7.665
 5042AUSL   AUS 4962  24.308  25.236   8.012
 5043AUL    AUL 4963  24.270  24.858   7.992
 5044THSLK    S 4964  24.368  24.739   7.745
 5045ETHY    C1 4965  24.123  24.358   7.801
 5046ETHY    C1 4966  23.910  23.873   7.897
 5047ETHY    C1 4967  23.795  23.370   8.025
 5048ETHY    C1 4968  23.776  22.861   8.186
 5049ETHY    C1 4969  23.850  22.358   8.374
 5050THSLK    S 4970  24.130  25.068   8.133
 5051ETHY    C1 4971  23.842  24.750   8.289
 5052ETHY    C1 4972  23.542  24.390   8.552
 5053ETHY    C1 4973  23.299  24.064   8.896
 5054ETHY    C1 4974  23.115  23.781   9.309
 5055ETHY    C1 4975  22.991  23.547   9.783
 5056AUSL   AUS 4976  24.725  24.979   7.665
 5057AUSL   AUS 4977  24.421  24.979   7.338
 5058AUL    AUL 4978  24.573  24.671   7.502
 5059THSLK    S 4979  24.370  24.736   7.266
 5060ETHY    C1 4980  24.126  24.354   7.215
 5061ETHY    C1 4981  23.913  23.870   7.117
 5062ETHY    C1 4982  23.797  23.368   6.984
 5063ETHY    C1 4983  23.778  22.859   6.825
 5064ETHY    C1 4984  23.854  22.354   6.642
 5065THSLK    S 4985  24.682  24.723   7.749
 5066ETHY    C1 4986  24.572  24.287   7.821
 5067ETHY    C1 4987  24.529  23.761   7.928
 5068ETHY    C1 4988  24.586  23.249   8.059
 5069ETHY    C1 4989  24.739  22.761   8.213
 5070ETHY    C1 4990  24.981  22.308   8.388
 5071AUSL   AUS 4991  24.573  26.233   7.093
 5072AUSL   AUS 4992  24.990  26.163   7.237
 5073AUL    AUL 4993  24.876  26.447   7.011
 5074THSLK    S 4994  24.617  26.463   6.975
 5075ETHY    C1 4995  24.777  26.767   6.674
 5076ETHY    C1 4996  24.891  27.172   6.339
 5077ETHY    C1 4997  24.916  27.615   6.045
 5078ETHY    C1 4998  24.857  28.084   5.798
 5079ETHY    C1 4999  24.716  28.571   5.604
 5080THSLK    S 5000  25.177  26.284   7.085
 5081ETHY    C1 5001  25.551  26.440   6.876
 5082ETHY    C1 5002  25.949  26.704   6.629
 5083ETHY    C1 5003  26.282  27.048   6.395
 5084ETHY    C1 5004  26.544  27.460   6.184
 5085ETHY    C1 5005  26.735  27.934   5.998
 5086AUSL   AUS 5006  24.421  26.326   7.338
 5087AUSL   AUS 5007  24.308  26.069   6.992
 5088AUL    AUL 5008  24.270  26.447   7.011
 5089THSLK    S 5009  24.464  26.577   7.237
 5090ETHY    C1 5010  24.574  26.988   7.074
 5091ETHY    C1 5011  24.617  27.494   6.896
 5092ETHY    C1 5012  24.560  28.002   6.745
 5093ETHY    C1 5013  24.407  28.499   6.627
 5094ETHY    C1 5014  24.165  28.978   6.545
 5095THSLK    S 5015  24.194  26.204   6.802
 5096ETHY    C1 5016  24.128  26.376   6.385
 5097ETHY    C1 5017  23.985  26.628   5.932
 5098ETHY    C1 5018  23.776  26.927   5.544
 5099ETHY    C1 5019  23.510  27.265   5.230
 5100ETHY    C1 5020  23.194  27.638   4.993
 5101AUSL   AUS 5021  24.573  25.073   7.093
 5102AUSL   AUS 5022  24.157  25.142   7.237
 5103AUL    AUL 5023  24.270  24.858   7.011
 5104THSLK    S 5024  23.973  24.992   7.128
 5105ETHY    C1 5025  23.601  24.731   7.085
 5106ETHY    C1 5026  23.202  24.393   6.958
 5107ETHY    C1 5027  22.867  24.034   6.753
 5108ETHY    C1 5028  22.605  23.660   6.478
 5109ETHY    C1 5029  22.418  23.277   6.142
 5110THSLK    S 5030  24.533  24.814   7.019
 5111ETHY    C1 5031  24.376  24.408   6.885
 5112ETHY    C1 5032  24.261  23.928   6.671
 5113ETHY    C1 5033  24.234  23.469   6.404
 5114ETHY    C1 5034  24.294  23.038   6.094
 5115ETHY    C1 5035  24.438  22.643   5.751
 5116AUSL   AUS 5036  24.725  24.979   7.338
 5117AUSL   AUS 5037  24.838  25.236   6.992
 5118AUL    AUL 5038  24.876  24.858   7.011
 5119THSLK    S 5039  24.684  24.722   7.262
 5120ETHY    C1 5040  24.575  24.284   7.195
 5121ETHY    C1 5041  24.532  23.758   7.086
 5122ETHY    C1 5042  24.588  23.247   6.951
 5123ETHY    C1 5043  24.741  22.759   6.798
 5124ETHY    C1 5044  24.985  22.305   6.629
 5125THSLK    S 5045  24.958  25.046   6.853
 5126ETHY    C1 5046  25.027  24.660   6.621
 5127ETHY    C1 5047  25.169  24.252   6.300
 5128ETHY    C1 5048  25.376  23.916   5.942
 5129ETHY    C1 5049  25.642  23.659   5.559
 5130ETHY    C1 5050  25.962  23.481   5.158
 5131POPC   NC3 5051  27.640  43.877   9.453
 5131POPC   PO4 5052  27.588  43.884   9.153
 5131POPC   GL1 5053  27.600  43.847   8.853
 5131POPC   GL2 5054  27.429  43.948   8.853
 5131POPC   C1A 5055  27.632  43.882   8.553
 5131POPC   D2A 5056  27.582  43.921   8.253
 5131POPC   C3A 5057  27.620  43.845   7.953
 5131POPC   C4A 5058  27.560  43.893   7.653
 5131POPC   C1B 5059  27.352  43.906   8.553
 5131POPC   C2B 5060  27.368  43.966   8.253
 5131POPC   C3B 5061  27.323  43.970   7.953
 5131POPC   C4B 5062  27.353  43.933   7.653
 5132POPC   NC3 5063  22.121  37.641   9.453
 5132POPC   PO4 5064  22.149  37.682   9.153
 5132POPC   GL1 5065  22.119  37.653   8.853
 5132POPC   GL2 5066  22.328  37.676   8.853
 5132POPC   C1A 5067  22.118  37.667   8.553
 5132POPC   D2A 5068  22.179  37.721   8.253
 5132POPC   C3A 5069  22.134  37.724   7.953
 5132POPC   C4A 5070  22.182  37.669   7.653
 5132POPC   C1B 5071  22.434  37.710   8.553
 5132POPC   C2B 5072  22.414  37.741   8.253
 5132POPC   C3B 5073  22.381  37.736   7.953
 5132POPC   C4B 5074  22.385  37.691   7.653
 5133POPC   NC3 5075   9.019  12.032   9.453
 5133POPC   PO4 5076   8.987  12.108   9.153
 5133POPC   GL1 5077   8.953  12.075   8.853
 5133POPC   GL2 5078   9.054  11.933   8.853
 5133POPC   C1A 5079   9.011  12.098   8.553
 5133POPC   D2A 5080   9.016  12.042   8.253
 5133POPC   C3A 5081   8.927  12.044   7.953
 5133POPC   C4A 5082   9.018  12.123   7.653
 5133POPC   C1B 5083   9.085  11.873   8.553
 5133POPC   C2B 5084   9.124  11.816   8.253
 5133POPC   C3B 5085   9.070  11.889   7.953
 5133POPC   C4B 5086   9.116  11.840   7.653
 5134POPC   NC3 5087  34.589  31.486   9.453
 5134POPC   PO4 5088  34.565  31.431   9.153
 5134POPC   GL1 5089  34.614  31.500   8.853
 5134POPC   GL2 5090  34.484  31.525   8.853
 5134POPC   C1A 5091  34.620  31.459   8.553
 5134POPC   D2A 5092  34.529  31.483   8.253
 5134POPC   C3A 5093  34.526  31.478   7.953
 5134POPC   C4A 5094  34.624  31.484   7.653
 5134POPC   C1B 5095  34.380  31.641   8.553
 5134POPC   C2B 5096  34.398  31.621   8.253
 5134POPC   C3B 5097  34.395  31.645   7.953
 5134POPC   C4B 5098  34.379  31.613   7.653
 5135POPC   NC3 5099  24.488  21.413   9.453
 5135POPC   PO4 5100  24.478  21.415   9.153
 5135POPC   GL1 5101  24.445  21.409   8.853
 5135POPC   GL2 5102  24.414  21.307   8.853
 5135POPC   C1A 5103  24.501  21.409   8.553
 5135POPC   D2A 5104  24.522  21.411   8.253
 5135POPC   C3A 5105  24.529  21.343   7.953
 5135POPC   C4A 5106  24.522  21.345   7.653
 5135POPC   C1B 5107  24.332  21.216   8.553
 5135POPC   C2B 5108  24.323  21.154   8.253
 5135POPC   C3B 5109  24.302  21.169   7.953
 5135POPC   C4B 5110  24.290  21.161   7.653
 5136POPC   NC3 5111  32.996   1.213   9.453
 5136POPC   PO4 5112  33.027   1.220   9.153
 5136POPC   GL1 5113  33.065   1.184   8.853
 5136POPC   GL2 5114  32.972   1.151   8.853
 5136POPC   C1A 5115  33.067   1.246   8.553
 5136POPC   D2A 5116  33.029   1.221   8.253
 5136POPC   C3A 5117  33.053   1.262   7.953
 5136POPC   C4A 5118  32.997   1.240   7.653
 5136POPC   C1B 5119  32.877   1.064   8.553
 5136POPC   C2B 5120  32.891   1.068   8.253
 5136POPC   C3B 5121  32.864   1.060   7.953
 5136POPC   C4B 5122  32.858   0.995   7.653
 5137POPC   NC3 5123  40.813   3.517   9.453
 5137POPC   PO4 5124  40.745   3.526   9.153
 5137POPC   GL1 5125  40.781   3.562   8.853
 5137POPC   GL2 5126  40.754   3.696   8.853
 5137POPC   C1A 5127  40.773   3.491   8.553
 5137POPC   D2A 5128  40.798   3.494   8.253
 5137POPC   C3A 5129  40.746   3.504   7.953
 5137POPC   C4A 5130  40.788   3.527   7.653
 5137POPC   C1B 5131  40.677   3.741   8.553
 5137POPC   C2B 5132  40.618   3.762   8.253
 5137POPC   C3B 5133  40.619   3.713   7.953
 5137POPC   C4B 5134  40.628   3.762   7.653
 5138POPC   NC3 5135   7.429   0.403   9.453
 5138POPC   PO4 5136   7.397   0.411   9.153
 5138POPC   GL1 5137   7.372   0.468   8.853
 5138POPC   GL2 5138   7.564   0.467   8.853
 5138POPC   C1A 5139   7.398   0.397   8.553
 5138POPC   D2A 5140   7.432   0.389   8.253
 5138POPC   C3A 5141   7.445   0.391   7.953
 5138POPC   C4A 5142   7.428   0.467   7.653
 5138POPC   C1B 5143   7.650   0.607   8.553
 5138POPC   C2B 5144   7.654   0.609   8.253
 5138POPC   C3B 5145   7.603   0.527   7.953
 5138POPC   C4B 5146   7.617   0.617   7.653
 5139POPC   NC3 5147  17.463   6.627   9.453
 5139POPC   PO4 5148  17.533   6.645   9.153
 5139POPC   GL1 5149  17.512   6.623   8.853
 5139POPC   GL2 5150  17.380   6.676   8.853
 5139POPC   C1A 5151  17.514   6.622   8.553
 5139POPC   D2A 5152  17.511   6.651   8.253
 5139POPC   C3A 5153  17.555   6.595   7.953
 5139POPC   C4A 5154  17.473   6.661   7.653
 5139POPC   C1B 5155  17.266   6.728   8.553
 5139POPC   C2B 5156  17.305   6.676   8.253
 5139POPC   C3B 5157  17.247   6.709   7.953
 5139POPC   C4B 5158  17.229   6.722   7.653
 5140POPC   NC3 5159  31.480  18.307   9.453
 5140POPC   PO4 5160  31.474  18.292   9.153
 5140POPC   GL1 5161  31.511  18.288   8.853
 5140POPC   GL2 5162  31.313  18.330   8.853
 5140POPC   C1A 5163  31.480  18.317   8.553
 5140POPC   D2A 5164  31.487  18.305   8.253
 5140POPC   C3A 5165  31.431  18.271   7.953
 5140POPC   C4A 5166  31.452  18.324   7.653
 5140POPC   C1B 5167  31.223  18.357   8.553
 5140POPC   C2B 5168  31.241  18.318   8.253
 5140POPC   C3B 5169  31.185  18.281   7.953
 5140POPC   C4B 5170  31.175  18.316   7.653
 5141POPC   NC3 5171  44.704  29.971   9.453
 5141POPC   PO4 5172  44.709  29.899   9.153
 5141POPC   GL1 5173  44.699  29.894   8.853
 5141POPC   GL2 5174  44.763  29.891   8.853
 5141POPC   C1A 5175  44.702  29.955   8.553
 5141POPC   D2A 5176  44.663  29.935   8.253
 5141POPC   C3A 5177  44.706  29.953   7.953
 5141POPC   C4A 5178  44.619  29.871   7.653
 5141POPC   C1B 5179  44.901  29.850   8.553
 5141POPC   C2B 5180  44.848  29.799   8.253
 5141POPC   C3B 5181  44.865  29.809   7.953
 5141POPC   C4B 5182  44.943  29.791   7.653
 5142POPC   NC3 5183   5.822   0.398   9.453
 5142POPC   PO4 5184   5.853   0.467   9.153
 5142POPC   GL1 5185   5.868   0.419   8.853
 5142POPC   GL2 5186   5.809   0.572   8.853
 5142POPC   C1A 5187   5.912   0.400   8.553
 5142POPC   D2A 5188   5.852   0.406   8.253
 5142POPC   C3A 5189   5.881   0.441   7.953
 5142POPC   C4A 5190   5.916   0.389   7.653
 5142POPC   C1B 5191   5.850   0.704   8.553
 5142POPC   C2B 5192   5.849   0.724   8.253
 5142POPC   C3B 5193   5.828   0.730   7.953
 5142POPC   C4B 5194   5.827   0.637   7.653
 5143POPC   NC3 5195  39.219   0.413   9.453
 5143POPC   PO4 5196  39.220   0.448   9.153
 5143POPC   GL1 5197  39.266   0.459   8.853
 5143POPC   GL2 5198  39.279   0.363   8.853
 5143POPC   C1A 5199  39.269   0.393   8.553
 5143POPC   D2A 5200  39.208   0.451   8.253
 5143POPC   C3A 5201  39.209   0.469   7.953
 5143POPC   C4A 5202  39.198   0.466   7.653
 5143POPC   C1B 5203  39.407   0.221   8.553
 5143POPC   C2B 5204  39.363   0.201   8.253
 5143POPC   C3B 5205  39.405   0.207   7.953
 5143POPC   C4B 5206  39.421   0.259   7.653
 5144POPC   NC3 5207  29.125   1.994   9.453
 5144POPC   PO4 5208  29.107   2.016   9.153
 5144POPC   GL1 5209  29.147   2.039   8.853
 5144POPC   GL2 5210  29.195   2.084   8.853
 5144POPC   C1A 5211  29.162   1.998   8.553
 5144POPC   D2A 5212  29.167   1.964   8.253
 5144POPC   C3A 5213  29.130   1.978   7.953
 5144POPC   C4A 5214  29.100   1.940   7.653
 5144POPC   C1B 5215  29.295   2.132   8.553
 5144POPC   C2B 5216  29.286   2.164   8.253
 5144POPC   C3B 5217  29.294   2.157   7.953
 5144POPC   C4B 5218  29.319   2.139   7.653
 5145POPC   NC3 5219  11.259  20.636   9.453
 5145POPC   PO4 5220  11.277  20.628   9.153
 5145POPC   GL1 5221  11.271  20.568   8.853
 5145POPC   GL2 5222  11.366  20.696   8.853
 5145POPC   C1A 5223  11.252  20.660   8.553
 5145POPC   D2A 5224  11.304  20.601   8.253
 5145POPC   C3A 5225  11.295  20.567   7.953
 5145POPC   C4A 5226  11.301  20.652   7.653
 5145POPC   C1B 5227  11.508  20.746   8.553
 5145POPC   C2B 5228  11.453  20.772   8.253
 5145POPC   C3B 5229  11.476  20.735   7.953
 5145POPC   C4B 5230  11.463  20.813   7.653
 5146POPC   NC3 5231   8.175  15.165   9.453
 5146POPC   PO4 5232   8.221  15.144   9.153
 5146POPC   GL1 5233   8.190  15.171   8.853
 5146POPC   GL2 5234   8.162  15.012   8.853
 5146POPC   C1A 5235   8.171  15.162   8.553
 5146POPC   D2A 5236   8.212  15.217   8.253
 5146POPC   C3A 5237   8.166  15.165   7.953
 5146POPC   C4A 5238   8.155  15.218   7.653
 5146POPC   C1B 5239   8.164  14.935   8.553
 5146POPC   C2B 5240   8.132  14.932   8.253
 5146POPC   C3B 5241   8.197  14.947   7.953
 5146POPC   C4B 5242   8.163  14.892   7.653
 5147POPC   NC3 5243   4.351   8.929   9.453
 5147POPC   PO4 5244   4.287   8.929   9.153
 5147POPC   GL1 5245   4.336   9.011   8.853
 5147POPC   GL2 5246   4.247   8.844   8.853
 5147POPC   C1A 5247   4.309   8.924   8.553
 5147POPC   D2A 5248   4.281   9.021   8.253
 5147POPC   C3A 5249   4.276   9.012   7.953
 5147POPC   C4A 5250   4.367   8.988   7.653
 5147POPC   C1B 5251   4.176   8.749   8.553
 5147POPC   C2B 5252   4.176   8.770   8.253
 5147POPC   C3B 5253   4.212   8.754   7.953
 5147POPC   C4B 5254   4.233   8.789   7.653
 5148POPC   NC3 5255   1.966  36.131   9.453
 5148POPC   PO4 5256   1.954  36.163   9.153
 5148POPC   GL1 5257   1.953  36.130   8.853
 5148POPC   GL2 5258   2.001  36.239   8.853
 5148POPC   C1A 5259   2.024  36.132   8.553
 5148POPC   D2A 5260   1.958  36.103   8.253
 5148POPC   C3A 5261   2.034  36.171   7.953
 5148POPC   C4A 5262   1.944  36.171   7.653
 5148POPC   C1B 5263   2.076  36.358   8.553
 5148POPC   C2B 5264   2.098  36.350   8.253
 5148POPC   C3B 5265   2.067  36.325   7.953
 5148POPC   C4B 5266   2.123  36.391   7.653
 5149POPC   NC3 5267  19.854  26.059   9.453
 5149POPC   PO4 5268  19.819  26.004   9.153
 5149POPC   GL1 5269  19.798  26.086   8.853
 5149POPC   GL2 5270  19.865  25.911   8.853
 5149POPC   C1A 5271  19.787  26.029   8.553
 5149POPC   D2A 5272  19.802  26.090   8.253
 5149POPC   C3A 5273  19.789  26.038   7.953
 5149POPC   C4A 5274  19.813  26.070   7.653
 5149POPC   C1B 5275  19.982  25.785   8.553
 5149POPC   C2B 5276  19.973  25.861   8.253
 5149POPC   C3B 5277  19.950  25.781   7.953
 5149POPC   C4B 5278  19.909  25.801   7.653
 5150POPC   NC3 5279   3.497   1.250   9.453
 5150POPC   PO4 5280   3.529   1.192   9.153
 5150POPC   GL1 5281   3.562   1.189   8.853
 5150POPC   GL2 5282   3.655   1.246   8.853
 5150POPC   C1A 5283   3.565   1.181   8.553
 5150POPC   D2A 5284   3.548   1.180   8.253
 5150POPC   C3A 5285   3.548   1.225   7.953
 5150POPC   C4A 5286   3.591   1.263   7.653
 5150POPC   C1B 5287   3.826   1.252   8.553
 5150POPC   C2B 5288   3.827   1.264   8.253
 5150POPC   C3B 5289   3.825   1.344   7.953
 5150POPC   C4B 5290   3.817   1.282   7.653
 5151POPC   NC3 5291   8.235  30.689   9.453
 5151POPC   PO4 5292   8.157  30.691   9.153
 5151POPC   GL1 5293   8.205  30.712   8.853
 5151POPC   GL2 5294   8.077  30.657   8.853
 5151POPC   C1A 5295   8.165  30.732   8.553
 5151POPC   D2A 5296   8.188  30.728   8.253
 5151POPC   C3A 5297   8.177  30.659   7.953
 5151POPC   C4A 5298   8.153  30.684   7.653
 5151POPC   C1B 5299   7.925  30.623   8.553
 5151POPC   C2B 5300   7.903  30.643   8.253
 5151POPC   C3B 5301   7.909  30.663   7.953
 5151POPC   C4B 5302   7.913  30.686   7.653
 5152POPC   NC3 5303   6.647  23.723   9.453
 5152POPC   PO4 5304   6.652  23.688   9.153
 5152POPC   GL1 5305   6.679  23.687   8.853
 5152POPC   GL2 5306   6.763  23.731   8.853
 5152POPC   C1A 5307   6.661  23.738   8.553
 5152POPC   D2A 5308   6.686  23.747   8.253
 5152POPC   C3A 5309   6.598  23.714   7.953
 5152POPC   C4A 5310   6.598  23.676   7.653
 5152POPC   C1B 5311   6.866  23.721   8.553
 5152POPC   C2B 5312   6.911  23.736   8.253
 5152POPC   C3B 5313   6.866  23.693   7.953
 5152POPC   C4B 5314   6.907  23.669   7.653
 5153POPC   NC3 5315  18.321  40.038   9.453
 5153POPC   PO4 5316  18.250  40.028   9.153
 5153POPC   GL1 5317  18.284  39.961   8.853
 5153POPC   GL2 5318  18.417  39.937   8.853
 5153POPC   C1A 5319  18.286  39.979   8.553
 5153POPC   D2A 5320  18.268  40.005   8.253
 5153POPC   C3A 5321  18.262  40.000   7.953
 5153POPC   C4A 5322  18.256  39.964   7.653
 5153POPC   C1B 5323  18.560  39.933   8.553
 5153POPC   C2B 5324  18.515  39.875   8.253
 5153POPC   C3B 5325  18.516  39.947   7.953
 5153POPC   C4B 5326  18.541  39.857   7.653
 5154POPC   NC3 5327  36.112   4.365   9.453
 5154POPC   PO4 5328  36.123   4.303   9.153
 5154POPC   GL1 5329  36.085   4.306   8.853
 5154POPC   GL2 5330  36.199   4.342   8.853
 5154POPC   C1A 5331  36.129   4.302   8.553
 5154POPC   D2A 5332  36.123   4.347   8.253
 5154POPC   C3A 5333  36.175   4.279   7.953
 5154POPC   C4A 5334  36.159   4.352   7.653
 5154POPC   C1B 5335  36.321   4.373   8.553
 5154POPC   C2B 5336  36.368   4.407   8.253
 5154POPC   C3B 5337  36.340   4.419   7.953
 5154POPC   C4B 5338  36.350   4.438   7.653
 5155POPC   NC3 5339  22.186  43.839   9.453
 5155POPC   PO4 5340  22.178  43.914   9.153
 5155POPC   GL1 5341  22.186  43.872   8.853
 5155POPC   GL2 5342  22.091  43.850   8.853
 5155POPC   C1A 5343  22.131  43.843   8.553
 5155POPC   D2A 5344  22.140  43.843   8.253
 5155POPC   C3A 5345  22.125  43.906   7.953
 5155POPC   C4A 5346  22.167  43.879   7.653
 5155POPC   C1B 5347  22.002  43.713   8.553
 5155POPC   C2B 5348  21.972  43.691   8.253
 5155POPC   C3B 5349  21.974  43.733   7.953
 5155POPC   C4B 5350  21.935  43.690   7.653
 5156POPC   NC3 5351   8.223  12.067   9.453
 5156POPC   PO4 5352   8.198  12.096   9.153
 5156POPC   GL1 5353   8.191  12.080   8.853
 5156POPC   GL2 5354   8.284  11.968   8.853
 5156POPC   C1A 5355   8.224  12.114   8.553
 5156POPC   D2A 5356   8.161  12.121   8.253
 5156POPC   C3A 5357   8.195  12.051   7.953
 5156POPC   C4A 5358   8.217  12.109   7.653
 5156POPC   C1B 5359   8.358  11.845   8.553
 5156POPC   C2B 5360   8.279  11.842   8.253
 5156POPC   C3B 5361   8.299  11.806   7.953
 5156POPC   C4B 5362   8.313  11.857   7.653
 5157POPC   NC3 5363  15.164  19.057   9.453
 5157POPC   PO4 5364  15.143  19.092   9.153
 5157POPC   GL1 5365  15.156  19.066   8.853
 5157POPC   GL2 5366  15.279  19.072   8.853
 5157POPC   C1A 5367  15.178  19.081   8.553
 5157POPC   D2A 5368  15.160  19.055   8.253
 5157POPC   C3A 5369  15.225  19.081   7.953
 5157POPC   C4A 5370  15.160  19.011   7.653
 5157POPC   C1B 5371  15.389  19.088   8.553
 5157POPC   C2B 5372  15.402  19.087   8.253
 5157POPC   C3B 5373  15.465  19.148   7.953
 5157POPC   C4B 5374  15.438  19.123   7.653
 5158POPC   NC3 5375  43.076  27.630   9.453
 5158POPC   PO4 5376  43.083  27.595   9.153
 5158POPC   GL1 5377  43.145  27.552   8.853
 5158POPC   GL2 5378  43.190  27.607   8.853
 5158POPC   C1A 5379  43.089  27.607   8.553
 5158POPC   D2A 5380  43.124  27.547   8.253
 5158POPC   C3A 5381  43.149  27.543   7.953
 5158POPC   C4A 5382  43.076  27.596   7.653
 5158POPC   C1B 5383  43.307  27.555   8.553
 5158POPC   C2B 5384  43.353  27.524   8.253
 5158POPC   C3B 5385  43.322  27.516   7.953
 5158POPC   C4B 5386  43.401  27.544   7.653
 5159POPC   NC3 5387  14.412  43.093   9.453
 5159POPC   PO4 5388  14.415  43.110   9.153
 5159POPC   GL1 5389  14.421  43.122   8.853
 5159POPC   GL2 5390  14.472  43.163   8.853
 5159POPC   C1A 5391  14.374  43.101   8.553
 5159POPC   D2A 5392  14.423  43.071   8.253
 5159POPC   C3A 5393  14.396  43.107   7.953
 5159POPC   C4A 5394  14.450  43.148   7.653
 5159POPC   C1B 5395  14.549  43.264   8.553
 5159POPC   C2B 5396  14.559  43.250   8.253
 5159POPC   C3B 5397  14.544  43.307   7.953
 5159POPC   C4B 5398  14.604  43.335   7.653
 5160POPC   NC3 5399  35.393  26.819   9.453
 5160POPC   PO4 5400  35.334  26.797   9.153
 5160POPC   GL1 5401  35.360  26.825   8.853
 5160POPC   GL2 5402  35.361  26.729   8.853
 5160POPC   C1A 5403  35.309  26.839   8.553
 5160POPC   D2A 5404  35.363  26.768   8.253
 5160POPC   C3A 5405  35.340  26.823   7.953
 5160POPC   C4A 5406  35.388  26.848   7.653
 5160POPC   C1B 5407  35.472  26.616   8.553
 5160POPC   C2B 5408  35.439  26.607   8.253
 5160POPC   C3B 5409  35.466  26.622   7.953
 5160POPC   C4B 5410  35.473  26.598   7.653
 5161POPC   NC3 5411  26.770  22.167   9.453
 5161POPC   PO4 5412  26.779  22.148   9.153
 5161POPC   GL1 5413  26.837  22.130   8.853
 5161POPC   GL2 5414  26.966  22.123   8.853
 5161POPC   C1A 5415  26.818  22.192   8.553
 5161POPC   D2A 5416  26.837  22.181   8.253
 5161POPC   C3A 5417  26.796  22.131   7.953
 5161POPC   C4A 5418  26.849  22.183   7.653
 5161POPC   C1B 5419  27.023  22.124   8.553
 5161POPC   C2B 5420  27.029  22.054   8.253
 5161POPC   C3B 5421  27.017  22.067   7.953
 5161POPC   C4B 5422  27.072  22.066   7.653
 5162POPC   NC3 5423  28.415  10.566   9.453
 5162POPC   PO4 5424  28.321  10.522   9.153
 5162POPC   GL1 5425  28.345  10.574   8.853
 5162POPC   GL2 5426  28.338  10.444   8.853
 5162POPC   C1A 5427  28.359  10.550   8.553
 5162POPC   D2A 5428  28.345  10.531   8.253
 5162POPC   C3A 5429  28.352  10.566   7.953
 5162POPC   C4A 5430  28.326  10.540   7.653
 5162POPC   C1B 5431  28.258  10.314   8.553
 5162POPC   C2B 5432  28.285  10.289   8.253
 5162POPC   C3B 5433  28.300  10.275   7.953
 5162POPC   C4B 5434  28.315  10.282   7.653
 5163POPC   NC3 5435  26.040   1.217   9.453
 5163POPC   PO4 5436  26.072   1.188   9.153
 5163POPC   GL1 5437  26.064   1.190   8.853
 5163POPC   GL2 5438  26.117   1.235   8.853
 5163POPC   C1A 5439  26.011   1.223   8.553
 5163POPC   D2A 5440  25.993   1.258   8.253
 5163POPC   C3A 5441  26.074   1.190   7.953
 5163POPC   C4A 5442  26.078   1.187   7.653
 5163POPC   C1B 5443  26.288   1.350   8.553
 5163POPC   C2B 5444  26.239   1.297   8.253
 5163POPC   C3B 5445  26.215   1.321   7.953
 5163POPC   C4B 5446  26.255   1.356   7.653
 5164POPC   NC3 5447   1.223  33.820   9.453
 5164POPC   PO4 5448   1.238  33.810   9.153
 5164POPC   GL1 5449   1.248  33.793   8.853
 5164POPC   GL2 5450   1.329  33.714   8.853
 5164POPC   C1A 5451   1.181  33.770   8.553
 5164POPC   D2A 5452   1.240  33.816   8.253
 5164POPC   C3A 5453   1.183  33.812   7.953
 5164POPC   C4A 5454   1.239  33.770   7.653
 5164POPC   C1B 5455   1.313  33.553   8.553
 5164POPC   C2B 5456   1.371  33.564   8.253
 5164POPC   C3B 5457   1.380  33.612   7.953
 5164POPC   C4B 5458   1.399  33.559   7.653
 5165POPC   NC3 5459  43.096  17.471   9.453
 5165POPC   PO4 5460  43.094  17.481   9.153
 5165POPC   GL1 5461  43.160  17.514   8.853
 5165POPC   GL2 5462  43.005  17.433   8.853
 5165POPC   C1A 5463  43.118  17.480   8.553
 5165POPC   D2A 5464  43.097  17.498   8.253
 5165POPC   C3A 5465  43.091  17.516   7.953
 5165POPC   C4A 5466  43.082  17.502   7.653
 5165POPC   C1B 5467  42.943  17.295   8.553
 5165POPC   C2B 5468  42.958  17.355   8.253
 5165POPC   C3B 5469  42.902  17.314   7.953
 5165POPC   C4B 5470  42.979  17.295   7.653
 5166POPC   NC3 5471   5.881  28.417   9.453
 5166POPC   PO4 5472   5.850  28.394   9.153
 5166POPC   GL1 5473   5.864  28.341   8.853
 5166POPC   GL2 5474   5.972  28.437   8.853
 5166POPC   C1A 5475   5.824  28.330   8.553
 5166POPC   D2A 5476   5.905  28.412   8.253
 5166POPC   C3A 5477   5.821  28.379   7.953
 5166POPC   C4A 5478   5.885  28.409   7.653
 5166POPC   C1B 5479   6.047  28.448   8.553
 5166POPC   C2B 5480   6.047  28.474   8.253
 5166POPC   C3B 5481   6.115  28.469   7.953
 5166POPC   C4B 5482   6.103  28.503   7.653
 5167POPC   NC3 5483  36.096  37.689   9.453
 5167POPC   PO4 5484  36.147  37.639   9.153
 5167POPC   GL1 5485  36.088  37.716   8.853
 5167POPC   GL2 5486  36.223  37.584   8.853
 5167POPC   C1A 5487  36.082  37.649   8.553
 5167POPC   D2A 5488  36.098  37.686   8.253
 5167POPC   C3A 5489  36.110  37.702   7.953
 5167POPC   C4A 5490  36.110  37.692   7.653
 5167POPC   C1B 5491  36.269  37.482   8.553
 5167POPC   C2B 5492  36.241  37.479   8.253
 5167POPC   C3B 5493  36.286  37.520   7.953
 5167POPC   C4B 5494  36.236  37.469   7.653
 5168POPC   NC3 5495  20.572  35.331   9.453
 5168POPC   PO4 5496  20.617  35.346   9.153
 5168POPC   GL1 5497  20.613  35.305   8.853
 5168POPC   GL2 5498  20.759  35.272   8.853
 5168POPC   C1A 5499  20.633  35.384   8.553
 5168POPC   D2A 5500  20.569  35.401   8.253
 5168POPC   C3A 5501  20.620  35.337   7.953
 5168POPC   C4A 5502  20.660  35.319   7.653
 5168POPC   C1B 5503  20.876  35.228   8.553
 5168POPC   C2B 5504  20.874  35.278   8.253
 5168POPC   C3B 5505  20.864  35.232   7.953
 5168POPC   C4B 5506  20.868  35.242   7.653
 5169POPC   NC3 5507  23.695  29.912   9.453
 5169POPC   PO4 5508  23.690  29.931   9.153
 5169POPC   GL1 5509  23.701  29.948   8.853
 5169POPC   GL2 5510  23.584  29.981   8.853
 5169POPC   C1A 5511  23.692  29.933   8.553
 5169POPC   D2A 5512  23.677  29.900   8.253
 5169POPC   C3A 5513  23.718  29.924   7.953
 5169POPC   C4A 5514  23.713  29.889   7.653
 5169POPC   C1B 5515  23.503  29.964   8.553
 5169POPC   C2B 5516  23.522  30.013   8.253
 5169POPC   C3B 5517  23.448  29.956   7.953
 5169POPC   C4B 5518  23.523  30.018   7.653
 5170POPC   NC3 5519  20.604  22.980   9.453
 5170POPC   PO4 5520  20.637  22.953   9.153
 5170POPC   GL1 5521  20.622  22.919   8.853
 5170POPC   GL2 5522  20.536  22.860   8.853
 5170POPC   C1A 5523  20.576  22.905   8.553
 5170POPC   D2A 5524  20.593  22.892   8.253
 5170POPC   C3A 5525  20.619  22.906   7.953
 5170POPC   C4A 5526  20.604  22.894   7.653
 5170POPC   C1B 5527  20.486  22.718   8.553
 5170POPC   C2B 5528  20.484  22.707   8.253
 5170POPC   C3B 5529  20.457  22.690   7.953
 5170POPC   C4B 5530  20.522  22.734   7.653
 5171POPC   NC3 5531  39.211  12.093   9.453
 5171POPC   PO4 5532  39.212  12.063   9.153
 5171POPC   GL1 5533  39.201  12.066   8.853
 5171POPC   GL2 5534  39.114  12.167   8.853
 5171POPC   C1A 5535  39.247  12.101   8.553
 5171POPC   D2A 5536  39.188  12.073   8.253
 5171POPC   C3A 5537  39.215  12.069   7.953
 5171POPC   C4A 5538  39.188  12.089   7.653
 5171POPC   C1B 5539  38.952  12.125   8.553
 5171POPC   C2B 5540  38.957  12.201   8.253
 5171POPC   C3B 5541  39.025  12.195   7.953
 5171POPC   C4B 5542  39.028  12.122   7.653
 5172POPC   NC3 5543   8.962   3.522   9.453
 5172POPC   PO4 5544   9.012   3.497   9.153
 5172POPC   GL1 5545   9.001   3.574   8.853
 5172POPC   GL2 5546   9.057   3.517   8.853
 5172POPC   C1A 5547   8.992   3.537   8.553
 5172POPC   D2A 5548   8.996   3.514   8.253
 5172POPC   C3A 5549   9.015   3.514   7.953
 5172POPC   C4A 5550   9.022   3.544   7.653
 5172POPC   C1B 5551   9.165   3.505   8.553
 5172POPC   C2B 5552   9.200   3.493   8.253
 5172POPC   C3B 5553   9.253   3.496   7.953
 5172POPC   C4B 5554   9.172   3.466   7.653
 5173POPC   NC3 5555  30.695   5.091   9.453
 5173POPC   PO4 5556  30.647   5.100   9.153
 5173POPC   GL1 5557  30.742   5.103   8.853
 5173POPC   GL2 5558  30.551   5.065   8.853
 5173POPC   C1A 5559  30.695   5.103   8.553
 5173POPC   D2A 5560  30.686   5.057   8.253
 5173POPC   C3A 5561  30.680   5.113   7.953
 5173POPC   C4A 5562  30.726   5.050   7.653
 5173POPC   C1B 5563  30.427   5.017   8.553
 5173POPC   C2B 5564  30.493   5.042   8.253
 5173POPC   C3B 5565  30.462   5.033   7.953
 5173POPC   C4B 5566  30.475   5.056   7.653
 5174POPC   NC3 5567  36.144  28.372   9.453
 5174POPC   PO4 5568  36.146  28.404   9.153
 5174POPC   GL1 5569  36.149  28.363   8.853
 5174POPC   GL2 5570  36.123  28.227   8.853
 5174POPC   C1A 5571  36.107  28.392   8.553
 5174POPC   D2A 5572  36.171  28.414   8.253
 5174POPC   C3A 5573  36.119  28.359   7.953
 5174POPC   C4A 5574  36.143  28.413   7.653
 5174POPC   C1B 5575  36.057  28.132   8.553
 5174POPC   C2B 5576  35.978  28.117   8.253
 5174POPC   C3B 5577  36.070  28.146   7.953
 5174POPC   C4B 5578  36.060  28.116   7.653
 5175POPC   NC3 5579  36.130   1.170   9.453
 5175POPC   PO4 5580  36.157   1.240   9.153
 5175POPC   GL1 5581  36.119   1.198   8.853
 5175POPC   GL2 5582  35.984   1.160   8.853
 5175POPC   C1A 5583  36.171   1.202   8.553
 5175POPC   D2A 5584  36.121   1.222   8.253
 5175POPC   C3A 5585  36.172   1.202   7.953
 5175POPC   C4A 5586  36.109   1.208   7.653
 5175POPC   C1B 5587  35.923   1.195   8.553
 5175POPC   C2B 5588  35.863   1.201   8.253
 5175POPC   C3B 5589  35.843   1.148   7.953
 5175POPC   C4B 5590  35.920   1.148   7.653
 5176POPC   NC3 5591  17.476   7.455   9.453
 5176POPC   PO4 5592  17.501   7.455   9.153
 5176POPC   GL1 5593  17.539   7.428   8.853
 5176POPC   GL2 5594  17.422   7.505   8.853
 5176POPC   C1A 5595  17.511   7.459   8.553
 5176POPC   D2A 5596  17.465   7.465   8.253
 5176POPC   C3A 5597  17.466   7.409   7.953
 5176POPC   C4A 5598  17.502   7.444   7.653
 5176POPC   C1B 5599  17.244   7.519   8.553
 5176POPC   C2B 5600  17.223   7.470   8.253
 5176POPC   C3B 5601  17.299   7.489   7.953
 5176POPC   C4B 5602  17.320   7.550   7.653
 5177POPC   NC3 5603  36.148  26.822   9.453
 5177POPC   PO4 5604  36.082  26.794   9.153
 5177POPC   GL1 5605  36.163  26.835   8.853
 5177POPC   GL2 5606  36.030  26.805   8.853
 5177POPC   C1A 5607  36.128  26.819   8.553
 5177POPC   D2A 5608  36.160  26.786   8.253
 5177POPC   C3A 5609  36.105  26.842   7.953
 5177POPC   C4A 5610  36.080  26.814   7.653
 5177POPC   C1B 5611  35.914  26.829   8.553
 5177POPC   C2B 5612  35.929  26.785   8.253
 5177POPC   C3B 5613  35.843  26.738   7.953
 5177POPC   C4B 5614  35.899  26.799   7.653
 5178POPC   NC3 5615  15.963   1.966   9.453
 5178POPC   PO4 5616  15.943   1.964   9.153
 5178POPC   GL1 5617  15.907   1.966   8.853
 5178POPC   GL2 5618  15.894   2.140   8.853
 5178POPC   C1A 5619  15.935   2.028   8.553
 5178POPC   D2A 5620  15.987   2.035   8.253
 5178POPC   C3A 5621  15.976   1.961   7.953
 5178POPC   C4A 5622  15.907   1.965   7.653
 5178POPC   C1B 5623  15.926   2.278   8.553
 5178POPC   C2B 5624  15.968   2.194   8.253
 5178POPC   C3B 5625  15.933   2.192   7.953
 5178POPC   C4B 5626  15.976   2.204   7.653
 5179POPC   NC3 5627  13.668  21.400   9.453
 5179POPC   PO4 5628  13.604  21.409   9.153
 5179POPC   GL1 5629  13.588  21.359   8.853
 5179POPC   GL2 5630  13.648  21.501   8.853
 5179POPC   C1A 5631  13.637  21.375   8.553
 5179POPC   D2A 5632  13.600  21.337   8.253
 5179POPC   C3A 5633  13.645  21.403   7.953
 5179POPC   C4A 5634  13.592  21.354   7.653
 5179POPC   C1B 5635  13.667  21.664   8.553
 5179POPC   C2B 5636  13.608  21.667   8.253
 5179POPC   C3B 5637  13.638  21.599   7.953
 5179POPC   C4B 5638  13.610  21.676   7.653
 5180POPC   NC3 5639  32.204  33.826   9.453
 5180POPC   PO4 5640  32.260  33.819   9.153
 5180POPC   GL1 5641  32.271  33.768   8.853
 5180POPC   GL2 5642  32.372  33.782   8.853
 5180POPC   C1A 5643  32.246  33.756   8.553
 5180POPC   D2A 5644  32.260  33.806   8.253
 5180POPC   C3A 5645  32.249  33.804   7.953
 5180POPC   C4A 5646  32.207  33.826   7.653
 5180POPC   C1B 5647  32.500  33.792   8.553
 5180POPC   C2B 5648  32.475  33.830   8.253
 5180POPC   C3B 5649  32.502  33.823   7.953
 5180POPC   C4B 5650  32.523  33.777   7.653
 5181POPC   NC3 5651   5.852  25.250   9.453
 5181POPC   PO4 5652   5.869  25.287   9.153
 5181POPC   GL1 5653   5.864  25.239   8.853
 5181POPC   GL2 5654   5.755  25.167   8.853
 5181POPC   C1A 5655   5.823  25.246   8.553
 5181POPC   D2A 5656   5.896  25.277   8.253
 5181POPC   C3A 5657   5.856  25.290   7.953
 5181POPC   C4A 5658   5.861  25.234   7.653
 5181POPC   C1B 5659   5.672  25.104   8.553
 5181POPC   C2B 5660   5.666  25.111   8.253
 5181POPC   C3B 5661   5.670  25.110   7.953
 5181POPC   C4B 5662   5.650  25.121   7.653
 5182POPC   NC3 5663  19.850  32.258   9.453
 5182POPC   PO4 5664  19.814  32.230   9.153
 5182POPC   GL1 5665  19.799  32.232   8.853
 5182POPC   GL2 5666  19.841  32.334   8.853
 5182POPC   C1A 5667  19.853  32.251   8.553
 5182POPC   D2A 5668  19.844  32.253   8.253
 5182POPC   C3A 5669  19.823  32.211   7.953
 5182POPC   C4A 5670  19.838  32.217   7.653
 5182POPC   C1B 5671  19.761  32.470   8.553
 5182POPC   C2B 5672  19.784  32.455   8.253
 5182POPC   C3B 5673  19.809  32.521   7.953
 5182POPC   C4B 5674  19.846  32.452   7.653
 5183POPC   NC3 5675   1.189  16.694   9.453
 5183POPC   PO4 5676   1.176  16.745   9.153
 5183POPC   GL1 5677   1.257  16.721   8.853
 5183POPC   GL2 5678   1.335  16.740   8.853
 5183POPC   C1A 5679   1.173  16.682   8.553
 5183POPC   D2A 5680   1.231  16.715   8.253
 5183POPC   C3A 5681   1.216  16.753   7.953
 5183POPC   C4A 5682   1.168  16.771   7.653
 5183POPC   C1B 5683   1.500  16.729   8.553
 5183POPC   C2B 5684   1.432  16.661   8.253
 5183POPC   C3B 5685   1.433  16.650   7.953
 5183POPC   C4B 5686   1.505  16.672   7.653
 5184POPC   NC3 5687  39.210  22.902   9.453
 5184POPC   PO4 5688  39.239  22.982   9.153
 5184POPC   GL1 5689  39.212  22.938   8.853
 5184POPC   GL2 5690  39.358  22.942   8.853
 5184POPC   C1A 5691  39.277  22.903   8.553
 5184POPC   D2A 5692  39.224  22.890   8.253
 5184POPC   C3A 5693  39.274  22.937   7.953
 5184POPC   C4A 5694  39.279  22.965   7.653
 5184POPC   C1B 5695  39.438  22.969   8.553
 5184POPC   C2B 5696  39.490  22.891   8.253
 5184POPC   C3B 5697  39.501  22.885   7.953
 5184POPC   C4B 5698  39.515  22.971   7.653
 5185POPC   NC3 5699  24.482   6.683   9.453
 5185POPC   PO4 5700  24.477   6.634   9.153
 5185POPC   GL1 5701  24.482   6.596   8.853
 5185POPC   GL2 5702  24.332   6.719   8.853
 5185POPC   C1A 5703  24.474   6.602   8.553
 5185POPC   D2A 5704  24.444   6.693   8.253
 5185POPC   C3A 5705  24.448   6.602   7.953
 5185POPC   C4A 5706  24.489   6.675   7.653
 5185POPC   C1B 5707  24.269   6.680   8.553
 5185POPC   C2B 5708  24.303   6.704   8.253
 5185POPC   C3B 5709  24.250   6.760   7.953
 5185POPC   C4B 5710  24.209   6.768   7.653
 5186POPC   NC3 5711  22.121  16.772   9.453
 5186POPC   PO4 5712  22.149  16.706   9.153
 5186POPC   GL1 5713  22.172  16.751   8.853
 5186POPC   GL2 5714  22.244  16.760   8.853
 5186POPC   C1A 5715  22.135  16.738   8.553
 5186POPC   D2A 5716  22.164  16.763   8.253
 5186POPC   C3A 5717  22.189  16.725   7.953
 5186POPC   C4A 5718  22.132  16.772   7.653
 5186POPC   C1B 5719  22.459  16.684   8.553
 5186POPC   C2B 5720  22.446  16.733   8.253
 5186POPC   C3B 5721  22.397  16.746   7.953
 5186POPC   C4B 5722  22.445  16.741   7.653
 5187POPC   NC3 5723  40.736  38.408   9.453
 5187POPC   PO4 5724  40.760  38.490   9.153
 5187POPC   GL1 5725  40.831  38.444   8.853
 5187POPC   GL2 5726  40.716  38.312   8.853
 5187POPC   C1A 5727  40.765  38.483   8.553
 5187POPC   D2A 5728  40.768  38.470   8.253
 5187POPC   C3A 5729  40.764  38.427   7.953
 5187POPC   C4A 5730  40.812  38.421   7.653
 5187POPC   C1B 5731  40.771  38.174   8.553
 5187POPC   C2B 5732  40.703  38.188   8.253
 5187POPC   C3B 5733  40.682  38.207   7.953
 5187POPC   C4B 5734  40.755  38.189   7.653
 5188POPC   NC3 5735   6.631   3.492   9.453
 5188POPC   PO4 5736   6.602   3.499   9.153
 5188POPC   GL1 5737   6.611   3.519   8.853
 5188POPC   GL2 5738   6.581   3.493   8.853
 5188POPC   C1A 5739   6.650   3.515   8.553
 5188POPC   D2A 5740   6.637   3.507   8.253
 5188POPC   C3A 5741   6.597   3.505   7.953
 5188POPC   C4A 5742   6.599   3.493   7.653
 5188POPC   C1B 5743   6.389   3.449   8.553
 5188POPC   C2B 5744   6.432   3.448   8.253
 5188POPC   C3B 5745   6.481   3.457   7.953
 5188POPC   C4B 5746   6.471   3.387   7.653
 5189POPC   NC3 5747  38.432  22.967   9.453
 5189POPC   PO4 5748  38.459  22.939   9.153
 5189POPC   GL1 5749  38.454  22.959   8.853
 5189POPC   GL2 5750  38.595  22.936   8.853
 5189POPC   C1A 5751  38.426  22.925   8.553
 5189POPC   D2A 5752  38.460  22.927   8.253
 5189POPC   C3A 5753  38.469  22.965   7.953
 5189POPC   C4A 5754  38.463  22.904   7.653
 5189POPC   C1B 5755  38.672  22.909   8.553
 5189POPC   C2B 5756  38.744  22.909   8.253
 5189POPC   C3B 5757  38.738  22.896   7.953
 5189POPC   C4B 5758  38.696  22.901   7.653
 5190POPC   NC3 5759  10.524  38.498   9.453
 5190POPC   PO4 5760  10.522  38.466   9.153
 5190POPC   GL1 5761  10.538  38.450   8.853
 5190POPC   GL2 5762  10.613  38.536   8.853
 5190POPC   C1A 5763  10.534  38.502   8.553
 5190POPC   D2A 5764  10.551  38.432   8.253
 5190POPC   C3A 5765  10.556  38.494   7.953
 5190POPC   C4A 5766  10.504  38.484   7.653
 5190POPC   C1B 5767  10.709  38.589   8.553
 5190POPC   C2B 5768  10.705  38.605   8.253
 5190POPC   C3B 5769  10.681  38.673   7.953
 5190POPC   C4B 5770  10.733  38.643   7.653
 5191POPC   NC3 5771  29.110   1.205   9.453
 5191POPC   PO4 5772  29.153   1.235   9.153
 5191POPC   GL1 5773  29.113   1.217   8.853
 5191POPC   GL2 5774  29.039   1.114   8.853
 5191POPC   C1A 5775  29.193   1.164   8.553
 5191POPC   D2A 5776  29.132   1.188   8.253
 5191POPC   C3A 5777  29.125   1.256   7.953
 5191POPC   C4A 5778  29.097   1.253   7.653
 5191POPC   C1B 5779  28.996   1.026   8.553
 5191POPC   C2B 5780  28.964   1.048   8.253
 5191POPC   C3B 5781  28.991   0.998   7.953
 5191POPC   C4B 5782  29.022   1.058   7.653
 5192POPC   NC3 5783   9.787  25.217   9.453
 5192POPC   PO4 5784   9.735  25.248   9.153
 5192POPC   GL1 5785   9.741  25.299   8.853
 5192POPC   GL2 5786   9.783  25.133   8.853
 5192POPC   C1A 5787   9.775  25.308   8.553
 5192POPC   D2A 5788   9.735  25.226   8.253
 5192POPC   C3A 5789   9.796  25.293   7.953
 5192POPC   C4A 5790   9.739  25.278   7.653
 5192POPC   C1B 5791   9.681  25.035   8.553
 5192POPC   C2B 5792   9.746  24.975   8.253
 5192POPC   C3B 5793   9.733  25.044   7.953
 5192POPC   C4B 5794   9.697  25.017   7.653
 5193POPC   NC3 5795  39.200  26.016   9.453
 5193POPC   PO4 5796  39.251  26.015   9.153
 5193POPC   GL1 5797  39.273  26.033   8.853
 5193POPC   GL2 5798  39.291  26.170   8.853
 5193POPC   C1A 5799  39.262  26.018   8.553
 5193POPC   D2A 5800  39.277  26.086   8.253
 5193POPC   C3A 5801  39.230  26.061   7.953
 5193POPC   C4A 5802  39.209  26.055   7.653
 5193POPC   C1B 5803  39.401  26.270   8.553
 5193POPC   C2B 5804  39.412  26.266   8.253
 5193POPC   C3B 5805  39.428  26.235   7.953
 5193POPC   C4B 5806  39.365  26.219   7.653
 5194POPC   NC3 5807  11.304  27.569   9.453
 5194POPC   PO4 5808  11.296  27.594   9.153
 5194POPC   GL1 5809  11.340  27.560   8.853
 5194POPC   GL2 5810  11.175  27.651   8.853
 5194POPC   C1A 5811  11.253  27.584   8.553
 5194POPC   D2A 5812  11.325  27.550   8.253
 5194POPC   C3A 5813  11.283  27.557   7.953
 5194POPC   C4A 5814  11.305  27.636   7.653
 5194POPC   C1B 5815  11.136  27.801   8.553
 5194POPC   C2B 5816  11.122  27.783   8.253
 5194POPC   C3B 5817  11.115  27.736   7.953
 5194POPC   C4B 5818  11.105  27.780   7.653
 5195POPC   NC3 5819  15.227  23.741   9.453
 5195POPC   PO4 5820  15.175  23.729   9.153
 5195POPC   GL1 5821  15.199  23.739   8.853
 5195POPC   GL2 5822  15.088  23.580   8.853
 5195POPC   C1A 5823  15.193  23.724   8.553
 5195POPC   D2A 5824  15.149  23.733   8.253
 5195POPC   C3A 5825  15.160  23.669   7.953
 5195POPC   C4A 5826  15.138  23.710   7.653
 5195POPC   C1B 5827  14.990  23.495   8.553
 5195POPC   C2B 5828  14.975  23.536   8.253
 5195POPC   C3B 5829  14.988  23.507   7.953
 5195POPC   C4B 5830  15.046  23.496   7.653
 5196POPC   NC3 5831  15.223  24.526   9.453
 5196POPC   PO4 5832  15.171  24.517   9.153
 5196POPC   GL1 5833  15.156  24.446   8.853
 5196POPC   GL2 5834  15.228  24.577   8.853
 5196POPC   C1A 5835  15.131  24.506   8.553
 5196POPC   D2A 5836  15.170  24.538   8.253
 5196POPC   C3A 5837  15.188  24.473   7.953
 5196POPC   C4A 5838  15.214  24.455   7.653
 5196POPC   C1B 5839  15.186  24.736   8.553
 5196POPC   C2B 5840  15.270  24.684   8.253
 5196POPC   C3B 5841  15.261  24.700   7.953
 5196POPC   C4B 5842  15.259  24.765   7.653
 5197POPC   NC3 5843  24.486  33.808   9.453
 5197POPC   PO4 5844  24.521  33.815   9.153
 5197POPC   GL1 5845  24.499  33.849   8.853
 5197POPC   GL2 5846  24.625  33.670   8.853
 5197POPC   C1A 5847  24.459  33.775   8.553
 5197POPC   D2A 5848  24.450  33.773   8.253
 5197POPC   C3A 5849  24.524  33.807   7.953
 5197POPC   C4A 5850  24.469  33.758   7.653
 5197POPC   C1B 5851  24.716  33.640   8.553
 5197POPC   C2B 5852  24.706  33.670   8.253
 5197POPC   C3B 5853  24.671  33.647   7.953
 5197POPC   C4B 5854  24.668  33.594   7.653
 5198POPC   NC3 5855  14.408  13.610   9.453
 5198POPC   PO4 5856  14.358  13.609   9.153
 5198POPC   GL1 5857  14.379  13.612   8.853
 5198POPC   GL2 5858  14.320  13.514   8.853
 5198POPC   C1A 5859  14.356  13.668   8.553
 5198POPC   D2A 5860  14.377  13.587   8.253
 5198POPC   C3A 5861  14.354  13.584   7.953
 5198POPC   C4A 5862  14.415  13.617   7.653
 5198POPC   C1B 5863  14.286  13.405   8.553
 5198POPC   C2B 5864  14.201  13.403   8.253
 5198POPC   C3B 5865  14.241  13.433   7.953
 5198POPC   C4B 5866  14.227  13.490   7.653
 5199POPC   NC3 5867  44.648  26.826   9.453
 5199POPC   PO4 5868  44.661  26.858   9.153
 5199POPC   GL1 5869  44.707  26.806   8.853
 5199POPC   GL2 5870  44.677  26.732   8.853
 5199POPC   C1A 5871  44.671  26.797   8.553
 5199POPC   D2A 5872  44.638  26.805   8.253
 5199POPC   C3A 5873  44.694  26.812   7.953
 5199POPC   C4A 5874  44.645  26.796   7.653
 5199POPC   C1B 5875  44.646  26.574   8.553
 5199POPC   C2B 5876  44.679  26.573   8.253
 5199POPC   C3B 5877  44.628  26.540   7.953
 5199POPC   C4B 5878  44.633  26.521   7.653
 5200POPC   NC3 5879   6.609  22.939   9.453
 5200POPC   PO4 5880   6.635  22.974   9.153
 5200POPC   GL1 5881   6.666  22.909   8.853
 5200POPC   GL2 5882   6.509  23.042   8.853
 5200POPC   C1A 5883   6.623  22.961   8.553
 5200POPC   D2A 5884   6.620  22.889   8.253
 5200POPC   C3A 5885   6.666  22.898   7.953
 5200POPC   C4A 5886   6.647  22.974   7.653
 5200POPC   C1B 5887   6.475  23.099   8.553
 5200POPC   C2B 5888   6.413  23.058   8.253
 5200POPC   C3B 5889   6.458  23.099   7.953
 5200POPC   C4B 5890   6.483  23.107   7.653
 5201POPC   NC3 5891   1.197  21.355   9.453
 5201POPC   PO4 5892   1.204  21.432   9.153
 5201POPC   GL1 5893   1.173  21.410   8.853
 5201POPC   GL2 5894   1.169  21.247   8.853
 5201POPC   C1A 5895   1.210  21.379   8.553
 5201POPC   D2A 5896   1.224  21.433   8.253
 5201POPC   C3A 5897   1.188  21.348   7.953
 5201POPC   C4A 5898   1.259  21.361   7.653
 5201POPC   C1B 5899   1.108  21.163   8.553
 5201POPC   C2B 5900   1.076  21.177   8.253
 5201POPC   C3B 5901   1.041  21.194   7.953
 5201POPC   C4B 5902   1.051  21.126   7.653
 5202POPC   NC3 5903  31.513  32.213   9.453
 5202POPC   PO4 5904  31.521  32.224   9.153
 5202POPC   GL1 5905  31.495  32.297   8.853
 5202POPC   GL2 5906  31.613  32.358   8.853
 5202POPC   C1A 5907  31.517  32.262   8.553
 5202POPC   D2A 5908  31.464  32.210   8.253
 5202POPC   C3A 5909  31.475  32.267   7.953
 5202POPC   C4A 5910  31.483  32.246   7.653
 5202POPC   C1B 5911  31.682  32.376   8.553
 5202POPC   C2B 5912  31.670  32.389   8.253
 5202POPC   C3B 5913  31.705  32.415   7.953
 5202POPC   C4B 5914  31.718  32.429   7.653
 5203POPC   NC3 5915  15.209   5.900   9.453
 5203POPC   PO4 5916  15.167   5.828   9.153
 5203POPC   GL1 5917  15.165   5.914   8.853
 5203POPC   GL2 5918  15.079   5.752   8.853
 5203POPC   C1A 5919  15.134   5.909   8.553
 5203POPC   D2A 5920  15.147   5.864   8.253
 5203POPC   C3A 5921  15.184   5.823   7.953
 5203POPC   C4A 5922  15.188   5.878   7.653
 5203POPC   C1B 5923  15.075   5.629   8.553
 5203POPC   C2B 5924  15.103   5.614   8.253
 5203POPC   C3B 5925  15.036   5.608   7.953
 5203POPC   C4B 5926  15.094   5.607   7.653
 5204POPC   NC3 5927  30.699  25.279   9.453
 5204POPC   PO4 5928  30.661  25.219   9.153
 5204POPC   GL1 5929  30.729  25.230   8.853
 5204POPC   GL2 5930  30.613  25.285   8.853
 5204POPC   C1A 5931  30.678  25.279   8.553
 5204POPC   D2A 5932  30.654  25.299   8.253
 5204POPC   C3A 5933  30.653  25.310   7.953
 5204POPC   C4A 5934  30.694  25.237   7.653
 5204POPC   C1B 5935  30.417  25.317   8.553
 5204POPC   C2B 5936  30.469  25.306   8.253
 5204POPC   C3B 5937  30.445  25.384   7.953
 5204POPC   C4B 5938  30.488  25.344   7.653
 5205POPC   NC3 5939  40.745  29.112   9.453
 5205POPC   PO4 5940  40.773  29.184   9.153
 5205POPC   GL1 5941  40.766  29.167   8.853
 5205POPC   GL2 5942  40.817  29.280   8.853
 5205POPC   C1A 5943  40.767  29.102   8.553
 5205POPC   D2A 5944  40.793  29.194   8.253
 5205POPC   C3A 5945  40.763  29.167   7.953
 5205POPC   C4A 5946  40.818  29.171   7.653
 5205POPC   C1B 5947  40.830  29.364   8.553
 5205POPC   C2B 5948  40.786  29.443   8.253
 5205POPC   C3B 5949  40.799  29.393   7.953
 5205POPC   C4B 5950  40.765  29.415   7.653
 5206POPC   NC3 5951  29.165  33.006   9.453
 5206POPC   PO4 5952  29.139  33.057   9.153
 5206POPC   GL1 5953  29.125  33.042   8.853
 5206POPC   GL2 5954  29.163  32.855   8.853
 5206POPC   C1A 5955  29.171  32.989   8.553
 5206POPC   D2A 5956  29.177  33.046   8.253
 5206POPC   C3A 5957  29.138  33.005   7.953
 5206POPC   C4A 5958  29.148  32.991   7.653
 5206POPC   C1B 5959  29.200  32.742   8.553
 5206POPC   C2B 5960  29.133  32.778   8.253
 5206POPC   C3B 5961  29.224  32.756   7.953
 5206POPC   C4B 5962  29.145  32.771   7.653
 5207POPC   NC3 5963  20.621  31.471   9.453
 5207POPC   PO4 5964  20.656  31.452   9.153
 5207POPC   GL1 5965  20.644  31.452   8.853
 5207POPC   GL2 5966  20.632  31.549   8.853
 5207POPC   C1A 5967  20.622  31.494   8.553
 5207POPC   D2A 5968  20.608  31.459   8.253
 5207POPC   C3A 5969  20.631  31.443   7.953
 5207POPC   C4A 5970  20.651  31.503   7.653
 5207POPC   C1B 5971  20.648  31.679   8.553
 5207POPC   C2B 5972  20.624  31.751   8.253
 5207POPC   C3B 5973  20.657  31.760   7.953
 5207POPC   C4B 5974  20.648  31.728   7.653
 5208POPC   NC3 5975   5.886   9.011   9.453
 5208POPC   PO4 5976   5.896   8.923   9.153
 5208POPC   GL1 5977   5.866   9.003   8.853
 5208POPC   GL2 5978   5.899   9.058   8.853
 5208POPC   C1A 5979   5.889   8.931   8.553
 5208POPC   D2A 5980   5.826   8.947   8.253
 5208POPC   C3A 5981   5.919   8.958   7.953
 5208POPC   C4A 5982   5.890   8.969   7.653
 5208POPC   C1B 5983   5.853   9.195   8.553
 5208POPC   C2B 5984   5.892   9.211   8.253
 5208POPC   C3B 5985   5.849   9.185   7.953
 5208POPC   C4B 5986   5.900   9.228   7.653
 5209POPC   NC3 5987  23.761  12.092   9.453
 5209POPC   PO4 5988  23.667  12.091   9.153
 5209POPC   GL1 5989  23.727  12.098   8.853
 5209POPC   GL2 5990  23.702  12.225   8.853
 5209POPC   C1A 5991  23.679  12.051   8.553
 5209POPC   D2A 5992  23.741  12.032   8.253
 5209POPC   C3A 5993  23.693  12.103   7.953
 5209POPC   C4A 5994  23.689  12.116   7.653
 5209POPC   C1B 5995  23.753  12.336   8.553
 5209POPC   C2B 5996  23.760  12.296   8.253
 5209POPC   C3B 5997  23.787  12.277   7.953
 5209POPC   C4B 5998  23.783  12.353   7.653
 5210POPC   NC3 5999  23.755  36.863   9.453
 5210POPC   PO4 6000  23.759  36.938   9.153
 5210POPC   GL1 6001  23.728  36.884   8.853
 5210POPC   GL2 6002  23.812  36.850   8.853
 5210POPC   C1A 6003  23.735  36.866   8.553
 5210POPC   D2A 6004  23.761  36.871   8.253
 5210POPC   C3A 6005  23.741  36.945   7.953
 5210POPC   C4A 6006  23.704  36.892   7.653
 5210POPC   C1B 6007  23.920  36.758   8.553
 5210POPC   C2B 6008  23.919  36.713   8.253
 5210POPC   C3B 6009  23.871  36.715   7.953
 5210POPC   C4B 6010  23.863  36.761   7.653
 5211POPC   NC3 6011   1.222  40.028   9.453
 5211POPC   PO4 6012   1.167  40.036   9.153
 5211POPC   GL1 6013   1.201  40.005   8.853
 5211POPC   GL2 6014   1.249  40.098   8.853
 5211POPC   C1A 6015   1.182  40.037   8.553
 5211POPC   D2A 6016   1.239  39.999   8.253
 5211POPC   C3A 6017   1.196  40.001   7.953
 5211POPC   C4A 6018   1.186  40.021   7.653
 5211POPC   C1B 6019   1.329  40.194   8.553
 5211POPC   C2B 6020   1.378  40.226   8.253
 5211POPC   C3B 6021   1.411  40.222   7.953
 5211POPC   C4B 6022   1.427  40.154   7.653
 5212POPC   NC3 6023   1.211   5.074   9.453
 5212POPC   PO4 6024   1.188   5.121   9.153
 5212POPC   GL1 6025   1.183   5.131   8.853
 5212POPC   GL2 6026   1.051   5.141   8.853
 5212POPC   C1A 6027   1.177   5.108   8.553
 5212POPC   D2A 6028   1.258   5.052   8.253
 5212POPC   C3A 6029   1.226   5.059   7.953
 5212POPC   C4A 6030   1.239   5.090   7.653
 5212POPC   C1B 6031   1.022   5.168   8.553
 5212POPC   C2B 6032   1.017   5.138   8.253
 5212POPC   C3B 6033   0.965   5.198   7.953
 5212POPC   C4B 6034   0.969   5.177   7.653
 5213POPC   NC3 6035   9.751   2.780   9.453
 5213POPC   PO4 6036   9.712   2.725   9.153
 5213POPC   GL1 6037   9.739   2.756   8.853
 5213POPC   GL2 6038   9.593   2.797   8.853
 5213POPC   C1A 6039   9.713   2.732   8.553
 5213POPC   D2A 6040   9.762   2.744   8.253
 5213POPC   C3A 6041   9.793   2.788   7.953
 5213POPC   C4A 6042   9.743   2.744   7.653
 5213POPC   C1B 6043   9.491   2.835   8.553
 5213POPC   C2B 6044   9.535   2.843   8.253
 5213POPC   C3B 6045   9.528   2.867   7.953
 5213POPC   C4B 6046   9.492   2.843   7.653
 5214POPC   NC3 6047   9.765  33.797   9.453
 5214POPC   PO4 6048   9.744  33.786   9.153
 5214POPC   GL1 6049   9.724  33.796   8.853
 5214POPC   GL2 6050   9.789  33.888   8.853
 5214POPC   C1A 6051   9.793  33.797   8.553
 5214POPC   D2A 6052   9.728  33.795   8.253
 5214POPC   C3A 6053   9.714  33.820   7.953
 5214POPC   C4A 6054   9.732  33.829   7.653
 5214POPC   C1B 6055   9.831  34.042   8.553
 5214POPC   C2B 6056   9.903  33.973   8.253
 5214POPC   C3B 6057   9.826  34.012   7.953
 5214POPC   C4B 6058   9.838  34.058   7.653
 5215POPC   NC3 6059  22.968  11.335   9.453
 5215POPC   PO4 6060  22.913  11.253   9.153
 5215POPC   GL1 6061  22.957  11.281   8.853
 5215POPC   GL2 6062  23.054  11.289   8.853
 5215POPC   C1A 6063  22.947  11.284   8.553
 5215POPC   D2A 6064  22.958  11.313   8.253
 5215POPC   C3A 6065  22.932  11.319   7.953
 5215POPC   C4A 6066  22.980  11.284   7.653
 5215POPC   C1B 6067  23.137  11.387   8.553
 5215POPC   C2B 6068  23.170  11.334   8.253
 5215POPC   C3B 6069  23.136  11.387   7.953
 5215POPC   C4B 6070  23.182  11.324   7.653
 5216POPC   NC3 6071  36.894  43.894   9.453
 5216POPC   PO4 6072  36.883  43.850   9.153
 5216POPC   GL1 6073  36.925  43.910   8.853
 5216POPC   GL2 6074  36.924  44.033   8.853
 5216POPC   C1A 6075  36.922  43.910   8.553
 5216POPC   D2A 6076  36.903  43.849   8.253
 5216POPC   C3A 6077  36.944  43.864   7.953
 5216POPC   C4A 6078  36.941  43.934   7.653
 5216POPC   C1B 6079  36.952  44.170   8.553
 5216POPC   C2B 6080  36.962  44.088   8.253
 5216POPC   C3B 6081  36.945  44.113   7.953
 5216POPC   C4B 6082  36.894  44.169   7.653
 5217POPC   NC3 6083  11.325  40.783   9.453
 5217POPC   PO4 6084  11.290  40.752   9.153
 5217POPC   GL1 6085  11.346  40.802   8.853
 5217POPC   GL2 6086  11.407  40.835   8.853
 5217POPC   C1A 6087  11.258  40.758   8.553
 5217POPC   D2A 6088  11.309  40.810   8.253
 5217POPC   C3A 6089  11.317  40.823   7.953
 5217POPC   C4A 6090  11.338  40.795   7.653
 5217POPC   C1B 6091  11.556  40.790   8.553
 5217POPC   C2B 6092  11.598  40.754   8.253
 5217POPC   C3B 6093  11.592  40.819   7.953
 5217POPC   C4B 6094  11.586  40.771   7.653
 5218POPC   NC3 6095   5.908  30.729   9.453
 5218POPC   PO4 6096   5.868  30.693   9.153
 5218POPC   GL1 6097   5.898  30.690   8.853
 5218POPC   GL2 6098   6.026  30.790   8.853
 5218POPC   C1A 6099   5.863  30.663   8.553
 5218POPC   D2A 6100   5.834  30.680   8.253
 5218POPC   C3A 6101   5.823  30.730   7.953
 5218POPC   C4A 6102   5.906  30.678   7.653
 5218POPC   C1B 6103   6.125  30.805   8.553
 5218POPC   C2B 6104   6.060  30.820   8.253
 5218POPC   C3B 6105   6.054  30.838   7.953
 5218POPC   C4B 6106   6.145  30.832   7.653
 5219POPC   NC3 6107  25.259  15.199   9.453
 5219POPC   PO4 6108  25.236  15.147   9.153
 5219POPC   GL1 6109  25.273  15.224   8.853
 5219POPC   GL2 6110  25.322  15.267   8.853
 5219POPC   C1A 6111  25.309  15.164   8.553
 5219POPC   D2A 6112  25.305  15.144   8.253
 5219POPC   C3A 6113  25.247  15.146   7.953
 5219POPC   C4A 6114  25.298  15.211   7.653
 5219POPC   C1B 6115  25.455  15.377   8.553
 5219POPC   C2B 6116  25.438  15.398   8.253
 5219POPC   C3B 6117  25.385  15.345   7.953
 5219POPC   C4B 6118  25.398  15.340   7.653
 5220POPC   NC3 6119  39.262   5.867   9.453
 5220POPC   PO4 6120  39.273   5.864   9.153
 5220POPC   GL1 6121  39.214   5.908   8.853
 5220POPC   GL2 6122  39.288   5.975   8.853
 5220POPC   C1A 6123  39.250   5.912   8.553
 5220POPC   D2A 6124  39.276   5.895   8.253
 5220POPC   C3A 6125  39.230   5.884   7.953
 5220POPC   C4A 6126  39.213   5.850   7.653
 5220POPC   C1B 6127  39.302   6.124   8.553
 5220POPC   C2B 6128  39.294   6.076   8.253
 5220POPC   C3B 6129  39.264   6.113   7.953
 5220POPC   C4B 6130  39.315   6.126   7.653
 5221POPC   NC3 6131  15.976   6.694   9.453
 5221POPC   PO4 6132  15.962   6.678   9.153
 5221POPC   GL1 6133  15.945   6.633   8.853
 5221POPC   GL2 6134  15.820   6.595   8.853
 5221POPC   C1A 6135  15.974   6.637   8.553
 5221POPC   D2A 6136  15.916   6.630   8.253
 5221POPC   C3A 6137  15.918   6.649   7.953
 5221POPC   C4A 6138  15.917   6.617   7.653
 5221POPC   C1B 6139  15.708   6.575   8.553
 5221POPC   C2B 6140  15.725   6.542   8.253
 5221POPC   C3B 6141  15.747   6.540   7.953
 5221POPC   C4B 6142  15.727   6.612   7.653
 5222POPC   NC3 6143  37.666  22.975   9.453
 5222POPC   PO4 6144  37.665  22.959   9.153
 5222POPC   GL1 6145  37.721  22.900   8.853
 5222POPC   GL2 6146  37.835  22.916   8.853
 5222POPC   C1A 6147  37.698  22.954   8.553
 5222POPC   D2A 6148  37.706  22.984   8.253
 5222POPC   C3A 6149  37.692  22.919   7.953
 5222POPC   C4A 6150  37.651  22.935   7.653
 5222POPC   C1B 6151  37.881  22.867   8.553
 5222POPC   C2B 6152  37.948  22.850   8.253
 5222POPC   C3B 6153  37.863  22.870   7.953
 5222POPC   C4B 6154  37.899  22.820   7.653
 5223POPC   NC3 6155  38.452  17.470   9.453
 5223POPC   PO4 6156  38.489  17.507   9.153
 5223POPC   GL1 6157  38.413  17.509   8.853
 5223POPC   GL2 6158  38.511  17.414   8.853
 5223POPC   C1A 6159  38.414  17.487   8.553
 5223POPC   D2A 6160  38.421  17.478   8.253
 5223POPC   C3A 6161  38.465  17.510   7.953
 5223POPC   C4A 6162  38.450  17.505   7.653
 5223POPC   C1B 6163  38.556  17.335   8.553
 5223POPC   C2B 6164  38.565  17.262   8.253
 5223POPC   C3B 6165  38.585  17.274   7.953
 5223POPC   C4B 6166  38.568  17.319   7.653
 5224POPC   NC3 6167  38.422  12.876   9.453
 5224POPC   PO4 6168  38.421  12.901   9.153
 5224POPC   GL1 6169  38.470  12.897   8.853
 5224POPC   GL2 6170  38.347  12.764   8.853
 5224POPC   C1A 6171  38.410  12.869   8.553
 5224POPC   D2A 6172  38.449  12.882   8.253
 5224POPC   C3A 6173  38.482  12.811   7.953
 5224POPC   C4A 6174  38.429  12.815   7.653
 5224POPC   C1B 6175  38.250  12.719   8.553
 5224POPC   C2B 6176  38.260  12.720   8.253
 5224POPC   C3B 6177  38.183  12.785   7.953
 5224POPC   C4B 6178  38.260  12.736   7.653
 5225POPC   NC3 6179  33.785  15.909   9.453
 5225POPC   PO4 6180  33.782  15.978   9.153
 5225POPC   GL1 6181  33.845  15.912   8.853
 5225POPC   GL2 6182  33.662  15.941   8.853
 5225POPC   C1A 6183  33.762  15.926   8.553
 5225POPC   D2A 6184  33.751  15.919   8.253
 5225POPC   C3A 6185  33.804  15.996   7.953
 5225POPC   C4A 6186  33.835  15.984   7.653
 5225POPC   C1B 6187  33.619  15.851   8.553
 5225POPC   C2B 6188  33.617  15.827   8.253
 5225POPC   C3B 6189  33.569  15.821   7.953
 5225POPC   C4B 6190  33.581  15.804   7.653
 5226POPC   NC3 6191  30.659   8.147   9.453
 5226POPC   PO4 6192  30.677   8.182   9.153
 5226POPC   GL1 6193  30.666   8.187   8.853
 5226POPC   GL2 6194  30.824   8.225   8.853
 5226POPC   C1A 6195  30.742   8.208   8.553
 5226POPC   D2A 6196  30.669   8.199   8.253
 5226POPC   C3A 6197  30.743   8.234   7.953
 5226POPC   C4A 6198  30.710   8.148   7.653
 5226POPC   C1B 6199  30.940   8.250   8.553
 5226POPC   C2B 6200  30.891   8.242   8.253
 5226POPC   C3B 6201  30.901   8.334   7.953
 5226POPC   C4B 6202  30.958   8.235   7.653
 5227POPC   NC3 6203   3.563  21.430   9.453
 5227POPC   PO4 6204   3.523  21.347   9.153
 5227POPC   GL1 6205   3.548  21.434   8.853
 5227POPC   GL2 6206   3.424  21.435   8.853
 5227POPC   C1A 6207   3.504  21.435   8.553
 5227POPC   D2A 6208   3.547  21.422   8.253
 5227POPC   C3A 6209   3.501  21.368   7.953
 5227POPC   C4A 6210   3.587  21.396   7.653
 5227POPC   C1B 6211   3.274  21.380   8.553
 5227POPC   C2B 6212   3.263  21.378   8.253
 5227POPC   C3B 6213   3.312  21.368   7.953
 5227POPC   C4B 6214   3.265  21.370   7.653
 5228POPC   NC3 6215  14.369   1.995   9.453
 5228POPC   PO4 6216  14.356   2.019   9.153
 5228POPC   GL1 6217  14.355   1.968   8.853
 5228POPC   GL2 6218  14.331   2.112   8.853
 5228POPC   C1A 6219  14.450   1.953   8.553
 5228POPC   D2A 6220  14.368   1.980   8.253
 5228POPC   C3A 6221  14.396   1.952   7.953
 5228POPC   C4A 6222  14.354   1.981   7.653
 5228POPC   C1B 6223  14.279   2.169   8.553
 5228POPC   C2B 6224  14.275   2.198   8.253
 5228POPC   C3B 6225  14.235   2.221   7.953
 5228POPC   C4B 6226  14.250   2.255   7.653
 5229POPC   NC3 6227  28.338  12.124   9.453
 5229POPC   PO4 6228  28.343  12.117   9.153
 5229POPC   GL1 6229  28.325  12.113   8.853
 5229POPC   GL2 6230  28.469  12.186   8.853
 5229POPC   C1A 6231  28.345  12.061   8.553
 5229POPC   D2A 6232  28.349  12.063   8.253
 5229POPC   C3A 6233  28.411  12.064   7.953
 5229POPC   C4A 6234  28.360  12.037   7.653
 5229POPC   C1B 6235  28.463  12.348   8.553
 5229POPC   C2B 6236  28.486  12.289   8.253
 5229POPC   C3B 6237  28.522  12.345   7.953
 5229POPC   C4B 6238  28.487  12.301   7.653
 5230POPC   NC3 6239  26.835  35.327   9.453
 5230POPC   PO4 6240  26.821  35.355   9.153
 5230POPC   GL1 6241  26.789  35.367   8.853
 5230POPC   GL2 6242  26.922  35.376   8.853
 5230POPC   C1A 6243  26.848  35.367   8.553
 5230POPC   D2A 6244  26.809  35.339   8.253
 5230POPC   C3A 6245  26.791  35.324   7.953
 5230POPC   C4A 6246  26.862  35.313   7.653
 5230POPC   C1B 6247  27.058  35.508   8.553
 5230POPC   C2B 6248  27.026  35.520   8.253
 5230POPC   C3B 6249  27.040  35.467   7.953
 5230POPC   C4B 6250  27.021  35.452   7.653
 5231POPC   NC3 6251   6.671  37.686   9.453
 5231POPC   PO4 6252   6.657  37.640   9.153
 5231POPC   GL1 6253   6.677  37.643   8.853
 5231POPC   GL2 6254   6.594  37.813   8.853
 5231POPC   C1A 6255   6.652  37.657   8.553
 5231POPC   D2A 6256   6.631  37.646   8.253
 5231POPC   C3A 6257   6.654  37.680   7.953
 5231POPC   C4A 6258   6.688  37.635   7.653
 5231POPC   C1B 6259   6.492  37.852   8.553
 5231POPC   C2B 6260   6.501  37.855   8.253
 5231POPC   C3B 6261   6.482  37.867   7.953
 5231POPC   C4B 6262   6.456  37.875   7.653
 5232POPC   NC3 6263  13.637   2.790   9.453
 5232POPC   PO4 6264  13.616   2.796   9.153
 5232POPC   GL1 6265  13.643   2.731   8.853
 5232POPC   GL2 6266  13.723   2.758   8.853
 5232POPC   C1A 6267  13.660   2.733   8.553
 5232POPC   D2A 6268  13.581   2.784   8.253
 5232POPC   C3A 6269  13.665   2.723   7.953
 5232POPC   C4A 6270  13.622   2.768   7.653
 5232POPC   C1B 6271  13.828   2.749   8.553
 5232POPC   C2B 6272  13.874   2.780   8.253
 5232POPC   C3B 6273  13.904   2.751   7.953
 5232POPC   C4B 6274  13.852   2.766   7.653
 5233POPC   NC3 6275  15.191  21.368   9.453
 5233POPC   PO4 6276  15.145  21.360   9.153
 5233POPC   GL1 6277  15.228  21.407   8.853
 5233POPC   GL2 6278  15.055  21.352   8.853
 5233POPC   C1A 6279  15.221  21.397   8.553
 5233POPC   D2A 6280  15.175  21.359   8.253
 5233POPC   C3A 6281  15.197  21.353   7.953
 5233POPC   C4A 6282  15.223  21.341   7.653
 5233POPC   C1B 6283  14.905  21.395   8.553
 5233POPC   C2B 6284  14.925  21.400   8.253
 5233POPC   C3B 6285  14.954  21.374   7.953
 5233POPC   C4B 6286  14.907  21.375   7.653
 5234POPC   NC3 6287   4.291  42.339   9.453
 5234POPC   PO4 6288   4.305  42.378   9.153
 5234POPC   GL1 6289   4.297  42.347   8.853
 5234POPC   GL2 6290   4.275  42.185   8.853
 5234POPC   C1A 6291   4.317  42.349   8.553
 5234POPC   D2A 6292   4.296  42.329   8.253
 5234POPC   C3A 6293   4.283  42.380   7.953
 5234POPC   C4A 6294   4.287  42.373   7.653
 5234POPC   C1B 6295   4.178  42.088   8.553
 5234POPC   C2B 6296   4.230  42.111   8.253
 5234POPC   C3B 6297   4.146  42.105   7.953
 5234POPC   C4B 6298   4.226  42.108   7.653
 5235POPC   NC3 6299   7.375  37.660   9.453
 5235POPC   PO4 6300   7.394  37.661   9.153
 5235POPC   GL1 6301   7.394  37.655   8.853
 5235POPC   GL2 6302   7.542  37.793   8.853
 5235POPC   C1A 6303   7.389  37.644   8.553
 5235POPC   D2A 6304   7.446  37.638   8.253
 5235POPC   C3A 6305   7.439  37.664   7.953
 5235POPC   C4A 6306   7.462  37.659   7.653
 5235POPC   C1B 6307   7.586  37.836   8.553
 5235POPC   C2B 6308   7.536  37.880   8.253
 5235POPC   C3B 6309   7.554  37.824   7.953
 5235POPC   C4B 6310   7.579  37.851   7.653
 5236POPC   NC3 6311  36.150   0.415   9.453
 5236POPC   PO4 6312  36.120   0.482   9.153
 5236POPC   GL1 6313  36.087   0.461   8.853
 5236POPC   GL2 6314  36.182   0.348   8.853
 5236POPC   C1A 6315  36.081   0.424   8.553
 5236POPC   D2A 6316  36.156   0.450   8.253
 5236POPC   C3A 6317  36.100   0.420   7.953
 5236POPC   C4A 6318  36.092   0.416   7.653
 5236POPC   C1B 6319  36.226   0.248   8.553
 5236POPC   C2B 6320  36.288   0.256   8.253
 5236POPC   C3B 6321  36.298   0.204   7.953
 5236POPC   C4B 6322  36.267   0.179   7.653
 5237POPC   NC3 6323  23.745  15.146   9.453
 5237POPC   PO4 6324  23.761  15.164   9.153
 5237POPC   GL1 6325  23.754  15.214   8.853
 5237POPC   GL2 6326  23.566  15.224   8.853
 5237POPC   C1A 6327  23.732  15.163   8.553
 5237POPC   D2A 6328  23.703  15.166   8.253
 5237POPC   C3A 6329  23.675  15.219   7.953
 5237POPC   C4A 6330  23.680  15.135   7.653
 5237POPC   C1B 6331  23.552  15.323   8.553
 5237POPC   C2B 6332  23.556  15.283   8.253
 5237POPC   C3B 6333  23.500  15.333   7.953
 5237POPC   C4B 6334  23.493  15.286   7.653
 5238POPC   NC3 6335  10.478  37.667   9.453
 5238POPC   PO4 6336  10.562  37.643   9.153
 5238POPC   GL1 6337  10.492  37.682   8.853
 5238POPC   GL2 6338  10.576  37.565   8.853
 5238POPC   C1A 6339  10.479  37.643   8.553
 5238POPC   D2A 6340  10.513  37.703   8.253
 5238POPC   C3A 6341  10.527  37.667   7.953
 5238POPC   C4A 6342  10.493  37.699   7.653
 5238POPC   C1B 6343  10.684  37.431   8.553
 5238POPC   C2B 6344  10.703  37.512   8.253
 5238POPC   C3B 6345  10.648  37.455   7.953
 5238POPC   C4B 6346  10.621  37.460   7.653
 5239POPC   NC3 6347  43.933  27.629   9.453
 5239POPC   PO4 6348  43.934  27.564   9.153
 5239POPC   GL1 6349  43.897  27.553   8.853
 5239POPC   GL2 6350  43.806  27.575   8.853
 5239POPC   C1A 6351  43.857  27.628   8.553
 5239POPC   D2A 6352  43.906  27.622   8.253
 5239POPC   C3A 6353  43.928  27.574   7.953
 5239POPC   C4A 6354  43.859  27.594   7.653
 5239POPC   C1B 6355  43.662  27.512   8.553
 5239POPC   C2B 6356  43.631  27.533   8.253
 5239POPC   C3B 6357  43.657  27.505   7.953
 5239POPC   C4B 6358  43.611  27.487   7.653
 5240POPC   NC3 6359   1.251  17.479   9.453
 5240POPC   PO4 6360   1.199  17.552   9.153
 5240POPC   GL1 6361   1.251  17.527   8.853
 5240POPC   GL2 6362   1.117  17.392   8.853
 5240POPC   C1A 6363   1.228  17.545   8.553
 5240POPC   D2A 6364   1.260  17.551   8.253
 5240POPC   C3A 6365   1.196  17.543   7.953
 5240POPC   C4A 6366   1.251  17.499   7.653
 5240POPC   C1B 6367   1.017  17.377   8.553
 5240POPC   C2B 6368   1.066  17.308   8.253
 5240POPC   C3B 6369   1.002  17.382   7.953
 5240POPC   C4B 6370   0.990  17.382   7.653
 5241POPC   NC3 6371  32.294   0.399   9.453
 5241POPC   PO4 6372  32.279   0.473   9.153
 5241POPC   GL1 6373  32.214   0.426   8.853
 5241POPC   GL2 6374  32.256   0.309   8.853
 5241POPC   C1A 6375  32.280   0.402   8.553
 5241POPC   D2A 6376  32.280   0.421   8.253
 5241POPC   C3A 6377  32.205   0.440   7.953
 5241POPC   C4A 6378  32.222   0.405   7.653
 5241POPC   C1B 6379  32.216   0.149   8.553
 5241POPC   C2B 6380  32.146   0.185   8.253
 5241POPC   C3B 6381  32.138   0.243   7.953
 5241POPC   C4B 6382  32.165   0.183   7.653
 5242POPC   NC3 6383   4.307  12.810   9.453
 5242POPC   PO4 6384   4.312  12.849   9.153
 5242POPC   GL1 6385   4.304  12.862   8.853
 5242POPC   GL2 6386   4.157  12.811   8.853
 5242POPC   C1A 6387   4.345  12.835   8.553
 5242POPC   D2A 6388   4.325  12.881   8.253
 5242POPC   C3A 6389   4.272  12.814   7.953
 5242POPC   C4A 6390   4.311  12.802   7.653
 5242POPC   C1B 6391   4.063  12.802   8.553
 5242POPC   C2B 6392   4.111  12.798   8.253
 5242POPC   C3B 6393   4.029  12.816   7.953
 5242POPC   C4B 6394   4.039  12.819   7.653
 5243POPC   NC3 6395   1.223   1.256   9.453
 5243POPC   PO4 6396   1.242   1.246   9.153
 5243POPC   GL1 6397   1.238   1.173   8.853
 5243POPC   GL2 6398   1.063   1.306   8.853
 5243POPC   C1A 6399   1.213   1.230   8.553
 5243POPC   D2A 6400   1.258   1.168   8.253
 5243POPC   C3A 6401   1.258   1.253   7.953
 5243POPC   C4A 6402   1.177   1.170   7.653
 5243POPC   C1B 6403   1.013   1.379   8.553
 5243POPC   C2B 6404   1.042   1.354   8.253
 5243POPC   C3B 6405   1.012   1.335   7.953
 5243POPC   C4B 6406   0.991   1.335   7.653
 5244POPC   NC3 6407  15.976   5.138   9.453
 5244POPC   PO4 6408  15.931   5.124   9.153
 5244POPC   GL1 6409  15.968   5.068   8.853
 5244POPC   GL2 6410  16.025   5.211   8.853
 5244POPC   C1A 6411  15.966   5.085   8.553
 5244POPC   D2A 6412  15.926   5.045   8.253
 5244POPC   C3A 6413  15.952   5.066   7.953
 5244POPC   C4A 6414  15.964   5.063   7.653
 5244POPC   C1B 6415  16.065   5.271   8.553
 5244POPC   C2B 6416  16.054   5.344   8.253
 5244POPC   C3B 6417  16.100   5.302   7.953
 5244POPC   C4B 6418  16.094   5.302   7.653
 5245POPC   NC3 6419   9.791  28.380   9.453
 5245POPC   PO4 6420   9.722  28.370   9.153
 5245POPC   GL1 6421   9.793  28.328   8.853
 5245POPC   GL2 6422   9.677  28.339   8.853
 5245POPC   C1A 6423   9.744  28.400   8.553
 5245POPC   D2A 6424   9.729  28.381   8.253
 5245POPC   C3A 6425   9.735  28.371   7.953
 5245POPC   C4A 6426   9.770  28.324   7.653
 5245POPC   C1B 6427   9.535  28.289   8.553
 5245POPC   C2B 6428   9.506  28.254   8.253
 5245POPC   C3B 6429   9.535  28.303   7.953
 5245POPC   C4B 6430   9.473  28.249   7.653
 5246POPC   NC3 6431  21.414  35.303   9.453
 5246POPC   PO4 6432  21.363  35.321   9.153
 5246POPC   GL1 6433  21.430  35.324   8.853
 5246POPC   GL2 6434  21.501  35.458   8.853
 5246POPC   C1A 6435  21.352  35.371   8.553
 5246POPC   D2A 6436  21.405  35.331   8.253
 5246POPC   C3A 6437  21.350  35.345   7.953
 5246POPC   C4A 6438  21.397  35.366   7.653
 5246POPC   C1B 6439  21.585  35.446   8.553
 5246POPC   C2B 6440  21.559  35.495   8.253
 5246POPC   C3B 6441  21.603  35.470   7.953
 5246POPC   C4B 6442  21.640  35.503   7.653
 5247POPC   NC3 6443  25.995  29.962   9.453
 5247POPC   PO4 6444  26.059  29.915   9.153
 5247POPC   GL1 6445  26.026  29.897   8.853
 5247POPC   GL2 6446  26.072  30.093   8.853
 5247POPC   C1A 6447  26.091  29.922   8.553
 5247POPC   D2A 6448  26.003  29.924   8.253
 5247POPC   C3A 6449  26.035  29.943   7.953
 5247POPC   C4A 6450  26.070  29.878   7.653
 5247POPC   C1B 6451  26.026  30.175   8.553
 5247POPC   C2B 6452  26.027  30.206   8.253
 5247POPC   C3B 6453  26.007  30.200   7.953
 5247POPC   C4B 6454  26.005  30.203   7.653
 5248POPC   NC3 6455   6.609   4.348   9.453
 5248POPC   PO4 6456   6.613   4.335   9.153
 5248POPC   GL1 6457   6.632   4.306   8.853
 5248POPC   GL2 6458   6.683   4.439   8.853
 5248POPC   C1A 6459   6.637   4.363   8.553
 5248POPC   D2A 6460   6.651   4.316   8.253
 5248POPC   C3A 6461   6.602   4.276   7.953
 5248POPC   C4A 6462   6.685   4.351   7.653
 5248POPC   C1B 6463   6.837   4.517   8.553
 5248POPC   C2B 6464   6.813   4.553   8.253
 5248POPC   C3B 6465   6.766   4.501   7.953
 5248POPC   C4B 6466   6.772   4.528   7.653
 5249POPC   NC3 6467  35.391  11.291   9.453
 5249POPC   PO4 6468  35.387  11.316   9.153
 5249POPC   GL1 6469  35.382  11.317   8.853
 5249POPC   GL2 6470  35.447  11.263   8.853
 5249POPC   C1A 6471  35.342  11.332   8.553
 5249POPC   D2A 6472  35.308  11.265   8.253
 5249POPC   C3A 6473  35.320  11.328   7.953
 5249POPC   C4A 6474  35.337  11.295   7.653
 5249POPC   C1B 6475  35.627  11.173   8.553
 5249POPC   C2B 6476  35.543  11.255   8.253
 5249POPC   C3B 6477  35.574  11.218   7.953
 5249POPC   C4B 6478  35.573  11.201   7.653
 5250POPC   NC3 6479  41.510  22.175   9.453
 5250POPC   PO4 6480  41.589  22.197   9.153
 5250POPC   GL1 6481  41.541  22.167   8.853
 5250POPC   GL2 6482  41.645  22.275   8.853
 5250POPC   C1A 6483  41.554  22.156   8.553
 5250POPC   D2A 6484  41.603  22.122   8.253
 5250POPC   C3A 6485  41.567  22.118   7.953
 5250POPC   C4A 6486  41.581  22.161   7.653
 5250POPC   C1B 6487  41.707  22.389   8.553
 5250POPC   C2B 6488  41.753  22.358   8.253
 5250POPC   C3B 6489  41.695  22.318   7.953
 5250POPC   C4B 6490  41.734  22.336   7.653
 5251POPC   NC3 6491   0.424  32.206   9.453
 5251POPC   PO4 6492   0.411  32.274   9.153
 5251POPC   GL1 6493   0.483  32.298   8.853
 5251POPC   GL2 6494   0.336  32.317   8.853
 5251POPC   C1A 6495   0.401  32.209   8.553
 5251POPC   D2A 6496   0.440  32.290   8.253
 5251POPC   C3A 6497   0.458  32.250   7.953
 5251POPC   C4A 6498   0.462  32.203   7.653
 5251POPC   C1B 6499   0.202  32.295   8.553
 5251POPC   C2B 6500   0.168  32.269   8.253
 5251POPC   C3B 6501   0.231  32.259   7.953
 5251POPC   C4B 6502   0.227  32.245   7.653
 5252POPC   NC3 6503  37.682  38.410   9.453
 5252POPC   PO4 6504  37.690  38.475   9.153
 5252POPC   GL1 6505  37.668  38.497   8.853
 5252POPC   GL2 6506  37.842  38.419   8.853
 5252POPC   C1A 6507  37.633  38.486   8.553
 5252POPC   D2A 6508  37.665  38.485   8.253
 5252POPC   C3A 6509  37.639  38.437   7.953
 5252POPC   C4A 6510  37.712  38.432   7.653
 5252POPC   C1B 6511  37.897  38.433   8.553
 5252POPC   C2B 6512  37.935  38.364   8.253
 5252POPC   C3B 6513  37.949  38.451   7.953
 5252POPC   C4B 6514  37.907  38.402   7.653
 5253POPC   NC3 6515  12.027  31.437   9.453
 5253POPC   PO4 6516  12.113  31.443   9.153
 5253POPC   GL1 6517  12.111  31.478   8.853
 5253POPC   GL2 6518  11.991  31.410   8.853
 5253POPC   C1A 6519  12.054  31.452   8.553
 5253POPC   D2A 6520  12.054  31.471   8.253
 5253POPC   C3A 6521  12.035  31.465   7.953
 5253POPC   C4A 6522  12.034  31.482   7.653
 5253POPC   C1B 6523  11.874  31.307   8.553
 5253POPC   C2B 6524  11.903  31.281   8.253
 5253POPC   C3B 6525  11.867  31.302   7.953
 5253POPC   C4B 6526  11.836  31.361   7.653
 5254POPC   NC3 6527  15.174   9.786   9.453
 5254POPC   PO4 6528  15.206   9.780   9.153
 5254POPC   GL1 6529  15.175   9.781   8.853
 5254POPC   GL2 6530  15.273   9.632   8.853
 5254POPC   C1A 6531  15.161   9.753   8.553
 5254POPC   D2A 6532  15.204   9.791   8.253
 5254POPC   C3A 6533  15.147   9.744   7.953
 5254POPC   C4A 6534  15.150   9.767   7.653
 5254POPC   C1B 6535  15.407   9.626   8.553
 5254POPC   C2B 6536  15.378   9.655   8.253
 5254POPC   C3B 6537  15.342   9.639   7.953
 5254POPC   C4B 6538  15.417   9.642   7.653
 5255POPC   NC3 6539  40.007  40.803   9.453
 5255POPC   PO4 6540  39.971  40.825   9.153
 5255POPC   GL1 6541  39.983  40.744   8.853
 5255POPC   GL2 6542  39.894  40.845   8.853
 5255POPC   C1A 6543  39.959  40.783   8.553
 5255POPC   D2A 6544  39.989  40.810   8.253
 5255POPC   C3A 6545  40.010  40.786   7.953
 5255POPC   C4A 6546  40.031  40.788   7.653
 5255POPC   C1B 6547  39.797  40.856   8.553
 5255POPC   C2B 6548  39.755  40.867   8.253
 5255POPC   C3B 6549  39.801  40.855   7.953
 5255POPC   C4B 6550  39.761  40.810   7.653
 5256POPC   NC3 6551  11.273  25.229   9.453
 5256POPC   PO4 6552  11.334  25.275   9.153
 5256POPC   GL1 6553  11.315  25.234   8.853
 5256POPC   GL2 6554  11.392  25.293   8.853
 5256POPC   C1A 6555  11.308  25.235   8.553
 5256POPC   D2A 6556  11.327  25.306   8.253
 5256POPC   C3A 6557  11.299  25.276   7.953
 5256POPC   C4A 6558  11.318  25.244   7.653
 5256POPC   C1B 6559  11.533  25.353   8.553
 5256POPC   C2B 6560  11.483  25.403   8.253
 5256POPC   C3B 6561  11.487  25.352   7.953
 5256POPC   C4B 6562  11.559  25.348   7.653
 5257POPC   NC3 6563  10.572  20.578   9.453
 5257POPC   PO4 6564  10.548  20.565   9.153
 5257POPC   GL1 6565  10.540  20.599   8.853
 5257POPC   GL2 6566  10.451  20.669   8.853
 5257POPC   C1A 6567  10.514  20.576   8.553
 5257POPC   D2A 6568  10.572  20.637   8.253
 5257POPC   C3A 6569  10.554  20.584   7.953
 5257POPC   C4A 6570  10.495  20.612   7.653
 5257POPC   C1B 6571  10.342  20.733   8.553
 5257POPC   C2B 6572  10.248  20.719   8.253
 5257POPC   C3B 6573  10.261  20.722   7.953
 5257POPC   C4B 6574  10.310  20.718   7.653
 5258POPC   NC3 6575  11.310  42.315   9.453
 5258POPC   PO4 6576  11.310  42.337   9.153
 5258POPC   GL1 6577  11.330  42.347   8.853
 5258POPC   GL2 6578  11.364  42.377   8.853
 5258POPC   C1A 6579  11.273  42.360   8.553
 5258POPC   D2A 6580  11.284  42.360   8.253
 5258POPC   C3A 6581  11.326  42.374   7.953
 5258POPC   C4A 6582  11.305  42.358   7.653
 5258POPC   C1B 6583  11.458  42.511   8.553
 5258POPC   C2B 6584  11.457  42.512   8.253
 5258POPC   C3B 6585  11.483  42.486   7.953
 5258POPC   C4B 6586  11.517  42.473   7.653
 5259POPC   NC3 6587  38.464  12.054   9.453
 5259POPC   PO4 6588  38.473  12.111   9.153
 5259POPC   GL1 6589  38.423  12.118   8.853
 5259POPC   GL2 6590  38.517  12.187   8.853
 5259POPC   C1A 6591  38.459  12.050   8.553
 5259POPC   D2A 6592  38.483  12.060   8.253
 5259POPC   C3A 6593  38.451  12.045   7.953
 5259POPC   C4A 6594  38.470  12.124   7.653
 5259POPC   C1B 6595  38.639  12.236   8.553
 5259POPC   C2B 6596  38.651  12.238   8.253
 5259POPC   C3B 6597  38.712  12.164   7.953
 5259POPC   C4B 6598  38.660  12.192   7.653
 5260POPC   NC3 6599  24.523  17.546   9.453
 5260POPC   PO4 6600  24.479  17.503   9.153
 5260POPC   GL1 6601  24.520  17.501   8.853
 5260POPC   GL2 6602  24.393  17.567   8.853
 5260POPC   C1A 6603  24.440  17.533   8.553
 5260POPC   D2A 6604  24.455  17.457   8.253
 5260POPC   C3A 6605  24.473  17.533   7.953
 5260POPC   C4A 6606  24.472  17.492   7.653
 5260POPC   C1B 6607  24.406  17.743   8.553
 5260POPC   C2B 6608  24.349  17.676   8.253
 5260POPC   C3B 6609  24.364  17.695   7.953
 5260POPC   C4B 6610  24.353  17.670   7.653
 5261POPC   NC3 6611  39.198  23.750   9.453
 5261POPC   PO4 6612  39.204  23.740   9.153
 5261POPC   GL1 6613  39.250  23.691   8.853
 5261POPC   GL2 6614  39.356  23.756   8.853
 5261POPC   C1A 6615  39.199  23.753   8.553
 5261POPC   D2A 6616  39.232  23.678   8.253
 5261POPC   C3A 6617  39.238  23.680   7.953
 5261POPC   C4A 6618  39.207  23.668   7.653
 5261POPC   C1B 6619  39.431  23.851   8.553
 5261POPC   C2B 6620  39.421  23.758   8.253
 5261POPC   C3B 6621  39.445  23.834   7.953
 5261POPC   C4B 6622  39.455  23.845   7.653
 5262POPC   NC3 6623   7.382  31.435   9.453
 5262POPC   PO4 6624   7.429  31.497   9.153
 5262POPC   GL1 6625   7.394  31.448   8.853
 5262POPC   GL2 6626   7.377  31.615   8.853
 5262POPC   C1A 6627   7.459  31.442   8.553
 5262POPC   D2A 6628   7.410  31.498   8.253
 5262POPC   C3A 6629   7.413  31.440   7.953
 5262POPC   C4A 6630   7.407  31.482   7.653
 5262POPC   C1B 6631   7.287  31.653   8.553
 5262POPC   C2B 6632   7.310  31.694   8.253
 5262POPC   C3B 6633   7.245  31.661   7.953
 5262POPC   C4B 6634   7.322  31.653   7.653
 5263POPC   NC3 6635   8.946  41.586   9.453
 5263POPC   PO4 6636   8.979  41.563   9.153
 5263POPC   GL1 6637   8.979  41.510   8.853
 5263POPC   GL2 6638   9.018  41.449   8.853
 5263POPC   C1A 6639   8.999  41.553   8.553
 5263POPC   D2A 6640   9.021  41.576   8.253
 5263POPC   C3A 6641   9.018  41.529   7.953
 5263POPC   C4A 6642   8.932  41.563   7.653
 5263POPC   C1B 6643   8.929  41.270   8.553
 5263POPC   C2B 6644   8.960  41.300   8.253
 5263POPC   C3B 6645   8.965  41.273   7.953
 5263POPC   C4B 6646   8.943  41.276   7.653
 5264POPC   NC3 6647  26.043  36.102   9.453
 5264POPC   PO4 6648  26.048  36.114   9.153
 5264POPC   GL1 6649  26.072  36.164   8.853
 5264POPC   GL2 6650  26.037  36.300   8.853
 5264POPC   C1A 6651  26.002  36.135   8.553
 5264POPC   D2A 6652  25.994  36.118   8.253
 5264POPC   C3A 6653  26.048  36.104   7.953
 5264POPC   C4A 6654  26.084  36.091   7.653
 5264POPC   C1B 6655  25.951  36.422   8.553
 5264POPC   C2B 6656  26.024  36.350   8.253
 5264POPC   C3B 6657  26.009  36.346   7.953
 5264POPC   C4B 6658  26.008  36.359   7.653
 5265POPC   NC3 6659   8.934  15.189   9.453
 5265POPC   PO4 6660   8.954  15.184   9.153
 5265POPC   GL1 6661   8.963  15.160   8.853
 5265POPC   GL2 6662   8.893  15.181   8.853
 5265POPC   C1A 6663   8.992  15.161   8.553
 5265POPC   D2A 6664   8.959  15.166   8.253
 5265POPC   C3A 6665   8.980  15.190   7.953
 5265POPC   C4A 6666   8.925  15.185   7.653
 5265POPC   C1B 6667   8.700  15.204   8.553
 5265POPC   C2B 6668   8.757  15.158   8.253
 5265POPC   C3B 6669   8.684  15.204   7.953
 5265POPC   C4B 6670   8.740  15.208   7.653
 5266POPC   NC3 6671  41.555   4.306   9.453
 5266POPC   PO4 6672  41.511   4.352   9.153
 5266POPC   GL1 6673  41.541   4.366   8.853
 5266POPC   GL2 6674  41.609   4.230   8.853
 5266POPC   C1A 6675  41.532   4.274   8.553
 5266POPC   D2A 6676  41.544   4.298   8.253
 5266POPC   C3A 6677  41.531   4.314   7.953
 5266POPC   C4A 6678  41.608   4.326   7.653
 5266POPC   C1B 6679  41.615   4.072   8.553
 5266POPC   C2B 6680  41.570   4.062   8.253
 5266POPC   C3B 6681  41.624   4.064   7.953
 5266POPC   C4B 6682  41.544   4.051   7.653
 5267POPC   NC3 6683  40.754  23.712   9.453
 5267POPC   PO4 6684  40.821  23.720   9.153
 5267POPC   GL1 6685  40.764  23.741   8.853
 5267POPC   GL2 6686  40.797  23.794   8.853
 5267POPC   C1A 6687  40.826  23.762   8.553
 5267POPC   D2A 6688  40.790  23.720   8.253
 5267POPC   C3A 6689  40.812  23.725   7.953
 5267POPC   C4A 6690  40.740  23.712   7.653
 5267POPC   C1B 6691  40.761  23.987   8.553
 5267POPC   C2B 6692  40.766  23.985   8.253
 5267POPC   C3B 6693  40.733  23.914   7.953
 5267POPC   C4B 6694  40.793  23.949   7.653
 5268POPC   NC3 6695  36.139  42.347   9.453
 5268POPC   PO4 6696  36.168  42.307   9.153
 5268POPC   GL1 6697  36.124  42.381   8.853
 5268POPC   GL2 6698  36.004  42.326   8.853
 5268POPC   C1A 6699  36.150  42.305   8.553
 5268POPC   D2A 6700  36.108  42.331   8.253
 5268POPC   C3A 6701  36.101  42.378   7.953
 5268POPC   C4A 6702  36.152  42.300   7.653
 5268POPC   C1B 6703  35.923  42.360   8.553
 5268POPC   C2B 6704  35.913  42.364   8.253
 5268POPC   C3B 6705  35.851  42.399   7.953
 5268POPC   C4B 6706  35.895  42.350   7.653
 5269POPC   NC3 6707   8.204  38.456   9.453
 5269POPC   PO4 6708   8.195  38.489   9.153
 5269POPC   GL1 6709   8.175  38.442   8.853
 5269POPC   GL2 6710   8.270  38.335   8.853
 5269POPC   C1A 6711   8.190  38.478   8.553
 5269POPC   D2A 6712   8.235  38.466   8.253
 5269POPC   C3A 6713   8.224  38.477   7.953
 5269POPC   C4A 6714   8.221  38.447   7.653
 5269POPC   C1B 6715   8.429  38.314   8.553
 5269POPC   C2B 6716   8.366  38.301   8.253
 5269POPC   C3B 6717   8.344  38.261   7.953
 5269POPC   C4B 6718   8.426  38.341   7.653
 5270POPC   NC3 6719  35.370   5.086   9.453
 5270POPC   PO4 6720  35.317   5.139   9.153
 5270POPC   GL1 6721  35.326   5.069   8.853
 5270POPC   GL2 6722  35.380   4.981   8.853
 5270POPC   C1A 6723  35.393   5.053   8.553
 5270POPC   D2A 6724  35.356   5.140   8.253
 5270POPC   C3A 6725  35.324   5.138   7.953
 5270POPC   C4A 6726  35.354   5.139   7.653
 5270POPC   C1B 6727  35.437   4.849   8.553
 5270POPC   C2B 6728  35.409   4.897   8.253
 5270POPC   C3B 6729  35.460   4.864   7.953
 5270POPC   C4B 6730  35.401   4.824   7.653
 5271POPC   NC3 6731   6.658  11.318   9.453
 5271POPC   PO4 6732   6.610  11.297   9.153
 5271POPC   GL1 6733   6.687  11.303   8.853
 5271POPC   GL2 6734   6.693  11.127   8.853
 5271POPC   C1A 6735   6.690  11.295   8.553
 5271POPC   D2A 6736   6.602  11.347   8.253
 5271POPC   C3A 6737   6.684  11.336   7.953
 5271POPC   C4A 6738   6.656  11.282   7.653
 5271POPC   C1B 6739   6.637  11.059   8.553
 5271POPC   C2B 6740   6.661  11.032   8.253
 5271POPC   C3B 6741   6.661  11.075   7.953
 5271POPC   C4B 6742   6.627  11.080   7.653
 5272POPC   NC3 6743  36.865  22.176   9.453
 5272POPC   PO4 6744  36.890  22.195   9.153
 5272POPC   GL1 6745  36.948  22.180   8.853
 5272POPC   GL2 6746  36.877  22.062   8.853
 5272POPC   C1A 6747  36.925  22.120   8.553
 5272POPC   D2A 6748  36.906  22.186   8.253
 5272POPC   C3A 6749  36.897  22.183   7.953
 5272POPC   C4A 6750  36.896  22.136   7.653
 5272POPC   C1B 6751  36.778  21.993   8.553
 5272POPC   C2B 6752  36.747  21.972   8.253
 5272POPC   C3B 6753  36.731  21.952   7.953
 5272POPC   C4B 6754  36.797  21.974   7.653
 5273POPC   NC3 6755  44.675   1.997   9.453
 5273POPC   PO4 6756  44.696   2.031   9.153
 5273POPC   GL1 6757  44.694   2.027   8.853
 5273POPC   GL2 6758  44.688   1.884   8.853
 5273POPC   C1A 6759  44.677   2.021   8.553
 5273POPC   D2A 6760  44.712   2.022   8.253
 5273POPC   C3A 6761  44.648   2.029   7.953
 5273POPC   C4A 6762  44.652   1.941   7.653
 5273POPC   C1B 6763  44.783   1.715   8.553
 5273POPC   C2B 6764  44.781   1.737   8.253
 5273POPC   C3B 6765  44.784   1.798   7.953
 5273POPC   C4B 6766  44.770   1.784   7.653
 5274POPC   NC3 6767  25.996  30.737   9.453
 5274POPC   PO4 6768  26.074  30.679   9.153
 5274POPC   GL1 6769  26.070  30.713   8.853
 5274POPC   GL2 6770  26.173  30.800   8.853
 5274POPC   C1A 6771  26.052  30.654   8.553
 5274POPC   D2A 6772  26.030  30.712   8.253
 5274POPC   C3A 6773  26.068  30.730   7.953
 5274POPC   C4A 6774  26.091  30.734   7.653
 5274POPC   C1B 6775  26.206  30.860   8.553
 5274POPC   C2B 6776  26.207  30.828   8.253
 5274POPC   C3B 6777  26.234  30.826   7.953
 5274POPC   C4B 6778  26.261  30.820   7.653
 5275POPC   NC3 6779  42.350  39.249   9.453
 5275POPC   PO4 6780  42.310  39.188   9.153
 5275POPC   GL1 6781  42.365  39.248   8.853
 5275POPC   GL2 6782  42.377  39.123   8.853
 5275POPC   C1A 6783  42.330  39.198   8.553
 5275POPC   D2A 6784  42.379  39.277   8.253
 5275POPC   C3A 6785  42.365  39.183   7.953
 5275POPC   C4A 6786  42.382  39.264   7.653
 5275POPC   C1B 6787  42.486  39.054   8.553
 5275POPC   C2B 6788  42.507  39.047   8.253
 5275POPC   C3B 6789  42.489  39.057   7.953
 5275POPC   C4B 6790  42.484  39.012   7.653
 5276POPC   NC3 6791   9.789  32.984   9.453
 5276POPC   PO4 6792   9.749  32.975   9.153
 5276POPC   GL1 6793   9.763  33.047   8.853
 5276POPC   GL2 6794   9.813  32.930   8.853
 5276POPC   C1A 6795   9.778  33.065   8.553
 5276POPC   D2A 6796   9.707  33.027   8.253
 5276POPC   C3A 6797   9.789  32.993   7.953
 5276POPC   C4A 6798   9.734  33.056   7.653
 5276POPC   C1B 6799   9.936  32.853   8.553
 5276POPC   C2B 6800   9.855  32.853   8.253
 5276POPC   C3B 6801   9.917  32.806   7.953
 5276POPC   C4B 6802   9.874  32.824   7.653
 5277POPC   NC3 6803  28.376  31.489   9.453
 5277POPC   PO4 6804  28.341  31.470   9.153
 5277POPC   GL1 6805  28.328  31.441   8.853
 5277POPC   GL2 6806  28.434  31.591   8.853
 5277POPC   C1A 6807  28.358  31.512   8.553
 5277POPC   D2A 6808  28.386  31.435   8.253
 5277POPC   C3A 6809  28.382  31.474   7.953
 5277POPC   C4A 6810  28.404  31.472   7.653
 5277POPC   C1B 6811  28.503  31.704   8.553
 5277POPC   C2B 6812  28.550  31.691   8.253
 5277POPC   C3B 6813  28.536  31.701   7.953
 5277POPC   C4B 6814  28.545  31.675   7.653
 5278POPC   NC3 6815  43.082  39.959   9.453
 5278POPC   PO4 6816  43.093  40.001   9.153
 5278POPC   GL1 6817  43.087  39.989   8.853
 5278POPC   GL2 6818  43.209  40.029   8.853
 5278POPC   C1A 6819  43.089  39.972   8.553
 5278POPC   D2A 6820  43.145  40.004   8.253
 5278POPC   C3A 6821  43.070  40.003   7.953
 5278POPC   C4A 6822  43.068  39.989   7.653
 5278POPC   C1B 6823  43.362  39.952   8.553
 5278POPC   C2B 6824  43.390  40.045   8.253
 5278POPC   C3B 6825  43.398  40.027   7.953
 5278POPC   C4B 6826  43.348  39.953   7.653
 5279POPC   NC3 6827  19.015   5.898   9.453
 5279POPC   PO4 6828  19.103   5.849   9.153
 5279POPC   GL1 6829  19.027   5.863   8.853
 5279POPC   GL2 6830  19.052   5.731   8.853
 5279POPC   C1A 6831  19.068   5.825   8.553
 5279POPC   D2A 6832  19.011   5.835   8.253
 5279POPC   C3A 6833  19.058   5.822   7.953
 5279POPC   C4A 6834  19.044   5.820   7.653
 5279POPC   C1B 6835  18.972   5.608   8.553
 5279POPC   C2B 6836  19.013   5.608   8.253
 5279POPC   C3B 6837  19.049   5.586   7.953
 5279POPC   C4B 6838  19.015   5.598   7.653
 5280POPC   NC3 6839  26.060   0.432   9.453
 5280POPC   PO4 6840  26.076   0.419   9.153
 5280POPC   GL1 6841  26.047   0.460   8.853
 5280POPC   GL2 6842  26.010   0.518   8.853
 5280POPC   C1A 6843  26.074   0.449   8.553
 5280POPC   D2A 6844  26.064   0.447   8.253
 5280POPC   C3A 6845  26.074   0.402   7.953
 5280POPC   C4A 6846  26.048   0.444   7.653
 5280POPC   C1B 6847  25.860   0.636   8.553
 5280POPC   C2B 6848  25.908   0.618   8.253
 5280POPC   C3B 6849  25.940   0.613   7.953
 5280POPC   C4B 6850  25.935   0.670   7.653
 5281POPC   NC3 6851  33.059   2.733   9.453
 5281POPC   PO4 6852  33.070   2.771   9.153
 5281POPC   GL1 6853  32.993   2.719   8.853
 5281POPC   GL2 6854  32.984   2.893   8.853
 5281POPC   C1A 6855  33.020   2.740   8.553
 5281POPC   D2A 6856  33.050   2.806   8.253
 5281POPC   C3A 6857  32.979   2.805   7.953
 5281POPC   C4A 6858  33.074   2.722   7.653
 5281POPC   C1B 6859  32.889   2.978   8.553
 5281POPC   C2B 6860  32.889   2.962   8.253
 5281POPC   C3B 6861  32.930   2.953   7.953
 5281POPC   C4B 6862  32.913   2.987   7.653
 5282POPC   NC3 6863   4.275  16.003   9.453
 5282POPC   PO4 6864   4.299  15.925   9.153
 5282POPC   GL1 6865   4.295  15.968   8.853
 5282POPC   GL2 6866   4.364  15.867   8.853
 5282POPC   C1A 6867   4.312  16.000   8.553
 5282POPC   D2A 6868   4.346  15.962   8.253
 5282POPC   C3A 6869   4.302  15.937   7.953
 5282POPC   C4A 6870   4.367  15.958   7.653
 5282POPC   C1B 6871   4.366  15.718   8.553
 5282POPC   C2B 6872   4.392  15.725   8.253
 5282POPC   C3B 6873   4.404  15.663   7.953
 5282POPC   C4B 6874   4.359  15.711   7.653
 5283POPC   NC3 6875  12.077  26.850   9.453
 5283POPC   PO4 6876  12.059  26.807   9.153
 5283POPC   GL1 6877  12.117  26.770   8.853
 5283POPC   GL2 6878  12.189  26.872   8.853
 5283POPC   C1A 6879  12.083  26.853   8.553
 5283POPC   D2A 6880  12.044  26.828   8.253
 5283POPC   C3A 6881  12.031  26.829   7.953
 5283POPC   C4A 6882  12.045  26.842   7.653
 5283POPC   C1B 6883  12.365  26.851   8.553
 5283POPC   C2B 6884  12.339  26.799   8.253
 5283POPC   C3B 6885  12.345  26.844   7.953
 5283POPC   C4B 6886  12.288  26.787   7.653
 5284POPC   NC3 6887  12.077  26.090   9.453
 5284POPC   PO4 6888  12.053  26.017   9.153
 5284POPC   GL1 6889  12.051  26.079   8.853
 5284POPC   GL2 6890  12.080  25.922   8.853
 5284POPC   C1A 6891  12.108  26.086   8.553
 5284POPC   D2A 6892  12.101  26.019   8.253
 5284POPC   C3A 6893  12.069  26.071   7.953
 5284POPC   C4A 6894  12.060  26.072   7.653
 5284POPC   C1B 6895  12.127  25.790   8.553
 5284POPC   C2B 6896  12.041  25.798   8.253
 5284POPC   C3B 6897  12.083  25.751   7.953
 5284POPC   C4B 6898  12.094  25.762   7.653
 5285POPC   NC3 6899  34.567  28.417   9.453
 5285POPC   PO4 6900  34.592  28.398   9.153
 5285POPC   GL1 6901  34.584  28.379   8.853
 5285POPC   GL2 6902  34.533  28.462   8.853
 5285POPC   C1A 6903  34.603  28.399   8.553
 5285POPC   D2A 6904  34.603  28.331   8.253
 5285POPC   C3A 6905  34.615  28.403   7.953
 5285POPC   C4A 6906  34.569  28.403   7.653
 5285POPC   C1B 6907  34.407  28.560   8.553
 5285POPC   C2B 6908  34.432  28.548   8.253
 5285POPC   C3B 6909  34.429  28.570   7.953
 5285POPC   C4B 6910  34.394  28.545   7.653
 5286POPC   NC3 6911  25.239   5.904   9.453
 5286POPC   PO4 6912  25.275   5.819   9.153
 5286POPC   GL1 6913  25.219   5.917   8.853
 5286POPC   GL2 6914  25.170   5.826   8.853
 5286POPC   C1A 6915  25.248   5.870   8.553
 5286POPC   D2A 6916  25.218   5.910   8.253
 5286POPC   C3A 6917  25.242   5.847   7.953
 5286POPC   C4A 6918  25.292   5.850   7.653
 5286POPC   C1B 6919  25.032   5.818   8.553
 5286POPC   C2B 6920  25.047   5.888   8.253
 5286POPC   C3B 6921  24.968   5.886   7.953
 5286POPC   C4B 6922  24.975   5.901   7.653
 5287POPC   NC3 6923  29.885  15.221   9.453
 5287POPC   PO4 6924  29.891  15.209   9.153
 5287POPC   GL1 6925  29.893  15.160   8.853
 5287POPC   GL2 6926  29.843  15.124   8.853
 5287POPC   C1A 6927  29.921  15.202   8.553
 5287POPC   D2A 6928  29.943  15.203   8.253
 5287POPC   C3A 6929  29.949  15.144   7.953
 5287POPC   C4A 6930  29.963  15.194   7.653
 5287POPC   C1B 6931  29.755  15.072   8.553
 5287POPC   C2B 6932  29.744  14.981   8.253
 5287POPC   C3B 6933  29.724  15.069   7.953
 5287POPC   C4B 6934  29.679  14.999   7.653
 5288POPC   NC3 6935  27.617   9.019   9.453
 5288POPC   PO4 6936  27.600   9.008   9.153
 5288POPC   GL1 6937  27.583   8.998   8.853
 5288POPC   GL2 6938  27.623   8.841   8.853
 5288POPC   C1A 6939  27.552   8.930   8.553
 5288POPC   D2A 6940  27.596   8.998   8.253
 5288POPC   C3A 6941  27.568   8.953   7.953
 5288POPC   C4A 6942  27.555   8.950   7.653
 5288POPC   C1B 6943  27.757   8.712   8.553
 5288POPC   C2B 6944  27.735   8.730   8.253
 5288POPC   C3B 6945  27.719   8.722   7.953
 5288POPC   C4B 6946  27.740   8.761   7.653
 5289POPC   NC3 6947   6.660  36.879   9.453
 5289POPC   PO4 6948   6.694  36.898   9.153
 5289POPC   GL1 6949   6.666  36.880   8.853
 5289POPC   GL2 6950   6.758  36.882   8.853
 5289POPC   C1A 6951   6.605  36.876   8.553
 5289POPC   D2A 6952   6.607  36.891   8.253
 5289POPC   C3A 6953   6.644  36.907   7.953
 5289POPC   C4A 6954   6.651  36.941   7.653
 5289POPC   C1B 6955   6.839  36.859   8.553
 5289POPC   C2B 6956   6.881  36.807   8.253
 5289POPC   C3B 6957   6.915  36.881   7.953
 5289POPC   C4B 6958   6.929  36.818   7.653
 5290POPC   NC3 6959  32.979  25.234   9.453
 5290POPC   PO4 6960  32.982  25.278   9.153
 5290POPC   GL1 6961  33.041  25.255   8.853
 5290POPC   GL2 6962  33.114  25.247   8.853
 5290POPC   C1A 6963  33.015  25.232   8.553
 5290POPC   D2A 6964  33.053  25.251   8.253
 5290POPC   C3A 6965  33.050  25.302   7.953
 5290POPC   C4A 6966  32.998  25.265   7.653
 5290POPC   C1B 6967  33.310  25.292   8.553
 5290POPC   C2B 6968  33.321  25.235   8.253
 5290POPC   C3B 6969  33.227  25.233   7.953
 5290POPC   C4B 6970  33.284  25.230   7.653
 5291POPC   NC3 6971   1.214   0.478   9.453
 5291POPC   PO4 6972   1.225   0.430   9.153
 5291POPC   GL1 6973   1.216   0.485   8.853
 5291POPC   GL2 6974   1.312   0.445   8.853
 5291POPC   C1A 6975   1.211   0.456   8.553
 5291POPC   D2A 6976   1.248   0.480   8.253
 5291POPC   C3A 6977   1.252   0.408   7.953
 5291POPC   C4A 6978   1.250   0.472   7.653
 5291POPC   C1B 6979   1.442   0.413   8.553
 5291POPC   C2B 6980   1.414   0.351   8.253
 5291POPC   C3B 6981   1.414   0.420   7.953
 5291POPC   C4B 6982   1.452   0.366   7.653
 5292POPC   NC3 6983  22.937  18.291   9.453
 5292POPC   PO4 6984  22.903  18.260   9.153
 5292POPC   GL1 6985  22.920  18.247   8.853
 5292POPC   GL2 6986  22.934  18.376   8.853
 5292POPC   C1A 6987  22.962  18.261   8.553
 5292POPC   D2A 6988  22.956  18.298   8.253
 5292POPC   C3A 6989  22.968  18.291   7.953
 5292POPC   C4A 6990  22.900  18.314   7.653
 5292POPC   C1B 6991  22.876  18.558   8.553
 5292POPC   C2B 6992  22.835  18.506   8.253
 5292POPC   C3B 6993  22.914  18.482   7.953
 5292POPC   C4B 6994  22.830  18.532   7.653
 5293POPC   NC3 6995  42.304  30.698   9.453
 5293POPC   PO4 6996  42.319  30.709   9.153
 5293POPC   GL1 6997  42.307  30.710   8.853
 5293POPC   GL2 6998  42.266  30.800   8.853
 5293POPC   C1A 6999  42.303  30.681   8.553
 5293POPC   D2A 7000  42.296  30.732   8.253
 5293POPC   C3A 7001  42.350  30.648   7.953
 5293POPC   C4A 7002  42.375  30.680   7.653
 5293POPC   C1B 7003  42.185  30.902   8.553
 5293POPC   C2B 7004  42.204  30.877   8.253
 5293POPC   C3B 7005  42.234  30.944   7.953
 5293POPC   C4B 7006  42.237  30.924   7.653
 5294POPC   NC3 7007  23.760  31.487   9.453
 5294POPC   PO4 7008  23.720  31.458   9.153
 5294POPC   GL1 7009  23.678  31.509   8.853
 5294POPC   GL2 7010  23.620  31.408   8.853
 5294POPC   C1A 7011  23.669  31.506   8.553
 5294POPC   D2A 7012  23.749  31.511   8.253
 5294POPC   C3A 7013  23.685  31.470   7.953
 5294POPC   C4A 7014  23.689  31.501   7.653
 5294POPC   C1B 7015  23.622  31.230   8.553
 5294POPC   C2B 7016  23.567  31.257   8.253
 5294POPC   C3B 7017  23.631  31.257   7.953
 5294POPC   C4B 7018  23.600  31.236   7.653
 5295POPC   NC3 7019  27.586   4.300   9.453
 5295POPC   PO4 7020  27.604   4.280   9.153
 5295POPC   GL1 7021  27.619   4.313   8.853
 5295POPC   GL2 7022  27.740   4.272   8.853
 5295POPC   C1A 7023  27.642   4.313   8.553
 5295POPC   D2A 7024  27.557   4.271   8.253
 5295POPC   C3A 7025  27.587   4.344   7.953
 5295POPC   C4A 7026  27.625   4.360   7.653
 5295POPC   C1B 7027  27.770   4.152   8.553
 5295POPC   C2B 7028  27.840   4.172   8.253
 5295POPC   C3B 7029  27.766   4.218   7.953
 5295POPC   C4B 7030  27.799   4.185   7.653
 5296POPC   NC3 7031   0.441  22.951   9.453
 5296POPC   PO4 7032   0.482  22.900   9.153
 5296POPC   GL1 7033   0.481  22.977   8.853
 5296POPC   GL2 7034   0.475  23.037   8.853
 5296POPC   C1A 7035   0.482  22.913   8.553
 5296POPC   D2A 7036   0.477  22.927   8.253
 5296POPC   C3A 7037   0.426  22.899   7.953
 5296POPC   C4A 7038   0.433  22.946   7.653
 5296POPC   C1B 7039   0.532  23.162   8.553
 5296POPC   C2B 7040   0.494  23.205   8.253
 5296POPC   C3B 7041   0.475  23.214   7.953
 5296POPC   C4B 7042   0.463  23.175   7.653
 5297POPC   NC3 7043  38.421  31.476   9.453
 5297POPC   PO4 7044  38.467  31.473   9.153
 5297POPC   GL1 7045  38.497  31.502   8.853
 5297POPC   GL2 7046  38.535  31.460   8.853
 5297POPC   C1A 7047  38.453  31.499   8.553
 5297POPC   D2A 7048  38.450  31.495   8.253
 5297POPC   C3A 7049  38.445  31.517   7.953
 5297POPC   C4A 7050  38.438  31.489   7.653
 5297POPC   C1B 7051  38.685  31.495   8.553
 5297POPC   C2B 7052  38.714  31.552   8.253
 5297POPC   C3B 7053  38.653  31.514   7.953
 5297POPC   C4B 7054  38.742  31.506   7.653
 5298POPC   NC3 7055   4.273  36.132   9.453
 5298POPC   PO4 7056   4.295  36.122   9.153
 5298POPC   GL1 7057   4.275  36.115   8.853
 5298POPC   GL2 7058   4.257  36.044   8.853
 5298POPC   C1A 7059   4.310  36.082   8.553
 5298POPC   D2A 7060   4.317  36.126   8.253
 5298POPC   C3A 7061   4.277  36.085   7.953
 5298POPC   C4A 7062   4.299  36.143   7.653
 5298POPC   C1B 7063   4.224  35.917   8.553
 5298POPC   C2B 7064   4.203  35.885   8.253
 5298POPC   C3B 7065   4.223  35.900   7.953
 5298POPC   C4B 7066   4.221  35.900   7.653
 5299POPC   NC3 7067  37.725  37.692   9.453
 5299POPC   PO4 7068  37.677  37.728   9.153
 5299POPC   GL1 7069  37.654  37.635   8.853
 5299POPC   GL2 7070  37.664  37.774   8.853
 5299POPC   C1A 7071  37.710  37.640   8.553
 5299POPC   D2A 7072  37.667  37.687   8.253
 5299POPC   C3A 7073  37.729  37.703   7.953
 5299POPC   C4A 7074  37.723  37.712   7.653
 5299POPC   C1B 7075  37.708  37.878   8.553
 5299POPC   C2B 7076  37.740  37.970   8.253
 5299POPC   C3B 7077  37.742  37.923   7.953
 5299POPC   C4B 7078  37.768  37.914   7.653
 5300POPC   NC3 7079  42.365  36.163   9.453
 5300POPC   PO4 7080  42.353  36.108   9.153
 5300POPC   GL1 7081  42.348  36.145   8.853
 5300POPC   GL2 7082  42.367  36.036   8.853
 5300POPC   C1A 7083  42.323  36.165   8.553
 5300POPC   D2A 7084  42.366  36.100   8.253
 5300POPC   C3A 7085  42.319  36.159   7.953
 5300POPC   C4A 7086  42.313  36.176   7.653
 5300POPC   C1B 7087  42.457  35.954   8.553
 5300POPC   C2B 7088  42.502  35.975   8.253
 5300POPC   C3B 7089  42.469  35.890   7.953
 5300POPC   C4B 7090  42.501  35.938   7.653
 5301POPC   NC3 7091   8.992  26.807   9.453
 5301POPC   PO4 7092   9.019  26.822   9.153
 5301POPC   GL1 7093   8.935  26.791   8.853
 5301POPC   GL2 7094   9.057  26.744   8.853
 5301POPC   C1A 7095   8.980  26.820   8.553
 5301POPC   D2A 7096   8.965  26.866   8.253
 5301POPC   C3A 7097   8.987  26.849   7.953
 5301POPC   C4A 7098   8.976  26.861   7.653
 5301POPC   C1B 7099   9.033  26.572   8.553
 5301POPC   C2B 7100   9.059  26.629   8.253
 5301POPC   C3B 7101   9.040  26.599   7.953
 5301POPC   C4B 7102   9.065  26.541   7.653
 5302POPC   NC3 7103  14.355   8.193   9.453
 5302POPC   PO4 7104  14.398   8.236   9.153
 5302POPC   GL1 7105  14.412   8.234   8.853
 5302POPC   GL2 7106  14.402   8.298   8.853
 5302POPC   C1A 7107  14.435   8.160   8.553
 5302POPC   D2A 7108  14.354   8.151   8.253
 5302POPC   C3A 7109  14.388   8.195   7.953
 5302POPC   C4A 7110  14.369   8.178   7.653
 5302POPC   C1B 7111  14.271   8.459   8.553
 5302POPC   C2B 7112  14.311   8.478   8.253
 5302POPC   C3B 7113  14.298   8.440   7.953
 5302POPC   C4B 7114  14.341   8.458   7.653
 5303POPC   NC3 7115  39.257  22.129   9.453
 5303POPC   PO4 7116  39.214  22.175   9.153
 5303POPC   GL1 7117  39.223  22.147   8.853
 5303POPC   GL2 7118  39.336  22.122   8.853
 5303POPC   C1A 7119  39.212  22.156   8.553
 5303POPC   D2A 7120  39.243  22.125   8.253
 5303POPC   C3A 7121  39.210  22.194   7.953
 5303POPC   C4A 7122  39.281  22.121   7.653
 5303POPC   C1B 7123  39.508  22.121   8.553
 5303POPC   C2B 7124  39.509  22.145   8.253
 5303POPC   C3B 7125  39.509  22.111   7.953
 5303POPC   C4B 7126  39.489  22.080   7.653
 5304POPC   NC3 7127   8.239  41.564   9.453
 5304POPC   PO4 7128   8.244  41.565   9.153
 5304POPC   GL1 7129   8.156  41.537   8.853
 5304POPC   GL2 7130   8.112  41.550   8.853
 5304POPC   C1A 7131   8.184  41.546   8.553
 5304POPC   D2A 7132   8.214  41.538   8.253
 5304POPC   C3A 7133   8.220  41.566   7.953
 5304POPC   C4A 7134   8.177  41.561   7.653
 5304POPC   C1B 7135   7.930  41.644   8.553
 5304POPC   C2B 7136   7.906  41.593   8.253
 5304POPC   C3B 7137   7.972  41.637   7.953
 5304POPC   C4B 7138   7.922  41.589   7.653
 5305POPC   NC3 7139   6.638   2.800   9.453
 5305POPC   PO4 7140   6.610   2.762   9.153
 5305POPC   GL1 7141   6.626   2.780   8.853
 5305POPC   GL2 7142   6.734   2.674   8.853
 5305POPC   C1A 7143   6.695   2.797   8.553
 5305POPC   D2A 7144   6.596   2.780   8.253
 5305POPC   C3A 7145   6.604   2.777   7.953
 5305POPC   C4A 7146   6.665   2.717   7.653
 5305POPC   C1B 7147   6.811   2.606   8.553
 5305POPC   C2B 7148   6.812   2.634   8.253
 5305POPC   C3B 7149   6.869   2.668   7.953
 5305POPC   C4B 7150   6.822   2.612   7.653
 5306POPC   NC3 7151  20.638  26.850   9.453
 5306POPC   PO4 7152  20.626  26.826   9.153
 5306POPC   GL1 7153  20.590  26.866   8.853
 5306POPC   GL2 7154  20.531  26.700   8.853
 5306POPC   C1A 7155  20.606  26.828   8.553
 5306POPC   D2A 7156  20.602  26.819   8.253
 5306POPC   C3A 7157  20.631  26.846   7.953
 5306POPC   C4A 7158  20.592  26.866   7.653
 5306POPC   C1B 7159  20.436  26.633   8.553
 5306POPC   C2B 7160  20.441  26.705   8.253
 5306POPC   C3B 7161  20.358  26.711   7.953
 5306POPC   C4B 7162  20.403  26.724   7.653
 5307POPC   NC3 7163  34.624  12.076   9.453
 5307POPC   PO4 7164  34.562  12.117   9.153
 5307POPC   GL1 7165  34.537  12.061   8.853
 5307POPC   GL2 7166  34.593  11.926   8.853
 5307POPC   C1A 7167  34.549  12.079   8.553
 5307POPC   D2A 7168  34.605  12.119   8.253
 5307POPC   C3A 7169  34.563  12.096   7.953
 5307POPC   C4A 7170  34.554  12.087   7.653
 5307POPC   C1B 7171  34.529  11.836   8.553
 5307POPC   C2B 7172  34.572  11.861   8.253
 5307POPC   C3B 7173  34.500  11.871   7.953
 5307POPC   C4B 7174  34.501  11.875   7.653
 5308POPC   NC3 7175   3.521  31.458   9.453
 5308POPC   PO4 7176   3.555  31.429   9.153
 5308POPC   GL1 7177   3.503  31.489   8.853
 5308POPC   GL2 7178   3.448  31.513   8.853
 5308POPC   C1A 7179   3.501  31.449   8.553
 5308POPC   D2A 7180   3.543  31.519   8.253
 5308POPC   C3A 7181   3.539  31.477   7.953
 5308POPC   C4A 7182   3.518  31.432   7.653
 5308POPC   C1B 7183   3.364  31.637   8.553
 5308POPC   C2B 7184   3.367  31.642   8.253
 5308POPC   C3B 7185   3.383  31.633   7.953
 5308POPC   C4B 7186   3.321  31.626   7.653
 5309POPC   NC3 7187  29.909  44.618   9.453
 5309POPC   PO4 7188  29.903  44.649   9.153
 5309POPC   GL1 7189  29.924  44.679   8.853
 5309POPC   GL2 7190  29.888  44.518   8.853
 5309POPC   C1A 7191  29.924  44.625   8.553
 5309POPC   D2A 7192  29.896  44.623   8.253
 5309POPC   C3A 7193  29.965  44.691   7.953
 5309POPC   C4A 7194  29.925  44.662   7.653
 5309POPC   C1B 7195  29.869  44.467   8.553
 5309POPC   C2B 7196  29.832  44.381   8.253
 5309POPC   C3B 7197  29.886  44.379   7.953
 5309POPC   C4B 7198  29.823  44.433   7.653
 5310POPC   NC3 7199   5.073  24.488   9.453
 5310POPC   PO4 7200   5.091  24.442   9.153
 5310POPC   GL1 7201   5.121  24.504   8.853
 5310POPC   GL2 7202   5.014  24.608   8.853
 5310POPC   C1A 7203   5.067  24.458   8.553
 5310POPC   D2A 7204   5.043  24.471   8.253
 5310POPC   C3A 7205   5.068  24.507   7.953
 5310POPC   C4A 7206   5.073  24.445   7.653
 5310POPC   C1B 7207   5.030  24.701   8.553
 5310POPC   C2B 7208   5.029  24.758   8.253
 5310POPC   C3B 7209   4.962  24.703   7.953
 5310POPC   C4B 7210   5.010  24.728   7.653
 5311POPC   NC3 7211   6.601  19.045   9.453
 5311POPC   PO4 7212   6.675  19.050   9.153
 5311POPC   GL1 7213   6.666  19.097   8.853
 5311POPC   GL2 7214   6.778  19.014   8.853
 5311POPC   C1A 7215   6.637  19.056   8.553
 5311POPC   D2A 7216   6.617  19.012   8.253
 5311POPC   C3A 7217   6.671  19.031   7.953
 5311POPC   C4A 7218   6.619  19.039   7.653
 5311POPC   C1B 7219   6.920  19.012   8.553
 5311POPC   C2B 7220   6.934  18.974   8.253
 5311POPC   C3B 7221   6.921  19.025   7.953
 5311POPC   C4B 7222   6.867  18.993   7.653
 5312POPC   NC3 7223  19.102  43.074   9.453
 5312POPC   PO4 7224  19.042  43.121   9.153
 5312POPC   GL1 7225  19.011  43.147   8.853
 5312POPC   GL2 7226  19.204  43.131   8.853
 5312POPC   C1A 7227  19.072  43.071   8.553
 5312POPC   D2A 7228  19.105  43.066   8.253
 5312POPC   C3A 7229  19.091  43.151   7.953
 5312POPC   C4A 7230  19.010  43.083   7.653
 5312POPC   C1B 7231  19.294  43.245   8.553
 5312POPC   C2B 7232  19.271  43.282   8.253
 5312POPC   C3B 7233  19.297  43.203   7.953
 5312POPC   C4B 7234  19.270  43.278   7.653
 5313POPC   NC3 7235   8.932  11.334   9.453
 5313POPC   PO4 7236   9.007  11.309   9.153
 5313POPC   GL1 7237   9.005  11.349   8.853
 5313POPC   GL2 7238   8.918  11.225   8.853
 5313POPC   C1A 7239   9.022  11.271   8.553
 5313POPC   D2A 7240   8.977  11.315   8.253
 5313POPC   C3A 7241   8.923  11.270   7.953
 5313POPC   C4A 7242   8.971  11.296   7.653
 5313POPC   C1B 7243   8.937  11.099   8.553
 5313POPC   C2B 7244   8.887  11.074   8.253
 5313POPC   C3B 7245   8.911  11.099   7.953
 5313POPC   C4B 7246   8.978  11.048   7.653
 5314POPC   NC3 7247  11.305   2.783   9.453
 5314POPC   PO4 7248  11.350   2.740   9.153
 5314POPC   GL1 7249  11.297   2.742   8.853
 5314POPC   GL2 7250  11.397   2.708   8.853
 5314POPC   C1A 7251  11.344   2.757   8.553
 5314POPC   D2A 7252  11.257   2.809   8.253
 5314POPC   C3A 7253  11.250   2.769   7.953
 5314POPC   C4A 7254  11.298   2.732   7.653
 5314POPC   C1B 7255  11.459   2.610   8.553
 5314POPC   C2B 7256  11.495   2.571   8.253
 5314POPC   C3B 7257  11.531   2.632   7.953
 5314POPC   C4B 7258  11.523   2.574   7.653
 5315POPC   NC3 7259  43.121  22.929   9.453
 5315POPC   PO4 7260  43.124  22.892   9.153
 5315POPC   GL1 7261  43.138  22.889   8.853
 5315POPC   GL2 7262  42.948  22.911   8.853
 5315POPC   C1A 7263  43.113  22.932   8.553
 5315POPC   D2A 7264  43.143  22.894   8.253
 5315POPC   C3A 7265  43.061  22.895   7.953
 5315POPC   C4A 7266  43.072  22.970   7.653
 5315POPC   C1B 7267  42.889  22.927   8.553
 5315POPC   C2B 7268  42.858  22.902   8.253
 5315POPC   C3B 7269  42.845  22.907   7.953
 5315POPC   C4B 7270  42.913  22.896   7.653
 5316POPC   NC3 7271  41.531  19.108   9.453
 5316POPC   PO4 7272  41.551  19.042   9.153
 5316POPC   GL1 7273  41.584  19.056   8.853
 5316POPC   GL2 7274  41.587  18.958   8.853
 5316POPC   C1A 7275  41.596  19.052   8.553
 5316POPC   D2A 7276  41.517  19.081   8.253
 5316POPC   C3A 7277  41.550  19.077   7.953
 5316POPC   C4A 7278  41.606  19.096   7.653
 5316POPC   C1B 7279  41.594  18.761   8.553
 5316POPC   C2B 7280  41.546  18.826   8.253
 5316POPC   C3B 7281  41.559  18.793   7.953
 5316POPC   C4B 7282  41.614  18.781   7.653
 5317POPC   NC3 7283  19.100  10.533   9.453
 5317POPC   PO4 7284  19.019  10.528   9.153
 5317POPC   GL1 7285  19.054  10.567   8.853
 5317POPC   GL2 7286  19.051  10.629   8.853
 5317POPC   C1A 7287  19.051  10.518   8.553
 5317POPC   D2A 7288  19.025  10.566   8.253
 5317POPC   C3A 7289  19.085  10.534   7.953
 5317POPC   C4A 7290  19.023  10.570   7.653
 5317POPC   C1B 7291  19.041  10.817   8.553
 5317POPC   C2B 7292  19.054  10.729   8.253
 5317POPC   C3B 7293  19.099  10.745   7.953
 5317POPC   C4B 7294  19.063  10.771   7.653
 5318POPC   NC3 7295   6.644  44.711   9.453
 5318POPC   PO4 7296   6.608  44.690   9.153
 5318POPC   GL1 7297   6.662  44.701   8.853
 5318POPC   GL2 7298   6.681  44.573   8.853
 5318POPC   C1A 7299   6.632  44.655   8.553
 5318POPC   D2A 7300   6.688  44.626   8.253
 5318POPC   C3A 7301   6.632  44.706   7.953
 5318POPC   C4A 7302   6.602  44.635   7.653
 5318POPC   C1B 7303   6.708  44.454   8.553
 5318POPC   C2B 7304   6.774  44.414   8.253
 5318POPC   C3B 7305   6.772  44.400   7.953
 5318POPC   C4B 7306   6.745  44.471   7.653
 5319POPC   NC3 7307  22.905  36.165   9.453
 5319POPC   PO4 7308  22.956  36.105   9.153
 5319POPC   GL1 7309  22.984  36.149   8.853
 5319POPC   GL2 7310  22.860  36.192   8.853
 5319POPC   C1A 7311  22.931  36.096   8.553
 5319POPC   D2A 7312  22.900  36.154   8.253
 5319POPC   C3A 7313  22.970  36.111   7.953
 5319POPC   C4A 7314  22.954  36.089   7.653
 5319POPC   C1B 7315  22.810  36.359   8.553
 5319POPC   C2B 7316  22.772  36.333   8.253
 5319POPC   C3B 7317  22.755  36.290   7.953
 5319POPC   C4B 7318  22.802  36.335   7.653
 5320POPC   NC3 7319  24.476  22.174   9.453
 5320POPC   PO4 7320  24.486  22.161   9.153
 5320POPC   GL1 7321  24.535  22.161   8.853
 5320POPC   GL2 7322  24.423  22.261   8.853
 5320POPC   C1A 7323  24.519  22.134   8.553
 5320POPC   D2A 7324  24.481  22.205   8.253
 5320POPC   C3A 7325  24.498  22.171   7.953
 5320POPC   C4A 7326  24.448  22.207   7.653
 5320POPC   C1B 7327  24.352  22.420   8.553
 5320POPC   C2B 7328  24.406  22.392   8.253
 5320POPC   C3B 7329  24.325  22.352   7.953
 5320POPC   C4B 7330  24.382  22.411   7.653
 5321POPC   NC3 7331  21.429  36.163   9.453
 5321POPC   PO4 7332  21.407  36.177   9.153
 5321POPC   GL1 7333  21.391  36.108   8.853
 5321POPC   GL2 7334  21.320  36.118   8.853
 5321POPC   C1A 7335  21.371  36.119   8.553
 5321POPC   D2A 7336  21.339  36.079   8.253
 5321POPC   C3A 7337  21.372  36.116   7.953
 5321POPC   C4A 7338  21.424  36.150   7.653
 5321POPC   C1B 7339  21.152  36.016   8.553
 5321POPC   C2B 7340  21.119  35.969   8.253
 5321POPC   C3B 7341  21.202  36.004   7.953
 5321POPC   C4B 7342  21.177  35.999   7.653
 5322POPC   NC3 7343  32.987  27.580   9.453
 5322POPC   PO4 7344  32.986  27.611   9.153
 5322POPC   GL1 7345  33.028  27.633   8.853
 5322POPC   GL2 7346  33.135  27.639   8.853
 5322POPC   C1A 7347  33.033  27.630   8.553
 5322POPC   D2A 7348  32.996  27.583   8.253
 5322POPC   C3A 7349  33.051  27.577   7.953
 5322POPC   C4A 7350  33.046  27.555   7.653
 5322POPC   C1B 7351  33.202  27.758   8.553
 5322POPC   C2B 7352  33.270  27.742   8.253
 5322POPC   C3B 7353  33.223  27.688   7.953
 5322POPC   C4B 7354  33.252  27.692   7.653
 5323POPC   NC3 7355  36.901  37.725   9.453
 5323POPC   PO4 7356  36.879  37.666   9.153
 5323POPC   GL1 7357  36.894  37.687   8.853
 5323POPC   GL2 7358  37.043  37.695   8.853
 5323POPC   C1A 7359  36.896  37.686   8.553
 5323POPC   D2A 7360  36.868  37.683   8.253
 5323POPC   C3A 7361  36.947  37.711   7.953
 5323POPC   C4A 7362  36.882  37.719   7.653
 5323POPC   C1B 7363  37.078  37.855   8.553
 5323POPC   C2B 7364  37.098  37.836   8.253
 5323POPC   C3B 7365  37.133  37.837   7.953
 5323POPC   C4B 7366  37.124  37.818   7.653
 5324POPC   NC3 7367  18.235   2.792   9.453
 5324POPC   PO4 7368  18.284   2.813   9.153
 5324POPC   GL1 7369  18.248   2.758   8.853
 5324POPC   GL2 7370  18.183   2.658   8.853
 5324POPC   C1A 7371  18.238   2.751   8.553
 5324POPC   D2A 7372  18.274   2.720   8.253
 5324POPC   C3A 7373  18.303   2.757   7.953
 5324POPC   C4A 7374  18.323   2.739   7.653
 5324POPC   C1B 7375  18.181   2.504   8.553
 5324POPC   C2B 7376  18.156   2.509   8.253
 5324POPC   C3B 7377  18.151   2.547   7.953
 5324POPC   C4B 7378  18.114   2.514   7.653
 5325POPC   NC3 7379  34.573  25.311   9.453
 5325POPC   PO4 7380  34.551  25.304   9.153
 5325POPC   GL1 7381  34.585  25.277   8.853
 5325POPC   GL2 7382  34.720  25.304   8.853
 5325POPC   C1A 7383  34.622  25.238   8.553
 5325POPC   D2A 7384  34.539  25.315   8.253
 5325POPC   C3A 7385  34.601  25.237   7.953
 5325POPC   C4A 7386  34.538  25.242   7.653
 5325POPC   C1B 7387  34.871  25.265   8.553
 5325POPC   C2B 7388  34.872  25.216   8.253
 5325POPC   C3B 7389  34.861  25.228   7.953
 5325POPC   C4B 7390  34.813  25.276   7.653
 5326POPC   NC3 7391  29.136  30.716   9.453
 5326POPC   PO4 7392  29.190  30.704   9.153
 5326POPC   GL1 7393  29.130  30.704   8.853
 5326POPC   GL2 7394  29.260  30.811   8.853
 5326POPC   C1A 7395  29.116  30.673   8.553
 5326POPC   D2A 7396  29.136  30.668   8.253
 5326POPC   C3A 7397  29.144  30.673   7.953
 5326POPC   C4A 7398  29.172  30.725   7.653
 5326POPC   C1B 7399  29.324  30.863   8.553
 5326POPC   C2B 7400  29.345  30.822   8.253
 5326POPC   C3B 7401  29.364  30.901   7.953
 5326POPC   C4B 7402  29.290  30.834   7.653
 5327POPC   NC3 7403  29.125  19.068   9.453
 5327POPC   PO4 7404  29.176  19.020   9.153
 5327POPC   GL1 7405  29.111  19.090   8.853
 5327POPC   GL2 7406  29.247  19.017   8.853
 5327POPC   C1A 7407  29.132  19.070   8.553
 5327POPC   D2A 7408  29.124  19.099   8.253
 5327POPC   C3A 7409  29.103  19.047   7.953
 5327POPC   C4A 7410  29.128  19.024   7.653
 5327POPC   C1B 7411  29.326  18.915   8.553
 5327POPC   C2B 7412  29.286  18.855   8.253
 5327POPC   C3B 7413  29.342  18.930   7.953
 5327POPC   C4B 7414  29.273  18.896   7.653
 5328POPC   NC3 7415  38.473  42.334   9.453
 5328POPC   PO4 7416  38.459  42.318   9.153
 5328POPC   GL1 7417  38.447  42.341   8.853
 5328POPC   GL2 7418  38.535  42.436   8.853
 5328POPC   C1A 7419  38.503  42.384   8.553
 5328POPC   D2A 7420  38.474  42.285   8.253
 5328POPC   C3A 7421  38.442  42.293   7.953
 5328POPC   C4A 7422  38.440  42.364   7.653
 5328POPC   C1B 7423  38.599  42.509   8.553
 5328POPC   C2B 7424  38.608  42.591   8.253
 5328POPC   C3B 7425  38.638  42.516   7.953
 5328POPC   C4B 7426  38.629  42.578   7.653
 5329POPC   NC3 7427  28.377   4.334   9.453
 5329POPC   PO4 7428  28.417   4.366   9.153
 5329POPC   GL1 7429  28.393   4.333   8.853
 5329POPC   GL2 7430  28.376   4.159   8.853
 5329POPC   C1A 7431  28.394   4.361   8.553
 5329POPC   D2A 7432  28.400   4.355   8.253
 5329POPC   C3A 7433  28.404   4.289   7.953
 5329POPC   C4A 7434  28.349   4.279   7.653
 5329POPC   C1B 7435  28.372   4.119   8.553
 5329POPC   C2B 7436  28.328   4.104   8.253
 5329POPC   C3B 7437  28.371   4.037   7.953
 5329POPC   C4B 7438  28.276   4.035   7.653
 5330POPC   NC3 7439  12.061  43.848   9.453
 5330POPC   PO4 7440  12.113  43.876   9.153
 5330POPC   GL1 7441  12.099  43.845   8.853
 5330POPC   GL2 7442  12.214  43.868   8.853
 5330POPC   C1A 7443  12.099  43.922   8.553
 5330POPC   D2A 7444  12.106  43.853   8.253
 5330POPC   C3A 7445  12.044  43.852   7.953
 5330POPC   C4A 7446  12.098  43.922   7.653
 5330POPC   C1B 7447  12.323  43.863   8.553
 5330POPC   C2B 7448  12.348  43.799   8.253
 5330POPC   C3B 7449  12.315  43.853   7.953
 5330POPC   C4B 7450  12.350  43.815   7.653
 5331POPC   NC3 7451   0.390  20.604   9.453
 5331POPC   PO4 7452   0.454  20.646   9.153
 5331POPC   GL1 7453   0.419  20.614   8.853
 5331POPC   GL2 7454   0.532  20.568   8.853
 5331POPC   C1A 7455   0.402  20.613   8.553
 5331POPC   D2A 7456   0.473  20.583   8.253
 5331POPC   C3A 7457   0.433  20.634   7.953
 5331POPC   C4A 7458   0.445  20.593   7.653
 5331POPC   C1B 7459   0.687  20.436   8.553
 5331POPC   C2B 7460   0.605  20.468   8.253
 5331POPC   C3B 7461   0.675  20.500   7.953
 5331POPC   C4B 7462   0.623  20.430   7.653
 5332POPC   NC3 7463  28.344  32.292   9.453
 5332POPC   PO4 7464  28.331  32.213   9.153
 5332POPC   GL1 7465  28.392  32.211   8.853
 5332POPC   GL2 7466  28.413  32.152   8.853
 5332POPC   C1A 7467  28.402  32.228   8.553
 5332POPC   D2A 7468  28.352  32.268   8.253
 5332POPC   C3A 7469  28.415  32.243   7.953
 5332POPC   C4A 7470  28.382  32.259   7.653
 5332POPC   C1B 7471  28.505  31.979   8.553
 5332POPC   C2B 7472  28.432  31.970   8.253
 5332POPC   C3B 7473  28.438  32.016   7.953
 5332POPC   C4B 7474  28.482  32.042   7.653
 5333POPC   NC3 7475  29.957  10.573   9.453
 5333POPC   PO4 7476  29.877  10.547   9.153
 5333POPC   GL1 7477  29.907  10.563   8.853
 5333POPC   GL2 7478  29.920  10.603   8.853
 5333POPC   C1A 7479  29.913  10.573   8.553
 5333POPC   D2A 7480  29.873  10.514   8.253
 5333POPC   C3A 7481  29.968  10.561   7.953
 5333POPC   C4A 7482  29.873  10.549   7.653
 5333POPC   C1B 7483  29.892  10.786   8.553
 5333POPC   C2B 7484  29.879  10.778   8.253
 5333POPC   C3B 7485  29.929  10.758   7.953
 5333POPC   C4B 7486  29.905  10.754   7.653
 5334POPC   NC3 7487  42.374  20.637   9.453
 5334POPC   PO4 7488  42.351  20.571   9.153
 5334POPC   GL1 7489  42.335  20.654   8.853
 5334POPC   GL2 7490  42.443  20.635   8.853
 5334POPC   C1A 7491  42.303  20.646   8.553
 5334POPC   D2A 7492  42.294  20.564   8.253
 5334POPC   C3A 7493  42.326  20.597   7.953
 5334POPC   C4A 7494  42.359  20.565   7.653
 5334POPC   C1B 7495  42.604  20.614   8.553
 5334POPC   C2B 7496  42.542  20.526   8.253
 5334POPC   C3B 7497  42.617  20.553   7.953
 5334POPC   C4B 7498  42.553  20.610   7.653
 5335POPC   NC3 7499   2.015  26.823   9.453
 5335POPC   PO4 7500   1.949  26.793   9.153
 5335POPC   GL1 7501   2.028  26.841   8.853
 5335POPC   GL2 7502   2.098  26.820   8.853
 5335POPC   C1A 7503   2.034  26.835   8.553
 5335POPC   D2A 7504   1.998  26.797   8.253
 5335POPC   C3A 7505   1.958  26.774   7.953
 5335POPC   C4A 7506   1.969  26.806   7.653
 5335POPC   C1B 7507   2.259  26.904   8.553
 5335POPC   C2B 7508   2.231  26.910   8.253
 5335POPC   C3B 7509   2.242  26.868   7.953
 5335POPC   C4B 7510   2.253  26.897   7.653
 5336POPC   NC3 7511  22.931  22.977   9.453
 5336POPC   PO4 7512  22.922  22.967   9.153
 5336POPC   GL1 7513  22.913  22.899   8.853
 5336POPC   GL2 7514  22.900  23.100   8.853
 5336POPC   C1A 7515  22.986  22.912   8.553
 5336POPC   D2A 7516  22.957  22.956   8.253
 5336POPC   C3A 7517  22.907  22.903   7.953
 5336POPC   C4A 7518  22.897  22.983   7.653
 5336POPC   C1B 7519  22.800  23.143   8.553
 5336POPC   C2B 7520  22.827  23.156   8.253
 5336POPC   C3B 7521  22.791  23.151   7.953
 5336POPC   C4B 7522  22.864  23.141   7.653
 5337POPC   NC3 7523  18.319  39.199   9.453
 5337POPC   PO4 7524  18.274  39.228   9.153
 5337POPC   GL1 7525  18.281  39.239   8.853
 5337POPC   GL2 7526  18.184  39.200   8.853
 5337POPC   C1A 7527  18.303  39.235   8.553
 5337POPC   D2A 7528  18.318  39.211   8.253
 5337POPC   C3A 7529  18.280  39.231   7.953
 5337POPC   C4A 7530  18.295  39.269   7.653
 5337POPC   C1B 7531  18.066  39.197   8.553
 5337POPC   C2B 7532  17.984  39.199   8.253
 5337POPC   C3B 7533  18.070  39.235   7.953
 5337POPC   C4B 7534  18.068  39.229   7.653
 5338POPC   NC3 7535  43.084  41.591   9.453
 5338POPC   PO4 7536  43.137  41.596   9.153
 5338POPC   GL1 7537  43.101  41.518   8.853
 5338POPC   GL2 7538  43.016  41.430   8.853
 5338POPC   C1A 7539  43.143  41.579   8.553
 5338POPC   D2A 7540  43.108  41.538   8.253
 5338POPC   C3A 7541  43.159  41.527   7.953
 5338POPC   C4A 7542  43.097  41.509   7.653
 5338POPC   C1B 7543  42.926  41.359   8.553
 5338POPC   C2B 7544  42.921  41.411   8.253
 5338POPC   C3B 7545  42.896  41.382   7.953
 5338POPC   C4B 7546  42.876  41.440   7.653
 5339POPC   NC3 7547  13.667   3.569   9.453
 5339POPC   PO4 7548  13.661   3.505   9.153
 5339POPC   GL1 7549  13.603   3.526   8.853
 5339POPC   GL2 7550  13.533   3.452   8.853
 5339POPC   C1A 7551  13.641   3.540   8.553
 5339POPC   D2A 7552  13.648   3.555   8.253
 5339POPC   C3A 7553  13.668   3.583   7.953
 5339POPC   C4A 7554  13.583   3.504   7.653
 5339POPC   C1B 7555  13.430   3.346   8.553
 5339POPC   C2B 7556  13.485   3.360   8.253
 5339POPC   C3B 7557  13.465   3.347   7.953
 5339POPC   C4B 7558  13.424   3.317   7.653
 5340POPC   NC3 7559  34.599  38.500   9.453
 5340POPC   PO4 7560  34.530  38.405   9.153
 5340POPC   GL1 7561  34.553  38.413   8.853
 5340POPC   GL2 7562  34.490  38.486   8.853
 5340POPC   C1A 7563  34.536  38.430   8.553
 5340POPC   D2A 7564  34.567  38.485   8.253
 5340POPC   C3A 7565  34.567  38.436   7.953
 5340POPC   C4A 7566  34.553  38.459   7.653
 5340POPC   C1B 7567  34.353  38.457   8.553
 5340POPC   C2B 7568  34.338  38.474   8.253
 5340POPC   C3B 7569  34.360  38.464   7.953
 5340POPC   C4B 7570  34.364  38.482   7.653
 5341POPC   NC3 7571  40.814   0.425   9.453
 5341POPC   PO4 7572  40.752   0.400   9.153
 5341POPC   GL1 7573  40.824   0.442   8.853
 5341POPC   GL2 7574  40.957   0.416   8.853
 5341POPC   C1A 7575  40.807   0.392   8.553
 5341POPC   D2A 7576  40.740   0.419   8.253
 5341POPC   C3A 7577  40.794   0.399   7.953
 5341POPC   C4A 7578  40.748   0.429   7.653
 5341POPC   C1B 7579  41.080   0.457   8.553
 5341POPC   C2B 7580  40.993   0.381   8.253
 5341POPC   C3B 7581  40.988   0.465   7.953
 5341POPC   C4B 7582  41.081   0.395   7.653
 5342POPC   NC3 7583   6.614   8.990   9.453
 5342POPC   PO4 7584   6.641   8.975   9.153
 5342POPC   GL1 7585   6.677   9.005   8.853
 5342POPC   GL2 7586   6.611   9.104   8.853
 5342POPC   C1A 7587   6.661   8.947   8.553
 5342POPC   D2A 7588   6.657   9.018   8.253
 5342POPC   C3A 7589   6.620   8.937   7.953
 5342POPC   C4A 7590   6.628   8.952   7.653
 5342POPC   C1B 7591   6.690   9.191   8.553
 5342POPC   C2B 7592   6.601   9.187   8.253
 5342POPC   C3B 7593   6.656   9.180   7.953
 5342POPC   C4B 7594   6.621   9.182   7.653
 5343POPC   NC3 7595   7.388   5.834   9.453
 5343POPC   PO4 7596   7.455   5.888   9.153
 5343POPC   GL1 7597   7.383   5.827   8.853
 5343POPC   GL2 7598   7.487   5.924   8.853
 5343POPC   C1A 7599   7.404   5.897   8.553
 5343POPC   D2A 7600   7.442   5.913   8.253
 5343POPC   C3A 7601   7.470   5.887   7.953
 5343POPC   C4A 7602   7.453   5.853   7.653
 5343POPC   C1B 7603   7.636   6.018   8.553
 5343POPC   C2B 7604   7.640   6.045   8.253
 5343POPC   C3B 7605   7.570   6.050   7.953
 5343POPC   C4B 7606   7.606   6.005   7.653
 5344POPC   NC3 7607   5.878  32.285   9.453
 5344POPC   PO4 7608   5.866  32.224   9.153
 5344POPC   GL1 7609   5.883  32.251   8.853
 5344POPC   GL2 7610   5.740  32.276   8.853
 5344POPC   C1A 7611   5.843  32.231   8.553
 5344POPC   D2A 7612   5.915  32.267   8.253
 5344POPC   C3A 7613   5.843  32.279   7.953
 5344POPC   C4A 7614   5.907  32.267   7.653
 5344POPC   C1B 7615   5.670  32.181   8.553
 5344POPC   C2B 7616   5.577  32.171   8.253
 5344POPC   C3B 7617   5.665  32.225   7.953
 5344POPC   C4B 7618   5.582  32.253   7.653
 5345POPC   NC3 7619  12.892  11.264   9.453
 5345POPC   PO4 7620  12.848  11.338   9.153
 5345POPC   GL1 7621  12.864  11.269   8.853
 5345POPC   GL2 7622  12.989  11.336   8.853
 5345POPC   C1A 7623  12.829  11.294   8.553
 5345POPC   D2A 7624  12.830  11.252   8.253
 5345POPC   C3A 7625  12.823  11.346   7.953
 5345POPC   C4A 7626  12.828  11.319   7.653
 5345POPC   C1B 7627  13.073  11.484   8.553
 5345POPC   C2B 7628  13.095  11.501   8.253
 5345POPC   C3B 7629  13.060  11.444   7.953
 5345POPC   C4B 7630  13.012  11.427   7.653
 5346POPC   NC3 7631   2.772   1.220   9.453
 5346POPC   PO4 7632   2.767   1.231   9.153
 5346POPC   GL1 7633   2.718   1.165   8.853
 5346POPC   GL2 7634   2.856   1.139   8.853
 5346POPC   C1A 7635   2.719   1.202   8.553
 5346POPC   D2A 7636   2.805   1.206   8.253
 5346POPC   C3A 7637   2.770   1.175   7.953
 5346POPC   C4A 7638   2.749   1.221   7.653
 5346POPC   C1B 7639   3.056   1.189   8.553
 5346POPC   C2B 7640   3.029   1.182   8.253
 5346POPC   C3B 7641   2.971   1.128   7.953
 5346POPC   C4B 7642   2.993   1.192   7.653
 5347POPC   NC3 7643  41.516  44.668   9.453
 5347POPC   PO4 7644  41.572  44.646   9.153
 5347POPC   GL1 7645  41.559  44.655   8.853
 5347POPC   GL2 7646  41.478  44.697   8.853
 5347POPC   C1A 7647  41.552  44.684   8.553
 5347POPC   D2A 7648  41.560  44.676   8.253
 5347POPC   C3A 7649  41.540  44.687   7.953
 5347POPC   C4A 7650  41.572  44.662   7.653
 5347POPC   C1B 7651  41.313  44.606   8.553
 5347POPC   C2B 7652  41.312  44.629   8.253
 5347POPC   C3B 7653  41.350  44.660   7.953
 5347POPC   C4B 7654  41.304  44.627   7.653
 5348POPC   NC3 7655   4.322   8.230   9.453
 5348POPC   PO4 7656   4.303   8.200   9.153
 5348POPC   GL1 7657   4.350   8.176   8.853
 5348POPC   GL2 7658   4.387   8.107   8.853
 5348POPC   C1A 7659   4.268   8.193   8.553
 5348POPC   D2A 7660   4.318   8.189   8.253
 5348POPC   C3A 7661   4.276   8.174   7.953
 5348POPC   C4A 7662   4.303   8.229   7.653
 5348POPC   C1B 7663   4.414   7.948   8.553
 5348POPC   C2B 7664   4.403   7.914   8.253
 5348POPC   C3B 7665   4.408   7.970   7.953
 5348POPC   C4B 7666   4.400   8.008   7.653
 5349POPC   NC3 7667  39.278  29.903   9.453
 5349POPC   PO4 7668  39.213  29.872   9.153
 5349POPC   GL1 7669  39.189  29.906   8.853
 5349POPC   GL2 7670  39.131  29.922   8.853
 5349POPC   C1A 7671  39.256  29.876   8.553
 5349POPC   D2A 7672  39.192  29.901   8.253
 5349POPC   C3A 7673  39.190  29.887   7.953
 5349POPC   C4A 7674  39.271  29.912   7.653
 5349POPC   C1B 7675  39.024  29.970   8.553
 5349POPC   C2B 7676  38.977  29.932   8.253
 5349POPC   C3B 7677  39.022  29.952   7.953
 5349POPC   C4B 7678  38.936  29.955   7.653
 5350POPC   NC3 7679  15.915  43.145   9.453
 5350POPC   PO4 7680  15.966  43.096   9.153
 5350POPC   GL1 7681  15.961  43.108   8.853
 5350POPC   GL2 7682  16.057  43.010   8.853
 5350POPC   C1A 7683  15.940  43.145   8.553
 5350POPC   D2A 7684  15.946  43.098   8.253
 5350POPC   C3A 7685  15.948  43.072   7.953
 5350POPC   C4A 7686  15.974  43.160   7.653
 5350POPC   C1B 7687  16.060  42.863   8.553
 5350POPC   C2B 7688  16.084  42.940   8.253
 5350POPC   C3B 7689  16.132  42.919   7.953
 5350POPC   C4B 7690  16.088  42.869   7.653
 5351POPC   NC3 7691  24.462  37.718   9.453
 5351POPC   PO4 7692  24.520  37.663   9.153
 5351POPC   GL1 7693  24.454  37.659   8.853
 5351POPC   GL2 7694  24.392  37.790   8.853
 5351POPC   C1A 7695  24.507  37.725   8.553
 5351POPC   D2A 7696  24.521  37.702   8.253
 5351POPC   C3A 7697  24.520  37.688   7.953
 5351POPC   C4A 7698  24.517  37.714   7.653
 5351POPC   C1B 7699  24.360  37.858   8.553
 5351POPC   C2B 7700  24.322  37.881   8.253
 5351POPC   C3B 7701  24.314  37.886   7.953
 5351POPC   C4B 7702  24.267  37.887   7.653
 5352POPC   NC3 7703  20.646  29.939   9.453
 5352POPC   PO4 7704  20.571  29.901   9.153
 5352POPC   GL1 7705  20.572  29.944   8.853
 5352POPC   GL2 7706  20.764  29.867   8.853
 5352POPC   C1A 7707  20.639  29.955   8.553
 5352POPC   D2A 7708  20.654  29.887   8.253
 5352POPC   C3A 7709  20.596  29.940   7.953
 5352POPC   C4A 7710  20.640  29.946   7.653
 5352POPC   C1B 7711  20.777  29.835   8.553
 5352POPC   C2B 7712  20.869  29.781   8.253
 5352POPC   C3B 7713  20.852  29.812   7.953
 5352POPC   C4B 7714  20.792  29.802   7.653
 5353POPC   NC3 7715   2.002   8.992   9.453
 5353POPC   PO4 7716   2.024   8.963   9.153
 5353POPC   GL1 7717   1.971   8.998   8.853
 5353POPC   GL2 7718   1.854   8.921   8.853
 5353POPC   C1A 7719   1.977   8.984   8.553
 5353POPC   D2A 7720   1.953   8.927   8.253
 5353POPC   C3A 7721   2.031   8.966   7.953
 5353POPC   C4A 7722   2.006   8.961   7.653
 5353POPC   C1B 7723   1.758   8.796   8.553
 5353POPC   C2B 7724   1.798   8.768   8.253
 5353POPC   C3B 7725   1.766   8.787   7.953
 5353POPC   C4B 7726   1.831   8.802   7.653
 5354POPC   NC3 7727   3.496  23.692   9.453
 5354POPC   PO4 7728   3.496  23.739   9.153
 5354POPC   GL1 7729   3.582  23.699   8.853
 5354POPC   GL2 7730   3.580  23.639   8.853
 5354POPC   C1A 7731   3.552  23.670   8.553
 5354POPC   D2A 7732   3.504  23.758   8.253
 5354POPC   C3A 7733   3.563  23.714   7.953
 5354POPC   C4A 7734   3.554  23.750   7.653
 5354POPC   C1B 7735   3.562  23.468   8.553
 5354POPC   C2B 7736   3.563  23.474   8.253
 5354POPC   C3B 7737   3.596  23.518   7.953
 5354POPC   C4B 7738   3.549  23.434   7.653
 5355POPC   NC3 7739   2.754   6.688   9.453
 5355POPC   PO4 7740   2.741   6.660   9.153
 5355POPC   GL1 7741   2.727   6.643   8.853
 5355POPC   GL2 7742   2.676   6.803   8.853
 5355POPC   C1A 7743   2.784   6.662   8.553
 5355POPC   D2A 7744   2.781   6.660   8.253
 5355POPC   C3A 7745   2.735   6.671   7.953
 5355POPC   C4A 7746   2.767   6.616   7.653
 5355POPC   C1B 7747   2.668   6.891   8.553
 5355POPC   C2B 7748   2.670   6.881   8.253
 5355POPC   C3B 7749   2.707   6.866   7.953
 5355POPC   C4B 7750   2.702   6.831   7.653
 5356POPC   NC3 7751   3.555  29.176   9.453
 5356POPC   PO4 7752   3.557  29.150   9.153
 5356POPC   GL1 7753   3.586  29.119   8.853
 5356POPC   GL2 7754   3.699  29.106   8.853
 5356POPC   C1A 7755   3.580  29.146   8.553
 5356POPC   D2A 7756   3.573  29.114   8.253
 5356POPC   C3A 7757   3.556  29.105   7.953
 5356POPC   C4A 7758   3.546  29.105   7.653
 5356POPC   C1B 7759   3.823  29.132   8.553
 5356POPC   C2B 7760   3.755  29.135   8.253
 5356POPC   C3B 7761   3.825  29.116   7.953
 5356POPC   C4B 7762   3.835  29.145   7.653
 5357POPC   NC3 7763  31.512  17.484   9.453
 5357POPC   PO4 7764  31.517  17.553   9.153
 5357POPC   GL1 7765  31.448  17.551   8.853
 5357POPC   GL2 7766  31.341  17.415   8.853
 5357POPC   C1A 7767  31.427  17.466   8.553
 5357POPC   D2A 7768  31.462  17.505   8.253
 5357POPC   C3A 7769  31.509  17.517   7.953
 5357POPC   C4A 7770  31.452  17.464   7.653
 5357POPC   C1B 7771  31.226  17.352   8.553
 5357POPC   C2B 7772  31.277  17.368   8.253
 5357POPC   C3B 7773  31.267  17.413   7.953
 5357POPC   C4B 7774  31.242  17.438   7.653
 5358POPC   NC3 7775  34.615  18.331   9.453
 5358POPC   PO4 7776  34.567  18.298   9.153
 5358POPC   GL1 7777  34.531  18.315   8.853
 5358POPC   GL2 7778  34.512  18.365   8.853
 5358POPC   C1A 7779  34.567  18.247   8.553
 5358POPC   D2A 7780  34.590  18.252   8.253
 5358POPC   C3A 7781  34.552  18.242   7.953
 5358POPC   C4A 7782  34.584  18.280   7.653
 5358POPC   C1B 7783  34.435  18.480   8.553
 5358POPC   C2B 7784  34.488  18.502   8.253
 5358POPC   C3B 7785  34.418  18.490   7.953
 5358POPC   C4B 7786  34.400  18.539   7.653
 5359POPC   NC3 7787  17.469  20.608   9.453
 5359POPC   PO4 7788  17.481  20.589   9.153
 5359POPC   GL1 7789  17.497  20.580   8.853
 5359POPC   GL2 7790  17.638  20.578   8.853
 5359POPC   C1A 7791  17.499  20.657   8.553
 5359POPC   D2A 7792  17.540  20.606   8.253
 5359POPC   C3A 7793  17.551  20.633   7.953
 5359POPC   C4A 7794  17.485  20.622   7.653
 5359POPC   C1B 7795  17.744  20.467   8.553
 5359POPC   C2B 7796  17.697  20.460   8.253
 5359POPC   C3B 7797  17.682  20.462   7.953
 5359POPC   C4B 7798  17.769  20.522   7.653
 5360POPC   NC3 7799  29.927  32.201   9.453
 5360POPC   PO4 7800  29.924  32.283   9.153
 5360POPC   GL1 7801  29.880  32.245   8.853
 5360POPC   GL2 7802  29.935  32.136   8.853
 5360POPC   C1A 7803  29.893  32.292   8.553
 5360POPC   D2A 7804  29.913  32.235   8.253
 5360POPC   C3A 7805  29.948  32.239   7.953
 5360POPC   C4A 7806  29.939  32.248   7.653
 5360POPC   C1B 7807  29.863  32.043   8.553
 5360POPC   C2B 7808  29.861  32.048   8.253
 5360POPC   C3B 7809  29.843  31.973   7.953
 5360POPC   C4B 7810  29.878  31.963   7.653
 5361POPC   NC3 7811  36.165  43.098   9.453
 5361POPC   PO4 7812  36.102  43.060   9.153
 5361POPC   GL1 7813  36.121  43.137   8.853
 5361POPC   GL2 7814  36.149  42.972   8.853
 5361POPC   C1A 7815  36.111  43.121   8.553
 5361POPC   D2A 7816  36.143  43.067   8.253
 5361POPC   C3A 7817  36.158  43.078   7.953
 5361POPC   C4A 7818  36.078  43.151   7.653
 5361POPC   C1B 7819  36.133  42.846   8.553
 5361POPC   C2B 7820  36.126  42.858   8.253
 5361POPC   C3B 7821  36.165  42.812   7.953
 5361POPC   C4B 7822  36.146  42.872   7.653
 5362POPC   NC3 7823  39.243  35.400   9.453
 5362POPC   PO4 7824  39.213  35.306   9.153
 5362POPC   GL1 7825  39.192  35.377   8.853
 5362POPC   GL2 7826  39.183  35.238   8.853
 5362POPC   C1A 7827  39.195  35.350   8.553
 5362POPC   D2A 7828  39.265  35.321   8.253
 5362POPC   C3A 7829  39.229  35.351   7.953
 5362POPC   C4A 7830  39.190  35.394   7.653
 5362POPC   C1B 7831  39.120  35.097   8.553
 5362POPC   C2B 7832  39.137  35.132   8.253
 5362POPC   C3B 7833  39.042  35.155   7.953
 5362POPC   C4B 7834  39.137  35.102   7.653
 5363POPC   NC3 7835  43.885  19.851   9.453
 5363POPC   PO4 7836  43.861  19.847   9.153
 5363POPC   GL1 7837  43.902  19.881   8.853
 5363POPC   GL2 7838  43.976  19.846   8.853
 5363POPC   C1A 7839  43.908  19.845   8.553
 5363POPC   D2A 7840  43.841  19.828   8.253
 5363POPC   C3A 7841  43.914  19.844   7.953
 5363POPC   C4A 7842  43.906  19.803   7.653
 5363POPC   C1B 7843  44.077  19.924   8.553
 5363POPC   C2B 7844  44.103  19.997   8.253
 5363POPC   C3B 7845  44.080  19.983   7.953
 5363POPC   C4B 7846  44.120  19.985   7.653
 5364POPC   NC3 7847   4.288  41.525   9.453
 5364POPC   PO4 7848   4.304  41.576   9.153
 5364POPC   GL1 7849   4.351  41.563   8.853
 5364POPC   GL2 7850   4.189  41.493   8.853
 5364POPC   C1A 7851   4.363  41.511   8.553
 5364POPC   D2A 7852   4.295  41.579   8.253
 5364POPC   C3A 7853   4.277  41.555   7.953
 5364POPC   C4A 7854   4.349  41.556   7.653
 5364POPC   C1B 7855   4.114  41.484   8.553
 5364POPC   C2B 7856   4.062  41.485   8.253
 5364POPC   C3B 7857   4.111  41.513   7.953
 5364POPC   C4B 7858   4.084  41.465   7.653
 5365POPC   NC3 7859  42.337  36.950   9.453
 5365POPC   PO4 7860  42.381  36.923   9.153
 5365POPC   GL1 7861  42.340  36.949   8.853
 5365POPC   GL2 7862  42.374  36.770   8.853
 5365POPC   C1A 7863  42.362  36.874   8.553
 5365POPC   D2A 7864  42.323  36.925   8.253
 5365POPC   C3A 7865  42.306  36.880   7.953
 5365POPC   C4A 7866  42.297  36.854   7.653
 5365POPC   C1B 7867  42.322  36.610   8.553
 5365POPC   C2B 7868  42.349  36.697   8.253
 5365POPC   C3B 7869  42.335  36.680   7.953
 5365POPC   C4B 7870  42.295  36.648   7.653
 5366POPC   NC3 7871  22.208  31.483   9.453
 5366POPC   PO4 7872  22.142  31.449   9.153
 5366POPC   GL1 7873  22.166  31.446   8.853
 5366POPC   GL2 7874  22.188  31.357   8.853
 5366POPC   C1A 7875  22.194  31.522   8.553
 5366POPC   D2A 7876  22.196  31.462   8.253
 5366POPC   C3A 7877  22.197  31.444   7.953
 5366POPC   C4A 7878  22.160  31.477   7.653
 5366POPC   C1B 7879  22.236  31.261   8.553
 5366POPC   C2B 7880  22.248  31.269   8.253
 5366POPC   C3B 7881  22.235  31.242   7.953
 5366POPC   C4B 7882  22.294  31.219   7.653
 5367POPC   NC3 7883  10.511  17.494   9.453
 5367POPC   PO4 7884  10.479  17.468   9.153
 5367POPC   GL1 7885  10.510  17.482   8.853
 5367POPC   GL2 7886  10.447  17.613   8.853
 5367POPC   C1A 7887  10.551  17.476   8.553
 5367POPC   D2A 7888  10.511  17.488   8.253
 5367POPC   C3A 7889  10.554  17.548   7.953
 5367POPC   C4A 7890  10.505  17.535   7.653
 5367POPC   C1B 7891  10.462  17.743   8.553
 5367POPC   C2B 7892  10.509  17.755   8.253
 5367POPC   C3B 7893  10.512  17.715   7.953
 5367POPC   C4B 7894  10.491  17.713   7.653
 5368POPC   NC3 7895   2.035   5.072   9.453
 5368POPC   PO4 7896   1.949   5.080   9.153
 5368POPC   GL1 7897   2.002   5.062   8.853
 5368POPC   GL2 7898   1.837   5.079   8.853
 5368POPC   C1A 7899   1.997   5.065   8.553
 5368POPC   D2A 7900   1.959   5.088   8.253
 5368POPC   C3A 7901   2.023   5.070   7.953
 5368POPC   C4A 7902   2.039   5.088   7.653
 5368POPC   C1B 7903   1.708   5.134   8.553
 5368POPC   C2B 7904   1.762   5.102   8.253
 5368POPC   C3B 7905   1.730   5.102   7.953
 5368POPC   C4B 7906   1.727   5.149   7.653
 5369POPC   NC3 7907  29.182   5.099   9.453
 5369POPC   PO4 7908  29.166   5.120   9.153
 5369POPC   GL1 7909  29.165   5.134   8.853
 5369POPC   GL2 7910  29.302   5.163   8.853
 5369POPC   C1A 7911  29.184   5.075   8.553
 5369POPC   D2A 7912  29.156   5.095   8.253
 5369POPC   C3A 7913  29.101   5.092   7.953
 5369POPC   C4A 7914  29.149   5.064   7.653
 5369POPC   C1B 7915  29.338   5.170   8.553
 5369POPC   C2B 7916  29.390   5.187   8.253
 5369POPC   C3B 7917  29.416   5.210   7.953
 5369POPC   C4B 7918  29.392   5.181   7.653
 5370POPC   NC3 7919   5.825  42.338   9.453
 5370POPC   PO4 7920   5.897  42.285   9.153
 5370POPC   GL1 7921   5.872  42.384   8.853
 5370POPC   GL2 7922   6.031  42.318   8.853
 5370POPC   C1A 7923   5.890  42.291   8.553
 5370POPC   D2A 7924   5.911  42.368   8.253
 5370POPC   C3A 7925   5.828  42.296   7.953
 5370POPC   C4A 7926   5.827  42.365   7.653
 5370POPC   C1B 7927   6.137  42.309   8.553
 5370POPC   C2B 7928   6.139  42.307   8.253
 5370POPC   C3B 7929   6.122  42.282   7.953
 5370POPC   C4B 7930   6.119  42.349   7.653
 5371POPC   NC3 7931  16.708  30.688   9.453
 5371POPC   PO4 7932  16.772  30.681   9.153
 5371POPC   GL1 7933  16.770  30.683   8.853
 5371POPC   GL2 7934  16.807  30.801   8.853
 5371POPC   C1A 7935  16.733  30.740   8.553
 5371POPC   D2A 7936  16.733  30.722   8.253
 5371POPC   C3A 7937  16.713  30.651   7.953
 5371POPC   C4A 7938  16.750  30.733   7.653
 5371POPC   C1B 7939  16.769  30.952   8.553
 5371POPC   C2B 7940  16.830  30.970   8.253
 5371POPC   C3B 7941  16.801  30.948   7.953
 5371POPC   C4B 7942  16.762  30.916   7.653
 5372POPC   NC3 7943   6.651  10.487   9.453
 5372POPC   PO4 7944   6.613  10.519   9.153
 5372POPC   GL1 7945   6.619  10.559   8.853
 5372POPC   GL2 7946   6.767  10.565   8.853
 5372POPC   C1A 7947   6.622  10.477   8.553
 5372POPC   D2A 7948   6.682  10.560   8.253
 5372POPC   C3A 7949   6.645  10.535   7.953
 5372POPC   C4A 7950   6.639  10.505   7.653
 5372POPC   C1B 7951   6.843  10.611   8.553
 5372POPC   C2B 7952   6.845  10.607   8.253
 5372POPC   C3B 7953   6.864  10.566   7.953
 5372POPC   C4B 7954   6.860  10.618   7.653
 5373POPC   NC3 7955   5.837  12.067   9.453
 5373POPC   PO4 7956   5.876  12.062   9.153
 5373POPC   GL1 7957   5.886  12.047   8.853
 5373POPC   GL2 7958   5.991  12.051   8.853
 5373POPC   C1A 7959   5.821  12.090   8.553
 5373POPC   D2A 7960   5.832  12.065   8.253
 5373POPC   C3A 7961   5.820  12.057   7.953
 5373POPC   C4A 7962   5.868  12.029   7.653
 5373POPC   C1B 7963   6.126  12.003   8.553
 5373POPC   C2B 7964   6.106  11.996   8.253
 5373POPC   C3B 7965   6.077  12.046   7.953
 5373POPC   C4B 7966   6.073  11.979   7.653
 5374POPC   NC3 7967  39.264  15.176   9.453
 5374POPC   PO4 7968  39.222  15.217   9.153
 5374POPC   GL1 7969  39.250  15.148   8.853
 5374POPC   GL2 7970  39.227  15.269   8.853
 5374POPC   C1A 7971  39.211  15.163   8.553
 5374POPC   D2A 7972  39.209  15.148   8.253
 5374POPC   C3A 7973  39.243  15.160   7.953
 5374POPC   C4A 7974  39.182  15.138   7.653
 5374POPC   C1B 7975  39.329  15.384   8.553
 5374POPC   C2B 7976  39.329  15.366   8.253
 5374POPC   C3B 7977  39.348  15.464   7.953
 5374POPC   C4B 7978  39.272  15.398   7.653
 5375POPC   NC3 7979  23.718   0.452   9.453
 5375POPC   PO4 7980  23.678   0.453   9.153
 5375POPC   GL1 7981  23.738   0.397   8.853
 5375POPC   GL2 7982  23.661   0.578   8.853
 5375POPC   C1A 7983  23.667   0.456   8.553
 5375POPC   D2A 7984  23.677   0.476   8.253
 5375POPC   C3A 7985  23.702   0.428   7.953
 5375POPC   C4A 7986  23.761   0.470   7.653
 5375POPC   C1B 7987  23.670   0.686   8.553
 5375POPC   C2B 7988  23.635   0.698   8.253
 5375POPC   C3B 7989  23.608   0.638   7.953
 5375POPC   C4B 7990  23.616   0.706   7.653
 5376POPC   NC3 7991  24.537  31.432   9.453
 5376POPC   PO4 7992  24.465  31.481   9.153
 5376POPC   GL1 7993  24.440  31.494   8.853
 5376POPC   GL2 7994  24.599  31.549   8.853
 5376POPC   C1A 7995  24.522  31.435   8.553
 5376POPC   D2A 7996  24.446  31.476   8.253
 5376POPC   C3A 7997  24.448  31.455   7.953
 5376POPC   C4A 7998  24.492  31.518   7.653
 5376POPC   C1B 7999  24.699  31.695   8.553
 5376POPC   C2B 8000  24.651  31.642   8.253
 5376POPC   C3B 8001  24.625  31.700   7.953
 5376POPC   C4B 8002  24.662  31.658   7.653
 5377POPC   NC3 8003   5.845   4.342   9.453
 5377POPC   PO4 8004   5.871   4.307   9.153
 5377POPC   GL1 8005   5.819   4.333   8.853
 5377POPC   GL2 8006   5.803   4.197   8.853
 5377POPC   C1A 8007   5.906   4.284   8.553
 5377POPC   D2A 8008   5.874   4.347   8.253
 5377POPC   C3A 8009   5.905   4.320   7.953
 5377POPC   C4A 8010   5.833   4.327   7.653
 5377POPC   C1B 8011   5.745   4.136   8.553
 5377POPC   C2B 8012   5.731   4.070   8.253
 5377POPC   C3B 8013   5.778   4.067   7.953
 5377POPC   C4B 8014   5.818   4.122   7.653
 5378POPC   NC3 8015  32.256  30.712   9.453
 5378POPC   PO4 8016  32.204  30.742   9.153
 5378POPC   GL1 8017  32.238  30.671   8.853
 5378POPC   GL2 8018  32.255  30.586   8.853
 5378POPC   C1A 8019  32.242  30.676   8.553
 5378POPC   D2A 8020  32.288  30.742   8.253
 5378POPC   C3A 8021  32.236  30.663   7.953
 5378POPC   C4A 8022  32.272  30.663   7.653
 5378POPC   C1B 8023  32.339  30.484   8.553
 5378POPC   C2B 8024  32.248  30.490   8.253
 5378POPC   C3B 8025  32.249  30.479   7.953
 5378POPC   C4B 8026  32.318  30.490   7.653
 5379POPC   NC3 8027   1.200  29.892   9.453
 5379POPC   PO4 8028   1.192  29.925   9.153
 5379POPC   GL1 8029   1.234  29.898   8.853
 5379POPC   GL2 8030   1.304  29.800   8.853
 5379POPC   C1A 8031   1.192  29.959   8.553
 5379POPC   D2A 8032   1.168  29.908   8.253
 5379POPC   C3A 8033   1.173  29.962   7.953
 5379POPC   C4A 8034   1.232  29.941   7.653
 5379POPC   C1B 8035   1.340  29.642   8.553
 5379POPC   C2B 8036   1.275  29.725   8.253
 5379POPC   C3B 8037   1.304  29.716   7.953
 5379POPC   C4B 8038   1.329  29.699   7.653
 5380POPC   NC3 8039  35.378  25.217   9.453
 5380POPC   PO4 8040  35.310  25.233   9.153
 5380POPC   GL1 8041  35.359  25.225   8.853
 5380POPC   GL2 8042  35.456  25.187   8.853
 5380POPC   C1A 8043  35.375  25.233   8.553
 5380POPC   D2A 8044  35.341  25.263   8.253
 5380POPC   C3A 8045  35.310  25.264   7.953
 5380POPC   C4A 8046  35.307  25.259   7.653
 5380POPC   C1B 8047  35.542  25.181   8.553
 5380POPC   C2B 8048  35.564  25.105   8.253
 5380POPC   C3B 8049  35.590  25.190   7.953
 5380POPC   C4B 8050  35.603  25.154   7.653
 5381POPC   NC3 8051  19.047  22.908   9.453
 5381POPC   PO4 8052  19.035  22.963   9.153
 5381POPC   GL1 8053  19.026  22.951   8.853
 5381POPC   GL2 8054  18.951  23.072   8.853
 5381POPC   C1A 8055  19.012  22.914   8.553
 5381POPC   D2A 8056  19.057  22.978   8.253
 5381POPC   C3A 8057  19.046  22.962   7.953
 5381POPC   C4A 8058  19.081  22.968   7.653
 5381POPC   C1B 8059  18.846  23.126   8.553
 5381POPC   C2B 8060  18.845  23.163   8.253
 5381POPC   C3B 8061  18.908  23.133   7.953
 5381POPC   C4B 8062  18.922  23.166   7.653
 5382POPC   NC3 8063  17.508  26.861   9.453
 5382POPC   PO4 8064  17.535  26.782   9.153
 5382POPC   GL1 8065  17.544  26.834   8.853
 5382POPC   GL2 8066  17.664  26.866   8.853
 5382POPC   C1A 8067  17.507  26.780   8.553
 5382POPC   D2A 8068  17.508  26.833   8.253
 5382POPC   C3A 8069  17.519  26.859   7.953
 5382POPC   C4A 8070  17.491  26.814   7.653
 5382POPC   C1B 8071  17.753  26.880   8.553
 5382POPC   C2B 8072  17.700  26.888   8.253
 5382POPC   C3B 8073  17.774  26.872   7.953
 5382POPC   C4B 8074  17.786  26.872   7.653
 5383POPC   NC3 8075  39.199  25.259   9.453
 5383POPC   PO4 8076  39.225  25.262   9.153
 5383POPC   GL1 8077  39.262  25.306   8.853
 5383POPC   GL2 8078  39.263  25.358   8.853
 5383POPC   C1A 8079  39.248  25.228   8.553
 5383POPC   D2A 8080  39.201  25.301   8.253
 5383POPC   C3A 8081  39.241  25.273   7.953
 5383POPC   C4A 8082  39.199  25.314   7.653
 5383POPC   C1B 8083  39.321  25.470   8.553
 5383POPC   C2B 8084  39.346  25.494   8.253
 5383POPC   C3B 8085  39.306  25.522   7.953
 5383POPC   C4B 8086  39.309  25.505   7.653
 5384POPC   NC3 8087  37.688  19.045   9.453
 5384POPC   PO4 8088  37.689  19.015   9.153
 5384POPC   GL1 8089  37.635  19.095   8.853
 5384POPC   GL2 8090  37.828  19.042   8.853
 5384POPC   C1A 8091  37.706  19.027   8.553
 5384POPC   D2A 8092  37.707  19.102   8.253
 5384POPC   C3A 8093  37.694  19.044   7.953
 5384POPC   C4A 8094  37.708  19.028   7.653
 5384POPC   C1B 8095  37.914  19.087   8.553
 5384POPC   C2B 8096  37.917  19.101   8.253
 5384POPC   C3B 8097  37.891  19.038   7.953
 5384POPC   C4B 8098  37.966  19.060   7.653
 5385POPC   NC3 8099  43.116   1.959   9.453
 5385POPC   PO4 8100  43.128   2.009   9.153
 5385POPC   GL1 8101  43.093   1.941   8.853
 5385POPC   GL2 8102  43.274   1.974   8.853
 5385POPC   C1A 8103  43.131   2.012   8.553
 5385POPC   D2A 8104  43.087   1.977   8.253
 5385POPC   C3A 8105  43.129   1.978   7.953
 5385POPC   C4A 8106  43.090   2.008   7.653
 5385POPC   C1B 8107  43.376   1.948   8.553
 5385POPC   C2B 8108  43.356   1.903   8.253
 5385POPC   C3B 8109  43.384   1.960   7.953
 5385POPC   C4B 8110  43.314   1.913   7.653
 5386POPC   NC3 8111  29.164  43.886   9.453
 5386POPC   PO4 8112  29.144  43.864   9.153
 5386POPC   GL1 8113  29.187  43.903   8.853
 5386POPC   GL2 8114  29.189  43.780   8.853
 5386POPC   C1A 8115  29.118  43.917   8.553
 5386POPC   D2A 8116  29.111  43.865   8.253
 5386POPC   C3A 8117  29.103  43.842   7.953
 5386POPC   C4A 8118  29.132  43.905   7.653
 5386POPC   C1B 8119  29.190  43.651   8.553
 5386POPC   C2B 8120  29.147  43.608   8.253
 5386POPC   C3B 8121  29.172  43.604   7.953
 5386POPC   C4B 8122  29.106  43.596   7.653
 5387POPC   NC3 8123  20.651  40.733   9.453
 5387POPC   PO4 8124  20.569  40.760   9.153
 5387POPC   GL1 8125  20.626  40.807   8.853
 5387POPC   GL2 8126  20.529  40.848   8.853
 5387POPC   C1A 8127  20.638  40.788   8.553
 5387POPC   D2A 8128  20.644  40.740   8.253
 5387POPC   C3A 8129  20.608  40.751   7.953
 5387POPC   C4A 8130  20.628  40.800   7.653
 5387POPC   C1B 8131  20.420  40.897   8.553
 5387POPC   C2B 8132  20.438  40.928   8.253
 5387POPC   C3B 8133  20.467  40.950   7.953
 5387POPC   C4B 8134  20.404  40.968   7.653
 5388POPC   NC3 8135   8.237  24.471   9.453
 5388POPC   PO4 8136   8.214  24.511   9.153
 5388POPC   GL1 8137   8.181  24.502   8.853
 5388POPC   GL2 8138   8.160  24.338   8.853
 5388POPC   C1A 8139   8.204  24.486   8.553
 5388POPC   D2A 8140   8.195  24.441   8.253
 5388POPC   C3A 8141   8.232  24.448   7.953
 5388POPC   C4A 8142   8.214  24.454   7.653
 5388POPC   C1B 8143   8.204  24.220   8.553
 5388POPC   C2B 8144   8.232  24.246   8.253
 5388POPC   C3B 8145   8.227  24.238   7.953
 5388POPC   C4B 8146   8.168  24.203   7.653
 5389POPC   NC3 8147  43.082  20.563   9.453
 5389POPC   PO4 8148  43.068  20.584   9.153
 5389POPC   GL1 8149  43.124  20.643   8.853
 5389POPC   GL2 8150  43.144  20.720   8.853
 5389POPC   C1A 8151  43.132  20.646   8.553
 5389POPC   D2A 8152  43.124  20.587   8.253
 5389POPC   C3A 8153  43.087  20.610   7.953
 5389POPC   C4A 8154  43.080  20.591   7.653
 5389POPC   C1B 8155  43.214  20.885   8.553
 5389POPC   C2B 8156  43.220  20.855   8.253
 5389POPC   C3B 8157  43.176  20.809   7.953
 5389POPC   C4B 8158  43.209  20.892   7.653
 5390POPC   NC3 8159  39.280  30.703   9.453
 5390POPC   PO4 8160  39.267  30.702   9.153
 5390POPC   GL1 8161  39.259  30.651   8.853
 5390POPC   GL2 8162  39.140  30.595   8.853
 5390POPC   C1A 8163  39.268  30.661   8.553
 5390POPC   D2A 8164  39.236  30.713   8.253
 5390POPC   C3A 8165  39.192  30.703   7.953
 5390POPC   C4A 8166  39.267  30.677   7.653
 5390POPC   C1B 8167  39.039  30.533   8.553
 5390POPC   C2B 8168  38.990  30.508   8.253
 5390POPC   C3B 8169  39.033  30.519   7.953
 5390POPC   C4B 8170  39.065  30.560   7.653
 5391POPC   NC3 8171  34.570   0.484   9.453
 5391POPC   PO4 8172  34.614   0.415   9.153
 5391POPC   GL1 8173  34.587   0.424   8.853
 5391POPC   GL2 8174  34.653   0.320   8.853
 5391POPC   C1A 8175  34.574   0.478   8.553
 5391POPC   D2A 8176  34.616   0.425   8.253
 5391POPC   C3A 8177  34.571   0.400   7.953
 5391POPC   C4A 8178  34.538   0.394   7.653
 5391POPC   C1B 8179  34.651   0.246   8.553
 5391POPC   C2B 8180  34.649   0.208   8.253
 5391POPC   C3B 8181  34.664   0.234   7.953
 5391POPC   C4B 8182  34.637   0.177   7.653
 5392POPC   NC3 8183  23.734  11.325   9.453
 5392POPC   PO4 8184  23.689  11.346   9.153
 5392POPC   GL1 8185  23.679  11.325   8.853
 5392POPC   GL2 8186  23.559  11.305   8.853
 5392POPC   C1A 8187  23.761  11.261   8.553
 5392POPC   D2A 8188  23.680  11.299   8.253
 5392POPC   C3A 8189  23.683  11.286   7.953
 5392POPC   C4A 8190  23.749  11.312   7.653
 5392POPC   C1B 8191  23.466  11.372   8.553
 5392POPC   C2B 8192  23.485  11.387   8.253
 5392POPC   C3B 8193  23.506  11.441   7.953
 5392POPC   C4B 8194  23.478  11.436   7.653
 5393POPC   NC3 8195   6.691   9.711   9.453
 5393POPC   PO4 8196   6.673   9.745   9.153
 5393POPC   GL1 8197   6.666   9.772   8.853
 5393POPC   GL2 8198   6.757   9.825   8.853
 5393POPC   C1A 8199   6.621   9.784   8.553
 5393POPC   D2A 8200   6.632   9.765   8.253
 5393POPC   C3A 8201   6.626   9.702   7.953
 5393POPC   C4A 8202   6.628   9.779   7.653
 5393POPC   C1B 8203   6.850   9.809   8.553
 5393POPC   C2B 8204   6.839   9.803   8.253
 5393POPC   C3B 8205   6.870   9.834   7.953
 5393POPC   C4B 8206   6.873   9.834   7.653
 5394POPC   NC3 8207   1.942  22.195   9.453
 5394POPC   PO4 8208   2.010  22.164   9.153
 5394POPC   GL1 8209   2.007  22.194   8.853
 5394POPC   GL2 8210   1.869  22.238   8.853
 5394POPC   C1A 8211   2.021  22.187   8.553
 5394POPC   D2A 8212   1.986  22.158   8.253
 5394POPC   C3A 8213   1.982  22.114   7.953
 5394POPC   C4A 8214   2.022  22.165   7.653
 5394POPC   C1B 8215   1.818  22.304   8.553
 5394POPC   C2B 8216   1.796  22.273   8.253
 5394POPC   C3B 8217   1.812  22.345   7.953
 5394POPC   C4B 8218   1.814  22.323   7.653
 5395POPC   NC3 8219  15.151   9.012   9.453
 5395POPC   PO4 8220  15.185   8.939   9.153
 5395POPC   GL1 8221  15.146   8.992   8.853
 5395POPC   GL2 8222  15.301   8.949   8.853
 5395POPC   C1A 8223  15.158   8.956   8.553
 5395POPC   D2A 8224  15.165   8.990   8.253
 5395POPC   C3A 8225  15.192   8.968   7.953
 5395POPC   C4A 8226  15.182   8.980   7.653
 5395POPC   C1B 8227  15.400   8.921   8.553
 5395POPC   C2B 8228  15.427   8.971   8.253
 5395POPC   C3B 8229  15.412   8.939   7.953
 5395POPC   C4B 8230  15.469   8.928   7.653
 5396POPC   NC3 8231  26.858  32.998   9.453
 5396POPC   PO4 8232  26.867  33.029   9.153
 5396POPC   GL1 8233  26.772  33.003   8.853
 5396POPC   GL2 8234  26.906  32.969   8.853
 5396POPC   C1A 8235  26.814  33.037   8.553
 5396POPC   D2A 8236  26.859  33.026   8.253
 5396POPC   C3A 8237  26.782  33.028   7.953
 5396POPC   C4A 8238  26.798  33.026   7.653
 5396POPC   C1B 8239  27.081  32.965   8.553
 5396POPC   C2B 8240  27.055  32.929   8.253
 5396POPC   C3B 8241  27.048  32.950   7.953
 5396POPC   C4B 8242  27.044  32.973   7.653
 5397POPC   NC3 8243  29.146  36.086   9.453
 5397POPC   PO4 8244  29.172  36.120   9.153
 5397POPC   GL1 8245  29.153  36.091   8.853
 5397POPC   GL2 8246  29.056  36.055   8.853
 5397POPC   C1A 8247  29.163  36.104   8.553
 5397POPC   D2A 8248  29.159  36.149   8.253
 5397POPC   C3A 8249  29.159  36.102   7.953
 5397POPC   C4A 8250  29.160  36.175   7.653
 5397POPC   C1B 8251  29.049  35.895   8.553
 5397POPC   C2B 8252  29.024  35.951   8.253
 5397POPC   C3B 8253  29.051  35.877   7.953
 5397POPC   C4B 8254  28.975  35.932   7.653
 5398POPC   NC3 8255  13.665  17.556   9.453
 5398POPC   PO4 8256  13.676  17.527   9.153
 5398POPC   GL1 8257  13.603  17.489   8.853
 5398POPC   GL2 8258  13.475  17.432   8.853
 5398POPC   C1A 8259  13.586  17.474   8.553
 5398POPC   D2A 8260  13.580  17.522   8.253
 5398POPC   C3A 8261  13.667  17.552   7.953
 5398POPC   C4A 8262  13.617  17.463   7.653
 5398POPC   C1B 8263  13.397  17.370   8.553
 5398POPC   C2B 8264  13.378  17.425   8.253
 5398POPC   C3B 8265  13.420  17.345   7.953
 5398POPC   C4B 8266  13.384  17.387   7.653
 5399POPC   NC3 8267  30.729  14.379   9.453
 5399POPC   PO4 8268  30.715  14.384   9.153
 5399POPC   GL1 8269  30.698  14.401   8.853
 5399POPC   GL2 8270  30.742  14.562   8.853
 5399POPC   C1A 8271  30.712  14.425   8.553
 5399POPC   D2A 8272  30.720  14.390   8.253
 5399POPC   C3A 8273  30.715  14.448   7.953
 5399POPC   C4A 8274  30.721  14.405   7.653
 5399POPC   C1B 8275  30.771  14.603   8.553
 5399POPC   C2B 8276  30.771  14.626   8.253
 5399POPC   C3B 8277  30.740  14.663   7.953
 5399POPC   C4B 8278  30.741  14.620   7.653
 5400POPC   NC3 8279  42.365  43.150   9.453
 5400POPC   PO4 8280  42.361  43.146   9.153
 5400POPC   GL1 8281  42.322  43.113   8.853
 5400POPC   GL2 8282  42.466  43.066   8.853
 5400POPC   C1A 8283  42.359  43.139   8.553
 5400POPC   D2A 8284  42.349  43.141   8.253
 5400POPC   C3A 8285  42.313  43.073   7.953
 5400POPC   C4A 8286  42.347  43.132   7.653
 5400POPC   C1B 8287  42.580  43.134   8.553
 5400POPC   C2B 8288  42.591  43.091   8.253
 5400POPC   C3B 8289  42.540  43.107   7.953
 5400POPC   C4B 8290  42.590  43.038   7.653
 5401POPC   NC3 8291   9.720  21.434   9.453
 5401POPC   PO4 8292   9.794  21.412   9.153
 5401POPC   GL1 8293   9.703  21.398   8.853
 5401POPC   GL2 8294   9.680  21.517   8.853
 5401POPC   C1A 8295   9.795  21.407   8.553
 5401POPC   D2A 8296   9.792  21.360   8.253
 5401POPC   C3A 8297   9.767  21.365   7.953
 5401POPC   C4A 8298   9.756  21.418   7.653
 5401POPC   C1B 8299   9.582  21.541   8.553
 5401POPC   C2B 8300   9.568  21.601   8.253
 5401POPC   C3B 8301   9.621  21.560   7.953
 5401POPC   C4B 8302   9.616  21.566   7.653
 5402POPC   NC3 8303  33.821  12.116   9.453
 5402POPC   PO4 8304  33.808  12.106   9.153
 5402POPC   GL1 8305  33.813  12.083   8.853
 5402POPC   GL2 8306  33.930  11.969   8.853
 5402POPC   C1A 8307  33.805  12.105   8.553
 5402POPC   D2A 8308  33.777  12.066   8.253
 5402POPC   C3A 8309  33.763  12.095   7.953
 5402POPC   C4A 8310  33.840  12.061   7.653
 5402POPC   C1B 8311  33.946  11.927   8.553
 5402POPC   C2B 8312  33.977  11.896   8.253
 5402POPC   C3B 8313  34.022  11.926   7.953
 5402POPC   C4B 8314  33.989  11.921   7.653
 5403POPC   NC3 8315   2.721   9.770   9.453
 5403POPC   PO4 8316   2.790   9.775   9.153
 5403POPC   GL1 8317   2.758   9.782   8.853
 5403POPC   GL2 8318   2.757   9.614   8.853
 5403POPC   C1A 8319   2.758   9.760   8.553
 5403POPC   D2A 8320   2.776   9.729   8.253
 5403POPC   C3A 8321   2.802   9.760   7.953
 5403POPC   C4A 8322   2.721   9.742   7.653
 5403POPC   C1B 8323   2.746   9.498   8.553
 5403POPC   C2B 8324   2.741   9.515   8.253
 5403POPC   C3B 8325   2.744   9.473   7.953
 5403POPC   C4B 8326   2.776   9.537   7.653
 5404POPC   NC3 8327  24.500   5.840   9.453
 5404POPC   PO4 8328  24.488   5.916   9.153
 5404POPC   GL1 8329  24.488   5.852   8.853
 5404POPC   GL2 8330  24.605   5.909   8.853
 5404POPC   C1A 8331  24.523   5.890   8.553
 5404POPC   D2A 8332  24.494   5.860   8.253
 5404POPC   C3A 8333  24.462   5.858   7.953
 5404POPC   C4A 8334  24.506   5.911   7.653
 5404POPC   C1B 8335  24.672   6.090   8.553
 5404POPC   C2B 8336  24.632   6.021   8.253
 5404POPC   C3B 8337  24.708   6.017   7.953
 5404POPC   C4B 8338  24.658   5.993   7.653
 5405POPC   NC3 8339  31.520  12.076   9.453
 5405POPC   PO4 8340  31.474  12.114   9.153
 5405POPC   GL1 8341  31.508  12.046   8.853
 5405POPC   GL2 8342  31.430  12.173   8.853
 5405POPC   C1A 8343  31.483  12.043   8.553
 5405POPC   D2A 8344  31.443  12.120   8.253
 5405POPC   C3A 8345  31.520  12.121   7.953
 5405POPC   C4A 8346  31.427  12.110   7.653
 5405POPC   C1B 8347  31.412  12.294   8.553
 5405POPC   C2B 8348  31.390  12.361   8.253
 5405POPC   C3B 8349  31.380  12.288   7.953
 5405POPC   C4B 8350  31.392  12.332   7.653
 5406POPC   NC3 8351  40.025   0.479   9.453
 5406POPC   PO4 8352  40.009   0.453   9.153
 5406POPC   GL1 8353  39.957   0.420   8.853
 5406POPC   GL2 8354  39.889   0.351   8.853
 5406POPC   C1A 8355  40.016   0.465   8.553
 5406POPC   D2A 8356  39.973   0.444   8.253
 5406POPC   C3A 8357  39.993   0.474   7.953
 5406POPC   C4A 8358  40.041   0.397   7.653
 5406POPC   C1B 8359  39.834   0.290   8.553
 5406POPC   C2B 8360  39.765   0.284   8.253
 5406POPC   C3B 8361  39.819   0.315   7.953
 5406POPC   C4B 8362  39.776   0.277   7.653
 5407POPC   NC3 8363  33.798  16.759   9.453
 5407POPC   PO4 8364  33.820  16.707   9.153
 5407POPC   GL1 8365  33.792  16.746   8.853
 5407POPC   GL2 8366  33.878  16.686   8.853
 5407POPC   C1A 8367  33.812  16.713   8.553
 5407POPC   D2A 8368  33.813  16.781   8.253
 5407POPC   C3A 8369  33.821  16.763   7.953
 5407POPC   C4A 8370  33.797  16.730   7.653
 5407POPC   C1B 8371  34.003  16.685   8.553
 5407POPC   C2B 8372  34.013  16.700   8.253
 5407POPC   C3B 8373  34.006  16.611   7.953
 5407POPC   C4B 8374  34.078  16.616   7.653
 5408POPC   NC3 8375  39.186  36.921   9.453
 5408POPC   PO4 8376  39.224  36.858   9.153
 5408POPC   GL1 8377  39.214  36.899   8.853
 5408POPC   GL2 8378  39.264  37.039   8.853
 5408POPC   C1A 8379  39.251  36.920   8.553
 5408POPC   D2A 8380  39.190  36.902   8.253
 5408POPC   C3A 8381  39.219  36.942   7.953
 5408POPC   C4A 8382  39.224  36.874   7.653
 5408POPC   C1B 8383  39.196  37.164   8.553
 5408POPC   C2B 8384  39.192  37.110   8.253
 5408POPC   C3B 8385  39.239  37.201   7.953
 5408POPC   C4B 8386  39.187  37.141   7.653
 5409POPC   NC3 8387  34.618   3.585   9.453
 5409POPC   PO4 8388  34.600   3.502   9.153
 5409POPC   GL1 8389  34.543   3.563   8.853
 5409POPC   GL2 8390  34.602   3.388   8.853
 5409POPC   C1A 8391  34.585   3.579   8.553
 5409POPC   D2A 8392  34.540   3.504   8.253
 5409POPC   C3A 8393  34.548   3.503   7.953
 5409POPC   C4A 8394  34.594   3.541   7.653
 5409POPC   C1B 8395  34.623   3.248   8.553
 5409POPC   C2B 8396  34.586   3.285   8.253
 5409POPC   C3B 8397  34.554   3.255   7.953
 5409POPC   C4B 8398  34.547   3.271   7.653
 5410POPC   NC3 8399  26.859  16.719   9.453
 5410POPC   PO4 8400  26.829  16.692   9.153
 5410POPC   GL1 8401  26.814  16.753   8.853
 5410POPC   GL2 8402  26.703  16.693   8.853
 5410POPC   C1A 8403  26.844  16.704   8.553
 5410POPC   D2A 8404  26.863  16.755   8.253
 5410POPC   C3A 8405  26.828  16.763   7.953
 5410POPC   C4A 8406  26.810  16.751   7.653
 5410POPC   C1B 8407  26.554  16.594   8.553
 5410POPC   C2B 8408  26.622  16.594   8.253
 5410POPC   C3B 8409  26.627  16.643   7.953
 5410POPC   C4B 8410  26.633  16.631   7.653
 5411POPC   NC3 8411   6.625  27.619   9.453
 5411POPC   PO4 8412   6.678  27.586   9.153
 5411POPC   GL1 8413   6.694  27.585   8.853
 5411POPC   GL2 8414   6.714  27.433   8.853
 5411POPC   C1A 8415   6.632  27.580   8.553
 5411POPC   D2A 8416   6.682  27.597   8.253
 5411POPC   C3A 8417   6.649  27.631   7.953
 5411POPC   C4A 8418   6.659  27.593   7.653
 5411POPC   C1B 8419   6.744  27.396   8.553
 5411POPC   C2B 8420   6.746  27.331   8.253
 5411POPC   C3B 8421   6.766  27.369   7.953
 5411POPC   C4B 8422   6.687  27.319   7.653
 5412POPC   NC3 8423  26.795   8.211   9.453
 5412POPC   PO4 8424  26.854   8.230   9.153
 5412POPC   GL1 8425  26.825   8.147   8.853
 5412POPC   GL2 8426  26.932   8.234   8.853
 5412POPC   C1A 8427  26.775   8.200   8.553
 5412POPC   D2A 8428  26.865   8.198   8.253
 5412POPC   C3A 8429  26.770   8.234   7.953
 5412POPC   C4A 8430  26.793   8.233   7.653
 5412POPC   C1B 8431  27.018   8.279   8.553
 5412POPC   C2B 8432  27.049   8.267   8.253
 5412POPC   C3B 8433  27.057   8.262   7.953
 5412POPC   C4B 8434  27.060   8.302   7.653
 5413POPC   NC3 8435  44.672  24.523   9.453
 5413POPC   PO4 8436  44.653  24.490   9.153
 5413POPC   GL1 8437  44.659  24.504   8.853
 5413POPC   GL2 8438  44.670  24.618   8.853
 5413POPC   C1A 8439  44.697  24.483   8.553
 5413POPC   D2A 8440  44.695  24.475   8.253
 5413POPC   C3A 8441  44.645  24.519   7.953
 5413POPC   C4A 8442  44.674  24.485   7.653
 5413POPC   C1B 8443  44.673  24.688   8.553
 5413POPC   C2B 8444  44.584  24.723   8.253
 5413POPC   C3B 8445  44.649  24.693   7.953
 5413POPC   C4B 8446  44.676  24.782   7.653
 5414POPC   NC3 8447  41.580  17.530   9.453
 5414POPC   PO4 8448  41.583  17.535   9.153
 5414POPC   GL1 8449  41.605  17.550   8.853
 5414POPC   GL2 8450  41.566  17.361   8.853
 5414POPC   C1A 8451  41.582  17.513   8.553
 5414POPC   D2A 8452  41.599  17.491   8.253
 5414POPC   C3A 8453  41.522  17.527   7.953
 5414POPC   C4A 8454  41.515  17.534   7.653
 5414POPC   C1B 8455  41.581  17.246   8.553
 5414POPC   C2B 8456  41.513  17.288   8.253
 5414POPC   C3B 8457  41.498  17.273   7.953
 5414POPC   C4B 8458  41.556  17.274   7.653
 5415POPC   NC3 8459   4.319  19.794   9.453
 5415POPC   PO4 8460   4.354  19.827   9.153
 5415POPC   GL1 8461   4.296  19.800   8.853
 5415POPC   GL2 8462   4.353  19.713   8.853
 5415POPC   C1A 8463   4.305  19.850   8.553
 5415POPC   D2A 8464   4.318  19.881   8.253
 5415POPC   C3A 8465   4.334  19.821   7.953
 5415POPC   C4A 8466   4.325  19.790   7.653
 5415POPC   C1B 8467   4.344  19.626   8.553
 5415POPC   C2B 8468   4.300  19.547   8.253
 5415POPC   C3B 8469   4.277  19.587   7.953
 5415POPC   C4B 8470   4.331  19.593   7.653
 5416POPC   NC3 8471  38.459  34.600   9.453
 5416POPC   PO4 8472  38.495  34.617   9.153
 5416POPC   GL1 8473  38.478  34.612   8.853
 5416POPC   GL2 8474  38.448  34.438   8.853
 5416POPC   C1A 8475  38.455  34.596   8.553
 5416POPC   D2A 8476  38.496  34.607   8.253
 5416POPC   C3A 8477  38.436  34.543   7.953
 5416POPC   C4A 8478  38.442  34.586   7.653
 5416POPC   C1B 8479  38.387  34.279   8.553
 5416POPC   C2B 8480  38.397  34.315   8.253
 5416POPC   C3B 8481  38.418  34.298   7.953
 5416POPC   C4B 8482  38.434  34.336   7.653
 5417POPC   NC3 8483  39.206  31.432   9.453
 5417POPC   PO4 8484  39.183  31.442   9.153
 5417POPC   GL1 8485  39.278  31.445   8.853
 5417POPC   GL2 8486  39.356  31.365   8.853
 5417POPC   C1A 8487  39.215  31.482   8.553
 5417POPC   D2A 8488  39.215  31.499   8.253
 5417POPC   C3A 8489  39.199  31.455   7.953
 5417POPC   C4A 8490  39.233  31.472   7.653
 5417POPC   C1B 8491  39.367  31.294   8.553
 5417POPC   C2B 8492  39.367  31.231   8.253
 5417POPC   C3B 8493  39.395  31.243   7.953
 5417POPC   C4B 8494  39.407  31.282   7.653
 5418POPC   NC3 8495   1.968  16.001   9.453
 5418POPC   PO4 8496   1.954  15.964   9.153
 5418POPC   GL1 8497   1.998  15.988   8.853
 5418POPC   GL2 8498   2.142  15.948   8.853
 5418POPC   C1A 8499   1.983  15.939   8.553
 5418POPC   D2A 8500   1.942  15.915   8.253
 5418POPC   C3A 8501   2.013  15.982   7.953
 5418POPC   C4A 8502   1.996  15.943   7.653
 5418POPC   C1B 8503   2.229  15.897   8.553
 5418POPC   C2B 8504   2.201  15.866   8.253
 5418POPC   C3B 8505   2.218  15.898   7.953
 5418POPC   C4B 8506   2.262  15.906   7.653
 5419POPC   NC3 8507  26.045  11.287   9.453
 5419POPC   PO4 8508  26.053  11.292   9.153
 5419POPC   GL1 8509  25.997  11.342   8.853
 5419POPC   GL2 8510  26.126  11.369   8.853
 5419POPC   C1A 8511  26.016  11.295   8.553
 5419POPC   D2A 8512  26.090  11.303   8.253
 5419POPC   C3A 8513  26.058  11.326   7.953
 5419POPC   C4A 8514  26.088  11.309   7.653
 5419POPC   C1B 8515  26.140  11.513   8.553
 5419POPC   C2B 8516  26.202  11.527   8.253
 5419POPC   C3B 8517  26.205  11.542   7.953
 5419POPC   C4B 8518  26.228  11.497   7.653
 5420POPC   NC3 8519  33.801  39.232   9.453
 5420POPC   PO4 8520  33.811  39.237   9.153
 5420POPC   GL1 8521  33.821  39.268   8.853
 5420POPC   GL2 8522  33.687  39.251   8.853
 5420POPC   C1A 8523  33.754  39.187   8.553
 5420POPC   D2A 8524  33.817  39.243   8.253
 5420POPC   C3A 8525  33.759  39.274   7.953
 5420POPC   C4A 8526  33.828  39.199   7.653
 5420POPC   C1B 8527  33.503  39.271   8.553
 5420POPC   C2B 8528  33.525  39.250   8.253
 5420POPC   C3B 8529  33.595  39.233   7.953
 5420POPC   C4B 8530  33.520  39.232   7.653
 5421POPC   NC3 8531  12.032   1.258   9.453
 5421POPC   PO4 8532  12.040   1.206   9.153
 5421POPC   GL1 8533  12.073   1.255   8.853
 5421POPC   GL2 8534  12.124   1.074   8.853
 5421POPC   C1A 8535  12.119   1.230   8.553
 5421POPC   D2A 8536  12.073   1.222   8.253
 5421POPC   C3A 8537  12.070   1.187   7.953
 5421POPC   C4A 8538  12.061   1.168   7.653
 5421POPC   C1B 8539  12.128   0.944   8.553
 5421POPC   C2B 8540  12.052   1.012   8.253
 5421POPC   C3B 8541  12.094   1.002   7.953
 5421POPC   C4B 8542  12.085   0.948   7.653
 5422POPC   NC3 8543  17.554  17.473   9.453
 5422POPC   PO4 8544  17.502  17.517   9.153
 5422POPC   GL1 8545  17.530  17.462   8.853
 5422POPC   GL2 8546  17.555  17.667   8.853
 5422POPC   C1A 8547  17.470  17.538   8.553
 5422POPC   D2A 8548  17.471  17.533   8.253
 5422POPC   C3A 8549  17.461  17.464   7.953
 5422POPC   C4A 8550  17.500  17.547   7.653
 5422POPC   C1B 8551  17.497  17.719   8.553
 5422POPC   C2B 8552  17.532  17.757   8.253
 5422POPC   C3B 8553  17.524  17.753   7.953
 5422POPC   C4B 8554  17.487  17.806   7.653
 5423POPC   NC3 8555  39.197  43.123   9.453
 5423POPC   PO4 8556  39.220  43.095   9.153
 5423POPC   GL1 8557  39.222  43.111   8.853
 5423POPC   GL2 8558  39.276  43.057   8.853
 5423POPC   C1A 8559  39.215  43.119   8.553
 5423POPC   D2A 8560  39.277  43.103   8.253
 5423POPC   C3A 8561  39.213  43.156   7.953
 5423POPC   C4A 8562  39.189  43.075   7.653
 5423POPC   C1B 8563  39.364  42.889   8.553
 5423POPC   C2B 8564  39.389  42.865   8.253
 5423POPC   C3B 8565  39.358  42.871   7.953
 5423POPC   C4B 8566  39.381  42.877   7.653
 5424POPC   NC3 8567   8.152   1.228   9.453
 5424POPC   PO4 8568   8.235   1.203   9.153
 5424POPC   GL1 8569   8.234   1.261   8.853
 5424POPC   GL2 8570   8.050   1.289   8.853
 5424POPC   C1A 8571   8.221   1.220   8.553
 5424POPC   D2A 8572   8.163   1.211   8.253
 5424POPC   C3A 8573   8.184   1.207   7.953
 5424POPC   C4A 8574   8.185   1.182   7.653
 5424POPC   C1B 8575   7.973   1.262   8.553
 5424POPC   C2B 8576   7.999   1.242   8.253
 5424POPC   C3B 8577   7.948   1.257   7.953
 5424POPC   C4B 8578   7.959   1.323   7.653
 5425POPC   NC3 8579  18.331   3.493   9.453
 5425POPC   PO4 8580  18.238   3.529   9.153
 5425POPC   GL1 8581  18.308   3.500   8.853
 5425POPC   GL2 8582  18.301   3.649   8.853
 5425POPC   C1A 8583  18.300   3.575   8.553
 5425POPC   D2A 8584  18.255   3.555   8.253
 5425POPC   C3A 8585  18.299   3.556   7.953
 5425POPC   C4A 8586  18.243   3.525   7.653
 5425POPC   C1B 8587  18.327   3.733   8.553
 5425POPC   C2B 8588  18.330   3.754   8.253
 5425POPC   C3B 8589  18.406   3.738   7.953
 5425POPC   C4B 8590  18.402   3.791   7.653
 5426POPC   NC3 8591   2.748  32.248   9.453
 5426POPC   PO4 8592   2.740  32.290   9.153
 5426POPC   GL1 8593   2.793  32.291   8.853
 5426POPC   GL2 8594   2.667  32.365   8.853
 5426POPC   C1A 8595   2.786  32.199   8.553
 5426POPC   D2A 8596   2.763  32.248   8.253
 5426POPC   C3A 8597   2.774  32.224   7.953
 5426POPC   C4A 8598   2.786  32.218   7.653
 5426POPC   C1B 8599   2.662  32.487   8.553
 5426POPC   C2B 8600   2.676  32.501   8.253
 5426POPC   C3B 8601   2.617  32.505   7.953
 5426POPC   C4B 8602   2.686  32.441   7.653
 5427POPC   NC3 8603  38.421  13.583   9.453
 5427POPC   PO4 8604  38.408  13.598   9.153
 5427POPC   GL1 8605  38.451  13.596   8.853
 5427POPC   GL2 8606  38.472  13.717   8.853
 5427POPC   C1A 8607  38.482  13.628   8.553
 5427POPC   D2A 8608  38.434  13.645   8.253
 5427POPC   C3A 8609  38.445  13.592   7.953
 5427POPC   C4A 8610  38.505  13.643   7.653
 5427POPC   C1B 8611  38.627  13.887   8.553
 5427POPC   C2B 8612  38.619  13.826   8.253
 5427POPC   C3B 8613  38.592  13.858   7.953
 5427POPC   C4B 8614  38.616  13.872   7.653
 5428POPC   NC3 8615  25.227  43.063   9.453
 5428POPC   PO4 8616  25.252  43.097   9.153
 5428POPC   GL1 8617  25.267  43.080   8.853
 5428POPC   GL2 8618  25.412  43.139   8.853
 5428POPC   C1A 8619  25.238  43.068   8.553
 5428POPC   D2A 8620  25.232  43.115   8.253
 5428POPC   C3A 8621  25.286  43.125   7.953
 5428POPC   C4A 8622  25.253  43.150   7.653
 5428POPC   C1B 8623  25.494  43.216   8.553
 5428POPC   C2B 8624  25.499  43.226   8.253
 5428POPC   C3B 8625  25.493  43.239   7.953
 5428POPC   C4B 8626  25.474  43.287   7.653
 5429POPC   NC3 8627  23.710  19.877   9.453
 5429POPC   PO4 8628  23.750  19.845   9.153
 5429POPC   GL1 8629  23.673  19.876   8.853
 5429POPC   GL2 8630  23.788  19.850   8.853
 5429POPC   C1A 8631  23.723  19.817   8.553
 5429POPC   D2A 8632  23.720  19.794   8.253
 5429POPC   C3A 8633  23.722  19.843   7.953
 5429POPC   C4A 8634  23.728  19.844   7.653
 5429POPC   C1B 8635  23.961  19.913   8.553
 5429POPC   C2B 8636  23.989  19.921   8.253
 5429POPC   C3B 8637  23.938  19.829   7.953
 5429POPC   C4B 8638  23.984  19.847   7.653
 5430POPC   NC3 8639  41.561  39.991   9.453
 5430POPC   PO4 8640  41.548  40.019   9.153
 5430POPC   GL1 8641  41.586  40.048   8.853
 5430POPC   GL2 8642  41.620  39.885   8.853
 5430POPC   C1A 8643  41.595  39.994   8.553
 5430POPC   D2A 8644  41.510  40.023   8.253
 5430POPC   C3A 8645  41.513  40.014   7.953
 5430POPC   C4A 8646  41.557  39.989   7.653
 5430POPC   C1B 8647  41.705  39.808   8.553
 5430POPC   C2B 8648  41.708  39.780   8.253
 5430POPC   C3B 8649  41.743  39.789   7.953
 5430POPC   C4B 8650  41.697  39.838   7.653
 5431POPC   NC3 8651  16.745  33.769   9.453
 5431POPC   PO4 8652  16.706  33.800   9.153
 5431POPC   GL1 8653  16.716  33.811   8.853
 5431POPC   GL2 8654  16.668  33.649   8.853
 5431POPC   C1A 8655  16.751  33.793   8.553
 5431POPC   D2A 8656  16.717  33.815   8.253
 5431POPC   C3A 8657  16.723  33.792   7.953
 5431POPC   C4A 8658  16.761  33.821   7.653
 5431POPC   C1B 8659  16.711  33.569   8.553
 5431POPC   C2B 8660  16.618  33.522   8.253
 5431POPC   C3B 8661  16.637  33.596   7.953
 5431POPC   C4B 8662  16.687  33.543   7.653
 5432POPC   NC3 8663  44.656  41.526   9.453
 5432POPC   PO4 8664  44.632  41.528   9.153
 5432POPC   GL1 8665  44.628  41.523   8.853
 5432POPC   GL2 8666  44.738  41.399   8.853
 5432POPC   C1A 8667  44.711  41.593   8.553
 5432POPC   D2A 8668  44.624  41.514   8.253
 5432POPC   C3A 8669  44.630  41.538   7.953
 5432POPC   C4A 8670  44.658  41.532   7.653
 5432POPC   C1B 8671  44.748  41.307   8.553
 5432POPC   C2B 8672  44.757  41.355   8.253
 5432POPC   C3B 8673  44.746  41.293   7.953
 5432POPC   C4B 8674  44.745  41.367   7.653
 5433POPC   NC3 8675   4.285  14.367   9.453
 5433POPC   PO4 8676   4.312  14.427   9.153
 5433POPC   GL1 8677   4.290  14.369   8.853
 5433POPC   GL2 8678   4.447  14.369   8.853
 5433POPC   C1A 8679   4.306  14.395   8.553
 5433POPC   D2A 8680   4.358  14.427   8.253
 5433POPC   C3A 8681   4.305  14.387   7.953
 5433POPC   C4A 8682   4.316  14.364   7.653
 5433POPC   C1B 8683   4.532  14.252   8.553
 5433POPC   C2B 8684   4.497  14.269   8.253
 5433POPC   C3B 8685   4.531  14.207   7.953
 5433POPC   C4B 8686   4.492  14.201   7.653
 5434POPC   NC3 8687  22.927  33.840   9.453
 5434POPC   PO4 8688  22.899  33.843   9.153
 5434POPC   GL1 8689  22.983  33.818   8.853
 5434POPC   GL2 8690  22.812  33.774   8.853
 5434POPC   C1A 8691  22.891  33.819   8.553
 5434POPC   D2A 8692  22.940  33.751   8.253
 5434POPC   C3A 8693  22.961  33.771   7.953
 5434POPC   C4A 8694  22.908  33.770   7.653
 5434POPC   C1B 8695  22.761  33.669   8.553
 5434POPC   C2B 8696  22.676  33.706   8.253
 5434POPC   C3B 8697  22.744  33.718   7.953
 5434POPC   C4B 8698  22.745  33.641   7.653
 5435POPC   NC3 8699   2.030  34.623   9.453
 5435POPC   PO4 8700   2.019  34.580   9.153
 5435POPC   GL1 8701   2.015  34.527   8.853
 5435POPC   GL2 8702   1.955  34.418   8.853
 5435POPC   C1A 8703   1.972  34.559   8.553
 5435POPC   D2A 8704   2.030  34.599   8.253
 5435POPC   C3A 8705   2.008  34.588   7.953
 5435POPC   C4A 8706   1.994  34.594   7.653
 5435POPC   C1B 8707   1.984  34.292   8.553
 5435POPC   C2B 8708   2.033  34.345   8.253
 5435POPC   C3B 8709   2.009  34.349   7.953
 5435POPC   C4B 8710   2.053  34.300   7.653
 5436POPC   NC3 8711  42.331  42.323   9.453
 5436POPC   PO4 8712  42.301  42.313   9.153
 5436POPC   GL1 8713  42.338  42.381   8.853
 5436POPC   GL2 8714  42.179  42.285   8.853
 5436POPC   C1A 8715  42.300  42.306   8.553
 5436POPC   D2A 8716  42.311  42.333   8.253
 5436POPC   C3A 8717  42.373  42.297   7.953
 5436POPC   C4A 8718  42.375  42.353   7.653
 5436POPC   C1B 8719  42.113  42.289   8.553
 5436POPC   C2B 8720  42.108  42.278   8.253
 5436POPC   C3B 8721  42.084  42.259   7.953
 5436POPC   C4B 8722  42.112  42.258   7.653
 5437POPC   NC3 8723  38.436  22.172   9.453
 5437POPC   PO4 8724  38.449  22.128   9.153
 5437POPC   GL1 8725  38.442  22.181   8.853
 5437POPC   GL2 8726  38.550  22.205   8.853
 5437POPC   C1A 8727  38.480  22.121   8.553
 5437POPC   D2A 8728  38.465  22.174   8.253
 5437POPC   C3A 8729  38.482  22.191   7.953
 5437POPC   C4A 8730  38.485  22.141   7.653
 5437POPC   C1B 8731  38.625  22.363   8.553
 5437POPC   C2B 8732  38.651  22.300   8.253
 5437POPC   C3B 8733  38.614  22.336   7.953
 5437POPC   C4B 8734  38.613  22.323   7.653
 5438POPC   NC3 8735  29.966  24.496   9.453
 5438POPC   PO4 8736  29.955  24.525   9.153
 5438POPC   GL1 8737  29.872  24.445   8.853
 5438POPC   GL2 8738  29.842  24.329   8.853
 5438POPC   C1A 8739  29.881  24.456   8.553
 5438POPC   D2A 8740  29.936  24.451   8.253
 5438POPC   C3A 8741  29.901  24.449   7.953
 5438POPC   C4A 8742  29.902  24.443   7.653
 5438POPC   C1B 8743  29.791  24.275   8.553
 5438POPC   C2B 8744  29.847  24.254   8.253
 5438POPC   C3B 8745  29.778  24.311   7.953
 5438POPC   C4B 8746  29.760  24.237   7.653
 5439POPC   NC3 8747  16.707  23.700   9.453
 5439POPC   PO4 8748  16.715  23.718   9.153
 5439POPC   GL1 8749  16.724  23.682   8.853
 5439POPC   GL2 8750  16.852  23.759   8.853
 5439POPC   C1A 8751  16.707  23.713   8.553
 5439POPC   D2A 8752  16.774  23.760   8.253
 5439POPC   C3A 8753  16.772  23.716   7.953
 5439POPC   C4A 8754  16.718  23.739   7.653
 5439POPC   C1B 8755  16.933  23.871   8.553
 5439POPC   C2B 8756  16.894  23.897   8.253
 5439POPC   C3B 8757  16.901  23.919   7.953
 5439POPC   C4B 8758  16.963  23.908   7.653
 5440POPC   NC3 8759  34.593  32.269   9.453
 5440POPC   PO4 8760  34.582  32.295   9.153
 5440POPC   GL1 8761  34.571  32.198   8.853
 5440POPC   GL2 8762  34.670  32.319   8.853
 5440POPC   C1A 8763  34.583  32.208   8.553
 5440POPC   D2A 8764  34.611  32.251   8.253
 5440POPC   C3A 8765  34.537  32.281   7.953
 5440POPC   C4A 8766  34.559  32.238   7.653
 5440POPC   C1B 8767  34.816  32.288   8.553
 5440POPC   C2B 8768  34.794  32.257   8.253
 5440POPC   C3B 8769  34.866  32.321   7.953
 5440POPC   C4B 8770  34.802  32.321   7.653
 5441POPC   NC3 8771   0.478  26.826   9.453
 5441POPC   PO4 8772   0.424  26.772   9.153
 5441POPC   GL1 8773   0.483  26.837   8.853
 5441POPC   GL2 8774   0.542  26.744   8.853
 5441POPC   C1A 8775   0.415  26.794   8.553
 5441POPC   D2A 8776   0.398  26.855   8.253
 5441POPC   C3A 8777   0.399  26.794   7.953
 5441POPC   C4A 8778   0.427  26.866   7.653
 5441POPC   C1B 8779   0.673  26.649   8.553
 5441POPC   C2B 8780   0.677  26.676   8.253
 5441POPC   C3B 8781   0.675  26.702   7.953
 5441POPC   C4B 8782   0.617  26.686   7.653
 5442POPC   NC3 8783  33.796  32.998   9.453
 5442POPC   PO4 8784  33.803  33.037   9.153
 5442POPC   GL1 8785  33.825  32.985   8.853
 5442POPC   GL2 8786  33.916  33.022   8.853
 5442POPC   C1A 8787  33.806  33.012   8.553
 5442POPC   D2A 8788  33.784  33.051   8.253
 5442POPC   C3A 8789  33.807  33.072   7.953
 5442POPC   C4A 8790  33.792  33.068   7.653
 5442POPC   C1B 8791  34.071  32.990   8.553
 5442POPC   C2B 8792  34.057  32.926   8.253
 5442POPC   C3B 8793  34.010  32.933   7.953
 5442POPC   C4B 8794  34.077  32.987   7.653
 5443POPC   NC3 8795  19.109  35.400   9.453
 5443POPC   PO4 8796  19.016  35.379   9.153
 5443POPC   GL1 8797  19.044  35.321   8.853
 5443POPC   GL2 8798  18.945  35.359   8.853
 5443POPC   C1A 8799  19.059  35.368   8.553
 5443POPC   D2A 8800  19.075  35.390   8.253
 5443POPC   C3A 8801  19.054  35.342   7.953
 5443POPC   C4A 8802  19.013  35.319   7.653
 5443POPC   C1B 8803  18.766  35.292   8.553
 5443POPC   C2B 8804  18.835  35.360   8.253
 5443POPC   C3B 8805  18.806  35.349   7.953
 5443POPC   C4B 8806  18.781  35.298   7.653
 5444POPC   NC3 8807  33.791  29.193   9.453
 5444POPC   PO4 8808  33.768  29.120   9.153
 5444POPC   GL1 8809  33.806  29.166   8.853
 5444POPC   GL2 8810  33.665  29.091   8.853
 5444POPC   C1A 8811  33.787  29.187   8.553
 5444POPC   D2A 8812  33.773  29.107   8.253
 5444POPC   C3A 8813  33.821  29.130   7.953
 5444POPC   C4A 8814  33.836  29.113   7.653
 5444POPC   C1B 8815  33.525  29.100   8.553
 5444POPC   C2B 8816  33.602  29.125   8.253
 5444POPC   C3B 8817  33.597  29.153   7.953
 5444POPC   C4B 8818  33.584  29.078   7.653
 5445POPC   NC3 8819  11.291  15.203   9.453
 5445POPC   PO4 8820  11.348  15.198   9.153
 5445POPC   GL1 8821  11.314  15.155   8.853
 5445POPC   GL2 8822  11.185  15.246   8.853
 5445POPC   C1A 8823  11.285  15.130   8.553
 5445POPC   D2A 8824  11.325  15.130   8.253
 5445POPC   C3A 8825  11.267  15.166   7.953
 5445POPC   C4A 8826  11.328  15.209   7.653
 5445POPC   C1B 8827  11.075  15.379   8.553
 5445POPC   C2B 8828  11.094  15.357   8.253
 5445POPC   C3B 8829  11.089  15.356   7.953
 5445POPC   C4B 8830  11.136  15.297   7.653
 5446POPC   NC3 8831  29.137  24.530   9.453
 5446POPC   PO4 8832  29.162  24.482   9.153
 5446POPC   GL1 8833  29.149  24.470   8.853
 5446POPC   GL2 8834  29.249  24.592   8.853
 5446POPC   C1A 8835  29.129  24.471   8.553
 5446POPC   D2A 8836  29.102  24.471   8.253
 5446POPC   C3A 8837  29.150  24.513   7.953
 5446POPC   C4A 8838  29.150  24.491   7.653
 5446POPC   C1B 8839  29.314  24.692   8.553
 5446POPC   C2B 8840  29.250  24.685   8.253
 5446POPC   C3B 8841  29.262  24.733   7.953
 5446POPC   C4B 8842  29.296  24.741   7.653
 5447POPC   NC3 8843  43.853  30.657   9.453
 5447POPC   PO4 8844  43.848  30.674   9.153
 5447POPC   GL1 8845  43.844  30.700   8.853
 5447POPC   GL2 8846  43.917  30.763   8.853
 5447POPC   C1A 8847  43.926  30.706   8.553
 5447POPC   D2A 8848  43.875  30.745   8.253
 5447POPC   C3A 8849  43.882  30.680   7.953
 5447POPC   C4A 8850  43.913  30.682   7.653
 5447POPC   C1B 8851  43.974  30.859   8.553
 5447POPC   C2B 8852  44.069  30.931   8.253
 5447POPC   C3B 8853  44.056  30.876   7.953
 5447POPC   C4B 8854  43.998  30.879   7.653
 5448POPC   NC3 8855  31.450   1.992   9.453
 5448POPC   PO4 8856  31.484   2.036   9.153
 5448POPC   GL1 8857  31.501   2.009   8.853
 5448POPC   GL2 8858  31.330   1.898   8.853
 5448POPC   C1A 8859  31.496   1.964   8.553
 5448POPC   D2A 8860  31.425   1.999   8.253
 5448POPC   C3A 8861  31.511   2.035   7.953
 5448POPC   C4A 8862  31.484   1.990   7.653
 5448POPC   C1B 8863  31.315   1.845   8.553
 5448POPC   C2B 8864  31.237   1.852   8.253
 5448POPC   C3B 8865  31.312   1.850   7.953
 5448POPC   C4B 8866  31.264   1.815   7.653
 5449POPC   NC3 8867  22.973  17.491   9.453
 5449POPC   PO4 8868  22.923  17.540   9.153
 5449POPC   GL1 8869  22.947  17.518   8.853
 5449POPC   GL2 8870  22.990  17.409   8.853
 5449POPC   C1A 8871  22.908  17.535   8.553
 5449POPC   D2A 8872  22.957  17.503   8.253
 5449POPC   C3A 8873  22.948  17.535   7.953
 5449POPC   C4A 8874  22.898  17.478   7.653
 5449POPC   C1B 8875  23.160  17.307   8.553
 5449POPC   C2B 8876  23.156  17.381   8.253
 5449POPC   C3B 8877  23.103  17.299   7.953
 5449POPC   C4B 8878  23.124  17.381   7.653
 5450POPC   NC3 8879   5.110  26.088   9.453
 5450POPC   PO4 8880   5.135  26.048   9.153
 5450POPC   GL1 8881   5.116  26.083   8.853
 5450POPC   GL2 8882   5.112  26.112   8.853
 5450POPC   C1A 8883   5.054  26.003   8.553
 5450POPC   D2A 8884   5.108  26.053   8.253
 5450POPC   C3A 8885   5.135  26.057   7.953
 5450POPC   C4A 8886   5.064  26.080   7.653
 5450POPC   C1B 8887   5.247  26.293   8.553
 5450POPC   C2B 8888   5.203  26.317   8.253
 5450POPC   C3B 8889   5.240  26.298   7.953
 5450POPC   C4B 8890   5.213  26.313   7.653
 5451POPC   NC3 8891  31.467   5.084   9.453
 5451POPC   PO4 8892  31.447   5.125   9.153
 5451POPC   GL1 8893  31.491   5.058   8.853
 5451POPC   GL2 8894  31.394   4.958   8.853
 5451POPC   C1A 8895  31.495   5.131   8.553
 5451POPC   D2A 8896  31.457   5.107   8.253
 5451POPC   C3A 8897  31.455   5.084   7.953
 5451POPC   C4A 8898  31.435   5.131   7.653
 5451POPC   C1B 8899  31.274   4.929   8.553
 5451POPC   C2B 8900  31.325   4.885   8.253
 5451POPC   C3B 8901  31.279   4.936   7.953
 5451POPC   C4B 8902  31.347   4.886   7.653
 5452POPC   NC3 8903  40.738  41.551   9.453
 5452POPC   PO4 8904  40.734  41.512   9.153
 5452POPC   GL1 8905  40.804  41.599   8.853
 5452POPC   GL2 8906  40.632  41.630   8.853
 5452POPC   C1A 8907  40.781  41.606   8.553
 5452POPC   D2A 8908  40.821  41.558   8.253
 5452POPC   C3A 8909  40.788  41.545   7.953
 5452POPC   C4A 8910  40.746  41.536   7.653
 5452POPC   C1B 8911  40.558  41.674   8.553
 5452POPC   C2B 8912  40.566  41.662   8.253
 5452POPC   C3B 8913  40.534  41.663   7.953
 5452POPC   C4B 8914  40.589  41.666   7.653
 5453POPC   NC3 8915   8.946  43.857   9.453
 5453POPC   PO4 8916   9.003  43.932   9.153
 5453POPC   GL1 8917   8.927  43.849   8.853
 5453POPC   GL2 8918   9.018  43.969   8.853
 5453POPC   C1A 8919   9.010  43.881   8.553
 5453POPC   D2A 8920   9.018  43.837   8.253
 5453POPC   C3A 8921   8.948  43.839   7.953
 5453POPC   C4A 8922   8.952  43.861   7.653
 5453POPC   C1B 8923   8.945  44.116   8.553
 5453POPC   C2B 8924   9.019  44.087   8.253
 5453POPC   C3B 8925   8.964  44.146   7.953
 5453POPC   C4B 8926   8.947  44.135   7.653
 5454POPC   NC3 8927  31.476  43.077   9.453
 5454POPC   PO4 8928  31.480  43.116   9.153
 5454POPC   GL1 8929  31.499  43.070   8.853
 5454POPC   GL2 8930  31.465  42.960   8.853
 5454POPC   C1A 8931  31.439  43.064   8.553
 5454POPC   D2A 8932  31.436  43.103   8.253
 5454POPC   C3A 8933  31.435  43.087   7.953
 5454POPC   C4A 8934  31.430  43.099   7.653
 5454POPC   C1B 8935  31.468  42.903   8.553
 5454POPC   C2B 8936  31.489  42.912   8.253
 5454POPC   C3B 8937  31.469  42.900   7.953
 5454POPC   C4B 8938  31.401  42.832   7.653
 5455POPC   NC3 8939   6.629  19.873   9.453
 5455POPC   PO4 8940   6.674  19.873   9.153
 5455POPC   GL1 8941   6.633  19.813   8.853
 5455POPC   GL2 8942   6.582  19.967   8.853
 5455POPC   C1A 8943   6.686  19.833   8.553
 5455POPC   D2A 8944   6.607  19.796   8.253
 5455POPC   C3A 8945   6.690  19.835   7.953
 5455POPC   C4A 8946   6.655  19.827   7.653
 5455POPC   C1B 8947   6.591  20.096   8.553
 5455POPC   C2B 8948   6.646  20.067   8.253
 5455POPC   C3B 8949   6.562  20.035   7.953
 5455POPC   C4B 8950   6.657  20.094   7.653
 5456POPC   NC3 8951   8.227  29.950   9.453
 5456POPC   PO4 8952   8.148  29.969   9.153
 5456POPC   GL1 8953   8.223  29.941   8.853
 5456POPC   GL2 8954   8.169  29.837   8.853
 5456POPC   C1A 8955   8.226  29.882   8.553
 5456POPC   D2A 8956   8.154  29.893   8.253
 5456POPC   C3A 8957   8.186  29.932   7.953
 5456POPC   C4A 8958   8.191  29.924   7.653
 5456POPC   C1B 8959   8.028  29.749   8.553
 5456POPC   C2B 8960   8.046  29.740   8.253
 5456POPC   C3B 8961   8.092  29.712   7.953
 5456POPC   C4B 8962   8.079  29.662   7.653
 5457POPC   NC3 8963  43.130  19.857   9.453
 5457POPC   PO4 8964  43.159  19.786   9.153
 5457POPC   GL1 8965  43.079  19.810   8.853
 5457POPC   GL2 8966  43.032  19.707   8.853
 5457POPC   C1A 8967  43.138  19.872   8.553
 5457POPC   D2A 8968  43.097  19.853   8.253
 5457POPC   C3A 8969  43.080  19.848   7.953
 5457POPC   C4A 8970  43.117  19.829   7.653
 5457POPC   C1B 8971  42.994  19.615   8.553
 5457POPC   C2B 8972  43.025  19.642   8.253
 5457POPC   C3B 8973  43.011  19.636   7.953
 5457POPC   C4B 8974  43.024  19.644   7.653
 5458POPC   NC3 8975  43.138  24.515   9.453
 5458POPC   PO4 8976  43.099  24.467   9.153
 5458POPC   GL1 8977  43.113  24.511   8.853
 5458POPC   GL2 8978  43.077  24.635   8.853
 5458POPC   C1A 8979  43.088  24.447   8.553
 5458POPC   D2A 8980  43.093  24.445   8.253
 5458POPC   C3A 8981  43.155  24.475   7.953
 5458POPC   C4A 8982  43.091  24.456   7.653
 5458POPC   C1B 8983  42.917  24.660   8.553
 5458POPC   C2B 8984  42.942  24.667   8.253
 5458POPC   C3B 8985  42.933  24.709   7.953
 5458POPC   C4B 8986  42.920  24.697   7.653
 5459POPC   NC3 8987  36.140   2.751   9.453
 5459POPC   PO4 8988  36.114   2.746   9.153
 5459POPC   GL1 8989  36.117   2.745   8.853
 5459POPC   GL2 8990  36.003   2.876   8.853
 5459POPC   C1A 8991  36.144   2.782   8.553
 5459POPC   D2A 8992  36.082   2.790   8.253
 5459POPC   C3A 8993  36.143   2.720   7.953
 5459POPC   C4A 8994  36.160   2.716   7.653
 5459POPC   C1B 8995  35.992   2.976   8.553
 5459POPC   C2B 8996  35.965   2.907   8.253
 5459POPC   C3B 8997  35.960   2.900   7.953
 5459POPC   C4B 8998  35.936   2.963   7.653
 5460POPC   NC3 8999  37.641   3.550   9.453
 5460POPC   PO4 9000  37.721   3.559   9.153
 5460POPC   GL1 9001  37.687   3.530   8.853
 5460POPC   GL2 9002  37.680   3.687   8.853
 5460POPC   C1A 9003  37.692   3.579   8.553
 5460POPC   D2A 9004  37.659   3.526   8.253
 5460POPC   C3A 9005  37.631   3.505   7.953
 5460POPC   C4A 9006  37.685   3.573   7.653
 5460POPC   C1B 9007  37.687   3.746   8.553
 5460POPC   C2B 9008  37.736   3.749   8.253
 5460POPC   C3B 9009  37.755   3.772   7.953
 5460POPC   C4B 9010  37.747   3.749   7.653
 5461POPC   NC3 9011   6.661  12.888   9.453
 5461POPC   PO4 9012   6.641  12.880   9.153
 5461POPC   GL1 9013   6.603  12.815   8.853
 5461POPC   GL2 9014   6.579  12.863   8.853
 5461POPC   C1A 9015   6.691  12.875   8.553
 5461POPC   D2A 9016   6.610  12.841   8.253
 5461POPC   C3A 9017   6.622  12.857   7.953
 5461POPC   C4A 9018   6.670  12.900   7.653
 5461POPC   C1B 9019   6.374  12.988   8.553
 5461POPC   C2B 9020   6.426  12.924   8.253
 5461POPC   C3B 9021   6.379  12.978   7.953
 5461POPC   C4B 9022   6.434  12.957   7.653
 5462POPC   NC3 9023  43.905  20.617   9.453
 5462POPC   PO4 9024  43.846  20.619   9.153
 5462POPC   GL1 9025  43.934  20.594   8.853
 5462POPC   GL2 9026  44.010  20.617   8.853
 5462POPC   C1A 9027  43.872  20.595   8.553
 5462POPC   D2A 9028  43.846  20.586   8.253
 5462POPC   C3A 9029  43.881  20.592   7.953
 5462POPC   C4A 9030  43.881  20.628   7.653
 5462POPC   C1B 9031  44.136  20.644   8.553
 5462POPC   C2B 9032  44.135  20.654   8.253
 5462POPC   C3B 9033  44.146  20.641   7.953
 5462POPC   C4B 9034  44.111  20.609   7.653
 5463POPC   NC3 9035   5.881  22.161   9.453
 5463POPC   PO4 9036   5.890  22.190   9.153
 5463POPC   GL1 9037   5.842  22.165   8.853
 5463POPC   GL2 9038   5.937  22.262   8.853
 5463POPC   C1A 9039   5.826  22.209   8.553
 5463POPC   D2A 9040   5.876  22.131   8.253
 5463POPC   C3A 9041   5.914  22.153   7.953
 5463POPC   C4A 9042   5.850  22.208   7.653
 5463POPC   C1B 9043   5.951  22.372   8.553
 5463POPC   C2B 9044   5.892  22.412   8.253
 5463POPC   C3B 9045   5.909  22.424   7.953
 5463POPC   C4B 9046   5.922  22.431   7.653
 5464POPC   NC3 9047  24.461  10.561   9.453
 5464POPC   PO4 9048  24.521  10.567   9.153
 5464POPC   GL1 9049  24.486  10.538   8.853
 5464POPC   GL2 9050  24.385  10.605   8.853
 5464POPC   C1A 9051  24.500  10.486   8.553
 5464POPC   D2A 9052  24.484  10.537   8.253
 5464POPC   C3A 9053  24.479  10.486   7.953
 5464POPC   C4A 9054  24.498  10.563   7.653
 5464POPC   C1B 9055  24.238  10.630   8.553
 5464POPC   C2B 9056  24.211  10.555   8.253
 5464POPC   C3B 9057  24.207  10.582   7.953
 5464POPC   C4B 9058  24.250  10.632   7.653
 5465POPC   NC3 9059  20.607   8.931   9.453
 5465POPC   PO4 9060  20.562   8.965   9.153
 5465POPC   GL1 9061  20.609   8.956   8.853
 5465POPC   GL2 9062  20.679   8.994   8.853
 5465POPC   C1A 9063  20.577   8.932   8.553
 5465POPC   D2A 9064  20.620   8.947   8.253
 5465POPC   C3A 9065  20.565   8.996   7.953
 5465POPC   C4A 9066  20.567   8.995   7.653
 5465POPC   C1B 9067  20.848   9.088   8.553
 5465POPC   C2B 9068  20.837   9.147   8.253
 5465POPC   C3B 9069  20.845   9.139   7.953
 5465POPC   C4B 9070  20.772   9.120   7.653
 5466POPC   NC3 9071  19.819  28.345   9.453
 5466POPC   PO4 9072  19.875  28.381   9.153
 5466POPC   GL1 9073  19.866  28.335   8.853
 5466POPC   GL2 9074  19.900  28.426   8.853
 5466POPC   C1A 9075  19.789  28.384   8.553
 5466POPC   D2A 9076  19.840  28.385   8.253
 5466POPC   C3A 9077  19.857  28.406   7.953
 5466POPC   C4A 9078  19.854  28.320   7.653
 5466POPC   C1B 9079  20.046  28.562   8.553
 5466POPC   C2B 9080  20.011  28.522   8.253
 5466POPC   C3B 9081  20.016  28.566   7.953
 5466POPC   C4B 9082  20.039  28.548   7.653
 5467POPC   NC3 9083  12.035  30.706   9.453
 5467POPC   PO4 9084  12.092  30.700   9.153
 5467POPC   GL1 9085  12.110  30.701   8.853
 5467POPC   GL2 9086  11.993  30.775   8.853
 5467POPC   C1A 9087  12.067  30.705   8.553
 5467POPC   D2A 9088  12.079  30.724   8.253
 5467POPC   C3A 9089  12.043  30.708   7.953
 5467POPC   C4A 9090  12.093  30.690   7.653
 5467POPC   C1B 9091  11.940  30.913   8.553
 5467POPC   C2B 9092  11.930  30.919   8.253
 5467POPC   C3B 9093  11.920  30.910   7.953
 5467POPC   C4B 9094  11.904  30.914   7.653
 5468POPC   NC3 9095   1.239   8.147   9.453
 5468POPC   PO4 9096   1.237   8.149   9.153
 5468POPC   GL1 9097   1.223   8.231   8.853
 5468POPC   GL2 9098   1.246   8.065   8.853
 5468POPC   C1A 9099   1.251   8.207   8.553
 5468POPC   D2A 9100   1.193   8.217   8.253
 5468POPC   C3A 9101   1.174   8.187   7.953
 5468POPC   C4A 9102   1.213   8.158   7.653
 5468POPC   C1B 9103   1.277   7.976   8.553
 5468POPC   C2B 9104   1.264   7.974   8.253
 5468POPC   C3B 9105   1.330   7.919   7.953
 5468POPC   C4B 9106   1.242   7.985   7.653
 5469POPC   NC3 9107  21.357  42.296   9.453
 5469POPC   PO4 9108  21.388  42.309   9.153
 5469POPC   GL1 9109  21.377  42.378   8.853
 5469POPC   GL2 9110  21.296  42.258   8.853
 5469POPC   C1A 9111  21.390  42.384   8.553
 5469POPC   D2A 9112  21.354  42.298   8.253
 5469POPC   C3A 9113  21.402  42.383   7.953
 5469POPC   C4A 9114  21.346  42.360   7.653
 5469POPC   C1B 9115  21.231  42.133   8.553
 5469POPC   C2B 9116  21.313  42.071   8.253
 5469POPC   C3B 9117  21.232  42.124   7.953
 5469POPC   C4B 9118  21.238  42.158   7.653
 5470POPC   NC3 9119  43.095  31.437   9.453
 5470POPC   PO4 9120  43.120  31.475   9.153
 5470POPC   GL1 9121  43.147  31.425   8.853
 5470POPC   GL2 9122  42.965  31.499   8.853
 5470POPC   C1A 9123  43.082  31.445   8.553
 5470POPC   D2A 9124  43.132  31.449   8.253
 5470POPC   C3A 9125  43.067  31.426   7.953
 5470POPC   C4A 9126  43.087  31.485   7.653
 5470POPC   C1B 9127  42.895  31.590   8.553
 5470POPC   C2B 9128  42.956  31.601   8.253
 5470POPC   C3B 9129  42.932  31.671   7.953
 5470POPC   C4B 9130  42.926  31.639   7.653
 5471POPC   NC3 9131   1.210  10.493   9.453
 5471POPC   PO4 9132   1.211  10.565   9.153
 5471POPC   GL1 9133   1.194  10.519   8.853
 5471POPC   GL2 9134   1.178  10.368   8.853
 5471POPC   C1A 9135   1.202  10.512   8.553
 5471POPC   D2A 9136   1.263  10.490   8.253
 5471POPC   C3A 9137   1.198  10.486   7.953
 5471POPC   C4A 9138   1.225  10.572   7.653
 5471POPC   C1B 9139   1.229  10.232   8.553
 5471POPC   C2B 9140   1.250  10.269   8.253
 5471POPC   C3B 9141   1.222  10.301   7.953
 5471POPC   C4B 9142   1.260  10.282   7.653
 5472POPC   NC3 9143   2.018  40.776   9.453
 5472POPC   PO4 9144   2.013  40.831   9.153
 5472POPC   GL1 9145   1.964  40.798   8.853
 5472POPC   GL2 9146   1.898  40.684   8.853
 5472POPC   C1A 9147   2.035  40.762   8.553
 5472POPC   D2A 9148   1.955  40.758   8.253
 5472POPC   C3A 9149   1.997  40.750   7.953
 5472POPC   C4A 9150   1.984  40.814   7.653
 5472POPC   C1B 9151   1.880  40.513   8.553
 5472POPC   C2B 9152   1.869  40.552   8.253
 5472POPC   C3B 9153   1.835  40.557   7.953
 5472POPC   C4B 9154   1.896  40.562   7.653
 5473POPC   NC3 9155  23.717  43.908   9.453
 5473POPC   PO4 9156  23.741  43.910   9.153
 5473POPC   GL1 9157  23.744  43.935   8.853
 5473POPC   GL2 9158  23.577  43.860   8.853
 5473POPC   C1A 9159  23.672  43.843   8.553
 5473POPC   D2A 9160  23.727  43.898   8.253
 5473POPC   C3A 9161  23.711  43.916   7.953
 5473POPC   C4A 9162  23.738  43.918   7.653
 5473POPC   C1B 9163  23.492  43.838   8.553
 5473POPC   C2B 9164  23.456  43.851   8.253
 5473POPC   C3B 9165  23.436  43.851   7.953
 5473POPC   C4B 9166  23.509  43.871   7.653
 5474POPC   NC3 9167  36.945  31.504   9.453
 5474POPC   PO4 9168  36.897  31.480   9.153
 5474POPC   GL1 9169  36.872  31.511   8.853
 5474POPC   GL2 9170  36.958  31.579   8.853
 5474POPC   C1A 9171  36.935  31.507   8.553
 5474POPC   D2A 9172  36.930  31.460   8.253
 5474POPC   C3A 9173  36.865  31.499   7.953
 5474POPC   C4A 9174  36.854  31.498   7.653
 5474POPC   C1B 9175  37.060  31.617   8.553
 5474POPC   C2B 9176  37.041  31.712   8.253
 5474POPC   C3B 9177  37.067  31.635   7.953
 5474POPC   C4B 9178  37.084  31.675   7.653
 5475POPC   NC3 9179  22.949  37.670   9.453
 5475POPC   PO4 9180  22.930  37.662   9.153
 5475POPC   GL1 9181  22.913  37.670   8.853
 5475POPC   GL2 9182  22.997  37.769   8.853
 5475POPC   C1A 9183  22.901  37.723   8.553
 5475POPC   D2A 9184  22.892  37.671   8.253
 5475POPC   C3A 9185  22.964  37.670   7.953
 5475POPC   C4A 9186  22.958  37.647   7.653
 5475POPC   C1B 9187  23.193  37.785   8.553
 5475POPC   C2B 9188  23.107  37.786   8.253
 5475POPC   C3B 9189  23.150  37.763   7.953
 5475POPC   C4B 9190  23.169  37.775   7.653
 5476POPC   NC3 9191  12.888  29.873   9.453
 5476POPC   PO4 9192  12.864  29.955   9.153
 5476POPC   GL1 9193  12.840  29.877   8.853
 5476POPC   GL2 9194  12.793  29.845   8.853
 5476POPC   C1A 9195  12.894  29.945   8.553
 5476POPC   D2A 9196  12.893  29.943   8.253
 5476POPC   C3A 9197  12.848  29.906   7.953
 5476POPC   C4A 9198  12.847  29.934   7.653
 5476POPC   C1B 9199  12.733  29.658   8.553
 5476POPC   C2B 9200  12.796  29.648   8.253
 5476POPC   C3B 9201  12.701  29.682   7.953
 5476POPC   C4B 9202  12.761  29.646   7.653
 5477POPC   NC3 9203  21.364  32.289   9.453
 5477POPC   PO4 9204  21.342  32.237   9.153
 5477POPC   GL1 9205  21.429  32.271   8.853
 5477POPC   GL2 9206  21.292  32.195   8.853
 5477POPC   C1A 9207  21.343  32.263   8.553
 5477POPC   D2A 9208  21.364  32.244   8.253
 5477POPC   C3A 9209  21.392  32.281   7.953
 5477POPC   C4A 9210  21.347  32.212   7.653
 5477POPC   C1B 9211  21.132  32.156   8.553
 5477POPC   C2B 9212  21.177  32.156   8.253
 5477POPC   C3B 9213  21.178  32.140   7.953
 5477POPC   C4B 9214  21.165  32.157   7.653
 5478POPC   NC3 9215  34.581  14.402   9.453
 5478POPC   PO4 9216  34.530  14.409   9.153
 5478POPC   GL1 9217  34.585  14.444   8.853
 5478POPC   GL2 9218  34.477  14.259   8.853
 5478POPC   C1A 9219  34.599  14.370   8.553
 5478POPC   D2A 9220  34.530  14.385   8.253
 5478POPC   C3A 9221  34.538  14.426   7.953
 5478POPC   C4A 9222  34.603  14.383   7.653
 5478POPC   C1B 9223  34.436  14.135   8.553
 5478POPC   C2B 9224  34.492  14.218   8.253
 5478POPC   C3B 9225  34.462  14.168   7.953
 5478POPC   C4B 9226  34.476  14.209   7.653
 5479POPC   NC3 9227   2.726  16.776   9.453
 5479POPC   PO4 9228   2.781  16.737   9.153
 5479POPC   GL1 9229   2.775  16.768   8.853
 5479POPC   GL2 9230   2.897  16.681   8.853
 5479POPC   C1A 9231   2.783  16.722   8.553
 5479POPC   D2A 9232   2.723  16.724   8.253
 5479POPC   C3A 9233   2.809  16.698   7.953
 5479POPC   C4A 9234   2.738  16.734   7.653
 5479POPC   C1B 9235   2.931  16.617   8.553
 5479POPC   C2B 9236   2.952  16.539   8.253
 5479POPC   C3B 9237   2.969  16.532   7.953
 5479POPC   C4B 9238   2.933  16.597   7.653
 5480POPC   NC3 9239  20.592  43.064   9.453
 5480POPC   PO4 9240  20.563  43.155   9.153
 5480POPC   GL1 9241  20.585  43.158   8.853
 5480POPC   GL2 9242  20.756  43.015   8.853
 5480POPC   C1A 9243  20.654  43.115   8.553
 5480POPC   D2A 9244  20.635  43.154   8.253
 5480POPC   C3A 9245  20.640  43.108   7.953
 5480POPC   C4A 9246  20.635  43.111   7.653
 5480POPC   C1B 9247  20.867  42.985   8.553
 5480POPC   C2B 9248  20.806  43.020   8.253
 5480POPC   C3B 9249  20.795  43.041   7.953
 5480POPC   C4B 9250  20.835  42.971   7.653
 5481POPC   NC3 9251  30.683  34.607   9.453
 5481POPC   PO4 9252  30.692  34.623   9.153
 5481POPC   GL1 9253  30.703  34.547   8.853
 5481POPC   GL2 9254  30.753  34.515   8.853
 5481POPC   C1A 9255  30.674  34.590   8.553
 5481POPC   D2A 9256  30.732  34.580   8.253
 5481POPC   C3A 9257  30.692  34.620   7.953
 5481POPC   C4A 9258  30.648  34.549   7.653
 5481POPC   C1B 9259  30.848  34.393   8.553
 5481POPC   C2B 9260  30.835  34.387   8.253
 5481POPC   C3B 9261  30.904  34.412   7.953
 5481POPC   C4B 9262  30.891  34.397   7.653
 5482POPC   NC3 9263  44.637  23.705   9.453
 5482POPC   PO4 9264  44.674  23.726   9.153
 5482POPC   GL1 9265  44.700  23.738   8.853
 5482POPC   GL2 9266  44.819  23.748   8.853
 5482POPC   C1A 9267  44.662  23.701   8.553
 5482POPC   D2A 9268  44.697  23.687   8.253
 5482POPC   C3A 9269  44.692  23.721   7.953
 5482POPC   C4A 9270  44.710  23.694   7.653
 5482POPC   C1B 9271  44.880  23.788   8.553
 5482POPC   C2B 9272  44.918  23.788   8.253
 5482POPC   C3B 9273  44.921  23.871   7.953
 5482POPC   C4B 9274  44.916  23.864   7.653
 5483POPC   NC3 9275  32.230  29.162   9.453
 5483POPC   PO4 9276  32.292  29.142   9.153
 5483POPC   GL1 9277  32.249  29.134   8.853
 5483POPC   GL2 9278  32.146  29.207   8.853
 5483POPC   C1A 9279  32.206  29.116   8.553
 5483POPC   D2A 9280  32.263  29.139   8.253
 5483POPC   C3A 9281  32.224  29.129   7.953
 5483POPC   C4A 9282  32.256  29.146   7.653
 5483POPC   C1B 9283  32.050  29.206   8.553
 5483POPC   C2B 9284  32.017  29.243   8.253
 5483POPC   C3B 9285  31.992  29.258   7.953
 5483POPC   C4B 9286  32.013  29.259   7.653
 5484POPC   NC3 9287   2.806  36.881   9.453
 5484POPC   PO4 9288   2.767  36.855   9.153
 5484POPC   GL1 9289   2.781  36.896   8.853
 5484POPC   GL2 9290   2.850  36.843   8.853
 5484POPC   C1A 9291   2.733  36.877   8.553
 5484POPC   D2A 9292   2.719  36.856   8.253
 5484POPC   C3A 9293   2.805  36.860   7.953
 5484POPC   C4A 9294   2.743  36.917   7.653
 5484POPC   C1B 9295   3.004  36.770   8.553
 5484POPC   C2B 9296   2.951  36.777   8.253
 5484POPC   C3B 9297   3.006  36.813   7.953
 5484POPC   C4B 9298   3.003  36.808   7.653
 5485POPC   NC3 9299  19.863   3.520   9.453
 5485POPC   PO4 9300  19.811   3.508   9.153
 5485POPC   GL1 9301  19.875   3.506   8.853
 5485POPC   GL2 9302  19.777   3.674   8.853
 5485POPC   C1A 9303  19.838   3.564   8.553
 5485POPC   D2A 9304  19.852   3.539   8.253
 5485POPC   C3A 9305  19.877   3.591   7.953
 5485POPC   C4A 9306  19.879   3.495   7.653
 5485POPC   C1B 9307  19.747   3.816   8.553
 5485POPC   C2B 9308  19.734   3.783   8.253
 5485POPC   C3B 9309  19.739   3.763   7.953
 5485POPC   C4B 9310  19.776   3.749   7.653
 5486POPC   NC3 9311  33.772  14.452   9.453
 5486POPC   PO4 9312  33.849  14.433   9.153
 5486POPC   GL1 9313  33.783  14.389   8.853
 5486POPC   GL2 9314  33.915  14.290   8.853
 5486POPC   C1A 9315  33.799  14.424   8.553
 5486POPC   D2A 9316  33.804  14.408   8.253
 5486POPC   C3A 9317  33.755  14.363   7.953
 5486POPC   C4A 9318  33.824  14.362   7.653
 5486POPC   C1B 9319  34.018  14.189   8.553
 5486POPC   C2B 9320  33.979  14.265   8.253
 5486POPC   C3B 9321  33.984  14.197   7.953
 5486POPC   C4B 9322  34.001  14.279   7.653
 5487POPC   NC3 9323  43.900  22.138   9.453
 5487POPC   PO4 9324  43.888  22.152   9.153
 5487POPC   GL1 9325  43.874  22.113   8.853
 5487POPC   GL2 9326  44.059  22.102   8.853
 5487POPC   C1A 9327  43.876  22.132   8.553
 5487POPC   D2A 9328  43.888  22.125   8.253
 5487POPC   C3A 9329  43.860  22.210   7.953
 5487POPC   C4A 9330  43.876  22.212   7.653
 5487POPC   C1B 9331  44.136  22.155   8.553
 5487POPC   C2B 9332  44.116  22.151   8.253
 5487POPC   C3B 9333  44.133  22.175   7.953
 5487POPC   C4B 9334  44.129  22.142   7.653
 5488POPC   NC3 9335  39.986  11.264   9.453
 5488POPC   PO4 9336  40.039  11.318   9.153
 5488POPC   GL1 9337  40.053  11.345   8.853
 5488POPC   GL2 9338  39.848  11.261   8.853
 5488POPC   C1A 9339  40.032  11.260   8.553
 5488POPC   D2A 9340  40.048  11.303   8.253
 5488POPC   C3A 9341  40.025  11.347   7.953
 5488POPC   C4A 9342  39.999  11.291   7.653
 5488POPC   C1B 9343  39.768  11.145   8.553
 5488POPC   C2B 9344  39.800  11.227   8.253
 5488POPC   C3B 9345  39.771  11.169   7.953
 5488POPC   C4B 9346  39.735  11.148   7.653
 5489POPC   NC3 9347  35.326  43.870   9.453
 5489POPC   PO4 9348  35.323  43.928   9.153
 5489POPC   GL1 9349  35.400  43.901   8.853
 5489POPC   GL2 9350  35.499  43.910   8.853
 5489POPC   C1A 9351  35.329  43.892   8.553
 5489POPC   D2A 9352  35.352  43.901   8.253
 5489POPC   C3A 9353  35.359  43.895   7.953
 5489POPC   C4A 9354  35.340  43.869   7.653
 5489POPC   C1B 9355  35.578  44.004   8.553
 5489POPC   C2B 9356  35.556  44.035   8.253
 5489POPC   C3B 9357  35.536  44.033   7.953
 5489POPC   C4B 9358  35.553  44.012   7.653
 5490POPC   NC3 9359  32.264  35.375   9.453
 5490POPC   PO4 9360  32.226  35.341   9.153
 5490POPC   GL1 9361  32.217  35.390   8.853
 5490POPC   GL2 9362  32.265  35.440   8.853
 5490POPC   C1A 9363  32.261  35.368   8.553
 5490POPC   D2A 9364  32.208  35.366   8.253
 5490POPC   C3A 9365  32.248  35.377   7.953
 5490POPC   C4A 9366  32.229  35.374   7.653
 5490POPC   C1B 9367  32.229  35.554   8.553
 5490POPC   C2B 9368  32.210  35.608   8.253
 5490POPC   C3B 9369  32.243  35.615   7.953
 5490POPC   C4B 9370  32.224  35.572   7.653
 5491POPC   NC3 9371  28.400   1.257   9.453
 5491POPC   PO4 9372  28.371   1.187   9.153
 5491POPC   GL1 9373  28.384   1.263   8.853
 5491POPC   GL2 9374  28.285   1.140   8.853
 5491POPC   C1A 9375  28.404   1.205   8.553
 5491POPC   D2A 9376  28.359   1.196   8.253
 5491POPC   C3A 9377  28.399   1.222   7.953
 5491POPC   C4A 9378  28.328   1.173   7.653
 5491POPC   C1B 9379  28.160   1.079   8.553
 5491POPC   C2B 9380  28.156   1.104   8.253
 5491POPC   C3B 9381  28.152   1.102   7.953
 5491POPC   C4B 9382  28.114   1.145   7.653
 5492POPC   NC3 9383   6.653   0.470   9.453
 5492POPC   PO4 9384   6.600   0.431   9.153
 5492POPC   GL1 9385   6.634   0.395   8.853
 5492POPC   GL2 9386   6.599   0.305   8.853
 5492POPC   C1A 9387   6.655   0.390   8.553
 5492POPC   D2A 9388   6.678   0.429   8.253
 5492POPC   C3A 9389   6.684   0.486   7.953
 5492POPC   C4A 9390   6.628   0.478   7.653
 5492POPC   C1B 9391   6.440   0.278   8.553
 5492POPC   C2B 9392   6.421   0.253   8.253
 5492POPC   C3B 9393   6.420   0.300   7.953
 5492POPC   C4B 9394   6.478   0.273   7.653
 5493POPC   NC3 9395  26.058  44.643   9.453
 5493POPC   PO4 9396  26.083  44.691   9.153
 5493POPC   GL1 9397  26.045  44.629   8.853
 5493POPC   GL2 9398  25.897  44.692   8.853
 5493POPC   C1A 9399  26.082  44.637   8.553
 5493POPC   D2A 9400  26.044  44.650   8.253
 5493POPC   C3A 9401  26.040  44.679   7.953
 5493POPC   C4A 9402  26.075  44.694   7.653
 5493POPC   C1B 9403  25.832  44.752   8.553
 5493POPC   C2B 9404  25.778  44.727   8.253
 5493POPC   C3B 9405  25.829  44.681   7.953
 5493POPC   C4B 9406  25.848  44.750   7.653
 5494POPC   NC3 9407  37.698   1.971   9.453
 5494POPC   PO4 9408  37.630   1.972   9.153
 5494POPC   GL1 9409  37.716   2.029   8.853
 5494POPC   GL2 9410  37.617   1.899   8.853
 5494POPC   C1A 9411  37.640   1.948   8.553
 5494POPC   D2A 9412  37.728   1.978   8.253
 5494POPC   C3A 9413  37.651   1.993   7.953
 5494POPC   C4A 9414  37.670   2.023   7.653
 5494POPC   C1B 9415  37.671   1.773   8.553
 5494POPC   C2B 9416  37.639   1.777   8.253
 5494POPC   C3B 9417  37.632   1.718   7.953
 5494POPC   C4B 9418  37.640   1.785   7.653
 5495POPC   NC3 9419  19.857  20.593   9.453
 5495POPC   PO4 9420  19.817  20.624   9.153
 5495POPC   GL1 9421  19.827  20.628   8.853
 5495POPC   GL2 9422  19.833  20.449   8.853
 5495POPC   C1A 9423  19.805  20.634   8.553
 5495POPC   D2A 9424  19.822  20.575   8.253
 5495POPC   C3A 9425  19.841  20.601   7.953
 5495POPC   C4A 9426  19.839  20.569   7.653
 5495POPC   C1B 9427  19.917  20.353   8.553
 5495POPC   C2B 9428  19.908  20.422   8.253
 5495POPC   C3B 9429  19.931  20.399   7.953
 5495POPC   C4B 9430  19.865  20.330   7.653
 5496POPC   NC3 9431  24.461  30.658   9.453
 5496POPC   PO4 9432  24.516  30.733   9.153
 5496POPC   GL1 9433  24.513  30.690   8.853
 5496POPC   GL2 9434  24.603  30.724   8.853
 5496POPC   C1A 9435  24.476  30.734   8.553
 5496POPC   D2A 9436  24.487  30.733   8.253
 5496POPC   C3A 9437  24.498  30.725   7.953
 5496POPC   C4A 9438  24.536  30.665   7.653
 5496POPC   C1B 9439  24.691  30.868   8.553
 5496POPC   C2B 9440  24.705  30.886   8.253
 5496POPC   C3B 9441  24.689  30.805   7.953
 5496POPC   C4B 9442  24.715  30.845   7.653
 5497POPC   NC3 9443   1.953  11.286   9.453
 5497POPC   PO4 9444   1.954  11.268   9.153
 5497POPC   GL1 9445   1.967  11.260   8.853
 5497POPC   GL2 9446   2.026  11.151   8.853
 5497POPC   C1A 9447   1.950  11.250   8.553
 5497POPC   D2A 9448   1.969  11.344   8.253
 5497POPC   C3A 9449   2.001  11.262   7.953
 5497POPC   C4A 9450   2.037  11.284   7.653
 5497POPC   C1B 9451   2.056  11.085   8.553
 5497POPC   C2B 9452   2.069  11.027   8.253
 5497POPC   C3B 9453   2.137  11.092   7.953
 5497POPC   C4B 9454   2.130  11.097   7.653
 5498POPC   NC3 9455  19.847  34.573   9.453
 5498POPC   PO4 9456  19.855  34.558   9.153
 5498POPC   GL1 9457  19.787  34.526   8.853
 5498POPC   GL2 9458  19.662  34.615   8.853
 5498POPC   C1A 9459  19.856  34.528   8.553
 5498POPC   D2A 9460  19.794  34.542   8.253
 5498POPC   C3A 9461  19.857  34.597   7.953
 5498POPC   C4A 9462  19.829  34.619   7.653
 5498POPC   C1B 9463  19.543  34.622   8.553
 5498POPC   C2B 9464  19.543  34.539   8.253
 5498POPC   C3B 9465  19.566  34.616   7.953
 5498POPC   C4B 9466  19.585  34.620   7.653
 5499POPC   NC3 9467   1.943  38.496   9.453
 5499POPC   PO4 9468   1.955  38.497   9.153
 5499POPC   GL1 9469   2.007  38.468   8.853
 5499POPC   GL2 9470   1.846  38.511   8.853
 5499POPC   C1A 9471   1.970  38.487   8.553
 5499POPC   D2A 9472   1.962  38.492   8.253
 5499POPC   C3A 9473   2.018  38.420   7.953
 5499POPC   C4A 9474   1.952  38.491   7.653
 5499POPC   C1B 9475   1.773  38.507   8.553
 5499POPC   C2B 9476   1.788  38.500   8.253
 5499POPC   C3B 9477   1.712  38.461   7.953
 5499POPC   C4B 9478   1.738  38.499   7.653
 5500POPC   NC3 9479  39.186  41.545   9.453
 5500POPC   PO4 9480  39.274  41.566   9.153
 5500POPC   GL1 9481  39.244  41.601   8.853
 5500POPC   GL2 9482  39.317  41.647   8.853
 5500POPC   C1A 9483  39.201  41.519   8.553
 5500POPC   D2A 9484  39.228  41.550   8.253
 5500POPC   C3A 9485  39.237  41.553   7.953
 5500POPC   C4A 9486  39.236  41.583   7.653
 5500POPC   C1B 9487  39.456  41.685   8.553
 5500POPC   C2B 9488  39.469  41.600   8.253
 5500POPC   C3B 9489  39.420  41.593   7.953
 5500POPC   C4B 9490  39.478  41.596   7.653
 5501POPC   NC3 9491  41.512  32.985   9.453
 5501POPC   PO4 9492  41.520  33.032   9.153
 5501POPC   GL1 9493  41.519  32.985   8.853
 5501POPC   GL2 9494  41.625  32.897   8.853
 5501POPC   C1A 9495  41.530  33.064   8.553
 5501POPC   D2A 9496  41.542  33.060   8.253
 5501POPC   C3A 9497  41.545  33.056   7.953
 5501POPC   C4A 9498  41.547  32.987   7.653
 5501POPC   C1B 9499  41.705  32.820   8.553
 5501POPC   C2B 9500  41.751  32.800   8.253
 5501POPC   C3B 9501  41.725  32.855   7.953
 5501POPC   C4B 9502  41.696  32.820   7.653
 5502POPC   NC3 9503  28.373   8.193   9.453
 5502POPC   PO4 9504  28.322   8.227   9.153
 5502POPC   GL1 9505  28.342   8.181   8.853
 5502POPC   GL2 9506  28.401   8.268   8.853
 5502POPC   C1A 9507  28.354   8.168   8.553
 5502POPC   D2A 9508  28.330   8.218   8.253
 5502POPC   C3A 9509  28.323   8.171   7.953
 5502POPC   C4A 9510  28.382   8.153   7.653
 5502POPC   C1B 9511  28.506   8.431   8.553
 5502POPC   C2B 9512  28.534   8.414   8.253
 5502POPC   C3B 9513  28.485   8.385   7.953
 5502POPC   C4B 9514  28.562   8.357   7.653
 5503POPC   NC3 9515   0.418   5.048   9.453
 5503POPC   PO4 9516   0.405   5.087   9.153
 5503POPC   GL1 9517   0.423   5.115   8.853
 5503POPC   GL2 9518   0.429   5.193   8.853
 5503POPC   C1A 9519   0.423   5.068   8.553
 5503POPC   D2A 9520   0.389   5.078   8.253
 5503POPC   C3A 9521   0.432   5.136   7.953
 5503POPC   C4A 9522   0.463   5.063   7.653
 5503POPC   C1B 9523   0.463   5.286   8.553
 5503POPC   C2B 9524   0.542   5.346   8.253
 5503POPC   C3B 9525   0.545   5.347   7.953
 5503POPC   C4B 9526   0.482   5.294   7.653
 5504POPC   NC3 9527  14.365  18.326   9.453
 5504POPC   PO4 9528  14.391  18.242   9.153
 5504POPC   GL1 9529  14.421  18.244   8.853
 5504POPC   GL2 9530  14.308  18.243   8.853
 5504POPC   C1A 9531  14.389  18.236   8.553
 5504POPC   D2A 9532  14.389  18.306   8.253
 5504POPC   C3A 9533  14.369  18.271   7.953
 5504POPC   C4A 9534  14.428  18.332   7.653
 5504POPC   C1B 9535  14.173  18.090   8.553
 5504POPC   C2B 9536  14.190  18.134   8.253
 5504POPC   C3B 9537  14.212  18.144   7.953
 5504POPC   C4B 9538  14.225  18.160   7.653
 5505POPC   NC3 9539  27.545   2.719   9.453
 5505POPC   PO4 9540  27.639   2.806   9.153
 5505POPC   GL1 9541  27.549   2.810   8.853
 5505POPC   GL2 9542  27.485   2.759   8.853
 5505POPC   C1A 9543  27.593   2.791   8.553
 5505POPC   D2A 9544  27.575   2.741   8.253
 5505POPC   C3A 9545  27.616   2.721   7.953
 5505POPC   C4A 9546  27.582   2.740   7.653
 5505POPC   C1B 9547  27.309   2.742   8.553
 5505POPC   C2B 9548  27.320   2.718   8.253
 5505POPC   C3B 9549  27.391   2.742   7.953
 5505POPC   C4B 9550  27.320   2.722   7.653
 5506POPC   NC3 9551   1.960  32.207   9.453
 5506POPC   PO4 9552   2.011  32.225   9.153
 5506POPC   GL1 9553   2.007  32.200   8.853
 5506POPC   GL2 9554   1.973  32.325   8.853
 5506POPC   C1A 9555   2.006  32.224   8.553
 5506POPC   D2A 9556   1.955  32.259   8.253
 5506POPC   C3A 9557   1.989  32.253   7.953
 5506POPC   C4A 9558   1.981  32.211   7.653
 5506POPC   C1B 9559   1.891  32.452   8.553
 5506POPC   C2B 9560   1.958  32.523   8.253
 5506POPC   C3B 9561   1.955  32.450   7.953
 5506POPC   C4B 9562   1.940  32.483   7.653
 5507POPC   NC3 9563   8.929   4.334   9.453
 5507POPC   PO4 9564   8.990   4.288   9.153
 5507POPC   GL1 9565   8.946   4.343   8.853
 5507POPC   GL2 9566   8.885   4.178   8.853
 5507POPC   C1A 9567   8.977   4.288   8.553
 5507POPC   D2A 9568   8.956   4.313   8.253
 5507POPC   C3A 9569   8.975   4.323   7.953
 5507POPC   C4A 9570   8.982   4.359   7.653
 5507POPC   C1B 9571   8.828   4.141   8.553
 5507POPC   C2B 9572   8.780   4.139   8.253
 5507POPC   C3B 9573   8.871   4.124   7.953
 5507POPC   C4B 9574   8.870   4.159   7.653
 5508POPC   NC3 9575  10.503   0.454   9.453
 5508POPC   PO4 9576  10.542   0.407   9.153
 5508POPC   GL1 9577  10.481   0.487   8.853
 5508POPC   GL2 9578  10.429   0.508   8.853
 5508POPC   C1A 9579  10.518   0.420   8.553
 5508POPC   D2A 9580  10.524   0.483   8.253
 5508POPC   C3A 9581  10.569   0.420   7.953
 5508POPC   C4A 9582  10.530   0.446   7.653
 5508POPC   C1B 9583  10.351   0.507   8.553
 5508POPC   C2B 9584  10.327   0.545   8.253
 5508POPC   C3B 9585  10.264   0.518   7.953
 5508POPC   C4B 9586  10.323   0.596   7.653
 5509POPC   NC3 9587  40.764  24.481   9.453
 5509POPC   PO4 9588  40.823  24.444   9.153
 5509POPC   GL1 9589  40.790  24.465   8.853
 5509POPC   GL2 9590  40.726  24.324   8.853
 5509POPC   C1A 9591  40.750  24.532   8.553
 5509POPC   D2A 9592  40.746  24.506   8.253
 5509POPC   C3A 9593  40.815  24.450   7.953
 5509POPC   C4A 9594  40.784  24.520   7.653
 5509POPC   C1B 9595  40.753  24.238   8.553
 5509POPC   C2B 9596  40.786  24.281   8.253
 5509POPC   C3B 9597  40.766  24.285   7.953
 5509POPC   C4B 9598  40.777  24.261   7.653
 5510POPC   NC3 9599  13.675  44.682   9.453
 5510POPC   PO4 9600  13.623  44.634   9.153
 5510POPC   GL1 9601  13.647  44.632   8.853
 5510POPC   GL2 9602  13.672  44.590   8.853
 5510POPC   C1A 9603  13.638  44.696   8.553
 5510POPC   D2A 9604  13.652  44.676   8.253
 5510POPC   C3A 9605  13.609  44.691   7.953
 5510POPC   C4A 9606  13.632  44.642   7.653
 5510POPC   C1B 9607  13.775  44.480   8.553
 5510POPC   C2B 9608  13.774  44.506   8.253
 5510POPC   C3B 9609  13.811  44.435   7.953
 5510POPC   C4B 9610  13.804  44.481   7.653
 5511POPC   NC3 9611   9.786  13.587   9.453
 5511POPC   PO4 9612   9.699  13.586   9.153
 5511POPC   GL1 9613   9.765  13.650   8.853
 5511POPC   GL2 9614   9.616  13.651   8.853
 5511POPC   C1A 9615   9.718  13.622   8.553
 5511POPC   D2A 9616   9.786  13.653   8.253
 5511POPC   C3A 9617   9.727  13.622   7.953
 5511POPC   C4A 9618   9.765  13.582   7.653
 5511POPC   C1B 9619   9.494  13.603   8.553
 5511POPC   C2B 9620   9.532  13.629   8.253
 5511POPC   C3B 9621   9.546  13.627   7.953
 5511POPC   C4B 9622   9.510  13.618   7.653
 5512POPC   NC3 9623  35.302  12.873   9.453
 5512POPC   PO4 9624  35.367  12.861   9.153
 5512POPC   GL1 9625  35.335  12.852   8.853
 5512POPC   GL2 9626  35.290  12.966   8.853
 5512POPC   C1A 9627  35.306  12.845   8.553
 5512POPC   D2A 9628  35.400  12.820   8.253
 5512POPC   C3A 9629  35.315  12.877   7.953
 5512POPC   C4A 9630  35.327  12.879   7.653
 5512POPC   C1B 9631  35.211  13.067   8.553
 5512POPC   C2B 9632  35.165  13.038   8.253
 5512POPC   C3B 9633  35.169  13.027   7.953
 5512POPC   C4B 9634  35.119  12.997   7.653
 5513POPC   NC3 9635  38.477   9.769   9.453
 5513POPC   PO4 9636  38.439   9.699   9.153
 5513POPC   GL1 9637  38.470   9.703   8.853
 5513POPC   GL2 9638  38.382   9.680   8.853
 5513POPC   C1A 9639  38.482   9.722   8.553
 5513POPC   D2A 9640  38.439   9.699   8.253
 5513POPC   C3A 9641  38.482   9.730   7.953
 5513POPC   C4A 9642  38.442   9.705   7.653
 5513POPC   C1B 9643  38.364   9.560   8.553
 5513POPC   C2B 9644  38.400   9.505   8.253
 5513POPC   C3B 9645  38.320   9.475   7.953
 5513POPC   C4B 9646  38.358   9.540   7.653
 5514POPC   NC3 9647  42.314  34.573   9.453
 5514POPC   PO4 9648  42.304  34.573   9.153
 5514POPC   GL1 9649  42.301  34.545   8.853
 5514POPC   GL2 9650  42.358  34.450   8.853
 5514POPC   C1A 9651  42.359  34.538   8.553
 5514POPC   D2A 9652  42.321  34.592   8.253
 5514POPC   C3A 9653  42.286  34.568   7.953
 5514POPC   C4A 9654  42.327  34.613   7.653
 5514POPC   C1B 9655  42.398  34.297   8.553
 5514POPC   C2B 9656  42.356  34.331   8.253
 5514POPC   C3B 9657  42.414  34.330   7.953
 5514POPC   C4B 9658  42.357  34.303   7.653
 5515POPC   NC3 9659  34.589  26.784   9.453
 5515POPC   PO4 9660  34.607  26.829   9.153
 5515POPC   GL1 9661  34.552  26.798   8.853
 5515POPC   GL2 9662  34.664  26.698   8.853
 5515POPC   C1A 9663  34.586  26.858   8.553
 5515POPC   D2A 9664  34.552  26.792   8.253
 5515POPC   C3A 9665  34.572  26.814   7.953
 5515POPC   C4A 9666  34.583  26.805   7.653
 5515POPC   C1B 9667  34.735  26.617   8.553
 5515POPC   C2B 9668  34.674  26.619   8.253
 5515POPC   C3B 9669  34.654  26.629   7.953
 5515POPC   C4B 9670  34.653  26.637   7.653
 5516POPC   NC3 9671  14.402  19.817   9.453
 5516POPC   PO4 9672  14.361  19.790   9.153
 5516POPC   GL1 9673  14.393  19.824   8.853
 5516POPC   GL2 9674  14.308  19.868   8.853
 5516POPC   C1A 9675  14.366  19.878   8.553
 5516POPC   D2A 9676  14.425  19.803   8.253
 5516POPC   C3A 9677  14.375  19.849   7.953
 5516POPC   C4A 9678  14.384  19.822   7.653
 5516POPC   C1B 9679  14.201  19.975   8.553
 5516POPC   C2B 9680  14.256  19.976   8.253
 5516POPC   C3B 9681  14.238  20.037   7.953
 5516POPC   C4B 9682  14.251  20.037   7.653
 5517POPC   NC3 9683  39.268  39.214   9.453
 5517POPC   PO4 9684  39.195  39.280   9.153
 5517POPC   GL1 9685  39.263  39.209   8.853
 5517POPC   GL2 9686  39.286  39.170   8.853
 5517POPC   C1A 9687  39.218  39.243   8.553
 5517POPC   D2A 9688  39.204  39.196   8.253
 5517POPC   C3A 9689  39.221  39.192   7.953
 5517POPC   C4A 9690  39.235  39.277   7.653
 5517POPC   C1B 9691  39.431  39.072   8.553
 5517POPC   C2B 9692  39.417  39.085   8.253
 5517POPC   C3B 9693  39.407  39.100   7.953
 5517POPC   C4B 9694  39.440  39.080   7.653
 5518POPC   NC3 9695  33.754  11.317   9.453
 5518POPC   PO4 9696  33.756  11.303   9.153
 5518POPC   GL1 9697  33.811  11.343   8.853
 5518POPC   GL2 9698  33.877  11.379   8.853
 5518POPC   C1A 9699  33.837  11.304   8.553
 5518POPC   D2A 9700  33.796  11.296   8.253
 5518POPC   C3A 9701  33.771  11.338   7.953
 5518POPC   C4A 9702  33.763  11.250   7.653
 5518POPC   C1B 9703  33.829  11.494   8.553
 5518POPC   C2B 9704  33.890  11.534   8.253
 5518POPC   C3B 9705  33.917  11.504   7.953
 5518POPC   C4B 9706  33.851  11.557   7.653
 5519POPC   NC3 9707   5.132  21.378   9.453
 5519POPC   PO4 9708   5.091  21.418   9.153
 5519POPC   GL1 9709   5.123  21.341   8.853
 5519POPC   GL2 9710   5.165  21.301   8.853
 5519POPC   C1A 9711   5.082  21.434   8.553
 5519POPC   D2A 9712   5.052  21.413   8.253
 5519POPC   C3A 9713   5.077  21.347   7.953
 5519POPC   C4A 9714   5.081  21.378   7.653
 5519POPC   C1B 9715   5.264  21.179   8.553
 5519POPC   C2B 9716   5.265  21.242   8.253
 5519POPC   C3B 9717   5.259  21.198   7.953
 5519POPC   C4B 9718   5.235  21.242   7.653
 5520POPC   NC3 9719   3.561  19.813   9.453
 5520POPC   PO4 9720   3.572  19.811   9.153
 5520POPC   GL1 9721   3.566  19.791   8.853
 5520POPC   GL2 9722   3.565  19.930   8.853
 5520POPC   C1A 9723   3.504  19.820   8.553
 5520POPC   D2A 9724   3.581  19.878   8.253
 5520POPC   C3A 9725   3.528  19.858   7.953
 5520POPC   C4A 9726   3.580  19.858   7.653
 5520POPC   C1B 9727   3.652  20.061   8.553
 5520POPC   C2B 9728   3.711  20.079   8.253
 5520POPC   C3B 9729   3.705  20.083   7.953
 5520POPC   C4B 9730   3.646  20.016   7.653
 5521POPC   NC3 9731  44.710   2.753   9.453
 5521POPC   PO4 9732  44.690   2.745   9.153
 5521POPC   GL1 9733  44.701   2.787   8.853
 5521POPC   GL2 9734  44.652   2.905   8.853
 5521POPC   C1A 9735  44.624   2.804   8.553
 5521POPC   D2A 9736  44.702   2.783   8.253
 5521POPC   C3A 9737  44.673   2.803   7.953
 5521POPC   C4A 9738  44.685   2.733   7.653
 5521POPC   C1B 9739  44.622   2.980   8.553
 5521POPC   C2B 9740  44.641   3.001   8.253
 5521POPC   C3B 9741  44.604   3.042   7.953
 5521POPC   C4B 9742  44.631   2.990   7.653
 5522POPC   NC3 9743  22.130  11.316   9.453
 5522POPC   PO4 9744  22.165  11.255   9.153
 5522POPC   GL1 9745  22.157  11.284   8.853
 5522POPC   GL2 9746  22.122  11.237   8.853
 5522POPC   C1A 9747  22.114  11.268   8.553
 5522POPC   D2A 9748  22.158  11.324   8.253
 5522POPC   C3A 9749  22.208  11.341   7.953
 5522POPC   C4A 9750  22.181  11.275   7.653
 5522POPC   C1B 9751  22.073  11.041   8.553
 5522POPC   C2B 9752  22.010  11.091   8.253
 5522POPC   C3B 9753  22.036  11.126   7.953
 5522POPC   C4B 9754  22.049  11.037   7.653
 5523POPC   NC3 9755   1.200  15.198   9.453
 5523POPC   PO4 9756   1.190  15.225   9.153
 5523POPC   GL1 9757   1.231  15.200   8.853
 5523POPC   GL2 9758   1.290  15.100   8.853
 5523POPC   C1A 9759   1.170  15.185   8.553
 5523POPC   D2A 9760   1.198  15.188   8.253
 5523POPC   C3A 9761   1.232  15.181   7.953
 5523POPC   C4A 9762   1.264  15.145   7.653
 5523POPC   C1B 9763   1.282  14.924   8.553
 5523POPC   C2B 9764   1.317  14.949   8.253
 5523POPC   C3B 9765   1.303  14.942   7.953
 5523POPC   C4B 9766   1.273  14.935   7.653
 5524POPC   NC3 9767  23.673  20.649   9.453
 5524POPC   PO4 9768  23.723  20.593   9.153
 5524POPC   GL1 9769  23.710  20.574   8.853
 5524POPC   GL2 9770  23.706  20.772   8.853
 5524POPC   C1A 9771  23.682  20.579   8.553
 5524POPC   D2A 9772  23.693  20.639   8.253
 5524POPC   C3A 9773  23.725  20.648   7.953
 5524POPC   C4A 9774  23.720  20.610   7.653
 5524POPC   C1B 9775  23.816  20.828   8.553
 5524POPC   C2B 9776  23.812  20.889   8.253
 5524POPC   C3B 9777  23.732  20.835   7.953
 5524POPC   C4B 9778  23.742  20.824   7.653
 5525POPC   NC3 9779   0.466   2.022   9.453
 5525POPC   PO4 9780   0.438   1.970   9.153
 5525POPC   GL1 9781   0.479   1.978   8.853
 5525POPC   GL2 9782   0.502   2.111   8.853
 5525POPC   C1A 9783   0.416   2.024   8.553
 5525POPC   D2A 9784   0.433   1.963   8.253
 5525POPC   C3A 9785   0.480   2.029   7.953
 5525POPC   C4A 9786   0.456   1.967   7.653
 5525POPC   C1B 9787   0.510   2.249   8.553
 5525POPC   C2B 9788   0.510   2.199   8.253
 5525POPC   C3B 9789   0.477   2.238   7.953
 5525POPC   C4B 9790   0.553   2.270   7.653
 5526POPC   NC3 9791   4.288   9.710   9.453
 5526POPC   PO4 9792   4.292   9.725   9.153
 5526POPC   GL1 9793   4.357   9.719   8.853
 5526POPC   GL2 9794   4.362   9.600   8.853
 5526POPC   C1A 9795   4.359   9.699   8.553
 5526POPC   D2A 9796   4.356   9.740   8.253
 5526POPC   C3A 9797   4.281   9.743   7.953
 5526POPC   C4A 9798   4.295   9.769   7.653
 5526POPC   C1B 9799   4.499   9.527   8.553
 5526POPC   C2B 9800   4.433   9.542   8.253
 5526POPC   C3B 9801   4.500   9.567   7.953
 5526POPC   C4B 9802   4.492   9.493   7.653
 5527POPC   NC3 9803  41.575  16.726   9.453
 5527POPC   PO4 9804  41.603  16.693   9.153
 5527POPC   GL1 9805  41.531  16.727   8.853
 5527POPC   GL2 9806  41.636  16.776   8.853
 5527POPC   C1A 9807  41.522  16.736   8.553
 5527POPC   D2A 9808  41.563  16.695   8.253
 5527POPC   C3A 9809  41.535  16.728   7.953
 5527POPC   C4A 9810  41.525  16.698   7.653
 5527POPC   C1B 9811  41.824  16.786   8.553
 5527POPC   C2B 9812  41.826  16.729   8.253
 5527POPC   C3B 9813  41.762  16.760   7.953
 5527POPC   C4B 9814  41.838  16.749   7.653
 5528POPC   NC3 9815  36.948  28.409   9.453
 5528POPC   PO4 9816  36.896  28.359   9.153
 5528POPC   GL1 9817  36.883  28.321   8.853
 5528POPC   GL2 9818  36.863  28.465   8.853
 5528POPC   C1A 9819  36.899  28.347   8.553
 5528POPC   D2A 9820  36.917  28.378   8.253
 5528POPC   C3A 9821  36.896  28.383   7.953
 5528POPC   C4A 9822  36.859  28.382   7.653
 5528POPC   C1B 9823  36.879  28.611   8.553
 5528POPC   C2B 9824  36.825  28.652   8.253
 5528POPC   C3B 9825  36.847  28.588   7.953
 5528POPC   C4B 9826  36.829  28.595   7.653
 5529POPC   NC3 9827   9.794  15.220   9.453
 5529POPC   PO4 9828   9.747  15.181   9.153
 5529POPC   GL1 9829   9.724  15.145   8.853
 5529POPC   GL2 9830   9.813  15.342   8.853
 5529POPC   C1A 9831   9.784  15.156   8.553
 5529POPC   D2A 9832   9.699  15.151   8.253
 5529POPC   C3A 9833   9.775  15.187   7.953
 5529POPC   C4A 9834   9.738  15.136   7.653
 5529POPC   C1B 9835   9.756  15.463   8.553
 5529POPC   C2B 9836   9.774  15.415   8.253
 5529POPC   C3B 9837   9.777  15.406   7.953
 5529POPC   C4B 9838   9.819  15.464   7.653
 5530POPC   NC3 9839  41.512  26.810   9.453
 5530POPC   PO4 9840  41.555  26.810   9.153
 5530POPC   GL1 9841  41.589  26.798   8.853
 5530POPC   GL2 9842  41.406  26.797   8.853
 5530POPC   C1A 9843  41.565  26.768   8.553
 5530POPC   D2A 9844  41.596  26.817   8.253
 5530POPC   C3A 9845  41.538  26.812   7.953
 5530POPC   C4A 9846  41.531  26.827   7.653
 5530POPC   C1B 9847  41.337  26.705   8.553
 5530POPC   C2B 9848  41.372  26.748   8.253
 5530POPC   C3B 9849  41.310  26.749   7.953
 5530POPC   C4B 9850  41.331  26.670   7.653
 5531POPC   NC3 9851  28.352  26.857   9.453
 5531POPC   PO4 9852  28.368  26.778   9.153
 5531POPC   GL1 9853  28.336  26.820   8.853
 5531POPC   GL2 9854  28.458  26.701   8.853
 5531POPC   C1A 9855  28.373  26.866   8.553
 5531POPC   D2A 9856  28.337  26.828   8.253
 5531POPC   C3A 9857  28.323  26.819   7.953
 5531POPC   C4A 9858  28.399  26.850   7.653
 5531POPC   C1B 9859  28.537  26.628   8.553
 5531POPC   C2B 9860  28.574  26.634   8.253
 5531POPC   C3B 9861  28.559  26.631   7.953
 5531POPC   C4B 9862  28.523  26.628   7.653
 5532POPC   NC3 9863  43.100   3.498   9.453
 5532POPC   PO4 9864  43.157   3.529   9.153
 5532POPC   GL1 9865  43.085   3.496   8.853
 5532POPC   GL2 9866  43.173   3.700   8.853
 5532POPC   C1A 9867  43.090   3.503   8.553
 5532POPC   D2A 9868  43.155   3.583   8.253
 5532POPC   C3A 9869  43.123   3.531   7.953
 5532POPC   C4A 9870  43.135   3.542   7.653
 5532POPC   C1B 9871  43.161   3.807   8.553
 5532POPC   C2B 9872  43.146   3.801   8.253
 5532POPC   C3B 9873  43.189   3.742   7.953
 5532POPC   C4B 9874  43.208   3.791   7.653
 5533POPC   NC3 9875  29.138  26.036   9.453
 5533POPC   PO4 9876  29.188  26.027   9.153
 5533POPC   GL1 9877  29.119  26.012   8.853
 5533POPC   GL2 9878  29.038  25.998   8.853
 5533POPC   C1A 9879  29.175  26.039   8.553
 5533POPC   D2A 9880  29.133  26.023   8.253
 5533POPC   C3A 9881  29.187  26.007   7.953
 5533POPC   C4A 9882  29.145  26.012   7.653
 5533POPC   C1B 9883  28.942  25.965   8.553
 5533POPC   C2B 9884  28.960  25.929   8.253
 5533POPC   C3B 9885  28.886  25.962   7.953
 5533POPC   C4B 9886  28.894  25.953   7.653
 5534POPC   NC3 9887  36.897  12.825   9.453
 5534POPC   PO4 9888  36.929  12.864   9.153
 5534POPC   GL1 9889  36.856  12.897   8.853
 5534POPC   GL2 9890  36.762  12.911   8.853
 5534POPC   C1A 9891  36.945  12.878   8.553
 5534POPC   D2A 9892  36.878  12.828   8.253
 5534POPC   C3A 9893  36.898  12.862   7.953
 5534POPC   C4A 9894  36.917  12.884   7.653
 5534POPC   C1B 9895  36.735  12.990   8.553
 5534POPC   C2B 9896  36.672  13.062   8.253
 5534POPC   C3B 9897  36.667  13.024   7.953
 5534POPC   C4B 9898  36.761  13.001   7.653
 5535POPC   NC3 9899  41.564   3.575   9.453
 5535POPC   PO4 9900  41.581   3.515   9.153
 5535POPC   GL1 9901  41.546   3.518   8.853
 5535POPC   GL2 9902  41.485   3.486   8.853
 5535POPC   C1A 9903  41.575   3.504   8.553
 5535POPC   D2A 9904  41.516   3.509   8.253
 5535POPC   C3A 9905  41.525   3.513   7.953
 5535POPC   C4A 9906  41.540   3.528   7.653
 5535POPC   C1B 9907  41.345   3.344   8.553
 5535POPC   C2B 9908  41.354   3.364   8.253
 5535POPC   C3B 9909  41.424   3.321   7.953
 5535POPC   C4B 9910  41.356   3.395   7.653
 5536POPC   NC3 9911   8.182  28.354   9.453
 5536POPC   PO4 9912   8.228  28.379   9.153
 5536POPC   GL1 9913   8.198  28.320   8.853
 5536POPC   GL2 9914   8.295  28.386   8.853
 5536POPC   C1A 9915   8.221  28.324   8.553
 5536POPC   D2A 9916   8.220  28.402   8.253
 5536POPC   C3A 9917   8.173  28.394   7.953
 5536POPC   C4A 9918   8.153  28.363   7.653
 5536POPC   C1B 9919   8.471  28.394   8.553
 5536POPC   C2B 9920   8.410  28.395   8.253
 5536POPC   C3B 9921   8.426  28.463   7.953
 5536POPC   C4B 9922   8.402  28.405   7.653
 5537POPC   NC3 9923   5.830  19.065   9.453
 5537POPC   PO4 9924   5.848  19.062   9.153
 5537POPC   GL1 9925   5.899  19.044   8.853
 5537POPC   GL2 9926   5.841  18.896   8.853
 5537POPC   C1A 9927   5.831  19.082   8.553
 5537POPC   D2A 9928   5.872  19.009   8.253
 5537POPC   C3A 9929   5.837  19.055   7.953
 5537POPC   C4A 9930   5.823  19.050   7.653
 5537POPC   C1B 9931   5.821  18.809   8.553
 5537POPC   C2B 9932   5.914  18.796   8.253
 5537POPC   C3B 9933   5.897  18.764   7.953
 5537POPC   C4B 9934   5.871  18.784   7.653
 5538POPC   NC3 9935  37.721  26.057   9.453
 5538POPC   PO4 9936  37.668  26.075   9.153
 5538POPC   GL1 9937  37.670  26.035   8.853
 5538POPC   GL2 9938  37.816  26.060   8.853
 5538POPC   C1A 9939  37.715  26.013   8.553
 5538POPC   D2A 9940  37.632  26.031   8.253
 5538POPC   C3A 9941  37.691  26.054   7.953
 5538POPC   C4A 9942  37.658  26.038   7.653
 5538POPC   C1B 9943  37.888  26.067   8.553
 5538POPC   C2B 9944  37.953  25.999   8.253
 5538POPC   C3B 9945  37.977  26.006   7.953
 5538POPC   C4B 9946  37.892  26.031   7.653
 5539POPC   NC3 9947  12.090  20.576   9.453
 5539POPC   PO4 9948  12.029  20.609   9.153
 5539POPC   GL1 9949  12.077  20.611   8.853
 5539POPC   GL2 9950  12.123  20.458   8.853
 5539POPC   C1A 9951  12.037  20.560   8.553
 5539POPC   D2A 9952  12.049  20.659   8.253
 5539POPC   C3A 9953  12.117  20.618   7.953
 5539POPC   C4A 9954  12.057  20.596   7.653
 5539POPC   C1B 9955  12.120  20.366   8.553
 5539POPC   C2B 9956  12.117  20.400   8.253
 5539POPC   C3B 9957  12.117  20.390   7.953
 5539POPC   C4B 9958  12.101  20.392   7.653
 5540POPC   NC3 9959   8.184  32.295   9.453
 5540POPC   PO4 9960   8.223  32.225   9.153
 5540POPC   GL1 9961   8.167  32.274   8.853
 5540POPC   GL2 9962   8.194  32.355   8.853
 5540POPC   C1A 9963   8.238  32.240   8.553
 5540POPC   D2A 9964   8.162  32.254   8.253
 5540POPC   C3A 9965   8.209  32.209   7.953
 5540POPC   C4A 9966   8.219  32.238   7.653
 5540POPC   C1B 9967   8.130  32.518   8.553
 5540POPC   C2B 9968   8.130  32.454   8.253
 5540POPC   C3B 9969   8.078  32.436   7.953
 5540POPC   C4B 9970   8.122  32.528   7.653
 5541POPC   NC3 9971   5.839  39.242   9.453
 5541POPC   PO4 9972   5.917  39.214   9.153
 5541POPC   GL1 9973   5.859  39.262   8.853
 5541POPC   GL2 9974   5.802  39.146   8.853
 5541POPC   C1A 9975   5.850  39.183   8.553
 5541POPC   D2A 9976   5.854  39.231   8.253
 5541POPC   C3A 9977   5.902  39.222   7.953
 5541POPC   C4A 9978   5.908  39.186   7.653
 5541POPC   C1B 9979   5.752  39.057   8.553
 5541POPC   C2B 9980   5.735  39.002   8.253
 5541POPC   C3B 9981   5.692  39.007   7.953
 5541POPC   C4B 9982   5.688  38.986   7.653
 5542POPC   NC3 9983  43.101  34.543   9.453
 5542POPC   PO4 9984  43.122  34.545   9.153
 5542POPC   GL1 9985  43.088  34.610   8.853
 5542POPC   GL2 9986  43.206  34.588   8.853
 5542POPC   C1A 9987  43.157  34.547   8.553
 5542POPC   D2A 9988  43.084  34.558   8.253
 5542POPC   C3A 9989  43.067  34.582   7.953
 5542POPC   C4A 9990  43.137  34.584   7.653
 5542POPC   C1B 9991  43.355  34.552   8.553
 5542POPC   C2B 9992  43.321  34.540   8.253
 5542POPC   C3B 9993  43.376  34.474   7.953
 5542POPC   C4B 9994  43.323  34.529   7.653
 5543POPC   NC3 9995  21.383  38.417   9.453
 5543POPC   PO4 9996  21.423  38.406   9.153
 5543POPC   GL1 9997  21.396  38.429   8.853
 5543POPC   GL2 9998  21.502  38.415   8.853
 5543POPC   C1A 9999  21.403  38.452   8.553
 5543POPC   D2A10000  21.423  38.488   8.253
 5543POPC   C3A10001  21.369  38.435   7.953
 5543POPC   C4A10002  21.359  38.419   7.653
 5543POPC   C1B10003  21.571  38.247   8.553
 5543POPC   C2B10004  21.628  38.256   8.253
 5543POPC   C3B10005  21.534  38.322   7.953
 5543POPC   C4B10006  21.607  38.326   7.653
 5544POPC   NC310007  15.981  26.080   9.453
 5544POPC   PO410008  15.965  26.082   9.153
 5544POPC   GL110009  15.930  26.052   8.853
 5544POPC   GL210010  15.868  26.059   8.853
 5544POPC   C1A10011  15.981  26.082   8.553
 5544POPC   D2A10012  15.927  26.065   8.253
 5544POPC   C3A10013  15.926  26.020   7.953
 5544POPC   C4A10014  15.949  26.023   7.653
 5544POPC   C1B10015  15.717  26.112   8.553
 5544POPC   C2B10016  15.710  26.117   8.253
 5544POPC   C3B10017  15.754  26.161   7.953
 5544POPC   C4B10018  15.740  26.137   7.653
 5545POPC   NC310019  34.552  13.672   9.453
 5545POPC   PO410020  34.571  13.652   9.153
 5545POPC   GL110021  34.593  13.618   8.853
 5545POPC   GL210022  34.459  13.527   8.853
 5545POPC   C1A10023  34.578  13.631   8.553
 5545POPC   D2A10024  34.548  13.605   8.253
 5545POPC   C3A10025  34.529  13.652   7.953
 5545POPC   C4A10026  34.593  13.586   7.653
 5545POPC   C1B10027  34.307  13.551   8.553
 5545POPC   C2B10028  34.342  13.546   8.253
 5545POPC   C3B10029  34.306  13.477   7.953
 5545POPC   C4B10030  34.388  13.484   7.653
 5546POPC   NC310031  39.200   7.451   9.453
 5546POPC   PO410032  39.194   7.419   9.153
 5546POPC   GL110033  39.231   7.403   8.853
 5546POPC   GL210034  39.384   7.381   8.853
 5546POPC   C1A10035  39.252   7.460   8.553
 5546POPC   D2A10036  39.242   7.458   8.253
 5546POPC   C3A10037  39.279   7.462   7.953
 5546POPC   C4A10038  39.218   7.442   7.653
 5546POPC   C1B10039  39.436   7.354   8.553
 5546POPC   C2B10040  39.462   7.294   8.253
 5546POPC   C3B10041  39.435   7.307   7.953
 5546POPC   C4B10042  39.472   7.371   7.653
 5547POPC   NC310043  36.925  41.559   9.453
 5547POPC   PO410044  36.927  41.579   9.153
 5547POPC   GL110045  36.867  41.543   8.853
 5547POPC   GL210046  36.761  41.475   8.853
 5547POPC   C1A10047  36.880  41.573   8.553
 5547POPC   D2A10048  36.924  41.597   8.253
 5547POPC   C3A10049  36.856  41.527   7.953
 5547POPC   C4A10050  36.899  41.578   7.653
 5547POPC   C1B10051  36.700  41.396   8.553
 5547POPC   C2B10052  36.656  41.423   8.253
 5547POPC   C3B10053  36.687  41.468   7.953
 5547POPC   C4B10054  36.699  41.393   7.653
 5548POPC   NC310055  18.294   7.420   9.453
 5548POPC   PO410056  18.247   7.434   9.153
 5548POPC   GL110057  18.311   7.426   8.853
 5548POPC   GL210058  18.360   7.551   8.853
 5548POPC   C1A10059  18.301   7.466   8.553
 5548POPC   D2A10060  18.258   7.464   8.253
 5548POPC   C3A10061  18.279   7.419   7.953
 5548POPC   C4A10062  18.271   7.448   7.653
 5548POPC   C1B10063  18.377   7.704   8.553
 5548POPC   C2B10064  18.393   7.703   8.253
 5548POPC   C3B10065  18.341   7.653   7.953
 5548POPC   C4B10066  18.315   7.653   7.653
 5549POPC   NC310067  29.880  42.344   9.453
 5549POPC   PO410068  29.958  42.347   9.153
 5549POPC   GL110069  29.906  42.300   8.853
 5549POPC   GL210070  29.971  42.437   8.853
 5549POPC   C1A10071  29.904  42.305   8.553
 5549POPC   D2A10072  29.895  42.339   8.253
 5549POPC   C3A10073  29.872  42.310   7.953
 5549POPC   C4A10074  29.910  42.331   7.653
 5549POPC   C1B10075  29.965  42.576   8.553
 5549POPC   C2B10076  29.953  42.607   8.253
 5549POPC   C3B10077  29.914  42.537   7.953
 5549POPC   C4B10078  29.953  42.546   7.653
 5550POPC   NC310079   0.484  43.853   9.453
 5550POPC   PO410080   0.446  43.851   9.153
 5550POPC   GL110081   0.454  43.903   8.853
 5550POPC   GL210082   0.414  43.760   8.853
 5550POPC   C1A10083   0.388  43.880   8.553
 5550POPC   D2A10084   0.455  43.859   8.253
 5550POPC   C3A10085   0.467  43.896   7.953
 5550POPC   C4A10086   0.487  43.859   7.653
 5550POPC   C1B10087   0.406  43.662   8.553
 5550POPC   C2B10088   0.375  43.637   8.253
 5550POPC   C3B10089   0.346  43.620   7.953
 5550POPC   C4B10090   0.363  43.634   7.653
 5551POPC   NC310091  18.317  44.632   9.453
 5551POPC   PO410092  18.313  44.632   9.153
 5551POPC   GL110093  18.324  44.701   8.853
 5551POPC   GL210094  18.188  44.621   8.853
 5551POPC   C1A10095  18.284  44.616   8.553
 5551POPC   D2A10096  18.308  44.657   8.253
 5551POPC   C3A10097  18.318  44.654   7.953
 5551POPC   C4A10098  18.298  44.695   7.653
 5551POPC   C1B10099  18.099  44.517   8.553
 5551POPC   C2B10100  18.069  44.481   8.253
 5551POPC   C3B10101  18.090  44.472   7.953
 5551POPC   C4B10102  18.111  44.469   7.653
 5552POPC   NC310103  35.400  34.542   9.453
 5552POPC   PO410104  35.327  34.623   9.153
 5552POPC   GL110105  35.302  34.602   8.853
 5552POPC   GL210106  35.234  34.628   8.853
 5552POPC   C1A10107  35.396  34.555   8.553
 5552POPC   D2A10108  35.379  34.585   8.253
 5552POPC   C3A10109  35.354  34.549   7.953
 5552POPC   C4A10110  35.342  34.537   7.653
 5552POPC   C1B10111  35.163  34.705   8.553
 5552POPC   C2B10112  35.144  34.762   8.253
 5552POPC   C3B10113  35.119  34.763   7.953
 5552POPC   C4B10114  35.132  34.702   7.653
 5553POPC   NC310115  41.552   1.241   9.453
 5553POPC   PO410116  41.524   1.178   9.153
 5553POPC   GL110117  41.546   1.177   8.853
 5553POPC   GL210118  41.464   1.085   8.853
 5553POPC   C1A10119  41.576   1.184   8.553
 5553POPC   D2A10120  41.589   1.257   8.253
 5553POPC   C3A10121  41.548   1.210   7.953
 5553POPC   C4A10122  41.549   1.230   7.653
 5553POPC   C1B10123  41.439   1.056   8.553
 5553POPC   C2B10124  41.380   1.045   8.253
 5553POPC   C3B10125  41.412   1.038   7.953
 5553POPC   C4B10126  41.467   1.021   7.653
 5554POPC   NC310127   7.389   2.748   9.453
 5554POPC   PO410128   7.421   2.800   9.153
 5554POPC   GL110129   7.459   2.759   8.853
 5554POPC   GL210130   7.469   2.711   8.853
 5554POPC   C1A10131   7.456   2.769   8.553
 5554POPC   D2A10132   7.407   2.793   8.253
 5554POPC   C3A10133   7.456   2.799   7.953
 5554POPC   C4A10134   7.433   2.770   7.653
 5554POPC   C1B10135   7.618   2.623   8.553
 5554POPC   C2B10136   7.608   2.596   8.253
 5554POPC   C3B10137   7.538   2.530   7.953
 5554POPC   C4B10138   7.541   2.625   7.653
 5555POPC   NC310139  41.543  41.561   9.453
 5555POPC   PO410140  41.512  41.568   9.153
 5555POPC   GL110141  41.522  41.552   8.853
 5555POPC   GL210142  41.515  41.483   8.853
 5555POPC   C1A10143  41.541  41.595   8.553
 5555POPC   D2A10144  41.570  41.527   8.253
 5555POPC   C3A10145  41.575  41.523   7.953
 5555POPC   C4A10146  41.564  41.510   7.653
 5555POPC   C1B10147  41.488  41.369   8.553
 5555POPC   C2B10148  41.523  41.286   8.253
 5555POPC   C3B10149  41.458  41.350   7.953
 5555POPC   C4B10150  41.484  41.305   7.653
 5556POPC   NC310151   5.877  15.971   9.453
 5556POPC   PO410152   5.881  15.974   9.153
 5556POPC   GL110153   5.845  15.991   8.853
 5556POPC   GL210154   5.929  16.067   8.853
 5556POPC   C1A10155   5.830  15.924   8.553
 5556POPC   D2A10156   5.910  15.990   8.253
 5556POPC   C3A10157   5.854  15.908   7.953
 5556POPC   C4A10158   5.890  15.916   7.653
 5556POPC   C1B10159   6.074  16.163   8.553
 5556POPC   C2B10160   5.995  16.176   8.253
 5556POPC   C3B10161   6.094  16.109   7.953
 5556POPC   C4B10162   6.089  16.087   7.653
 5557POPC   NC310163  40.052  25.308   9.453
 5557POPC   PO410164  39.990  25.315   9.153
 5557POPC   GL110165  40.026  25.220   8.853
 5557POPC   GL210166  40.112  25.248   8.853
 5557POPC   C1A10167  40.046  25.244   8.553
 5557POPC   D2A10168  39.973  25.291   8.253
 5557POPC   C3A10169  39.970  25.258   7.953
 5557POPC   C4A10170  39.977  25.244   7.653
 5557POPC   C1B10171  40.277  25.354   8.553
 5557POPC   C2B10172  40.290  25.334   8.253
 5557POPC   C3B10173  40.265  25.322   7.953
 5557POPC   C4B10174  40.207  25.306   7.653
 5558POPC   NC310175  31.426  31.513   9.453
 5558POPC   PO410176  31.486  31.452   9.153
 5558POPC   GL110177  31.430  31.468   8.853
 5558POPC   GL210178  31.346  31.571   8.853
 5558POPC   C1A10179  31.483  31.443   8.553
 5558POPC   D2A10180  31.507  31.484   8.253
 5558POPC   C3A10181  31.516  31.453   7.953
 5558POPC   C4A10182  31.515  31.520   7.653
 5558POPC   C1B10183  31.288  31.574   8.553
 5558POPC   C2B10184  31.285  31.600   8.253
 5558POPC   C3B10185  31.291  31.652   7.953
 5558POPC   C4B10186  31.259  31.588   7.653
 5559POPC   NC310187   2.754  19.012   9.453
 5559POPC   PO410188   2.767  19.062   9.153
 5559POPC   GL110189   2.728  19.094   8.853
 5559POPC   GL210190   2.905  19.024   8.853
 5559POPC   C1A10191   2.800  19.026   8.553
 5559POPC   D2A10192   2.775  19.032   8.253
 5559POPC   C3A10193   2.791  19.050   7.953
 5559POPC   C4A10194   2.801  19.056   7.653
 5559POPC   C1B10195   3.051  19.083   8.553
 5559POPC   C2B10196   3.005  19.066   8.253
 5559POPC   C3B10197   3.045  19.021   7.953
 5559POPC   C4B10198   2.990  19.073   7.653
 5560POPC   NC310199   8.994  43.117   9.453
 5560POPC   PO410200   8.951  43.141   9.153
 5560POPC   GL110201   8.935  43.129   8.853
 5560POPC   GL210202   8.870  43.123   8.853
 5560POPC   C1A10203   8.978  43.092   8.553
 5560POPC   D2A10204   9.004  43.083   8.253
 5560POPC   C3A10205   8.959  43.154   7.953
 5560POPC   C4A10206   8.931  43.147   7.653
 5560POPC   C1B10207   8.686  43.055   8.553
 5560POPC   C2B10208   8.763  43.083   8.253
 5560POPC   C3B10209   8.759  43.112   7.953
 5560POPC   C4B10210   8.727  43.099   7.653
 5561POPC   NC310211  19.822  26.850   9.453
 5561POPC   PO410212  19.876  26.799   9.153
 5561POPC   GL110213  19.788  26.771   8.853
 5561POPC   GL210214  19.758  26.758   8.853
 5561POPC   C1A10215  19.831  26.834   8.553
 5561POPC   D2A10216  19.848  26.775   8.253
 5561POPC   C3A10217  19.879  26.798   7.953
 5561POPC   C4A10218  19.845  26.793   7.653
 5561POPC   C1B10219  19.658  26.675   8.553
 5561POPC   C2B10220  19.584  26.676   8.253
 5561POPC   C3B10221  19.575  26.713   7.953
 5561POPC   C4B10222  19.597  26.744   7.653
 5562POPC   NC310223   9.005  33.051   9.453
 5562POPC   PO410224   8.975  33.058   9.153
 5562POPC   GL110225   9.009  33.023   8.853
 5562POPC   GL210226   9.108  32.982   8.853
 5562POPC   C1A10227   8.934  33.032   8.553
 5562POPC   D2A10228   8.945  32.977   8.253
 5562POPC   C3A10229   8.962  33.024   7.953
 5562POPC   C4A10230   8.991  33.010   7.653
 5562POPC   C1B10231   9.213  33.005   8.553
 5562POPC   C2B10232   9.245  33.020   8.253
 5562POPC   C3B10233   9.235  32.968   7.953
 5562POPC   C4B10234   9.168  32.973   7.653
 5563POPC   NC310235  10.539  32.990   9.453
 5563POPC   PO410236  10.489  33.040   9.153
 5563POPC   GL110237  10.552  33.041   8.853
 5563POPC   GL210238  10.582  33.110   8.853
 5563POPC   C1A10239  10.542  33.001   8.553
 5563POPC   D2A10240  10.527  33.027   8.253
 5563POPC   C3A10241  10.525  32.976   7.953
 5563POPC   C4A10242  10.565  33.002   7.653
 5563POPC   C1B10243  10.722  33.143   8.553
 5563POPC   C2B10244  10.725  33.209   8.253
 5563POPC   C3B10245  10.723  33.156   7.953
 5563POPC   C4B10246  10.755  33.189   7.653
 5564POPC   NC310247  16.693   7.400   9.453
 5564POPC   PO410248  16.760   7.384   9.153
 5564POPC   GL110249  16.709   7.373   8.853
 5564POPC   GL210250  16.685   7.307   8.853
 5564POPC   C1A10251  16.703   7.398   8.553
 5564POPC   D2A10252  16.748   7.447   8.253
 5564POPC   C3A10253  16.768   7.377   7.953
 5564POPC   C4A10254  16.726   7.447   7.653
 5564POPC   C1B10255  16.562   7.201   8.553
 5564POPC   C2B10256  16.600   7.183   8.253
 5564POPC   C3B10257  16.617   7.170   7.953
 5564POPC   C4B10258  16.575   7.222   7.653
 5565POPC   NC310259  26.814   6.689   9.453
 5565POPC   PO410260  26.770   6.675   9.153
 5565POPC   GL110261  26.806   6.662   8.853
 5565POPC   GL210262  26.689   6.575   8.853
 5565POPC   C1A10263  26.767   6.616   8.553
 5565POPC   D2A10264  26.791   6.628   8.253
 5565POPC   C3A10265  26.786   6.631   7.953
 5565POPC   C4A10266  26.792   6.661   7.653
 5565POPC   C1B10267  26.543   6.619   8.553
 5565POPC   C2B10268  26.614   6.561   8.253
 5565POPC   C3B10269  26.605   6.527   7.953
 5565POPC   C4B10270  26.588   6.541   7.653
 5566POPC   NC310271  19.056   5.138   9.453
 5566POPC   PO410272  19.022   5.106   9.153
 5566POPC   GL110273  19.034   5.083   8.853
 5566POPC   GL210274  18.893   5.095   8.853
 5566POPC   C1A10275  19.073   5.084   8.553
 5566POPC   D2A10276  19.044   5.128   8.253
 5566POPC   C3A10277  19.050   5.078   7.953
 5566POPC   C4A10278  19.091   5.063   7.653
 5566POPC   C1B10279  18.784   5.236   8.553
 5566POPC   C2B10280  18.823   5.152   8.253
 5566POPC   C3B10281  18.868   5.192   7.953
 5566POPC   C4B10282  18.832   5.141   7.653
 5567POPC   NC310283  31.476   1.177   9.453
 5567POPC   PO410284  31.451   1.263   9.153
 5567POPC   GL110285  31.482   1.210   8.853
 5567POPC   GL210286  31.463   1.347   8.853
 5567POPC   C1A10287  31.470   1.192   8.553
 5567POPC   D2A10288  31.460   1.216   8.253
 5567POPC   C3A10289  31.508   1.167   7.953
 5567POPC   C4A10290  31.504   1.233   7.653
 5567POPC   C1B10291  31.522   1.413   8.553
 5567POPC   C2B10292  31.508   1.452   8.253
 5567POPC   C3B10293  31.500   1.422   7.953
 5567POPC   C4B10294  31.488   1.409   7.653
 5568POPC   NC310295  12.065   4.356   9.453
 5568POPC   PO410296  12.114   4.322   9.153
 5568POPC   GL110297  12.040   4.359   8.853
 5568POPC   GL210298  11.962   4.364   8.853
 5568POPC   C1A10299  12.119   4.272   8.553
 5568POPC   D2A10300  12.101   4.324   8.253
 5568POPC   C3A10301  12.101   4.314   7.953
 5568POPC   C4A10302  12.109   4.358   7.653
 5568POPC   C1B10303  11.858   4.447   8.553
 5568POPC   C2B10304  11.826   4.394   8.253
 5568POPC   C3B10305  11.838   4.444   7.953
 5568POPC   C4B10306  11.842   4.405   7.653
 5569POPC   NC310307  39.965  23.712   9.453
 5569POPC   PO410308  40.055  23.668   9.153
 5569POPC   GL110309  39.982  23.733   8.853
 5569POPC   GL210310  40.074  23.787   8.853
 5569POPC   C1A10311  39.986  23.698   8.553
 5569POPC   D2A10312  40.048  23.717   8.253
 5569POPC   C3A10313  39.996  23.749   7.953
 5569POPC   C4A10314  40.007  23.694   7.653
 5569POPC   C1B10315  40.245  23.832   8.553
 5569POPC   C2B10316  40.219  23.821   8.253
 5569POPC   C3B10317  40.224  23.813   7.953
 5569POPC   C4B10318  40.232  23.834   7.653
 5570POPC   NC310319  25.245  13.674   9.453
 5570POPC   PO410320  25.252  13.646   9.153
 5570POPC   GL110321  25.268  13.578   8.853
 5570POPC   GL210322  25.365  13.576   8.853
 5570POPC   C1A10323  25.230  13.590   8.553
 5570POPC   D2A10324  25.222  13.598   8.253
 5570POPC   C3A10325  25.251  13.643   7.953
 5570POPC   C4A10326  25.292  13.617   7.653
 5570POPC   C1B10327  25.484  13.631   8.553
 5570POPC   C2B10328  25.556  13.620   8.253
 5570POPC   C3B10329  25.513  13.619   7.953
 5570POPC   C4B10330  25.521  13.599   7.653
 5571POPC   NC310331   6.633  28.359   9.453
 5571POPC   PO410332   6.660  28.412   9.153
 5571POPC   GL110333   6.684  28.381   8.853
 5571POPC   GL210334   6.541  28.386   8.853
 5571POPC   C1A10335   6.653  28.404   8.553
 5571POPC   D2A10336   6.674  28.398   8.253
 5571POPC   C3A10337   6.652  28.340   7.953
 5571POPC   C4A10338   6.602  28.342   7.653
 5571POPC   C1B10339   6.371  28.391   8.553
 5571POPC   C2B10340   6.421  28.331   8.253
 5571POPC   C3B10341   6.371  28.321   7.953
 5571POPC   C4B10342   6.426  28.337   7.653
 5572POPC   NC310343  20.632  41.528   9.453
 5572POPC   PO410344  20.592  41.522   9.153
 5572POPC   GL110345  20.587  41.606   8.853
 5572POPC   GL210346  20.597  41.688   8.853
 5572POPC   C1A10347  20.565  41.522   8.553
 5572POPC   D2A10348  20.634  41.585   8.253
 5572POPC   C3A10349  20.618  41.581   7.953
 5572POPC   C4A10350  20.645  41.568   7.653
 5572POPC   C1B10351  20.584  41.846   8.553
 5572POPC   C2B10352  20.612  41.845   8.253
 5572POPC   C3B10353  20.653  41.825   7.953
 5572POPC   C4B10354  20.583  41.771   7.653
 5573POPC   NC310355  23.736  14.408   9.453
 5573POPC   PO410356  23.719  14.446   9.153
 5573POPC   GL110357  23.709  14.399   8.853
 5573POPC   GL210358  23.744  14.499   8.853
 5573POPC   C1A10359  23.708  14.401   8.553
 5573POPC   D2A10360  23.744  14.378   8.253
 5573POPC   C3A10361  23.692  14.428   7.953
 5573POPC   C4A10362  23.735  14.354   7.653
 5573POPC   C1B10363  23.829  14.598   8.553
 5573POPC   C2B10364  23.908  14.650   8.253
 5573POPC   C3B10365  23.819  14.582   7.953
 5573POPC   C4B10366  23.830  14.575   7.653
 5574POPC   NC310367  14.388   4.323   9.453
 5574POPC   PO410368  14.364   4.275   9.153
 5574POPC   GL110369  14.388   4.325   8.853
 5574POPC   GL210370  14.516   4.349   8.853
 5574POPC   C1A10371  14.371   4.279   8.553
 5574POPC   D2A10372  14.440   4.278   8.253
 5574POPC   C3A10373  14.380   4.314   7.953
 5574POPC   C4A10374  14.397   4.303   7.653
 5574POPC   C1B10375  14.672   4.353   8.553
 5574POPC   C2B10376  14.595   4.423   8.253
 5574POPC   C3B10377  14.643   4.377   7.953
 5574POPC   C4B10378  14.609   4.354   7.653
 5575POPC   NC310379  32.233  29.921   9.453
 5575POPC   PO410380  32.266  29.928   9.153
 5575POPC   GL110381  32.239  29.878   8.853
 5575POPC   GL210382  32.116  29.858   8.853
 5575POPC   C1A10383  32.234  29.907   8.553
 5575POPC   D2A10384  32.219  29.939   8.253
 5575POPC   C3A10385  32.250  29.936   7.953
 5575POPC   C4A10386  32.251  29.968   7.653
 5575POPC   C1B10387  32.048  29.885   8.553
 5575POPC   C2B10388  31.961  29.847   8.253
 5575POPC   C3B10389  31.967  29.842   7.953
 5575POPC   C4B10390  32.004  29.917   7.653
 5576POPC   NC310391   3.534  17.518   9.453
 5576POPC   PO410392   3.541  17.480   9.153
 5576POPC   GL110393   3.535  17.473   8.853
 5576POPC   GL210394   3.444  17.464   8.853
 5576POPC   C1A10395   3.521  17.487   8.553
 5576POPC   D2A10396   3.571  17.480   8.253
 5576POPC   C3A10397   3.519  17.470   7.953
 5576POPC   C4A10398   3.567  17.514   7.653
 5576POPC   C1B10399   3.293  17.471   8.553
 5576POPC   C2B10400   3.321  17.439   8.253
 5576POPC   C3B10401   3.317  17.455   7.953
 5576POPC   C4B10402   3.272  17.402   7.653
 5577POPC   NC310403   6.621   5.062   9.453
 5577POPC   PO410404   6.690   5.119   9.153
 5577POPC   GL110405   6.613   5.056   8.853
 5577POPC   GL210406   6.720   4.994   8.853
 5577POPC   C1A10407   6.610   5.116   8.553
 5577POPC   D2A10408   6.683   5.091   8.253
 5577POPC   C3A10409   6.644   5.137   7.953
 5577POPC   C4A10410   6.598   5.093   7.653
 5577POPC   C1B10411   6.743   4.890   8.553
 5577POPC   C2B10412   6.762   4.812   8.253
 5577POPC   C3B10413   6.756   4.895   7.953
 5577POPC   C4B10414   6.760   4.863   7.653
 5578POPC   NC310415   9.001  13.591   9.453
 5578POPC   PO410416   8.991  13.645   9.153
 5578POPC   GL110417   8.933  13.670   8.853
 5578POPC   GL210418   8.952  13.693   8.853
 5578POPC   C1A10419   9.013  13.671   8.553
 5578POPC   D2A10420   8.924  13.642   8.253
 5578POPC   C3A10421   8.937  13.623   7.953
 5578POPC   C4A10422   8.999  13.578   7.653
 5578POPC   C1B10423   8.874  13.827   8.553
 5578POPC   C2B10424   8.904  13.860   8.253
 5578POPC   C3B10425   8.873  13.883   7.953
 5578POPC   C4B10426   8.866  13.904   7.653
 5579POPC   NC310427  39.199  42.307   9.453
 5579POPC   PO410428  39.227  42.334   9.153
 5579POPC   GL110429  39.217  42.314   8.853
 5579POPC   GL210430  39.107  42.279   8.853
 5579POPC   C1A10431  39.207  42.353   8.553
 5579POPC   D2A10432  39.182  42.328   8.253
 5579POPC   C3A10433  39.215  42.301   7.953
 5579POPC   C4A10434  39.257  42.373   7.653
 5579POPC   C1B10435  39.004  42.213   8.553
 5579POPC   C2B10436  39.008  42.202   8.253
 5579POPC   C3B10437  39.062  42.248   7.953
 5579POPC   C4B10438  38.978  42.173   7.653
 5580POPC   NC310439  41.585  11.264   9.453
 5580POPC   PO410440  41.529  11.344   9.153
 5580POPC   GL110441  41.523  11.264   8.853
 5580POPC   GL210442  41.432  11.229   8.853
 5580POPC   C1A10443  41.553  11.282   8.553
 5580POPC   D2A10444  41.598  11.257   8.253
 5580POPC   C3A10445  41.565  11.310   7.953
 5580POPC   C4A10446  41.552  11.300   7.653
 5580POPC   C1B10447  41.346  11.144   8.553
 5580POPC   C2B10448  41.336  11.138   8.253
 5580POPC   C3B10449  41.327  11.165   7.953
 5580POPC   C4B10450  41.323  11.235   7.653
 5581POPC   NC310451  13.650  19.840   9.453
 5581POPC   PO410452  13.665  19.834   9.153
 5581POPC   GL110453  13.584  19.825   8.853
 5581POPC   GL210454  13.490  19.922   8.853
 5581POPC   C1A10455  13.669  19.836   8.553
 5581POPC   D2A10456  13.615  19.805   8.253
 5581POPC   C3A10457  13.593  19.822   7.953
 5581POPC   C4A10458  13.675  19.785   7.653
 5581POPC   C1B10459  13.402  19.963   8.553
 5581POPC   C2B10460  13.443  19.962   8.253
 5581POPC   C3B10461  13.395  20.006   7.953
 5581POPC   C4B10462  13.424  19.984   7.653
 5582POPC   NC310463   4.323  31.496   9.453
 5582POPC   PO410464   4.334  31.479   9.153
 5582POPC   GL110465   4.310  31.492   8.853
 5582POPC   GL210466   4.408  31.336   8.853
 5582POPC   C1A10467   4.356  31.481   8.553
 5582POPC   D2A10468   4.286  31.458   8.253
 5582POPC   C3A10469   4.269  31.506   7.953
 5582POPC   C4A10470   4.365  31.491   7.653
 5582POPC   C1B10471   4.469  31.286   8.553
 5582POPC   C2B10472   4.511  31.280   8.253
 5582POPC   C3B10473   4.502  31.315   7.953
 5582POPC   C4B10474   4.520  31.241   7.653
 5583POPC   NC310475  29.873  12.109   9.453
 5583POPC   PO410476  29.891  12.065   9.153
 5583POPC   GL110477  29.960  12.048   8.853
 5583POPC   GL210478  29.991  12.068   8.853
 5583POPC   C1A10479  29.964  12.085   8.553
 5583POPC   D2A10480  29.919  12.079   8.253
 5583POPC   C3A10481  29.917  12.092   7.953
 5583POPC   C4A10482  29.881  12.101   7.653
 5583POPC   C1B10483  30.168  12.147   8.553
 5583POPC   C2B10484  30.174  12.183   8.253
 5583POPC   C3B10485  30.191  12.174   7.953
 5583POPC   C4B10486  30.132  12.106   7.653
 5584POPC   NC310487   2.730  43.140   9.453
 5584POPC   PO410488   2.745  43.114   9.153
 5584POPC   GL110489   2.800  43.105   8.853
 5584POPC   GL210490   2.933  43.122   8.853
 5584POPC   C1A10491   2.800  43.127   8.553
 5584POPC   D2A10492   2.746  43.141   8.253
 5584POPC   C3A10493   2.722  43.117   7.953
 5584POPC   C4A10494   2.798  43.092   7.653
 5584POPC   C1B10495   2.961  43.199   8.553
 5584POPC   C2B10496   3.019  43.156   8.253
 5584POPC   C3B10497   3.045  43.195   7.953
 5584POPC   C4B10498   3.045  43.173   7.653
 5585POPC   NC310499  37.693  10.505   9.453
 5585POPC   PO410500  37.712  10.523   9.153
 5585POPC   GL110501  37.723  10.504   8.853
 5585POPC   GL210502  37.571  10.581   8.853
 5585POPC   C1A10503  37.702  10.557   8.553
 5585POPC   D2A10504  37.639  10.536   8.253
 5585POPC   C3A10505  37.655  10.569   7.953
 5585POPC   C4A10506  37.652  10.516   7.653
 5585POPC   C1B10507  37.462  10.700   8.553
 5585POPC   C2B10508  37.489  10.664   8.253
 5585POPC   C3B10509  37.428  10.644   7.953
 5585POPC   C4B10510  37.493  10.611   7.653
 5586POPC   NC310511  24.454   8.180   9.453
 5586POPC   PO410512  24.481   8.184   9.153
 5586POPC   GL110513  24.526   8.233   8.853
 5586POPC   GL210514  24.535   8.114   8.853
 5586POPC   C1A10515  24.468   8.238   8.553
 5586POPC   D2A10516  24.448   8.244   8.253
 5586POPC   C3A10517  24.509   8.149   7.953
 5586POPC   C4A10518  24.452   8.189   7.653
 5586POPC   C1B10519  24.483   7.987   8.553
 5586POPC   C2B10520  24.446   7.911   8.253
 5586POPC   C3B10521  24.456   7.975   7.953
 5586POPC   C4B10522  24.534   7.914   7.653
 5587POPC   NC310523  36.862  30.679   9.453
 5587POPC   PO410524  36.883  30.673   9.153
 5587POPC   GL110525  36.884  30.712   8.853
 5587POPC   GL210526  36.982  30.700   8.853
 5587POPC   C1A10527  36.854  30.705   8.553
 5587POPC   D2A10528  36.863  30.651   8.253
 5587POPC   C3A10529  36.871  30.655   7.953
 5587POPC   C4A10530  36.915  30.744   7.653
 5587POPC   C1B10531  37.170  30.755   8.553
 5587POPC   C2B10532  37.200  30.703   8.253
 5587POPC   C3B10533  37.180  30.687   7.953
 5587POPC   C4B10534  37.165  30.751   7.653
 5588POPC   NC310535  29.095  18.237   9.453
 5588POPC   PO410536  29.113  18.325   9.153
 5588POPC   GL110537  29.165  18.296   8.853
 5588POPC   GL210538  28.997  18.207   8.853
 5588POPC   C1A10539  29.188  18.260   8.553
 5588POPC   D2A10540  29.147  18.245   8.253
 5588POPC   C3A10541  29.124  18.239   7.953
 5588POPC   C4A10542  29.125  18.306   7.653
 5588POPC   C1B10543  28.928  18.180   8.553
 5588POPC   C2B10544  28.937  18.170   8.253
 5588POPC   C3B10545  28.922  18.238   7.953
 5588POPC   C4B10546  28.917  18.199   7.653
 5589POPC   NC310547  19.065   3.530   9.453
 5589POPC   PO410548  19.025   3.584   9.153
 5589POPC   GL110549  19.067   3.516   8.853
 5589POPC   GL210550  19.142   3.525   8.853
 5589POPC   C1A10551  19.063   3.493   8.553
 5589POPC   D2A10552  19.042   3.577   8.253
 5589POPC   C3A10553  19.025   3.528   7.953
 5589POPC   C4A10554  19.065   3.504   7.653
 5589POPC   C1B10555  19.286   3.620   8.553
 5589POPC   C2B10556  19.336   3.621   8.253
 5589POPC   C3B10557  19.259   3.635   7.953
 5589POPC   C4B10558  19.292   3.632   7.653
 5590POPC   NC310559   8.158  12.874   9.453
 5590POPC   PO410560   8.191  12.886   9.153
 5590POPC   GL110561   8.220  12.824   8.853
 5590POPC   GL210562   8.349  12.805   8.853
 5590POPC   C1A10563   8.168  12.872   8.553
 5590POPC   D2A10564   8.212  12.864   8.253
 5590POPC   C3A10565   8.225  12.828   7.953
 5590POPC   C4A10566   8.222  12.893   7.653
 5590POPC   C1B10567   8.416  12.799   8.553
 5590POPC   C2B10568   8.420  12.772   8.253
 5590POPC   C3B10569   8.409  12.846   7.953
 5590POPC   C4B10570   8.424  12.839   7.653
 5591POPC   NC310571   9.776  15.941   9.453
 5591POPC   PO410572   9.794  15.978   9.153
 5591POPC   GL110573   9.699  16.005   8.853
 5591POPC   GL210574   9.671  16.025   8.853
 5591POPC   C1A10575   9.748  16.001   8.553
 5591POPC   D2A10576   9.763  15.958   8.253
 5591POPC   C3A10577   9.711  15.969   7.953
 5591POPC   C4A10578   9.702  15.913   7.653
 5591POPC   C1B10579   9.468  16.031   8.553
 5591POPC   C2B10580   9.520  16.023   8.253
 5591POPC   C3B10581   9.552  16.013   7.953
 5591POPC   C4B10582   9.499  15.989   7.653
 5592POPC   NC310583  42.346  31.520   9.453
 5592POPC   PO410584  42.378  31.509   9.153
 5592POPC   GL110585  42.341  31.499   8.853
 5592POPC   GL210586  42.466  31.469   8.853
 5592POPC   C1A10587  42.297  31.512   8.553
 5592POPC   D2A10588  42.338  31.430   8.253
 5592POPC   C3A10589  42.366  31.451   7.953
 5592POPC   C4A10590  42.303  31.464   7.653
 5592POPC   C1B10591  42.558  31.493   8.553
 5592POPC   C2B10592  42.567  31.425   8.253
 5592POPC   C3B10593  42.542  31.482   7.953
 5592POPC   C4B10594  42.547  31.491   7.653
 5593POPC   NC310595  39.238  15.965   9.453
 5593POPC   PO410596  39.261  15.978   9.153
 5593POPC   GL110597  39.279  15.935   8.853
 5593POPC   GL210598  39.197  15.838   8.853
 5593POPC   C1A10599  39.232  15.987   8.553
 5593POPC   D2A10600  39.184  15.965   8.253
 5593POPC   C3A10601  39.255  15.911   7.953
 5593POPC   C4A10602  39.252  15.911   7.653
 5593POPC   C1B10603  39.089  15.774   8.553
 5593POPC   C2B10604  39.062  15.746   8.253
 5593POPC   C3B10605  39.112  15.779   7.953
 5593POPC   C4B10606  39.092  15.798   7.653
 5594POPC   NC310607  29.181  17.469   9.453
 5594POPC   PO410608  29.095  17.526   9.153
 5594POPC   GL110609  29.129  17.462   8.853
 5594POPC   GL210610  29.212  17.379   8.853
 5594POPC   C1A10611  29.130  17.503   8.553
 5594POPC   D2A10612  29.124  17.470   8.253
 5594POPC   C3A10613  29.124  17.539   7.953
 5594POPC   C4A10614  29.112  17.478   7.653
 5594POPC   C1B10615  29.262  17.285   8.553
 5594POPC   C2B10616  29.249  17.266   8.253
 5594POPC   C3B10617  29.327  17.264   7.953
 5594POPC   C4B10618  29.274  17.325   7.653
 5595POPC   NC310619  27.625  43.147   9.453
 5595POPC   PO410620  27.576  43.146   9.153
 5595POPC   GL110621  27.587  43.159   8.853
 5595POPC   GL210622  27.493  43.045   8.853
 5595POPC   C1A10623  27.561  43.109   8.553
 5595POPC   D2A10624  27.634  43.111   8.253
 5595POPC   C3A10625  27.555  43.088   7.953
 5595POPC   C4A10626  27.632  43.087   7.653
 5595POPC   C1B10627  27.350  43.072   8.553
 5595POPC   C2B10628  27.355  43.036   8.253
 5595POPC   C3B10629  27.391  43.043   7.953
 5595POPC   C4B10630  27.363  43.070   7.653
 5596POPC   NC310631  15.968  30.657   9.453
 5596POPC   PO410632  15.945  30.671   9.153
 5596POPC   GL110633  15.907  30.720   8.853
 5596POPC   GL210634  15.862  30.670   8.853
 5596POPC   C1A10635  15.965  30.737   8.553
 5596POPC   D2A10636  15.952  30.728   8.253
 5596POPC   C3A10637  15.945  30.739   7.953
 5596POPC   C4A10638  15.987  30.650   7.653
 5596POPC   C1B10639  15.711  30.719   8.553
 5596POPC   C2B10640  15.690  30.757   8.253
 5596POPC   C3B10641  15.724  30.774   7.953
 5596POPC   C4B10642  15.733  30.716   7.653
 5597POPC   NC310643  40.774  30.729   9.453
 5597POPC   PO410644  40.817  30.728   9.153
 5597POPC   GL110645  40.743  30.710   8.853
 5597POPC   GL210646  40.841  30.622   8.853
 5597POPC   C1A10647  40.760  30.686   8.553
 5597POPC   D2A10648  40.759  30.710   8.253
 5597POPC   C3A10649  40.802  30.659   7.953
 5597POPC   C4A10650  40.820  30.655   7.653
 5597POPC   C1B10651  40.978  30.512   8.553
 5597POPC   C2B10652  40.968  30.545   8.253
 5597POPC   C3B10653  40.960  30.524   7.953
 5597POPC   C4B10654  40.903  30.518   7.653
 5598POPC   NC310655  43.094  35.365   9.453
 5598POPC   PO410656  43.093  35.366   9.153
 5598POPC   GL110657  43.062  35.388   8.853
 5598POPC   GL210658  43.125  35.473   8.853
 5598POPC   C1A10659  43.116  35.368   8.553
 5598POPC   D2A10660  43.158  35.341   8.253
 5598POPC   C3A10661  43.156  35.369   7.953
 5598POPC   C4A10662  43.156  35.373   7.653
 5598POPC   C1B10663  43.130  35.560   8.553
 5598POPC   C2B10664  43.074  35.552   8.253
 5598POPC   C3B10665  43.119  35.644   7.953
 5598POPC   C4B10666  43.081  35.634   7.653
 5599POPC   NC310667   9.777  19.058   9.453
 5599POPC   PO410668   9.736  19.031   9.153
 5599POPC   GL110669   9.703  19.066   8.853
 5599POPC   GL210670   9.749  18.953   8.853
 5599POPC   C1A10671   9.703  19.030   8.553
 5599POPC   D2A10672   9.761  19.051   8.253
 5599POPC   C3A10673   9.736  19.100   7.953
 5599POPC   C4A10674   9.711  19.047   7.653
 5599POPC   C1B10675   9.805  18.816   8.553
 5599POPC   C2B10676   9.782  18.852   8.253
 5599POPC   C3B10677   9.761  18.816   7.953
 5599POPC   C4B10678   9.764  18.797   7.653
 5600POPC   NC310679  19.059  36.151   9.453
 5600POPC   PO410680  19.038  36.117   9.153
 5600POPC   GL110681  19.029  36.123   8.853
 5600POPC   GL210682  19.200  36.214   8.853
 5600POPC   C1A10683  19.048  36.096   8.553
 5600POPC   D2A10684  19.077  36.176   8.253
 5600POPC   C3A10685  19.091  36.175   7.953
 5600POPC   C4A10686  19.093  36.108   7.653
 5600POPC   C1B10687  19.234  36.298   8.553
 5600POPC   C2B10688  19.304  36.302   8.253
 5600POPC   C3B10689  19.280  36.239   7.953
 5600POPC   C4B10690  19.259  36.252   7.653
 5601POPC   NC310691  43.107  23.667   9.453
 5601POPC   PO410692  43.116  23.680   9.153
 5601POPC   GL110693  43.131  23.685   8.853
 5601POPC   GL210694  43.033  23.832   8.853
 5601POPC   C1A10695  43.061  23.688   8.553
 5601POPC   D2A10696  43.108  23.759   8.253
 5601POPC   C3A10697  43.102  23.695   7.953
 5601POPC   C4A10698  43.116  23.743   7.653
 5601POPC   C1B10699  43.091  23.906   8.553
 5601POPC   C2B10700  43.091  23.940   8.253
 5601POPC   C3B10701  43.045  23.995   7.953
 5601POPC   C4B10702  43.034  23.955   7.653
 5602POPC   NC310703  14.424  31.454   9.453
 5602POPC   PO410704  14.432  31.506   9.153
 5602POPC   GL110705  14.379  31.452   8.853
 5602POPC   GL210706  14.324  31.552   8.853
 5602POPC   C1A10707  14.373  31.444   8.553
 5602POPC   D2A10708  14.449  31.491   8.253
 5602POPC   C3A10709  14.383  31.473   7.953
 5602POPC   C4A10710  14.378  31.513   7.653
 5602POPC   C1B10711  14.120  31.519   8.553
 5602POPC   C2B10712  14.170  31.572   8.253
 5602POPC   C3B10713  14.210  31.581   7.953
 5602POPC   C4B10714  14.132  31.519   7.653
 5603POPC   NC310715   5.871  26.057   9.453
 5603POPC   PO410716   5.843  26.020   9.153
 5603POPC   GL110717   5.888  26.083   8.853
 5603POPC   GL210718   5.768  26.113   8.853
 5603POPC   C1A10719   5.879  26.033   8.553
 5603POPC   D2A10720   5.835  25.996   8.253
 5603POPC   C3A10721   5.875  25.996   7.953
 5603POPC   C4A10722   5.853  26.018   7.653
 5603POPC   C1B10723   5.686  26.286   8.553
 5603POPC   C2B10724   5.685  26.284   8.253
 5603POPC   C3B10725   5.681  26.208   7.953
 5603POPC   C4B10726   5.724  26.284   7.653
 5604POPC   NC310727  18.276  26.863   9.453
 5604POPC   PO410728  18.314  26.808   9.153
 5604POPC   GL110729  18.239  26.824   8.853
 5604POPC   GL210730  18.186  26.761   8.853
 5604POPC   C1A10731  18.321  26.819   8.553
 5604POPC   D2A10732  18.300  26.836   8.253
 5604POPC   C3A10733  18.249  26.798   7.953
 5604POPC   C4A10734  18.316  26.857   7.653
 5604POPC   C1B10735  18.086  26.672   8.553
 5604POPC   C2B10736  18.135  26.643   8.253
 5604POPC   C3B10737  18.156  26.625   7.953
 5604POPC   C4B10738  18.079  26.610   7.653
 5605POPC   NC310739  36.147  24.447   9.453
 5605POPC   PO410740  36.128  24.497   9.153
 5605POPC   GL110741  36.168  24.514   8.853
 5605POPC   GL210742  36.240  24.450   8.853
 5605POPC   C1A10743  36.160  24.467   8.553
 5605POPC   D2A10744  36.092  24.442   8.253
 5605POPC   C3A10745  36.088  24.464   7.953
 5605POPC   C4A10746  36.174  24.487   7.653
 5605POPC   C1B10747  36.274  24.342   8.553
 5605POPC   C2B10748  36.339  24.380   8.253
 5605POPC   C3B10749  36.351  24.358   7.953
 5605POPC   C4B10750  36.336  24.369   7.653
 5606POPC   NC310751  20.656  43.911   9.453
 5606POPC   PO410752  20.565  43.839   9.153
 5606POPC   GL110753  20.649  43.864   8.853
 5606POPC   GL210754  20.698  43.768   8.853
 5606POPC   C1A10755  20.638  43.910   8.553
 5606POPC   D2A10756  20.572  43.905   8.253
 5606POPC   C3A10757  20.579  43.883   7.953
 5606POPC   C4A10758  20.618  43.845   7.653
 5606POPC   C1B10759  20.730  43.656   8.553
 5606POPC   C2B10760  20.712  43.654   8.253
 5606POPC   C3B10761  20.736  43.650   7.953
 5606POPC   C4B10762  20.690  43.642   7.653
 5607POPC   NC310763  30.724  29.883   9.453
 5607POPC   PO410764  30.738  29.947   9.153
 5607POPC   GL110765  30.715  29.939   8.853
 5607POPC   GL210766  30.737  29.767   8.853
 5607POPC   C1A10767  30.723  29.877   8.553
 5607POPC   D2A10768  30.686  29.905   8.253
 5607POPC   C3A10769  30.651  29.902   7.953
 5607POPC   C4A10770  30.647  29.967   7.653
 5607POPC   C1B10771  30.765  29.673   8.553
 5607POPC   C2B10772  30.762  29.683   8.253
 5607POPC   C3B10773  30.740  29.664   7.953
 5607POPC   C4B10774  30.768  29.721   7.653
 5608POPC   NC310775  17.512  19.072   9.453
 5608POPC   PO410776  17.485  19.042   9.153
 5608POPC   GL110777  17.507  19.022   8.853
 5608POPC   GL210778  17.367  19.025   8.853
 5608POPC   C1A10779  17.461  19.014   8.553
 5608POPC   D2A10780  17.501  19.095   8.253
 5608POPC   C3A10781  17.482  19.019   7.953
 5608POPC   C4A10782  17.477  19.009   7.653
 5608POPC   C1B10783  17.298  19.055   8.553
 5608POPC   C2B10784  17.235  19.062   8.253
 5608POPC   C3B10785  17.220  18.989   7.953
 5608POPC   C4B10786  17.250  19.072   7.653
 5609POPC   NC310787  35.387  36.083   9.453
 5609POPC   PO410788  35.372  36.113   9.153
 5609POPC   GL110789  35.366  36.160   8.853
 5609POPC   GL210790  35.335  35.980   8.853
 5609POPC   C1A10791  35.358  36.125   8.553
 5609POPC   D2A10792  35.324  36.149   8.253
 5609POPC   C3A10793  35.341  36.107   7.953
 5609POPC   C4A10794  35.357  36.102   7.653
 5609POPC   C1B10795  35.302  35.913   8.553
 5609POPC   C2B10796  35.292  35.851   8.253
 5609POPC   C3B10797  35.247  35.898   7.953
 5609POPC   C4B10798  35.275  35.930   7.653
 5610POPC   NC310799   1.187  24.507   9.453
 5610POPC   PO410800   1.220  24.523   9.153
 5610POPC   GL110801   1.164  24.531   8.853
 5610POPC   GL210802   1.188  24.615   8.853
 5610POPC   C1A10803   1.174  24.503   8.553
 5610POPC   D2A10804   1.168  24.503   8.253
 5610POPC   C3A10805   1.190  24.540   7.953
 5610POPC   C4A10806   1.224  24.536   7.653
 5610POPC   C1B10807   1.240  24.698   8.553
 5610POPC   C2B10808   1.232  24.727   8.253
 5610POPC   C3B10809   1.298  24.784   7.953
 5610POPC   C4B10810   1.250  24.687   7.653
 5611POPC   NC310811  29.150  16.731   9.453
 5611POPC   PO410812  29.144  16.773   9.153
 5611POPC   GL110813  29.102  16.692   8.853
 5611POPC   GL210814  29.122  16.583   8.853
 5611POPC   C1A10815  29.124  16.733   8.553
 5611POPC   D2A10816  29.097  16.692   8.253
 5611POPC   C3A10817  29.106  16.732   7.953
 5611POPC   C4A10818  29.144  16.687   7.653
 5611POPC   C1B10819  29.095  16.450   8.553
 5611POPC   C2B10820  29.032  16.516   8.253
 5611POPC   C3B10821  29.085  16.546   7.953
 5611POPC   C4B10822  29.091  16.547   7.653
 5612POPC   NC310823  41.518  18.235   9.453
 5612POPC   PO410824  41.598  18.324   9.153
 5612POPC   GL110825  41.536  18.275   8.853
 5612POPC   GL210826  41.447  18.297   8.853
 5612POPC   C1A10827  41.606  18.290   8.553
 5612POPC   D2A10828  41.560  18.328   8.253
 5612POPC   C3A10829  41.589  18.265   7.953
 5612POPC   C4A10830  41.530  18.241   7.653
 5612POPC   C1B10831  41.272  18.348   8.553
 5612POPC   C2B10832  41.367  18.317   8.253
 5612POPC   C3B10833  41.361  18.378   7.953
 5612POPC   C4B10834  41.279  18.309   7.653
 5613POPC   NC310835  39.222  36.086   9.453
 5613POPC   PO410836  39.222  36.097   9.153
 5613POPC   GL110837  39.215  36.117   8.853
 5613POPC   GL210838  39.070  36.114   8.853
 5613POPC   C1A10839  39.229  36.148   8.553
 5613POPC   D2A10840  39.191  36.129   8.253
 5613POPC   C3A10841  39.242  36.151   7.953
 5613POPC   C4A10842  39.255  36.105   7.653
 5613POPC   C1B10843  38.979  36.123   8.553
 5613POPC   C2B10844  39.003  36.072   8.253
 5613POPC   C3B10845  39.028  36.142   7.953
 5613POPC   C4B10846  38.939  36.070   7.653
 5614POPC   NC310847   9.703  40.792   9.453
 5614POPC   PO410848   9.715  40.752   9.153
 5614POPC   GL110849   9.793  40.753   8.853
 5614POPC   GL210850   9.788  40.899   8.853
 5614POPC   C1A10851   9.780  40.774   8.553
 5614POPC   D2A10852   9.792  40.737   8.253
 5614POPC   C3A10853   9.753  40.767   7.953
 5614POPC   C4A10854   9.726  40.785   7.653
 5614POPC   C1B10855   9.822  40.983   8.553
 5614POPC   C2B10856   9.805  40.986   8.253
 5614POPC   C3B10857   9.774  41.020   7.953
 5614POPC   C4B10858   9.772  40.982   7.653
 5615POPC   NC310859  19.091  30.725   9.453
 5615POPC   PO410860  19.042  30.735   9.153
 5615POPC   GL110861  19.050  30.649   8.853
 5615POPC   GL210862  19.144  30.718   8.853
 5615POPC   C1A10863  19.017  30.683   8.553
 5615POPC   D2A10864  19.058  30.728   8.253
 5615POPC   C3A10865  19.055  30.674   7.953
 5615POPC   C4A10866  19.083  30.696   7.653
 5615POPC   C1B10867  19.286  30.721   8.553
 5615POPC   C2B10868  19.328  30.762   8.253
 5615POPC   C3B10869  19.307  30.698   7.953
 5615POPC   C4B10870  19.292  30.687   7.653
 5616POPC   NC310871  24.508  19.858   9.453
 5616POPC   PO410872  24.446  19.820   9.153
 5616POPC   GL110873  24.459  19.834   8.853
 5616POPC   GL210874  24.529  19.753   8.853
 5616POPC   C1A10875  24.529  19.813   8.553
 5616POPC   D2A10876  24.468  19.794   8.253
 5616POPC   C3A10877  24.529  19.810   7.953
 5616POPC   C4A10878  24.496  19.829   7.653
 5616POPC   C1B10879  24.562  19.546   8.553
 5616POPC   C2B10880  24.591  19.571   8.253
 5616POPC   C3B10881  24.531  19.559   7.953
 5616POPC   C4B10882  24.576  19.576   7.653
 5617POPC   NC310883  15.909  39.271   9.453
 5617POPC   PO410884  15.906  39.224   9.153
 5617POPC   GL110885  15.949  39.228   8.853
 5617POPC   GL210886  15.847  39.381   8.853
 5617POPC   C1A10887  15.917  39.231   8.553
 5617POPC   D2A10888  15.981  39.265   8.253
 5617POPC   C3A10889  15.906  39.186   7.953
 5617POPC   C4A10890  15.927  39.210   7.653
 5617POPC   C1B10891  15.846  39.438   8.553
 5617POPC   C2B10892  15.823  39.462   8.253
 5617POPC   C3B10893  15.776  39.458   7.953
 5617POPC   C4B10894  15.841  39.467   7.653
 5618POPC   NC310895  33.788   2.798   9.453
 5618POPC   PO410896  33.847   2.753   9.153
 5618POPC   GL110897  33.849   2.815   8.853
 5618POPC   GL210898  33.951   2.758   8.853
 5618POPC   C1A10899  33.803   2.745   8.553
 5618POPC   D2A10900  33.835   2.726   8.253
 5618POPC   C3A10901  33.805   2.764   7.953
 5618POPC   C4A10902  33.759   2.757   7.653
 5618POPC   C1B10903  34.069   2.844   8.553
 5618POPC   C2B10904  34.020   2.849   8.253
 5618POPC   C3B10905  34.006   2.839   7.953
 5618POPC   C4B10906  34.028   2.848   7.653
 5619POPC   NC310907  38.432   5.824   9.453
 5619POPC   PO410908  38.478   5.911   9.153
 5619POPC   GL110909  38.408   5.877   8.853
 5619POPC   GL210910  38.560   5.752   8.853
 5619POPC   C1A10911  38.450   5.843   8.553
 5619POPC   D2A10912  38.480   5.903   8.253
 5619POPC   C3A10913  38.468   5.857   7.953
 5619POPC   C4A10914  38.462   5.909   7.653
 5619POPC   C1B10915  38.575   5.684   8.553
 5619POPC   C2B10916  38.548   5.647   8.253
 5619POPC   C3B10917  38.598   5.635   7.953
 5619POPC   C4B10918  38.577   5.637   7.653
 5620POPC   NC310919  36.944  39.184   9.453
 5620POPC   PO410920  36.862  39.204   9.153
 5620POPC   GL110921  36.936  39.182   8.853
 5620POPC   GL210922  37.013  39.137   8.853
 5620POPC   C1A10923  36.948  39.229   8.553
 5620POPC   D2A10924  36.888  39.230   8.253
 5620POPC   C3A10925  36.924  39.202   7.953
 5620POPC   C4A10926  36.855  39.247   7.653
 5620POPC   C1B10927  37.150  39.106   8.553
 5620POPC   C2B10928  37.125  39.047   8.253
 5620POPC   C3B10929  37.065  39.096   7.953
 5620POPC   C4B10930  37.062  39.108   7.653
 5621POPC   NC310931  20.659  36.940   9.453
 5621POPC   PO410932  20.608  36.869   9.153
 5621POPC   GL110933  20.645  36.948   8.853
 5621POPC   GL210934  20.575  36.813   8.853
 5621POPC   C1A10935  20.592  36.885   8.553
 5621POPC   D2A10936  20.656  36.858   8.253
 5621POPC   C3A10937  20.640  36.894   7.953
 5621POPC   C4A10938  20.644  36.886   7.653
 5621POPC   C1B10939  20.608  36.623   8.553
 5621POPC   C2B10940  20.588  36.660   8.253
 5621POPC   C3B10941  20.587  36.624   7.953
 5621POPC   C4B10942  20.659  36.615   7.653
 5622POPC   NC310943  20.636  19.081   9.453
 5622POPC   PO410944  20.571  19.039   9.153
 5622POPC   GL110945  20.564  19.026   8.853
 5622POPC   GL210946  20.669  18.918   8.853
 5622POPC   C1A10947  20.623  19.073   8.553
 5622POPC   D2A10948  20.614  19.103   8.253
 5622POPC   C3A10949  20.571  19.050   7.953
 5622POPC   C4A10950  20.614  19.052   7.653
 5622POPC   C1B10951  20.637  18.816   8.553
 5622POPC   C2B10952  20.727  18.824   8.253
 5622POPC   C3B10953  20.687  18.776   7.953
 5622POPC   C4B10954  20.642  18.798   7.653
 5623POPC   NC310955   0.478  43.112   9.453
 5623POPC   PO410956   0.411  43.062   9.153
 5623POPC   GL110957   0.428  43.146   8.853
 5623POPC   GL210958   0.307  43.154   8.853
 5623POPC   C1A10959   0.400  43.139   8.553
 5623POPC   D2A10960   0.422  43.072   8.253
 5623POPC   C3A10961   0.456  43.123   7.953
 5623POPC   C4A10962   0.397  43.125   7.653
 5623POPC   C1B10963   0.235  43.339   8.553
 5623POPC   C2B10964   0.253  43.325   8.253
 5623POPC   C3B10965   0.269  43.252   7.953
 5623POPC   C4B10966   0.265  43.332   7.653
 5624POPC   NC310967   3.547  10.541   9.453
 5624POPC   PO410968   3.518  10.556   9.153
 5624POPC   GL110969   3.524  10.487   8.853
 5624POPC   GL210970   3.493  10.375   8.853
 5624POPC   C1A10971   3.494  10.491   8.553
 5624POPC   D2A10972   3.518  10.505   8.253
 5624POPC   C3A10973   3.525  10.553   7.953
 5624POPC   C4A10974   3.549  10.517   7.653
 5624POPC   C1B10975   3.490  10.278   8.553
 5624POPC   C2B10976   3.479  10.244   8.253
 5624POPC   C3B10977   3.524  10.285   7.953
 5624POPC   C4B10978   3.525  10.282   7.653
 5625POPC   NC310979  19.045   2.733   9.453
 5625POPC   PO410980  19.033   2.804   9.153
 5625POPC   GL110981  19.079   2.789   8.853
 5625POPC   GL210982  19.220   2.747   8.853
 5625POPC   C1A10983  19.047   2.729   8.553
 5625POPC   D2A10984  19.011   2.732   8.253
 5625POPC   C3A10985  19.044   2.743   7.953
 5625POPC   C4A10986  19.060   2.766   7.653
 5625POPC   C1B10987  19.338   2.808   8.553
 5625POPC   C2B10988  19.280   2.840   8.253
 5625POPC   C3B10989  19.292   2.802   7.953
 5625POPC   C4B10990  19.258   2.822   7.653
 5626POPC   NC310991  32.297  40.756   9.453
 5626POPC   PO410992  32.293  40.755   9.153
 5626POPC   GL110993  32.298  40.758   8.853
 5626POPC   GL210994  32.337  40.859   8.853
 5626POPC   C1A10995  32.263  40.736   8.553
 5626POPC   D2A10996  32.280  40.736   8.253
 5626POPC   C3A10997  32.279  40.749   7.953
 5626POPC   C4A10998  32.201  40.772   7.653
 5626POPC   C1B10999  32.382  41.045   8.553
 5626POPC   C2B11000  32.326  41.005   8.253
 5626POPC   C3B11001  32.337  41.053   7.953
 5626POPC   C4B11002  32.370  41.037   7.653
 5627POPC   NC311003  29.909   9.012   9.453
 5627POPC   PO411004  29.890   8.952   9.153
 5627POPC   GL111005  29.947   8.925   8.853
 5627POPC   GL211006  30.021   9.092   8.853
 5627POPC   C1A11007  29.912   8.952   8.553
 5627POPC   D2A11008  29.915   8.959   8.253
 5627POPC   C3A11009  29.901   8.932   7.953
 5627POPC   C4A11010  29.963   8.991   7.653
 5627POPC   C1B11011  30.055   9.235   8.553
 5627POPC   C2B11012  30.032   9.223   8.253
 5627POPC   C3B11013  30.002   9.177   7.953
 5627POPC   C4B11014  29.994   9.150   7.653
 5628POPC   NC311015   3.583  32.289   9.453
 5628POPC   PO411016   3.544  32.225   9.153
 5628POPC   GL111017   3.581  32.270   8.853
 5628POPC   GL211018   3.611  32.329   8.853
 5628POPC   C1A11019   3.514  32.228   8.553
 5628POPC   D2A11020   3.523  32.284   8.253
 5628POPC   C3A11021   3.575  32.288   7.953
 5628POPC   C4A11022   3.583  32.293   7.653
 5628POPC   C1B11023   3.746  32.377   8.553
 5628POPC   C2B11024   3.806  32.293   8.253
 5628POPC   C3B11025   3.805  32.291   7.953
 5628POPC   C4B11026   3.753  32.307   7.653
 5629POPC   NC311027  29.167  37.693   9.453
 5629POPC   PO411028  29.152  37.652   9.153
 5629POPC   GL111029  29.158  37.727   8.853
 5629POPC   GL211030  29.022  37.758   8.853
 5629POPC   C1A11031  29.193  37.660   8.553
 5629POPC   D2A11032  29.137  37.644   8.253
 5629POPC   C3A11033  29.118  37.691   7.953
 5629POPC   C4A11034  29.141  37.711   7.653
 5629POPC   C1B11035  28.925  37.754   8.553
 5629POPC   C2B11036  28.927  37.776   8.253
 5629POPC   C3B11037  28.964  37.749   7.953
 5629POPC   C4B11038  28.945  37.830   7.653
 5630POPC   NC311039   1.226  27.547   9.453
 5630POPC   PO411040   1.221  27.558   9.153
 5630POPC   GL111041   1.254  27.619   8.853
 5630POPC   GL211042   1.152  27.483   8.853
 5630POPC   C1A11043   1.253  27.605   8.553
 5630POPC   D2A11044   1.236  27.569   8.253
 5630POPC   C3A11045   1.243  27.621   7.953
 5630POPC   C4A11046   1.181  27.573   7.653
 5630POPC   C1B11047   1.159  27.303   8.553
 5630POPC   C2B11048   1.145  27.332   8.253
 5630POPC   C3B11049   1.212  27.393   7.953
 5630POPC   C4B11050   1.146  27.330   7.653
 5631POPC   NC311051   2.751  15.950   9.453
 5631POPC   PO411052   2.804  15.981   9.153
 5631POPC   GL111053   2.786  15.945   8.853
 5631POPC   GL211054   2.881  15.943   8.853
 5631POPC   C1A11055   2.742  15.950   8.553
 5631POPC   D2A11056   2.720  15.922   8.253
 5631POPC   C3A11057   2.744  15.921   7.953
 5631POPC   C4A11058   2.728  15.909   7.653
 5631POPC   C1B11059   2.965  15.857   8.553
 5631POPC   C2B11060   3.013  15.861   8.253
 5631POPC   C3B11061   2.974  15.886   7.953
 5631POPC   C4B11062   3.024  15.842   7.653
 5632POPC   NC311063   5.883  36.902   9.453
 5632POPC   PO411064   5.888  36.906   9.153
 5632POPC   GL111065   5.885  36.902   8.853
 5632POPC   GL211066   5.929  36.758   8.853
 5632POPC   C1A11067   5.819  36.939   8.553
 5632POPC   D2A11068   5.831  36.854   8.253
 5632POPC   C3A11069   5.910  36.857   7.953
 5632POPC   C4A11070   5.895  36.885   7.653
 5632POPC   C1B11071   5.982  36.677   8.553
 5632POPC   C2B11072   5.939  36.629   8.253
 5632POPC   C3B11073   5.949  36.628   7.953
 5632POPC   C4B11074   5.919  36.686   7.653
 5633POPC   NC311075   8.182  39.192   9.453
 5633POPC   PO411076   8.188  39.182   9.153
 5633POPC   GL111077   8.175  39.237   8.853
 5633POPC   GL211078   8.198  39.059   8.853
 5633POPC   C1A11079   8.178  39.200   8.553
 5633POPC   D2A11080   8.220  39.219   8.253
 5633POPC   C3A11081   8.223  39.198   7.953
 5633POPC   C4A11082   8.246  39.262   7.653
 5633POPC   C1B11083   8.159  38.940   8.553
 5633POPC   C2B11084   8.139  39.012   8.253
 5633POPC   C3B11085   8.157  38.983   7.953
 5633POPC   C4B11086   8.201  39.015   7.653
 5634POPC   NC311087  19.860  33.828   9.453
 5634POPC   PO411088  19.812  33.770   9.153
 5634POPC   GL111089  19.790  33.753   8.853
 5634POPC   GL211090  19.679  33.829   8.853
 5634POPC   C1A11091  19.827  33.791   8.553
 5634POPC   D2A11092  19.882  33.782   8.253
 5634POPC   C3A11093  19.814  33.766   7.953
 5634POPC   C4A11094  19.813  33.754   7.653
 5634POPC   C1B11095  19.597  33.789   8.553
 5634POPC   C2B11096  19.581  33.776   8.253
 5634POPC   C3B11097  19.548  33.764   7.953
 5634POPC   C4B11098  19.630  33.796   7.653
 5635POPC   NC311099  10.477  19.861   9.453
 5635POPC   PO411100  10.544  19.879   9.153
 5635POPC   GL111101  10.475  19.871   8.853
 5635POPC   GL211102  10.633  19.688   8.853
 5635POPC   C1A11103  10.485  19.833   8.553
 5635POPC   D2A11104  10.475  19.851   8.253
 5635POPC   C3A11105  10.535  19.785   7.953
 5635POPC   C4A11106  10.536  19.861   7.653
 5635POPC   C1B11107  10.656  19.624   8.553
 5635POPC   C2B11108  10.612  19.619   8.253
 5635POPC   C3B11109  10.618  19.639   7.953
 5635POPC   C4B11110  10.616  19.621   7.653
 5636POPC   NC311111  34.617  40.798   9.453
 5636POPC   PO411112  34.592  40.755   9.153
 5636POPC   GL111113  34.587  40.803   8.853
 5636POPC   GL211114  34.517  40.710   8.853
 5636POPC   C1A11115  34.545  40.784   8.553
 5636POPC   D2A11116  34.620  40.746   8.253
 5636POPC   C3A11117  34.608  40.817   7.953
 5636POPC   C4A11118  34.600  40.824   7.653
 5636POPC   C1B11119  34.567  40.538   8.553
 5636POPC   C2B11120  34.566  40.547   8.253
 5636POPC   C3B11121  34.548  40.533   7.953
 5636POPC   C4B11122  34.562  40.568   7.653
 5637POPC   NC311123  28.352  22.978   9.453
 5637POPC   PO411124  28.382  22.954   9.153
 5637POPC   GL111125  28.380  22.919   8.853
 5637POPC   GL211126  28.244  22.843   8.853
 5637POPC   C1A11127  28.410  22.915   8.553
 5637POPC   D2A11128  28.350  22.953   8.253
 5637POPC   C3A11129  28.406  22.963   7.953
 5637POPC   C4A11130  28.344  22.949   7.653
 5637POPC   C1B11131  28.194  22.791   8.553
 5637POPC   C2B11132  28.144  22.805   8.253
 5637POPC   C3B11133  28.139  22.860   7.953
 5637POPC   C4B11134  28.129  22.832   7.653
 5638POPC   NC311135  13.603  12.119   9.453
 5638POPC   PO411136  13.629  12.123   9.153
 5638POPC   GL111137  13.639  12.040   8.853
 5638POPC   GL211138  13.681  12.209   8.853
 5638POPC   C1A11139  13.677  12.094   8.553
 5638POPC   D2A11140  13.622  12.114   8.253
 5638POPC   C3A11141  13.663  12.123   7.953
 5638POPC   C4A11142  13.596  12.058   7.653
 5638POPC   C1B11143  13.650  12.330   8.553
 5638POPC   C2B11144  13.708  12.286   8.253
 5638POPC   C3B11145  13.669  12.355   7.953
 5638POPC   C4B11146  13.689  12.332   7.653
 5639POPC   NC311147  13.596  10.544   9.453
 5639POPC   PO411148  13.582  10.551   9.153
 5639POPC   GL111149  13.660  10.487   8.853
 5639POPC   GL211150  13.618  10.628   8.853
 5639POPC   C1A11151  13.582  10.563   8.553
 5639POPC   D2A11152  13.658  10.491   8.253
 5639POPC   C3A11153  13.647  10.495   7.953
 5639POPC   C4A11154  13.594  10.556   7.653
 5639POPC   C1B11155  13.558  10.740   8.553
 5639POPC   C2B11156  13.574  10.754   8.253
 5639POPC   C3B11157  13.519  10.763   7.953
 5639POPC   C4B11158  13.522  10.741   7.653
 5640POPC   NC311159  26.056  21.379   9.453
 5640POPC   PO411160  26.051  21.427   9.153
 5640POPC   GL111161  26.030  21.396   8.853
 5640POPC   GL211162  26.165  21.356   8.853
 5640POPC   C1A11163  26.090  21.435   8.553
 5640POPC   D2A11164  26.088  21.400   8.253
 5640POPC   C3A11165  26.020  21.358   7.953
 5640POPC   C4A11166  26.005  21.406   7.653
 5640POPC   C1B11167  26.254  21.276   8.553
 5640POPC   C2B11168  26.272  21.236   8.253
 5640POPC   C3B11169  26.297  21.225   7.953
 5640POPC   C4B11170  26.228  21.253   7.653
 5641POPC   NC311171  13.586  39.978   9.453
 5641POPC   PO411172  13.627  40.006   9.153
 5641POPC   GL111173  13.593  40.040   8.853
 5641POPC   GL211174  13.691  40.084   8.853
 5641POPC   C1A11175  13.658  39.973   8.553
 5641POPC   D2A11176  13.669  40.022   8.253
 5641POPC   C3A11177  13.591  40.003   7.953
 5641POPC   C4A11178  13.618  39.958   7.653
 5641POPC   C1B11179  13.825  40.152   8.553
 5641POPC   C2B11180  13.800  40.195   8.253
 5641POPC   C3B11181  13.811  40.185   7.953
 5641POPC   C4B11182  13.833  40.153   7.653
 5642POPC   NC311183  15.145   2.739   9.453
 5642POPC   PO411184  15.166   2.742   9.153
 5642POPC   GL111185  15.160   2.727   8.853
 5642POPC   GL211186  15.022   2.698   8.853
 5642POPC   C1A11187  15.210   2.762   8.553
 5642POPC   D2A11188  15.148   2.790   8.253
 5642POPC   C3A11189  15.140   2.773   7.953
 5642POPC   C4A11190  15.149   2.750   7.653
 5642POPC   C1B11191  14.934   2.692   8.553
 5642POPC   C2B11192  14.943   2.724   8.253
 5642POPC   C3B11193  14.955   2.707   7.953
 5642POPC   C4B11194  14.890   2.666   7.653
 5643POPC   NC311195  31.480  28.326   9.453
 5643POPC   PO411196  31.484  28.381   9.153
 5643POPC   GL111197  31.424  28.394   8.853
 5643POPC   GL211198  31.533  28.452   8.853
 5643POPC   C1A11199  31.485  28.394   8.553
 5643POPC   D2A11200  31.518  28.355   8.253
 5643POPC   C3A11201  31.464  28.319   7.953
 5643POPC   C4A11202  31.487  28.357   7.653
 5643POPC   C1B11203  31.615  28.523   8.553
 5643POPC   C2B11204  31.609  28.519   8.253
 5643POPC   C3B11205  31.674  28.608   7.953
 5643POPC   C4B11206  31.647  28.518   7.653
 5644POPC   NC311207   7.374  15.911   9.453
 5644POPC   PO411208   7.411  15.924   9.153
 5644POPC   GL111209   7.432  15.945   8.853
 5644POPC   GL211210   7.491  16.029   8.853
 5644POPC   C1A11211   7.420  15.925   8.553
 5644POPC   D2A11212   7.437  15.910   8.253
 5644POPC   C3A11213   7.424  15.999   7.953
 5644POPC   C4A11214   7.414  15.929   7.653
 5644POPC   C1B11215   7.655  16.041   8.553
 5644POPC   C2B11216   7.605  16.049   8.253
 5644POPC   C3B11217   7.666  16.035   7.953
 5644POPC   C4B11218   7.600  16.046   7.653
 5645POPC   NC311219  28.366  36.157   9.453
 5645POPC   PO411220  28.372  36.168   9.153
 5645POPC   GL111221  28.413  36.097   8.853
 5645POPC   GL211222  28.493  36.157   8.853
 5645POPC   C1A11223  28.353  36.114   8.553
 5645POPC   D2A11224  28.405  36.174   8.253
 5645POPC   C3A11225  28.347  36.111   7.953
 5645POPC   C4A11226  28.359  36.103   7.653
 5645POPC   C1B11227  28.643  36.078   8.553
 5645POPC   C2B11228  28.610  36.151   8.253
 5645POPC   C3B11229  28.593  36.074   7.953
 5645POPC   C4B11230  28.594  36.123   7.653
 5646POPC   NC311231   1.225  20.624   9.453
 5646POPC   PO411232   1.218  20.569   9.153
 5646POPC   GL111233   1.246  20.599   8.853
 5646POPC   GL211234   1.202  20.475   8.853
 5646POPC   C1A11235   1.177  20.579   8.553
 5646POPC   D2A11236   1.169  20.612   8.253
 5646POPC   C3A11237   1.220  20.570   7.953
 5646POPC   C4A11238   1.168  20.591   7.653
 5646POPC   C1B11239   1.165  20.320   8.553
 5646POPC   C2B11240   1.187  20.394   8.253
 5646POPC   C3B11241   1.250  20.388   7.953
 5646POPC   C4B11242   1.188  20.386   7.653
 5647POPC   NC311243  21.400  33.768   9.453
 5647POPC   PO411244  21.357  33.764   9.153
 5647POPC   GL111245  21.337  33.824   8.853
 5647POPC   GL211246  21.258  33.774   8.853
 5647POPC   C1A11247  21.432  33.841   8.553
 5647POPC   D2A11248  21.393  33.764   8.253
 5647POPC   C3A11249  21.360  33.820   7.953
 5647POPC   C4A11250  21.340  33.807   7.653
 5647POPC   C1B11251  21.153  33.695   8.553
 5647POPC   C2B11252  21.167  33.671   8.253
 5647POPC   C3B11253  21.162  33.703   7.953
 5647POPC   C4B11254  21.138  33.703   7.653
 5648POPC   NC311255   9.703   1.216   9.453
 5648POPC   PO411256   9.716   1.182   9.153
 5648POPC   GL111257   9.752   1.209   8.853
 5648POPC   GL211258   9.633   1.332   8.853
 5648POPC   C1A11259   9.769   1.205   8.553
 5648POPC   D2A11260   9.743   1.200   8.253
 5648POPC   C3A11261   9.773   1.164   7.953
 5648POPC   C4A11262   9.791   1.176   7.653
 5648POPC   C1B11263   9.595   1.375   8.553
 5648POPC   C2B11264   9.591   1.375   8.253
 5648POPC   C3B11265   9.589   1.409   7.953
 5648POPC   C4B11266   9.573   1.404   7.653
 5649POPC   NC311267  10.476   3.571   9.453
 5649POPC   PO411268  10.521   3.552   9.153
 5649POPC   GL111269  10.479   3.588   8.853
 5649POPC   GL211270  10.621   3.612   8.853
 5649POPC   C1A11271  10.507   3.551   8.553
 5649POPC   D2A11272  10.504   3.541   8.253
 5649POPC   C3A11273  10.508   3.585   7.953
 5649POPC   C4A11274  10.493   3.511   7.653
 5649POPC   C1B11275  10.739   3.651   8.553
 5649POPC   C2B11276  10.776   3.656   8.253
 5649POPC   C3B11277  10.715   3.674   7.953
 5649POPC   C4B11278  10.760   3.607   7.653
 5650POPC   NC311279  25.308  34.598   9.453
 5650POPC   PO411280  25.262  34.564   9.153
 5650POPC   GL111281  25.283  34.622   8.853
 5650POPC   GL211282  25.295  34.443   8.853
 5650POPC   C1A11283  25.306  34.558   8.553
 5650POPC   D2A11284  25.238  34.624   8.253
 5650POPC   C3A11285  25.280  34.625   7.953
 5650POPC   C4A11286  25.308  34.554   7.653
 5650POPC   C1B11287  25.376  34.346   8.553
 5650POPC   C2B11288  25.338  34.347   8.253
 5650POPC   C3B11289  25.354  34.317   7.953
 5650POPC   C4B11290  25.357  34.368   7.653
 5651POPC   NC311291  44.665  30.713   9.453
 5651POPC   PO411292  44.654  30.666   9.153
 5651POPC   GL111293  44.697  30.692   8.853
 5651POPC   GL211294  44.559  30.793   8.853
 5651POPC   C1A11295  44.673  30.697   8.553
 5651POPC   D2A11296  44.706  30.664   8.253
 5651POPC   C3A11297  44.668  30.680   7.953
 5651POPC   C4A11298  44.688  30.707   7.653
 5651POPC   C1B11299  44.468  30.819   8.553
 5651POPC   C2B11300  44.436  30.796   8.253
 5651POPC   C3B11301  44.476  30.797   7.953
 5651POPC   C4B11302  44.478  30.795   7.653
 5652POPC   NC311303  22.119  36.106   9.453
 5652POPC   PO411304  22.180  36.170   9.153
 5652POPC   GL111305  22.139  36.143   8.853
 5652POPC   GL211306  22.033  36.094   8.853
 5652POPC   C1A11307  22.114  36.111   8.553
 5652POPC   D2A11308  22.165  36.151   8.253
 5652POPC   C3A11309  22.208  36.147   7.953
 5652POPC   C4A11310  22.116  36.134   7.653
 5652POPC   C1B11311  21.925  36.168   8.553
 5652POPC   C2B11312  21.924  36.176   8.253
 5652POPC   C3B11313  21.866  36.181   7.953
 5652POPC   C4B11314  21.907  36.162   7.653
 5653POPC   NC311315  25.253  33.776   9.453
 5653POPC   PO411316  25.246  33.849   9.153
 5653POPC   GL111317  25.293  33.816   8.853
 5653POPC   GL211318  25.235  33.950   8.853
 5653POPC   C1A11319  25.277  33.810   8.553
 5653POPC   D2A11320  25.275  33.832   8.253
 5653POPC   C3A11321  25.229  33.780   7.953
 5653POPC   C4A11322  25.280  33.752   7.653
 5653POPC   C1B11323  25.199  34.053   8.553
 5653POPC   C2B11324  25.240  34.057   8.253
 5653POPC   C3B11325  25.265  34.081   7.953
 5653POPC   C4B11326  25.202  34.040   7.653
 5654POPC   NC311327   8.197  16.752   9.453
 5654POPC   PO411328   8.245  16.707   9.153
 5654POPC   GL111329   8.217  16.735   8.853
 5654POPC   GL211330   8.101  16.772   8.853
 5654POPC   C1A11331   8.159  16.716   8.553
 5654POPC   D2A11332   8.220  16.743   8.253
 5654POPC   C3A11333   8.155  16.755   7.953
 5654POPC   C4A11334   8.152  16.701   7.653
 5654POPC   C1B11335   8.032  16.867   8.553
 5654POPC   C2B11336   8.015  16.938   8.253
 5654POPC   C3B11337   7.970  16.909   7.953
 5654POPC   C4B11338   7.953  16.854   7.653
 5655POPC   NC311339  40.751  43.880   9.453
 5655POPC   PO411340  40.786  43.839   9.153
 5655POPC   GL111341  40.771  43.914   8.853
 5655POPC   GL211342  40.905  43.954   8.853
 5655POPC   C1A11343  40.759  43.855   8.553
 5655POPC   D2A11344  40.735  43.843   8.253
 5655POPC   C3A11345  40.768  43.920   7.953
 5655POPC   C4A11346  40.748  43.924   7.653
 5655POPC   C1B11347  40.963  43.974   8.553
 5655POPC   C2B11348  40.973  44.003   8.253
 5655POPC   C3B11349  41.014  44.062   7.953
 5655POPC   C4B11350  41.024  44.049   7.653
 5656POPC   NC311351  39.988  44.680   9.453
 5656POPC   PO411352  40.035  44.697   9.153
 5656POPC   GL111353  39.959  44.674   8.853
 5656POPC   GL211354  40.088  44.736   8.853
 5656POPC   C1A11355  39.973  44.665   8.553
 5656POPC   D2A11356  40.032  44.637   8.253
 5656POPC   C3A11357  40.031  44.683   7.953
 5656POPC   C4A11358  40.021  44.690   7.653
 5656POPC   C1B11359  40.219  44.839   8.553
 5656POPC   C2B11360  40.195  44.884   8.253
 5656POPC   C3B11361  40.179  44.792   7.953
 5656POPC   C4B11362  40.186  44.821   7.653
 5657POPC   NC311363  24.481  14.420   9.453
 5657POPC   PO411364  24.515  14.441   9.153
 5657POPC   GL111365  24.507  14.358   8.853
 5657POPC   GL211366  24.534  14.300   8.853
 5657POPC   C1A11367  24.503  14.449   8.553
 5657POPC   D2A11368  24.478  14.416   8.253
 5657POPC   C3A11369  24.536  14.442   7.953
 5657POPC   C4A11370  24.469  14.416   7.653
 5657POPC   C1B11371  24.584  14.136   8.553
 5657POPC   C2B11372  24.588  14.197   8.253
 5657POPC   C3B11373  24.581  14.157   7.953
 5657POPC   C4B11374  24.567  14.206   7.653
 5658POPC   NC311375   8.231  32.977   9.453
 5658POPC   PO411376   8.173  33.043   9.153
 5658POPC   GL111377   8.166  33.054   8.853
 5658POPC   GL211378   8.293  32.898   8.853
 5658POPC   C1A11379   8.199  33.064   8.553
 5658POPC   D2A11380   8.220  33.048   8.253
 5658POPC   C3A11381   8.192  33.074   7.953
 5658POPC   C4A11382   8.204  33.045   7.653
 5658POPC   C1B11383   8.377  32.861   8.553
 5658POPC   C2B11384   8.387  32.804   8.253
 5658POPC   C3B11385   8.336  32.857   7.953
 5658POPC   C4B11386   8.297  32.808   7.653
 5659POPC   NC311387  24.515  15.183   9.453
 5659POPC   PO411388  24.454  15.186   9.153
 5659POPC   GL111389  24.458  15.187   8.853
 5659POPC   GL211390  24.357  15.105   8.853
 5659POPC   C1A11391  24.527  15.214   8.553
 5659POPC   D2A11392  24.471  15.154   8.253
 5659POPC   C3A11393  24.537  15.210   7.953
 5659POPC   C4A11394  24.498  15.171   7.653
 5659POPC   C1B11395  24.309  15.086   8.553
 5659POPC   C2B11396  24.279  15.069   8.253
 5659POPC   C3B11397  24.292  15.075   7.953
 5659POPC   C4B11398  24.256  15.063   7.653
 5660POPC   NC311399  28.405  33.782   9.453
 5660POPC   PO411400  28.414  33.820   9.153
 5660POPC   GL111401  28.377  33.762   8.853
 5660POPC   GL211402  28.530  33.727   8.853
 5660POPC   C1A11403  28.406  33.816   8.553
 5660POPC   D2A11404  28.375  33.753   8.253
 5660POPC   C3A11405  28.339  33.831   7.953
 5660POPC   C4A11406  28.378  33.775   7.653
 5660POPC   C1B11407  28.642  33.756   8.553
 5660POPC   C2B11408  28.570  33.696   8.253
 5660POPC   C3B11409  28.607  33.784   7.953
 5660POPC   C4B11410  28.570  33.695   7.653
 5661POPC   NC311411  41.514  36.177   9.453
 5661POPC   PO411412  41.568  36.121   9.153
 5661POPC   GL111413  41.538  36.138   8.853
 5661POPC   GL211414  41.432  36.155   8.853
 5661POPC   C1A11415  41.567  36.094   8.553
 5661POPC   D2A11416  41.545  36.164   8.253
 5661POPC   C3A11417  41.523  36.174   7.953
 5661POPC   C4A11418  41.545  36.119   7.653
 5661POPC   C1B11419  41.270  36.139   8.553
 5661POPC   C2B11420  41.338  36.138   8.253
 5661POPC   C3B11421  41.342  36.164   7.953
 5661POPC   C4B11422  41.288  36.179   7.653
 5662POPC   NC311423  14.445   5.866   9.453
 5662POPC   PO411424  14.375   5.907   9.153
 5662POPC   GL111425  14.370   5.828   8.853
 5662POPC   GL211426  14.397   5.771   8.853
 5662POPC   C1A11427  14.412   5.899   8.553
 5662POPC   D2A11428  14.416   5.860   8.253
 5662POPC   C3A11429  14.408   5.860   7.953
 5662POPC   C4A11430  14.358   5.880   7.653
 5662POPC   C1B11431  14.394   5.603   8.553
 5662POPC   C2B11432  14.441   5.623   8.253
 5662POPC   C3B11433  14.397   5.598   7.953
 5662POPC   C4B11434  14.382   5.569   7.653
 5663POPC   NC311435  20.608  24.511   9.453
 5663POPC   PO411436  20.594  24.472   9.153
 5663POPC   GL111437  20.632  24.494   8.853
 5663POPC   GL211438  20.518  24.573   8.853
 5663POPC   C1A11439  20.570  24.467   8.553
 5663POPC   D2A11440  20.611  24.525   8.253
 5663POPC   C3A11441  20.643  24.496   7.953
 5663POPC   C4A11442  20.576  24.443   7.653
 5663POPC   C1B11443  20.370  24.572   8.553
 5663POPC   C2B11444  20.350  24.620   8.253
 5663POPC   C3B11445  20.404  24.591   7.953
 5663POPC   C4B11446  20.380  24.620   7.653
 5664POPC   NC311447   5.833  21.338   9.453
 5664POPC   PO411448   5.894  21.399   9.153
 5664POPC   GL111449   5.850  21.411   8.853
 5664POPC   GL211450   5.776  21.470   8.853
 5664POPC   C1A11451   5.896  21.418   8.553
 5664POPC   D2A11452   5.878  21.357   8.253
 5664POPC   C3A11453   5.865  21.407   7.953
 5664POPC   C4A11454   5.897  21.393   7.653
 5664POPC   C1B11455   5.699  21.554   8.553
 5664POPC   C2B11456   5.712  21.575   8.253
 5664POPC   C3B11457   5.694  21.541   7.953
 5664POPC   C4B11458   5.747  21.539   7.653
 5665POPC   NC311459  40.027  28.321   9.453
 5665POPC   PO411460  39.975  28.321   9.153
 5665POPC   GL111461  40.032  28.405   8.853
 5665POPC   GL211462  39.975  28.321   8.853
 5665POPC   C1A11463  39.993  28.338   8.553
 5665POPC   D2A11464  39.959  28.377   8.253
 5665POPC   C3A11465  40.008  28.371   7.953
 5665POPC   C4A11466  39.965  28.372   7.653
 5665POPC   C1B11467  39.862  28.198   8.553
 5665POPC   C2B11468  39.848  28.177   8.253
 5665POPC   C3B11469  39.824  28.158   7.953
 5665POPC   C4B11470  39.841  28.168   7.653
 5666POPC   NC311471  35.364  13.608   9.453
 5666POPC   PO411472  35.356  13.672   9.153
 5666POPC   GL111473  35.323  13.644   8.853
 5666POPC   GL211474  35.332  13.546   8.853
 5666POPC   C1A11475  35.330  13.604   8.553
 5666POPC   D2A11476  35.309  13.588   8.253
 5666POPC   C3A11477  35.394  13.651   7.953
 5666POPC   C4A11478  35.360  13.627   7.653
 5666POPC   C1B11479  35.263  13.371   8.553
 5666POPC   C2B11480  35.256  13.409   8.253
 5666POPC   C3B11481  35.305  13.349   7.953
 5666POPC   C4B11482  35.313  13.341   7.653
 5667POPC   NC311483  36.110  11.316   9.453
 5667POPC   PO411484  36.095  11.265   9.153
 5667POPC   GL111485  36.154  11.303   8.853
 5667POPC   GL211486  36.229  11.155   8.853
 5667POPC   C1A11487  36.128  11.300   8.553
 5667POPC   D2A11488  36.162  11.337   8.253
 5667POPC   C3A11489  36.172  11.305   7.953
 5667POPC   C4A11490  36.173  11.253   7.653
 5667POPC   C1B11491  36.336  11.069   8.553
 5667POPC   C2B11492  36.249  11.061   8.253
 5667POPC   C3B11493  36.279  11.067   7.953
 5667POPC   C4B11494  36.323  11.143   7.653
 5668POPC   NC311495   9.752  25.997   9.453
 5668POPC   PO411496   9.747  26.010   9.153
 5668POPC   GL111497   9.793  26.011   8.853
 5668POPC   GL211498   9.839  26.035   8.853
 5668POPC   C1A11499   9.794  26.075   8.553
 5668POPC   D2A11500   9.717  26.065   8.253
 5668POPC   C3A11501   9.735  26.010   7.953
 5668POPC   C4A11502   9.790  25.997   7.653
 5668POPC   C1B11503   9.990  25.971   8.553
 5668POPC   C2B11504  10.032  26.007   8.253
 5668POPC   C3B11505  10.009  26.032   7.953
 5668POPC   C4B11506   9.973  26.047   7.653
 5669POPC   NC311507  12.066  22.159   9.453
 5669POPC   PO411508  12.096  22.138   9.153
 5669POPC   GL111509  12.099  22.190   8.853
 5669POPC   GL211510  12.112  22.015   8.853
 5669POPC   C1A11511  12.089  22.182   8.553
 5669POPC   D2A11512  12.067  22.169   8.253
 5669POPC   C3A11513  12.125  22.208   7.953
 5669POPC   C4A11514  12.030  22.178   7.653
 5669POPC   C1B11515  12.281  21.998   8.553
 5669POPC   C2B11516  12.248  21.965   8.253
 5669POPC   C3B11517  12.211  22.000   7.953
 5669POPC   C4B11518  12.277  21.966   7.653
 5670POPC   NC311519  16.716   8.978   9.453
 5670POPC   PO411520  16.757   9.018   9.153
 5670POPC   GL111521  16.721   8.983   8.853
 5670POPC   GL211522  16.603   8.996   8.853
 5670POPC   C1A11523  16.683   8.972   8.553
 5670POPC   D2A11524  16.756   9.009   8.253
 5670POPC   C3A11525  16.780   8.964   7.953
 5670POPC   C4A11526  16.779   8.973   7.653
 5670POPC   C1B11527  16.516   8.919   8.553
 5670POPC   C2B11528  16.510   8.907   8.253
 5670POPC   C3B11529  16.465   8.947   7.953
 5670POPC   C4B11530  16.516   8.933   7.653
 5671POPC   NC311531   4.274  44.665   9.453
 5671POPC   PO411532   4.293  44.712   9.153
 5671POPC   GL111533   4.292  44.710   8.853
 5671POPC   GL211534   4.231  44.704   8.853
 5671POPC   C1A11535   4.328  44.646   8.553
 5671POPC   D2A11536   4.283  44.697   8.253
 5671POPC   C3A11537   4.314  44.649   7.953
 5671POPC   C4A11538   4.308  44.672   7.653
 5671POPC   C1B11539   4.061  44.819   8.553
 5671POPC   C2B11540   4.067  44.727   8.253
 5671POPC   C3B11541   4.142  44.774   7.953
 5671POPC   C4B11542   4.069  44.822   7.653
 5672POPC   NC311543  34.562  35.314   9.453
 5672POPC   PO411544  34.526  35.358   9.153
 5672POPC   GL111545  34.596  35.363   8.853
 5672POPC   GL211546  34.749  35.321   8.853
 5672POPC   C1A11547  34.556  35.350   8.553
 5672POPC   D2A11548  34.545  35.363   8.253
 5672POPC   C3A11549  34.613  35.346   7.953
 5672POPC   C4A11550  34.594  35.314   7.653
 5672POPC   C1B11551  34.790  35.367   8.553
 5672POPC   C2B11552  34.831  35.300   8.253
 5672POPC   C3B11553  34.849  35.343   7.953
 5672POPC   C4B11554  34.807  35.364   7.653
 5673POPC   NC311555  39.252   9.750   9.453
 5673POPC   PO411556  39.190   9.734   9.153
 5673POPC   GL111557  39.275   9.782   8.853
 5673POPC   GL211558  39.152   9.701   8.853
 5673POPC   C1A11559  39.273   9.720   8.553
 5673POPC   D2A11560  39.261   9.755   8.253
 5673POPC   C3A11561  39.194   9.761   7.953
 5673POPC   C4A11562  39.212   9.780   7.653
 5673POPC   C1B11563  39.055   9.615   8.553
 5673POPC   C2B11564  39.036   9.588   8.253
 5673POPC   C3B11565  39.039   9.563   7.953
 5673POPC   C4B11566  39.001   9.604   7.653
 5674POPC   NC311567  40.799  25.999   9.453
 5674POPC   PO411568  40.779  26.034   9.153
 5674POPC   GL111569  40.799  26.027   8.853
 5674POPC   GL211570  40.727  26.143   8.853
 5674POPC   C1A11571  40.817  26.077   8.553
 5674POPC   D2A11572  40.777  26.036   8.253
 5674POPC   C3A11573  40.826  26.070   7.953
 5674POPC   C4A11574  40.813  26.066   7.653
 5674POPC   C1B11575  40.630  26.274   8.553
 5674POPC   C2B11576  40.633  26.246   8.253
 5674POPC   C3B11577  40.660  26.261   7.953
 5674POPC   C4B11578  40.645  26.236   7.653
 5675POPC   NC311579  18.296  22.920   9.453
 5675POPC   PO411580  18.296  22.909   9.153
 5675POPC   GL111581  18.292  22.988   8.853
 5675POPC   GL211582  18.174  22.870   8.853
 5675POPC   C1A11583  18.275  22.936   8.553
 5675POPC   D2A11584  18.274  22.954   8.253
 5675POPC   C3A11585  18.266  22.955   7.953
 5675POPC   C4A11586  18.281  22.977   7.653
 5675POPC   C1B11587  18.131  22.813   8.553
 5675POPC   C2B11588  18.140  22.717   8.253
 5675POPC   C3B11589  18.083  22.757   7.953
 5675POPC   C4B11590  18.146  22.736   7.653
 5676POPC   NC311591  43.117   2.760   9.453
 5676POPC   PO411592  43.120   2.764   9.153
 5676POPC   GL111593  43.121   2.743   8.853
 5676POPC   GL211594  43.029   2.818   8.853
 5676POPC   C1A11595  43.124   2.782   8.553
 5676POPC   D2A11596  43.116   2.773   8.253
 5676POPC   C3A11597  43.135   2.755   7.953
 5676POPC   C4A11598  43.160   2.776   7.653
 5676POPC   C1B11599  42.874   2.854   8.553
 5676POPC   C2B11600  42.865   2.920   8.253
 5676POPC   C3B11601  42.858   2.916   7.953
 5676POPC   C4B11602  42.862   2.844   7.653
 5677POPC   NC311603   5.083   9.011   9.453
 5677POPC   PO411604   5.045   8.964   9.153
 5677POPC   GL111605   5.063   8.927   8.853
 5677POPC   GL211606   5.205   9.027   8.853
 5677POPC   C1A11607   5.140   8.939   8.553
 5677POPC   D2A11608   5.104   8.983   8.253
 5677POPC   C3A11609   5.090   9.021   7.953
 5677POPC   C4A11610   5.112   8.974   7.653
 5677POPC   C1B11611   5.346   9.078   8.553
 5677POPC   C2B11612   5.282   9.072   8.253
 5677POPC   C3B11613   5.311   9.103   7.953
 5677POPC   C4B11614   5.301   9.112   7.653
 5678POPC   NC311615  19.852  10.539   9.453
 5678POPC   PO411616  19.793  10.542   9.153
 5678POPC   GL111617  19.830  10.489   8.853
 5678POPC   GL211618  19.792  10.413   8.853
 5678POPC   C1A11619  19.851  10.536   8.553
 5678POPC   D2A11620  19.815  10.515   8.253
 5678POPC   C3A11621  19.840  10.566   7.953
 5678POPC   C4A11622  19.883  10.489   7.653
 5678POPC   C1B11623  19.684  10.340   8.553
 5678POPC   C2B11624  19.657  10.394   8.253
 5678POPC   C3B11625  19.664  10.336   7.953
 5678POPC   C4B11626  19.638  10.348   7.653
 5679POPC   NC311627   0.412  39.203   9.453
 5679POPC   PO411628   0.478  39.193   9.153
 5679POPC   GL111629   0.451  39.192   8.853
 5679POPC   GL211630   0.338  39.307   8.853
 5679POPC   C1A11631   0.479  39.248   8.553
 5679POPC   D2A11632   0.436  39.217   8.253
 5679POPC   C3A11633   0.431  39.189   7.953
 5679POPC   C4A11634   0.430  39.263   7.653
 5679POPC   C1B11635   0.287  39.408   8.553
 5679POPC   C2B11636   0.284  39.394   8.253
 5679POPC   C3B11637   0.299  39.415   7.953
 5679POPC   C4B11638   0.231  39.451   7.653
 5680POPC   NC311639  36.935   1.188   9.453
 5680POPC   PO411640  36.891   1.243   9.153
 5680POPC   GL111641  36.926   1.212   8.853
 5680POPC   GL211642  36.762   1.217   8.853
 5680POPC   C1A11643  36.942   1.199   8.553
 5680POPC   D2A11644  36.882   1.225   8.253
 5680POPC   C3A11645  36.854   1.189   7.953
 5680POPC   C4A11646  36.856   1.199   7.653
 5680POPC   C1B11647  36.664   1.329   8.553
 5680POPC   C2B11648  36.713   1.347   8.253
 5680POPC   C3B11649  36.709   1.298   7.953
 5680POPC   C4B11650  36.669   1.262   7.653
 5681POPC   NC311651   2.012   1.231   9.453
 5681POPC   PO411652   1.981   1.248   9.153
 5681POPC   GL111653   1.955   1.258   8.853
 5681POPC   GL211654   2.014   1.047   8.853
 5681POPC   C1A11655   1.974   1.177   8.553
 5681POPC   D2A11656   2.035   1.227   8.253
 5681POPC   C3A11657   1.989   1.250   7.953
 5681POPC   C4A11658   2.002   1.196   7.653
 5681POPC   C1B11659   2.025   0.990   8.553
 5681POPC   C2B11660   1.975   0.979   8.253
 5681POPC   C3B11661   1.981   1.000   7.953
 5681POPC   C4B11662   2.000   1.006   7.653
 5682POPC   NC311663  11.257   4.346   9.453
 5682POPC   PO411664  11.310   4.363   9.153
 5682POPC   GL111665  11.308   4.348   8.853
 5682POPC   GL211666  11.161   4.419   8.853
 5682POPC   C1A11667  11.336   4.344   8.553
 5682POPC   D2A11668  11.333   4.348   8.253
 5682POPC   C3A11669  11.271   4.354   7.953
 5682POPC   C4A11670  11.347   4.271   7.653
 5682POPC   C1B11671  11.037   4.463   8.553
 5682POPC   C2B11672  11.116   4.390   8.253
 5682POPC   C3B11673  11.094   4.423   7.953
 5682POPC   C4B11674  11.100   4.442   7.653
 5683POPC   NC311675  20.616  10.480   9.453
 5683POPC   PO411676  20.644  10.560   9.153
 5683POPC   GL111677  20.604  10.542   8.853
 5683POPC   GL211678  20.731  10.548   8.853
 5683POPC   C1A11679  20.606  10.550   8.553
 5683POPC   D2A11680  20.609  10.499   8.253
 5683POPC   C3A11681  20.593  10.530   7.953
 5683POPC   C4A11682  20.606  10.535   7.653
 5683POPC   C1B11683  20.858  10.650   8.553
 5683POPC   C2B11684  20.860  10.623   8.253
 5683POPC   C3B11685  20.876  10.605   7.953
 5683POPC   C4B11686  20.816  10.582   7.653
 5684POPC   NC311687  16.682   2.739   9.453
 5684POPC   PO411688  16.779   2.756   9.153
 5684POPC   GL111689  16.762   2.720   8.853
 5684POPC   GL211690  16.842   2.673   8.853
 5684POPC   C1A11691  16.731   2.814   8.553
 5684POPC   D2A11692  16.720   2.732   8.253
 5684POPC   C3A11693  16.698   2.804   7.953
 5684POPC   C4A11694  16.687   2.720   7.653
 5684POPC   C1B11695  16.973   2.679   8.553
 5684POPC   C2B11696  16.943   2.658   8.253
 5684POPC   C3B11697  16.962   2.689   7.953
 5684POPC   C4B11698  16.963   2.645   7.653
 5685POPC   NC311699  12.825  14.428   9.453
 5685POPC   PO411700  12.896  14.392   9.153
 5685POPC   GL111701  12.822  14.444   8.853
 5685POPC   GL211702  12.988  14.428   8.853
 5685POPC   C1A11703  12.875  14.368   8.553
 5685POPC   D2A11704  12.891  14.390   8.253
 5685POPC   C3A11705  12.833  14.440   7.953
 5685POPC   C4A11706  12.827  14.407   7.653
 5685POPC   C1B11707  13.070  14.529   8.553
 5685POPC   C2B11708  13.073  14.496   8.253
 5685POPC   C3B11709  13.113  14.499   7.953
 5685POPC   C4B11710  13.057  14.534   7.653
 5686POPC   NC311711   2.768  43.922   9.453
 5686POPC   PO411712   2.808  43.871   9.153
 5686POPC   GL111713   2.755  43.883   8.853
 5686POPC   GL211714   2.774  44.007   8.853
 5686POPC   C1A11715   2.774  43.932   8.553
 5686POPC   D2A11716   2.738  43.843   8.253
 5686POPC   C3A11717   2.789  43.917   7.953
 5686POPC   C4A11718   2.748  43.874   7.653
 5686POPC   C1B11719   2.867  44.088   8.553
 5686POPC   C2B11720   2.846  44.160   8.253
 5686POPC   C3B11721   2.837  44.167   7.953
 5686POPC   C4B11722   2.878  44.126   7.653
 5687POPC   NC311723   1.198  12.107   9.453
 5687POPC   PO411724   1.176  12.099   9.153
 5687POPC   GL111725   1.209  12.046   8.853
 5687POPC   GL211726   1.090  12.083   8.853
 5687POPC   C1A11727   1.195  12.102   8.553
 5687POPC   D2A11728   1.255  12.069   8.253
 5687POPC   C3A11729   1.228  12.109   7.953
 5687POPC   C4A11730   1.174  12.038   7.653
 5687POPC   C1B11731   0.972  12.063   8.553
 5687POPC   C2B11732   0.963  12.107   8.253
 5687POPC   C3B11733   0.946  12.101   7.953
 5687POPC   C4B11734   0.931  12.085   7.653
 5688POPC   NC311735  37.685  12.040   9.453
 5688POPC   PO411736  37.708  12.036   9.153
 5688POPC   GL111737  37.635  12.082   8.853
 5688POPC   GL211738  37.618  12.177   8.853
 5688POPC   C1A11739  37.668  12.029   8.553
 5688POPC   D2A11740  37.678  12.033   8.253
 5688POPC   C3A11741  37.679  12.117   7.953
 5688POPC   C4A11742  37.680  12.091   7.653
 5688POPC   C1B11743  37.560  12.288   8.553
 5688POPC   C2B11744  37.529  12.236   8.253
 5688POPC   C3B11745  37.512  12.318   7.953
 5688POPC   C4B11746  37.517  12.266   7.653
 5689POPC   NC311747  38.482  36.146   9.453
 5689POPC   PO411748  38.436  36.078   9.153
 5689POPC   GL111749  38.419  36.135   8.853
 5689POPC   GL211750  38.328  36.108   8.853
 5689POPC   C1A11751  38.435  36.112   8.553
 5689POPC   D2A11752  38.429  36.172   8.253
 5689POPC   C3A11753  38.475  36.161   7.953
 5689POPC   C4A11754  38.482  36.161   7.653
 5689POPC   C1B11755  38.234  36.150   8.553
 5689POPC   C2B11756  38.168  36.163   8.253
 5689POPC   C3B11757  38.196  36.183   7.953
 5689POPC   C4B11758  38.160  36.123   7.653
 5690POPC   NC311759  26.795  11.321   9.453
 5690POPC   PO411760  26.778  11.291   9.153
 5690POPC   GL111761  26.772  11.251   8.853
 5690POPC   GL211762  26.754  11.350   8.853
 5690POPC   C1A11763  26.822  11.328   8.553
 5690POPC   D2A11764  26.833  11.313   8.253
 5690POPC   C3A11765  26.815  11.276   7.953
 5690POPC   C4A11766  26.865  11.254   7.653
 5690POPC   C1B11767  26.644  11.443   8.553
 5690POPC   C2B11768  26.631  11.461   8.253
 5690POPC   C3B11769  26.625  11.445   7.953
 5690POPC   C4B11770  26.585  11.437   7.653
 5691POPC   NC311771  16.682   5.094   9.453
 5691POPC   PO411772  16.777   5.125   9.153
 5691POPC   GL111773  16.730   5.137   8.853
 5691POPC   GL211774  16.803   5.219   8.853
 5691POPC   C1A11775  16.725   5.088   8.553
 5691POPC   D2A11776  16.773   5.046   8.253
 5691POPC   C3A11777  16.705   5.048   7.953
 5691POPC   C4A11778  16.685   5.092   7.653
 5691POPC   C1B11779  16.843   5.281   8.553
 5691POPC   C2B11780  16.831   5.289   8.253
 5691POPC   C3B11781  16.838   5.355   7.953
 5691POPC   C4B11782  16.884   5.263   7.653
 5692POPC   NC311783  16.000  19.857   9.453
 5692POPC   PO411784  15.918  19.785   9.153
 5692POPC   GL111785  15.932  19.847   8.853
 5692POPC   GL211786  15.878  19.772   8.853
 5692POPC   C1A11787  15.941  19.828   8.553
 5692POPC   D2A11788  15.974  19.823   8.253
 5692POPC   C3A11789  15.929  19.844   7.953
 5692POPC   C4A11790  15.949  19.883   7.653
 5692POPC   C1B11791  15.728  19.768   8.553
 5692POPC   C2B11792  15.742  19.748   8.253
 5692POPC   C3B11793  15.702  19.675   7.953
 5692POPC   C4B11794  15.712  19.736   7.653
 5693POPC   NC311795   8.196  31.483   9.453
 5693POPC   PO411796   8.169  31.476   9.153
 5693POPC   GL111797   8.182  31.497   8.853
 5693POPC   GL211798   8.115  31.518   8.853
 5693POPC   C1A11799   8.188  31.475   8.553
 5693POPC   D2A11800   8.236  31.468   8.253
 5693POPC   C3A11801   8.232  31.520   7.953
 5693POPC   C4A11802   8.227  31.433   7.653
 5693POPC   C1B11803   7.961  31.588   8.553
 5693POPC   C2B11804   7.987  31.651   8.253
 5693POPC   C3B11805   7.982  31.605   7.953
 5693POPC   C4B11806   8.006  31.554   7.653
 5694POPC   NC311807   8.981  17.495   9.453
 5694POPC   PO411808   8.971  17.511   9.153
 5694POPC   GL111809   8.965  17.470   8.853
 5694POPC   GL211810   8.867  17.424   8.853
 5694POPC   C1A11811   8.956  17.485   8.553
 5694POPC   D2A11812   8.970  17.525   8.253
 5694POPC   C3A11813   8.961  17.518   7.953
 5694POPC   C4A11814   8.938  17.529   7.653
 5694POPC   C1B11815   8.746  17.387   8.553
 5694POPC   C2B11816   8.758  17.370   8.253
 5694POPC   C3B11817   8.798  17.339   7.953
 5694POPC   C4B11818   8.730  17.416   7.653
 5695POPC   NC311819  16.706  12.041   9.453
 5695POPC   PO411820  16.695  12.076   9.153
 5695POPC   GL111821  16.688  12.120   8.853
 5695POPC   GL211822  16.619  12.133   8.853
 5695POPC   C1A11823  16.682  12.100   8.553
 5695POPC   D2A11824  16.689  12.082   8.253
 5695POPC   C3A11825  16.713  12.059   7.953
 5695POPC   C4A11826  16.731  12.043   7.653
 5695POPC   C1B11827  16.511  12.200   8.553
 5695POPC   C2B11828  16.515  12.255   8.253
 5695POPC   C3B11829  16.562  12.159   7.953
 5695POPC   C4B11830  16.489  12.249   7.653
 5696POPC   NC311831  28.395  37.726   9.453
 5696POPC   PO411832  28.392  37.712   9.153
 5696POPC   GL111833  28.393  37.641   8.853
 5696POPC   GL211834  28.221  37.645   8.853
 5696POPC   C1A11835  28.416  37.707   8.553
 5696POPC   D2A11836  28.376  37.636   8.253
 5696POPC   C3A11837  28.359  37.687   7.953
 5696POPC   C4A11838  28.340  37.686   7.653
 5696POPC   C1B11839  28.090  37.581   8.553
 5696POPC   C2B11840  28.119  37.674   8.253
 5696POPC   C3B11841  28.096  37.607   7.953
 5696POPC   C4B11842  28.122  37.665   7.653
 5697POPC   NC311843   9.793  29.958   9.453
 5697POPC   PO411844   9.760  29.943   9.153
 5697POPC   GL111845   9.747  29.930   8.853
 5697POPC   GL211846   9.669  30.027   8.853
 5697POPC   C1A11847   9.741  29.906   8.553
 5697POPC   D2A11848   9.701  29.895   8.253
 5697POPC   C3A11849   9.735  29.925   7.953
 5697POPC   C4A11850   9.777  29.932   7.653
 5697POPC   C1B11851   9.621  30.085   8.553
 5697POPC   C2B11852   9.576  30.139   8.253
 5697POPC   C3B11853   9.606  30.095   7.953
 5697POPC   C4B11854   9.530  30.116   7.653
 5698POPC   NC311855   5.917  43.122   9.453
 5698POPC   PO411856   5.833  43.155   9.153
 5698POPC   GL111857   5.883  43.130   8.853
 5698POPC   GL211858   5.721  43.064   8.853
 5698POPC   C1A11859   5.906  43.121   8.553
 5698POPC   D2A11860   5.889  43.077   8.253
 5698POPC   C3A11861   5.873  43.094   7.953
 5698POPC   C4A11862   5.853  43.063   7.653
 5698POPC   C1B11863   5.625  43.009   8.553
 5698POPC   C2B11864   5.682  43.030   8.253
 5698POPC   C3B11865   5.691  42.972   7.953
 5698POPC   C4B11866   5.692  43.019   7.653
 5699POPC   NC311867  31.471  26.771   9.453
 5699POPC   PO411868  31.498  26.823   9.153
 5699POPC   GL111869  31.445  26.845   8.853
 5699POPC   GL211870  31.584  26.828   8.853
 5699POPC   C1A11871  31.445  26.835   8.553
 5699POPC   D2A11872  31.465  26.787   8.253
 5699POPC   C3A11873  31.469  26.855   7.953
 5699POPC   C4A11874  31.427  26.854   7.653
 5699POPC   C1B11875  31.715  26.877   8.553
 5699POPC   C2B11876  31.686  26.879   8.253
 5699POPC   C3B11877  31.692  26.886   7.953
 5699POPC   C4B11878  31.710  26.855   7.653
 5700POPC   NC311879  22.160  21.435   9.453
 5700POPC   PO411880  22.205  21.399   9.153
 5700POPC   GL111881  22.167  21.417   8.853
 5700POPC   GL211882  22.228  21.441   8.853
 5700POPC   C1A11883  22.151  21.340   8.553
 5700POPC   D2A11884  22.206  21.421   8.253
 5700POPC   C3A11885  22.190  21.380   7.953
 5700POPC   C4A11886  22.203  21.381   7.653
 5700POPC   C1B11887  22.372  21.585   8.553
 5700POPC   C2B11888  22.348  21.584   8.253
 5700POPC   C3B11889  22.347  21.576   7.953
 5700POPC   C4B11890  22.330  21.555   7.653
 5701POPC   NC311891  36.923  36.105   9.453
 5701POPC   PO411892  36.858  36.157   9.153
 5701POPC   GL111893  36.889  36.094   8.853
 5701POPC   GL211894  36.829  36.207   8.853
 5701POPC   C1A11895  36.927  36.118   8.553
 5701POPC   D2A11896  36.894  36.133   8.253
 5701POPC   C3A11897  36.946  36.171   7.953
 5701POPC   C4A11898  36.873  36.092   7.653
 5701POPC   C1B11899  36.859  36.383   8.553
 5701POPC   C2B11900  36.807  36.412   8.253
 5701POPC   C3B11901  36.809  36.360   7.953
 5701POPC   C4B11902  36.809  36.387   7.653
 5702POPC   NC311903  40.826  35.334   9.453
 5702POPC   PO411904  40.747  35.321   9.153
 5702POPC   GL111905  40.803  35.386   8.853
 5702POPC   GL211906  40.680  35.230   8.853
 5702POPC   C1A11907  40.749  35.387   8.553
 5702POPC   D2A11908  40.794  35.330   8.253
 5702POPC   C3A11909  40.783  35.385   7.953
 5702POPC   C4A11910  40.788  35.383   7.653
 5702POPC   C1B11911  40.610  35.188   8.553
 5702POPC   C2B11912  40.578  35.204   8.253
 5702POPC   C3B11913  40.593  35.233   7.953
 5702POPC   C4B11914  40.606  35.230   7.653
 5703POPC   NC311915  33.056  41.551   9.453
 5703POPC   PO411916  33.054  41.529   9.153
 5703POPC   GL111917  32.975  41.529   8.853
 5703POPC   GL211918  33.030  41.646   8.853
 5703POPC   C1A11919  33.045  41.531   8.553
 5703POPC   D2A11920  33.054  41.573   8.253
 5703POPC   C3A11921  33.007  41.580   7.953
 5703POPC   C4A11922  33.052  41.592   7.653
 5703POPC   C1B11923  33.014  41.815   8.553
 5703POPC   C2B11924  33.030  41.829   8.253
 5703POPC   C3B11925  33.067  41.796   7.953
 5703POPC   C4B11926  33.064  41.844   7.653
 5704POPC   NC311927  36.893  29.134   9.453
 5704POPC   PO411928  36.898  29.166   9.153
 5704POPC   GL111929  36.858  29.159   8.853
 5704POPC   GL211930  36.811  29.230   8.853
 5704POPC   C1A11931  36.945  29.100   8.553
 5704POPC   D2A11932  36.913  29.108   8.253
 5704POPC   C3A11933  36.883  29.180   7.953
 5704POPC   C4A11934  36.898  29.152   7.653
 5704POPC   C1B11935  36.783  29.381   8.553
 5704POPC   C2B11936  36.763  29.386   8.253
 5704POPC   C3B11937  36.750  29.353   7.953
 5704POPC   C4B11938  36.810  29.344   7.653
 5705POPC   NC311939   5.060  22.931   9.453
 5705POPC   PO411940   5.073  22.901   9.153
 5705POPC   GL111941   5.116  22.980   8.853
 5705POPC   GL211942   5.196  22.950   8.853
 5705POPC   C1A11943   5.114  22.921   8.553
 5705POPC   D2A11944   5.104  22.968   8.253
 5705POPC   C3A11945   5.076  22.985   7.953
 5705POPC   C4A11946   5.120  22.893   7.653
 5705POPC   C1B11947   5.322  22.958   8.553
 5705POPC   C2B11948   5.329  22.960   8.253
 5705POPC   C3B11949   5.379  22.986   7.953
 5705POPC   C4B11950   5.319  22.982   7.653
 5706POPC   NC311951   7.438  38.449   9.453
 5706POPC   PO411952   7.435  38.470   9.153
 5706POPC   GL111953   7.391  38.426   8.853
 5706POPC   GL211954   7.538  38.352   8.853
 5706POPC   C1A11955   7.432  38.417   8.553
 5706POPC   D2A11956   7.415  38.493   8.253
 5706POPC   C3A11957   7.396  38.466   7.953
 5706POPC   C4A11958   7.383  38.418   7.653
 5706POPC   C1B11959   7.585  38.338   8.553
 5706POPC   C2B11960   7.628  38.341   8.253
 5706POPC   C3B11961   7.646  38.326   7.953
 5706POPC   C4B11962   7.651  38.340   7.653
 5707POPC   NC311963   6.641  12.099   9.453
 5707POPC   PO411964   6.623  12.058   9.153
 5707POPC   GL111965   6.602  12.073   8.853
 5707POPC   GL211966   6.758  12.158   8.853
 5707POPC   C1A11967   6.597  12.068   8.553
 5707POPC   D2A11968   6.674  12.112   8.253
 5707POPC   C3A11969   6.686  12.039   7.953
 5707POPC   C4A11970   6.679  12.043   7.653
 5707POPC   C1B11971   6.842  12.191   8.553
 5707POPC   C2B11972   6.868  12.250   8.253
 5707POPC   C3B11973   6.820  12.222   7.953
 5707POPC   C4B11974   6.836  12.176   7.653
 5708POPC   NC311975  13.603  16.754   9.453
 5708POPC   PO411976  13.596  16.759   9.153
 5708POPC   GL111977  13.673  16.725   8.853
 5708POPC   GL211978  13.627  16.576   8.853
 5708POPC   C1A11979  13.632  16.683   8.553
 5708POPC   D2A11980  13.631  16.693   8.253
 5708POPC   C3A11981  13.600  16.778   7.953
 5708POPC   C4A11982  13.647  16.739   7.653
 5708POPC   C1B11983  13.519  16.535   8.553
 5708POPC   C2B11984  13.570  16.492   8.253
 5708POPC   C3B11985  13.563  16.505   7.953
 5708POPC   C4B11986  13.576  16.461   7.653
 5709POPC   NC311987  17.463  30.652   9.453
 5709POPC   PO411988  17.495  30.712   9.153
 5709POPC   GL111989  17.481  30.743   8.853
 5709POPC   GL211990  17.654  30.743   8.853
 5709POPC   C1A11991  17.542  30.734   8.553
 5709POPC   D2A11992  17.474  30.688   8.253
 5709POPC   C3A11993  17.522  30.653   7.953
 5709POPC   C4A11994  17.551  30.686   7.653
 5709POPC   C1B11995  17.736  30.884   8.553
 5709POPC   C2B11996  17.747  30.875   8.253
 5709POPC   C3B11997  17.701  30.805   7.953
 5709POPC   C4B11998  17.692  30.821   7.653
 5710POPC   NC311999  22.977   8.218   9.453
 5710POPC   PO412000  22.967   8.197   9.153
 5710POPC   GL112001  22.979   8.213   8.853
 5710POPC   GL212002  23.079   8.130   8.853
 5710POPC   C1A12003  22.894   8.188   8.553
 5710POPC   D2A12004  22.952   8.246   8.253
 5710POPC   C3A12005  22.928   8.234   7.953
 5710POPC   C4A12006  22.939   8.154   7.653
 5710POPC   C1B12007  23.143   8.078   8.553
 5710POPC   C2B12008  23.203   8.082   8.253
 5710POPC   C3B12009  23.135   8.105   7.953
 5710POPC   C4B12010  23.165   8.076   7.653
 5711POPC   NC312011  12.837   1.205   9.453
 5711POPC   PO412012  12.888   1.224   9.153
 5711POPC   GL112013  12.895   1.239   8.853
 5711POPC   GL212014  12.801   1.087   8.853
 5711POPC   C1A12015  12.897   1.219   8.553
 5711POPC   D2A12016  12.807   1.172   8.253
 5711POPC   C3A12017  12.848   1.207   7.953
 5711POPC   C4A12018  12.859   1.255   7.653
 5711POPC   C1B12019  12.706   1.002   8.553
 5711POPC   C2B12020  12.741   1.035   8.253
 5711POPC   C3B12021  12.698   1.006   7.953
 5711POPC   C4B12022  12.665   0.964   7.653
 5712POPC   NC312023  22.151  42.288   9.453
 5712POPC   PO412024  22.121  42.303   9.153
 5712POPC   GL112025  22.203  42.313   8.853
 5712POPC   GL212026  22.310  42.381   8.853
 5712POPC   C1A12027  22.156  42.353   8.553
 5712POPC   D2A12028  22.160  42.286   8.253
 5712POPC   C3A12029  22.118  42.307   7.953
 5712POPC   C4A12030  22.159  42.300   7.653
 5712POPC   C1B12031  22.448  42.392   8.553
 5712POPC   C2B12032  22.446  42.396   8.253
 5712POPC   C3B12033  22.366  42.400   7.953
 5712POPC   C4B12034  22.362  42.401   7.653
 5713POPC   NC312035   6.623  42.369   9.453
 5713POPC   PO412036   6.612  42.291   9.153
 5713POPC   GL112037   6.682  42.361   8.853
 5713POPC   GL212038   6.548  42.288   8.853
 5713POPC   C1A12039   6.616  42.301   8.553
 5713POPC   D2A12040   6.642  42.302   8.253
 5713POPC   C3A12041   6.640  42.330   7.953
 5713POPC   C4A12042   6.643  42.301   7.653
 5713POPC   C1B12043   6.380  42.242   8.553
 5713POPC   C2B12044   6.430  42.244   8.253
 5713POPC   C3B12045   6.429  42.288   7.953
 5713POPC   C4B12046   6.423  42.265   7.653
 5714POPC   NC312047  31.481  35.311   9.453
 5714POPC   PO412048  31.482  35.315   9.153
 5714POPC   GL112049  31.477  35.342   8.853
 5714POPC   GL212050  31.534  35.235   8.853
 5714POPC   C1A12051  31.500  35.399   8.553
 5714POPC   D2A12052  31.508  35.394   8.253
 5714POPC   C3A12053  31.484  35.351   7.953
 5714POPC   C4A12054  31.481  35.312   7.653
 5714POPC   C1B12055  31.579  35.092   8.553
 5714POPC   C2B12056  31.555  35.166   8.253
 5714POPC   C3B12057  31.530  35.112   7.953
 5714POPC   C4B12058  31.534  35.143   7.653
 5715POPC   NC312059  19.091  29.923   9.453
 5715POPC   PO412060  19.077  29.925   9.153
 5715POPC   GL112061  19.087  29.953   8.853
 5715POPC   GL212062  19.162  29.879   8.853
 5715POPC   C1A12063  19.022  29.948   8.553
 5715POPC   D2A12064  19.018  29.971   8.253
 5715POPC   C3A12065  19.069  29.881   7.953
 5715POPC   C4A12066  19.083  29.872   7.653
 5715POPC   C1B12067  19.314  29.772   8.553
 5715POPC   C2B12068  19.311  29.824   8.253
 5715POPC   C3B12069  19.335  29.780   7.953
 5715POPC   C4B12070  19.335  29.791   7.653
 5716POPC   NC312071  26.047  10.548   9.453
 5716POPC   PO412072  26.018  10.561   9.153
 5716POPC   GL112073  26.075  10.512   8.853
 5716POPC   GL212074  26.021  10.387   8.853
 5716POPC   C1A12075  26.030  10.531   8.553
 5716POPC   D2A12076  26.056  10.553   8.253
 5716POPC   C3A12077  26.072  10.556   7.953
 5716POPC   C4A12078  26.069  10.523   7.653
 5716POPC   C1B12079  26.023  10.255   8.553
 5716POPC   C2B12080  25.984  10.310   8.253
 5716POPC   C3B12081  25.949  10.238   7.953
 5716POPC   C4B12082  26.045  10.280   7.653
 5717POPC   NC312083   5.902  27.626   9.453
 5717POPC   PO412084   5.910  27.571   9.153
 5717POPC   GL112085   5.883  27.630   8.853
 5717POPC   GL212086   5.843  27.454   8.853
 5717POPC   C1A12087   5.838  27.623   8.553
 5717POPC   D2A12088   5.860  27.616   8.253
 5717POPC   C3A12089   5.826  27.583   7.953
 5717POPC   C4A12090   5.881  27.617   7.653
 5717POPC   C1B12091   5.894  27.390   8.553
 5717POPC   C2B12092   5.846  27.358   8.253
 5717POPC   C3B12093   5.910  27.336   7.953
 5717POPC   C4B12094   5.895  27.393   7.653
 5718POPC   NC312095  39.234  44.623   9.453
 5718POPC   PO412096  39.188  44.623   9.153
 5718POPC   GL112097  39.268  44.707   8.853
 5718POPC   GL212098  39.126  44.759   8.853
 5718POPC   C1A12099  39.246  44.644   8.553
 5718POPC   D2A12100  39.208  44.642   8.253
 5718POPC   C3A12101  39.239  44.662   7.953
 5718POPC   C4A12102  39.247  44.707   7.653
 5718POPC   C1B12103  38.998  44.828   8.553
 5718POPC   C2B12104  39.048  44.784   8.253
 5718POPC   C3B12105  38.990  44.799   7.953
 5718POPC   C4B12106  39.022  44.764   7.653
 5719POPC   NC312107  18.316   4.299   9.453
 5719POPC   PO412108  18.301   4.364   9.153
 5719POPC   GL112109  18.324   4.269   8.853
 5719POPC   GL212110  18.413   4.330   8.853
 5719POPC   C1A12111  18.254   4.308   8.553
 5719POPC   D2A12112  18.331   4.330   8.253
 5719POPC   C3A12113  18.257   4.328   7.953
 5719POPC   C4A12114  18.276   4.314   7.653
 5719POPC   C1B12115  18.471   4.472   8.553
 5719POPC   C2B12116  18.505   4.455   8.253
 5719POPC   C3B12117  18.470   4.434   7.953
 5719POPC   C4B12118  18.526   4.427   7.653
 5720POPC   NC312119  38.459  36.928   9.453
 5720POPC   PO412120  38.450  36.917   9.153
 5720POPC   GL112121  38.500  36.897   8.853
 5720POPC   GL212122  38.449  37.042   8.853
 5720POPC   C1A12123  38.464  36.921   8.553
 5720POPC   D2A12124  38.443  36.889   8.253
 5720POPC   C3A12125  38.456  36.941   7.953
 5720POPC   C4A12126  38.459  36.926   7.653
 5720POPC   C1B12127  38.397  37.132   8.553
 5720POPC   C2B12128  38.397  37.173   8.253
 5720POPC   C3B12129  38.400  37.099   7.953
 5720POPC   C4B12130  38.369  37.167   7.653
 5721POPC   NC312131  27.634  29.895   9.453
 5721POPC   PO412132  27.636  29.886   9.153
 5721POPC   GL112133  27.587  29.929   8.853
 5721POPC   GL212134  27.656  29.795   8.853
 5721POPC   C1A12135  27.544  29.923   8.553
 5721POPC   D2A12136  27.544  29.878   8.253
 5721POPC   C3A12137  27.610  29.879   7.953
 5721POPC   C4A12138  27.603  29.964   7.653
 5721POPC   C1B12139  27.642  29.687   8.553
 5721POPC   C2B12140  27.670  29.669   8.253
 5721POPC   C3B12141  27.645  29.703   7.953
 5721POPC   C4B12142  27.702  29.635   7.653
 5722POPC   NC312143   2.720  25.234   9.453
 5722POPC   PO412144   2.776  25.311   9.153
 5722POPC   GL112145   2.740  25.295   8.853
 5722POPC   GL212146   2.884  25.198   8.853
 5722POPC   C1A12147   2.755  25.305   8.553
 5722POPC   D2A12148   2.777  25.218   8.253
 5722POPC   C3A12149   2.783  25.250   7.953
 5722POPC   C4A12150   2.736  25.265   7.653
 5722POPC   C1B12151   2.971  25.077   8.553
 5722POPC   C2B12152   2.989  25.109   8.253
 5722POPC   C3B12153   2.926  25.049   7.953
 5722POPC   C4B12154   2.909  25.080   7.653
 5723POPC   NC312155  19.053  22.169   9.453
 5723POPC   PO412156  19.086  22.135   9.153
 5723POPC   GL112157  19.075  22.182   8.853
 5723POPC   GL212158  19.175  22.130   8.853
 5723POPC   C1A12159  19.106  22.153   8.553
 5723POPC   D2A12160  19.038  22.160   8.253
 5723POPC   C3A12161  19.025  22.125   7.953
 5723POPC   C4A12162  19.079  22.197   7.653
 5723POPC   C1B12163  19.303  22.076   8.553
 5723POPC   C2B12164  19.330  22.090   8.253
 5723POPC   C3B12165  19.304  22.064   7.953
 5723POPC   C4B12166  19.330  22.083   7.653
 5724POPC   NC312167   9.015  29.902   9.453
 5724POPC   PO412168   8.938  29.918   9.153
 5724POPC   GL112169   9.000  29.916   8.853
 5724POPC   GL212170   8.855  29.831   8.853
 5724POPC   C1A12171   9.014  29.965   8.553
 5724POPC   D2A12172   8.953  29.871   8.253
 5724POPC   C3A12173   9.012  29.903   7.953
 5724POPC   C4A12174   8.942  29.941   7.653
 5724POPC   C1B12175   8.757  29.808   8.553
 5724POPC   C2B12176   8.798  29.812   8.253
 5724POPC   C3B12177   8.775  29.785   7.953
 5724POPC   C4B12178   8.753  29.807   7.653
 5725POPC   NC312179  21.415  41.581   9.453
 5725POPC   PO412180  21.425  41.533   9.153
 5725POPC   GL112181  21.424  41.572   8.853
 5725POPC   GL212182  21.429  41.634   8.853
 5725POPC   C1A12183  21.431  41.519   8.553
 5725POPC   D2A12184  21.369  41.536   8.253
 5725POPC   C3A12185  21.372  41.591   7.953
 5725POPC   C4A12186  21.382  41.538   7.653
 5725POPC   C1B12187  21.458  41.824   8.553
 5725POPC   C2B12188  21.441  41.766   8.253
 5725POPC   C3B12189  21.414  41.832   7.953
 5725POPC   C4B12190  21.400  41.822   7.653
 5726POPC   NC312191  39.969  26.812   9.453
 5726POPC   PO412192  40.024  26.812   9.153
 5726POPC   GL112193  40.052  26.840   8.853
 5726POPC   GL212194  40.098  26.793   8.853
 5726POPC   C1A12195  40.055  26.819   8.553
 5726POPC   D2A12196  40.002  26.834   8.253
 5726POPC   C3A12197  40.046  26.781   7.953
 5726POPC   C4A12198  39.973  26.785   7.653
 5726POPC   C1B12199  40.235  26.729   8.553
 5726POPC   C2B12200  40.180  26.648   8.253
 5726POPC   C3B12201  40.223  26.655   7.953
 5726POPC   C4B12202  40.222  26.674   7.653
 5727POPC   NC312203  21.351   6.674   9.453
 5727POPC   PO412204  21.343   6.620   9.153
 5727POPC   GL112205  21.400   6.603   8.853
 5727POPC   GL212206  21.278   6.623   8.853
 5727POPC   C1A12207  21.352   6.599   8.553
 5727POPC   D2A12208  21.382   6.639   8.253
 5727POPC   C3A12209  21.342   6.686   7.953
 5727POPC   C4A12210  21.384   6.617   7.653
 5727POPC   C1B12211  21.106   6.539   8.553
 5727POPC   C2B12212  21.150   6.595   8.253
 5727POPC   C3B12213  21.131   6.574   7.953
 5727POPC   C4B12214  21.203   6.507   7.653
 5728POPC   NC312215  26.839  18.310   9.453
 5728POPC   PO412216  26.820  18.292   9.153
 5728POPC   GL112217  26.837  18.291   8.853
 5728POPC   GL212218  26.764  18.363   8.853
 5728POPC   C1A12219  26.864  18.245   8.553
 5728POPC   D2A12220  26.849  18.271   8.253
 5728POPC   C3A12221  26.815  18.264   7.953
 5728POPC   C4A12222  26.818  18.267   7.653
 5728POPC   C1B12223  26.671  18.421   8.553
 5728POPC   C2B12224  26.677  18.503   8.253
 5728POPC   C3B12225  26.598  18.498   7.953
 5728POPC   C4B12226  26.592  18.489   7.653
 5729POPC   NC312227  29.908   6.619   9.453
 5729POPC   PO412228  29.930   6.603   9.153
 5729POPC   GL112229  29.928   6.681   8.853
 5729POPC   GL212230  29.877   6.818   8.853
 5729POPC   C1A12231  29.885   6.681   8.553
 5729POPC   D2A12232  29.958   6.659   8.253
 5729POPC   C3A12233  29.871   6.658   7.953
 5729POPC   C4A12234  29.928   6.634   7.653
 5729POPC   C1B12235  29.942   6.866   8.553
 5729POPC   C2B12236  29.934   6.877   8.253
 5729POPC   C3B12237  29.930   6.877   7.953
 5729POPC   C4B12238  29.970   6.924   7.653
 5730POPC   NC312239   4.292  38.466   9.453
 5730POPC   PO412240   4.296  38.432   9.153
 5730POPC   GL112241   4.289  38.470   8.853
 5730POPC   GL212242   4.479  38.475   8.853
 5730POPC   C1A12243   4.339  38.477   8.553
 5730POPC   D2A12244   4.332  38.462   8.253
 5730POPC   C3A12245   4.277  38.461   7.953
 5730POPC   C4A12246   4.347  38.414   7.653
 5730POPC   C1B12247   4.588  38.436   8.553
 5730POPC   C2B12248   4.566  38.436   8.253
 5730POPC   C3B12249   4.546  38.369   7.953
 5730POPC   C4B12250   4.549  38.435   7.653
 5731POPC   NC312251  38.495  20.653   9.453
 5731POPC   PO412252  38.459  20.574   9.153
 5731POPC   GL112253  38.453  20.566   8.853
 5731POPC   GL212254  38.532  20.589   8.853
 5731POPC   C1A12255  38.446  20.621   8.553
 5731POPC   D2A12256  38.470  20.653   8.253
 5731POPC   C3A12257  38.487  20.647   7.953
 5731POPC   C4A12258  38.461  20.651   7.653
 5731POPC   C1B12259  38.698  20.502   8.553
 5731POPC   C2B12260  38.716  20.494   8.253
 5731POPC   C3B12261  38.658  20.539   7.953
 5731POPC   C4B12262  38.740  20.477   7.653
 5732POPC   NC312263  41.585   1.994   9.453
 5732POPC   PO412264  41.535   1.976   9.153
 5732POPC   GL112265  41.522   2.007   8.853
 5732POPC   GL212266  41.573   1.833   8.853
 5732POPC   C1A12267  41.543   1.946   8.553
 5732POPC   D2A12268  41.533   2.012   8.253
 5732POPC   C3A12269  41.553   1.952   7.953
 5732POPC   C4A12270  41.541   2.038   7.653
 5732POPC   C1B12271  41.632   1.789   8.553
 5732POPC   C2B12272  41.599   1.703   8.253
 5732POPC   C3B12273  41.638   1.768   7.953
 5732POPC   C4B12274  41.635   1.720   7.653
 5733POPC   NC312275  19.814  37.629   9.453
 5733POPC   PO412276  19.870  37.727   9.153
 5733POPC   GL112277  19.853  37.665   8.853
 5733POPC   GL212278  19.814  37.596   8.853
 5733POPC   C1A12279  19.836  37.721   8.553
 5733POPC   D2A12280  19.830  37.631   8.253
 5733POPC   C3A12281  19.863  37.677   7.953
 5733POPC   C4A12282  19.874  37.649   7.653
 5733POPC   C1B12283  19.873  37.442   8.553
 5733POPC   C2B12284  19.913  37.420   8.253
 5733POPC   C3B12285  19.838  37.454   7.953
 5733POPC   C4B12286  19.876  37.453   7.653
 5734POPC   NC312287  27.613   5.060   9.453
 5734POPC   PO412288  27.585   5.077   9.153
 5734POPC   GL112289  27.588   5.045   8.853
 5734POPC   GL212290  27.477   5.123   8.853
 5734POPC   C1A12291  27.643   5.111   8.553
 5734POPC   D2A12292  27.609   5.107   8.253
 5734POPC   C3A12293  27.594   5.049   7.953
 5734POPC   C4A12294  27.570   5.085   7.653
 5734POPC   C1B12295  27.425   5.218   8.553
 5734POPC   C2B12296  27.384   5.248   8.253
 5734POPC   C3B12297  27.413   5.205   7.953
 5734POPC   C4B12298  27.353   5.271   7.653
 5735POPC   NC312299  17.505  43.092   9.453
 5735POPC   PO412300  17.511  43.083   9.153
 5735POPC   GL112301  17.495  43.153   8.853
 5735POPC   GL212302  17.607  43.159   8.853
 5735POPC   C1A12303  17.538  43.076   8.553
 5735POPC   D2A12304  17.500  43.119   8.253
 5735POPC   C3A12305  17.467  43.086   7.953
 5735POPC   C4A12306  17.507  43.157   7.653
 5735POPC   C1B12307  17.740  43.285   8.553
 5735POPC   C2B12308  17.705  43.218   8.253
 5735POPC   C3B12309  17.712  43.296   7.953
 5735POPC   C4B12310  17.661  43.240   7.653
 5736POPC   NC312311  43.848  38.445   9.453
 5736POPC   PO412312  43.894  38.484   9.153
 5736POPC   GL112313  43.900  38.470   8.853
 5736POPC   GL212314  43.729  38.360   8.853
 5736POPC   C1A12315  43.841  38.444   8.553
 5736POPC   D2A12316  43.875  38.449   8.253
 5736POPC   C3A12317  43.911  38.410   7.953
 5736POPC   C4A12318  43.898  38.423   7.653
 5736POPC   C1B12319  43.669  38.300   8.553
 5736POPC   C2B12320  43.708  38.377   8.253
 5736POPC   C3B12321  43.638  38.392   7.953
 5736POPC   C4B12322  43.633  38.388   7.653
 5737POPC   NC312323  20.620  34.605   9.453
 5737POPC   PO412324  20.589  34.580   9.153
 5737POPC   GL112325  20.578  34.547   8.853
 5737POPC   GL212326  20.757  34.553   8.853
 5737POPC   C1A12327  20.658  34.601   8.553
 5737POPC   D2A12328  20.601  34.555   8.253
 5737POPC   C3A12329  20.600  34.605   7.953
 5737POPC   C4A12330  20.657  34.574   7.653
 5737POPC   C1B12331  20.841  34.602   8.553
 5737POPC   C2B12332  20.885  34.599   8.253
 5737POPC   C3B12333  20.897  34.564   7.953
 5737POPC   C4B12334  20.893  34.579   7.653
 5738POPC   NC312335  12.094  12.067   9.453
 5738POPC   PO412336  12.053  12.027   9.153
 5738POPC   GL112337  12.052  12.065   8.853
 5738POPC   GL212338  11.995  12.149   8.853
 5738POPC   C1A12339  12.094  12.057   8.553
 5738POPC   D2A12340  12.072  12.085   8.253
 5738POPC   C3A12341  12.114  12.107   7.953
 5738POPC   C4A12342  12.110  12.071   7.653
 5738POPC   C1B12343  11.854  12.149   8.553
 5738POPC   C2B12344  11.878  12.131   8.253
 5738POPC   C3B12345  11.877  12.187   7.953
 5738POPC   C4B12346  11.813  12.111   7.653
 5739POPC   NC312347  23.745  35.370   9.453
 5739POPC   PO412348  23.673  35.341   9.153
 5739POPC   GL112349  23.763  35.332   8.853
 5739POPC   GL212350  23.714  35.246   8.853
 5739POPC   C1A12351  23.666  35.362   8.553
 5739POPC   D2A12352  23.735  35.369   8.253
 5739POPC   C3A12353  23.760  35.401   7.953
 5739POPC   C4A12354  23.724  35.382   7.653
 5739POPC   C1B12355  23.672  35.088   8.553
 5739POPC   C2B12356  23.638  35.091   8.253
 5739POPC   C3B12357  23.601  35.082   7.953
 5739POPC   C4B12358  23.682  35.157   7.653
 5740POPC   NC312359  19.868  29.122   9.453
 5740POPC   PO412360  19.797  29.129   9.153
 5740POPC   GL112361  19.820  29.144   8.853
 5740POPC   GL212362  19.907  29.080   8.853
 5740POPC   C1A12363  19.820  29.129   8.553
 5740POPC   D2A12364  19.840  29.154   8.253
 5740POPC   C3A12365  19.875  29.132   7.953
 5740POPC   C4A12366  19.792  29.176   7.653
 5740POPC   C1B12367  19.999  28.917   8.553
 5740POPC   C2B12368  19.951  28.946   8.253
 5740POPC   C3B12369  19.943  28.902   7.953
 5740POPC   C4B12370  20.013  28.952   7.653
 5741POPC   NC312371  26.044  27.613   9.453
 5741POPC   PO412372  26.037  27.552   9.153
 5741POPC   GL112373  26.038  27.569   8.853
 5741POPC   GL212374  25.886  27.564   8.853
 5741POPC   C1A12375  26.075  27.562   8.553
 5741POPC   D2A12376  26.002  27.603   8.253
 5741POPC   C3A12377  26.080  27.631   7.953
 5741POPC   C4A12378  26.034  27.594   7.653
 5741POPC   C1B12379  25.831  27.669   8.553
 5741POPC   C2B12380  25.821  27.601   8.253
 5741POPC   C3B12381  25.826  27.676   7.953
 5741POPC   C4B12382  25.776  27.659   7.653
 5742POPC   NC312383  29.871  33.037   9.453
 5742POPC   PO412384  29.950  32.985   9.153
 5742POPC   GL112385  29.914  33.063   8.853
 5742POPC   GL212386  29.944  32.891   8.853
 5742POPC   C1A12387  29.956  33.063   8.553
 5742POPC   D2A12388  29.892  33.043   8.253
 5742POPC   C3A12389  29.935  33.068   7.953
 5742POPC   C4A12390  29.874  33.029   7.653
 5742POPC   C1B12391  29.951  32.782   8.553
 5742POPC   C2B12392  29.981  32.745   8.253
 5742POPC   C3B12393  29.922  32.812   7.953
 5742POPC   C4B12394  29.966  32.762   7.653
 5743POPC   NC312395  10.546  24.445   9.453
 5743POPC   PO412396  10.549  24.448   9.153
 5743POPC   GL112397  10.507  24.488   8.853
 5743POPC   GL212398  10.566  24.354   8.853
 5743POPC   C1A12399  10.503  24.458   8.553
 5743POPC   D2A12400  10.531  24.468   8.253
 5743POPC   C3A12401  10.555  24.450   7.953
 5743POPC   C4A12402  10.481  24.513   7.653
 5743POPC   C1B12403  10.667  24.291   8.553
 5743POPC   C2B12404  10.691  24.267   8.253
 5743POPC   C3B12405  10.693  24.321   7.953
 5743POPC   C4B12406  10.693  24.246   7.653
 5744POPC   NC312407  11.252  19.876   9.453
 5744POPC   PO412408  11.302  19.872   9.153
 5744POPC   GL112409  11.320  19.834   8.853
 5744POPC   GL212410  11.266  19.752   8.853
 5744POPC   C1A12411  11.330  19.794   8.553
 5744POPC   D2A12412  11.266  19.810   8.253
 5744POPC   C3A12413  11.318  19.798   7.953
 5744POPC   C4A12414  11.329  19.861   7.653
 5744POPC   C1B12415  11.178  19.631   8.553
 5744POPC   C2B12416  11.118  19.616   8.253
 5744POPC   C3B12417  11.131  19.631   7.953
 5744POPC   C4B12418  11.185  19.617   7.653
 5745POPC   NC312419  32.204   1.196   9.453
 5745POPC   PO412420  32.256   1.255   9.153
 5745POPC   GL112421  32.230   1.172   8.853
 5745POPC   GL212422  32.153   1.201   8.853
 5745POPC   C1A12423  32.201   1.210   8.553
 5745POPC   D2A12424  32.270   1.236   8.253
 5745POPC   C3A12425  32.219   1.247   7.953
 5745POPC   C4A12426  32.297   1.166   7.653
 5745POPC   C1B12427  32.008   1.214   8.553
 5745POPC   C2B12428  31.964   1.159   8.253
 5745POPC   C3B12429  32.033   1.149   7.953
 5745POPC   C4B12430  31.973   1.226   7.653
 5746POPC   NC312431  19.094  11.343   9.453
 5746POPC   PO412432  19.023  11.294   9.153
 5746POPC   GL112433  19.079  11.344   8.853
 5746POPC   GL212434  18.937  11.425   8.853
 5746POPC   C1A12435  19.025  11.323   8.553
 5746POPC   D2A12436  19.090  11.293   8.253
 5746POPC   C3A12437  19.038  11.262   7.953
 5746POPC   C4A12438  19.064  11.282   7.653
 5746POPC   C1B12439  18.879  11.445   8.553
 5746POPC   C2B12440  18.926  11.437   8.253
 5746POPC   C3B12441  18.855  11.488   7.953
 5746POPC   C4B12442  18.868  11.430   7.653
 5747POPC   NC312443   5.823   2.799   9.453
 5747POPC   PO412444   5.863   2.776   9.153
 5747POPC   GL112445   5.911   2.814   8.853
 5747POPC   GL212446   6.012   2.817   8.853
 5747POPC   C1A12447   5.894   2.748   8.553
 5747POPC   D2A12448   5.911   2.718   8.253
 5747POPC   C3A12449   5.822   2.791   7.953
 5747POPC   C4A12450   5.903   2.790   7.653
 5747POPC   C1B12451   6.088   2.772   8.553
 5747POPC   C2B12452   6.149   2.799   8.253
 5747POPC   C3B12453   6.112   2.785   7.953
 5747POPC   C4B12454   6.162   2.825   7.653
 5748POPC   NC312455  29.957  12.815   9.453
 5748POPC   PO412456  29.967  12.891   9.153
 5748POPC   GL112457  29.885  12.897   8.853
 5748POPC   GL212458  29.812  12.798   8.853
 5748POPC   C1A12459  29.902  12.821   8.553
 5748POPC   D2A12460  29.877  12.858   8.253
 5748POPC   C3A12461  29.959  12.901   7.953
 5748POPC   C4A12462  29.890  12.888   7.653
 5748POPC   C1B12463  29.707  12.826   8.553
 5748POPC   C2B12464  29.700  12.785   8.253
 5748POPC   C3B12465  29.714  12.784   7.953
 5748POPC   C4B12466  29.687  12.805   7.653
 5749POPC   NC312467  30.671   9.772   9.453
 5749POPC   PO412468  30.666   9.765   9.153
 5749POPC   GL112469  30.725   9.728   8.853
 5749POPC   GL212470  30.750   9.646   8.853
 5749POPC   C1A12471  30.728   9.703   8.553
 5749POPC   D2A12472  30.727   9.728   8.253
 5749POPC   C3A12473  30.669   9.742   7.953
 5749POPC   C4A12474  30.692   9.723   7.653
 5749POPC   C1B12475  30.772   9.517   8.553
 5749POPC   C2B12476  30.692   9.543   8.253
 5749POPC   C3B12477  30.695   9.491   7.953
 5749POPC   C4B12478  30.705   9.490   7.653
 5750POPC   NC312479  29.966  31.437   9.453
 5750POPC   PO412480  29.954  31.508   9.153
 5750POPC   GL112481  29.924  31.519   8.853
 5750POPC   GL212482  30.034  31.508   8.853
 5750POPC   C1A12483  29.878  31.450   8.553
 5750POPC   D2A12484  29.891  31.503   8.253
 5750POPC   C3A12485  29.950  31.480   7.953
 5750POPC   C4A12486  29.891  31.459   7.653
 5750POPC   C1B12487  30.123  31.560   8.553
 5750POPC   C2B12488  30.140  31.575   8.253
 5750POPC   C3B12489  30.131  31.570   7.953
 5750POPC   C4B12490  30.174  31.594   7.653
 5751POPC   NC312491  30.728  13.580   9.453
 5751POPC   PO412492  30.718  13.589   9.153
 5751POPC   GL112493  30.740  13.656   8.853
 5751POPC   GL212494  30.742  13.684   8.853
 5751POPC   C1A12495  30.723  13.624   8.553
 5751POPC   D2A12496  30.687  13.662   8.253
 5751POPC   C3A12497  30.733  13.594   7.953
 5751POPC   C4A12498  30.654  13.584   7.653
 5751POPC   C1B12499  30.890  13.865   8.553
 5751POPC   C2B12500  30.806  13.833   8.253
 5751POPC   C3B12501  30.853  13.856   7.953
 5751POPC   C4B12502  30.803  13.779   7.653
 5752POPC   NC312503  11.293  16.683   9.453
 5752POPC   PO412504  11.298  16.754   9.153
 5752POPC   GL112505  11.345  16.708   8.853
 5752POPC   GL212506  11.174  16.783   8.853
 5752POPC   C1A12507  11.271  16.742   8.553
 5752POPC   D2A12508  11.264  16.738   8.253
 5752POPC   C3A12509  11.309  16.740   7.953
 5752POPC   C4A12510  11.315  16.747   7.653
 5752POPC   C1B12511  11.103  16.738   8.553
 5752POPC   C2B12512  11.056  16.805   8.253
 5752POPC   C3B12513  11.011  16.730   7.953
 5752POPC   C4B12514  11.059  16.760   7.653
 5753POPC   NC312515  12.056  13.617   9.453
 5753POPC   PO412516  12.032  13.598   9.153
 5753POPC   GL112517  12.086  13.635   8.853
 5753POPC   GL212518  12.081  13.499   8.853
 5753POPC   C1A12519  12.050  13.645   8.553
 5753POPC   D2A12520  12.032  13.640   8.253
 5753POPC   C3A12521  12.125  13.612   7.953
 5753POPC   C4A12522  12.100  13.652   7.653
 5753POPC   C1B12523  12.051  13.372   8.553
 5753POPC   C2B12524  12.041  13.409   8.253
 5753POPC   C3B12525  12.088  13.360   7.953
 5753POPC   C4B12526  12.037  13.347   7.653
 5754POPC   NC312527   0.393  27.622   9.453
 5754POPC   PO412528   0.486  27.546   9.153
 5754POPC   GL112529   0.455  27.562   8.853
 5754POPC   GL212530   0.511  27.759   8.853
 5754POPC   C1A12531   0.400  27.565   8.553
 5754POPC   D2A12532   0.483  27.613   8.253
 5754POPC   C3A12533   0.487  27.560   7.953
 5754POPC   C4A12534   0.453  27.605   7.653
 5754POPC   C1B12535   0.502  27.812   8.553
 5754POPC   C2B12536   0.547  27.839   8.253
 5754POPC   C3B12537   0.563  27.812   7.953
 5754POPC   C4B12538   0.558  27.846   7.653
 5755POPC   NC312539   7.425  41.576   9.453
 5755POPC   PO412540   7.431  41.579   9.153
 5755POPC   GL112541   7.456  41.549   8.853
 5755POPC   GL212542   7.436  41.394   8.853
 5755POPC   C1A12543   7.388  41.530   8.553
 5755POPC   D2A12544   7.424  41.518   8.253
 5755POPC   C3A12545   7.437  41.532   7.953
 5755POPC   C4A12546   7.430  41.524   7.653
 5755POPC   C1B12547   7.431  41.290   8.553
 5755POPC   C2B12548   7.441  41.288   8.253
 5755POPC   C3B12549   7.471  41.302   7.953
 5755POPC   C4B12550   7.426  41.266   7.653
 5756POPC   NC312551  36.931  21.432   9.453
 5756POPC   PO412552  36.872  21.349   9.153
 5756POPC   GL112553  36.882  21.377   8.853
 5756POPC   GL212554  36.973  21.256   8.853
 5756POPC   C1A12555  36.951  21.364   8.553
 5756POPC   D2A12556  36.932  21.367   8.253
 5756POPC   C3A12557  36.936  21.376   7.953
 5756POPC   C4A12558  36.869  21.436   7.653
 5756POPC   C1B12559  37.039  21.142   8.553
 5756POPC   C2B12560  37.009  21.143   8.253
 5756POPC   C3B12561  36.991  21.188   7.953
 5756POPC   C4B12562  37.036  21.168   7.653
 5757POPC   NC312563  36.938  32.977   9.453
 5757POPC   PO412564  36.884  32.997   9.153
 5757POPC   GL112565  36.950  33.062   8.853
 5757POPC   GL212566  36.898  32.888   8.853
 5757POPC   C1A12567  36.939  33.051   8.553
 5757POPC   D2A12568  36.876  32.999   8.253
 5757POPC   C3A12569  36.904  33.050   7.953
 5757POPC   C4A12570  36.930  32.983   7.653
 5757POPC   C1B12571  36.815  32.756   8.553
 5757POPC   C2B12572  36.826  32.745   8.253
 5757POPC   C3B12573  36.874  32.820   7.953
 5757POPC   C4B12574  36.809  32.737   7.653
 5758POPC   NC312575  29.927  21.392   9.453
 5758POPC   PO412576  29.909  21.401   9.153
 5758POPC   GL112577  29.887  21.400   8.853
 5758POPC   GL212578  30.013  21.336   8.853
 5758POPC   C1A12579  29.933  21.342   8.553
 5758POPC   D2A12580  29.922  21.418   8.253
 5758POPC   C3A12581  29.926  21.344   7.953
 5758POPC   C4A12582  29.895  21.411   7.653
 5758POPC   C1B12583  30.136  21.259   8.553
 5758POPC   C2B12584  30.144  21.323   8.253
 5758POPC   C3B12585  30.172  21.286   7.953
 5758POPC   C4B12586  30.188  21.304   7.653
 5759POPC   NC312587  19.009   8.223   9.453
 5759POPC   PO412588  19.106   8.164   9.153
 5759POPC   GL112589  19.051   8.176   8.853
 5759POPC   GL212590  19.054   8.296   8.853
 5759POPC   C1A12591  19.051   8.154   8.553
 5759POPC   D2A12592  19.082   8.150   8.253
 5759POPC   C3A12593  19.022   8.175   7.953
 5759POPC   C4A12594  19.101   8.148   7.653
 5759POPC   C1B12595  19.038   8.423   8.553
 5759POPC   C2B12596  18.997   8.420   8.253
 5759POPC   C3B12597  18.993   8.470   7.953
 5759POPC   C4B12598  18.977   8.440   7.653
 5760POPC   NC312599  19.019  29.098   9.453
 5760POPC   PO412600  19.050  29.144   9.153
 5760POPC   GL112601  19.075  29.167   8.853
 5760POPC   GL212602  19.191  29.163   8.853
 5760POPC   C1A12603  19.058  29.142   8.553
 5760POPC   D2A12604  19.025  29.184   8.253
 5760POPC   C3A12605  19.014  29.153   7.953
 5760POPC   C4A12606  19.056  29.152   7.653
 5760POPC   C1B12607  19.290  29.258   8.553
 5760POPC   C2B12608  19.292  29.239   8.253
 5760POPC   C3B12609  19.330  29.249   7.953
 5760POPC   C4B12610  19.320  29.249   7.653
 5761POPC   NC312611  36.125  13.672   9.453
 5761POPC   PO412612  36.173  13.659   9.153
 5761POPC   GL112613  36.156  13.628   8.853
 5761POPC   GL212614  36.120  13.765   8.853
 5761POPC   C1A12615  36.175  13.640   8.553
 5761POPC   D2A12616  36.110  13.599   8.253
 5761POPC   C3A12617  36.163  13.622   7.953
 5761POPC   C4A12618  36.157  13.677   7.653
 5761POPC   C1B12619  36.144  13.855   8.553
 5761POPC   C2B12620  36.104  13.901   8.253
 5761POPC   C3B12621  36.061  13.852   7.953
 5761POPC   C4B12622  36.047  13.880   7.653
 5762POPC   NC312623  18.324  33.795   9.453
 5762POPC   PO412624  18.322  33.777   9.153
 5762POPC   GL112625  18.328  33.782   8.853
 5762POPC   GL212626  18.450  33.786   8.853
 5762POPC   C1A12627  18.282  33.760   8.553
 5762POPC   D2A12628  18.236  33.848   8.253
 5762POPC   C3A12629  18.287  33.827   7.953
 5762POPC   C4A12630  18.297  33.805   7.653
 5762POPC   C1B12631  18.514  33.791   8.553
 5762POPC   C2B12632  18.516  33.852   8.253
 5762POPC   C3B12633  18.569  33.800   7.953
 5762POPC   C4B12634  18.556  33.873   7.653
 5763POPC   NC312635  43.901  44.687   9.453
 5763POPC   PO412636  43.857  44.680   9.153
 5763POPC   GL112637  43.932  44.706   8.853
 5763POPC   GL212638  44.023  44.722   8.853
 5763POPC   C1A12639  43.905  44.654   8.553
 5763POPC   D2A12640  43.889  44.647   8.253
 5763POPC   C3A12641  43.859  44.688   7.953
 5763POPC   C4A12642  43.837  44.633   7.653
 5763POPC   C1B12643  44.142  44.754   8.553
 5763POPC   C2B12644  44.139  44.790   8.253
 5763POPC   C3B12645  44.143  44.745   7.953
 5763POPC   C4B12646  44.162  44.751   7.653
 5764POPC   NC312647   7.454  32.212   9.453
 5764POPC   PO412648   7.427  32.271   9.153
 5764POPC   GL112649   7.377  32.205   8.853
 5764POPC   GL212650   7.501  32.166   8.853
 5764POPC   C1A12651   7.413  32.292   8.553
 5764POPC   D2A12652   7.401  32.261   8.253
 5764POPC   C3A12653   7.417  32.247   7.953
 5764POPC   C4A12654   7.419  32.212   7.653
 5764POPC   C1B12655   7.593  32.143   8.553
 5764POPC   C2B12656   7.640  32.135   8.253
 5764POPC   C3B12657   7.633  32.096   7.953
 5764POPC   C4B12658   7.583  32.122   7.653
 5765POPC   NC312659  30.687  37.654   9.453
 5765POPC   PO412660  30.669  37.703   9.153
 5765POPC   GL112661  30.667  37.687   8.853
 5765POPC   GL212662  30.792  37.729   8.853
 5765POPC   C1A12663  30.647  37.683   8.553
 5765POPC   D2A12664  30.660  37.714   8.253
 5765POPC   C3A12665  30.734  37.682   7.953
 5765POPC   C4A12666  30.667  37.631   7.653
 5765POPC   C1B12667  30.972  37.686   8.553
 5765POPC   C2B12668  30.927  37.752   8.253
 5765POPC   C3B12669  30.978  37.710   7.953
 5765POPC   C4B12670  30.959  37.694   7.653
 5766POPC   NC312671  28.381   9.778   9.453
 5766POPC   PO412672  28.344   9.718   9.153
 5766POPC   GL112673  28.394   9.723   8.853
 5766POPC   GL212674  28.304   9.634   8.853
 5766POPC   C1A12675  28.371   9.713   8.553
 5766POPC   D2A12676  28.386   9.777   8.253
 5766POPC   C3A12677  28.413   9.785   7.953
 5766POPC   C4A12678  28.324   9.785   7.653
 5766POPC   C1B12679  28.251   9.503   8.553
 5766POPC   C2B12680  28.234   9.552   8.253
 5766POPC   C3B12681  28.278   9.495   7.953
 5766POPC   C4B12682  28.254   9.519   7.653
 5767POPC   NC312683   5.846  23.730   9.453
 5767POPC   PO412684   5.861  23.753   9.153
 5767POPC   GL112685   5.863  23.694   8.853
 5767POPC   GL212686   5.781  23.675   8.853
 5767POPC   C1A12687   5.836  23.712   8.553
 5767POPC   D2A12688   5.856  23.716   8.253
 5767POPC   C3A12689   5.896  23.676   7.953
 5767POPC   C4A12690   5.848  23.733   7.653
 5767POPC   C1B12691   5.639  23.614   8.553
 5767POPC   C2B12692   5.657  23.644   8.253
 5767POPC   C3B12693   5.584  23.660   7.953
 5767POPC   C4B12694   5.577  23.702   7.653
 5768POPC   NC312695   3.571  20.618   9.453
 5768POPC   PO412696   3.516  20.579   9.153
 5768POPC   GL112697   3.529  20.631   8.853
 5768POPC   GL212698   3.481  20.538   8.853
 5768POPC   C1A12699   3.561  20.656   8.553
 5768POPC   D2A12700   3.502  20.565   8.253
 5768POPC   C3A12701   3.547  20.571   7.953
 5768POPC   C4A12702   3.544  20.577   7.653
 5768POPC   C1B12703   3.326  20.418   8.553
 5768POPC   C2B12704   3.325  20.382   8.253
 5768POPC   C3B12705   3.323  20.407   7.953
 5768POPC   C4B12706   3.335  20.408   7.653
 5769POPC   NC312707  22.939  38.475   9.453
 5769POPC   PO412708  22.948  38.430   9.153
 5769POPC   GL112709  22.911  38.490   8.853
 5769POPC   GL212710  23.067  38.583   8.853
 5769POPC   C1A12711  22.966  38.454   8.553
 5769POPC   D2A12712  22.968  38.481   8.253
 5769POPC   C3A12713  22.909  38.440   7.953
 5769POPC   C4A12714  22.922  38.415   7.653
 5769POPC   C1B12715  23.171  38.629   8.553
 5769POPC   C2B12716  23.138  38.657   8.253
 5769POPC   C3B12717  23.169  38.575   7.953
 5769POPC   C4B12718  23.092  38.633   7.653
 5770POPC   NC312719   4.311   7.396   9.453
 5770POPC   PO412720   4.358   7.462   9.153
 5770POPC   GL112721   4.278   7.376   8.853
 5770POPC   GL212722   4.322   7.276   8.853
 5770POPC   C1A12723   4.333   7.460   8.553
 5770POPC   D2A12724   4.274   7.410   8.253
 5770POPC   C3A12725   4.366   7.443   7.953
 5770POPC   C4A12726   4.300   7.374   7.653
 5770POPC   C1B12727   4.358   7.207   8.553
 5770POPC   C2B12728   4.317   7.180   8.253
 5770POPC   C3B12729   4.314   7.221   7.953
 5770POPC   C4B12730   4.306   7.137   7.653
 5771POPC   NC312731  12.844  15.223   9.453
 5771POPC   PO412732  12.831  15.153   9.153
 5771POPC   GL112733  12.893  15.150   8.853
 5771POPC   GL212734  12.872  15.084   8.853
 5771POPC   C1A12735  12.885  15.206   8.553
 5771POPC   D2A12736  12.843  15.134   8.253
 5771POPC   C3A12737  12.877  15.222   7.953
 5771POPC   C4A12738  12.826  15.138   7.653
 5771POPC   C1B12739  12.922  14.930   8.553
 5771POPC   C2B12740  12.899  14.901   8.253
 5771POPC   C3B12741  12.906  14.974   7.953
 5771POPC   C4B12742  12.882  14.960   7.653
 5772POPC   NC312743  29.888   1.989   9.453
 5772POPC   PO412744  29.884   2.036   9.153
 5772POPC   GL112745  29.948   1.999   8.853
 5772POPC   GL212746  30.050   1.952   8.853
 5772POPC   C1A12747  29.953   1.956   8.553
 5772POPC   D2A12748  29.967   1.975   8.253
 5772POPC   C3A12749  29.906   1.986   7.953
 5772POPC   C4A12750  29.918   2.004   7.653
 5772POPC   C1B12751  30.153   1.869   8.553
 5772POPC   C2B12752  30.183   1.905   8.253
 5772POPC   C3B12753  30.179   1.913   7.953
 5772POPC   C4B12754  30.121   1.842   7.653
 5773POPC   NC312755  23.721  40.785   9.453
 5773POPC   PO412756  23.718  40.752   9.153
 5773POPC   GL112757  23.708  40.788   8.853
 5773POPC   GL212758  23.702  40.865   8.853
 5773POPC   C1A12759  23.673  40.768   8.553
 5773POPC   D2A12760  23.694  40.795   8.253
 5773POPC   C3A12761  23.746  40.759   7.953
 5773POPC   C4A12762  23.756  40.818   7.653
 5773POPC   C1B12763  23.766  41.013   8.553
 5773POPC   C2B12764  23.766  41.010   8.253
 5773POPC   C3B12765  23.756  41.003   7.953
 5773POPC   C4B12766  23.722  41.031   7.653
 5774POPC   NC312767  14.416  22.956   9.453
 5774POPC   PO412768  14.401  22.914   9.153
 5774POPC   GL112769  14.445  22.920   8.853
 5774POPC   GL212770  14.291  22.864   8.853
 5774POPC   C1A12771  14.450  22.904   8.553
 5774POPC   D2A12772  14.387  22.946   8.253
 5774POPC   C3A12773  14.359  22.924   7.953
 5774POPC   C4A12774  14.366  22.974   7.653
 5774POPC   C1B12775  14.277  22.719   8.553
 5774POPC   C2B12776  14.305  22.735   8.253
 5774POPC   C3B12777  14.225  22.741   7.953
 5774POPC   C4B12778  14.306  22.693   7.653
 5775POPC   NC312779  19.046  41.562   9.453
 5775POPC   PO412780  19.078  41.549   9.153
 5775POPC   GL112781  19.038  41.513   8.853
 5775POPC   GL212782  18.911  41.605   8.853
 5775POPC   C1A12783  19.086  41.550   8.553
 5775POPC   D2A12784  19.100  41.603   8.253
 5775POPC   C3A12785  19.010  41.585   7.953
 5775POPC   C4A12786  19.037  41.578   7.653
 5775POPC   C1B12787  18.797  41.635   8.553
 5775POPC   C2B12788  18.779  41.617   8.253
 5775POPC   C3B12789  18.847  41.645   7.953
 5775POPC   C4B12790  18.782  41.606   7.653
 5776POPC   NC312791  28.353  24.501   9.453
 5776POPC   PO412792  28.331  24.531   9.153
 5776POPC   GL112793  28.380  24.464   8.853
 5776POPC   GL212794  28.322  24.547   8.853
 5776POPC   C1A12795  28.373  24.494   8.553
 5776POPC   D2A12796  28.392  24.519   8.253
 5776POPC   C3A12797  28.409  24.510   7.953
 5776POPC   C4A12798  28.408  24.484   7.653
 5776POPC   C1B12799  28.282  24.669   8.553
 5776POPC   C2B12800  28.246  24.662   8.253
 5776POPC   C3B12801  28.242  24.650   7.953
 5776POPC   C4B12802  28.248  24.703   7.653
 5777POPC   NC312803  10.493  44.689   9.453
 5777POPC   PO412804  10.511  44.669   9.153
 5777POPC   GL112805  10.486  44.701   8.853
 5777POPC   GL212806  10.504  44.746   8.853
 5777POPC   C1A12807  10.558  44.626   8.553
 5777POPC   D2A12808  10.570  44.680   8.253
 5777POPC   C3A12809  10.538  44.654   7.953
 5777POPC   C4A12810  10.526  44.693   7.653
 5777POPC   C1B12811  10.608  44.949   8.553
 5777POPC   C2B12812  10.541  44.956   8.253
 5777POPC   C3B12813  10.603  44.888   7.953
 5777POPC   C4B12814  10.602  44.882   7.653
 5778POPC   NC312815  19.083   6.676   9.453
 5778POPC   PO412816  19.045   6.662   9.153
 5778POPC   GL112817  19.108   6.639   8.853
 5778POPC   GL212818  19.197   6.670   8.853
 5778POPC   C1A12819  19.108   6.643   8.553
 5778POPC   D2A12820  19.027   6.675   8.253
 5778POPC   C3A12821  19.048   6.688   7.953
 5778POPC   C4A12822  19.096   6.695   7.653
 5778POPC   C1B12823  19.342   6.652   8.553
 5778POPC   C2B12824  19.257   6.585   8.253
 5778POPC   C3B12825  19.328   6.637   7.953
 5778POPC   C4B12826  19.277   6.638   7.653
 5779POPC   NC312827  21.420   8.961   9.453
 5779POPC   PO412828  21.349   8.932   9.153
 5779POPC   GL112829  21.356   8.979   8.853
 5779POPC   GL212830  21.242   9.079   8.853
 5779POPC   C1A12831  21.360   8.977   8.553
 5779POPC   D2A12832  21.384   8.931   8.253
 5779POPC   C3A12833  21.415   8.968   7.953
 5779POPC   C4A12834  21.376   8.960   7.653
 5779POPC   C1B12835  21.170   9.065   8.553
 5779POPC   C2B12836  21.136   9.080   8.253
 5779POPC   C3B12837  21.184   9.154   7.953
 5779POPC   C4B12838  21.189   9.128   7.653
 5780POPC   NC312839  23.675  18.249   9.453
 5780POPC   PO412840  23.700  18.319   9.153
 5780POPC   GL112841  23.754  18.305   8.853
 5780POPC   GL212842  23.613  18.175   8.853
 5780POPC   C1A12843  23.664  18.267   8.553
 5780POPC   D2A12844  23.686  18.307   8.253
 5780POPC   C3A12845  23.748  18.311   7.953
 5780POPC   C4A12846  23.703  18.314   7.653
 5780POPC   C1B12847  23.530  18.055   8.553
 5780POPC   C2B12848  23.590  18.061   8.253
 5780POPC   C3B12849  23.581  18.121   7.953
 5780POPC   C4B12850  23.528  18.053   7.653
 5781POPC   NC312851  16.755  29.963   9.453
 5781POPC   PO412852  16.711  29.945   9.153
 5781POPC   GL112853  16.761  29.952   8.853
 5781POPC   GL212854  16.622  29.813   8.853
 5781POPC   C1A12855  16.768  29.923   8.553
 5781POPC   D2A12856  16.684  29.886   8.253
 5781POPC   C3A12857  16.720  29.910   7.953
 5781POPC   C4A12858  16.714  29.903   7.653
 5781POPC   C1B12859  16.652  29.662   8.553
 5781POPC   C2B12860  16.601  29.721   8.253
 5781POPC   C3B12861  16.628  29.682   7.953
 5781POPC   C4B12862  16.602  29.688   7.653
 5782POPC   NC312863   8.217  22.909   9.453
 5782POPC   PO412864   8.206  22.986   9.153
 5782POPC   GL112865   8.168  22.946   8.853
 5782POPC   GL212866   8.077  22.826   8.853
 5782POPC   C1A12867   8.147  22.942   8.553
 5782POPC   D2A12868   8.245  22.968   8.253
 5782POPC   C3A12869   8.220  22.898   7.953
 5782POPC   C4A12870   8.203  22.966   7.653
 5782POPC   C1B12871   8.049  22.809   8.553
 5782POPC   C2B12872   8.002  22.808   8.253
 5782POPC   C3B12873   8.038  22.787   7.953
 5782POPC   C4B12874   8.040  22.756   7.653
 5783POPC   NC312875  26.814   7.384   9.453
 5783POPC   PO412876  26.776   7.448   9.153
 5783POPC   GL112877  26.846   7.419   8.853
 5783POPC   GL212878  26.903   7.524   8.853
 5783POPC   C1A12879  26.826   7.449   8.553
 5783POPC   D2A12880  26.797   7.402   8.253
 5783POPC   C3A12881  26.797   7.460   7.953
 5783POPC   C4A12882  26.814   7.387   7.653
 5783POPC   C1B12883  26.988   7.642   8.553
 5783POPC   C2B12884  26.956   7.563   8.253
 5783POPC   C3B12885  27.037   7.614   7.953
 5783POPC   C4B12886  27.020   7.570   7.653
 5784POPC   NC312887   8.171  33.832   9.453
 5784POPC   PO412888   8.233  33.799   9.153
 5784POPC   GL112889   8.167  33.822   8.853
 5784POPC   GL212890   8.224  33.956   8.853
 5784POPC   C1A12891   8.161  33.849   8.553
 5784POPC   D2A12892   8.220  33.826   8.253
 5784POPC   C3A12893   8.200  33.839   7.953
 5784POPC   C4A12894   8.195  33.819   7.653
 5784POPC   C1B12895   8.277  34.063   8.553
 5784POPC   C2B12896   8.330  34.053   8.253
 5784POPC   C3B12897   8.315  34.061   7.953
 5784POPC   C4B12898   8.236  34.030   7.653
 5785POPC   NC312899  29.937  15.973   9.453
 5785POPC   PO412900  29.930  15.977   9.153
 5785POPC   GL112901  29.947  15.953   8.853
 5785POPC   GL212902  29.845  16.005   8.853
 5785POPC   C1A12903  29.897  15.921   8.553
 5785POPC   D2A12904  29.955  15.969   8.253
 5785POPC   C3A12905  29.903  15.919   7.953
 5785POPC   C4A12906  29.890  15.984   7.653
 5785POPC   C1B12907  29.663  15.913   8.553
 5785POPC   C2B12908  29.714  15.938   8.253
 5785POPC   C3B12909  29.664  16.002   7.953
 5785POPC   C4B12910  29.626  15.983   7.653
 5786POPC   NC312911  43.920  28.342   9.453
 5786POPC   PO412912  43.916  28.392   9.153
 5786POPC   GL112913  43.859  28.378   8.853
 5786POPC   GL212914  43.970  28.362   8.853
 5786POPC   C1A12915  43.853  28.325   8.553
 5786POPC   D2A12916  43.906  28.368   8.253
 5786POPC   C3A12917  43.921  28.328   7.953
 5786POPC   C4A12918  43.868  28.341   7.653
 5786POPC   C1B12919  44.167  28.412   8.553
 5786POPC   C2B12920  44.084  28.480   8.253
 5786POPC   C3B12921  44.170  28.405   7.953
 5786POPC   C4B12922  44.107  28.428   7.653
 5787POPC   NC312923  35.331   4.357   9.453
 5787POPC   PO412924  35.397   4.296   9.153
 5787POPC   GL112925  35.356   4.293   8.853
 5787POPC   GL212926  35.367   4.491   8.853
 5787POPC   C1A12927  35.388   4.347   8.553
 5787POPC   D2A12928  35.314   4.293   8.253
 5787POPC   C3A12929  35.383   4.346   7.953
 5787POPC   C4A12930  35.368   4.349   7.653
 5787POPC   C1B12931  35.347   4.591   8.553
 5787POPC   C2B12932  35.298   4.578   8.253
 5787POPC   C3B12933  35.276   4.603   7.953
 5787POPC   C4B12934  35.282   4.599   7.653
 5788POPC   NC312935  29.127  44.651   9.453
 5788POPC   PO412936  29.145  44.612   9.153
 5788POPC   GL112937  29.136  44.684   8.853
 5788POPC   GL212938  29.155  44.517   8.853
 5788POPC   C1A12939  29.160  44.654   8.553
 5788POPC   D2A12940  29.177  44.697   8.253
 5788POPC   C3A12941  29.104  44.703   7.953
 5788POPC   C4A12942  29.182  44.712   7.653
 5788POPC   C1B12943  29.158  44.419   8.553
 5788POPC   C2B12944  29.164  44.381   8.253
 5788POPC   C3B12945  29.203  44.449   7.953
 5788POPC   C4B12946  29.168  44.434   7.653
 5789POPC   NC312947  44.682  19.094   9.453
 5789POPC   PO412948  44.616  19.021   9.153
 5789POPC   GL112949  44.660  19.028   8.853
 5789POPC   GL212950  44.796  19.023   8.853
 5789POPC   C1A12951  44.620  19.100   8.553
 5789POPC   D2A12952  44.623  19.028   8.253
 5789POPC   C3A12953  44.657  19.012   7.953
 5789POPC   C4A12954  44.661  19.086   7.653
 5789POPC   C1B12955  44.901  19.011   8.553
 5789POPC   C2B12956  44.939  18.986   8.253
 5789POPC   C3B12957  44.947  18.962   7.953
 5789POPC   C4B12958  44.898  18.976   7.653
 5790POPC   NC312959  15.188   1.962   9.453
 5790POPC   PO412960  15.224   2.009   9.153
 5790POPC   GL112961  15.143   1.991   8.853
 5790POPC   GL212962  15.137   2.137   8.853
 5790POPC   C1A12963  15.227   2.009   8.553
 5790POPC   D2A12964  15.155   1.968   8.253
 5790POPC   C3A12965  15.172   2.013   7.953
 5790POPC   C4A12966  15.146   2.021   7.653
 5790POPC   C1B12967  15.127   2.204   8.553
 5790POPC   C2B12968  15.123   2.231   8.253
 5790POPC   C3B12969  15.061   2.246   7.953
 5790POPC   C4B12970  15.058   2.185   7.653
 5791POPC   NC312971  42.289  33.062   9.453
 5791POPC   PO412972  42.323  33.032   9.153
 5791POPC   GL112973  42.333  33.056   8.853
 5791POPC   GL212974  42.313  32.858   8.853
 5791POPC   C1A12975  42.351  32.989   8.553
 5791POPC   D2A12976  42.367  33.059   8.253
 5791POPC   C3A12977  42.306  33.046   7.953
 5791POPC   C4A12978  42.300  32.984   7.653
 5791POPC   C1B12979  42.363  32.780   8.553
 5791POPC   C2B12980  42.393  32.792   8.253
 5791POPC   C3B12981  42.361  32.751   7.953
 5791POPC   C4B12982  42.392  32.755   7.653
 5792POPC   NC312983  12.117  15.165   9.453
 5792POPC   PO412984  12.083  15.203   9.153
 5792POPC   GL112985  12.038  15.136   8.853
 5792POPC   GL212986  12.249  15.225   8.853
 5792POPC   C1A12987  12.036  15.172   8.553
 5792POPC   D2A12988  12.095  15.135   8.253
 5792POPC   C3A12989  12.087  15.195   7.953
 5792POPC   C4A12990  12.058  15.199   7.653
 5792POPC   C1B12991  12.315  15.235   8.553
 5792POPC   C2B12992  12.369  15.176   8.253
 5792POPC   C3B12993  12.327  15.262   7.953
 5792POPC   C4B12994  12.344  15.258   7.653
 5793POPC   NC312995  17.496  19.802   9.453
 5793POPC   PO412996  17.517  19.872   9.153
 5793POPC   GL112997  17.499  19.802   8.853
 5793POPC   GL212998  17.455  19.725   8.853
 5793POPC   C1A12999  17.549  19.800   8.553
 5793POPC   D2A13000  17.510  19.802   8.253
 5793POPC   C3A13001  17.497  19.833   7.953
 5793POPC   C4A13002  17.483  19.839   7.653
 5793POPC   C1B13003  17.413  19.614   8.553
 5793POPC   C2B13004  17.439  19.626   8.253
 5793POPC   C3B13005  17.437  19.546   7.953
 5793POPC   C4B13006  17.420  19.627   7.653
 5794POPC   NC313007   0.435  29.157   9.453
 5794POPC   PO413008   0.458  29.150   9.153
 5794POPC   GL113009   0.403  29.105   8.853
 5794POPC   GL213010   0.451  29.221   8.853
 5794POPC   C1A13011   0.457  29.116   8.553
 5794POPC   D2A13012   0.487  29.106   8.253
 5794POPC   C3A13013   0.484  29.107   7.953
 5794POPC   C4A13014   0.420  29.164   7.653
 5794POPC   C1B13015   0.386  29.345   8.553
 5794POPC   C2B13016   0.378  29.364   8.253
 5794POPC   C3B13017   0.384  29.385   7.953
 5794POPC   C4B13018   0.346  29.340   7.653
 5795POPC   NC313019  12.051  29.883   9.453
 5795POPC   PO413020  12.105  29.928   9.153
 5795POPC   GL113021  12.087  29.951   8.853
 5795POPC   GL213022  11.983  29.957   8.853
 5795POPC   C1A13023  12.113  29.916   8.553
 5795POPC   D2A13024  12.105  29.887   8.253
 5795POPC   C3A13025  12.036  29.920   7.953
 5795POPC   C4A13026  12.115  29.899   7.653
 5795POPC   C1B13027  11.902  30.066   8.553
 5795POPC   C2B13028  11.828  30.026   8.253
 5795POPC   C3B13029  11.824  30.068   7.953
 5795POPC   C4B13030  11.879  30.020   7.653
 5796POPC   NC313031   8.928   2.003   9.453
 5796POPC   PO413032   8.925   1.967   9.153
 5796POPC   GL113033   9.020   2.029   8.853
 5796POPC   GL213034   8.945   1.830   8.853
 5796POPC   C1A13035   9.010   1.985   8.553
 5796POPC   D2A13036   8.997   1.947   8.253
 5796POPC   C3A13037   8.955   2.019   7.953
 5796POPC   C4A13038   8.930   2.016   7.653
 5796POPC   C1B13039   8.902   1.716   8.553
 5796POPC   C2B13040   8.841   1.788   8.253
 5796POPC   C3B13041   8.905   1.713   7.953
 5796POPC   C4B13042   8.905   1.714   7.653
 5797POPC   NC313043  40.760   5.108   9.453
 5797POPC   PO413044  40.826   5.126   9.153
 5797POPC   GL113045  40.772   5.088   8.853
 5797POPC   GL213046  40.885   5.057   8.853
 5797POPC   C1A13047  40.765   5.047   8.553
 5797POPC   D2A13048  40.808   5.104   8.253
 5797POPC   C3A13049  40.773   5.130   7.953
 5797POPC   C4A13050  40.763   5.109   7.653
 5797POPC   C1B13051  40.962   4.935   8.553
 5797POPC   C2B13052  41.010   4.952   8.253
 5797POPC   C3B13053  40.983   4.944   7.953
 5797POPC   C4B13054  40.983   4.967   7.653
 5798POPC   NC313055  34.623  39.257   9.453
 5798POPC   PO413056  34.553  39.240   9.153
 5798POPC   GL113057  34.554  39.213   8.853
 5798POPC   GL213058  34.535  39.164   8.853
 5798POPC   C1A13059  34.589  39.250   8.553
 5798POPC   D2A13060  34.546  39.210   8.253
 5798POPC   C3A13061  34.577  39.184   7.953
 5798POPC   C4A13062  34.586  39.258   7.653
 5798POPC   C1B13063  34.485  39.022   8.553
 5798POPC   C2B13064  34.442  39.008   8.253
 5798POPC   C3B13065  34.483  38.994   7.953
 5798POPC   C4B13066  34.494  38.976   7.653
 5799POPC   NC313067  14.399  40.797   9.453
 5799POPC   PO413068  14.390  40.738   9.153
 5799POPC   GL113069  14.450  40.830   8.853
 5799POPC   GL213070  14.476  40.866   8.853
 5799POPC   C1A13071  14.395  40.780   8.553
 5799POPC   D2A13072  14.361  40.821   8.253
 5799POPC   C3A13073  14.438  40.798   7.953
 5799POPC   C4A13074  14.448  40.740   7.653
 5799POPC   C1B13075  14.546  41.026   8.553
 5799POPC   C2B13076  14.557  41.041   8.253
 5799POPC   C3B13077  14.492  40.964   7.953
 5799POPC   C4B13078  14.492  40.980   7.653
 5800POPC   NC313079  28.366   8.988   9.453
 5800POPC   PO413080  28.325   8.984   9.153
 5800POPC   GL113081  28.379   9.020   8.853
 5800POPC   GL213082  28.391   9.098   8.853
 5800POPC   C1A13083  28.410   9.018   8.553
 5800POPC   D2A13084  28.362   9.001   8.253
 5800POPC   C3A13085  28.326   8.923   7.953
 5800POPC   C4A13086  28.340   9.014   7.653
 5800POPC   C1B13087  28.365   9.218   8.553
 5800POPC   C2B13088  28.340   9.190   8.253
 5800POPC   C3B13089  28.309   9.185   7.953
 5800POPC   C4B13090  28.332   9.239   7.653
 5801POPC   NC313091  28.364  44.654   9.453
 5801POPC   PO413092  28.414  44.656   9.153
 5801POPC   GL113093  28.323  44.655   8.853
 5801POPC   GL213094  28.454  44.549   8.853
 5801POPC   C1A13095  28.385  44.624   8.553
 5801POPC   D2A13096  28.348  44.692   8.253
 5801POPC   C3A13097  28.407  44.654   7.953
 5801POPC   C4A13098  28.375  44.621   7.653
 5801POPC   C1B13099  28.499  44.516   8.553
 5801POPC   C2B13100  28.549  44.502   8.253
 5801POPC   C3B13101  28.539  44.505   7.953
 5801POPC   C4B13102  28.482  44.485   7.653
 5802POPC   NC313103   5.899  43.917   9.453
 5802POPC   PO413104   5.827  43.876   9.153
 5802POPC   GL113105   5.879  43.930   8.853
 5802POPC   GL213106   5.829  43.948   8.853
 5802POPC   C1A13107   5.888  43.853   8.553
 5802POPC   D2A13108   5.890  43.891   8.253
 5802POPC   C3A13109   5.902  43.933   7.953
 5802POPC   C4A13110   5.885  43.880   7.653
 5802POPC   C1B13111   5.714  44.125   8.553
 5802POPC   C2B13112   5.680  44.027   8.253
 5802POPC   C3B13113   5.720  44.081   7.953
 5802POPC   C4B13114   5.720  44.120   7.653
 5803POPC   NC313115  12.060  14.445   9.453
 5803POPC   PO413116  12.062  14.432   9.153
 5803POPC   GL113117  12.102  14.384   8.853
 5803POPC   GL213118  12.053  14.520   8.853
 5803POPC   C1A13119  12.051  14.425   8.553
 5803POPC   D2A13120  12.067  14.435   8.253
 5803POPC   C3A13121  12.122  14.414   7.953
 5803POPC   C4A13122  12.050  14.447   7.653
 5803POPC   C1B13123  12.026  14.621   8.553
 5803POPC   C2B13124  12.003  14.622   8.253
 5803POPC   C3B13125  12.008  14.656   7.953
 5803POPC   C4B13126  11.962  14.621   7.653
 5804POPC   NC313127  44.617  35.402   9.453
 5804POPC   PO413128  44.688  35.364   9.153
 5804POPC   GL113129  44.710  35.363   8.853
 5804POPC   GL213130  44.637  35.263   8.853
 5804POPC   C1A13131  44.663  35.348   8.553
 5804POPC   D2A13132  44.658  35.364   8.253
 5804POPC   C3A13133  44.692  35.371   7.953
 5804POPC   C4A13134  44.619  35.364   7.653
 5804POPC   C1B13135  44.684  35.056   8.553
 5804POPC   C2B13136  44.701  35.103   8.253
 5804POPC   C3B13137  44.701  35.117   7.953
 5804POPC   C4B13138  44.672  35.135   7.653
 5805POPC   NC313139  36.923  35.321   9.453
 5805POPC   PO413140  36.950  35.322   9.153
 5805POPC   GL113141  36.914  35.316   8.853
 5805POPC   GL213142  36.979  35.195   8.853
 5805POPC   C1A13143  36.890  35.369   8.553
 5805POPC   D2A13144  36.930  35.396   8.253
 5805POPC   C3A13145  36.897  35.315   7.953
 5805POPC   C4A13146  36.887  35.316   7.653
 5805POPC   C1B13147  37.042  35.166   8.553
 5805POPC   C2B13148  37.024  35.134   8.253
 5805POPC   C3B13149  37.003  35.165   7.953
 5805POPC   C4B13150  37.027  35.165   7.653
 5806POPC   NC313151  41.598  23.733   9.453
 5806POPC   PO413152  41.572  23.679   9.153
 5806POPC   GL113153  41.520  23.696   8.853
 5806POPC   GL213154  41.628  23.695   8.853
 5806POPC   C1A13155  41.510  23.683   8.553
 5806POPC   D2A13156  41.552  23.674   8.253
 5806POPC   C3A13157  41.543  23.760   7.953
 5806POPC   C4A13158  41.587  23.717   7.653
 5806POPC   C1B13159  41.772  23.558   8.553
 5806POPC   C2B13160  41.736  23.618   8.253
 5806POPC   C3B13161  41.792  23.627   7.953
 5806POPC   C4B13162  41.813  23.612   7.653
 5807POPC   NC313163  14.427  41.587   9.453
 5807POPC   PO413164  14.417  41.586   9.153
 5807POPC   GL113165  14.439  41.546   8.853
 5807POPC   GL213166  14.329  41.460   8.853
 5807POPC   C1A13167  14.425  41.547   8.553
 5807POPC   D2A13168  14.419  41.606   8.253
 5807POPC   C3A13169  14.390  41.578   7.953
 5807POPC   C4A13170  14.437  41.538   7.653
 5807POPC   C1B13171  14.279  41.379   8.553
 5807POPC   C2B13172  14.248  41.291   8.253
 5807POPC   C3B13173  14.325  41.300   7.953
 5807POPC   C4B13174  14.324  41.298   7.653
 5808POPC   NC313175  36.904  34.551   9.453
 5808POPC   PO413176  36.942  34.574   9.153
 5808POPC   GL113177  36.879  34.580   8.853
 5808POPC   GL213178  36.981  34.537   8.853
 5808POPC   C1A13179  36.945  34.624   8.553
 5808POPC   D2A13180  36.881  34.531   8.253
 5808POPC   C3A13181  36.882  34.568   7.953
 5808POPC   C4A13182  36.866  34.607   7.653
 5808POPC   C1B13183  37.153  34.410   8.553
 5808POPC   C2B13184  37.108  34.396   8.253
 5808POPC   C3B13185  37.157  34.477   7.953
 5808POPC   C4B13186  37.103  34.414   7.653
 5809POPC   NC313187  40.758  40.785   9.453
 5809POPC   PO413188  40.761  40.735   9.153
 5809POPC   GL113189  40.754  40.747   8.853
 5809POPC   GL213190  40.707  40.916   8.853
 5809POPC   C1A13191  40.832  40.742   8.553
 5809POPC   D2A13192  40.794  40.824   8.253
 5809POPC   C3A13193  40.767  40.754   7.953
 5809POPC   C4A13194  40.816  40.814   7.653
 5809POPC   C1B13195  40.745  41.017   8.553
 5809POPC   C2B13196  40.716  41.041   8.253
 5809POPC   C3B13197  40.691  40.990   7.953
 5809POPC   C4B13198  40.699  41.046   7.653
 5810POPC   NC313199   3.521  43.847   9.453
 5810POPC   PO413200   3.589  43.871   9.153
 5810POPC   GL113201   3.586  43.856   8.853
 5810POPC   GL213202   3.544  43.809   8.853
 5810POPC   C1A13203   3.497  43.863   8.553
 5810POPC   D2A13204   3.536  43.840   8.253
 5810POPC   C3A13205   3.510  43.914   7.953
 5810POPC   C4A13206   3.526  43.894   7.653
 5810POPC   C1B13207   3.442  43.694   8.553
 5810POPC   C2B13208   3.481  43.601   8.253
 5810POPC   C3B13209   3.434  43.626   7.953
 5810POPC   C4B13210   3.500  43.654   7.653
 5811POPC   NC313211  27.598   8.156   9.453
 5811POPC   PO413212  27.602   8.204   9.153
 5811POPC   GL113213  27.594   8.160   8.853
 5811POPC   GL213214  27.595   8.315   8.853
 5811POPC   C1A13215  27.560   8.211   8.553
 5811POPC   D2A13216  27.585   8.241   8.253
 5811POPC   C3A13217  27.602   8.158   7.953
 5811POPC   C4A13218  27.548   8.160   7.653
 5811POPC   C1B13219  27.527   8.438   8.553
 5811POPC   C2B13220  27.507   8.427   8.253
 5811POPC   C3B13221  27.552   8.453   7.953
 5811POPC   C4B13222  27.546   8.390   7.653
 5812POPC   NC313223  19.079  26.813   9.453
 5812POPC   PO413224  19.022  26.797   9.153
 5812POPC   GL113225  19.084  26.791   8.853
 5812POPC   GL213226  18.967  26.678   8.853
 5812POPC   C1A13227  19.075  26.860   8.553
 5812POPC   D2A13228  19.052  26.850   8.253
 5812POPC   C3A13229  19.044  26.785   7.953
 5812POPC   C4A13230  19.087  26.798   7.653
 5812POPC   C1B13231  18.947  26.584   8.553
 5812POPC   C2B13232  18.947  26.584   8.253
 5812POPC   C3B13233  18.879  26.579   7.953
 5812POPC   C4B13234  18.877  26.635   7.653
 5813POPC   NC313235  29.932   5.919   9.453
 5813POPC   PO413236  29.955   5.886   9.153
 5813POPC   GL113237  29.894   5.834   8.853
 5813POPC   GL213238  29.794   5.910   8.853
 5813POPC   C1A13239  29.943   5.867   8.553
 5813POPC   D2A13240  29.900   5.897   8.253
 5813POPC   C3A13241  29.887   5.882   7.953
 5813POPC   C4A13242  29.956   5.865   7.653
 5813POPC   C1B13243  29.717   5.968   8.553
 5813POPC   C2B13244  29.715   6.051   8.253
 5813POPC   C3B13245  29.685   5.983   7.953
 5813POPC   C4B13246  29.724   6.028   7.653
 5814POPC   NC313247   0.482  44.646   9.453
 5814POPC   PO413248   0.430  44.687   9.153
 5814POPC   GL113249   0.452  44.636   8.853
 5814POPC   GL213250   0.561  44.572   8.853
 5814POPC   C1A13251   0.450  44.635   8.553
 5814POPC   D2A13252   0.402  44.654   8.253
 5814POPC   C3A13253   0.414  44.616   7.953
 5814POPC   C4A13254   0.430  44.681   7.653
 5814POPC   C1B13255   0.701  44.597   8.553
 5814POPC   C2B13256   0.633  44.511   8.253
 5814POPC   C3B13257   0.622  44.522   7.953
 5814POPC   C4B13258   0.622  44.551   7.653
 5815POPC   NC313259  42.366  40.759   9.453
 5815POPC   PO413260  42.323  40.750   9.153
 5815POPC   GL113261  42.312  40.734   8.853
 5815POPC   GL213262  42.427  40.671   8.853
 5815POPC   C1A13263  42.324  40.802   8.553
 5815POPC   D2A13264  42.334  40.754   8.253
 5815POPC   C3A13265  42.341  40.750   7.953
 5815POPC   C4A13266  42.367  40.784   7.653
 5815POPC   C1B13267  42.465  40.631   8.553
 5815POPC   C2B13268  42.509  40.613   8.253
 5815POPC   C3B13269  42.476  40.628   7.953
 5815POPC   C4B13270  42.451  40.589   7.653
 5816POPC   NC313271  31.450  12.894   9.453
 5816POPC   PO413272  31.512  12.850   9.153
 5816POPC   GL113273  31.474  12.830   8.853
 5816POPC   GL213274  31.423  12.966   8.853
 5816POPC   C1A13275  31.516  12.854   8.553
 5816POPC   D2A13276  31.475  12.812   8.253
 5816POPC   C3A13277  31.432  12.870   7.953
 5816POPC   C4A13278  31.482  12.826   7.653
 5816POPC   C1B13279  31.394  13.104   8.553
 5816POPC   C2B13280  31.380  13.066   8.253
 5816POPC   C3B13281  31.454  13.091   7.953
 5816POPC   C4B13282  31.449  13.086   7.653
 5817POPC   NC313283  16.682  24.513   9.453
 5817POPC   PO413284  16.777  24.444   9.153
 5817POPC   GL113285  16.774  24.476   8.853
 5817POPC   GL213286  16.625  24.471   8.853
 5817POPC   C1A13287  16.759  24.461   8.553
 5817POPC   D2A13288  16.763  24.465   8.253
 5817POPC   C3A13289  16.714  24.537   7.953
 5817POPC   C4A13290  16.778  24.460   7.653
 5817POPC   C1B13291  16.507  24.490   8.553
 5817POPC   C2B13292  16.528  24.499   8.253
 5817POPC   C3B13293  16.479  24.572   7.953
 5817POPC   C4B13294  16.457  24.538   7.653
 5818POPC   NC313295  40.768  22.172   9.453
 5818POPC   PO413296  40.735  22.175   9.153
 5818POPC   GL113297  40.770  22.121   8.853
 5818POPC   GL213298  40.886  22.164   8.853
 5818POPC   C1A13299  40.746  22.177   8.553
 5818POPC   D2A13300  40.738  22.154   8.253
 5818POPC   C3A13301  40.764  22.121   7.953
 5818POPC   C4A13302  40.739  22.200   7.653
 5818POPC   C1B13303  41.015  22.225   8.553
 5818POPC   C2B13304  40.968  22.290   8.253
 5818POPC   C3B13305  41.056  22.286   7.953
 5818POPC   C4B13306  41.061  22.277   7.653
 5819POPC   NC313307  21.338  33.053   9.453
 5819POPC   PO413308  21.413  33.047   9.153
 5819POPC   GL113309  21.341  33.019   8.853
 5819POPC   GL213310  21.316  33.117   8.853
 5819POPC   C1A13311  21.355  33.073   8.553
 5819POPC   D2A13312  21.423  32.993   8.253
 5819POPC   C3A13313  21.383  33.024   7.953
 5819POPC   C4A13314  21.393  33.069   7.653
 5819POPC   C1B13315  21.107  33.091   8.553
 5819POPC   C2B13316  21.105  33.086   8.253
 5819POPC   C3B13317  21.117  33.134   7.953
 5819POPC   C4B13318  21.129  33.125   7.653
 5820POPC   NC313319  36.941  18.292   9.453
 5820POPC   PO413320  36.882  18.265   9.153
 5820POPC   GL113321  36.944  18.268   8.853
 5820POPC   GL213322  37.018  18.225   8.853
 5820POPC   C1A13323  36.859  18.272   8.553
 5820POPC   D2A13324  36.953  18.289   8.253
 5820POPC   C3A13325  36.918  18.289   7.953
 5820POPC   C4A13326  36.885  18.311   7.653
 5820POPC   C1B13327  37.094  18.161   8.553
 5820POPC   C2B13328  37.125  18.205   8.253
 5820POPC   C3B13329  37.085  18.213   7.953
 5820POPC   C4B13330  37.140  18.220   7.653
 5821POPC   NC313331   9.781   5.118   9.453
 5821POPC   PO413332   9.741   5.062   9.153
 5821POPC   GL113333   9.721   5.060   8.853
 5821POPC   GL213334   9.875   5.169   8.853
 5821POPC   C1A13335   9.752   5.094   8.553
 5821POPC   D2A13336   9.784   5.133   8.253
 5821POPC   C3A13337   9.724   5.062   7.953
 5821POPC   C4A13338   9.708   5.123   7.653
 5821POPC   C1B13339  10.030   5.214   8.553
 5821POPC   C2B13340   9.987   5.126   8.253
 5821POPC   C3B13341  10.011   5.124   7.953
 5821POPC   C4B13342  10.033   5.125   7.653
 5822POPC   NC313343  36.890  40.824   9.453
 5822POPC   PO413344  36.913  40.754   9.153
 5822POPC   GL113345  36.945  40.818   8.853
 5822POPC   GL213346  37.036  40.764   8.853
 5822POPC   C1A13347  36.878  40.739   8.553
 5822POPC   D2A13348  36.920  40.749   8.253
 5822POPC   C3A13349  36.893  40.756   7.953
 5822POPC   C4A13350  36.858  40.741   7.653
 5822POPC   C1B13351  37.170  40.694   8.553
 5822POPC   C2B13352  37.141  40.704   8.253
 5822POPC   C3B13353  37.166  40.752   7.953
 5822POPC   C4B13354  37.178  40.737   7.653
 5823POPC   NC313355  16.769   1.982   9.453
 5823POPC   PO413356  16.693   2.037   9.153
 5823POPC   GL113357  16.738   1.966   8.853
 5823POPC   GL213358  16.773   2.113   8.853
 5823POPC   C1A13359  16.723   1.952   8.553
 5823POPC   D2A13360  16.692   2.010   8.253
 5823POPC   C3A13361  16.725   1.982   7.953
 5823POPC   C4A13362  16.778   1.950   7.653
 5823POPC   C1B13363  16.877   2.243   8.553
 5823POPC   C2B13364  16.844   2.174   8.253
 5823POPC   C3B13365  16.885   2.203   7.953
 5823POPC   C4B13366  16.802   2.225   7.653
 5824POPC   NC313367   3.522  44.627   9.453
 5824POPC   PO413368   3.531  44.673   9.153
 5824POPC   GL113369   3.504  44.704   8.853
 5824POPC   GL213370   3.586  44.773   8.853
 5824POPC   C1A13371   3.540  44.672   8.553
 5824POPC   D2A13372   3.528  44.693   8.253
 5824POPC   C3A13373   3.554  44.666   7.953
 5824POPC   C4A13374   3.521  44.709   7.653
 5824POPC   C1B13375   3.716  44.874   8.553
 5824POPC   C2B13376   3.655  44.904   8.253
 5824POPC   C3B13377   3.642  44.848   7.953
 5824POPC   C4B13378   3.724  44.868   7.653
 5825POPC   NC313379  28.398  17.546   9.453
 5825POPC   PO413380  28.368  17.465   9.153
 5825POPC   GL113381  28.333  17.505   8.853
 5825POPC   GL213382  28.321  17.600   8.853
 5825POPC   C1A13383  28.328  17.517   8.553
 5825POPC   D2A13384  28.418  17.552   8.253
 5825POPC   C3A13385  28.400  17.472   7.953
 5825POPC   C4A13386  28.351  17.485   7.653
 5825POPC   C1B13387  28.277  17.725   8.553
 5825POPC   C2B13388  28.274  17.779   8.253
 5825POPC   C3B13389  28.322  17.715   7.953
 5825POPC   C4B13390  28.297  17.728   7.653
 5826POPC   NC313391  36.082   3.514   9.453
 5826POPC   PO413392  36.127   3.570   9.153
 5826POPC   GL113393  36.115   3.532   8.853
 5826POPC   GL213394  36.070   3.618   8.853
 5826POPC   C1A13395  36.119   3.557   8.553
 5826POPC   D2A13396  36.156   3.560   8.253
 5826POPC   C3A13397  36.171   3.507   7.953
 5826POPC   C4A13398  36.111   3.589   7.653
 5826POPC   C1B13399  36.091   3.747   8.553
 5826POPC   C2B13400  36.084   3.801   8.253
 5826POPC   C3B13401  36.083   3.775   7.953
 5826POPC   C4B13402  36.078   3.764   7.653
 5827POPC   NC313403   5.828  12.819   9.453
 5827POPC   PO413404   5.876  12.829   9.153
 5827POPC   GL113405   5.912  12.808   8.853
 5827POPC   GL213406   6.007  12.864   8.853
 5827POPC   C1A13407   5.853  12.837   8.553
 5827POPC   D2A13408   5.852  12.838   8.253
 5827POPC   C3A13409   5.902  12.863   7.953
 5827POPC   C4A13410   5.916  12.846   7.653
 5827POPC   C1B13411   6.126  12.973   8.553
 5827POPC   C2B13412   6.064  12.934   8.253
 5827POPC   C3B13413   6.101  12.983   7.953
 5827POPC   C4B13414   6.127  12.903   7.653
 5828POPC   NC313415  24.493  16.773   9.453
 5828POPC   PO413416  24.518  16.691   9.153
 5828POPC   GL113417  24.477  16.702   8.853
 5828POPC   GL213418  24.467  16.574   8.853
 5828POPC   C1A13419  24.452  16.774   8.553
 5828POPC   D2A13420  24.454  16.722   8.253
 5828POPC   C3A13421  24.467  16.751   7.953
 5828POPC   C4A13422  24.448  16.689   7.653
 5828POPC   C1B13423  24.472  16.492   8.553
 5828POPC   C2B13424  24.431  16.523   8.253
 5828POPC   C3B13425  24.506  16.515   7.953
 5828POPC   C4B13426  24.441  16.497   7.653
 5829POPC   NC313427  36.087  14.430   9.453
 5829POPC   PO413428  36.159  14.440   9.153
 5829POPC   GL113429  36.132  14.415   8.853
 5829POPC   GL213430  36.088  14.484   8.853
 5829POPC   C1A13431  36.140  14.422   8.553
 5829POPC   D2A13432  36.102  14.354   8.253
 5829POPC   C3A13433  36.159  14.436   7.953
 5829POPC   C4A13434  36.096  14.414   7.653
 5829POPC   C1B13435  36.079  14.664   8.553
 5829POPC   C2B13436  36.146  14.616   8.253
 5829POPC   C3B13437  36.149  14.683   7.953
 5829POPC   C4B13438  36.109  14.662   7.653
 5830POPC   NC313439   2.023  17.517   9.453
 5830POPC   PO413440   1.990  17.555   9.153
 5830POPC   GL113441   2.004  17.464   8.853
 5830POPC   GL213442   2.025  17.454   8.853
 5830POPC   C1A13443   1.952  17.470   8.553
 5830POPC   D2A13444   1.958  17.500   8.253
 5830POPC   C3A13445   1.963  17.509   7.953
 5830POPC   C4A13446   1.962  17.529   7.653
 5830POPC   C1B13447   2.151  17.288   8.553
 5830POPC   C2B13448   2.134  17.302   8.253
 5830POPC   C3B13449   2.111  17.327   7.953
 5830POPC   C4B13450   2.165  17.350   7.653
 5831POPC   NC313451  19.090  37.659   9.453
 5831POPC   PO413452  19.044  37.705   9.153
 5831POPC   GL113453  19.095  37.703   8.853
 5831POPC   GL213454  18.947  37.732   8.853
 5831POPC   C1A13455  19.063  37.629   8.553
 5831POPC   D2A13456  19.011  37.694   8.253
 5831POPC   C3A13457  19.049  37.694   7.953
 5831POPC   C4A13458  19.050  37.640   7.653
 5831POPC   C1B13459  18.857  37.810   8.553
 5831POPC   C2B13460  18.837  37.809   8.253
 5831POPC   C3B13461  18.819  37.767   7.953
 5831POPC   C4B13462  18.851  37.805   7.653
 5832POPC   NC313463  34.566  30.668   9.453
 5832POPC   PO413464  34.553  30.682   9.153
 5832POPC   GL113465  34.585  30.745   8.853
 5832POPC   GL213466  34.443  30.684   8.853
 5832POPC   C1A13467  34.603  30.666   8.553
 5832POPC   D2A13468  34.582  30.709   8.253
 5832POPC   C3A13469  34.542  30.661   7.953
 5832POPC   C4A13470  34.527  30.679   7.653
 5832POPC   C1B13471  34.315  30.690   8.553
 5832POPC   C2B13472  34.360  30.721   8.253
 5832POPC   C3B13473  34.282  30.718   7.953
 5832POPC   C4B13474  34.372  30.768   7.653
 5833POPC   NC313475  22.156  36.859   9.453
 5833POPC   PO413476  22.167  36.874   9.153
 5833POPC   GL113477  22.164  36.927   8.853
 5833POPC   GL213478  22.241  36.860   8.853
 5833POPC   C1A13479  22.148  36.877   8.553
 5833POPC   D2A13480  22.130  36.892   8.253
 5833POPC   C3A13481  22.194  36.943   7.953
 5833POPC   C4A13482  22.128  36.890   7.653
 5833POPC   C1B13483  22.379  36.897   8.553
 5833POPC   C2B13484  22.423  36.833   8.253
 5833POPC   C3B13485  22.418  36.895   7.953
 5833POPC   C4B13486  22.375  36.898   7.653
 5834POPC   NC313487   9.724  36.906   9.453
 5834POPC   PO413488   9.789  36.855   9.153
 5834POPC   GL113489   9.735  36.894   8.853
 5834POPC   GL213490   9.868  36.823   8.853
 5834POPC   C1A13491   9.729  36.896   8.553
 5834POPC   D2A13492   9.777  36.898   8.253
 5834POPC   C3A13493   9.750  36.942   7.953
 5834POPC   C4A13494   9.792  36.896   7.653
 5834POPC   C1B13495   9.880  36.656   8.553
 5834POPC   C2B13496   9.904  36.729   8.253
 5834POPC   C3B13497   9.889  36.691   7.953
 5834POPC   C4B13498   9.880  36.686   7.653
 5835POPC   NC313499   0.443  30.728   9.453
 5835POPC   PO413500   0.446  30.695   9.153
 5835POPC   GL113501   0.440  30.737   8.853
 5835POPC   GL213502   0.316  30.702   8.853
 5835POPC   C1A13503   0.469  30.738   8.553
 5835POPC   D2A13504   0.473  30.724   8.253
 5835POPC   C3A13505   0.408  30.695   7.953
 5835POPC   C4A13506   0.424  30.651   7.653
 5835POPC   C1B13507   0.178  30.727   8.553
 5835POPC   C2B13508   0.142  30.694   8.253
 5835POPC   C3B13509   0.205  30.672   7.953
 5835POPC   C4B13510   0.151  30.725   7.653
 5836POPC   NC313511   2.028  21.373   9.453
 5836POPC   PO413512   1.997  21.345   9.153
 5836POPC   GL113513   2.014  21.427   8.853
 5836POPC   GL213514   1.854  21.470   8.853
 5836POPC   C1A13515   2.033  21.353   8.553
 5836POPC   D2A13516   1.957  21.416   8.253
 5836POPC   C3A13517   1.965  21.387   7.953
 5836POPC   C4A13518   1.953  21.339   7.653
 5836POPC   C1B13519   1.802  21.503   8.553
 5836POPC   C2B13520   1.736  21.512   8.253
 5836POPC   C3B13521   1.765  21.460   7.953
 5836POPC   C4B13522   1.781  21.482   7.653
 5837POPC   NC313523  27.602   2.001   9.453
 5837POPC   PO413524  27.623   2.002   9.153
 5837POPC   GL113525  27.609   1.955   8.853
 5837POPC   GL213526  27.610   2.108   8.853
 5837POPC   C1A13527  27.635   1.958   8.553
 5837POPC   D2A13528  27.616   1.947   8.253
 5837POPC   C3A13529  27.624   1.995   7.953
 5837POPC   C4A13530  27.571   1.945   7.653
 5837POPC   C1B13531  27.593   2.234   8.553
 5837POPC   C2B13532  27.632   2.252   8.253
 5837POPC   C3B13533  27.634   2.280   7.953
 5837POPC   C4B13534  27.590   2.249   7.653
 5838POPC   NC313535  27.628  44.664   9.453
 5838POPC   PO413536  27.576  44.678   9.153
 5838POPC   GL113537  27.594  44.613   8.853
 5838POPC   GL213538  27.535  44.566   8.853
 5838POPC   C1A13539  27.624  44.618   8.553
 5838POPC   D2A13540  27.589  44.682   8.253
 5838POPC   C3A13541  27.555  44.620   7.953
 5838POPC   C4A13542  27.586  44.711   7.653
 5838POPC   C1B13543  27.337  44.519   8.553
 5838POPC   C2B13544  27.369  44.502   8.253
 5838POPC   C3B13545  27.391  44.491   7.953
 5838POPC   C4B13546  27.394  44.570   7.653
 5839POPC   NC313547   5.851  44.633   9.453
 5839POPC   PO413548   5.848  44.672   9.153
 5839POPC   GL113549   5.821  44.704   8.853
 5839POPC   GL213550   5.748  44.690   8.853
 5839POPC   C1A13551   5.825  44.681   8.553
 5839POPC   D2A13552   5.852  44.685   8.253
 5839POPC   C3A13553   5.871  44.659   7.953
 5839POPC   C4A13554   5.842  44.690   7.653
 5839POPC   C1B13555   5.623  44.795   8.553
 5839POPC   C2B13556   5.689  44.832   8.253
 5839POPC   C3B13557   5.663  44.767   7.953
 5839POPC   C4B13558   5.629  44.808   7.653
 5840POPC   NC313559  19.841  21.369   9.453
 5840POPC   PO413560  19.880  21.398   9.153
 5840POPC   GL113561  19.831  21.356   8.853
 5840POPC   GL213562  19.791  21.280   8.853
 5840POPC   C1A13563  19.830  21.425   8.553
 5840POPC   D2A13564  19.877  21.375   8.253
 5840POPC   C3A13565  19.859  21.430   7.953
 5840POPC   C4A13566  19.789  21.379   7.653
 5840POPC   C1B13567  19.632  21.223   8.553
 5840POPC   C2B13568  19.605  21.213   8.253
 5840POPC   C3B13569  19.618  21.204   7.953
 5840POPC   C4B13570  19.661  21.211   7.653
 5841POPC   NC313571  36.091  12.870   9.453
 5841POPC   PO413572  36.152  12.806   9.153
 5841POPC   GL113573  36.103  12.854   8.853
 5841POPC   GL213574  36.182  12.729   8.853
 5841POPC   C1A13575  36.087  12.889   8.553
 5841POPC   D2A13576  36.174  12.808   8.253
 5841POPC   C3A13577  36.116  12.802   7.953
 5841POPC   C4A13578  36.095  12.828   7.653
 5841POPC   C1B13579  36.275  12.619   8.553
 5841POPC   C2B13580  36.226  12.686   8.253
 5841POPC   C3B13581  36.257  12.657   7.953
 5841POPC   C4B13582  36.283  12.592   7.653
 5842POPC   NC313583  43.090  39.274   9.453
 5842POPC   PO413584  43.066  39.192   9.153
 5842POPC   GL113585  43.065  39.198   8.853
 5842POPC   GL213586  42.965  39.181   8.853
 5842POPC   C1A13587  43.145  39.187   8.553
 5842POPC   D2A13588  43.160  39.226   8.253
 5842POPC   C3A13589  43.109  39.280   7.953
 5842POPC   C4A13590  43.091  39.213   7.653
 5842POPC   C1B13591  42.910  39.189   8.553
 5842POPC   C2B13592  42.900  39.147   8.253
 5842POPC   C3B13593  42.853  39.202   7.953
 5842POPC   C4B13594  42.890  39.199   7.653
 5843POPC   NC313595  30.698  39.963   9.453
 5843POPC   PO413596  30.654  40.034   9.153
 5843POPC   GL113597  30.706  40.005   8.853
 5843POPC   GL213598  30.731  39.928   8.853
 5843POPC   C1A13599  30.712  39.994   8.553
 5843POPC   D2A13600  30.650  40.012   8.253
 5843POPC   C3A13601  30.668  40.023   7.953
 5843POPC   C4A13602  30.711  40.018   7.653
 5843POPC   C1B13603  30.782  39.757   8.553
 5843POPC   C2B13604  30.699  39.802   8.253
 5843POPC   C3B13605  30.728  39.789   7.953
 5843POPC   C4B13606  30.745  39.804   7.653
 5844POPC   NC313607  20.637  38.470   9.453
 5844POPC   PO413608  20.608  38.487   9.153
 5844POPC   GL113609  20.598  38.442   8.853
 5844POPC   GL213610  20.729  38.508   8.853
 5844POPC   C1A13611  20.629  38.448   8.553
 5844POPC   D2A13612  20.578  38.463   8.253
 5844POPC   C3A13613  20.570  38.459   7.953
 5844POPC   C4A13614  20.654  38.433   7.653
 5844POPC   C1B13615  20.869  38.513   8.553
 5844POPC   C2B13616  20.849  38.516   8.253
 5844POPC   C3B13617  20.866  38.501   7.953
 5844POPC   C4B13618  20.828  38.487   7.653
 5845POPC   NC313619   4.345  13.628   9.453
 5845POPC   PO413620   4.335  13.589   9.153
 5845POPC   GL113621   4.335  13.590   8.853
 5845POPC   GL213622   4.215  13.531   8.853
 5845POPC   C1A13623   4.314  13.666   8.553
 5845POPC   D2A13624   4.343  13.646   8.253
 5845POPC   C3A13625   4.355  13.616   7.953
 5845POPC   C4A13626   4.357  13.604   7.653
 5845POPC   C1B13627   4.147  13.427   8.553
 5845POPC   C2B13628   4.194  13.448   8.253
 5845POPC   C3B13629   4.140  13.431   7.953
 5845POPC   C4B13630   4.179  13.397   7.653
 5846POPC   NC313631  33.048  30.671   9.453
 5846POPC   PO413632  32.975  30.697   9.153
 5846POPC   GL113633  32.990  30.701   8.853
 5846POPC   GL213634  33.131  30.637   8.853
 5846POPC   C1A13635  33.058  30.742   8.553
 5846POPC   D2A13636  32.984  30.656   8.253
 5846POPC   C3A13637  33.052  30.721   7.953
 5846POPC   C4A13638  33.067  30.697   7.653
 5846POPC   C1B13639  33.235  30.674   8.553
 5846POPC   C2B13640  33.246  30.680   8.253
 5846POPC   C3B13641  33.263  30.646   7.953
 5846POPC   C4B13642  33.246  30.679   7.653
 5847POPC   NC313643   3.570   5.869   9.453
 5847POPC   PO413644   3.539   5.879   9.153
 5847POPC   GL113645   3.568   5.855   8.853
 5847POPC   GL213646   3.676   5.836   8.853
 5847POPC   C1A13647   3.521   5.824   8.553
 5847POPC   D2A13648   3.567   5.903   8.253
 5847POPC   C3A13649   3.534   5.872   7.953
 5847POPC   C4A13650   3.558   5.862   7.653
 5847POPC   C1B13651   3.739   5.715   8.553
 5847POPC   C2B13652   3.749   5.716   8.253
 5847POPC   C3B13653   3.718   5.687   7.953
 5847POPC   C4B13654   3.764   5.755   7.653
 5848POPC   NC313655  15.178  18.269   9.453
 5848POPC   PO413656  15.223  18.284   9.153
 5848POPC   GL113657  15.163  18.308   8.853
 5848POPC   GL213658  15.161  18.134   8.853
 5848POPC   C1A13659  15.166  18.286   8.553
 5848POPC   D2A13660  15.213  18.287   8.253
 5848POPC   C3A13661  15.166  18.240   7.953
 5848POPC   C4A13662  15.154  18.279   7.653
 5848POPC   C1B13663  15.051  18.089   8.553
 5848POPC   C2B13664  15.023  18.017   8.253
 5848POPC   C3B13665  15.053  18.031   7.953
 5848POPC   C4B13666  15.051  18.042   7.653
 5849POPC   NC313667  25.253   2.759   9.453
 5849POPC   PO413668  25.253   2.732   9.153
 5849POPC   GL113669  25.315   2.752   8.853
 5849POPC   GL213670  25.273   2.918   8.853
 5849POPC   C1A13671  25.219   2.754   8.553
 5849POPC   D2A13672  25.300   2.724   8.253
 5849POPC   C3A13673  25.309   2.773   7.953
 5849POPC   C4A13674  25.274   2.763   7.653
 5849POPC   C1B13675  25.314   3.040   8.553
 5849POPC   C2B13676  25.390   2.966   8.253
 5849POPC   C3B13677  25.339   3.011   7.953
 5849POPC   C4B13678  25.377   2.971   7.653
 5850POPC   NC313679  22.956  12.802   9.453
 5850POPC   PO413680  22.972  12.900   9.153
 5850POPC   GL113681  22.987  12.890   8.853
 5850POPC   GL213682  22.940  12.688   8.853
 5850POPC   C1A13683  22.945  12.820   8.553
 5850POPC   D2A13684  22.927  12.859   8.253
 5850POPC   C3A13685  22.926  12.875   7.953
 5850POPC   C4A13686  22.888  12.808   7.653
 5850POPC   C1B13687  22.901  12.629   8.553
 5850POPC   C2B13688  22.892  12.598   8.253
 5850POPC   C3B13689  22.906  12.586   7.953
 5850POPC   C4B13690  22.923  12.567   7.653
 5851POPC   NC313691  32.229  40.032   9.453
 5851POPC   PO413692  32.243  40.047   9.153
 5851POPC   GL113693  32.221  40.054   8.853
 5851POPC   GL213694  32.115  39.888   8.853
 5851POPC   C1A13695  32.231  40.015   8.553
 5851POPC   D2A13696  32.249  40.011   8.253
 5851POPC   C3A13697  32.270  40.023   7.953
 5851POPC   C4A13698  32.291  39.977   7.653
 5851POPC   C1B13699  32.054  39.844   8.553
 5851POPC   C2B13700  32.042  39.799   8.253
 5851POPC   C3B13701  32.111  39.848   7.953
 5851POPC   C4B13702  32.065  39.853   7.653
 5852POPC   NC313703  17.499  36.859   9.453
 5852POPC   PO413704  17.532  36.940   9.153
 5852POPC   GL113705  17.544  36.886   8.853
 5852POPC   GL213706  17.373  36.992   8.853
 5852POPC   C1A13707  17.457  36.867   8.553
 5852POPC   D2A13708  17.469  36.929   8.253
 5852POPC   C3A13709  17.503  36.905   7.953
 5852POPC   C4A13710  17.489  36.898   7.653
 5852POPC   C1B13711  17.293  37.005   8.553
 5852POPC   C2B13712  17.289  37.089   8.253
 5852POPC   C3B13713  17.333  36.998   7.953
 5852POPC   C4B13714  17.258  37.039   7.653
 5853POPC   NC313715  33.014  28.396   9.453
 5853POPC   PO413716  32.985  28.355   9.153
 5853POPC   GL113717  32.999  28.369   8.853
 5853POPC   GL213718  33.138  28.384   8.853
 5853POPC   C1A13719  32.990  28.349   8.553
 5853POPC   D2A13720  32.975  28.399   8.253
 5853POPC   C3A13721  32.989  28.344   7.953
 5853POPC   C4A13722  32.992  28.398   7.653
 5853POPC   C1B13723  33.224  28.400   8.553
 5853POPC   C2B13724  33.279  28.364   8.253
 5853POPC   C3B13725  33.283  28.422   7.953
 5853POPC   C4B13726  33.290  28.349   7.653
 5854POPC   NC313727  38.439  25.277   9.453
 5854POPC   PO413728  38.463  25.258   9.153
 5854POPC   GL113729  38.491  25.278   8.853
 5854POPC   GL213730  38.458  25.121   8.853
 5854POPC   C1A13731  38.451  25.313   8.553
 5854POPC   D2A13732  38.458  25.261   8.253
 5854POPC   C3A13733  38.443  25.245   7.953
 5854POPC   C4A13734  38.416  25.259   7.653
 5854POPC   C1B13735  38.503  24.990   8.553
 5854POPC   C2B13736  38.511  25.008   8.253
 5854POPC   C3B13737  38.463  25.061   7.953
 5854POPC   C4B13738  38.541  25.014   7.653
 5855POPC   NC313739   6.691  41.573   9.453
 5855POPC   PO413740   6.676  41.561   9.153
 5855POPC   GL113741   6.652  41.594   8.853
 5855POPC   GL213742   6.778  41.644   8.853
 5855POPC   C1A13743   6.598  41.599   8.553
 5855POPC   D2A13744   6.631  41.541   8.253
 5855POPC   C3A13745   6.618  41.536   7.953
 5855POPC   C4A13746   6.651  41.585   7.653
 5855POPC   C1B13747   6.833  41.782   8.553
 5855POPC   C2B13748   6.846  41.729   8.253
 5855POPC   C3B13749   6.845  41.717   7.953
 5855POPC   C4B13750   6.775  41.702   7.653
 5856POPC   NC313751  13.581   5.088   9.453
 5856POPC   PO413752  13.658   5.091   9.153
 5856POPC   GL113753  13.672   5.138   8.853
 5856POPC   GL213754  13.705   5.025   8.853
 5856POPC   C1A13755  13.664   5.112   8.553
 5856POPC   D2A13756  13.587   5.097   8.253
 5856POPC   C3A13757  13.593   5.134   7.953
 5856POPC   C4A13758  13.609   5.113   7.653
 5856POPC   C1B13759  13.852   5.090   8.553
 5856POPC   C2B13760  13.853   5.032   8.253
 5856POPC   C3B13761  13.873   5.009   7.953
 5856POPC   C4B13762  13.906   5.054   7.653
 5857POPC   NC313763  41.537  26.049   9.453
 5857POPC   PO413764  41.594  26.046   9.153
 5857POPC   GL113765  41.590  26.084   8.853
 5857POPC   GL213766  41.653  25.906   8.853
 5857POPC   C1A13767  41.556  26.040   8.553
 5857POPC   D2A13768  41.532  26.067   8.253
 5857POPC   C3A13769  41.585  26.034   7.953
 5857POPC   C4A13770  41.603  26.078   7.653
 5857POPC   C1B13771  41.761  25.882   8.553
 5857POPC   C2B13772  41.703  25.875   8.253
 5857POPC   C3B13773  41.686  25.878   7.953
 5857POPC   C4B13774  41.744  25.859   7.653
 5858POPC   NC313775  22.894   6.647   9.453
 5858POPC   PO413776  22.986   6.656   9.153
 5858POPC   GL113777  22.952   6.622   8.853
 5858POPC   GL213778  22.766   6.651   8.853
 5858POPC   C1A13779  22.956   6.686   8.553
 5858POPC   D2A13780  22.980   6.650   8.253
 5858POPC   C3A13781  22.968   6.610   7.953
 5858POPC   C4A13782  22.953   6.640   7.653
 5858POPC   C1B13783  22.675   6.640   8.553
 5858POPC   C2B13784  22.692   6.623   8.253
 5858POPC   C3B13785  22.704   6.576   7.953
 5858POPC   C4B13786  22.719   6.589   7.653
 5859POPC   NC313787  27.615  33.057   9.453
 5859POPC   PO413788  27.559  33.059   9.153
 5859POPC   GL113789  27.592  32.977   8.853
 5859POPC   GL213790  27.488  33.006   8.853
 5859POPC   C1A13791  27.605  33.039   8.553
 5859POPC   D2A13792  27.571  32.998   8.253
 5859POPC   C3A13793  27.609  32.985   7.953
 5859POPC   C4A13794  27.628  32.987   7.653
 5859POPC   C1B13795  27.316  32.996   8.553
 5859POPC   C2B13796  27.337  32.977   8.253
 5859POPC   C3B13797  27.384  32.950   7.953
 5859POPC   C4B13798  27.310  32.927   7.653
 5860POPC   NC313799  33.017  33.777   9.453
 5860POPC   PO413800  33.069  33.776   9.153
 5860POPC   GL113801  32.998  33.764   8.853
 5860POPC   GL213802  33.134  33.745   8.853
 5860POPC   C1A13803  33.063  33.778   8.553
 5860POPC   D2A13804  32.997  33.801   8.253
 5860POPC   C3A13805  32.992  33.784   7.953
 5860POPC   C4A13806  33.010  33.764   7.653
 5860POPC   C1B13807  33.174  33.604   8.553
 5860POPC   C2B13808  33.263  33.629   8.253
 5860POPC   C3B13809  33.241  33.639   7.953
 5860POPC   C4B13810  33.255  33.617   7.653
 5861POPC   NC313811  21.408   8.193   9.453
 5861POPC   PO413812  21.404   8.176   9.153
 5861POPC   GL113813  21.379   8.211   8.853
 5861POPC   GL213814  21.352   8.262   8.853
 5861POPC   C1A13815  21.394   8.241   8.553
 5861POPC   D2A13816  21.369   8.221   8.253
 5861POPC   C3A13817  21.436   8.152   7.953
 5861POPC   C4A13818  21.357   8.245   7.653
 5861POPC   C1B13819  21.264   8.359   8.553
 5861POPC   C2B13820  21.277   8.361   8.253
 5861POPC   C3B13821  21.242   8.364   7.953
 5861POPC   C4B13822  21.280   8.364   7.653
 5862POPC   NC313823   8.246   5.051   9.453
 5862POPC   PO413824   8.164   5.117   9.153
 5862POPC   GL113825   8.147   5.051   8.853
 5862POPC   GL213826   8.290   5.105   8.853
 5862POPC   C1A13827   8.193   5.101   8.553
 5862POPC   D2A13828   8.184   5.139   8.253
 5862POPC   C3A13829   8.176   5.084   7.953
 5862POPC   C4A13830   8.228   5.048   7.653
 5862POPC   C1B13831   8.457   5.149   8.553
 5862POPC   C2B13832   8.395   5.136   8.253
 5862POPC   C3B13833   8.431   5.139   7.953
 5862POPC   C4B13834   8.444   5.132   7.653
 5863POPC   NC313835  25.274   7.371   9.453
 5863POPC   PO413836  25.289   7.409   9.153
 5863POPC   GL113837  25.236   7.398   8.853
 5863POPC   GL213838  25.339   7.467   8.853
 5863POPC   C1A13839  25.244   7.404   8.553
 5863POPC   D2A13840  25.218   7.390   8.253
 5863POPC   C3A13841  25.295   7.371   7.953
 5863POPC   C4A13842  25.306   7.406   7.653
 5863POPC   C1B13843  25.462   7.608   8.553
 5863POPC   C2B13844  25.400   7.567   8.253
 5863POPC   C3B13845  25.463   7.615   7.953
 5863POPC   C4B13846  25.415   7.546   7.653
 5864POPC   NC313847   8.238  36.904   9.453
 5864POPC   PO413848   8.226  36.923   9.153
 5864POPC   GL113849   8.234  36.952   8.853
 5864POPC   GL213850   8.181  36.756   8.853
 5864POPC   C1A13851   8.240  36.902   8.553
 5864POPC   D2A13852   8.174  36.937   8.253
 5864POPC   C3A13853   8.186  36.891   7.953
 5864POPC   C4A13854   8.166  36.945   7.653
 5864POPC   C1B13855   8.312  36.626   8.553
 5864POPC   C2B13856   8.259  36.613   8.253
 5864POPC   C3B13857   8.284  36.653   7.953
 5864POPC   C4B13858   8.272  36.694   7.653
 5865POPC   NC313859  29.879  18.293   9.453
 5865POPC   PO413860  29.929  18.300   9.153
 5865POPC   GL113861  29.907  18.272   8.853
 5865POPC   GL213862  29.834  18.316   8.853
 5865POPC   C1A13863  29.943  18.256   8.553
 5865POPC   D2A13864  29.923  18.235   8.253
 5865POPC   C3A13865  29.888  18.263   7.953
 5865POPC   C4A13866  29.904  18.302   7.653
 5865POPC   C1B13867  29.733  18.451   8.553
 5865POPC   C2B13868  29.724  18.464   8.253
 5865POPC   C3B13869  29.716  18.404   7.953
 5865POPC   C4B13870  29.703  18.433   7.653
 5866POPC   NC313871  19.080  38.483   9.453
 5866POPC   PO413872  19.087  38.417   9.153
 5866POPC   GL113873  19.044  38.449   8.853
 5866POPC   GL213874  19.178  38.485   8.853
 5866POPC   C1A13875  19.043  38.453   8.553
 5866POPC   D2A13876  19.099  38.451   8.253
 5866POPC   C3A13877  19.071  38.501   7.953
 5866POPC   C4A13878  19.082  38.415   7.653
 5866POPC   C1B13879  19.298  38.540   8.553
 5866POPC   C2B13880  19.322  38.471   8.253
 5866POPC   C3B13881  19.262  38.510   7.953
 5866POPC   C4B13882  19.263  38.499   7.653
 5867POPC   NC313883  29.193  21.370   9.453
 5867POPC   PO413884  29.143  21.417   9.153
 5867POPC   GL113885  29.158  21.410   8.853
 5867POPC   GL213886  29.053  21.295   8.853
 5867POPC   C1A13887  29.130  21.435   8.553
 5867POPC   D2A13888  29.121  21.367   8.253
 5867POPC   C3A13889  29.145  21.402   7.953
 5867POPC   C4A13890  29.101  21.396   7.653
 5867POPC   C1B13891  29.013  21.197   8.553
 5867POPC   C2B13892  29.025  21.163   8.253
 5867POPC   C3B13893  29.052  21.202   7.953
 5867POPC   C4B13894  28.998  21.163   7.653
 5868POPC   NC313895  28.378  28.366   9.453
 5868POPC   PO413896  28.338  28.340   9.153
 5868POPC   GL113897  28.363  28.411   8.853
 5868POPC   GL213898  28.214  28.426   8.853
 5868POPC   C1A13899  28.417  28.362   8.553
 5868POPC   D2A13900  28.329  28.417   8.253
 5868POPC   C3A13901  28.348  28.353   7.953
 5868POPC   C4A13902  28.383  28.359   7.653
 5868POPC   C1B13903  28.134  28.509   8.553
 5868POPC   C2B13904  28.149  28.535   8.253
 5868POPC   C3B13905  28.111  28.509   7.953
 5868POPC   C4B13906  28.170  28.455   7.653
 5869POPC   NC313907  42.306   3.565   9.453
 5869POPC   PO413908  42.325   3.574   9.153
 5869POPC   GL113909  42.324   3.494   8.853
 5869POPC   GL213910  42.463   3.514   8.853
 5869POPC   C1A13911  42.369   3.569   8.553
 5869POPC   D2A13912  42.311   3.583   8.253
 5869POPC   C3A13913  42.305   3.561   7.953
 5869POPC   C4A13914  42.299   3.583   7.653
 5869POPC   C1B13915  42.492   3.406   8.553
 5869POPC   C2B13916  42.565   3.406   8.253
 5869POPC   C3B13917  42.533   3.362   7.953
 5869POPC   C4B13918  42.584   3.342   7.653
 5870POPC   NC313919   1.949   1.984   9.453
 5870POPC   PO413920   1.990   2.007   9.153
 5870POPC   GL113921   1.959   1.992   8.853
 5870POPC   GL213922   2.100   2.018   8.853
 5870POPC   C1A13923   2.032   2.024   8.553
 5870POPC   D2A13924   2.010   1.994   8.253
 5870POPC   C3A13925   1.989   2.014   7.953
 5870POPC   C4A13926   1.977   2.002   7.653
 5870POPC   C1B13927   2.284   2.028   8.553
 5870POPC   C2B13928   2.234   2.007   8.253
 5870POPC   C3B13929   2.191   2.025   7.953
 5870POPC   C4B13930   2.235   1.978   7.653
 5871POPC   NC313931   0.407  21.392   9.453
 5871POPC   PO413932   0.447  21.383   9.153
 5871POPC   GL113933   0.430  21.380   8.853
 5871POPC   GL213934   0.577  21.505   8.853
 5871POPC   C1A13935   0.467  21.356   8.553
 5871POPC   D2A13936   0.430  21.421   8.253
 5871POPC   C3A13937   0.464  21.415   7.953
 5871POPC   C4A13938   0.436  21.352   7.653
 5871POPC   C1B13939   0.608  21.557   8.553
 5871POPC   C2B13940   0.649  21.571   8.253
 5871POPC   C3B13941   0.591  21.553   7.953
 5871POPC   C4B13942   0.641  21.574   7.653
 5872POPC   NC313943  33.028   7.382   9.453
 5872POPC   PO413944  33.016   7.465   9.153
 5872POPC   GL113945  33.063   7.385   8.853
 5872POPC   GL213946  33.043   7.324   8.853
 5872POPC   C1A13947  33.032   7.378   8.553
 5872POPC   D2A13948  33.070   7.456   8.253
 5872POPC   C3A13949  33.062   7.399   7.953
 5872POPC   C4A13950  33.014   7.458   7.653
 5872POPC   C1B13951  32.998   7.187   8.553
 5872POPC   C2B13952  33.018   7.174   8.253
 5872POPC   C3B13953  32.938   7.128   7.953
 5872POPC   C4B13954  32.948   7.171   7.653
 5873POPC   NC313955   1.962  10.490   9.453
 5873POPC   PO413956   1.991  10.498   9.153
 5873POPC   GL113957   2.033  10.526   8.853
 5873POPC   GL213958   2.096  10.475   8.853
 5873POPC   C1A13959   1.954  10.571   8.553
 5873POPC   D2A13960   1.983  10.559   8.253
 5873POPC   C3A13961   1.956  10.477   7.953
 5873POPC   C4A13962   2.010  10.505   7.653
 5873POPC   C1B13963   2.174  10.305   8.553
 5873POPC   C2B13964   2.177  10.311   8.253
 5873POPC   C3B13965   2.176  10.352   7.953
 5873POPC   C4B13966   2.120  10.355   7.653
 5874POPC   NC313967  39.244   2.731   9.453
 5874POPC   PO413968  39.219   2.769   9.153
 5874POPC   GL113969  39.188   2.802   8.853
 5874POPC   GL213970  39.260   2.653   8.853
 5874POPC   C1A13971  39.254   2.722   8.553
 5874POPC   D2A13972  39.269   2.765   8.253
 5874POPC   C3A13973  39.251   2.730   7.953
 5874POPC   C4A13974  39.190   2.720   7.653
 5874POPC   C1B13975  39.279   2.516   8.553
 5874POPC   C2B13976  39.278   2.498   8.253
 5874POPC   C3B13977  39.334   2.537   7.953
 5874POPC   C4B13978  39.316   2.531   7.653
 5875POPC   NC313979  36.924  42.353   9.453
 5875POPC   PO413980  36.916  42.291   9.153
 5875POPC   GL113981  36.914  42.334   8.853
 5875POPC   GL213982  36.767  42.436   8.853
 5875POPC   C1A13983  36.939  42.362   8.553
 5875POPC   D2A13984  36.906  42.285   8.253
 5875POPC   C3A13985  36.912  42.326   7.953
 5875POPC   C4A13986  36.869  42.336   7.653
 5875POPC   C1B13987  36.655  42.458   8.553
 5875POPC   C2B13988  36.660  42.484   8.253
 5875POPC   C3B13989  36.679  42.441   7.953
 5875POPC   C4B13990  36.690  42.467   7.653
 5876POPC   NC313991  29.882  40.806   9.453
 5876POPC   PO413992  29.882  40.743   9.153
 5876POPC   GL113993  29.942  40.784   8.853
 5876POPC   GL213994  29.891  40.915   8.853
 5876POPC   C1A13995  29.963  40.813   8.553
 5876POPC   D2A13996  29.955  40.739   8.253
 5876POPC   C3A13997  29.906  40.783   7.953
 5876POPC   C4A13998  29.945  40.822   7.653
 5876POPC   C1B13999  29.964  41.009   8.553
 5876POPC   C2B14000  29.966  41.002   8.253
 5876POPC   C3B14001  29.940  40.995   7.953
 5876POPC   C4B14002  29.959  41.051   7.653
 5877POPC   NC314003  18.262   1.991   9.453
 5877POPC   PO414004  18.326   1.994   9.153
 5877POPC   GL114005  18.295   2.037   8.853
 5877POPC   GL214006  18.335   2.103   8.853
 5877POPC   C1A14007  18.258   1.984   8.553
 5877POPC   D2A14008  18.240   1.950   8.253
 5877POPC   C3A14009  18.290   1.952   7.953
 5877POPC   C4A14010  18.293   2.023   7.653
 5877POPC   C1B14011  18.408   2.190   8.553
 5877POPC   C2B14012  18.423   2.200   8.253
 5877POPC   C3B14013  18.407   2.198   7.953
 5877POPC   C4B14014  18.397   2.225   7.653
 5878POPC   NC314015  22.122  29.936   9.453
 5878POPC   PO414016  22.138  29.876   9.153
 5878POPC   GL114017  22.191  29.885   8.853
 5878POPC   GL214018  22.247  29.842   8.853
 5878POPC   C1A14019  22.171  29.898   8.553
 5878POPC   D2A14020  22.164  29.932   8.253
 5878POPC   C3A14021  22.172  29.897   7.953
 5878POPC   C4A14022  22.196  29.897   7.653
 5878POPC   C1B14023  22.328  29.696   8.553
 5878POPC   C2B14024  22.362  29.765   8.253
 5878POPC   C3B14025  22.311  29.749   7.953
 5878POPC   C4B14026  22.290  29.745   7.653
 5879POPC   NC314027  16.687  29.176   9.453
 5879POPC   PO414028  16.682  29.096   9.153
 5879POPC   GL114029  16.683  29.119   8.853
 5879POPC   GL214030  16.818  29.215   8.853
 5879POPC   C1A14031  16.756  29.177   8.553
 5879POPC   D2A14032  16.682  29.131   8.253
 5879POPC   C3A14033  16.715  29.098   7.953
 5879POPC   C4A14034  16.752  29.119   7.653
 5879POPC   C1B14035  16.829  29.331   8.553
 5879POPC   C2B14036  16.829  29.385   8.253
 5879POPC   C3B14037  16.851  29.400   7.953
 5879POPC   C4B14038  16.845  29.364   7.653
 5880POPC   NC314039  36.143  20.632   9.453
 5880POPC   PO414040  36.150  20.593   9.153
 5880POPC   GL114041  36.137  20.656   8.853
 5880POPC   GL214042  36.156  20.702   8.853
 5880POPC   C1A14043  36.091  20.574   8.553
 5880POPC   D2A14044  36.155  20.594   8.253
 5880POPC   C3A14045  36.123  20.568   7.953
 5880POPC   C4A14046  36.149  20.604   7.653
 5880POPC   C1B14047  36.261  20.855   8.553
 5880POPC   C2B14048  36.203  20.793   8.253
 5880POPC   C3B14049  36.224  20.861   7.953
 5880POPC   C4B14050  36.227  20.806   7.653
 5881POPC   NC314051   1.166  26.769   9.453
 5881POPC   PO414052   1.259  26.828   9.153
 5881POPC   GL114053   1.222  26.811   8.853
 5881POPC   GL214054   1.176  26.989   8.853
 5881POPC   C1A14055   1.216  26.806   8.553
 5881POPC   D2A14056   1.214  26.815   8.253
 5881POPC   C3A14057   1.206  26.786   7.953
 5881POPC   C4A14058   1.260  26.805   7.653
 5881POPC   C1B14059   1.215  27.106   8.553
 5881POPC   C2B14060   1.246  27.062   8.253
 5881POPC   C3B14061   1.230  27.058   7.953
 5881POPC   C4B14062   1.195  27.056   7.653
 5882POPC   NC314063  33.847  26.029   9.453
 5882POPC   PO414064  33.751  26.070   9.153
 5882POPC   GL114065  33.781  26.088   8.853
 5882POPC   GL214066  33.811  25.881   8.853
 5882POPC   C1A14067  33.792  26.074   8.553
 5882POPC   D2A14068  33.756  26.074   8.253
 5882POPC   C3A14069  33.771  26.048   7.953
 5882POPC   C4A14070  33.848  26.065   7.653
 5882POPC   C1B14071  33.755  25.763   8.553
 5882POPC   C2B14072  33.752  25.803   8.253
 5882POPC   C3B14073  33.759  25.771   7.953
 5882POPC   C4B14074  33.730  25.757   7.653
 5883POPC   NC314075   1.994   0.483   9.453
 5883POPC   PO414076   2.036   0.461   9.153
 5883POPC   GL114077   1.947   0.446   8.853
 5883POPC   GL214078   1.985   0.320   8.853
 5883POPC   C1A14079   2.028   0.453   8.553
 5883POPC   D2A14080   1.993   0.394   8.253
 5883POPC   C3A14081   2.004   0.396   7.953
 5883POPC   C4A14082   1.951   0.464   7.653
 5883POPC   C1B14083   2.126   0.165   8.553
 5883POPC   C2B14084   2.068   0.230   8.253
 5883POPC   C3B14085   2.129   0.188   7.953
 5883POPC   C4B14086   2.121   0.176   7.653
 5884POPC   NC314087  12.859  19.063   9.453
 5884POPC   PO414088  12.841  19.097   9.153
 5884POPC   GL114089  12.818  19.015   8.853
 5884POPC   GL214090  12.714  19.061   8.853
 5884POPC   C1A14091  12.880  19.099   8.553
 5884POPC   D2A14092  12.880  19.069   8.253
 5884POPC   C3A14093  12.835  19.010   7.953
 5884POPC   C4A14094  12.821  19.066   7.653
 5884POPC   C1B14095  12.610  19.189   8.553
 5884POPC   C2B14096  12.631  19.201   8.253
 5884POPC   C3B14097  12.664  19.205   7.953
 5884POPC   C4B14098  12.647  19.126   7.653
 5885POPC   NC314099  14.406  15.910   9.453
 5885POPC   PO414100  14.431  15.955   9.153
 5885POPC   GL114101  14.389  15.906   8.853
 5885POPC   GL214102  14.404  15.835   8.853
 5885POPC   C1A14103  14.426  15.970   8.553
 5885POPC   D2A14104  14.358  15.957   8.253
 5885POPC   C3A14105  14.375  15.966   7.953
 5885POPC   C4A14106  14.365  15.988   7.653
 5885POPC   C1B14107  14.276  15.750   8.553
 5885POPC   C2B14108  14.358  15.683   8.253
 5885POPC   C3B14109  14.275  15.751   7.953
 5885POPC   C4B14110  14.353  15.747   7.653
 5886POPC   NC314111  15.194  11.323   9.453
 5886POPC   PO414112  15.186  11.290   9.153
 5886POPC   GL114113  15.152  11.270   8.853
 5886POPC   GL214114  15.077  11.350   8.853
 5886POPC   C1A14115  15.140  11.280   8.553
 5886POPC   D2A14116  15.191  11.283   8.253
 5886POPC   C3A14117  15.150  11.345   7.953
 5886POPC   C4A14118  15.187  11.276   7.653
 5886POPC   C1B14119  15.005  11.467   8.553
 5886POPC   C2B14120  14.994  11.509   8.253
 5886POPC   C3B14121  15.047  11.497   7.953
 5886POPC   C4B14122  15.045  11.459   7.653
 5887POPC   NC314123  43.124  25.239   9.453
 5887POPC   PO414124  43.119  25.216   9.153
 5887POPC   GL114125  43.088  25.216   8.853
 5887POPC   GL214126  43.136  25.109   8.853
 5887POPC   C1A14127  43.062  25.299   8.553
 5887POPC   D2A14128  43.122  25.254   8.253
 5887POPC   C3A14129  43.131  25.299   7.953
 5887POPC   C4A14130  43.085  25.239   7.653
 5887POPC   C1B14131  43.105  25.024   8.553
 5887POPC   C2B14132  43.134  25.012   8.253
 5887POPC   C3B14133  43.147  25.011   7.953
 5887POPC   C4B14134  43.148  25.000   7.653
 5888POPC   NC314135  13.649  13.606   9.453
 5888POPC   PO414136  13.636  13.596   9.153
 5888POPC   GL114137  13.651  13.581   8.853
 5888POPC   GL214138  13.569  13.747   8.853
 5888POPC   C1A14139  13.579  13.638   8.553
 5888POPC   D2A14140  13.658  13.591   8.253
 5888POPC   C3A14141  13.605  13.676   7.953
 5888POPC   C4A14142  13.585  13.664   7.653
 5888POPC   C1B14143  13.399  13.818   8.553
 5888POPC   C2B14144  13.473  13.806   8.253
 5888POPC   C3B14145  13.471  13.753   7.953
 5888POPC   C4B14146  13.382  13.829   7.653
 5889POPC   NC314147  15.962  33.765   9.453
 5889POPC   PO414148  15.987  33.789   9.153
 5889POPC   GL114149  15.979  33.754   8.853
 5889POPC   GL214150  16.051  33.743   8.853
 5889POPC   C1A14151  15.964  33.771   8.553
 5889POPC   D2A14152  15.942  33.768   8.253
 5889POPC   C3A14153  15.917  33.775   7.953
 5889POPC   C4A14154  15.912  33.848   7.653
 5889POPC   C1B14155  16.173  33.630   8.553
 5889POPC   C2B14156  16.126  33.654   8.253
 5889POPC   C3B14157  16.168  33.633   7.953
 5889POPC   C4B14158  16.197  33.656   7.653
 5890POPC   NC314159   1.943  33.812   9.453
 5890POPC   PO414160   2.020  33.806   9.153
 5890POPC   GL114161   2.005  33.844   8.853
 5890POPC   GL214162   2.115  33.815   8.853
 5890POPC   C1A14163   2.024  33.817   8.553
 5890POPC   D2A14164   2.023  33.765   8.253
 5890POPC   C3A14165   1.949  33.827   7.953
 5890POPC   C4A14166   1.978  33.844   7.653
 5890POPC   C1B14167   2.237  33.753   8.553
 5890POPC   C2B14168   2.232  33.808   8.253
 5890POPC   C3B14169   2.210  33.761   7.953
 5890POPC   C4B14170   2.191  33.809   7.653
 5891POPC   NC314171  29.947  29.167   9.453
 5891POPC   PO414172  29.937  29.098   9.153
 5891POPC   GL114173  29.897  29.180   8.853
 5891POPC   GL214174  30.023  29.227   8.853
 5891POPC   C1A14175  29.928  29.152   8.553
 5891POPC   D2A14176  29.965  29.107   8.253
 5891POPC   C3A14177  29.945  29.160   7.953
 5891POPC   C4A14178  29.876  29.181   7.653
 5891POPC   C1B14179  30.134  29.228   8.553
 5891POPC   C2B14180  30.147  29.215   8.253
 5891POPC   C3B14181  30.147  29.248   7.953
 5891POPC   C4B14182  30.142  29.224   7.653
 5892POPC   NC314183  16.777  22.169   9.453
 5892POPC   PO414184  16.746  22.206   9.153
 5892POPC   GL114185  16.736  22.114   8.853
 5892POPC   GL214186  16.588  22.096   8.853
 5892POPC   C1A14187  16.776  22.155   8.553
 5892POPC   D2A14188  16.704  22.180   8.253
 5892POPC   C3A14189  16.776  22.162   7.953
 5892POPC   C4A14190  16.686  22.135   7.653
 5892POPC   C1B14191  16.516  22.042   8.553
 5892POPC   C2B14192  16.561  22.065   8.253
 5892POPC   C3B14193  16.477  21.992   7.953
 5892POPC   C4B14194  16.522  22.031   7.653
 5893POPC   NC314195   5.050   1.983   9.453
 5893POPC   PO414196   5.070   2.028   9.153
 5893POPC   GL114197   5.136   1.999   8.853
 5893POPC   GL214198   5.199   1.922   8.853
 5893POPC   C1A14199   5.064   1.972   8.553
 5893POPC   D2A14200   5.079   2.004   8.253
 5893POPC   C3A14201   5.116   2.016   7.953
 5893POPC   C4A14202   5.072   2.001   7.653
 5893POPC   C1B14203   5.224   1.857   8.553
 5893POPC   C2B14204   5.303   1.828   8.253
 5893POPC   C3B14205   5.305   1.834   7.953
 5893POPC   C4B14206   5.267   1.787   7.653
 5894POPC   NC314207   5.127   7.394   9.453
 5894POPC   PO414208   5.109   7.401   9.153
 5894POPC   GL114209   5.066   7.413   8.853
 5894POPC   GL214210   5.240   7.451   8.853
 5894POPC   C1A14211   5.076   7.421   8.553
 5894POPC   D2A14212   5.140   7.374   8.253
 5894POPC   C3A14213   5.115   7.450   7.953
 5894POPC   C4A14214   5.125   7.455   7.653
 5894POPC   C1B14215   5.331   7.484   8.553
 5894POPC   C2B14216   5.390   7.437   8.253
 5894POPC   C3B14217   5.391   7.482   7.953
 5894POPC   C4B14218   5.313   7.413   7.653
 5895POPC   NC314219  19.797  31.513   9.453
 5895POPC   PO414220  19.789  31.490   9.153
 5895POPC   GL114221  19.797  31.481   8.853
 5895POPC   GL214222  19.757  31.526   8.853
 5895POPC   C1A14223  19.801  31.468   8.553
 5895POPC   D2A14224  19.810  31.496   8.253
 5895POPC   C3A14225  19.854  31.450   7.953
 5895POPC   C4A14226  19.878  31.441   7.653
 5895POPC   C1B14227  19.622  31.621   8.553
 5895POPC   C2B14228  19.662  31.560   8.253
 5895POPC   C3B14229  19.652  31.646   7.953
 5895POPC   C4B14230  19.595  31.573   7.653
 5896POPC   NC314231   5.112  25.243   9.453
 5896POPC   PO414232   5.134  25.315   9.153
 5896POPC   GL114233   5.085  25.309   8.853
 5896POPC   GL214234   5.185  25.241   8.853
 5896POPC   C1A14235   5.083  25.308   8.553
 5896POPC   D2A14236   5.123  25.271   8.253
 5896POPC   C3A14237   5.066  25.219   7.953
 5896POPC   C4A14238   5.116  25.225   7.653
 5896POPC   C1B14239   5.371  25.227   8.553
 5896POPC   C2B14240   5.350  25.280   8.253
 5896POPC   C3B14241   5.375  25.203   7.953
 5896POPC   C4B14242   5.352  25.226   7.653
 5897POPC   NC314243  29.929  36.876   9.453
 5897POPC   PO414244  29.925  36.951   9.153
 5897POPC   GL114245  29.878  36.924   8.853
 5897POPC   GL214246  29.990  36.873   8.853
 5897POPC   C1A14247  29.921  36.953   8.553
 5897POPC   D2A14248  29.921  36.888   8.253
 5897POPC   C3A14249  29.938  36.866   7.953
 5897POPC   C4A14250  29.956  36.909   7.653
 5897POPC   C1B14251  30.099  36.796   8.553
 5897POPC   C2B14252  30.113  36.774   8.253
 5897POPC   C3B14253  30.165  36.729   7.953
 5897POPC   C4B14254  30.118  36.785   7.653
 5898POPC   NC314255   3.557  34.601   9.453
 5898POPC   PO414256   3.566  34.534   9.153
 5898POPC   GL114257   3.515  34.567   8.853
 5898POPC   GL214258   3.382  34.564   8.853
 5898POPC   C1A14259   3.536  34.597   8.553
 5898POPC   D2A14260   3.507  34.535   8.253
 5898POPC   C3A14261   3.532  34.592   7.953
 5898POPC   C4A14262   3.511  34.550   7.653
 5898POPC   C1B14263   3.340  34.492   8.553
 5898POPC   C2B14264   3.314  34.492   8.253
 5898POPC   C3B14265   3.338  34.449   7.953
 5898POPC   C4B14266   3.288  34.458   7.653
 5899POPC   NC314267  38.466   7.397   9.453
 5899POPC   PO414268  38.428   7.459   9.153
 5899POPC   GL114269  38.423   7.379   8.853
 5899POPC   GL214270  38.557   7.330   8.853
 5899POPC   C1A14271  38.485   7.372   8.553
 5899POPC   D2A14272  38.500   7.400   8.253
 5899POPC   C3A14273  38.445   7.386   7.953
 5899POPC   C4A14274  38.442   7.449   7.653
 5899POPC   C1B14275  38.691   7.263   8.553
 5899POPC   C2B14276  38.673   7.239   8.253
 5899POPC   C3B14277  38.680   7.333   7.953
 5899POPC   C4B14278  38.674   7.263   7.653
 5900POPC   NC314279   9.756  35.381   9.453
 5900POPC   PO414280   9.741  35.314   9.153
 5900POPC   GL114281   9.709  35.374   8.853
 5900POPC   GL214282   9.688  35.273   8.853
 5900POPC   C1A14283   9.701  35.401   8.553
 5900POPC   D2A14284   9.735  35.341   8.253
 5900POPC   C3A14285   9.728  35.357   7.953
 5900POPC   C4A14286   9.785  35.322   7.653
 5900POPC   C1B14287   9.547  35.238   8.553
 5900POPC   C2B14288   9.592  35.148   8.253
 5900POPC   C3B14289   9.510  35.174   7.953
 5900POPC   C4B14290   9.590  35.155   7.653
 5901POPC   NC314291  27.632  35.316   9.453
 5901POPC   PO414292  27.590  35.303   9.153
 5901POPC   GL114293  27.568  35.342   8.853
 5901POPC   GL214294  27.442  35.339   8.853
 5901POPC   C1A14295  27.550  35.332   8.553
 5901POPC   D2A14296  27.578  35.341   8.253
 5901POPC   C3A14297  27.618  35.359   7.953
 5901POPC   C4A14298  27.614  35.324   7.653
 5901POPC   C1B14299  27.404  35.194   8.553
 5901POPC   C2B14300  27.391  35.206   8.253
 5901POPC   C3B14301  27.344  35.214   7.953
 5901POPC   C4B14302  27.341  35.196   7.653
 5902POPC   NC314303   4.346   0.428   9.453
 5902POPC   PO414304   4.303   0.393   9.153
 5902POPC   GL114305   4.364   0.415   8.853
 5902POPC   GL214306   4.467   0.475   8.853
 5902POPC   C1A14307   4.366   0.439   8.553
 5902POPC   D2A14308   4.349   0.427   8.253
 5902POPC   C3A14309   4.278   0.433   7.953
 5902POPC   C4A14310   4.342   0.463   7.653
 5902POPC   C1B14311   4.610   0.381   8.553
 5902POPC   C2B14312   4.548   0.382   8.253
 5902POPC   C3B14313   4.588   0.386   7.953
 5902POPC   C4B14314   4.548   0.419   7.653
 5903POPC   NC314315  35.389  43.092   9.453
 5903POPC   PO414316  35.304  43.095   9.153
 5903POPC   GL114317  35.328  43.120   8.853
 5903POPC   GL214318  35.276  43.173   8.853
 5903POPC   C1A14319  35.370  43.079   8.553
 5903POPC   D2A14320  35.370  43.113   8.253
 5903POPC   C3A14321  35.310  43.076   7.953
 5903POPC   C4A14322  35.367  43.118   7.653
 5903POPC   C1B14323  35.099  43.250   8.553
 5903POPC   C2B14324  35.135  43.274   8.253
 5903POPC   C3B14325  35.111  43.217   7.953
 5903POPC   C4B14326  35.176  43.245   7.653
 5904POPC   NC314327  43.921  36.147   9.453
 5904POPC   PO414328  43.865  36.166   9.153
 5904POPC   GL114329  43.894  36.096   8.853
 5904POPC   GL214330  43.940  36.018   8.853
 5904POPC   C1A14331  43.894  36.079   8.553
 5904POPC   D2A14332  43.914  36.154   8.253
 5904POPC   C3A14333  43.891  36.109   7.953
 5904POPC   C4A14334  43.917  36.117   7.653
 5904POPC   C1B14335  44.063  35.927   8.553
 5904POPC   C2B14336  43.992  35.887   8.253
 5904POPC   C3B14337  43.994  35.889   7.953
 5904POPC   C4B14338  44.062  35.904   7.653
 5905POPC   NC314339  32.217  24.455   9.453
 5905POPC   PO414340  32.270  24.487   9.153
 5905POPC   GL114341  32.297  24.512   8.853
 5905POPC   GL214342  32.210  24.354   8.853
 5905POPC   C1A14343  32.201  24.485   8.553
 5905POPC   D2A14344  32.290  24.457   8.253
 5905POPC   C3A14345  32.264  24.446   7.953
 5905POPC   C4A14346  32.251  24.461   7.653
 5905POPC   C1B14347  32.192  24.250   8.553
 5905POPC   C2B14348  32.122  24.226   8.253
 5905POPC   C3B14349  32.164  24.239   7.953
 5905POPC   C4B14350  32.169  24.240   7.653
 5906POPC   NC314351  30.683  30.736   9.453
 5906POPC   PO414352  30.688  30.689   9.153
 5906POPC   GL114353  30.668  30.729   8.853
 5906POPC   GL214354  30.555  30.710   8.853
 5906POPC   C1A14355  30.704  30.708   8.553
 5906POPC   D2A14356  30.658  30.665   8.253
 5906POPC   C3A14357  30.663  30.731   7.953
 5906POPC   C4A14358  30.741  30.653   7.653
 5906POPC   C1B14359  30.477  30.746   8.553
 5906POPC   C2B14360  30.476  30.755   8.253
 5906POPC   C3B14361  30.473  30.814   7.953
 5906POPC   C4B14362  30.464  30.724   7.653
 5907POPC   NC314363   0.407  24.512   9.453
 5907POPC   PO414364   0.419  24.519   9.153
 5907POPC   GL114365   0.444  24.527   8.853
 5907POPC   GL214366   0.422  24.584   8.853
 5907POPC   C1A14367   0.459  24.481   8.553
 5907POPC   D2A14368   0.448  24.505   8.253
 5907POPC   C3A14369   0.486  24.451   7.953
 5907POPC   C4A14370   0.421  24.492   7.653
 5907POPC   C1B14371   0.422  24.780   8.553
 5907POPC   C2B14372   0.417  24.742   8.253
 5907POPC   C3B14373   0.448  24.763   7.953
 5907POPC   C4B14374   0.370  24.689   7.653
 5908POPC   NC314375   5.047   6.639   9.453
 5908POPC   PO414376   5.085   6.657   9.153
 5908POPC   GL114377   5.100   6.679   8.853
 5908POPC   GL214378   5.142   6.750   8.853
 5908POPC   C1A14379   5.071   6.644   8.553
 5908POPC   D2A14380   5.128   6.642   8.253
 5908POPC   C3A14381   5.113   6.691   7.953
 5908POPC   C4A14382   5.052   6.647   7.653
 5908POPC   C1B14383   5.288   6.827   8.553
 5908POPC   C2B14384   5.302   6.870   8.253
 5908POPC   C3B14385   5.259   6.818   7.953
 5908POPC   C4B14386   5.247   6.821   7.653
 5909POPC   NC314387  22.914  40.772   9.453
 5909POPC   PO414388  22.971  40.795   9.153
 5909POPC   GL114389  22.918  40.828   8.853
 5909POPC   GL214390  23.041  40.663   8.853
 5909POPC   C1A14391  22.943  40.740   8.553
 5909POPC   D2A14392  22.985  40.773   8.253
 5909POPC   C3A14393  22.962  40.783   7.953
 5909POPC   C4A14394  22.889  40.748   7.653
 5909POPC   C1B14395  23.116  40.642   8.553
 5909POPC   C2B14396  23.184  40.636   8.253
 5909POPC   C3B14397  23.183  40.621   7.953
 5909POPC   C4B14398  23.131  40.598   7.653
 5910POPC   NC314399  14.370  29.144   9.453
 5910POPC   PO414400  14.388  29.186   9.153
 5910POPC   GL114401  14.395  29.152   8.853
 5910POPC   GL214402  14.425  29.037   8.853
 5910POPC   C1A14403  14.440  29.191   8.553
 5910POPC   D2A14404  14.353  29.186   8.253
 5910POPC   C3A14405  14.415  29.163   7.953
 5910POPC   C4A14406  14.382  29.151   7.653
 5910POPC   C1B14407  14.506  28.904   8.553
 5910POPC   C2B14408  14.484  28.900   8.253
 5910POPC   C3B14409  14.464  28.902   7.953
 5910POPC   C4B14410  14.450  28.875   7.653
 5911POPC   NC314411  30.665  36.905   9.453
 5911POPC   PO414412  30.699  36.918   9.153
 5911POPC   GL114413  30.688  36.866   8.853
 5911POPC   GL214414  30.781  36.816   8.853
 5911POPC   C1A14415  30.740  36.885   8.553
 5911POPC   D2A14416  30.708  36.946   8.253
 5911POPC   C3A14417  30.730  36.936   7.953
 5911POPC   C4A14418  30.730  36.946   7.653
 5911POPC   C1B14419  30.919  36.754   8.553
 5911POPC   C2B14420  30.935  36.778   8.253
 5911POPC   C3B14421  30.947  36.786   7.953
 5911POPC   C4B14422  30.935  36.814   7.653
 5912POPC   NC314423  31.474  24.490   9.453
 5912POPC   PO414424  31.436  24.476   9.153
 5912POPC   GL114425  31.460  24.528   8.853
 5912POPC   GL214426  31.564  24.345   8.853
 5912POPC   C1A14427  31.442  24.521   8.553
 5912POPC   D2A14428  31.490  24.480   8.253
 5912POPC   C3A14429  31.440  24.441   7.953
 5912POPC   C4A14430  31.516  24.499   7.653
 5912POPC   C1B14431  31.603  24.310   8.553
 5912POPC   C2B14432  31.601  24.240   8.253
 5912POPC   C3B14433  31.631  24.245   7.953
 5912POPC   C4B14434  31.568  24.276   7.653
 5913POPC   NC314435   8.230  23.760   9.453
 5913POPC   PO414436   8.230  23.670   9.153
 5913POPC   GL114437   8.149  23.705   8.853
 5913POPC   GL214438   8.208  23.592   8.853
 5913POPC   C1A14439   8.162  23.753   8.553
 5913POPC   D2A14440   8.204  23.743   8.253
 5913POPC   C3A14441   8.174  23.699   7.953
 5913POPC   C4A14442   8.224  23.730   7.653
 5913POPC   C1B14443   8.146  23.478   8.553
 5913POPC   C2B14444   8.084  23.473   8.253
 5913POPC   C3B14445   8.141  23.490   7.953
 5913POPC   C4B14446   8.117  23.460   7.653
 5914POPC   NC314447  42.375  32.236   9.453
 5914POPC   PO414448  42.287  32.249   9.153
 5914POPC   GL114449  42.289  32.229   8.853
 5914POPC   GL214450  42.475  32.331   8.853
 5914POPC   C1A14451  42.341  32.286   8.553
 5914POPC   D2A14452  42.333  32.267   8.253
 5914POPC   C3A14453  42.335  32.289   7.953
 5914POPC   C4A14454  42.296  32.203   7.653
 5914POPC   C1B14455  42.542  32.354   8.553
 5914POPC   C2B14456  42.535  32.317   8.253
 5914POPC   C3B14457  42.582  32.372   7.953
 5914POPC   C4B14458  42.562  32.317   7.653
 5915POPC   NC314459   9.004  34.541   9.453
 5915POPC   PO414460   8.986  34.595   9.153
 5915POPC   GL114461   8.974  34.548   8.853
 5915POPC   GL214462   9.047  34.631   8.853
 5915POPC   C1A14463   8.941  34.587   8.553
 5915POPC   D2A14464   9.003  34.567   8.253
 5915POPC   C3A14465   8.972  34.534   7.953
 5915POPC   C4A14466   9.004  34.604   7.653
 5915POPC   C1B14467   9.204  34.740   8.553
 5915POPC   C2B14468   9.174  34.674   8.253
 5915POPC   C3B14469   9.192  34.701   7.953
 5915POPC   C4B14470   9.194  34.688   7.653
 5916POPC   NC314471   7.385  33.837   9.453
 5916POPC   PO414472   7.416  33.764   9.153
 5916POPC   GL114473   7.388  33.843   8.853
 5916POPC   GL214474   7.522  33.692   8.853
 5916POPC   C1A14475   7.405  33.810   8.553
 5916POPC   D2A14476   7.374  33.789   8.253
 5916POPC   C3A14477   7.414  33.781   7.953
 5916POPC   C4A14478   7.437  33.847   7.653
 5916POPC   C1B14479   7.614  33.665   8.553
 5916POPC   C2B14480   7.637  33.703   8.253
 5916POPC   C3B14481   7.646  33.682   7.953
 5916POPC   C4B14482   7.657  33.717   7.653
 5917POPC   NC314483   9.789  12.812   9.453
 5917POPC   PO414484   9.769  12.863   9.153
 5917POPC   GL114485   9.723  12.817   8.853
 5917POPC   GL214486   9.734  12.699   8.853
 5917POPC   C1A14487   9.761  12.888   8.553
 5917POPC   D2A14488   9.707  12.883   8.253
 5917POPC   C3A14489   9.753  12.847   7.953
 5917POPC   C4A14490   9.785  12.835   7.653
 5917POPC   C1B14491   9.793  12.579   8.553
 5917POPC   C2B14492   9.701  12.627   8.253
 5917POPC   C3B14493   9.761  12.607   7.953
 5917POPC   C4B14494   9.713  12.571   7.653
 5918POPC   NC314495   5.055  36.882   9.453
 5918POPC   PO414496   5.095  36.900   9.153
 5918POPC   GL114497   5.140  36.927   8.853
 5918POPC   GL214498   5.119  37.034   8.853
 5918POPC   C1A14499   5.118  36.873   8.553
 5918POPC   D2A14500   5.114  36.928   8.253
 5918POPC   C3A14501   5.045  36.940   7.953
 5918POPC   C4A14502   5.138  36.896   7.653
 5918POPC   C1B14503   5.054  37.121   8.553
 5918POPC   C2B14504   5.051  37.150   8.253
 5918POPC   C3B14505   5.050  37.199   7.953
 5918POPC   C4B14506   5.099  37.118   7.653
 5919POPC   NC314507   4.326  22.982   9.453
 5919POPC   PO414508   4.344  22.931   9.153
 5919POPC   GL114509   4.344  22.954   8.853
 5919POPC   GL214510   4.241  22.919   8.853
 5919POPC   C1A14511   4.331  22.915   8.553
 5919POPC   D2A14512   4.303  22.957   8.253
 5919POPC   C3A14513   4.316  22.976   7.953
 5919POPC   C4A14514   4.364  22.946   7.653
 5919POPC   C1B14515   4.043  22.891   8.553
 5919POPC   C2B14516   4.062  22.919   8.253
 5919POPC   C3B14517   4.056  22.972   7.953
 5919POPC   C4B14518   4.073  22.969   7.653
 5920POPC   NC314519   0.470  40.786   9.453
 5920POPC   PO414520   0.436  40.794   9.153
 5920POPC   GL114521   0.472  40.822   8.853
 5920POPC   GL214522   0.417  40.645   8.853
 5920POPC   C1A14523   0.440  40.810   8.553
 5920POPC   D2A14524   0.400  40.791   8.253
 5920POPC   C3A14525   0.452  40.764   7.953
 5920POPC   C4A14526   0.453  40.823   7.653
 5920POPC   C1B14527   0.318  40.588   8.553
 5920POPC   C2B14528   0.302  40.587   8.253
 5920POPC   C3B14529   0.320  40.521   7.953
 5920POPC   C4B14530   0.312  40.593   7.653
 5921POPC   NC314531   1.179  25.244   9.453
 5921POPC   PO414532   1.238  25.271   9.153
 5921POPC   GL114533   1.202  25.285   8.853
 5921POPC   GL214534   1.150  25.214   8.853
 5921POPC   C1A14535   1.192  25.315   8.553
 5921POPC   D2A14536   1.250  25.221   8.253
 5921POPC   C3A14537   1.171  25.279   7.953
 5921POPC   C4A14538   1.232  25.257   7.653
 5921POPC   C1B14539   1.050  25.145   8.553
 5921POPC   C2B14540   1.047  25.080   8.253
 5921POPC   C3B14541   0.986  25.162   7.953
 5921POPC   C4B14542   1.021  25.074   7.653
 5922POPC   NC314543  18.308  40.806   9.453
 5922POPC   PO414544  18.306  40.833   9.153
 5922POPC   GL114545  18.324  40.794   8.853
 5922POPC   GL214546  18.164  40.703   8.853
 5922POPC   C1A14547  18.305  40.760   8.553
 5922POPC   D2A14548  18.235  40.761   8.253
 5922POPC   C3A14549  18.254  40.765   7.953
 5922POPC   C4A14550  18.310  40.735   7.653
 5922POPC   C1B14551  18.098  40.588   8.553
 5922POPC   C2B14552  18.168  40.627   8.253
 5922POPC   C3B14553  18.162  40.578   7.953
 5922POPC   C4B14554  18.159  40.556   7.653
 5923POPC   NC314555  18.280   1.188   9.453
 5923POPC   PO414556  18.315   1.217   9.153
 5923POPC   GL114557  18.309   1.179   8.853
 5923POPC   GL214558  18.331   1.303   8.853
 5923POPC   C1A14559  18.267   1.184   8.553
 5923POPC   D2A14560  18.272   1.238   8.253
 5923POPC   C3A14561  18.311   1.211   7.953
 5923POPC   C4A14562  18.237   1.183   7.653
 5923POPC   C1B14563  18.282   1.461   8.553
 5923POPC   C2B14564  18.276   1.498   8.253
 5923POPC   C3B14565  18.267   1.443   7.953
 5923POPC   C4B14566  18.314   1.496   7.653
 5924POPC   NC314567  38.500  43.141   9.453
 5924POPC   PO414568  38.491  43.095   9.153
 5924POPC   GL114569  38.498  43.141   8.853
 5924POPC   GL214570  38.397  43.043   8.853
 5924POPC   C1A14571  38.494  43.119   8.553
 5924POPC   D2A14572  38.477  43.107   8.253
 5924POPC   C3A14573  38.480  43.098   7.953
 5924POPC   C4A14574  38.411  43.125   7.653
 5924POPC   C1B14575  38.298  42.862   8.553
 5924POPC   C2B14576  38.321  42.876   8.253
 5924POPC   C3B14577  38.349  42.873   7.953
 5924POPC   C4B14578  38.356  42.923   7.653
 5925POPC   NC314579  22.202  39.251   9.453
 5925POPC   PO414580  22.128  39.257   9.153
 5925POPC   GL114581  22.208  39.221   8.853
 5925POPC   GL214582  22.204  39.326   8.853
 5925POPC   C1A14583  22.167  39.277   8.553
 5925POPC   D2A14584  22.145  39.246   8.253
 5925POPC   C3A14585  22.170  39.215   7.953
 5925POPC   C4A14586  22.162  39.227   7.653
 5925POPC   C1B14587  22.348  39.405   8.553
 5925POPC   C2B14588  22.300  39.429   8.253
 5925POPC   C3B14589  22.338  39.422   7.953
 5925POPC   C4B14590  22.345  39.361   7.653
 5926POPC   NC314591  29.109   9.762   9.453
 5926POPC   PO414592  29.145   9.765   9.153
 5926POPC   GL114593  29.125   9.700   8.853
 5926POPC   GL214594  29.033   9.819   8.853
 5926POPC   C1A14595  29.100   9.752   8.553
 5926POPC   D2A14596  29.097   9.707   8.253
 5926POPC   C3A14597  29.173   9.768   7.953
 5926POPC   C4A14598  29.182   9.792   7.653
 5926POPC   C1B14599  29.014   9.963   8.553
 5926POPC   C2B14600  28.988   9.920   8.253
 5926POPC   C3B14601  29.044   9.992   7.953
 5926POPC   C4B14602  28.965   9.936   7.653
 5927POPC   NC314603  25.264   9.729   9.453
 5927POPC   PO414604  25.269   9.739   9.153
 5927POPC   GL114605  25.296   9.794   8.853
 5927POPC   GL214606  25.368   9.821   8.853
 5927POPC   C1A14607  25.228   9.712   8.553
 5927POPC   D2A14608  25.292   9.710   8.253
 5927POPC   C3A14609  25.305   9.701   7.953
 5927POPC   C4A14610  25.224   9.779   7.653
 5927POPC   C1B14611  25.420   9.937   8.553
 5927POPC   C2B14612  25.408   9.906   8.253
 5927POPC   C3B14613  25.426   9.932   7.953
 5927POPC   C4B14614  25.422   9.888   7.653
 5928POPC   NC314615  12.875  15.964   9.453
 5928POPC   PO414616  12.807  16.001   9.153
 5928POPC   GL114617  12.841  15.970   8.853
 5928POPC   GL214618  12.802  16.036   8.853
 5928POPC   C1A14619  12.862  15.906   8.553
 5928POPC   D2A14620  12.884  15.918   8.253
 5928POPC   C3A14621  12.814  15.980   7.953
 5928POPC   C4A14622  12.850  15.975   7.653
 5928POPC   C1B14623  12.674  16.144   8.553
 5928POPC   C2B14624  12.705  16.153   8.253
 5928POPC   C3B14625  12.733  16.124   7.953
 5928POPC   C4B14626  12.724  16.166   7.653
 5929POPC   NC314627  31.522  15.147   9.453
 5929POPC   PO414628  31.427  15.175   9.153
 5929POPC   GL114629  31.426  15.163   8.853
 5929POPC   GL214630  31.438  15.287   8.853
 5929POPC   C1A14631  31.445  15.135   8.553
 5929POPC   D2A14632  31.433  15.136   8.253
 5929POPC   C3A14633  31.452  15.210   7.953
 5929POPC   C4A14634  31.482  15.193   7.653
 5929POPC   C1B14635  31.359  15.382   8.553
 5929POPC   C2B14636  31.345  15.393   8.253
 5929POPC   C3B14637  31.287  15.405   7.953
 5929POPC   C4B14638  31.372  15.351   7.653
 5930POPC   NC314639  17.547  43.862   9.453
 5930POPC   PO414640  17.475  43.870   9.153
 5930POPC   GL114641  17.457  43.847   8.853
 5930POPC   GL214642  17.402  43.938   8.853
 5930POPC   C1A14643  17.513  43.935   8.553
 5930POPC   D2A14644  17.511  43.889   8.253
 5930POPC   C3A14645  17.500  43.862   7.953
 5930POPC   C4A14646  17.461  43.905   7.653
 5930POPC   C1B14647  17.296  43.971   8.553
 5930POPC   C2B14648  17.310  43.936   8.253
 5930POPC   C3B14649  17.297  43.981   7.953
 5930POPC   C4B14650  17.293  43.895   7.653
 5931POPC   NC314651  28.405   7.411   9.453
 5931POPC   PO414652  28.398   7.471   9.153
 5931POPC   GL114653  28.360   7.420   8.853
 5931POPC   GL214654  28.291   7.271   8.853
 5931POPC   C1A14655  28.398   7.389   8.553
 5931POPC   D2A14656  28.384   7.384   8.253
 5931POPC   C3A14657  28.379   7.437   7.953
 5931POPC   C4A14658  28.415   7.424   7.653
 5931POPC   C1B14659  28.292   7.240   8.553
 5931POPC   C2B14660  28.250   7.164   8.253
 5931POPC   C3B14661  28.239   7.183   7.953
 5931POPC   C4B14662  28.276   7.240   7.653
 5932POPC   NC314663   8.994  40.772   9.453
 5932POPC   PO414664   8.990  40.771   9.153
 5932POPC   GL114665   8.928  40.781   8.853
 5932POPC   GL214666   9.004  40.690   8.853
 5932POPC   C1A14667   8.949  40.747   8.553
 5932POPC   D2A14668   8.954  40.769   8.253
 5932POPC   C3A14669   8.953  40.733   7.953
 5932POPC   C4A14670   8.977  40.748   7.653
 5932POPC   C1B14671   8.987  40.548   8.553
 5932POPC   C2B14672   8.902  40.567   8.253
 5932POPC   C3B14673   8.904  40.526   7.953
 5932POPC   C4B14674   8.893  40.503   7.653
 5933POPC   NC314675   0.455  19.805   9.453
 5933POPC   PO414676   0.468  19.804   9.153
 5933POPC   GL114677   0.449  19.797   8.853
 5933POPC   GL214678   0.474  20.005   8.853
 5933POPC   C1A14679   0.467  19.874   8.553
 5933POPC   D2A14680   0.392  19.795   8.253
 5933POPC   C3A14681   0.449  19.879   7.953
 5933POPC   C4A14682   0.483  19.788   7.653
 5933POPC   C1B14683   0.455  20.134   8.553
 5933POPC   C2B14684   0.450  20.113   8.253
 5933POPC   C3B14685   0.464  20.122   7.953
 5933POPC   C4B14686   0.426  20.070   7.653
 5934POPC   NC314687  40.760  27.557   9.453
 5934POPC   PO414688  40.759  27.599   9.153
 5934POPC   GL114689  40.816  27.635   8.853
 5934POPC   GL214690  40.795  27.495   8.853
 5934POPC   C1A14691  40.736  27.580   8.553
 5934POPC   D2A14692  40.771  27.556   8.253
 5934POPC   C3A14693  40.788  27.601   7.953
 5934POPC   C4A14694  40.754  27.559   7.653
 5934POPC   C1B14695  40.864  27.322   8.553
 5934POPC   C2B14696  40.878  27.334   8.253
 5934POPC   C3B14697  40.888  27.374   7.953
 5934POPC   C4B14698  40.838  27.332   7.653
 5935POPC   NC314699  38.473  16.695   9.453
 5935POPC   PO414700  38.410  16.742   9.153
 5935POPC   GL114701  38.424  16.691   8.853
 5935POPC   GL214702  38.621  16.727   8.853
 5935POPC   C1A14703  38.411  16.733   8.553
 5935POPC   D2A14704  38.504  16.768   8.253
 5935POPC   C3A14705  38.425  16.772   7.953
 5935POPC   C4A14706  38.422  16.768   7.653
 5935POPC   C1B14707  38.713  16.783   8.553
 5935POPC   C2B14708  38.708  16.830   8.253
 5935POPC   C3B14709  38.720  16.772   7.953
 5935POPC   C4B14710  38.695  16.760   7.653
 5936POPC   NC314711   8.950  28.335   9.453
 5936POPC   PO414712   8.974  28.415   9.153
 5936POPC   GL114713   8.993  28.392   8.853
 5936POPC   GL214714   8.909  28.252   8.853
 5936POPC   C1A14715   8.925  28.399   8.553
 5936POPC   D2A14716   8.977  28.374   8.253
 5936POPC   C3A14717   8.986  28.322   7.953
 5936POPC   C4A14718   9.007  28.360   7.653
 5936POPC   C1B14719   8.919  28.125   8.553
 5936POPC   C2B14720   8.913  28.094   8.253
 5936POPC   C3B14721   8.863  28.141   7.953
 5936POPC   C4B14722   8.837  28.160   7.653
 5937POPC   NC314723  16.771  43.134   9.453
 5937POPC   PO414724  16.688  43.104   9.153
 5937POPC   GL114725  16.690  43.087   8.853
 5937POPC   GL214726  16.833  42.950   8.853
 5937POPC   C1A14727  16.754  43.089   8.553
 5937POPC   D2A14728  16.688  43.084   8.253
 5937POPC   C3A14729  16.764  43.123   7.953
 5937POPC   C4A14730  16.755  43.137   7.653
 5937POPC   C1B14731  16.858  42.912   8.553
 5937POPC   C2B14732  16.828  42.911   8.253
 5937POPC   C3B14733  16.856  42.883   7.953
 5937POPC   C4B14734  16.881  42.925   7.653
 5938POPC   NC314735  26.074  35.347   9.453
 5938POPC   PO414736  26.085  35.343   9.153
 5938POPC   GL114737  26.069  35.372   8.853
 5938POPC   GL214738  26.116  35.364   8.853
 5938POPC   C1A14739  26.048  35.364   8.553
 5938POPC   D2A14740  26.091  35.321   8.253
 5938POPC   C3A14741  26.057  35.383   7.953
 5938POPC   C4A14742  26.055  35.337   7.653
 5938POPC   C1B14743  26.265  35.285   8.553
 5938POPC   C2B14744  26.284  35.335   8.253
 5938POPC   C3B14745  26.267  35.340   7.953
 5938POPC   C4B14746  26.325  35.366   7.653
 5939POPC   NC314747   0.460  33.005   9.453
 5939POPC   PO414748   0.404  33.042   9.153
 5939POPC   GL114749   0.458  33.033   8.853
 5939POPC   GL214750   0.403  33.150   8.853
 5939POPC   C1A14751   0.463  33.028   8.553
 5939POPC   D2A14752   0.430  33.037   8.253
 5939POPC   C3A14753   0.445  33.063   7.953
 5939POPC   C4A14754   0.463  33.040   7.653
 5939POPC   C1B14755   0.267  33.223   8.553
 5939POPC   C2B14756   0.337  33.283   8.253
 5939POPC   C3B14757   0.346  33.237   7.953
 5939POPC   C4B14758   0.260  33.186   7.653
 5940POPC   NC314759  10.564  39.193   9.453
 5940POPC   PO414760  10.537  39.255   9.153
 5940POPC   GL114761  10.514  39.230   8.853
 5940POPC   GL214762  10.559  39.337   8.853
 5940POPC   C1A14763  10.493  39.269   8.553
 5940POPC   D2A14764  10.573  39.261   8.253
 5940POPC   C3A14765  10.573  39.223   7.953
 5940POPC   C4A14766  10.511  39.274   7.653
 5940POPC   C1B14767  10.587  39.488   8.553
 5940POPC   C2B14768  10.584  39.430   8.253
 5940POPC   C3B14769  10.570  39.524   7.953
 5940POPC   C4B14770  10.572  39.522   7.653
 5941POPC   NC314771  22.149  19.795   9.453
 5941POPC   PO414772  22.185  19.884   9.153
 5941POPC   GL114773  22.203  19.803   8.853
 5941POPC   GL214774  22.120  19.790   8.853
 5941POPC   C1A14775  22.137  19.795   8.553
 5941POPC   D2A14776  22.171  19.848   8.253
 5941POPC   C3A14777  22.205  19.841   7.953
 5941POPC   C4A14778  22.151  19.843   7.653
 5941POPC   C1B14779  21.997  19.650   8.553
 5941POPC   C2B14780  21.997  19.646   8.253
 5941POPC   C3B14781  21.988  19.677   7.953
 5941POPC   C4B14782  22.033  19.681   7.653
 5942POPC   NC314783  24.440  43.888   9.453
 5942POPC   PO414784  24.493  43.900   9.153
 5942POPC   GL114785  24.463  43.860   8.853
 5942POPC   GL214786  24.492  44.038   8.853
 5942POPC   C1A14787  24.459  43.908   8.553
 5942POPC   D2A14788  24.456  43.920   8.253
 5942POPC   C3A14789  24.474  43.899   7.953
 5942POPC   C4A14790  24.501  43.901   7.653
 5942POPC   C1B14791  24.540  44.124   8.553
 5942POPC   C2B14792  24.566  44.147   8.253
 5942POPC   C3B14793  24.596  44.107   7.953
 5942POPC   C4B14794  24.569  44.165   7.653
 5943POPC   NC314795  40.028  25.995   9.453
 5943POPC   PO414796  39.974  26.026   9.153
 5943POPC   GL114797  40.047  26.028   8.853
 5943POPC   GL214798  40.088  26.160   8.853
 5943POPC   C1A14799  40.030  25.998   8.553
 5943POPC   D2A14800  40.002  26.082   8.253
 5943POPC   C3A14801  39.992  25.992   7.953
 5943POPC   C4A14802  40.028  26.007   7.653
 5943POPC   C1B14803  40.145  26.178   8.553
 5943POPC   C2B14804  40.139  26.261   8.253
 5943POPC   C3B14805  40.182  26.224   7.953
 5943POPC   C4B14806  40.192  26.208   7.653
 5944POPC   NC314807  26.803  29.896   9.453
 5944POPC   PO414808  26.798  29.893   9.153
 5944POPC   GL114809  26.767  29.964   8.853
 5944POPC   GL214810  26.888  29.870   8.853
 5944POPC   C1A14811  26.832  29.888   8.553
 5944POPC   D2A14812  26.862  29.941   8.253
 5944POPC   C3A14813  26.801  29.880   7.953
 5944POPC   C4A14814  26.817  29.938   7.653
 5944POPC   C1B14815  27.052  29.794   8.553
 5944POPC   C2B14816  26.999  29.804   8.253
 5944POPC   C3B14817  27.017  29.797   7.953
 5944POPC   C4B14818  27.039  29.773   7.653
 5945POPC   NC314819  29.873   8.165   9.453
 5945POPC   PO414820  29.890   8.227   9.153
 5945POPC   GL114821  29.891   8.147   8.853
 5945POPC   GL214822  29.961   8.091   8.853
 5945POPC   C1A14823  29.920   8.154   8.553
 5945POPC   D2A14824  29.927   8.239   8.253
 5945POPC   C3A14825  29.960   8.218   7.953
 5945POPC   C4A14826  29.902   8.226   7.653
 5945POPC   C1B14827  30.096   8.006   8.553
 5945POPC   C2B14828  30.058   8.033   8.253
 5945POPC   C3B14829  30.105   8.025   7.953
 5945POPC   C4B14830  30.097   7.963   7.653
 5946POPC   NC314831   7.380  43.141   9.453
 5946POPC   PO414832   7.404  43.100   9.153
 5946POPC   GL114833   7.421  43.112   8.853
 5946POPC   GL214834   7.322  43.176   8.853
 5946POPC   C1A14835   7.376  43.079   8.553
 5946POPC   D2A14836   7.376  43.119   8.253
 5946POPC   C3A14837   7.403  43.091   7.953
 5946POPC   C4A14838   7.381  43.067   7.653
 5946POPC   C1B14839   7.192  43.283   8.553
 5946POPC   C2B14840   7.229  43.256   8.253
 5946POPC   C3B14841   7.206  43.271   7.953
 5946POPC   C4B14842   7.191  43.228   7.653
 5947POPC   NC314843  34.602  43.112   9.453
 5947POPC   PO414844  34.590  43.144   9.153
 5947POPC   GL114845  34.594  43.151   8.853
 5947POPC   GL214846  34.736  43.145   8.853
 5947POPC   C1A14847  34.596  43.153   8.553
 5947POPC   D2A14848  34.605  43.156   8.253
 5947POPC   C3A14849  34.548  43.076   7.953
 5947POPC   C4A14850  34.622  43.080   7.653
 5947POPC   C1B14851  34.858  43.130   8.553
 5947POPC   C2B14852  34.811  43.091   8.253
 5947POPC   C3B14853  34.823  43.101   7.953
 5947POPC   C4B14854  34.835  43.156   7.653
 5948POPC   NC314855  43.079  21.384   9.453
 5948POPC   PO414856  43.147  21.378   9.153
 5948POPC   GL114857  43.115  21.425   8.853
 5948POPC   GL214858  43.179  21.499   8.853
 5948POPC   C1A14859  43.075  21.385   8.553
 5948POPC   D2A14860  43.157  21.425   8.253
 5948POPC   C3A14861  43.148  21.356   7.953
 5948POPC   C4A14862  43.128  21.390   7.653
 5948POPC   C1B14863  43.160  21.635   8.553
 5948POPC   C2B14864  43.199  21.571   8.253
 5948POPC   C3B14865  43.226  21.570   7.953
 5948POPC   C4B14866  43.197  21.656   7.653
 5949POPC   NC314867  19.076   9.761   9.453
 5949POPC   PO414868  19.033   9.773   9.153
 5949POPC   GL114869  19.030   9.727   8.853
 5949POPC   GL214870  19.213   9.808   8.853
 5949POPC   C1A14871  19.073   9.716   8.553
 5949POPC   D2A14872  19.100   9.737   8.253
 5949POPC   C3A14873  19.054   9.771   7.953
 5949POPC   C4A14874  19.084   9.715   7.653
 5949POPC   C1B14875  19.274   9.774   8.553
 5949POPC   C2B14876  19.305   9.807   8.253
 5949POPC   C3B14877  19.338   9.777   7.953
 5949POPC   C4B14878  19.262   9.798   7.653
 5950POPC   NC314879  33.751   1.984   9.453
 5950POPC   PO414880  33.755   2.015   9.153
 5950POPC   GL114881  33.849   2.035   8.853
 5950POPC   GL214882  33.826   2.150   8.853
 5950POPC   C1A14883  33.792   1.982   8.553
 5950POPC   D2A14884  33.804   2.039   8.253
 5950POPC   C3A14885  33.816   1.975   7.953
 5950POPC   C4A14886  33.787   2.015   7.653
 5950POPC   C1B14887  33.892   2.237   8.553
 5950POPC   C2B14888  33.843   2.277   8.253
 5950POPC   C3B14889  33.877   2.228   7.953
 5950POPC   C4B14890  33.847   2.245   7.653
 5951POPC   NC314891  12.089   3.537   9.453
 5951POPC   PO414892  12.079   3.531   9.153
 5951POPC   GL114893  12.080   3.559   8.853
 5951POPC   GL214894  12.145   3.622   8.853
 5951POPC   C1A14895  12.041   3.547   8.553
 5951POPC   D2A14896  12.113   3.552   8.253
 5951POPC   C3A14897  12.119   3.499   7.953
 5951POPC   C4A14898  12.093   3.538   7.653
 5951POPC   C1B14899  12.331   3.673   8.553
 5951POPC   C2B14900  12.266   3.639   8.253
 5951POPC   C3B14901  12.319   3.653   7.953
 5951POPC   C4B14902  12.344   3.675   7.653
 5952POPC   NC314903  20.635  36.087   9.453
 5952POPC   PO414904  20.565  36.114   9.153
 5952POPC   GL114905  20.606  36.079   8.853
 5952POPC   GL214906  20.749  36.094   8.853
 5952POPC   C1A14907  20.603  36.170   8.553
 5952POPC   D2A14908  20.573  36.166   8.253
 5952POPC   C3A14909  20.586  36.171   7.953
 5952POPC   C4A14910  20.621  36.162   7.653
 5952POPC   C1B14911  20.839  36.036   8.553
 5952POPC   C2B14912  20.771  36.021   8.253
 5952POPC   C3B14913  20.827  36.006   7.953
 5952POPC   C4B14914  20.830  35.973   7.653
 5953POPC   NC314915  33.073  31.439   9.453
 5953POPC   PO414916  33.044  31.426   9.153
 5953POPC   GL114917  33.027  31.501   8.853
 5953POPC   GL214918  32.948  31.489   8.853
 5953POPC   C1A14919  33.001  31.439   8.553
 5953POPC   D2A14920  33.004  31.461   8.253
 5953POPC   C3A14921  33.068  31.461   7.953
 5953POPC   C4A14922  33.071  31.490   7.653
 5953POPC   C1B14923  32.823  31.409   8.553
 5953POPC   C2B14924  32.777  31.414   8.253
 5953POPC   C3B14925  32.770  31.476   7.953
 5953POPC   C4B14926  32.822  31.472   7.653
 5954POPC   NC314927  18.293  21.374   9.453
 5954POPC   PO414928  18.282  21.432   9.153
 5954POPC   GL114929  18.316  21.391   8.853
 5954POPC   GL214930  18.370  21.488   8.853
 5954POPC   C1A14931  18.250  21.338   8.553
 5954POPC   D2A14932  18.285  21.403   8.253
 5954POPC   C3A14933  18.238  21.425   7.953
 5954POPC   C4A14934  18.300  21.349   7.653
 5954POPC   C1B14935  18.458  21.610   8.553
 5954POPC   C2B14936  18.401  21.598   8.253
 5954POPC   C3B14937  18.431  21.616   7.953
 5954POPC   C4B14938  18.465  21.570   7.653
 5955POPC   NC314939  20.597  11.298   9.453
 5955POPC   PO414940  20.625  11.272   9.153
 5955POPC   GL114941  20.577  11.338   8.853
 5955POPC   GL214942  20.721  11.159   8.853
 5955POPC   C1A14943  20.656  11.335   8.553
 5955POPC   D2A14944  20.578  11.303   8.253
 5955POPC   C3A14945  20.599  11.317   7.953
 5955POPC   C4A14946  20.593  11.342   7.653
 5955POPC   C1B14947  20.809  11.074   8.553
 5955POPC   C2B14948  20.735  11.111   8.253
 5955POPC   C3B14949  20.799  11.119   7.953
 5955POPC   C4B14950  20.729  11.128   7.653
 5956POPC   NC314951  36.158  40.024   9.453
 5956POPC   PO414952  36.172  39.966   9.153
 5956POPC   GL114953  36.150  40.046   8.853
 5956POPC   GL214954  35.986  39.985   8.853
 5956POPC   C1A14955  36.135  40.045   8.553
 5956POPC   D2A14956  36.099  39.982   8.253
 5956POPC   C3A14957  36.117  39.977   7.953
 5956POPC   C4A14958  36.103  40.054   7.653
 5956POPC   C1B14959  35.865  40.011   8.553
 5956POPC   C2B14960  35.899  40.022   8.253
 5956POPC   C3B14961  35.905  40.015   7.953
 5956POPC   C4B14962  35.853  40.078   7.653
 5957POPC   NC314963   4.349  28.349   9.453
 5957POPC   PO414964   4.327  28.413   9.153
 5957POPC   GL114965   4.292  28.366   8.853
 5957POPC   GL214966   4.411  28.337   8.853
 5957POPC   C1A14967   4.276  28.376   8.553
 5957POPC   D2A14968   4.271  28.323   8.253
 5957POPC   C3A14969   4.297  28.337   7.953
 5957POPC   C4A14970   4.329  28.392   7.653
 5957POPC   C1B14971   4.543  28.391   8.553
 5957POPC   C2B14972   4.577  28.401   8.253
 5957POPC   C3B14973   4.548  28.344   7.953
 5957POPC   C4B14974   4.610  28.379   7.653
 5958POPC   NC314975  12.874  18.237   9.453
 5958POPC   PO414976  12.891  18.299   9.153
 5958POPC   GL114977  12.854  18.274   8.853
 5958POPC   GL214978  12.705  18.259   8.853
 5958POPC   C1A14979  12.852  18.269   8.553
 5958POPC   D2A14980  12.806  18.266   8.253
 5958POPC   C3A14981  12.836  18.320   7.953
 5958POPC   C4A14982  12.898  18.247   7.653
 5958POPC   C1B14983  12.614  18.256   8.553
 5958POPC   C2B14984  12.635  18.222   8.253
 5958POPC   C3B14985  12.630  18.216   7.953
 5958POPC   C4B14986  12.582  18.273   7.653
 5959POPC   NC314987  29.898  11.340   9.453
 5959POPC   PO414988  29.939  11.333   9.153
 5959POPC   GL114989  29.891  11.260   8.853
 5959POPC   GL214990  30.025  11.189   8.853
 5959POPC   C1A14991  29.919  11.321   8.553
 5959POPC   D2A14992  29.927  11.293   8.253
 5959POPC   C3A14993  29.887  11.342   7.953
 5959POPC   C4A14994  29.966  11.313   7.653
 5959POPC   C1B14995  30.133  11.108   8.553
 5959POPC   C2B14996  30.104  11.102   8.253
 5959POPC   C3B14997  30.063  11.118   7.953
 5959POPC   C4B14998  30.129  11.145   7.653
 5960POPC   NC314999  20.638  32.202   9.453
 5960POPC   PO415000  20.631  32.228   9.153
 5960POPC   GL115001  20.660  32.227   8.853
 5960POPC   GL215002  20.496  32.265   8.853
 5960POPC   C1A15003  20.589  32.260   8.553
 5960POPC   D2A15004  20.660  32.295   8.253
 5960POPC   C3A15005  20.599  32.268   7.953
 5960POPC   C4A15006  20.622  32.223   7.653
 5960POPC   C1B15007  20.409  32.327   8.553
 5960POPC   C2B15008  20.387  32.322   8.253
 5960POPC   C3B15009  20.396  32.378   7.953
 5960POPC   C4B15010  20.346  32.321   7.653
 5961POPC   NC315011  14.426  26.839   9.453
 5961POPC   PO415012  14.396  26.845   9.153
 5961POPC   GL115013  14.369  26.813   8.853
 5961POPC   GL215014  14.329  26.818   8.853
 5961POPC   C1A15015  14.383  26.827   8.553
 5961POPC   D2A15016  14.402  26.847   8.253
 5961POPC   C3A15017  14.427  26.851   7.953
 5961POPC   C4A15018  14.366  26.867   7.653
 5961POPC   C1B15019  14.131  26.724   8.553
 5961POPC   C2B15020  14.186  26.729   8.253
 5961POPC   C3B15021  14.180  26.724   7.953
 5961POPC   C4B15022  14.174  26.817   7.653
 5962POPC   NC315023  36.948   0.462   9.453
 5962POPC   PO415024  36.943   0.396   9.153
 5962POPC   GL115025  36.900   0.430   8.853
 5962POPC   GL215026  37.039   0.330   8.853
 5962POPC   C1A15027  36.929   0.481   8.553
 5962POPC   D2A15028  36.865   0.467   8.253
 5962POPC   C3A15029  36.929   0.400   7.953
 5962POPC   C4A15030  36.867   0.430   7.653
 5962POPC   C1B15031  37.125   0.272   8.553
 5962POPC   C2B15032  37.053   0.231   8.253
 5962POPC   C3B15033  37.088   0.247   7.953
 5962POPC   C4B15034  37.098   0.293   7.653
 5963POPC   NC315035  10.493  34.589   9.453
 5963POPC   PO415036  10.486  34.609   9.153
 5963POPC   GL115037  10.550  34.603   8.853
 5963POPC   GL215038  10.505  34.736   8.853
 5963POPC   C1A15039  10.475  34.533   8.553
 5963POPC   D2A15040  10.537  34.578   8.253
 5963POPC   C3A15041  10.538  34.593   7.953
 5963POPC   C4A15042  10.496  34.580   7.653
 5963POPC   C1B15043  10.611  34.808   8.553
 5963POPC   C2B15044  10.617  34.840   8.253
 5963POPC   C3B15045  10.583  34.779   7.953
 5963POPC   C4B15046  10.602  34.782   7.653
 5964POPC   NC315047  22.963  15.991   9.453
 5964POPC   PO415048  22.955  15.993   9.153
 5964POPC   GL115049  22.920  15.948   8.853
 5964POPC   GL215050  22.962  16.124   8.853
 5964POPC   C1A15051  22.932  15.962   8.553
 5964POPC   D2A15052  22.905  15.931   8.253
 5964POPC   C3A15053  22.888  15.988   7.953
 5964POPC   C4A15054  22.925  15.906   7.653
 5964POPC   C1B15055  23.016  16.251   8.553
 5964POPC   C2B15056  22.983  16.154   8.253
 5964POPC   C3B15057  22.957  16.157   7.953
 5964POPC   C4B15058  22.998  16.184   7.653
 5965POPC   NC315059  44.659  19.827   9.453
 5965POPC   PO415060  44.636  19.844   9.153
 5965POPC   GL115061  44.695  19.881   8.853
 5965POPC   GL215062  44.567  19.938   8.853
 5965POPC   C1A15063  44.673  19.841   8.553
 5965POPC   D2A15064  44.646  19.825   8.253
 5965POPC   C3A15065  44.664  19.826   7.953
 5965POPC   C4A15066  44.675  19.830   7.653
 5965POPC   C1B15067  44.475  19.989   8.553
 5965POPC   C2B15068  44.545  20.045   8.253
 5965POPC   C3B15069  44.496  20.010   7.953
 5965POPC   C4B15070  44.469  19.987   7.653
 5966POPC   NC315071  32.997  11.345   9.453
 5966POPC   PO415072  33.036  11.286   9.153
 5966POPC   GL115073  32.975  11.302   8.853
 5966POPC   GL215074  32.865  11.196   8.853
 5966POPC   C1A15075  33.031  11.324   8.553
 5966POPC   D2A15076  33.071  11.343   8.253
 5966POPC   C3A15077  33.014  11.288   7.953
 5966POPC   C4A15078  32.981  11.314   7.653
 5966POPC   C1B15079  32.768  11.149   8.553
 5966POPC   C2B15080  32.816  11.216   8.253
 5966POPC   C3B15081  32.788  11.130   7.953
 5966POPC   C4B15082  32.758  11.212   7.653
 5967POPC   NC315083  32.259  41.605   9.453
 5967POPC   PO415084  32.243  41.559   9.153
 5967POPC   GL115085  32.249  41.594   8.853
 5967POPC   GL215086  32.257  41.444   8.853
 5967POPC   C1A15087  32.267  41.583   8.553
 5967POPC   D2A15088  32.200  41.598   8.253
 5967POPC   C3A15089  32.240  41.562   7.953
 5967POPC   C4A15090  32.264  41.547   7.653
 5967POPC   C1B15091  32.213  41.265   8.553
 5967POPC   C2B15092  32.226  41.330   8.253
 5967POPC   C3B15093  32.196  41.270   7.953
 5967POPC   C4B15094  32.233  41.321   7.653
 5968POPC   NC315095  13.617  43.149   9.453
 5968POPC   PO415096  13.611  43.114   9.153
 5968POPC   GL115097  13.648  43.095   8.853
 5968POPC   GL215098  13.467  43.078   8.853
 5968POPC   C1A15099  13.588  43.089   8.553
 5968POPC   D2A15100  13.641  43.083   8.253
 5968POPC   C3A15101  13.582  43.067   7.953
 5968POPC   C4A15102  13.585  43.104   7.653
 5968POPC   C1B15103  13.363  43.015   8.553
 5968POPC   C2B15104  13.420  43.092   8.253
 5968POPC   C3B15105  13.416  43.047   7.953
 5968POPC   C4B15106  13.400  43.105   7.653
 5969POPC   NC315107  15.178  12.101   9.453
 5969POPC   PO415108  15.209  12.058   9.153
 5969POPC   GL115109  15.135  12.096   8.853
 5969POPC   GL215110  15.219  12.246   8.853
 5969POPC   C1A15111  15.212  12.108   8.553
 5969POPC   D2A15112  15.158  12.071   8.253
 5969POPC   C3A15113  15.171  12.044   7.953
 5969POPC   C4A15114  15.210  12.117   7.653
 5969POPC   C1B15115  15.147  12.299   8.553
 5969POPC   C2B15116  15.130  12.360   8.253
 5969POPC   C3B15117  15.114  12.276   7.953
 5969POPC   C4B15118  15.142  12.294   7.653
 5970POPC   NC315119   8.995  25.294   9.453
 5970POPC   PO415120   9.011  25.216   9.153
 5970POPC   GL115121   8.962  25.307   8.853
 5970POPC   GL215122   9.013  25.158   8.853
 5970POPC   C1A15123   8.925  25.278   8.553
 5970POPC   D2A15124   8.950  25.314   8.253
 5970POPC   C3A15125   9.016  25.238   7.953
 5970POPC   C4A15126   8.989  25.245   7.653
 5970POPC   C1B15127   9.046  24.996   8.553
 5970POPC   C2B15128   9.096  25.027   8.253
 5970POPC   C3B15129   9.023  25.078   7.953
 5970POPC   C4B15130   9.104  24.990   7.653
 5971POPC   NC315131  43.097  36.121   9.453
 5971POPC   PO415132  43.061  36.151   9.153
 5971POPC   GL115133  43.150  36.093   8.853
 5971POPC   GL215134  43.243  36.171   8.853
 5971POPC   C1A15135  43.072  36.148   8.553
 5971POPC   D2A15136  43.157  36.139   8.253
 5971POPC   C3A15137  43.091  36.116   7.953
 5971POPC   C4A15138  43.093  36.148   7.653
 5971POPC   C1B15139  43.350  36.216   8.553
 5971POPC   C2B15140  43.322  36.267   8.253
 5971POPC   C3B15141  43.363  36.286   7.953
 5971POPC   C4B15142  43.341  36.234   7.653
 5972POPC   NC315143  43.901  25.993   9.453
 5972POPC   PO415144  43.863  26.035   9.153
 5972POPC   GL115145  43.903  26.050   8.853
 5972POPC   GL215146  44.032  26.002   8.853
 5972POPC   C1A15147  43.841  26.031   8.553
 5972POPC   D2A15148  43.852  26.044   8.253
 5972POPC   C3A15149  43.855  26.006   7.953
 5972POPC   C4A15150  43.888  26.087   7.653
 5972POPC   C1B15151  44.153  26.048   8.553
 5972POPC   C2B15152  44.158  26.081   8.253
 5972POPC   C3B15153  44.121  26.064   7.953
 5972POPC   C4B15154  44.092  26.067   7.653
 5973POPC   NC315155  10.568  10.493   9.453
 5973POPC   PO415156  10.573  10.532   9.153
 5973POPC   GL115157  10.527  10.481   8.853
 5973POPC   GL215158  10.419  10.545   8.853
 5973POPC   C1A15159  10.558  10.508   8.553
 5973POPC   D2A15160  10.557  10.483   8.253
 5973POPC   C3A15161  10.536  10.540   7.953
 5973POPC   C4A15162  10.563  10.478   7.653
 5973POPC   C1B15163  10.265  10.561   8.553
 5973POPC   C2B15164  10.287  10.530   8.253
 5973POPC   C3B15165  10.233  10.585   7.953
 5973POPC   C4B15166  10.240  10.543   7.653
 5974POPC   NC315167  12.848  31.506   9.453
 5974POPC   PO415168  12.850  31.423   9.153
 5974POPC   GL115169  12.862  31.504   8.853
 5974POPC   GL215170  13.015  31.484   8.853
 5974POPC   C1A15171  12.830  31.517   8.553
 5974POPC   D2A15172  12.844  31.469   8.253
 5974POPC   C3A15173  12.839  31.471   7.953
 5974POPC   C4A15174  12.851  31.445   7.653
 5974POPC   C1B15175  13.129  31.464   8.553
 5974POPC   C2B15176  13.107  31.405   8.253
 5974POPC   C3B15177  13.125  31.404   7.953
 5974POPC   C4B15178  13.062  31.473   7.653
 5975POPC   NC315179  17.505  28.354   9.453
 5975POPC   PO415180  17.461  28.362   9.153
 5975POPC   GL115181  17.466  28.411   8.853
 5975POPC   GL215182  17.452  28.421   8.853
 5975POPC   C1A15183  17.469  28.383   8.553
 5975POPC   D2A15184  17.504  28.375   8.253
 5975POPC   C3A15185  17.515  28.364   7.953
 5975POPC   C4A15186  17.492  28.374   7.653
 5975POPC   C1B15187  17.336  28.486   8.553
 5975POPC   C2B15188  17.279  28.494   8.253
 5975POPC   C3B15189  17.252  28.469   7.953
 5975POPC   C4B15190  17.337  28.544   7.653
 5976POPC   NC315191   1.227  18.265   9.453
 5976POPC   PO415192   1.213  18.273   9.153
 5976POPC   GL115193   1.173  18.299   8.853
 5976POPC   GL215194   1.168  18.114   8.853
 5976POPC   C1A15195   1.218  18.246   8.553
 5976POPC   D2A15196   1.186  18.299   8.253
 5976POPC   C3A15197   1.260  18.301   7.953
 5976POPC   C4A15198   1.186  18.306   7.653
 5976POPC   C1B15199   1.177  18.045   8.553
 5976POPC   C2B15200   1.135  18.077   8.253
 5976POPC   C3B15201   1.153  18.000   7.953
 5976POPC   C4B15202   1.202  18.032   7.653
 5977POPC   NC315203   4.328  24.524   9.453
 5977POPC   PO415204   4.352  24.446   9.153
 5977POPC   GL115205   4.290  24.458   8.853
 5977POPC   GL215206   4.475  24.470   8.853
 5977POPC   C1A15207   4.306  24.534   8.553
 5977POPC   D2A15208   4.364  24.517   8.253
 5977POPC   C3A15209   4.359  24.532   7.953
 5977POPC   C4A15210   4.353  24.512   7.653
 5977POPC   C1B15211   4.575  24.449   8.553
 5977POPC   C2B15212   4.534  24.420   8.253
 5977POPC   C3B15213   4.531  24.416   7.953
 5977POPC   C4B15214   4.557  24.428   7.653
 5978POPC   NC315215  27.606  18.301   9.453
 5978POPC   PO415216  27.621  18.286   9.153
 5978POPC   GL115217  27.566  18.330   8.853
 5978POPC   GL215218  27.645  18.162   8.853
 5978POPC   C1A15219  27.554  18.309   8.553
 5978POPC   D2A15220  27.586  18.282   8.253
 5978POPC   C3A15221  27.626  18.239   7.953
 5978POPC   C4A15222  27.576  18.251   7.653
 5978POPC   C1B15223  27.740  18.084   8.553
 5978POPC   C2B15224  27.708  18.065   8.253
 5978POPC   C3B15225  27.737  18.097   7.953
 5978POPC   C4B15226  27.749  18.096   7.653
 5979POPC   NC315227  39.984  29.176   9.453
 5979POPC   PO415228  40.032  29.105   9.153
 5979POPC   GL115229  39.971  29.132   8.853
 5979POPC   GL215230  40.066  29.206   8.853
 5979POPC   C1A15231  40.000  29.145   8.553
 5979POPC   D2A15232  39.971  29.128   8.253
 5979POPC   C3A15233  39.968  29.177   7.953
 5979POPC   C4A15234  40.030  29.110   7.653
 5979POPC   C1B15235  40.163  29.273   8.553
 5979POPC   C2B15236  40.179  29.308   8.253
 5979POPC   C3B15237  40.219  29.322   7.953
 5979POPC   C4B15238  40.239  29.332   7.653
 5980POPC   NC315239  16.764  36.952   9.453
 5980POPC   PO415240  16.687  36.870   9.153
 5980POPC   GL115241  16.702  36.893   8.853
 5980POPC   GL215242  16.766  37.008   8.853
 5980POPC   C1A15243  16.776  36.952   8.553
 5980POPC   D2A15244  16.718  36.880   8.253
 5980POPC   C3A15245  16.757  36.939   7.953
 5980POPC   C4A15246  16.754  36.854   7.653
 5980POPC   C1B15247  16.845  37.127   8.553
 5980POPC   C2B15248  16.923  37.131   8.253
 5980POPC   C3B15249  16.925  37.137   7.953
 5980POPC   C4B15250  16.860  37.082   7.653
 5981POPC   NC315251  17.508   2.810   9.453
 5981POPC   PO415252  17.479   2.755   9.153
 5981POPC   GL115253  17.508   2.775   8.853
 5981POPC   GL215254  17.433   2.734   8.853
 5981POPC   C1A15255  17.505   2.739   8.553
 5981POPC   D2A15256  17.461   2.784   8.253
 5981POPC   C3A15257  17.467   2.799   7.953
 5981POPC   C4A15258  17.474   2.806   7.653
 5981POPC   C1B15259  17.292   2.701   8.553
 5981POPC   C2B15260  17.313   2.651   8.253
 5981POPC   C3B15261  17.285   2.665   7.953
 5981POPC   C4B15262  17.216   2.655   7.653
 5982POPC   NC315263  40.031  32.283   9.453
 5982POPC   PO415264  40.012  32.276   9.153
 5982POPC   GL115265  40.022  32.242   8.853
 5982POPC   GL215266  39.915  32.215   8.853
 5982POPC   C1A15267  40.034  32.214   8.553
 5982POPC   D2A15268  39.988  32.278   8.253
 5982POPC   C3A15269  40.028  32.293   7.953
 5982POPC   C4A15270  39.969  32.294   7.653
 5982POPC   C1B15271  39.790  32.152   8.553
 5982POPC   C2B15272  39.750  32.113   8.253
 5982POPC   C3B15273  39.753  32.127   7.953
 5982POPC   C4B15274  39.736  32.197   7.653
 5983POPC   NC315275  39.187  19.826   9.453
 5983POPC   PO415276  39.225  19.803   9.153
 5983POPC   GL115277  39.224  19.848   8.853
 5983POPC   GL215278  39.367  19.757   8.853
 5983POPC   C1A15279  39.241  19.830   8.553
 5983POPC   D2A15280  39.202  19.822   8.253
 5983POPC   C3A15281  39.195  19.809   7.953
 5983POPC   C4A15282  39.221  19.785   7.653
 5983POPC   C1B15283  39.434  19.749   8.553
 5983POPC   C2B15284  39.508  19.731   8.253
 5983POPC   C3B15285  39.459  19.780   7.953
 5983POPC   C4B15286  39.506  19.776   7.653
 5984POPC   NC315287  31.479  25.294   9.453
 5984POPC   PO415288  31.439  25.257   9.153
 5984POPC   GL115289  31.464  25.299   8.853
 5984POPC   GL215290  31.588  25.194   8.853
 5984POPC   C1A15291  31.472  25.262   8.553
 5984POPC   D2A15292  31.507  25.230   8.253
 5984POPC   C3A15293  31.443  25.251   7.953
 5984POPC   C4A15294  31.497  25.297   7.653
 5984POPC   C1B15295  31.650  25.158   8.553
 5984POPC   C2B15296  31.663  25.062   8.253
 5984POPC   C3B15297  31.674  25.147   7.953
 5984POPC   C4B15298  31.669  25.129   7.653
 5985POPC   NC315299  12.901  28.325   9.453
 5985POPC   PO415300  12.862  28.366   9.153
 5985POPC   GL115301  12.807  28.321   8.853
 5985POPC   GL215302  12.835  28.472   8.853
 5985POPC   C1A15303  12.818  28.381   8.553
 5985POPC   D2A15304  12.871  28.415   8.253
 5985POPC   C3A15305  12.812  28.398   7.953
 5985POPC   C4A15306  12.884  28.401   7.653
 5985POPC   C1B15307  12.722  28.536   8.553
 5985POPC   C2B15308  12.762  28.606   8.253
 5985POPC   C3B15309  12.756  28.572   7.953
 5985POPC   C4B15310  12.737  28.558   7.653
 5986POPC   NC315311   4.280  18.234   9.453
 5986POPC   PO415312   4.278  18.312   9.153
 5986POPC   GL115313   4.300  18.290   8.853
 5986POPC   GL215314   4.374  18.138   8.853
 5986POPC   C1A15315   4.317  18.244   8.553
 5986POPC   D2A15316   4.358  18.315   8.253
 5986POPC   C3A15317   4.288  18.323   7.953
 5986POPC   C4A15318   4.297  18.272   7.653
 5986POPC   C1B15319   4.377  18.028   8.553
 5986POPC   C2B15320   4.422  18.092   8.253
 5986POPC   C3B15321   4.449  18.054   7.953
 5986POPC   C4B15322   4.442  18.073   7.653
 5987POPC   NC315323  39.269  26.836   9.453
 5987POPC   PO415324  39.194  26.828   9.153
 5987POPC   GL115325  39.258  26.863   8.853
 5987POPC   GL215326  39.248  26.685   8.853
 5987POPC   C1A15327  39.250  26.846   8.553
 5987POPC   D2A15328  39.244  26.793   8.253
 5987POPC   C3A15329  39.199  26.822   7.953
 5987POPC   C4A15330  39.224  26.831   7.653
 5987POPC   C1B15331  39.288  26.574   8.553
 5987POPC   C2B15332  39.238  26.539   8.253
 5987POPC   C3B15333  39.211  26.565   7.953
 5987POPC   C4B15334  39.252  26.600   7.653
 5988POPC   NC315335   8.168  34.582   9.453
 5988POPC   PO415336   8.209  34.613   9.153
 5988POPC   GL115337   8.191  34.558   8.853
 5988POPC   GL215338   8.278  34.516   8.853
 5988POPC   C1A15339   8.162  34.583   8.553
 5988POPC   D2A15340   8.186  34.556   8.253
 5988POPC   C3A15341   8.212  34.578   7.953
 5988POPC   C4A15342   8.204  34.538   7.653
 5988POPC   C1B15343   8.459  34.420   8.553
 5988POPC   C2B15344   8.429  34.491   8.253
 5988POPC   C3B15345   8.413  34.467   7.953
 5988POPC   C4B15346   8.445  34.447   7.653
 5989POPC   NC315347   9.737  14.432   9.453
 5989POPC   PO415348   9.753  14.444   9.153
 5989POPC   GL115349   9.776  14.425   8.853
 5989POPC   GL215350   9.846  14.373   8.853
 5989POPC   C1A15351   9.768  14.411   8.553
 5989POPC   D2A15352   9.747  14.421   8.253
 5989POPC   C3A15353   9.776  14.447   7.953
 5989POPC   C4A15354   9.791  14.443   7.653
 5989POPC   C1B15355   9.914  14.303   8.553
 5989POPC   C2B15356   9.996  14.272   8.253
 5989POPC   C3B15357   9.941  14.283   7.953
 5989POPC   C4B15358   9.968  14.314   7.653
 5990POPC   NC315359   2.746  40.033   9.453
 5990POPC   PO415360   2.809  39.968   9.153
 5990POPC   GL115361   2.721  40.047   8.853
 5990POPC   GL215362   2.753  39.926   8.853
 5990POPC   C1A15363   2.738  40.006   8.553
 5990POPC   D2A15364   2.777  40.054   8.253
 5990POPC   C3A15365   2.760  40.054   7.953
 5990POPC   C4A15366   2.766  40.008   7.653
 5990POPC   C1B15367   2.819  39.772   8.553
 5990POPC   C2B15368   2.823  39.729   8.253
 5990POPC   C3B15369   2.850  39.783   7.953
 5990POPC   C4B15370   2.777  39.753   7.653
 5991POPC   NC315371  10.524  16.746   9.453
 5991POPC   PO415372  10.528  16.728   9.153
 5991POPC   GL115373  10.494  16.702   8.853
 5991POPC   GL215374  10.514  16.586   8.853
 5991POPC   C1A15375  10.551  16.757   8.553
 5991POPC   D2A15376  10.532  16.696   8.253
 5991POPC   C3A15377  10.517  16.755   7.953
 5991POPC   C4A15378  10.538  16.729   7.653
 5991POPC   C1B15379  10.579  16.483   8.553
 5991POPC   C2B15380  10.563  16.528   8.253
 5991POPC   C3B15381  10.579  16.535   7.953
 5991POPC   C4B15382  10.563  16.496   7.653
 5992POPC   NC315383  25.289  19.861   9.453
 5992POPC   PO415384  25.286  19.856   9.153
 5992POPC   GL115385  25.291  19.845   8.853
 5992POPC   GL215386  25.324  19.902   8.853
 5992POPC   C1A15387  25.309  19.814   8.553
 5992POPC   D2A15388  25.306  19.827   8.253
 5992POPC   C3A15389  25.235  19.858   7.953
 5992POPC   C4A15390  25.248  19.846   7.653
 5992POPC   C1B15391  25.444  19.979   8.553
 5992POPC   C2B15392  25.447  19.985   8.253
 5992POPC   C3B15393  25.461  20.053   7.953
 5992POPC   C4B15394  25.454  19.980   7.653
 5993POPC   NC315395   4.287  39.218   9.453
 5993POPC   PO415396   4.277  39.254   9.153
 5993POPC   GL115397   4.344  39.232   8.853
 5993POPC   GL215398   4.392  39.226   8.853
 5993POPC   C1A15399   4.310  39.203   8.553
 5993POPC   D2A15400   4.299  39.239   8.253
 5993POPC   C3A15401   4.294  39.206   7.953
 5993POPC   C4A15402   4.355  39.214   7.653
 5993POPC   C1B15403   4.531  39.120   8.553
 5993POPC   C2B15404   4.578  39.110   8.253
 5993POPC   C3B15405   4.535  39.168   7.953
 5993POPC   C4B15406   4.525  39.138   7.653
 5994POPC   NC315407   8.221  44.662   9.453
 5994POPC   PO415408   8.169  44.653   9.153
 5994POPC   GL115409   8.235  44.656   8.853
 5994POPC   GL215410   8.266  44.801   8.853
 5994POPC   C1A15411   8.211  44.626   8.553
 5994POPC   D2A15412   8.169  44.659   8.253
 5994POPC   C3A15413   8.220  44.682   7.953
 5994POPC   C4A15414   8.151  44.663   7.653
 5994POPC   C1B15415   8.218  44.901   8.553
 5994POPC   C2B15416   8.260  44.857   8.253
 5994POPC   C3B15417   8.277  44.946   7.953
 5994POPC   C4B15418   8.296  44.943   7.653
 5995POPC   NC315419  26.088  15.945   9.453
 5995POPC   PO415420  25.993  15.991   9.153
 5995POPC   GL115421  26.031  15.925   8.853
 5995POPC   GL215422  26.095  16.083   8.853
 5995POPC   C1A15423  26.055  15.955   8.553
 5995POPC   D2A15424  26.020  15.997   8.253
 5995POPC   C3A15425  26.049  15.969   7.953
 5995POPC   C4A15426  25.999  15.988   7.653
 5995POPC   C1B15427  26.107  16.219   8.553
 5995POPC   C2B15428  26.060  16.160   8.253
 5995POPC   C3B15429  26.106  16.218   7.953
 5995POPC   C4B15430  26.086  16.180   7.653
 5996POPC   NC315431  20.588  39.979   9.453
 5996POPC   PO415432  20.583  40.000   9.153
 5996POPC   GL115433  20.620  40.037   8.853
 5996POPC   GL215434  20.640  40.099   8.853
 5996POPC   C1A15435  20.627  39.987   8.553
 5996POPC   D2A15436  20.596  40.003   8.253
 5996POPC   C3A15437  20.576  39.991   7.953
 5996POPC   C4A15438  20.612  39.981   7.653
 5996POPC   C1B15439  20.699  40.284   8.553
 5996POPC   C2B15440  20.666  40.194   8.253
 5996POPC   C3B15441  20.656  40.219   7.953
 5996POPC   C4B15442  20.730  40.212   7.653
 5997POPC   NC315443  23.666  38.408   9.453
 5997POPC   PO415444  23.706  38.410   9.153
 5997POPC   GL115445  23.695  38.455   8.853
 5997POPC   GL215446  23.787  38.348   8.853
 5997POPC   C1A15447  23.668  38.497   8.553
 5997POPC   D2A15448  23.740  38.481   8.253
 5997POPC   C3A15449  23.707  38.458   7.953
 5997POPC   C4A15450  23.740  38.460   7.653
 5997POPC   C1B15451  23.860  38.217   8.553
 5997POPC   C2B15452  23.824  38.201   8.253
 5997POPC   C3B15453  23.881  38.273   7.953
 5997POPC   C4B15454  23.805  38.279   7.653
 5998POPC   NC315455  17.541  24.459   9.453
 5998POPC   PO415456  17.465  24.482   9.153
 5998POPC   GL115457  17.544  24.452   8.853
 5998POPC   GL215458  17.571  24.387   8.853
 5998POPC   C1A15459  17.473  24.480   8.553
 5998POPC   D2A15460  17.469  24.539   8.253
 5998POPC   C3A15461  17.555  24.520   7.953
 5998POPC   C4A15462  17.481  24.457   7.653
 5998POPC   C1B15463  17.587  24.247   8.553
 5998POPC   C2B15464  17.549  24.205   8.253
 5998POPC   C3B15465  17.553  24.226   7.953
 5998POPC   C4B15466  17.572  24.228   7.653
 5999POPC   NC315467  25.263  16.736   9.453
 5999POPC   PO415468  25.269  16.746   9.153
 5999POPC   GL115469  25.312  16.760   8.853
 5999POPC   GL215470  25.147  16.609   8.853
 5999POPC   C1A15471  25.222  16.778   8.553
 5999POPC   D2A15472  25.301  16.734   8.253
 5999POPC   C3A15473  25.313  16.750   7.953
 5999POPC   C4A15474  25.304  16.744   7.653
 5999POPC   C1B15475  25.170  16.516   8.553
 5999POPC   C2B15476  25.093  16.480   8.253
 5999POPC   C3B15477  25.092  16.552   7.953
 5999POPC   C4B15478  25.138  16.505   7.653
 6000POPC   NC315479   2.805  31.438   9.453
 6000POPC   PO415480   2.811  31.500   9.153
 6000POPC   GL115481   2.785  31.480   8.853
 6000POPC   GL215482   2.792  31.360   8.853
 6000POPC   C1A15483   2.759  31.493   8.553
 6000POPC   D2A15484   2.760  31.440   8.253
 6000POPC   C3A15485   2.778  31.431   7.953
 6000POPC   C4A15486   2.798  31.454   7.653
 6000POPC   C1B15487   2.799  31.176   8.553
 6000POPC   C2B15488   2.793  31.208   8.253
 6000POPC   C3B15489   2.713  31.226   7.953
 6000POPC   C4B15490   2.791  31.203   7.653
 6001POPC   NC315491  36.874  19.871   9.453
 6001POPC   PO415492  36.922  19.796   9.153
 6001POPC   GL115493  36.909  19.811   8.853
 6001POPC   GL215494  36.827  19.805   8.853
 6001POPC   C1A15495  36.918  19.807   8.553
 6001POPC   D2A15496  36.906  19.808   8.253
 6001POPC   C3A15497  36.934  19.853   7.953
 6001POPC   C4A15498  36.871  19.832   7.653
 6001POPC   C1B15499  36.673  19.879   8.553
 6001POPC   C2B15500  36.701  19.891   8.253
 6001POPC   C3B15501  36.619  19.832   7.953
 6001POPC   C4B15502  36.672  19.852   7.653
 6002POPC   NC315503   4.346  39.990   9.453
 6002POPC   PO415504   4.276  40.040   9.153
 6002POPC   GL115505   4.323  40.055   8.853
 6002POPC   GL215506   4.371  39.875   8.853
 6002POPC   C1A15507   4.295  40.025   8.553
 6002POPC   D2A15508   4.309  39.997   8.253
 6002POPC   C3A15509   4.309  39.992   7.953
 6002POPC   C4A15510   4.308  40.002   7.653
 6002POPC   C1B15511   4.314  39.805   8.553
 6002POPC   C2B15512   4.340  39.767   8.253
 6002POPC   C3B15513   4.367  39.764   7.953
 6002POPC   C4B15514   4.345  39.712   7.653
 6003POPC   NC315515  32.230  36.917   9.453
 6003POPC   PO415516  32.272  36.930   9.153
 6003POPC   GL115517  32.231  36.872   8.853
 6003POPC   GL215518  32.126  36.827   8.853
 6003POPC   C1A15519  32.202  36.899   8.553
 6003POPC   D2A15520  32.236  36.900   8.253
 6003POPC   C3A15521  32.286  36.928   7.953
 6003POPC   C4A15522  32.263  36.907   7.653
 6003POPC   C1B15523  32.002  36.828   8.553
 6003POPC   C2B15524  32.019  36.782   8.253
 6003POPC   C3B15525  31.973  36.833   7.953
 6003POPC   C4B15526  31.973  36.836   7.653
 6004POPC   NC315527  37.676  13.647   9.453
 6004POPC   PO415528  37.677  13.641   9.153
 6004POPC   GL115529  37.645  13.630   8.853
 6004POPC   GL215530  37.666  13.547   8.853
 6004POPC   C1A15531  37.679  13.661   8.553
 6004POPC   D2A15532  37.699  13.663   8.253
 6004POPC   C3A15533  37.698  13.612   7.953
 6004POPC   C4A15534  37.635  13.637   7.653
 6004POPC   C1B15535  37.618  13.396   8.553
 6004POPC   C2B15536  37.586  13.425   8.253
 6004POPC   C3B15537  37.606  13.416   7.953
 6004POPC   C4B15538  37.573  13.422   7.653
 6005POPC   NC315539  28.338  34.620   9.453
 6005POPC   PO415540  28.320  34.587   9.153
 6005POPC   GL115541  28.372  34.608   8.853
 6005POPC   GL215542  28.299  34.653   8.853
 6005POPC   C1A15543  28.403  34.538   8.553
 6005POPC   D2A15544  28.408  34.556   8.253
 6005POPC   C3A15545  28.414  34.605   7.953
 6005POPC   C4A15546  28.347  34.553   7.653
 6005POPC   C1B15547  28.225  34.757   8.553
 6005POPC   C2B15548  28.132  34.743   8.253
 6005POPC   C3B15549  28.127  34.709   7.953
 6005POPC   C4B15550  28.222  34.689   7.653
 6006POPC   NC315551  24.507  36.143   9.453
 6006POPC   PO415552  24.457  36.171   9.153
 6006POPC   GL115553  24.462  36.152   8.853
 6006POPC   GL215554  24.473  36.253   8.853
 6006POPC   C1A15555  24.462  36.135   8.553
 6006POPC   D2A15556  24.483  36.161   8.253
 6006POPC   C3A15557  24.511  36.119   7.953
 6006POPC   C4A15558  24.507  36.079   7.653
 6006POPC   C1B15559  24.502  36.357   8.553
 6006POPC   C2B15560  24.577  36.389   8.253
 6006POPC   C3B15561  24.511  36.405   7.953
 6006POPC   C4B15562  24.537  36.362   7.653
 6007POPC   NC315563   9.742  32.229   9.453
 6007POPC   PO415564   9.776  32.228   9.153
 6007POPC   GL115565   9.708  32.297   8.853
 6007POPC   GL215566   9.637  32.273   8.853
 6007POPC   C1A15567   9.737  32.206   8.553
 6007POPC   D2A15568   9.735  32.282   8.253
 6007POPC   C3A15569   9.778  32.259   7.953
 6007POPC   C4A15570   9.738  32.210   7.653
 6007POPC   C1B15571   9.546  32.418   8.553
 6007POPC   C2B15572   9.570  32.409   8.253
 6007POPC   C3B15573   9.494  32.350   7.953
 6007POPC   C4B15574   9.585  32.397   7.653
 6008POPC   NC315575  15.929   4.275   9.453
 6008POPC   PO415576  15.949   4.269   9.153
 6008POPC   GL115577  15.977   4.282   8.853
 6008POPC   GL215578  15.808   4.327   8.853
 6008POPC   C1A15579  15.988   4.348   8.553
 6008POPC   D2A15580  15.915   4.282   8.253
 6008POPC   C3A15581  15.918   4.349   7.953
 6008POPC   C4A15582  15.983   4.346   7.653
 6008POPC   C1B15583  15.755   4.347   8.553
 6008POPC   C2B15584  15.664   4.269   8.253
 6008POPC   C3B15585  15.731   4.314   7.953
 6008POPC   C4B15586  15.688   4.300   7.653
 6009POPC   NC315587   0.481  26.015   9.453
 6009POPC   PO415588   0.424  26.009   9.153
 6009POPC   GL115589   0.469  26.071   8.853
 6009POPC   GL215590   0.473  25.966   8.853
 6009POPC   C1A15591   0.421  26.046   8.553
 6009POPC   D2A15592   0.437  26.021   8.253
 6009POPC   C3A15593   0.459  26.076   7.953
 6009POPC   C4A15594   0.423  26.036   7.653
 6009POPC   C1B15595   0.455  25.822   8.553
 6009POPC   C2B15596   0.506  25.781   8.253
 6009POPC   C3B15597   0.528  25.768   7.953
 6009POPC   C4B15598   0.476  25.749   7.653
 6010POPC   NC315599  21.384  18.245   9.453
 6010POPC   PO415600  21.430  18.289   9.153
 6010POPC   GL115601  21.421  18.312   8.853
 6010POPC   GL215602  21.261  18.275   8.853
 6010POPC   C1A15603  21.365  18.305   8.553
 6010POPC   D2A15604  21.420  18.314   8.253
 6010POPC   C3A15605  21.383  18.322   7.953
 6010POPC   C4A15606  21.367  18.281   7.653
 6010POPC   C1B15607  21.102  18.167   8.553
 6010POPC   C2B15608  21.182  18.219   8.253
 6010POPC   C3B15609  21.172  18.183   7.953
 6010POPC   C4B15610  21.115  18.185   7.653
 6011POPC   NC315611   3.575  26.014   9.453
 6011POPC   PO415612   3.524  26.061   9.153
 6011POPC   GL115613   3.519  26.043   8.853
 6011POPC   GL215614   3.474  26.117   8.853
 6011POPC   C1A15615   3.562  26.020   8.553
 6011POPC   D2A15616   3.587  26.082   8.253
 6011POPC   C3A15617   3.574  26.014   7.953
 6011POPC   C4A15618   3.502  26.046   7.653
 6011POPC   C1B15619   3.467  26.250   8.553
 6011POPC   C2B15620   3.444  26.308   8.253
 6011POPC   C3B15621   3.486  26.235   7.953
 6011POPC   C4B15622   3.470  26.234   7.653
 6012POPC   NC315623  39.978  39.960   9.453
 6012POPC   PO415624  39.985  40.010   9.153
 6012POPC   GL115625  40.011  39.967   8.853
 6012POPC   GL215626  39.866  40.019   8.853
 6012POPC   C1A15627  40.036  40.057   8.553
 6012POPC   D2A15628  40.000  40.033   8.253
 6012POPC   C3A15629  40.036  39.998   7.953
 6012POPC   C4A15630  40.023  39.974   7.653
 6012POPC   C1B15631  39.781  40.066   8.553
 6012POPC   C2B15632  39.744  40.063   8.253
 6012POPC   C3B15633  39.806  40.094   7.953
 6012POPC   C4B15634  39.792  40.023   7.653
 6013POPC   NC315635   9.703  11.345   9.453
 6013POPC   PO415636   9.754  11.347   9.153
 6013POPC   GL115637   9.722  11.321   8.853
 6013POPC   GL215638   9.626  11.264   8.853
 6013POPC   C1A15639   9.721  11.297   8.553
 6013POPC   D2A15640   9.788  11.343   8.253
 6013POPC   C3A15641   9.772  11.275   7.953
 6013POPC   C4A15642   9.787  11.336   7.653
 6013POPC   C1B15643   9.560  11.206   8.553
 6013POPC   C2B15644   9.520  11.175   8.253
 6013POPC   C3B15645   9.533  11.189   7.953
 6013POPC   C4B15646   9.580  11.145   7.653
 6014POPC   NC315647  22.122  40.782   9.453
 6014POPC   PO415648  22.163  40.754   9.153
 6014POPC   GL115649  22.147  40.746   8.853
 6014POPC   GL215650  22.291  40.844   8.853
 6014POPC   C1A15651  22.146  40.801   8.553
 6014POPC   D2A15652  22.199  40.801   8.253
 6014POPC   C3A15653  22.177  40.775   7.953
 6014POPC   C4A15654  22.191  40.818   7.653
 6014POPC   C1B15655  22.405  40.884   8.553
 6014POPC   C2B15656  22.392  40.860   8.253
 6014POPC   C3B15657  22.428  40.862   7.953
 6014POPC   C4B15658  22.379  40.864   7.653
 6015POPC   NC315659   6.662  25.276   9.453
 6015POPC   PO415660   6.688  25.240   9.153
 6015POPC   GL115661   6.654  25.218   8.853
 6015POPC   GL215662   6.483  25.261   8.853
 6015POPC   C1A15663   6.675  25.259   8.553
 6015POPC   D2A15664   6.658  25.268   8.253
 6015POPC   C3A15665   6.623  25.280   7.953
 6015POPC   C4A15666   6.615  25.250   7.653
 6015POPC   C1B15667   6.417  25.296   8.553
 6015POPC   C2B15668   6.355  25.314   8.253
 6015POPC   C3B15669   6.386  25.369   7.953
 6015POPC   C4B15670   6.414  25.363   7.653
 6016POPC   NC315671   5.090  26.797   9.453
 6016POPC   PO415672   5.069  26.794   9.153
 6016POPC   GL115673   5.120  26.811   8.853
 6016POPC   GL215674   5.126  26.948   8.853
 6016POPC   C1A15675   5.091  26.855   8.553
 6016POPC   D2A15676   5.063  26.828   8.253
 6016POPC   C3A15677   5.112  26.782   7.953
 6016POPC   C4A15678   5.079  26.851   7.653
 6016POPC   C1B15679   5.133  27.033   8.553
 6016POPC   C2B15680   5.210  27.043   8.253
 6016POPC   C3B15681   5.216  27.086   7.953
 6016POPC   C4B15682   5.168  27.060   7.653
 6017POPC   NC315683   6.660  14.394   9.453
 6017POPC   PO415684   6.630  14.386   9.153
 6017POPC   GL115685   6.646  14.375   8.853
 6017POPC   GL215686   6.551  14.469   8.853
 6017POPC   C1A15687   6.692  14.451   8.553
 6017POPC   D2A15688   6.612  14.430   8.253
 6017POPC   C3A15689   6.625  14.378   7.953
 6017POPC   C4A15690   6.595  14.366   7.653
 6017POPC   C1B15691   6.502  14.536   8.553
 6017POPC   C2B15692   6.489  14.565   8.253
 6017POPC   C3B15693   6.439  14.590   7.953
 6017POPC   C4B15694   6.434  14.596   7.653
 6018POPC   NC315695   1.218  28.341   9.453
 6018POPC   PO415696   1.211  28.395   9.153
 6018POPC   GL115697   1.258  28.367   8.853
 6018POPC   GL215698   1.102  28.359   8.853
 6018POPC   C1A15699   1.254  28.385   8.553
 6018POPC   D2A15700   1.203  28.383   8.253
 6018POPC   C3A15701   1.180  28.335   7.953
 6018POPC   C4A15702   1.233  28.355   7.653
 6018POPC   C1B15703   1.000  28.337   8.553
 6018POPC   C2B15704   0.937  28.312   8.253
 6018POPC   C3B15705   1.001  28.293   7.953
 6018POPC   C4B15706   0.950  28.322   7.653
 6019POPC   NC315707  10.499  32.293   9.453
 6019POPC   PO415708  10.549  32.211   9.153
 6019POPC   GL115709  10.555  32.259   8.853
 6019POPC   GL215710  10.596  32.406   8.853
 6019POPC   C1A15711  10.529  32.212   8.553
 6019POPC   D2A15712  10.546  32.244   8.253
 6019POPC   C3A15713  10.497  32.205   7.953
 6019POPC   C4A15714  10.520  32.290   7.653
 6019POPC   C1B15715  10.622  32.454   8.553
 6019POPC   C2B15716  10.548  32.493   8.253
 6019POPC   C3B15717  10.626  32.496   7.953
 6019POPC   C4B15718  10.544  32.477   7.653
 6020POPC   NC315719  35.368  40.043   9.453
 6020POPC   PO415720  35.392  39.979   9.153
 6020POPC   GL115721  35.361  40.042   8.853
 6020POPC   GL215722  35.462  40.008   8.853
 6020POPC   C1A15723  35.384  40.009   8.553
 6020POPC   D2A15724  35.371  39.993   8.253
 6020POPC   C3A15725  35.386  39.997   7.953
 6020POPC   C4A15726  35.368  39.962   7.653
 6020POPC   C1B15727  35.586  39.961   8.553
 6020POPC   C2B15728  35.572  40.043   8.253
 6020POPC   C3B15729  35.579  39.961   7.953
 6020POPC   C4B15730  35.605  39.959   7.653
 6021POPC   NC315731  43.064  43.919   9.453
 6021POPC   PO415732  43.086  43.876   9.153
 6021POPC   GL115733  43.144  43.859   8.853
 6021POPC   GL215734  43.022  43.865   8.853
 6021POPC   C1A15735  43.123  43.905   8.553
 6021POPC   D2A15736  43.156  43.866   8.253
 6021POPC   C3A15737  43.075  43.908   7.953
 6021POPC   C4A15738  43.131  43.892   7.653
 6021POPC   C1B15739  42.825  43.872   8.553
 6021POPC   C2B15740  42.862  43.881   8.253
 6021POPC   C3B15741  42.831  43.857   7.953
 6021POPC   C4B15742  42.874  43.836   7.653
 6022POPC   NC315743  16.683  42.314   9.453
 6022POPC   PO415744  16.717  42.306   9.153
 6022POPC   GL115745  16.689  42.346   8.853
 6022POPC   GL215746  16.842  42.270   8.853
 6022POPC   C1A15747  16.686  42.359   8.553
 6022POPC   D2A15748  16.695  42.329   8.253
 6022POPC   C3A15749  16.739  42.309   7.953
 6022POPC   C4A15750  16.698  42.319   7.653
 6022POPC   C1B15751  16.936  42.236   8.553
 6022POPC   C2B15752  16.942  42.226   8.253
 6022POPC   C3B15753  16.935  42.210   7.953
 6022POPC   C4B15754  16.930  42.244   7.653
 6023POPC   NC315755  36.155  18.301   9.453
 6023POPC   PO415756  36.124  18.237   9.153
 6023POPC   GL115757  36.094  18.267   8.853
 6023POPC   GL215758  36.208  18.151   8.853
 6023POPC   C1A15759  36.093  18.239   8.553
 6023POPC   D2A15760  36.107  18.238   8.253
 6023POPC   C3A15761  36.095  18.243   7.953
 6023POPC   C4A15762  36.128  18.262   7.653
 6023POPC   C1B15763  36.285  18.142   8.553
 6023POPC   C2B15764  36.243  18.080   8.253
 6023POPC   C3B15765  36.320  18.130   7.953
 6023POPC   C4B15766  36.286  18.050   7.653
 6024POPC   NC315767   1.211  36.936   9.453
 6024POPC   PO415768   1.253  36.951   9.153
 6024POPC   GL115769   1.252  36.911   8.853
 6024POPC   GL215770   1.122  37.014   8.853
 6024POPC   C1A15771   1.257  36.857   8.553
 6024POPC   D2A15772   1.184  36.941   8.253
 6024POPC   C3A15773   1.205  36.941   7.953
 6024POPC   C4A15774   1.236  36.904   7.653
 6024POPC   C1B15775   1.040  37.086   8.553
 6024POPC   C2B15776   1.047  37.057   8.253
 6024POPC   C3B15777   0.985  37.075   7.953
 6024POPC   C4B15778   1.017  37.080   7.653
 6025POPC   NC315779  18.283  10.518   9.453
 6025POPC   PO415780  18.307  10.490   9.153
 6025POPC   GL115781  18.305  10.558   8.853
 6025POPC   GL215782  18.314  10.451   8.853
 6025POPC   C1A15783  18.270  10.492   8.553
 6025POPC   D2A15784  18.287  10.568   8.253
 6025POPC   C3A15785  18.260  10.554   7.953
 6025POPC   C4A15786  18.291  10.532   7.653
 6025POPC   C1B15787  18.395  10.334   8.553
 6025POPC   C2B15788  18.378  10.266   8.253
 6025POPC   C3B15789  18.347  10.330   7.953
 6025POPC   C4B15790  18.350  10.276   7.653
 6026POPC   NC315791   7.377  19.882   9.453
 6026POPC   PO415792   7.421  19.822   9.153
 6026POPC   GL115793   7.433  19.795   8.853
 6026POPC   GL215794   7.523  19.767   8.853
 6026POPC   C1A15795   7.372  19.835   8.553
 6026POPC   D2A15796   7.426  19.817   8.253
 6026POPC   C3A15797   7.397  19.860   7.953
 6026POPC   C4A15798   7.447  19.790   7.653
 6026POPC   C1B15799   7.612  19.700   8.553
 6026POPC   C2B15800   7.632  19.723   8.253
 6026POPC   C3B15801   7.637  19.768   7.953
 6026POPC   C4B15802   7.660  19.712   7.653
 6027POPC   NC315803  14.371  22.131   9.453
 6027POPC   PO415804  14.377  22.164   9.153
 6027POPC   GL115805  14.423  22.122   8.853
 6027POPC   GL215806  14.568  22.105   8.853
 6027POPC   C1A15807  14.401  22.162   8.553
 6027POPC   D2A15808  14.451  22.193   8.253
 6027POPC   C3A15809  14.365  22.190   7.953
 6027POPC   C4A15810  14.417  22.204   7.653
 6027POPC   C1B15811  14.642  22.049   8.553
 6027POPC   C2B15812  14.624  22.044   8.253
 6027POPC   C3B15813  14.605  22.054   7.953
 6027POPC   C4B15814  14.609  22.051   7.653
 6028POPC   NC315815  11.273  30.720   9.453
 6028POPC   PO415816  11.321  30.708   9.153
 6028POPC   GL115817  11.305  30.704   8.853
 6028POPC   GL215818  11.324  30.606   8.853
 6028POPC   C1A15819  11.299  30.671   8.553
 6028POPC   D2A15820  11.346  30.682   8.253
 6028POPC   C3A15821  11.252  30.681   7.953
 6028POPC   C4A15822  11.257  30.745   7.653
 6028POPC   C1B15823  11.396  30.538   8.553
 6028POPC   C2B15824  11.476  30.468   8.253
 6028POPC   C3B15825  11.473  30.518   7.953
 6028POPC   C4B15826  11.398  30.534   7.653
 6029POPC   NC315827  32.261  28.336   9.453
 6029POPC   PO415828  32.201  28.326   9.153
 6029POPC   GL115829  32.271  28.396   8.853
 6029POPC   GL215830  32.315  28.231   8.853
 6029POPC   C1A15831  32.290  28.338   8.553
 6029POPC   D2A15832  32.232  28.364   8.253
 6029POPC   C3A15833  32.271  28.323   7.953
 6029POPC   C4A15834  32.258  28.328   7.653
 6029POPC   C1B15835  32.295  28.110   8.553
 6029POPC   C2B15836  32.306  28.171   8.253
 6029POPC   C3B15837  32.357  28.084   7.953
 6029POPC   C4B15838  32.367  28.149   7.653
 6030POPC   NC315839  36.123  35.390   9.453
 6030POPC   PO415840  36.145  35.366   9.153
 6030POPC   GL115841  36.100  35.358   8.853
 6030POPC   GL215842  36.194  35.201   8.853
 6030POPC   C1A15843  36.097  35.390   8.553
 6030POPC   D2A15844  36.085  35.308   8.253
 6030POPC   C3A15845  36.147  35.311   7.953
 6030POPC   C4A15846  36.161  35.312   7.653
 6030POPC   C1B15847  36.241  35.091   8.553
 6030POPC   C2B15848  36.212  35.153   8.253
 6030POPC   C3B15849  36.232  35.110   7.953
 6030POPC   C4B15850  36.248  35.093   7.653
 6031POPC   NC315851   5.865  16.695   9.453
 6031POPC   PO415852   5.909  16.776   9.153
 6031POPC   GL115853   5.887  16.693   8.853
 6031POPC   GL215854   5.971  16.648   8.853
 6031POPC   C1A15855   5.851  16.737   8.553
 6031POPC   D2A15856   5.892  16.766   8.253
 6031POPC   C3A15857   5.907  16.693   7.953
 6031POPC   C4A15858   5.910  16.707   7.653
 6031POPC   C1B15859   6.026  16.527   8.553
 6031POPC   C2B15860   5.996  16.495   8.253
 6031POPC   C3B15861   5.972  16.502   7.953
 6031POPC   C4B15862   6.060  16.558   7.653
 6032POPC   NC315863  43.087  37.698   9.453
 6032POPC   PO415864  43.142  37.711   9.153
 6032POPC   GL115865  43.062  37.713   8.853
 6032POPC   GL215866  43.145  37.528   8.853
 6032POPC   C1A15867  43.139  37.665   8.553
 6032POPC   D2A15868  43.114  37.693   8.253
 6032POPC   C3A15869  43.109  37.654   7.953
 6032POPC   C4A15870  43.062  37.681   7.653
 6032POPC   C1B15871  43.252  37.430   8.553
 6032POPC   C2B15872  43.244  37.494   8.253
 6032POPC   C3B15873  43.239  37.462   7.953
 6032POPC   C4B15874  43.231  37.469   7.653
 6033POPC   NC315875  26.055  22.906   9.453
 6033POPC   PO415876  26.041  22.928   9.153
 6033POPC   GL115877  26.073  22.953   8.853
 6033POPC   GL215878  25.953  22.789   8.853
 6033POPC   C1A15879  26.074  22.896   8.553
 6033POPC   D2A15880  26.002  22.915   8.253
 6033POPC   C3A15881  26.028  22.922   7.953
 6033POPC   C4A15882  26.073  22.964   7.653
 6033POPC   C1B15883  25.933  22.741   8.553
 6033POPC   C2B15884  25.869  22.734   8.253
 6033POPC   C3B15885  25.960  22.721   7.953
 6033POPC   C4B15886  25.925  22.699   7.653
 6034POPC   NC315887  42.288  22.960   9.453
 6034POPC   PO415888  42.316  22.954   9.153
 6034POPC   GL115889  42.359  22.919   8.853
 6034POPC   GL215890  42.378  22.823   8.853
 6034POPC   C1A15891  42.330  22.955   8.553
 6034POPC   D2A15892  42.373  22.962   8.253
 6034POPC   C3A15893  42.358  22.980   7.953
 6034POPC   C4A15894  42.309  22.895   7.653
 6034POPC   C1B15895  42.418  22.682   8.553
 6034POPC   C2B15896  42.512  22.693   8.253
 6034POPC   C3B15897  42.482  22.758   7.953
 6034POPC   C4B15898  42.433  22.741   7.653
 6035POPC   NC315899  43.839   1.944   9.453
 6035POPC   PO415900  43.889   1.972   9.153
 6035POPC   GL115901  43.872   1.995   8.853
 6035POPC   GL215902  44.027   2.023   8.853
 6035POPC   C1A15903  43.929   1.996   8.553
 6035POPC   D2A15904  43.926   2.034   8.253
 6035POPC   C3A15905  43.932   1.953   7.953
 6035POPC   C4A15906  43.851   2.020   7.653
 6035POPC   C1B15907  44.097   1.973   8.553
 6035POPC   C2B15908  44.100   1.983   8.253
 6035POPC   C3B15909  44.178   1.993   7.953
 6035POPC   C4B15910  44.154   1.984   7.653
 6036POPC   NC315911  43.109  29.952   9.453
 6036POPC   PO415912  43.103  29.967   9.153
 6036POPC   GL115913  43.068  29.962   8.853
 6036POPC   GL215914  43.203  29.925   8.853
 6036POPC   C1A15915  43.106  29.914   8.553
 6036POPC   D2A15916  43.159  29.922   8.253
 6036POPC   C3A15917  43.111  29.966   7.953
 6036POPC   C4A15918  43.069  29.950   7.653
 6036POPC   C1B15919  43.396  29.963   8.553
 6036POPC   C2B15920  43.389  29.973   8.253
 6036POPC   C3B15921  43.367  30.036   7.953
 6036POPC   C4B15922  43.318  29.959   7.653
 6037POPC   NC315923   2.789  33.785   9.453
 6037POPC   PO415924   2.800  33.761   9.153
 6037POPC   GL115925   2.808  33.821   8.853
 6037POPC   GL215926   2.844  33.696   8.853
 6037POPC   C1A15927   2.743  33.760   8.553
 6037POPC   D2A15928   2.790  33.763   8.253
 6037POPC   C3A15929   2.787  33.842   7.953
 6037POPC   C4A15930   2.736  33.820   7.653
 6037POPC   C1B15931   2.917  33.639   8.553
 6037POPC   C2B15932   2.934  33.677   8.253
 6037POPC   C3B15933   2.975  33.600   7.953
 6037POPC   C4B15934   3.010  33.676   7.653
 6038POPC   NC315935  10.557  31.487   9.453
 6038POPC   PO415936  10.490  31.490   9.153
 6038POPC   GL115937  10.566  31.464   8.853
 6038POPC   GL215938  10.453  31.609   8.853
 6038POPC   C1A15939  10.493  31.455   8.553
 6038POPC   D2A15940  10.496  31.430   8.253
 6038POPC   C3A15941  10.514  31.502   7.953
 6038POPC   C4A15942  10.524  31.428   7.653
 6038POPC   C1B15943  10.442  31.732   8.553
 6038POPC   C2B15944  10.430  31.690   8.253
 6038POPC   C3B15945  10.443  31.737   7.953
 6038POPC   C4B15946  10.386  31.641   7.653
 6039POPC   NC315947   5.895  26.829   9.453
 6039POPC   PO415948   5.820  26.776   9.153
 6039POPC   GL115949   5.897  26.798   8.853
 6039POPC   GL215950   5.807  26.876   8.853
 6039POPC   C1A15951   5.851  26.796   8.553
 6039POPC   D2A15952   5.889  26.847   8.253
 6039POPC   C3A15953   5.832  26.784   7.953
 6039POPC   C4A15954   5.893  26.803   7.653
 6039POPC   C1B15955   5.671  26.979   8.553
 6039POPC   C2B15956   5.632  26.957   8.253
 6039POPC   C3B15957   5.671  27.026   7.953
 6039POPC   C4B15958   5.699  26.966   7.653
 6040POPC   NC315959   2.006   7.389   9.453
 6040POPC   PO415960   1.971   7.436   9.153
 6040POPC   GL115961   2.011   7.442   8.853
 6040POPC   GL215962   2.016   7.333   8.853
 6040POPC   C1A15963   2.014   7.399   8.553
 6040POPC   D2A15964   2.020   7.398   8.253
 6040POPC   C3A15965   1.971   7.450   7.953
 6040POPC   C4A15966   2.014   7.427   7.653
 6040POPC   C1B15967   1.964   7.158   8.553
 6040POPC   C2B15968   1.929   7.188   8.253
 6040POPC   C3B15969   1.957   7.189   7.953
 6040POPC   C4B15970   1.925   7.164   7.653
 6041POPC   NC315971  32.243  12.858   9.453
 6041POPC   PO415972  32.232  12.806   9.153
 6041POPC   GL115973  32.220  12.898   8.853
 6041POPC   GL215974  32.269  12.700   8.853
 6041POPC   C1A15975  32.253  12.886   8.553
 6041POPC   D2A15976  32.212  12.866   8.253
 6041POPC   C3A15977  32.262  12.858   7.953
 6041POPC   C4A15978  32.297  12.841   7.653
 6041POPC   C1B15979  32.165  12.642   8.553
 6041POPC   C2B15980  32.178  12.603   8.253
 6041POPC   C3B15981  32.156  12.635   7.953
 6041POPC   C4B15982  32.207  12.563   7.653
 6042POPC   NC315983  13.617  43.899   9.453
 6042POPC   PO415984  13.638  43.854   9.153
 6042POPC   GL115985  13.646  43.918   8.853
 6042POPC   GL215986  13.771  43.844   8.853
 6042POPC   C1A15987  13.604  43.913   8.553
 6042POPC   D2A15988  13.659  43.906   8.253
 6042POPC   C3A15989  13.580  43.875   7.953
 6042POPC   C4A15990  13.591  43.928   7.653
 6042POPC   C1B15991  13.880  43.854   8.553
 6042POPC   C2B15992  13.914  43.891   8.253
 6042POPC   C3B15993  13.887  43.895   7.953
 6042POPC   C4B15994  13.891  43.907   7.653
 6043POPC   NC315995  43.864  26.851   9.453
 6043POPC   PO415996  43.859  26.862   9.153
 6043POPC   GL115997  43.862  26.825   8.853
 6043POPC   GL215998  43.839  26.936   8.853
 6043POPC   C1A15999  43.910  26.781   8.553
 6043POPC   D2A16000  43.884  26.839   8.253
 6043POPC   C3A16001  43.921  26.792   7.953
 6043POPC   C4A16002  43.881  26.787   7.653
 6043POPC   C1B16003  43.864  27.099   8.553
 6043POPC   C2B16004  43.855  27.019   8.253
 6043POPC   C3B16005  43.869  27.104   7.953
 6043POPC   C4B16006  43.818  27.080   7.653
 6044POPC   NC316007  26.863  32.292   9.453
 6044POPC   PO416008  26.866  32.232   9.153
 6044POPC   GL116009  26.778  32.284   8.853
 6044POPC   GL216010  26.869  32.302   8.853
 6044POPC   C1A16011  26.807  32.227   8.553
 6044POPC   D2A16012  26.861  32.233   8.253
 6044POPC   C3A16013  26.819  32.245   7.953
 6044POPC   C4A16014  26.780  32.226   7.653
 6044POPC   C1B16015  27.006  32.400   8.553
 6044POPC   C2B16016  26.949  32.472   8.253
 6044POPC   C3B16017  27.037  32.422   7.953
 6044POPC   C4B16018  26.958  32.391   7.653
 6045POPC   NC316019  29.925  25.254   9.453
 6045POPC   PO416020  29.922  25.288   9.153
 6045POPC   GL116021  29.916  25.217   8.853
 6045POPC   GL216022  29.998  25.239   8.853
 6045POPC   C1A16023  29.917  25.278   8.553
 6045POPC   D2A16024  29.924  25.302   8.253
 6045POPC   C3A16025  29.905  25.309   7.953
 6045POPC   C4A16026  29.888  25.227   7.653
 6045POPC   C1B16027  30.184  25.233   8.553
 6045POPC   C2B16028  30.171  25.261   8.253
 6045POPC   C3B16029  30.177  25.307   7.953
 6045POPC   C4B16030  30.176  25.281   7.653
 6046POPC   NC316031   9.013  26.062   9.453
 6046POPC   PO416032   8.944  26.075   9.153
 6046POPC   GL116033   8.941  26.036   8.853
 6046POPC   GL216034   9.092  26.128   8.853
 6046POPC   C1A16035   8.988  26.062   8.553
 6046POPC   D2A16036   8.966  26.090   8.253
 6046POPC   C3A16037   8.981  26.069   7.953
 6046POPC   C4A16038   8.934  26.049   7.653
 6046POPC   C1B16039   9.171  26.190   8.553
 6046POPC   C2B16040   9.173  26.145   8.253
 6046POPC   C3B16041   9.147  26.196   7.953
 6046POPC   C4B16042   9.175  26.139   7.653
 6047POPC   NC316043  29.906   5.125   9.453
 6047POPC   PO416044  29.961   5.107   9.153
 6047POPC   GL116045  29.875   5.067   8.853
 6047POPC   GL216046  29.862   4.974   8.853
 6047POPC   C1A16047  29.906   5.128   8.553
 6047POPC   D2A16048  29.931   5.072   8.253
 6047POPC   C3A16049  29.880   5.113   7.953
 6047POPC   C4A16050  29.918   5.103   7.653
 6047POPC   C1B16051  29.698   4.924   8.553
 6047POPC   C2B16052  29.696   4.973   8.253
 6047POPC   C3B16053  29.696   4.909   7.953
 6047POPC   C4B16054  29.713   4.928   7.653
 6048POPC   NC316055  19.875   7.445   9.453
 6048POPC   PO416056  19.851   7.444   9.153
 6048POPC   GL116057  19.871   7.406   8.853
 6048POPC   GL216058  19.725   7.467   8.853
 6048POPC   C1A16059  19.875   7.421   8.553
 6048POPC   D2A16060  19.787   7.446   8.253
 6048POPC   C3A16061  19.871   7.406   7.953
 6048POPC   C4A16062  19.836   7.384   7.653
 6048POPC   C1B16063  19.642   7.600   8.553
 6048POPC   C2B16064  19.657   7.572   8.253
 6048POPC   C3B16065  19.596   7.546   7.953
 6048POPC   C4B16066  19.642   7.558   7.653
 6049POPC   NC316067  19.790  35.365   9.453
 6049POPC   PO416068  19.842  35.359   9.153
 6049POPC   GL116069  19.807  35.333   8.853
 6049POPC   GL216070  19.678  35.388   8.853
 6049POPC   C1A16071  19.866  35.348   8.553
 6049POPC   D2A16072  19.812  35.351   8.253
 6049POPC   C3A16073  19.832  35.369   7.953
 6049POPC   C4A16074  19.813  35.369   7.653
 6049POPC   C1B16075  19.560  35.408   8.553
 6049POPC   C2B16076  19.579  35.425   8.253
 6049POPC   C3B16077  19.615  35.383   7.953
 6049POPC   C4B16078  19.584  35.407   7.653
 6050POPC   NC316079  11.308  37.671   9.453
 6050POPC   PO416080  11.336  37.700   9.153
 6050POPC   GL116081  11.344  37.703   8.853
 6050POPC   GL216082  11.169  37.685   8.853
 6050POPC   C1A16083  11.325  37.703   8.553
 6050POPC   D2A16084  11.343  37.715   8.253
 6050POPC   C3A16085  11.258  37.674   7.953
 6050POPC   C4A16086  11.266  37.635   7.653
 6050POPC   C1B16087  11.014  37.592   8.553
 6050POPC   C2B16088  11.058  37.571   8.253
 6050POPC   C3B16089  11.096  37.560   7.953
 6050POPC   C4B16090  11.091  37.620   7.653
 6051POPC   NC316091   3.544  12.826   9.453
 6051POPC   PO416092   3.570  12.834   9.153
 6051POPC   GL116093   3.553  12.873   8.853
 6051POPC   GL216094   3.605  12.745   8.853
 6051POPC   C1A16095   3.502  12.885   8.553
 6051POPC   D2A16096   3.556  12.808   8.253
 6051POPC   C3A16097   3.553  12.878   7.953
 6051POPC   C4A16098   3.581  12.885   7.653
 6051POPC   C1B16099   3.770  12.666   8.553
 6051POPC   C2B16100   3.699  12.709   8.253
 6051POPC   C3B16101   3.725  12.711   7.953
 6051POPC   C4B16102   3.732  12.673   7.653
 6052POPC   NC316103  19.108  32.996   9.453
 6052POPC   PO416104  19.081  33.057   9.153
 6052POPC   GL116105  19.020  32.982   8.853
 6052POPC   GL216106  19.199  32.966   8.853
 6052POPC   C1A16107  19.027  33.016   8.553
 6052POPC   D2A16108  19.071  33.032   8.253
 6052POPC   C3A16109  19.097  33.054   7.953
 6052POPC   C4A16110  19.027  32.989   7.653
 6052POPC   C1B16111  19.277  33.021   8.553
 6052POPC   C2B16112  19.348  32.953   8.253
 6052POPC   C3B16113  19.339  32.977   7.953
 6052POPC   C4B16114  19.349  33.049   7.653
 6053POPC   NC316115  41.567  31.459   9.453
 6053POPC   PO416116  41.531  31.468   9.153
 6053POPC   GL116117  41.562  31.426   8.853
 6053POPC   GL216118  41.705  31.409   8.853
 6053POPC   C1A16119  41.560  31.514   8.553
 6053POPC   D2A16120  41.608  31.509   8.253
 6053POPC   C3A16121  41.529  31.442   7.953
 6053POPC   C4A16122  41.545  31.457   7.653
 6053POPC   C1B16123  41.766  31.431   8.553
 6053POPC   C2B16124  41.773  31.419   8.253
 6053POPC   C3B16125  41.838  31.464   7.953
 6053POPC   C4B16126  41.801  31.449   7.653
 6054POPC   NC316127  18.264  42.294   9.453
 6054POPC   PO416128  18.302  42.331   9.153
 6054POPC   GL116129  18.290  42.347   8.853
 6054POPC   GL216130  18.112  42.357   8.853
 6054POPC   C1A16131  18.303  42.327   8.553
 6054POPC   D2A16132  18.299  42.309   8.253
 6054POPC   C3A16133  18.284  42.346   7.953
 6054POPC   C4A16134  18.296  42.374   7.653
 6054POPC   C1B16135  18.022  42.342   8.553
 6054POPC   C2B16136  18.055  42.338   8.253
 6054POPC   C3B16137  18.068  42.333   7.953
 6054POPC   C4B16138  18.041  42.326   7.653
 6055POPC   NC316139   7.423  39.989   9.453
 6055POPC   PO416140   7.377  40.034   9.153
 6055POPC   GL116141   7.439  40.053   8.853
 6055POPC   GL216142   7.354  39.939   8.853
 6055POPC   C1A16143   7.414  39.997   8.553
 6055POPC   D2A16144   7.396  39.995   8.253
 6055POPC   C3A16145   7.430  39.985   7.953
 6055POPC   C4A16146   7.466  39.962   7.653
 6055POPC   C1B16147   7.218  39.950   8.553
 6055POPC   C2B16148   7.218  39.920   8.253
 6055POPC   C3B16149   7.166  39.863   7.953
 6055POPC   C4B16150   7.141  39.907   7.653
 6056POPC   NC316151   2.006  20.622   9.453
 6056POPC   PO416152   2.017  20.633   9.153
 6056POPC   GL116153   1.976  20.638   8.853
 6056POPC   GL216154   1.929  20.529   8.853
 6056POPC   C1A16155   1.988  20.621   8.553
 6056POPC   D2A16156   2.030  20.655   8.253
 6056POPC   C3A16157   1.945  20.625   7.953
 6056POPC   C4A16158   2.039  20.582   7.653
 6056POPC   C1B16159   1.904  20.326   8.553
 6056POPC   C2B16160   1.927  20.374   8.253
 6056POPC   C3B16161   1.915  20.370   7.953
 6056POPC   C4B16162   1.913  20.357   7.653
 6057POPC   NC316163  43.907  22.976   9.453
 6057POPC   PO416164  43.874  22.976   9.153
 6057POPC   GL116165  43.879  22.968   8.853
 6057POPC   GL216166  43.988  22.844   8.853
 6057POPC   C1A16167  43.919  22.980   8.553
 6057POPC   D2A16168  43.927  22.950   8.253
 6057POPC   C3A16169  43.870  22.966   7.953
 6057POPC   C4A16170  43.846  22.903   7.653
 6057POPC   C1B16171  44.039  22.763   8.553
 6057POPC   C2B16172  44.114  22.803   8.253
 6057POPC   C3B16173  44.050  22.717   7.953
 6057POPC   C4B16174  44.034  22.784   7.653
 6058POPC   NC316175  19.823  22.126   9.453
 6058POPC   PO416176  19.859  22.196   9.153
 6058POPC   GL116177  19.795  22.113   8.853
 6058POPC   GL216178  19.903  22.044   8.853
 6058POPC   C1A16179  19.872  22.172   8.553
 6058POPC   D2A16180  19.835  22.122   8.253
 6058POPC   C3A16181  19.850  22.174   7.953
 6058POPC   C4A16182  19.839  22.149   7.653
 6058POPC   C1B16183  19.954  21.902   8.553
 6058POPC   C2B16184  20.011  21.956   8.253
 6058POPC   C3B16185  20.008  21.913   7.953
 6058POPC   C4B16186  20.005  21.956   7.653
 6059POPC   NC316187   5.906  36.134   9.453
 6059POPC   PO416188   5.834  36.087   9.153
 6059POPC   GL116189   5.880  36.175   8.853
 6059POPC   GL216190   5.847  36.251   8.853
 6059POPC   C1A16191   5.855  36.085   8.553
 6059POPC   D2A16192   5.836  36.152   8.253
 6059POPC   C3A16193   5.897  36.133   7.953
 6059POPC   C4A16194   5.898  36.080   7.653
 6059POPC   C1B16195   5.826  36.394   8.553
 6059POPC   C2B16196   5.914  36.355   8.253
 6059POPC   C3B16197   5.820  36.397   7.953
 6059POPC   C4B16198   5.836  36.380   7.653
 6060POPC   NC316199   6.666   8.187   9.453
 6060POPC   PO416200   6.646   8.186   9.153
 6060POPC   GL116201   6.606   8.186   8.853
 6060POPC   GL216202   6.607   8.306   8.853
 6060POPC   C1A16203   6.653   8.191   8.553
 6060POPC   D2A16204   6.652   8.156   8.253
 6060POPC   C3A16205   6.663   8.177   7.953
 6060POPC   C4A16206   6.636   8.199   7.653
 6060POPC   C1B16207   6.483   8.415   8.553
 6060POPC   C2B16208   6.506   8.360   8.253
 6060POPC   C3B16209   6.523   8.390   7.953
 6060POPC   C4B16210   6.468   8.376   7.653
 6061POPC   NC316211  15.959   1.254   9.453
 6061POPC   PO416212  15.989   1.167   9.153
 6061POPC   GL116213  15.974   1.236   8.853
 6061POPC   GL216214  16.044   1.099   8.853
 6061POPC   C1A16215  15.993   1.229   8.553
 6061POPC   D2A16216  15.974   1.227   8.253
 6061POPC   C3A16217  15.969   1.190   7.953
 6061POPC   C4A16218  15.993   1.173   7.653
 6061POPC   C1B16219  16.071   0.968   8.553
 6061POPC   C2B16220  16.064   0.991   8.253
 6061POPC   C3B16221  16.058   1.018   7.953
 6061POPC   C4B16222  16.127   0.998   7.653
 6062POPC   NC316223  40.028  33.017   9.453
 6062POPC   PO416224  39.977  33.054   9.153
 6062POPC   GL116225  40.030  32.995   8.853
 6062POPC   GL216226  39.924  32.943   8.853
 6062POPC   C1A16227  40.001  33.017   8.553
 6062POPC   D2A16228  39.970  32.986   8.253
 6062POPC   C3A16229  39.965  32.975   7.953
 6062POPC   C4A16230  39.972  33.012   7.653
 6062POPC   C1B16231  39.737  32.975   8.553
 6062POPC   C2B16232  39.762  32.976   8.253
 6062POPC   C3B16233  39.802  32.925   7.953
 6062POPC   C4B16234  39.730  33.007   7.653
 6063POPC   NC316235  17.509   5.062   9.453
 6063POPC   PO416236  17.501   5.111   9.153
 6063POPC   GL116237  17.530   5.110   8.853
 6063POPC   GL216238  17.602   5.019   8.853
 6063POPC   C1A16239  17.494   5.049   8.553
 6063POPC   D2A16240  17.476   5.053   8.253
 6063POPC   C3A16241  17.549   5.074   7.953
 6063POPC   C4A16242  17.543   5.132   7.653
 6063POPC   C1B16243  17.639   4.850   8.553
 6063POPC   C2B16244  17.617   4.918   8.253
 6063POPC   C3B16245  17.674   4.865   7.953
 6063POPC   C4B16246  17.634   4.915   7.653
 6064POPC   NC316247  33.038  12.863   9.453
 6064POPC   PO416248  33.074  12.852   9.153
 6064POPC   GL116249  33.000  12.843   8.853
 6064POPC   GL216250  33.061  12.949   8.853
 6064POPC   C1A16251  33.039  12.851   8.553
 6064POPC   D2A16252  33.041  12.900   8.253
 6064POPC   C3A16253  33.028  12.865   7.953
 6064POPC   C4A16254  32.996  12.873   7.653
 6064POPC   C1B16255  33.165  13.060   8.553
 6064POPC   C2B16256  33.210  13.077   8.253
 6064POPC   C3B16257  33.230  13.029   7.953
 6064POPC   C4B16258  33.192  13.003   7.653
 6065POPC   NC316259  44.624  18.298   9.453
 6065POPC   PO416260  44.707  18.243   9.153
 6065POPC   GL116261  44.675  18.238   8.853
 6065POPC   GL216262  44.606  18.373   8.853
 6065POPC   C1A16263  44.670  18.237   8.553
 6065POPC   D2A16264  44.666  18.298   8.253
 6065POPC   C3A16265  44.686  18.325   7.953
 6065POPC   C4A16266  44.681  18.312   7.653
 6065POPC   C1B16267  44.538  18.515   8.553
 6065POPC   C2B16268  44.538  18.491   8.253
 6065POPC   C3B16269  44.552  18.533   7.953
 6065POPC   C4B16270  44.586  18.528   7.653
 6066POPC   NC316271  37.671  31.485   9.453
 6066POPC   PO416272  37.650  31.486   9.153
 6066POPC   GL116273  37.665  31.481   8.853
 6066POPC   GL216274  37.651  31.307   8.853
 6066POPC   C1A16275  37.662  31.476   8.553
 6066POPC   D2A16276  37.663  31.493   8.253
 6066POPC   C3A16277  37.639  31.458   7.953
 6066POPC   C4A16278  37.667  31.512   7.653
 6066POPC   C1B16279  37.657  31.251   8.553
 6066POPC   C2B16280  37.729  31.179   8.253
 6066POPC   C3B16281  37.738  31.236   7.953
 6066POPC   C4B16282  37.662  31.187   7.653
 6067POPC   NC316283  33.771   0.401   9.453
 6067POPC   PO416284  33.758   0.431   9.153
 6067POPC   GL116285  33.817   0.426   8.853
 6067POPC   GL216286  33.689   0.575   8.853
 6067POPC   C1A16287  33.782   0.424   8.553
 6067POPC   D2A16288  33.776   0.455   8.253
 6067POPC   C3A16289  33.791   0.424   7.953
 6067POPC   C4A16290  33.801   0.460   7.653
 6067POPC   C1B16291  33.606   0.659   8.553
 6067POPC   C2B16292  33.603   0.612   8.253
 6067POPC   C3B16293  33.614   0.637   7.953
 6067POPC   C4B16294  33.651   0.602   7.653
 6068POPC   NC316295   7.447  34.562   9.453
 6068POPC   PO416296   7.421  34.621   9.153
 6068POPC   GL116297   7.380  34.547   8.853
 6068POPC   GL216298   7.479  34.673   8.853
 6068POPC   C1A16299   7.394  34.541   8.553
 6068POPC   D2A16300   7.420  34.621   8.253
 6068POPC   C3A16301   7.462  34.561   7.953
 6068POPC   C4A16302   7.395  34.602   7.653
 6068POPC   C1B16303   7.674  34.729   8.553
 6068POPC   C2B16304   7.654  34.719   8.253
 6068POPC   C3B16305   7.616  34.719   7.953
 6068POPC   C4B16306   7.651  34.686   7.653
 6069POPC   NC316307  44.673   5.049   9.453
 6069POPC   PO416308  44.618   5.128   9.153
 6069POPC   GL116309  44.681   5.139   8.853
 6069POPC   GL216310  44.745   5.122   8.853
 6069POPC   C1A16311  44.674   5.116   8.553
 6069POPC   D2A16312  44.665   5.078   8.253
 6069POPC   C3A16313  44.693   5.044   7.953
 6069POPC   C4A16314  44.645   5.060   7.653
 6069POPC   C1B16315  44.862   5.158   8.553
 6069POPC   C2B16316  44.942   5.078   8.253
 6069POPC   C3B16317  44.929   5.153   7.953
 6069POPC   C4B16318  44.909   5.162   7.653
 6070POPC   NC316319  40.769  25.255   9.453
 6070POPC   PO416320  40.758  25.284   9.153
 6070POPC   GL116321  40.739  25.259   8.853
 6070POPC   GL216322  40.916  25.202   8.853
 6070POPC   C1A16323  40.740  25.270   8.553
 6070POPC   D2A16324  40.821  25.278   8.253
 6070POPC   C3A16325  40.785  25.247   7.953
 6070POPC   C4A16326  40.755  25.305   7.653
 6070POPC   C1B16327  41.020  25.104   8.553
 6070POPC   C2B16328  41.036  25.149   8.253
 6070POPC   C3B16329  40.959  25.127   7.953
 6070POPC   C4B16330  40.983  25.108   7.653
 6071POPC   NC316331   9.010  12.852   9.453
 6071POPC   PO416332   8.996  12.815   9.153
 6071POPC   GL116333   8.988  12.805   8.853
 6071POPC   GL216334   8.873  12.997   8.853
 6071POPC   C1A16335   8.985  12.876   8.553
 6071POPC   D2A16336   8.985  12.856   8.253
 6071POPC   C3A16337   8.924  12.837   7.953
 6071POPC   C4A16338   8.925  12.831   7.653
 6071POPC   C1B16339   8.862  13.007   8.553
 6071POPC   C2B16340   8.786  13.025   8.253
 6071POPC   C3B16341   8.810  13.096   7.953
 6071POPC   C4B16342   8.830  13.096   7.653
 6072POPC   NC316343  15.922  29.875   9.453
 6072POPC   PO416344  15.909  29.880   9.153
 6072POPC   GL116345  16.002  29.928   8.853
 6072POPC   GL216346  15.890  29.823   8.853
 6072POPC   C1A16347  15.907  29.905   8.553
 6072POPC   D2A16348  15.949  29.946   8.253
 6072POPC   C3A16349  15.935  29.927   7.953
 6072POPC   C4A16350  15.918  29.926   7.653
 6072POPC   C1B16351  15.787  29.689   8.553
 6072POPC   C2B16352  15.770  29.711   8.253
 6072POPC   C3B16353  15.789  29.727   7.953
 6072POPC   C4B16354  15.755  29.706   7.653
 6073POPC   NC316355  38.476   8.946   9.453
 6073POPC   PO416356  38.451   8.969   9.153
 6073POPC   GL116357  38.414   8.973   8.853
 6073POPC   GL216358  38.624   9.039   8.853
 6073POPC   C1A16359  38.471   8.962   8.553
 6073POPC   D2A16360  38.446   8.965   8.253
 6073POPC   C3A16361  38.479   8.943   7.953
 6073POPC   C4A16362  38.501   8.936   7.653
 6073POPC   C1B16363  38.718   9.012   8.553
 6073POPC   C2B16364  38.746   9.001   8.253
 6073POPC   C3B16365  38.717   8.997   7.953
 6073POPC   C4B16366  38.740   9.050   7.653
 6074POPC   NC316367   5.897   5.900   9.453
 6074POPC   PO416368   5.872   5.901   9.153
 6074POPC   GL116369   5.908   5.858   8.853
 6074POPC   GL216370   5.740   5.764   8.853
 6074POPC   C1A16371   5.878   5.887   8.553
 6074POPC   D2A16372   5.833   5.852   8.253
 6074POPC   C3A16373   5.830   5.858   7.953
 6074POPC   C4A16374   5.906   5.879   7.653
 6074POPC   C1B16375   5.704   5.722   8.553
 6074POPC   C2B16376   5.703   5.628   8.253
 6074POPC   C3B16377   5.660   5.640   7.953
 6074POPC   C4B16378   5.750   5.707   7.653
 6075POPC   NC316379  32.257  34.616   9.453
 6075POPC   PO416380  32.275  34.527   9.153
 6075POPC   GL116381  32.213  34.554   8.853
 6075POPC   GL216382  32.208  34.432   8.853
 6075POPC   C1A16383  32.279  34.569   8.553
 6075POPC   D2A16384  32.234  34.579   8.253
 6075POPC   C3A16385  32.203  34.552   7.953
 6075POPC   C4A16386  32.228  34.625   7.653
 6075POPC   C1B16387  32.088  34.362   8.553
 6075POPC   C2B16388  32.125  34.385   8.253
 6075POPC   C3B16389  32.133  34.342   7.953
 6075POPC   C4B16390  32.117  34.365   7.653
 6076POPC   NC316391  32.982  17.512   9.453
 6076POPC   PO416392  33.036  17.546   9.153
 6076POPC   GL116393  33.058  17.529   8.853
 6076POPC   GL216394  33.072  17.387   8.853
 6076POPC   C1A16395  33.001  17.470   8.553
 6076POPC   D2A16396  33.011  17.540   8.253
 6076POPC   C3A16397  33.003  17.483   7.953
 6076POPC   C4A16398  32.980  17.461   7.653
 6076POPC   C1B16399  33.109  17.317   8.553
 6076POPC   C2B16400  33.115  17.249   8.253
 6076POPC   C3B16401  33.111  17.318   7.953
 6076POPC   C4B16402  33.116  17.282   7.653
 6077POPC   NC316403  15.968  29.171   9.453
 6077POPC   PO416404  15.924  29.157   9.153
 6077POPC   GL116405  15.946  29.191   8.853
 6077POPC   GL216406  16.055  29.205   8.853
 6077POPC   C1A16407  15.991  29.190   8.553
 6077POPC   D2A16408  15.952  29.138   8.253
 6077POPC   C3A16409  15.991  29.183   7.953
 6077POPC   C4A16410  15.930  29.106   7.653
 6077POPC   C1B16411  16.156  29.287   8.553
 6077POPC   C2B16412  16.146  29.221   8.253
 6077POPC   C3B16413  16.189  29.203   7.953
 6077POPC   C4B16414  16.152  29.260   7.653
 6078POPC   NC316415   8.236  25.262   9.453
 6078POPC   PO416416   8.205  25.234   9.153
 6078POPC   GL116417   8.147  25.229   8.853
 6078POPC   GL216418   8.060  25.228   8.853
 6078POPC   C1A16419   8.208  25.302   8.553
 6078POPC   D2A16420   8.179  25.273   8.253
 6078POPC   C3A16421   8.212  25.242   7.953
 6078POPC   C4A16422   8.212  25.248   7.653
 6078POPC   C1B16423   7.984  25.220   8.553
 6078POPC   C2B16424   7.929  25.210   8.253
 6078POPC   C3B16425   7.918  25.192   7.953
 6078POPC   C4B16426   8.007  25.173   7.653
 6079POPC   NC316427  11.325  28.329   9.453
 6079POPC   PO416428  11.319  28.412   9.153
 6079POPC   GL116429  11.336  28.384   8.853
 6079POPC   GL216430  11.243  28.501   8.853
 6079POPC   C1A16431  11.263  28.401   8.553
 6079POPC   D2A16432  11.295  28.377   8.253
 6079POPC   C3A16433  11.314  28.339   7.953
 6079POPC   C4A16434  11.305  28.383   7.653
 6079POPC   C1B16435  11.217  28.556   8.553
 6079POPC   C2B16436  11.154  28.584   8.253
 6079POPC   C3B16437  11.222  28.637   7.953
 6079POPC   C4B16438  11.200  28.648   7.653
 6080POPC   NC316439  34.613   1.969   9.453
 6080POPC   PO416440  34.546   1.959   9.153
 6080POPC   GL116441  34.534   1.998   8.853
 6080POPC   GL216442  34.478   2.114   8.853
 6080POPC   C1A16443  34.560   1.974   8.553
 6080POPC   D2A16444  34.534   1.945   8.253
 6080POPC   C3A16445  34.573   1.986   7.953
 6080POPC   C4A16446  34.591   2.028   7.653
 6080POPC   C1B16447  34.397   2.228   8.553
 6080POPC   C2B16448  34.404   2.148   8.253
 6080POPC   C3B16449  34.397   2.214   7.953
 6080POPC   C4B16450  34.406   2.173   7.653
 6081POPC   NC316451  17.498  26.075   9.453
 6081POPC   PO416452  17.468  26.039   9.153
 6081POPC   GL116453  17.524  26.056   8.853
 6081POPC   GL216454  17.474  25.955   8.853
 6081POPC   C1A16455  17.502  26.043   8.553
 6081POPC   D2A16456  17.519  26.040   8.253
 6081POPC   C3A16457  17.479  26.033   7.953
 6081POPC   C4A16458  17.467  26.061   7.653
 6081POPC   C1B16459  17.505  25.794   8.553
 6081POPC   C2B16460  17.517  25.819   8.253
 6081POPC   C3B16461  17.486  25.800   7.953
 6081POPC   C4B16462  17.457  25.792   7.653
 6082POPC   NC316463   5.082   2.814   9.453
 6082POPC   PO416464   5.114   2.804   9.153
 6082POPC   GL116465   5.050   2.723   8.853
 6082POPC   GL216466   5.146   2.655   8.853
 6082POPC   C1A16467   5.086   2.731   8.553
 6082POPC   D2A16468   5.067   2.809   8.253
 6082POPC   C3A16469   5.115   2.789   7.953
 6082POPC   C4A16470   5.106   2.802   7.653
 6082POPC   C1B16471   5.193   2.502   8.553
 6082POPC   C2B16472   5.145   2.515   8.253
 6082POPC   C3B16473   5.176   2.549   7.953
 6082POPC   C4B16474   5.168   2.475   7.653
 6083POPC   NC316475  43.837  41.568   9.453
 6083POPC   PO416476  43.897  41.598   9.153
 6083POPC   GL116477  43.920  41.516   8.853
 6083POPC   GL216478  43.754  41.645   8.853
 6083POPC   C1A16479  43.915  41.509   8.553
 6083POPC   D2A16480  43.882  41.593   8.253
 6083POPC   C3A16481  43.921  41.581   7.953
 6083POPC   C4A16482  43.896  41.603   7.653
 6083POPC   C1B16483  43.636  41.749   8.553
 6083POPC   C2B16484  43.663  41.695   8.253
 6083POPC   C3B16485  43.691  41.740   7.953
 6083POPC   C4B16486  43.645  41.702   7.653
 6084POPC   NC316487  42.285  39.986   9.453
 6084POPC   PO416488  42.375  40.056   9.153
 6084POPC   GL116489  42.371  39.993   8.853
 6084POPC   GL216490  42.431  40.049   8.853
 6084POPC   C1A16491  42.298  40.000   8.553
 6084POPC   D2A16492  42.322  40.033   8.253
 6084POPC   C3A16493  42.354  39.970   7.953
 6084POPC   C4A16494  42.351  40.039   7.653
 6084POPC   C1B16495  42.586  40.057   8.553
 6084POPC   C2B16496  42.600  40.015   8.253
 6084POPC   C3B16497  42.555  40.007   7.953
 6084POPC   C4B16498  42.579  40.016   7.653
 6085POPC   NC316499  36.097   9.708   9.453
 6085POPC   PO416500  36.152   9.701   9.153
 6085POPC   GL116501  36.104   9.704   8.853
 6085POPC   GL216502  36.024   9.661   8.853
 6085POPC   C1A16503  36.135   9.772   8.553
 6085POPC   D2A16504  36.175   9.774   8.253
 6085POPC   C3A16505  36.118   9.783   7.953
 6085POPC   C4A16506  36.140   9.775   7.653
 6085POPC   C1B16507  35.950   9.551   8.553
 6085POPC   C2B16508  35.955   9.607   8.253
 6085POPC   C3B16509  35.995   9.556   7.953
 6085POPC   C4B16510  35.963   9.568   7.653
 6086POPC   NC316511  25.242  14.409   9.453
 6086POPC   PO416512  25.217  14.356   9.153
 6086POPC   GL116513  25.295  14.384   8.853
 6086POPC   GL216514  25.146  14.323   8.853
 6086POPC   C1A16515  25.270  14.388   8.553
 6086POPC   D2A16516  25.234  14.437   8.253
 6086POPC   C3A16517  25.270  14.420   7.953
 6086POPC   C4A16518  25.230  14.394   7.653
 6086POPC   C1B16519  25.052  14.251   8.553
 6086POPC   C2B16520  25.071  14.204   8.253
 6086POPC   C3B16521  25.087  14.192   7.953
 6086POPC   C4B16522  25.079  14.255   7.653
 6087POPC   NC316523   8.174  14.447   9.453
 6087POPC   PO416524   8.244  14.438   9.153
 6087POPC   GL116525   8.225  14.449   8.853
 6087POPC   GL216526   8.033  14.437   8.853
 6087POPC   C1A16527   8.163  14.391   8.553
 6087POPC   D2A16528   8.195  14.365   8.253
 6087POPC   C3A16529   8.222  14.379   7.953
 6087POPC   C4A16530   8.187  14.362   7.653
 6087POPC   C1B16531   7.957  14.399   8.553
 6087POPC   C2B16532   7.944  14.349   8.253
 6087POPC   C3B16533   7.938  14.393   7.953
 6087POPC   C4B16534   7.899  14.414   7.653
 6088POPC   NC316535   4.336  19.040   9.453
 6088POPC   PO416536   4.355  19.057   9.153
 6088POPC   GL116537   4.344  19.037   8.853
 6088POPC   GL216538   4.270  19.012   8.853
 6088POPC   C1A16539   4.343  19.063   8.553
 6088POPC   D2A16540   4.352  19.022   8.253
 6088POPC   C3A16541   4.284  19.043   7.953
 6088POPC   C4A16542   4.305  19.010   7.653
 6088POPC   C1B16543   4.127  18.933   8.553
 6088POPC   C2B16544   4.101  18.915   8.253
 6088POPC   C3B16545   4.112  18.884   7.953
 6088POPC   C4B16546   4.168  18.920   7.653
 6089POPC   NC316547  11.329  15.942   9.453
 6089POPC   PO416548  11.297  15.906   9.153
 6089POPC   GL116549  11.271  15.906   8.853
 6089POPC   GL216550  11.223  16.087   8.853
 6089POPC   C1A16551  11.302  15.941   8.553
 6089POPC   D2A16552  11.339  15.935   8.253
 6089POPC   C3A16553  11.254  15.978   7.953
 6089POPC   C4A16554  11.339  15.984   7.653
 6089POPC   C1B16555  11.197  16.246   8.553
 6089POPC   C2B16556  11.255  16.223   8.253
 6089POPC   C3B16557  11.202  16.205   7.953
 6089POPC   C4B16558  11.285  16.248   7.653
 6090POPC   NC316559  42.344  16.742   9.453
 6090POPC   PO416560  42.323  16.712   9.153
 6090POPC   GL116561  42.355  16.700   8.853
 6090POPC   GL216562  42.325  16.841   8.853
 6090POPC   C1A16563  42.374  16.733   8.553
 6090POPC   D2A16564  42.350  16.730   8.253
 6090POPC   C3A16565  42.344  16.745   7.953
 6090POPC   C4A16566  42.371  16.724   7.653
 6090POPC   C1B16567  42.383  16.985   8.553
 6090POPC   C2B16568  42.350  16.967   8.253
 6090POPC   C3B16569  42.365  16.990   7.953
 6090POPC   C4B16570  42.385  16.950   7.653
 6091POPC   NC316571  13.631  22.188   9.453
 6091POPC   PO416572  13.635  22.206   9.153
 6091POPC   GL116573  13.609  22.129   8.853
 6091POPC   GL216574  13.525  22.094   8.853
 6091POPC   C1A16575  13.670  22.169   8.553
 6091POPC   D2A16576  13.641  22.133   8.253
 6091POPC   C3A16577  13.580  22.123   7.953
 6091POPC   C4A16578  13.639  22.165   7.653
 6091POPC   C1B16579  13.370  22.093   8.553
 6091POPC   C2B16580  13.341  22.091   8.253
 6091POPC   C3B16581  13.387  22.110   7.953
 6091POPC   C4B16582  13.338  22.121   7.653
 6092POPC   NC316583  34.616  44.691   9.453
 6092POPC   PO416584  34.527  44.634   9.153
 6092POPC   GL116585  34.526  44.710   8.853
 6092POPC   GL216586  34.645  44.796   8.853
 6092POPC   C1A16587  34.622  44.634   8.553
 6092POPC   D2A16588  34.535  44.664   8.253
 6092POPC   C3A16589  34.608  44.624   7.953
 6092POPC   C4A16590  34.544  44.641   7.653
 6092POPC   C1B16591  34.673  44.870   8.553
 6092POPC   C2B16592  34.733  44.839   8.253
 6092POPC   C3B16593  34.698  44.836   7.953
 6092POPC   C4B16594  34.751  44.876   7.653
 6093POPC   NC316595   7.426  19.084   9.453
 6093POPC   PO416596   7.384  19.049   9.153
 6093POPC   GL116597   7.372  19.096   8.853
 6093POPC   GL216598   7.322  19.126   8.853
 6093POPC   C1A16599   7.466  19.022   8.553
 6093POPC   D2A16600   7.437  19.024   8.253
 6093POPC   C3A16601   7.421  19.047   7.953
 6093POPC   C4A16602   7.410  19.100   7.653
 6093POPC   C1B16603   7.153  19.195   8.553
 6093POPC   C2B16604   7.201  19.122   8.253
 6093POPC   C3B16605   7.168  19.166   7.953
 6093POPC   C4B16606   7.170  19.203   7.653
 6094POPC   NC316607  14.365  44.698   9.453
 6094POPC   PO416608  14.434  44.625   9.153
 6094POPC   GL116609  14.383  44.704   8.853
 6094POPC   GL216610  14.280  44.575   8.853
 6094POPC   C1A16611  14.439  44.616   8.553
 6094POPC   D2A16612  14.367  44.702   8.253
 6094POPC   C3A16613  14.444  44.690   7.953
 6094POPC   C4A16614  14.375  44.662   7.653
 6094POPC   C1B16615  14.128  44.539   8.553
 6094POPC   C2B16616  14.212  44.610   8.253
 6094POPC   C3B16617  14.147  44.540   7.953
 6094POPC   C4B16618  14.213  44.569   7.653
 6095POPC   NC316619  33.760  13.670   9.453
 6095POPC   PO416620  33.840  13.643   9.153
 6095POPC   GL116621  33.793  13.673   8.853
 6095POPC   GL216622  33.714  13.571   8.853
 6095POPC   C1A16623  33.795  13.611   8.553
 6095POPC   D2A16624  33.770  13.579   8.253
 6095POPC   C3A16625  33.772  13.614   7.953
 6095POPC   C4A16626  33.791  13.637   7.653
 6095POPC   C1B16627  33.620  13.481   8.553
 6095POPC   C2B16628  33.568  13.506   8.253
 6095POPC   C3B16629  33.537  13.508   7.953
 6095POPC   C4B16630  33.567  13.492   7.653
 6096POPC   NC316631  38.439  14.443   9.453
 6096POPC   PO416632  38.499  14.401   9.153
 6096POPC   GL116633  38.433  14.391   8.853
 6096POPC   GL216634  38.335  14.292   8.853
 6096POPC   C1A16635  38.490  14.356   8.553
 6096POPC   D2A16636  38.421  14.433   8.253
 6096POPC   C3A16637  38.472  14.401   7.953
 6096POPC   C4A16638  38.492  14.425   7.653
 6096POPC   C1B16639  38.263  14.252   8.553
 6096POPC   C2B16640  38.244  14.220   8.253
 6096POPC   C3B16641  38.242  14.199   7.953
 6096POPC   C4B16642  38.252  14.259   7.653
 6097POPC   NC316643   8.963  20.568   9.453
 6097POPC   PO416644   8.988  20.587   9.153
 6097POPC   GL116645   9.017  20.631   8.853
 6097POPC   GL216646   8.895  20.573   8.853
 6097POPC   C1A16647   8.978  20.608   8.553
 6097POPC   D2A16648   9.018  20.592   8.253
 6097POPC   C3A16649   8.955  20.565   7.953
 6097POPC   C4A16650   8.993  20.618   7.653
 6097POPC   C1B16651   8.763  20.608   8.553
 6097POPC   C2B16652   8.723  20.545   8.253
 6097POPC   C3B16653   8.677  20.615   7.953
 6097POPC   C4B16654   8.717  20.572   7.653
 6098POPC   NC316655  35.322  32.218   9.453
 6098POPC   PO416656  35.313  32.207   9.153
 6098POPC   GL116657  35.321  32.213   8.853
 6098POPC   GL216658  35.285  32.405   8.853
 6098POPC   C1A16659  35.342  32.234   8.553
 6098POPC   D2A16660  35.381  32.260   8.253
 6098POPC   C3A16661  35.380  32.240   7.953
 6098POPC   C4A16662  35.343  32.274   7.653
 6098POPC   C1B16663  35.252  32.457   8.553
 6098POPC   C2B16664  35.312  32.435   8.253
 6098POPC   C3B16665  35.228  32.504   7.953
 6098POPC   C4B16666  35.258  32.443   7.653
 6099POPC   NC316667  32.237   2.810   9.453
 6099POPC   PO416668  32.241   2.759   9.153
 6099POPC   GL116669  32.280   2.743   8.853
 6099POPC   GL216670  32.192   2.799   8.853
 6099POPC   C1A16671  32.243   2.729   8.553
 6099POPC   D2A16672  32.202   2.745   8.253
 6099POPC   C3A16673  32.265   2.779   7.953
 6099POPC   C4A16674  32.237   2.735   7.653
 6099POPC   C1B16675  32.091   2.941   8.553
 6099POPC   C2B16676  32.035   2.976   8.253
 6099POPC   C3B16677  32.009   2.961   7.953
 6099POPC   C4B16678  32.077   2.961   7.653
 6100POPC   NC316679  20.638  22.135   9.453
 6100POPC   PO416680  20.615  22.159   9.153
 6100POPC   GL116681  20.618  22.170   8.853
 6100POPC   GL216682  20.739  22.126   8.853
 6100POPC   C1A16683  20.600  22.197   8.553
 6100POPC   D2A16684  20.619  22.193   8.253
 6100POPC   C3A16685  20.628  22.135   7.953
 6100POPC   C4A16686  20.581  22.138   7.653
 6100POPC   C1B16687  20.853  22.080   8.553
 6100POPC   C2B16688  20.813  22.073   8.253
 6100POPC   C3B16689  20.844  22.092   7.953
 6100POPC   C4B16690  20.861  22.062   7.653
 6101POPC   NC316691  28.347  12.845   9.453
 6101POPC   PO416692  28.373  12.815   9.153
 6101POPC   GL116693  28.372  12.858   8.853
 6101POPC   GL216694  28.246  12.820   8.853
 6101POPC   C1A16695  28.380  12.811   8.553
 6101POPC   D2A16696  28.363  12.811   8.253
 6101POPC   C3A16697  28.388  12.810   7.953
 6101POPC   C4A16698  28.324  12.804   7.653
 6101POPC   C1B16699  28.125  12.745   8.553
 6101POPC   C2B16700  28.199  12.730   8.253
 6101POPC   C3B16701  28.112  12.676   7.953
 6101POPC   C4B16702  28.180  12.760   7.653
 6102POPC   NC316703  26.020  36.875   9.453
 6102POPC   PO416704  26.053  36.876   9.153
 6102POPC   GL116705  26.023  36.937   8.853
 6102POPC   GL216706  26.197  36.864   8.853
 6102POPC   C1A16707  26.040  36.919   8.553
 6102POPC   D2A16708  26.065  36.908   8.253
 6102POPC   C3A16709  26.046  36.890   7.953
 6102POPC   C4A16710  26.091  36.911   7.653
 6102POPC   C1B16711  26.227  36.793   8.553
 6102POPC   C2B16712  26.255  36.815   8.253
 6102POPC   C3B16713  26.233  36.780   7.953
 6102POPC   C4B16714  26.263  36.779   7.653
 6103POPC   NC316715   1.172  11.279   9.453
 6103POPC   PO416716   1.219  11.345   9.153
 6103POPC   GL116717   1.191  11.285   8.853
 6103POPC   GL216718   1.147  11.381   8.853
 6103POPC   C1A16719   1.186  11.261   8.553
 6103POPC   D2A16720   1.226  11.282   8.253
 6103POPC   C3A16721   1.223  11.278   7.953
 6103POPC   C4A16722   1.256  11.292   7.653
 6103POPC   C1B16723   1.123  11.477   8.553
 6103POPC   C2B16724   1.132  11.485   8.253
 6103POPC   C3B16725   1.111  11.554   7.953
 6103POPC   C4B16726   1.120  11.568   7.653
 6104POPC   NC316727  12.044  19.867   9.453
 6104POPC   PO416728  12.076  19.869   9.153
 6104POPC   GL116729  12.071  19.801   8.853
 6104POPC   GL216730  12.073  20.004   8.853
 6104POPC   C1A16731  12.078  19.812   8.553
 6104POPC   D2A16732  12.114  19.854   8.253
 6104POPC   C3A16733  12.120  19.865   7.953
 6104POPC   C4A16734  12.121  19.798   7.653
 6104POPC   C1B16735  12.159  20.049   8.553
 6104POPC   C2B16736  12.123  20.124   8.253
 6104POPC   C3B16737  12.118  20.029   7.953
 6104POPC   C4B16738  12.150  20.087   7.653
 6105POPC   NC316739  32.214  23.682   9.453
 6105POPC   PO416740  32.225  23.695   9.153
 6105POPC   GL116741  32.200  23.710   8.853
 6105POPC   GL216742  32.129  23.756   8.853
 6105POPC   C1A16743  32.263  23.723   8.553
 6105POPC   D2A16744  32.227  23.759   8.253
 6105POPC   C3A16745  32.255  23.735   7.953
 6105POPC   C4A16746  32.241  23.713   7.653
 6105POPC   C1B16747  31.959  23.787   8.553
 6105POPC   C2B16748  32.014  23.754   8.253
 6105POPC   C3B16749  31.984  23.774   7.953
 6105POPC   C4B16750  31.965  23.722   7.653
 6106POPC   NC316751  33.018  12.057   9.453
 6106POPC   PO416752  33.063  12.067   9.153
 6106POPC   GL116753  33.027  12.062   8.853
 6106POPC   GL216754  32.979  11.935   8.853
 6106POPC   C1A16755  32.991  12.060   8.553
 6106POPC   D2A16756  32.996  12.086   8.253
 6106POPC   C3A16757  33.049  12.035   7.953
 6106POPC   C4A16758  33.047  12.122   7.653
 6106POPC   C1B16759  32.924  11.827   8.553
 6106POPC   C2B16760  32.938  11.816   8.253
 6106POPC   C3B16761  32.923  11.843   7.953
 6106POPC   C4B16762  32.859  11.837   7.653
 6107POPC   NC316763  40.813   1.244   9.453
 6107POPC   PO416764  40.782   1.173   9.153
 6107POPC   GL116765  40.798   1.221   8.853
 6107POPC   GL216766  40.725   1.132   8.853
 6107POPC   C1A16767  40.810   1.249   8.553
 6107POPC   D2A16768  40.783   1.219   8.253
 6107POPC   C3A16769  40.814   1.242   7.953
 6107POPC   C4A16770  40.760   1.237   7.653
 6107POPC   C1B16771  40.779   0.969   8.553
 6107POPC   C2B16772  40.780   0.937   8.253
 6107POPC   C3B16773  40.696   0.984   7.953
 6107POPC   C4B16774  40.763   0.924   7.653
 6108POPC   NC316775  27.565  37.716   9.453
 6108POPC   PO416776  27.582  37.640   9.153
 6108POPC   GL116777  27.545  37.660   8.853
 6108POPC   GL216778  27.591  37.820   8.853
 6108POPC   C1A16779  27.574  37.711   8.553
 6108POPC   D2A16780  27.634  37.653   8.253
 6108POPC   C3A16781  27.581  37.656   7.953
 6108POPC   C4A16782  27.609  37.652   7.653
 6108POPC   C1B16783  27.503  37.897   8.553
 6108POPC   C2B16784  27.477  37.878   8.253
 6108POPC   C3B16785  27.538  37.934   7.953
 6108POPC   C4B16786  27.508  37.937   7.653
 6109POPC   NC316787  18.235  27.623   9.453
 6109POPC   PO416788  18.236  27.615   9.153
 6109POPC   GL116789  18.331  27.624   8.853
 6109POPC   GL216790  18.330  27.526   8.853
 6109POPC   C1A16791  18.281  27.588   8.553
 6109POPC   D2A16792  18.289  27.567   8.253
 6109POPC   C3A16793  18.275  27.556   7.953
 6109POPC   C4A16794  18.303  27.583   7.653
 6109POPC   C1B16795  18.480  27.373   8.553
 6109POPC   C2B16796  18.403  27.432   8.253
 6109POPC   C3B16797  18.434  27.438   7.953
 6109POPC   C4B16798  18.474  27.444   7.653
 6110POPC   NC316799  26.828  29.125   9.453
 6110POPC   PO416800  26.827  29.175   9.153
 6110POPC   GL116801  26.855  29.129   8.853
 6110POPC   GL216802  26.929  29.051   8.853
 6110POPC   C1A16803  26.846  29.118   8.553
 6110POPC   D2A16804  26.802  29.163   8.253
 6110POPC   C3A16805  26.819  29.172   7.953
 6110POPC   C4A16806  26.849  29.137   7.653
 6110POPC   C1B16807  27.050  29.102   8.553
 6110POPC   C2B16808  27.075  29.075   8.253
 6110POPC   C3B16809  27.068  29.096   7.953
 6110POPC   C4B16810  27.049  29.043   7.653
 6111POPC   NC316811   3.506   2.725   9.453
 6111POPC   PO416812   3.540   2.788   9.153
 6111POPC   GL116813   3.591   2.759   8.853
 6111POPC   GL216814   3.446   2.701   8.853
 6111POPC   C1A16815   3.585   2.761   8.553
 6111POPC   D2A16816   3.524   2.756   8.253
 6111POPC   C3A16817   3.513   2.785   7.953
 6111POPC   C4A16818   3.517   2.744   7.653
 6111POPC   C1B16819   3.306   2.698   8.553
 6111POPC   C2B16820   3.287   2.765   8.253
 6111POPC   C3B16821   3.320   2.685   7.953
 6111POPC   C4B16822   3.272   2.765   7.653
 6112POPC   NC316823  11.264  14.386   9.453
 6112POPC   PO416824  11.307  14.357   9.153
 6112POPC   GL116825  11.313  14.438   8.853
 6112POPC   GL216826  11.210  14.555   8.853
 6112POPC   C1A16827  11.251  14.367   8.553
 6112POPC   D2A16828  11.320  14.362   8.253
 6112POPC   C3A16829  11.319  14.449   7.953
 6112POPC   C4A16830  11.316  14.406   7.653
 6112POPC   C1B16831  11.161  14.606   8.553
 6112POPC   C2B16832  11.136  14.590   8.253
 6112POPC   C3B16833  11.148  14.666   7.953
 6112POPC   C4B16834  11.219  14.643   7.653
 6113POPC   NC316835  30.651  43.077   9.453
 6113POPC   PO416836  30.746  43.120   9.153
 6113POPC   GL116837  30.712  43.096   8.853
 6113POPC   GL216838  30.645  42.968   8.853
 6113POPC   C1A16839  30.742  43.133   8.553
 6113POPC   D2A16840  30.736  43.104   8.253
 6113POPC   C3A16841  30.665  43.066   7.953
 6113POPC   C4A16842  30.697  43.107   7.653
 6113POPC   C1B16843  30.656  42.886   8.553
 6113POPC   C2B16844  30.573  42.911   8.253
 6113POPC   C3B16845  30.562  42.891   7.953
 6113POPC   C4B16846  30.642  42.873   7.653
 6114POPC   NC316847  17.551   0.429   9.453
 6114POPC   PO416848  17.465   0.453   9.153
 6114POPC   GL116849  17.527   0.446   8.853
 6114POPC   GL216850  17.564   0.341   8.853
 6114POPC   C1A16851  17.524   0.407   8.553
 6114POPC   D2A16852  17.460   0.447   8.253
 6114POPC   C3A16853  17.523   0.403   7.953
 6114POPC   C4A16854  17.464   0.424   7.653
 6114POPC   C1B16855  17.653   0.293   8.553
 6114POPC   C2B16856  17.629   0.235   8.253
 6114POPC   C3B16857  17.628   0.215   7.953
 6114POPC   C4B16858  17.634   0.208   7.653
 6115POPC   NC316859  12.108  39.981   9.453
 6115POPC   PO416860  12.069  39.973   9.153
 6115POPC   GL116861  12.081  39.985   8.853
 6115POPC   GL216862  12.066  39.894   8.853
 6115POPC   C1A16863  12.088  40.002   8.553
 6115POPC   D2A16864  12.104  40.013   8.253
 6115POPC   C3A16865  12.093  40.005   7.953
 6115POPC   C4A16866  12.126  39.978   7.653
 6115POPC   C1B16867  12.175  39.793   8.553
 6115POPC   C2B16868  12.134  39.807   8.253
 6115POPC   C3B16869  12.189  39.784   7.953
 6115POPC   C4B16870  12.105  39.809   7.653
 6116POPC   NC316871  12.084  44.646   9.453
 6116POPC   PO416872  12.036  44.696   9.153
 6116POPC   GL116873  12.061  44.652   8.853
 6116POPC   GL216874  12.086  44.764   8.853
 6116POPC   C1A16875  12.029  44.711   8.553
 6116POPC   D2A16876  12.067  44.678   8.253
 6116POPC   C3A16877  12.120  44.672   7.953
 6116POPC   C4A16878  12.087  44.664   7.653
 6116POPC   C1B16879  11.964  44.883   8.553
 6116POPC   C2B16880  11.969  44.942   8.253
 6116POPC   C3B16881  12.052  44.856   7.953
 6116POPC   C4B16882  11.977  44.921   7.653
 6117POPC   NC316883   2.010  24.508   9.453
 6117POPC   PO416884   1.967  24.525   9.153
 6117POPC   GL116885   1.969  24.527   8.853
 6117POPC   GL216886   1.894  24.535   8.853
 6117POPC   C1A16887   2.024  24.482   8.553
 6117POPC   D2A16888   1.970  24.490   8.253
 6117POPC   C3A16889   2.025  24.495   7.953
 6117POPC   C4A16890   1.984  24.530   7.653
 6117POPC   C1B16891   1.749  24.553   8.553
 6117POPC   C2B16892   1.724  24.557   8.253
 6117POPC   C3B16893   1.727  24.576   7.953
 6117POPC   C4B16894   1.759  24.635   7.653
 6118POPC   NC316895  20.628  44.698   9.453
 6118POPC   PO416896  20.637  44.704   9.153
 6118POPC   GL116897  20.656  44.687   8.853
 6118POPC   GL216898  20.507  44.598   8.853
 6118POPC   C1A16899  20.608  44.622   8.553
 6118POPC   D2A16900  20.625  44.633   8.253
 6118POPC   C3A16901  20.653  44.665   7.953
 6118POPC   C4A16902  20.587  44.681   7.653
 6118POPC   C1B16903  20.475  44.438   8.553
 6118POPC   C2B16904  20.471  44.518   8.253
 6118POPC   C3B16905  20.390  44.468   7.953
 6118POPC   C4B16906  20.397  44.479   7.653
 6119POPC   NC316907  13.619  12.859   9.453
 6119POPC   PO416908  13.631  12.817   9.153
 6119POPC   GL116909  13.583  12.843   8.853
 6119POPC   GL216910  13.598  12.941   8.853
 6119POPC   C1A16911  13.587  12.871   8.553
 6119POPC   D2A16912  13.667  12.829   8.253
 6119POPC   C3A16913  13.670  12.869   7.953
 6119POPC   C4A16914  13.623  12.884   7.653
 6119POPC   C1B16915  13.498  13.096   8.553
 6119POPC   C2B16916  13.577  13.055   8.253
 6119POPC   C3B16917  13.493  13.074   7.953
 6119POPC   C4B16918  13.529  13.104   7.653
 6120POPC   NC316919  34.587  33.050   9.453
 6120POPC   PO416920  34.527  33.020   9.153
 6120POPC   GL116921  34.567  33.048   8.853
 6120POPC   GL216922  34.447  33.025   8.853
 6120POPC   C1A16923  34.545  32.979   8.553
 6120POPC   D2A16924  34.549  32.992   8.253
 6120POPC   C3A16925  34.578  32.985   7.953
 6120POPC   C4A16926  34.553  32.991   7.653
 6120POPC   C1B16927  34.334  32.972   8.553
 6120POPC   C2B16928  34.333  32.935   8.253
 6120POPC   C3B16929  34.351  32.966   7.953
 6120POPC   C4B16930  34.317  32.980   7.653
 6121POPC   NC316931  40.768  20.582   9.453
 6121POPC   PO416932  40.807  20.631   9.153
 6121POPC   GL116933  40.825  20.568   8.853
 6121POPC   GL216934  40.822  20.703   8.853
 6121POPC   C1A16935  40.776  20.578   8.553
 6121POPC   D2A16936  40.814  20.623   8.253
 6121POPC   C3A16937  40.747  20.642   7.953
 6121POPC   C4A16938  40.823  20.580   7.653
 6121POPC   C1B16939  40.941  20.842   8.553
 6121POPC   C2B16940  40.971  20.757   8.253
 6121POPC   C3B16941  40.939  20.830   7.953
 6121POPC   C4B16942  40.903  20.811   7.653
 6122POPC   NC316943   6.600   5.901   9.453
 6122POPC   PO416944   6.684   5.886   9.153
 6122POPC   GL116945   6.693   5.862   8.853
 6122POPC   GL216946   6.749   5.909   8.853
 6122POPC   C1A16947   6.624   5.821   8.553
 6122POPC   D2A16948   6.673   5.835   8.253
 6122POPC   C3A16949   6.634   5.843   7.953
 6122POPC   C4A16950   6.663   5.907   7.653
 6122POPC   C1B16951   6.881   5.844   8.553
 6122POPC   C2B16952   6.941   5.876   8.253
 6122POPC   C3B16953   6.910   5.892   7.953
 6122POPC   C4B16954   6.943   5.904   7.653
 6123POPC   NC316955   0.396  11.298   9.453
 6123POPC   PO416956   0.437  11.341   9.153
 6123POPC   GL116957   0.393  11.258   8.853
 6123POPC   GL216958   0.387  11.413   8.853
 6123POPC   C1A16959   0.390  11.298   8.553
 6123POPC   D2A16960   0.486  11.301   8.253
 6123POPC   C3A16961   0.480  11.261   7.953
 6123POPC   C4A16962   0.415  11.260   7.653
 6123POPC   C1B16963   0.271  11.445   8.553
 6123POPC   C2B16964   0.298  11.465   8.253
 6123POPC   C3B16965   0.301  11.429   7.953
 6123POPC   C4B16966   0.273  11.464   7.653
 6124POPC   NC316967   2.811  23.737   9.453
 6124POPC   PO416968   2.764  23.724   9.153
 6124POPC   GL116969   2.729  23.711   8.853
 6124POPC   GL216970   2.907  23.757   8.853
 6124POPC   C1A16971   2.763  23.696   8.553
 6124POPC   D2A16972   2.758  23.692   8.253
 6124POPC   C3A16973   2.802  23.720   7.953
 6124POPC   C4A16974   2.729  23.680   7.653
 6124POPC   C1B16975   2.968  23.750   8.553
 6124POPC   C2B16976   3.030  23.759   8.253
 6124POPC   C3B16977   3.010  23.805   7.953
 6124POPC   C4B16978   3.005  23.739   7.653
 6125POPC   NC316979   3.536  29.967   9.453
 6125POPC   PO416980   3.501  29.940   9.153
 6125POPC   GL116981   3.519  29.889   8.853
 6125POPC   GL216982   3.615  30.046   8.853
 6125POPC   C1A16983   3.546  29.892   8.553
 6125POPC   D2A16984   3.587  29.935   8.253
 6125POPC   C3A16985   3.585  29.887   7.953
 6125POPC   C4A16986   3.573  29.905   7.653
 6125POPC   C1B16987   3.702  30.103   8.553
 6125POPC   C2B16988   3.674  30.151   8.253
 6125POPC   C3B16989   3.695  30.103   7.953
 6125POPC   C4B16990   3.702  30.168   7.653
 6126POPC   NC316991   0.395  36.099   9.453
 6126POPC   PO416992   0.439  36.132   9.153
 6126POPC   GL116993   0.436  36.081   8.853
 6126POPC   GL216994   0.480  36.038   8.853
 6126POPC   C1A16995   0.470  36.105   8.553
 6126POPC   D2A16996   0.474  36.079   8.253
 6126POPC   C3A16997   0.448  36.152   7.953
 6126POPC   C4A16998   0.461  36.175   7.653
 6126POPC   C1B16999   0.453  35.891   8.553
 6126POPC   C2B17000   0.499  35.882   8.253
 6126POPC   C3B17001   0.453  35.923   7.953
 6126POPC   C4B17002   0.477  35.864   7.653
 6127POPC   NC317003  32.251  43.893   9.453
 6127POPC   PO417004  32.206  43.927   9.153
 6127POPC   GL117005  32.228  43.888   8.853
 6127POPC   GL217006  32.140  43.838   8.853
 6127POPC   C1A17007  32.209  43.880   8.553
 6127POPC   D2A17008  32.214  43.891   8.253
 6127POPC   C3A17009  32.233  43.863   7.953
 6127POPC   C4A17010  32.207  43.924   7.653
 6127POPC   C1B17011  31.967  43.834   8.553
 6127POPC   C2B17012  32.046  43.872   8.253
 6127POPC   C3B17013  32.053  43.793   7.953
 6127POPC   C4B17014  31.994  43.799   7.653
 6128POPC   NC317015  21.383  36.860   9.453
 6128POPC   PO417016  21.355  36.940   9.153
 6128POPC   GL117017  21.350  36.885   8.853
 6128POPC   GL217018  21.452  36.743   8.853
 6128POPC   C1A17019  21.348  36.939   8.553
 6128POPC   D2A17020  21.393  36.879   8.253
 6128POPC   C3A17021  21.348  36.950   7.953
 6128POPC   C4A17022  21.418  36.862   7.653
 6128POPC   C1B17023  21.410  36.641   8.553
 6128POPC   C2B17024  21.487  36.667   8.253
 6128POPC   C3B17025  21.489  36.655   7.953
 6128POPC   C4B17026  21.499  36.648   7.653
 6129POPC   NC317027  29.185   4.363   9.453
 6129POPC   PO417028  29.176   4.363   9.153
 6129POPC   GL117029  29.136   4.304   8.853
 6129POPC   GL217030  29.047   4.218   8.853
 6129POPC   C1A17031  29.137   4.281   8.553
 6129POPC   D2A17032  29.160   4.317   8.253
 6129POPC   C3A17033  29.170   4.356   7.953
 6129POPC   C4A17034  29.163   4.366   7.653
 6129POPC   C1B17035  29.033   4.112   8.553
 6129POPC   C2B17036  29.064   4.096   8.253
 6129POPC   C3B17037  29.035   4.072   7.953
 6129POPC   C4B17038  29.057   4.128   7.653
 6130POPC   NC317039  36.886  19.023   9.453
 6130POPC   PO417040  36.869  19.012   9.153
 6130POPC   GL117041  36.929  19.084   8.853
 6130POPC   GL217042  36.860  18.997   8.853
 6130POPC   C1A17043  36.912  19.010   8.553
 6130POPC   D2A17044  36.872  19.091   8.253
 6130POPC   C3A17045  36.860  19.067   7.953
 6130POPC   C4A17046  36.919  19.102   7.653
 6130POPC   C1B17047  36.786  18.870   8.553
 6130POPC   C2B17048  36.734  18.891   8.253
 6130POPC   C3B17049  36.822  18.832   7.953
 6130POPC   C4B17050  36.818  18.880   7.653
 6131POPC   NC317051  25.311  10.486   9.453
 6131POPC   PO417052  25.256  10.484   9.153
 6131POPC   GL117053  25.252  10.508   8.853
 6131POPC   GL217054  25.143  10.498   8.853
 6131POPC   C1A17055  25.283  10.554   8.553
 6131POPC   D2A17056  25.269  10.532   8.253
 6131POPC   C3A17057  25.220  10.494   7.953
 6131POPC   C4A17058  25.312  10.534   7.653
 6131POPC   C1B17059  25.079  10.378   8.553
 6131POPC   C2B17060  25.081  10.458   8.253
 6131POPC   C3B17061  25.046  10.417   7.953
 6131POPC   C4B17062  25.006  10.451   7.653
 6132POPC   NC317063  30.666  33.050   9.453
 6132POPC   PO417064  30.713  32.979   9.153
 6132POPC   GL117065  30.685  33.033   8.853
 6132POPC   GL217066  30.809  33.147   8.853
 6132POPC   C1A17067  30.694  33.042   8.553
 6132POPC   D2A17068  30.702  33.037   8.253
 6132POPC   C3A17069  30.674  32.989   7.953
 6132POPC   C4A17070  30.731  32.984   7.653
 6132POPC   C1B17071  30.872  33.222   8.553
 6132POPC   C2B17072  30.910  33.147   8.253
 6132POPC   C3B17073  30.929  33.189   7.953
 6132POPC   C4B17074  30.881  33.222   7.653
 6133POPC   NC317075   1.211   1.945   9.453
 6133POPC   PO417076   1.207   1.993   9.153
 6133POPC   GL117077   1.207   2.036   8.853
 6133POPC   GL217078   1.344   2.034   8.853
 6133POPC   C1A17079   1.186   1.954   8.553
 6133POPC   D2A17080   1.261   1.960   8.253
 6133POPC   C3A17081   1.199   2.016   7.953
 6133POPC   C4A17082   1.174   1.974   7.653
 6133POPC   C1B17083   1.440   2.005   8.553
 6133POPC   C2B17084   1.488   2.072   8.253
 6133POPC   C3B17085   1.502   2.009   7.953
 6133POPC   C4B17086   1.410   2.012   7.653
 6134POPC   NC317087   8.156   4.300   9.453
 6134POPC   PO417088   8.151   4.321   9.153
 6134POPC   GL117089   8.221   4.366   8.853
 6134POPC   GL217090   8.345   4.344   8.853
 6134POPC   C1A17091   8.211   4.289   8.553
 6134POPC   D2A17092   8.211   4.350   8.253
 6134POPC   C3A17093   8.147   4.363   7.953
 6134POPC   C4A17094   8.154   4.364   7.653
 6134POPC   C1B17095   8.454   4.367   8.553
 6134POPC   C2B17096   8.441   4.361   8.253
 6134POPC   C3B17097   8.455   4.388   7.953
 6134POPC   C4B17098   8.395   4.419   7.653
 6135POPC   NC317099  28.395  20.641   9.453
 6135POPC   PO417100  28.360  20.653   9.153
 6135POPC   GL117101  28.375  20.611   8.853
 6135POPC   GL217102  28.523  20.559   8.853
 6135POPC   C1A17103  28.407  20.624   8.553
 6135POPC   D2A17104  28.388  20.601   8.253
 6135POPC   C3A17105  28.328  20.606   7.953
 6135POPC   C4A17106  28.406  20.562   7.653
 6135POPC   C1B17107  28.636  20.446   8.553
 6135POPC   C2B17108  28.626  20.460   8.253
 6135POPC   C3B17109  28.580  20.510   7.953
 6135POPC   C4B17110  28.569  20.455   7.653
 6136POPC   NC317111  44.658  40.756   9.453
 6136POPC   PO417112  44.648  40.806   9.153
 6136POPC   GL117113  44.682  40.760   8.853
 6136POPC   GL217114  44.724  40.802   8.853
 6136POPC   C1A17115  44.694  40.768   8.553
 6136POPC   D2A17116  44.622  40.737   8.253
 6136POPC   C3A17117  44.676  40.740   7.953
 6136POPC   C4A17118  44.654  40.749   7.653
 6136POPC   C1B17119  44.872  40.877   8.553
 6136POPC   C2B17120  44.854  40.952   8.253
 6136POPC   C3B17121  44.870  40.911   7.953
 6136POPC   C4B17122  44.912  40.876   7.653
 6137POPC   NC317123  37.712  40.752   9.453
 6137POPC   PO417124  37.635  40.820   9.153
 6137POPC   GL117125  37.675  40.766   8.853
 6137POPC   GL217126  37.558  40.865   8.853
 6137POPC   C1A17127  37.648  40.805   8.553
 6137POPC   D2A17128  37.645  40.744   8.253
 6137POPC   C3A17129  37.651  40.756   7.953
 6137POPC   C4A17130  37.724  40.770   7.653
 6137POPC   C1B17131  37.470  40.968   8.553
 6137POPC   C2B17132  37.495  40.957   8.253
 6137POPC   C3B17133  37.530  41.002   7.953
 6137POPC   C4B17134  37.530  40.937   7.653
 6138POPC   NC317135   2.760  19.793   9.453
 6138POPC   PO417136   2.725  19.824   9.153
 6138POPC   GL117137   2.740  19.874   8.853
 6138POPC   GL217138   2.840  19.856   8.853
 6138POPC   C1A17139   2.747  19.787   8.553
 6138POPC   D2A17140   2.802  19.815   8.253
 6138POPC   C3A17141   2.806  19.838   7.953
 6138POPC   C4A17142   2.781  19.788   7.653
 6138POPC   C1B17143   2.989  19.868   8.553
 6138POPC   C2B17144   3.028  19.929   8.253
 6138POPC   C3B17145   3.031  19.932   7.953
 6138POPC   C4B17146   3.029  19.900   7.653
 6139POPC   NC317147   8.973  19.799   9.453
 6139POPC   PO417148   8.994  19.793   9.153
 6139POPC   GL117149   8.955  19.806   8.853
 6139POPC   GL217150   8.874  19.799   8.853
 6139POPC   C1A17151   9.008  19.819   8.553
 6139POPC   D2A17152   8.985  19.815   8.253
 6139POPC   C3A17153   8.979  19.856   7.953
 6139POPC   C4A17154   8.978  19.797   7.653
 6139POPC   C1B17155   8.762  19.753   8.553
 6139POPC   C2B17156   8.790  19.740   8.253
 6139POPC   C3B17157   8.744  19.708   7.953
 6139POPC   C4B17158   8.727  19.686   7.653
 6140POPC   NC317159  12.829  32.270   9.453
 6140POPC   PO417160  12.839  32.276   9.153
 6140POPC   GL117161  12.813  32.268   8.853
 6140POPC   GL217162  12.793  32.168   8.853
 6140POPC   C1A17163  12.825  32.217   8.553
 6140POPC   D2A17164  12.843  32.256   8.253
 6140POPC   C3A17165  12.841  32.220   7.953
 6140POPC   C4A17166  12.813  32.246   7.653
 6140POPC   C1B17167  12.720  31.987   8.553
 6140POPC   C2B17168  12.723  32.040   8.253
 6140POPC   C3B17169  12.797  32.044   7.953
 6140POPC   C4B17170  12.774  31.996   7.653
 6141POPC   NC317171  44.675  43.122   9.453
 6141POPC   PO417172  44.615  43.081   9.153
 6141POPC   GL117173  44.639  43.147   8.853
 6141POPC   GL217174  44.783  43.043   8.853
 6141POPC   C1A17175  44.640  43.132   8.553
 6141POPC   D2A17176  44.689  43.141   8.253
 6141POPC   C3A17177  44.693  43.120   7.953
 6141POPC   C4A17178  44.678  43.110   7.653
 6141POPC   C1B17179  44.862  43.016   8.553
 6141POPC   C2B17180  44.909  42.982   8.253
 6141POPC   C3B17181  44.873  42.934   7.953
 6141POPC   C4B17182  44.871  42.986   7.653
 6142POPC   NC317183  38.491  29.873   9.453
 6142POPC   PO417184  38.465  29.946   9.153
 6142POPC   GL117185  38.410  29.921   8.853
 6142POPC   GL217186  38.426  29.781   8.853
 6142POPC   C1A17187  38.498  29.929   8.553
 6142POPC   D2A17188  38.443  29.888   8.253
 6142POPC   C3A17189  38.445  29.891   7.953
 6142POPC   C4A17190  38.447  29.947   7.653
 6142POPC   C1B17191  38.422  29.709   8.553
 6142POPC   C2B17192  38.414  29.676   8.253
 6142POPC   C3B17193  38.337  29.696   7.953
 6142POPC   C4B17194  38.383  29.653   7.653
 6143POPC   NC317195  30.696   0.429   9.453
 6143POPC   PO417196  30.739   0.417   9.153
 6143POPC   GL117197  30.664   0.474   8.853
 6143POPC   GL217198  30.734   0.286   8.853
 6143POPC   C1A17199  30.676   0.414   8.553
 6143POPC   D2A17200  30.735   0.466   8.253
 6143POPC   C3A17201  30.704   0.415   7.953
 6143POPC   C4A17202  30.682   0.472   7.653
 6143POPC   C1B17203  30.853   0.223   8.553
 6143POPC   C2B17204  30.829   0.201   8.253
 6143POPC   C3B17205  30.846   0.220   7.953
 6143POPC   C4B17206  30.781   0.230   7.653
 6144POPC   NC317207   7.403  33.023   9.453
 6144POPC   PO417208   7.374  33.044   9.153
 6144POPC   GL117209   7.379  33.062   8.853
 6144POPC   GL217210   7.299  32.936   8.853
 6144POPC   C1A17211   7.373  32.978   8.553
 6144POPC   D2A17212   7.439  33.071   8.253
 6144POPC   C3A17213   7.411  33.012   7.953
 6144POPC   C4A17214   7.415  33.025   7.653
 6144POPC   C1B17215   7.245  32.801   8.553
 6144POPC   C2B17216   7.274  32.856   8.253
 6144POPC   C3B17217   7.252  32.849   7.953
 6144POPC   C4B17218   7.238  32.832   7.653
 6145POPC   NC317219   8.979  36.874   9.453
 6145POPC   PO417220   8.997  36.927   9.153
 6145POPC   GL117221   8.961  36.925   8.853
 6145POPC   GL217222   9.089  36.989   8.853
 6145POPC   C1A17223   8.940  36.913   8.553
 6145POPC   D2A17224   8.989  36.864   8.253
 6145POPC   C3A17225   8.929  36.865   7.953
 6145POPC   C4A17226   8.977  36.864   7.653
 6145POPC   C1B17227   9.182  37.093   8.553
 6145POPC   C2B17228   9.135  37.115   8.253
 6145POPC   C3B17229   9.167  37.034   7.953
 6145POPC   C4B17230   9.203  37.082   7.653
 6146POPC   NC317231  27.586  25.285   9.453
 6146POPC   PO417232  27.587  25.301   9.153
 6146POPC   GL117233  27.554  25.231   8.853
 6146POPC   GL217234  27.721  25.279   8.853
 6146POPC   C1A17235  27.563  25.248   8.553
 6146POPC   D2A17236  27.569  25.304   8.253
 6146POPC   C3A17237  27.621  25.308   7.953
 6146POPC   C4A17238  27.622  25.274   7.653
 6146POPC   C1B17239  27.814  25.375   8.553
 6146POPC   C2B17240  27.825  25.327   8.253
 6146POPC   C3B17241  27.850  25.380   7.953
 6146POPC   C4B17242  27.877  25.376   7.653
 6147POPC   NC317243  25.253  30.731   9.453
 6147POPC   PO417244  25.233  30.728   9.153
 6147POPC   GL117245  25.291  30.711   8.853
 6147POPC   GL217246  25.230  30.576   8.853
 6147POPC   C1A17247  25.295  30.663   8.553
 6147POPC   D2A17248  25.272  30.717   8.253
 6147POPC   C3A17249  25.284  30.691   7.953
 6147POPC   C4A17250  25.251  30.681   7.653
 6147POPC   C1B17251  25.225  30.422   8.553
 6147POPC   C2B17252  25.180  30.477   8.253
 6147POPC   C3B17253  25.149  30.420   7.953
 6147POPC   C4B17254  25.151  30.436   7.653
 6148POPC   NC317255   5.105  37.688   9.453
 6148POPC   PO417256   5.117  37.644   9.153
 6148POPC   GL117257   5.090  37.686   8.853
 6148POPC   GL217258   5.119  37.811   8.853
 6148POPC   C1A17259   5.094  37.724   8.553
 6148POPC   D2A17260   5.099  37.684   8.253
 6148POPC   C3A17261   5.046  37.645   7.953
 6148POPC   C4A17262   5.106  37.696   7.653
 6148POPC   C1B17263   5.173  37.888   8.553
 6148POPC   C2B17264   5.170  37.928   8.253
 6148POPC   C3B17265   5.121  37.878   7.953
 6148POPC   C4B17266   5.117  37.883   7.653
 6149POPC   NC317267  32.984  37.633   9.453
 6149POPC   PO417268  33.034  37.631   9.153
 6149POPC   GL117269  32.998  37.648   8.853
 6149POPC   GL217270  32.895  37.584   8.853
 6149POPC   C1A17271  33.013  37.695   8.553
 6149POPC   D2A17272  32.990  37.716   8.253
 6149POPC   C3A17273  33.005  37.648   7.953
 6149POPC   C4A17274  33.066  37.689   7.653
 6149POPC   C1B17275  32.781  37.608   8.553
 6149POPC   C2B17276  32.786  37.537   8.253
 6149POPC   C3B17277  32.820  37.525   7.953
 6149POPC   C4B17278  32.825  37.550   7.653
 6150POPC   NC317279  10.503  28.352   9.453
 6150POPC   PO417280  10.504  28.410   9.153
 6150POPC   GL117281  10.556  28.337   8.853
 6150POPC   GL217282  10.457  28.457   8.853
 6150POPC   C1A17283  10.558  28.351   8.553
 6150POPC   D2A17284  10.562  28.386   8.253
 6150POPC   C3A17285  10.563  28.364   7.953
 6150POPC   C4A17286  10.532  28.378   7.653
 6150POPC   C1B17287  10.507  28.627   8.553
 6150POPC   C2B17288  10.444  28.583   8.253
 6150POPC   C3B17289  10.447  28.594   7.953
 6150POPC   C4B17290  10.465  28.589   7.653
 6151POPC   NC317291  17.460  11.295   9.453
 6151POPC   PO417292  17.546  11.302   9.153
 6151POPC   GL117293  17.528  11.262   8.853
 6151POPC   GL217294  17.627  11.236   8.853
 6151POPC   C1A17295  17.489  11.283   8.553
 6151POPC   D2A17296  17.544  11.315   8.253
 6151POPC   C3A17297  17.548  11.251   7.953
 6151POPC   C4A17298  17.543  11.314   7.653
 6151POPC   C1B17299  17.797  11.202   8.553
 6151POPC   C2B17300  17.704  11.278   8.253
 6151POPC   C3B17301  17.728  11.219   7.953
 6151POPC   C4B17302  17.711  11.294   7.653
 6152POPC   NC317303  15.217  10.488   9.453
 6152POPC   PO417304  15.143  10.514   9.153
 6152POPC   GL117305  15.140  10.543   8.853
 6152POPC   GL217306  15.074  10.437   8.853
 6152POPC   C1A17307  15.190  10.544   8.553
 6152POPC   D2A17308  15.173  10.550   8.253
 6152POPC   C3A17309  15.200  10.547   7.953
 6152POPC   C4A17310  15.164  10.560   7.653
 6152POPC   C1B17311  15.001  10.314   8.553
 6152POPC   C2B17312  15.027  10.302   8.253
 6152POPC   C3B17313  15.040  10.341   7.953
 6152POPC   C4B17314  14.979  10.337   7.653
 6153POPC   NC317315  27.588  17.475   9.453
 6153POPC   PO417316  27.627  17.528   9.153
 6153POPC   GL117317  27.561  17.507   8.853
 6153POPC   GL217318  27.566  17.677   8.853
 6153POPC   C1A17319  27.562  17.509   8.553
 6153POPC   D2A17320  27.610  17.548   8.253
 6153POPC   C3A17321  27.607  17.472   7.953
 6153POPC   C4A17322  27.587  17.491   7.653
 6153POPC   C1B17323  27.589  17.774   8.553
 6153POPC   C2B17324  27.614  17.772   8.253
 6153POPC   C3B17325  27.587  17.745   7.953
 6153POPC   C4B17326  27.602  17.770   7.653
 6154POPC   NC317327  31.438  29.882   9.453
 6154POPC   PO417328  31.436  29.959   9.153
 6154POPC   GL117329  31.514  29.921   8.853
 6154POPC   GL217330  31.389  29.919   8.853
 6154POPC   C1A17331  31.451  29.881   8.553
 6154POPC   D2A17332  31.454  29.970   8.253
 6154POPC   C3A17333  31.478  29.897   7.953
 6154POPC   C4A17334  31.445  29.943   7.653
 6154POPC   C1B17335  31.198  29.924   8.553
 6154POPC   C2B17336  31.221  29.945   8.253
 6154POPC   C3B17337  31.181  29.907   7.953
 6154POPC   C4B17338  31.219  29.927   7.653
 6155POPC   NC317339  40.779   4.323   9.453
 6155POPC   PO417340  40.797   4.307   9.153
 6155POPC   GL117341  40.823   4.278   8.853
 6155POPC   GL217342  40.817   4.204   8.853
 6155POPC   C1A17343  40.798   4.311   8.553
 6155POPC   D2A17344  40.821   4.290   8.253
 6155POPC   C3A17345  40.785   4.326   7.953
 6155POPC   C4A17346  40.734   4.292   7.653
 6155POPC   C1B17347  40.878   4.034   8.553
 6155POPC   C2B17348  40.878   4.032   8.253
 6155POPC   C3B17349  40.839   4.064   7.953
 6155POPC   C4B17350  40.797   4.042   7.653
 6156POPC   NC317351  35.327  12.080   9.453
 6156POPC   PO417352  35.360  12.041   9.153
 6156POPC   GL117353  35.400  12.123   8.853
 6156POPC   GL217354  35.289  11.957   8.853
 6156POPC   C1A17355  35.328  12.122   8.553
 6156POPC   D2A17356  35.368  12.091   8.253
 6156POPC   C3A17357  35.375  12.090   7.953
 6156POPC   C4A17358  35.357  12.075   7.653
 6156POPC   C1B17359  35.250  11.883   8.553
 6156POPC   C2B17360  35.293  11.799   8.253
 6156POPC   C3B17361  35.258  11.816   7.953
 6156POPC   C4B17362  35.259  11.868   7.653
 6157POPC   NC317363  38.495   0.405   9.453
 6157POPC   PO417364  38.406   0.463   9.153
 6157POPC   GL117365  38.465   0.403   8.853
 6157POPC   GL217366  38.310   0.454   8.853
 6157POPC   C1A17367  38.421   0.408   8.553
 6157POPC   D2A17368  38.499   0.428   8.253
 6157POPC   C3A17369  38.429   0.402   7.953
 6157POPC   C4A17370  38.484   0.423   7.653
 6157POPC   C1B17371  38.249   0.582   8.553
 6157POPC   C2B17372  38.210   0.554   8.253
 6157POPC   C3B17373  38.223   0.594   7.953
 6157POPC   C4B17374  38.186   0.592   7.653
 6158POPC   NC317375  26.771  10.509   9.453
 6158POPC   PO417376  26.816  10.554   9.153
 6158POPC   GL117377  26.821  10.507   8.853
 6158POPC   GL217378  26.756  10.464   8.853
 6158POPC   C1A17379  26.827  10.525   8.553
 6158POPC   D2A17380  26.830  10.541   8.253
 6158POPC   C3A17381  26.808  10.486   7.953
 6158POPC   C4A17382  26.805  10.508   7.653
 6158POPC   C1B17383  26.613  10.376   8.553
 6158POPC   C2B17384  26.597  10.442   8.253
 6158POPC   C3B17385  26.580  10.409   7.953
 6158POPC   C4B17386  26.574  10.374   7.653
 6159POPC   NC317387  23.721  34.549   9.453
 6159POPC   PO417388  23.697  34.612   9.153
 6159POPC   GL117389  23.717  34.620   8.853
 6159POPC   GL217390  23.698  34.718   8.853
 6159POPC   C1A17391  23.717  34.603   8.553
 6159POPC   D2A17392  23.671  34.565   8.253
 6159POPC   C3A17393  23.706  34.604   7.953
 6159POPC   C4A17394  23.732  34.543   7.653
 6159POPC   C1B17395  23.672  34.830   8.553
 6159POPC   C2B17396  23.614  34.828   8.253
 6159POPC   C3B17397  23.653  34.778   7.953
 6159POPC   C4B17398  23.598  34.774   7.653
 6160POPC   NC317399  34.571  34.583   9.453
 6160POPC   PO417400  34.575  34.623   9.153
 6160POPC   GL117401  34.542  34.598   8.853
 6160POPC   GL217402  34.584  34.669   8.853
 6160POPC   C1A17403  34.615  34.538   8.553
 6160POPC   D2A17404  34.623  34.580   8.253
 6160POPC   C3A17405  34.549  34.611   7.953
 6160POPC   C4A17406  34.610  34.551   7.653
 6160POPC   C1B17407  34.559  34.791   8.553
 6160POPC   C2B17408  34.512  34.866   8.253
 6160POPC   C3B17409  34.503  34.784   7.953
 6160POPC   C4B17410  34.496  34.812   7.653
 6161POPC   NC317411  20.647   9.787   9.453
 6161POPC   PO417412  20.589   9.700   9.153
 6161POPC   GL117413  20.632   9.700   8.853
 6161POPC   GL217414  20.756   9.766   8.853
 6161POPC   C1A17415  20.642   9.743   8.553
 6161POPC   D2A17416  20.625   9.712   8.253
 6161POPC   C3A17417  20.610   9.770   7.953
 6161POPC   C4A17418  20.609   9.709   7.653
 6161POPC   C1B17419  20.874   9.854   8.553
 6161POPC   C2B17420  20.815   9.846   8.253
 6161POPC   C3B17421  20.827   9.833   7.953
 6161POPC   C4B17422  20.853   9.843   7.653
 6162POPC   NC317423  33.000  32.199   9.453
 6162POPC   PO417424  33.052  32.269   9.153
 6162POPC   GL117425  32.978  32.214   8.853
 6162POPC   GL217426  32.888  32.336   8.853
 6162POPC   C1A17427  33.058  32.289   8.553
 6162POPC   D2A17428  33.068  32.225   8.253
 6162POPC   C3A17429  33.068  32.242   7.953
 6162POPC   C4A17430  32.994  32.257   7.653
 6162POPC   C1B17431  32.850  32.399   8.553
 6162POPC   C2B17432  32.807  32.421   8.253
 6162POPC   C3B17433  32.871  32.415   7.953
 6162POPC   C4B17434  32.806  32.433   7.653
 6163POPC   NC317435  39.238  18.244   9.453
 6163POPC   PO417436  39.193  18.296   9.153
 6163POPC   GL117437  39.234  18.247   8.853
 6163POPC   GL217438  39.390  18.306   8.853
 6163POPC   C1A17439  39.232  18.239   8.553
 6163POPC   D2A17440  39.271  18.278   8.253
 6163POPC   C3A17441  39.272  18.266   7.953
 6163POPC   C4A17442  39.238  18.312   7.653
 6163POPC   C1B17443  39.442  18.306   8.553
 6163POPC   C2B17444  39.440  18.246   8.253
 6163POPC   C3B17445  39.496  18.337   7.953
 6163POPC   C4B17446  39.434  18.335   7.653
 6164POPC   NC317447  26.076  12.882   9.453
 6164POPC   PO417448  26.032  12.847   9.153
 6164POPC   GL117449  26.004  12.846   8.853
 6164POPC   GL217450  26.143  12.748   8.853
 6164POPC   C1A17451  26.049  12.817   8.553
 6164POPC   D2A17452  26.025  12.837   8.253
 6164POPC   C3A17453  26.067  12.881   7.953
 6164POPC   C4A17454  26.087  12.885   7.653
 6164POPC   C1B17455  26.217  12.667   8.553
 6164POPC   C2B17456  26.164  12.621   8.253
 6164POPC   C3B17457  26.136  12.656   7.953
 6164POPC   C4B17458  26.138  12.605   7.653
 6165POPC   NC317459   1.941  12.818   9.453
 6165POPC   PO417460   2.002  12.867   9.153
 6165POPC   GL117461   1.956  12.807   8.853
 6165POPC   GL217462   2.069  12.923   8.853
 6165POPC   C1A17463   1.971  12.846   8.553
 6165POPC   D2A17464   1.992  12.829   8.253
 6165POPC   C3A17465   1.942  12.864   7.953
 6165POPC   C4A17466   2.007  12.817   7.653
 6165POPC   C1B17467   2.137  13.085   8.553
 6165POPC   C2B17468   2.056  13.128   8.253
 6165POPC   C3B17469   2.045  13.125   7.953
 6165POPC   C4B17470   2.067  13.090   7.653
 6166POPC   NC317471   1.183  26.070   9.453
 6166POPC   PO417472   1.198  26.086   9.153
 6166POPC   GL117473   1.232  26.082   8.853
 6166POPC   GL217474   1.346  25.965   8.853
 6166POPC   C1A17475   1.170  26.025   8.553
 6166POPC   D2A17476   1.242  26.074   8.253
 6166POPC   C3A17477   1.174  26.054   7.953
 6166POPC   C4A17478   1.219  26.068   7.653
 6166POPC   C1B17479   1.404  25.866   8.553
 6166POPC   C2B17480   1.430  25.922   8.253
 6166POPC   C3B17481   1.417  25.934   7.953
 6166POPC   C4B17482   1.419  25.873   7.653
 6167POPC   NC317483   8.998  31.448   9.453
 6167POPC   PO417484   8.955  31.513   9.153
 6167POPC   GL117485   8.947  31.438   8.853
 6167POPC   GL217486   8.893  31.383   8.853
 6167POPC   C1A17487   8.963  31.454   8.553
 6167POPC   D2A17488   8.993  31.429   8.253
 6167POPC   C3A17489   8.951  31.517   7.953
 6167POPC   C4A17490   8.934  31.485   7.653
 6167POPC   C1B17491   8.742  31.388   8.553
 6167POPC   C2B17492   8.789  31.367   8.253
 6167POPC   C3B17493   8.767  31.345   7.953
 6167POPC   C4B17494   8.727  31.343   7.653
 6168POPC   NC317495  37.633  43.871   9.453
 6168POPC   PO417496  37.713  43.923   9.153
 6168POPC   GL117497  37.641  43.878   8.853
 6168POPC   GL217498  37.696  43.734   8.853
 6168POPC   C1A17499  37.719  43.840   8.553
 6168POPC   D2A17500  37.684  43.888   8.253
 6168POPC   C3A17501  37.707  43.912   7.953
 6168POPC   C4A17502  37.693  43.928   7.653
 6168POPC   C1B17503  37.684  43.608   8.553
 6168POPC   C2B17504  37.650  43.598   8.253
 6168POPC   C3B17505  37.677  43.616   7.953
 6168POPC   C4B17506  37.617  43.650   7.653
 6169POPC   NC317507  24.514  20.611   9.453
 6169POPC   PO417508  24.487  20.605   9.153
 6169POPC   GL117509  24.474  20.617   8.853
 6169POPC   GL217510  24.534  20.534   8.853
 6169POPC   C1A17511  24.489  20.573   8.553
 6169POPC   D2A17512  24.526  20.619   8.253
 6169POPC   C3A17513  24.512  20.610   7.953
 6169POPC   C4A17514  24.531  20.622   7.653
 6169POPC   C1B17515  24.527  20.358   8.553
 6169POPC   C2B17516  24.540  20.372   8.253
 6169POPC   C3B17517  24.584  20.346   7.953
 6169POPC   C4B17518  24.512  20.359   7.653
 6170POPC   NC317519   7.461  10.573   9.453
 6170POPC   PO417520   7.449  10.546   9.153
 6170POPC   GL117521   7.422  10.570   8.853
 6170POPC   GL217522   7.477  10.400   8.853
 6170POPC   C1A17523   7.468  10.491   8.553
 6170POPC   D2A17524   7.404  10.558   8.253
 6170POPC   C3A17525   7.455  10.492   7.953
 6170POPC   C4A17526   7.449  10.543   7.653
 6170POPC   C1B17527   7.668  10.411   8.553
 6170POPC   C2B17528   7.612  10.343   8.253
 6170POPC   C3B17529   7.613  10.361   7.953
 6170POPC   C4B17530   7.589  10.344   7.653
 6171POPC   NC317531   5.063   0.401   9.453
 6171POPC   PO417532   5.057   0.487   9.153
 6171POPC   GL117533   5.120   0.469   8.853
 6171POPC   GL217534   5.096   0.367   8.853
 6171POPC   C1A17535   5.139   0.452   8.553
 6171POPC   D2A17536   5.075   0.395   8.253
 6171POPC   C3A17537   5.139   0.448   7.953
 6171POPC   C4A17538   5.121   0.432   7.653
 6171POPC   C1B17539   5.067   0.155   8.553
 6171POPC   C2B17540   4.981   0.194   8.253
 6171POPC   C3B17541   5.015   0.233   7.953
 6171POPC   C4B17542   5.065   0.174   7.653
 6172POPC   NC317543  28.414  15.945   9.453
 6172POPC   PO417544  28.368  15.936   9.153
 6172POPC   GL117545  28.405  15.955   8.853
 6172POPC   GL217546  28.346  16.100   8.853
 6172POPC   C1A17547  28.359  15.980   8.553
 6172POPC   D2A17548  28.359  15.964   8.253
 6172POPC   C3A17549  28.381  15.960   7.953
 6172POPC   C4A17550  28.400  15.974   7.653
 6172POPC   C1B17551  28.340  16.188   8.553
 6172POPC   C2B17552  28.417  16.226   8.253
 6172POPC   C3B17553  28.342  16.187   7.953
 6172POPC   C4B17554  28.376  16.233   7.653
 6173POPC   NC317555  33.842  31.471   9.453
 6173POPC   PO417556  33.809  31.442   9.153
 6173POPC   GL117557  33.849  31.515   8.853
 6173POPC   GL217558  33.685  31.532   8.853
 6173POPC   C1A17559  33.793  31.423   8.553
 6173POPC   D2A17560  33.805  31.451   8.253
 6173POPC   C3A17561  33.787  31.478   7.953
 6173POPC   C4A17562  33.777  31.431   7.653
 6173POPC   C1B17563  33.598  31.513   8.553
 6173POPC   C2B17564  33.522  31.548   8.253
 6173POPC   C3B17565  33.595  31.591   7.953
 6173POPC   C4B17566  33.555  31.526   7.653
 6174POPC   NC317567  41.545  35.309   9.453
 6174POPC   PO417568  41.521  35.342   9.153
 6174POPC   GL117569  41.583  35.401   8.853
 6174POPC   GL217570  41.488  35.337   8.853
 6174POPC   C1A17571  41.512  35.391   8.553
 6174POPC   D2A17572  41.518  35.397   8.253
 6174POPC   C3A17573  41.524  35.387   7.953
 6174POPC   C4A17574  41.590  35.318   7.653
 6174POPC   C1B17575  41.306  35.220   8.553
 6174POPC   C2B17576  41.334  35.307   8.253
 6174POPC   C3B17577  41.334  35.245   7.953
 6174POPC   C4B17578  41.317  35.217   7.653
 6175POPC   NC317579  33.765   3.514   9.453
 6175POPC   PO417580  33.756   3.493   9.153
 6175POPC   GL117581  33.776   3.526   8.853
 6175POPC   GL217582  33.911   3.500   8.853
 6175POPC   C1A17583  33.761   3.570   8.553
 6175POPC   D2A17584  33.795   3.497   8.253
 6175POPC   C3A17585  33.818   3.500   7.953
 6175POPC   C4A17586  33.825   3.565   7.653
 6175POPC   C1B17587  34.031   3.447   8.553
 6175POPC   C2B17588  34.013   3.416   8.253
 6175POPC   C3B17589  33.992   3.483   7.953
 6175POPC   C4B17590  34.032   3.488   7.653
 6176POPC   NC317591   1.248   2.770   9.453
 6176POPC   PO417592   1.166   2.806   9.153
 6176POPC   GL117593   1.223   2.799   8.853
 6176POPC   GL217594   1.224   2.899   8.853
 6176POPC   C1A17595   1.175   2.807   8.553
 6176POPC   D2A17596   1.203   2.804   8.253
 6176POPC   C3A17597   1.255   2.761   7.953
 6176POPC   C4A17598   1.175   2.766   7.653
 6176POPC   C1B17599   1.200   3.054   8.553
 6176POPC   C2B17600   1.138   3.045   8.253
 6176POPC   C3B17601   1.182   3.017   7.953
 6176POPC   C4B17602   1.211   3.019   7.653
 6177POPC   NC317603   6.641  33.817   9.453
 6177POPC   PO417604   6.641  33.849   9.153
 6177POPC   GL117605   6.679  33.764   8.853
 6177POPC   GL217606   6.492  33.835   8.853
 6177POPC   C1A17607   6.639  33.767   8.553
 6177POPC   D2A17608   6.665  33.778   8.253
 6177POPC   C3A17609   6.664  33.791   7.953
 6177POPC   C4A17610   6.605  33.772   7.653
 6177POPC   C1B17611   6.431  33.840   8.553
 6177POPC   C2B17612   6.413  33.800   8.253
 6177POPC   C3B17613   6.431  33.878   7.953
 6177POPC   C4B17614   6.411  33.865   7.653
 6178POPC   NC317615   2.025  18.299   9.453
 6178POPC   PO417616   1.961  18.301   9.153
 6178POPC   GL117617   1.949  18.249   8.853
 6178POPC   GL217618   2.134  18.357   8.853
 6178POPC   C1A17619   2.000  18.326   8.553
 6178POPC   D2A17620   2.020  18.312   8.253
 6178POPC   C3A17621   1.940  18.262   7.953
 6178POPC   C4A17622   1.953  18.287   7.653
 6178POPC   C1B17623   2.259  18.305   8.553
 6178POPC   C2B17624   2.196  18.323   8.253
 6178POPC   C3B17625   2.258  18.335   7.953
 6178POPC   C4B17626   2.268  18.315   7.653
 6179POPC   NC317627   1.183  29.157   9.453
 6179POPC   PO417628   1.197  29.176   9.153
 6179POPC   GL117629   1.210  29.111   8.853
 6179POPC   GL217630   1.330  29.073   8.853
 6179POPC   C1A17631   1.173  29.164   8.553
 6179POPC   D2A17632   1.187  29.175   8.253
 6179POPC   C3A17633   1.186  29.161   7.953
 6179POPC   C4A17634   1.217  29.172   7.653
 6179POPC   C1B17635   1.449  29.046   8.553
 6179POPC   C2B17636   1.442  29.051   8.253
 6179POPC   C3B17637   1.407  29.091   7.953
 6179POPC   C4B17638   1.497  29.069   7.653
 6180POPC   NC317639  30.673  12.825   9.453
 6180POPC   PO417640  30.658  12.803   9.153
 6180POPC   GL117641  30.727  12.871   8.853
 6180POPC   GL217642  30.798  12.803   8.853
 6180POPC   C1A17643  30.686  12.813   8.553
 6180POPC   D2A17644  30.739  12.824   8.253
 6180POPC   C3A17645  30.665  12.878   7.953
 6180POPC   C4A17646  30.657  12.820   7.653
 6180POPC   C1B17647  30.937  12.825   8.553
 6180POPC   C2B17648  30.990  12.787   8.253
 6180POPC   C3B17649  30.978  12.857   7.953
 6180POPC   C4B17650  30.972  12.871   7.653
 6181POPC   NC317651  15.960   3.583   9.453
 6181POPC   PO417652  15.974   3.579   9.153
 6181POPC   GL117653  15.932   3.499   8.853
 6181POPC   GL217654  16.046   3.495   8.853
 6181POPC   C1A17655  15.962   3.497   8.553
 6181POPC   D2A17656  15.974   3.552   8.253
 6181POPC   C3A17657  15.966   3.524   7.953
 6181POPC   C4A17658  15.938   3.549   7.653
 6181POPC   C1B17659  16.125   3.318   8.553
 6181POPC   C2B17660  16.120   3.311   8.253
 6181POPC   C3B17661  16.083   3.314   7.953
 6181POPC   C4B17662  16.131   3.315   7.653
 6182POPC   NC317663  20.584  19.869   9.453
 6182POPC   PO417664  20.649  19.863   9.153
 6182POPC   GL117665  20.609  19.858   8.853
 6182POPC   GL217666  20.705  19.683   8.853
 6182POPC   C1A17667  20.649  19.806   8.553
 6182POPC   D2A17668  20.586  19.875   8.253
 6182POPC   C3A17669  20.589  19.802   7.953
 6182POPC   C4A17670  20.582  19.842   7.653
 6182POPC   C1B17671  20.674  19.619   8.553
 6182POPC   C2B17672  20.688  19.586   8.253
 6182POPC   C3B17673  20.752  19.568   7.953
 6182POPC   C4B17674  20.664  19.605   7.653
 6183POPC   NC317675  40.746  37.650   9.453
 6183POPC   PO417676  40.820  37.720   9.153
 6183POPC   GL117677  40.743  37.705   8.853
 6183POPC   GL217678  40.665  37.790   8.853
 6183POPC   C1A17679  40.743  37.658   8.553
 6183POPC   D2A17680  40.749  37.635   8.253
 6183POPC   C3A17681  40.830  37.670   7.953
 6183POPC   C4A17682  40.772  37.722   7.653
 6183POPC   C1B17683  40.536  37.836   8.553
 6183POPC   C2B17684  40.550  37.827   8.253
 6183POPC   C3B17685  40.564  37.850   7.953
 6183POPC   C4B17686  40.607  37.860   7.653
 6184POPC   NC317687  19.016  25.311   9.453
 6184POPC   PO417688  19.018  25.308   9.153
 6184POPC   GL117689  19.102  25.311   8.853
 6184POPC   GL217690  19.000  25.249   8.853
 6184POPC   C1A17691  19.021  25.255   8.553
 6184POPC   D2A17692  19.015  25.249   8.253
 6184POPC   C3A17693  19.062  25.241   7.953
 6184POPC   C4A17694  19.017  25.244   7.653
 6184POPC   C1B17695  18.823  25.169   8.553
 6184POPC   C2B17696  18.895  25.145   8.253
 6184POPC   C3B17697  18.809  25.165   7.953
 6184POPC   C4B17698  18.851  25.119   7.653
 6185POPC   NC317699  26.012  14.426   9.453
 6185POPC   PO417700  26.073  14.448   9.153
 6185POPC   GL117701  26.058  14.363   8.853
 6185POPC   GL217702  26.093  14.517   8.853
 6185POPC   C1A17703  26.079  14.408   8.553
 6185POPC   D2A17704  26.017  14.363   8.253
 6185POPC   C3A17705  26.043  14.381   7.953
 6185POPC   C4A17706  26.010  14.406   7.653
 6185POPC   C1B17707  26.094  14.664   8.553
 6185POPC   C2B17708  26.151  14.672   8.253
 6185POPC   C3B17709  26.114  14.681   7.953
 6185POPC   C4B17710  26.074  14.617   7.653
 6186POPC   NC317711  31.452  14.451   9.453
 6186POPC   PO417712  31.467  14.380   9.153
 6186POPC   GL117713  31.520  14.393   8.853
 6186POPC   GL217714  31.526  14.316   8.853
 6186POPC   C1A17715  31.460  14.373   8.553
 6186POPC   D2A17716  31.516  14.370   8.253
 6186POPC   C3A17717  31.466  14.436   7.953
 6186POPC   C4A17718  31.450  14.358   7.653
 6186POPC   C1B17719  31.562  14.167   8.553
 6186POPC   C2B17720  31.598  14.173   8.253
 6186POPC   C3B17721  31.600  14.171   7.953
 6186POPC   C4B17722  31.615  14.198   7.653
 6187POPC   NC317723  15.932  39.973   9.453
 6187POPC   PO417724  15.906  40.048   9.153
 6187POPC   GL117725  15.993  40.017   8.853
 6187POPC   GL217726  15.918  40.165   8.853
 6187POPC   C1A17727  15.971  40.022   8.553
 6187POPC   D2A17728  15.968  40.006   8.253
 6187POPC   C3A17729  15.938  39.974   7.953
 6187POPC   C4A17730  15.911  39.963   7.653
 6187POPC   C1B17731  15.878  40.211   8.553
 6187POPC   C2B17732  15.869  40.186   8.253
 6187POPC   C3B17733  15.820  40.232   7.953
 6187POPC   C4B17734  15.877  40.275   7.653
 6188POPC   NC317735   7.414  17.499   9.453
 6188POPC   PO417736   7.462  17.543   9.153
 6188POPC   GL117737   7.432  17.468   8.853
 6188POPC   GL217738   7.499  17.473   8.853
 6188POPC   C1A17739   7.435  17.552   8.553
 6188POPC   D2A17740   7.427  17.542   8.253
 6188POPC   C3A17741   7.380  17.482   7.953
 6188POPC   C4A17742   7.393  17.537   7.653
 6188POPC   C1B17743   7.692  17.466   8.553
 6188POPC   C2B17744   7.671  17.451   8.253
 6188POPC   C3B17745   7.681  17.458   7.953
 6188POPC   C4B17746   7.697  17.441   7.653
 6189POPC   NC317747  10.517  27.554   9.453
 6189POPC   PO417748  10.529  27.580   9.153
 6189POPC   GL117749  10.484  27.615   8.853
 6189POPC   GL217750  10.648  27.532   8.853
 6189POPC   C1A17751  10.572  27.583   8.553
 6189POPC   D2A17752  10.535  27.612   8.253
 6189POPC   C3A17753  10.544  27.597   7.953
 6189POPC   C4A17754  10.516  27.556   7.653
 6189POPC   C1B17755  10.743  27.381   8.553
 6189POPC   C2B17756  10.738  27.390   8.253
 6189POPC   C3B17757  10.720  27.447   7.953
 6189POPC   C4B17758  10.694  27.425   7.653
 6190POPC   NC317759  24.450  18.239   9.453
 6190POPC   PO417760  24.501  18.273   9.153
 6190POPC   GL117761  24.514  18.302   8.853
 6190POPC   GL217762  24.367  18.191   8.853
 6190POPC   C1A17763  24.460  18.243   8.553
 6190POPC   D2A17764  24.473  18.300   8.253
 6190POPC   C3A17765  24.454  18.332   7.953
 6190POPC   C4A17766  24.514  18.326   7.653
 6190POPC   C1B17767  24.355  18.093   8.553
 6190POPC   C2B17768  24.344  18.061   8.253
 6190POPC   C3B17769  24.295  18.055   7.953
 6190POPC   C4B17770  24.345  18.054   7.653
 6191POPC   NC317771   4.322  26.059   9.453
 6191POPC   PO417772   4.268  26.035   9.153
 6191POPC   GL117773   4.268  26.074   8.853
 6191POPC   GL217774   4.214  26.077   8.853
 6191POPC   C1A17775   4.280  26.006   8.553
 6191POPC   D2A17776   4.322  26.061   8.253
 6191POPC   C3A17777   4.362  26.071   7.953
 6191POPC   C4A17778   4.336  26.079   7.653
 6191POPC   C1B17779   4.119  26.095   8.553
 6191POPC   C2B17780   4.070  26.117   8.253
 6191POPC   C3B17781   4.059  26.118   7.953
 6191POPC   C4B17782   4.123  26.142   7.653
 6192POPC   NC317783  43.870  33.835   9.453
 6192POPC   PO417784  43.864  33.751   9.153
 6192POPC   GL117785  43.915  33.782   8.853
 6192POPC   GL217786  43.855  33.632   8.853
 6192POPC   C1A17787  43.904  33.837   8.553
 6192POPC   D2A17788  43.910  33.751   8.253
 6192POPC   C3A17789  43.903  33.795   7.953
 6192POPC   C4A17790  43.871  33.820   7.653
 6192POPC   C1B17791  43.765  33.572   8.553
 6192POPC   C2B17792  43.780  33.570   8.253
 6192POPC   C3B17793  43.797  33.543   7.953
 6192POPC   C4B17794  43.821  33.551   7.653
 6193POPC   NC317795   8.187  42.348   9.453
 6193POPC   PO417796   8.233  42.367   9.153
 6193POPC   GL117797   8.148  42.316   8.853
 6193POPC   GL217798   8.087  42.276   8.853
 6193POPC   C1A17799   8.226  42.340   8.553
 6193POPC   D2A17800   8.182  42.356   8.253
 6193POPC   C3A17801   8.164  42.294   7.953
 6193POPC   C4A17802   8.232  42.370   7.653
 6193POPC   C1B17803   7.950  42.159   8.553
 6193POPC   C2B17804   7.974  42.204   8.253
 6193POPC   C3B17805   7.955  42.172   7.953
 6193POPC   C4B17806   7.985  42.159   7.653
 6194POPC   NC317807  28.322   0.451   9.453
 6194POPC   PO417808  28.368   0.469   9.153
 6194POPC   GL117809  28.419   0.483   8.853
 6194POPC   GL217810  28.312   0.330   8.853
 6194POPC   C1A17811  28.391   0.469   8.553
 6194POPC   D2A17812  28.339   0.488   8.253
 6194POPC   C3A17813  28.382   0.420   7.953
 6194POPC   C4A17814  28.342   0.484   7.653
 6194POPC   C1B17815  28.172   0.338   8.553
 6194POPC   C2B17816  28.160   0.265   8.253
 6194POPC   C3B17817  28.127   0.291   7.953
 6194POPC   C4B17818  28.167   0.331   7.653
 6195POPC   NC317819  13.635   2.020   9.453
 6195POPC   PO417820  13.674   2.032   9.153
 6195POPC   GL117821  13.590   1.956   8.853
 6195POPC   GL217822  13.511   2.036   8.853
 6195POPC   C1A17823  13.615   2.030   8.553
 6195POPC   D2A17824  13.667   1.976   8.253
 6195POPC   C3A17825  13.606   2.033   7.953
 6195POPC   C4A17826  13.644   2.006   7.653
 6195POPC   C1B17827  13.389   2.041   8.553
 6195POPC   C2B17828  13.403   2.101   8.253
 6195POPC   C3B17829  13.345   2.029   7.953
 6195POPC   C4B17830  13.427   2.104   7.653
 6196POPC   NC317831  12.806  43.877   9.453
 6196POPC   PO417832  12.865  43.898   9.153
 6196POPC   GL117833  12.880  43.934   8.853
 6196POPC   GL217834  12.694  43.863   8.853
 6196POPC   C1A17835  12.839  43.888   8.553
 6196POPC   D2A17836  12.812  43.856   8.253
 6196POPC   C3A17837  12.893  43.879   7.953
 6196POPC   C4A17838  12.868  43.839   7.653
 6196POPC   C1B17839  12.606  43.890   8.553
 6196POPC   C2B17840  12.584  43.878   8.253
 6196POPC   C3B17841  12.589  43.848   7.953
 6196POPC   C4B17842  12.590  43.840   7.653
 6197POPC   NC317843  38.452   2.770   9.453
 6197POPC   PO417844  38.430   2.792   9.153
 6197POPC   GL117845  38.493   2.784   8.853
 6197POPC   GL217846  38.348   2.778   8.853
 6197POPC   C1A17847  38.504   2.739   8.553
 6197POPC   D2A17848  38.435   2.815   8.253
 6197POPC   C3A17849  38.465   2.789   7.953
 6197POPC   C4A17850  38.479   2.757   7.653
 6197POPC   C1B17851  38.212   2.921   8.553
 6197POPC   C2B17852  38.225   2.848   8.253
 6197POPC   C3B17853  38.200   2.837   7.953
 6197POPC   C4B17854  38.221   2.877   7.653
 6198POPC   NC317855  26.788  38.406   9.453
 6198POPC   PO417856  26.791  38.431   9.153
 6198POPC   GL117857  26.815  38.467   8.853
 6198POPC   GL217858  26.957  38.551   8.853
 6198POPC   C1A17859  26.794  38.444   8.553
 6198POPC   D2A17860  26.818  38.498   8.253
 6198POPC   C3A17861  26.776  38.424   7.953
 6198POPC   C4A17862  26.825  38.441   7.653
 6198POPC   C1B17863  27.025  38.563   8.553
 6198POPC   C2B17864  27.088  38.606   8.253
 6198POPC   C3B17865  27.070  38.588   7.953
 6198POPC   C4B17866  27.070  38.519   7.653
 6199POPC   NC317867  19.857  29.883   9.453
 6199POPC   PO417868  19.879  29.903   9.153
 6199POPC   GL117869  19.848  29.948   8.853
 6199POPC   GL217870  19.906  29.953   8.853
 6199POPC   C1A17871  19.872  29.946   8.553
 6199POPC   D2A17872  19.818  29.905   8.253
 6199POPC   C3A17873  19.847  29.943   7.953
 6199POPC   C4A17874  19.863  29.958   7.653
 6199POPC   C1B17875  20.030  30.044   8.553
 6199POPC   C2B17876  20.036  30.037   8.253
 6199POPC   C3B17877  20.026  29.992   7.953
 6199POPC   C4B17878  20.085  29.959   7.653
 6200POPC   NC317879   5.894  29.180   9.453
 6200POPC   PO417880   5.849  29.128   9.153
 6200POPC   GL117881   5.886  29.189   8.853
 6200POPC   GL217882   5.752  29.241   8.853
 6200POPC   C1A17883   5.830  29.139   8.553
 6200POPC   D2A17884   5.857  29.100   8.253
 6200POPC   C3A17885   5.904  29.111   7.953
 6200POPC   C4A17886   5.877  29.148   7.653
 6200POPC   C1B17887   5.659  29.366   8.553
 6200POPC   C2B17888   5.737  29.270   8.253
 6200POPC   C3B17889   5.654  29.343   7.953
 6200POPC   C4B17890   5.722  29.316   7.653
 6201POPC   NC317891   2.765   2.034   9.453
 6201POPC   PO417892   2.730   1.958   9.153
 6201POPC   GL117893   2.809   2.010   8.853
 6201POPC   GL217894   2.847   1.928   8.853
 6201POPC   C1A17895   2.726   1.958   8.553
 6201POPC   D2A17896   2.744   1.969   8.253
 6201POPC   C3A17897   2.795   2.018   7.953
 6201POPC   C4A17898   2.815   1.954   7.653
 6201POPC   C1B17899   3.045   2.002   8.553
 6201POPC   C2B17900   2.998   1.932   8.253
 6201POPC   C3B17901   3.043   1.998   7.953
 6201POPC   C4B17902   3.062   1.954   7.653
 6202POPC   NC317903  18.312   9.748   9.453
 6202POPC   PO417904  18.300   9.752   9.153
 6202POPC   GL117905  18.264   9.747   8.853
 6202POPC   GL217906  18.132   9.741   8.853
 6202POPC   C1A17907  18.234   9.795   8.553
 6202POPC   D2A17908  18.273   9.771   8.253
 6202POPC   C3A17909  18.247   9.749   7.953
 6202POPC   C4A17910  18.273   9.757   7.653
 6202POPC   C1B17911  18.073   9.709   8.553
 6202POPC   C2B17912  18.015   9.649   8.253
 6202POPC   C3B17913  18.000   9.699   7.953
 6202POPC   C4B17914  18.027   9.648   7.653
 6203POPC   NC317915  39.960  39.250   9.453
 6203POPC   PO417916  40.053  39.195   9.153
 6203POPC   GL117917  39.979  39.230   8.853
 6203POPC   GL217918  39.945  39.104   8.853
 6203POPC   C1A17919  40.024  39.198   8.553
 6203POPC   D2A17920  39.998  39.226   8.253
 6203POPC   C3A17921  40.032  39.281   7.953
 6203POPC   C4A17922  40.050  39.229   7.653
 6203POPC   C1B17923  39.908  39.000   8.553
 6203POPC   C2B17924  39.948  38.996   8.253
 6203POPC   C3B17925  39.916  39.033   7.953
 6203POPC   C4B17926  39.882  38.989   7.653
 6204POPC   NC317927   5.846  33.847   9.453
 6204POPC   PO417928   5.892  33.813   9.153
 6204POPC   GL117929   5.821  33.843   8.853
 6204POPC   GL217930   5.869  33.905   8.853
 6204POPC   C1A17931   5.885  33.793   8.553
 6204POPC   D2A17932   5.844  33.793   8.253
 6204POPC   C3A17933   5.861  33.845   7.953
 6204POPC   C4A17934   5.900  33.834   7.653
 6204POPC   C1B17935   5.823  34.009   8.553
 6204POPC   C2B17936   5.766  34.035   8.253
 6204POPC   C3B17937   5.814  34.061   7.953
 6204POPC   C4B17938   5.832  34.085   7.653
 6205POPC   NC317939   9.747  20.578   9.453
 6205POPC   PO417940   9.778  20.603   9.153
 6205POPC   GL117941   9.790  20.619   8.853
 6205POPC   GL217942   9.596  20.589   8.853
 6205POPC   C1A17943   9.798  20.656   8.553
 6205POPC   D2A17944   9.745  20.644   8.253
 6205POPC   C3A17945   9.761  20.583   7.953
 6205POPC   C4A17946   9.770  20.620   7.653
 6205POPC   C1B17947   9.464  20.588   8.553
 6205POPC   C2B17948   9.479  20.549   8.253
 6205POPC   C3B17949   9.542  20.595   7.953
 6205POPC   C4B17950   9.551  20.524   7.653
 6206POPC   NC317951  29.193   3.511   9.453
 6206POPC   PO417952  29.097   3.508   9.153
 6206POPC   GL117953  29.141   3.588   8.853
 6206POPC   GL217954  29.043   3.484   8.853
 6206POPC   C1A17955  29.128   3.494   8.553
 6206POPC   D2A17956  29.153   3.556   8.253
 6206POPC   C3A17957  29.182   3.566   7.953
 6206POPC   C4A17958  29.121   3.566   7.653
 6206POPC   C1B17959  28.945   3.455   8.553
 6206POPC   C2B17960  28.977   3.407   8.253
 6206POPC   C3B17961  28.961   3.405   7.953
 6206POPC   C4B17962  28.965   3.457   7.653
 6207POPC   NC317963  34.535  27.552   9.453
 6207POPC   PO417964  34.612  27.621   9.153
 6207POPC   GL117965  34.616  27.608   8.853
 6207POPC   GL217966  34.635  27.527   8.853
 6207POPC   C1A17967  34.605  27.607   8.553
 6207POPC   D2A17968  34.579  27.601   8.253
 6207POPC   C3A17969  34.608  27.573   7.953
 6207POPC   C4A17970  34.621  27.611   7.653
 6207POPC   C1B17971  34.769  27.468   8.553
 6207POPC   C2B17972  34.782  27.475   8.253
 6207POPC   C3B17973  34.815  27.486   7.953
 6207POPC   C4B17974  34.752  27.427   7.653
 6208POPC   NC317975  43.884  23.690   9.453
 6208POPC   PO417976  43.912  23.668   9.153
 6208POPC   GL117977  43.890  23.680   8.853
 6208POPC   GL217978  43.944  23.810   8.853
 6208POPC   C1A17979  43.917  23.705   8.553
 6208POPC   D2A17980  43.908  23.711   8.253
 6208POPC   C3A17981  43.910  23.665   7.953
 6208POPC   C4A17982  43.855  23.676   7.653
 6208POPC   C1B17983  44.040  23.898   8.553
 6208POPC   C2B17984  43.992  23.887   8.253
 6208POPC   C3B17985  44.055  23.948   7.953
 6208POPC   C4B17986  44.062  23.884   7.653
 6209POPC   NC317987  23.730   8.210   9.453
 6209POPC   PO417988  23.759   8.160   9.153
 6209POPC   GL117989  23.677   8.219   8.853
 6209POPC   GL217990  23.725   8.259   8.853
 6209POPC   C1A17991  23.710   8.167   8.553
 6209POPC   D2A17992  23.718   8.197   8.253
 6209POPC   C3A17993  23.705   8.186   7.953
 6209POPC   C4A17994  23.723   8.167   7.653
 6209POPC   C1B17995  23.862   8.462   8.553
 6209POPC   C2B17996  23.833   8.426   8.253
 6209POPC   C3B17997  23.878   8.402   7.953
 6209POPC   C4B17998  23.825   8.459   7.653
 6210POPC   NC317999  29.128  27.558   9.453
 6210POPC   PO418000  29.116  27.626   9.153
 6210POPC   GL118001  29.154  27.567   8.853
 6210POPC   GL218002  29.040  27.531   8.853
 6210POPC   C1A18003  29.103  27.635   8.553
 6210POPC   D2A18004  29.111  27.633   8.253
 6210POPC   C3A18005  29.147  27.635   7.953
 6210POPC   C4A18006  29.115  27.623   7.653
 6210POPC   C1B18007  28.914  27.547   8.553
 6210POPC   C2B18008  28.908  27.535   8.253
 6210POPC   C3B18009  28.931  27.481   7.953
 6210POPC   C4B18010  28.920  27.526   7.653
 6211POPC   NC318011   1.174  19.820   9.453
 6211POPC   PO418012   1.194  19.836   9.153
 6211POPC   GL118013   1.237  19.811   8.853
 6211POPC   GL218014   1.149  19.940   8.853
 6211POPC   C1A18015   1.243  19.853   8.553
 6211POPC   D2A18016   1.208  19.883   8.253
 6211POPC   C3A18017   1.233  19.821   7.953
 6211POPC   C4A18018   1.209  19.879   7.653
 6211POPC   C1B18019   1.099  20.034   8.553
 6211POPC   C2B18020   1.189  20.097   8.253
 6211POPC   C3B18021   1.159  20.066   7.953
 6211POPC   C4B18022   1.104  20.088   7.653
 6212POPC   NC318023  42.357  43.858   9.453
 6212POPC   PO418024  42.364  43.930   9.153
 6212POPC   GL118025  42.375  43.845   8.853
 6212POPC   GL218026  42.229  43.843   8.853
 6212POPC   C1A18027  42.380  43.880   8.553
 6212POPC   D2A18028  42.310  43.870   8.253
 6212POPC   C3A18029  42.335  43.891   7.953
 6212POPC   C4A18030  42.367  43.868   7.653
 6212POPC   C1B18031  42.111  43.870   8.553
 6212POPC   C2B18032  42.088  43.859   8.253
 6212POPC   C3B18033  42.061  43.911   7.953
 6212POPC   C4B18034  42.115  43.871   7.653
 6213POPC   NC318035  33.050   2.030   9.453
 6213POPC   PO418036  32.996   1.987   9.153
 6213POPC   GL118037  33.014   1.981   8.853
 6213POPC   GL218038  33.135   1.966   8.853
 6213POPC   C1A18039  33.041   2.032   8.553
 6213POPC   D2A18040  32.999   1.943   8.253
 6213POPC   C3A18041  33.017   1.946   7.953
 6213POPC   C4A18042  33.054   1.984   7.653
 6213POPC   C1B18043  33.244   2.003   8.553
 6213POPC   C2B18044  33.247   2.035   8.253
 6213POPC   C3B18045  33.245   2.005   7.953
 6213POPC   C4B18046  33.309   1.984   7.653
 6214POPC   NC318047  22.968  42.380   9.453
 6214POPC   PO418048  22.932  42.311   9.153
 6214POPC   GL118049  22.985  42.329   8.853
 6214POPC   GL218050  22.830  42.300   8.853
 6214POPC   C1A18051  22.965  42.353   8.553
 6214POPC   D2A18052  22.922  42.331   8.253
 6214POPC   C3A18053  22.972  42.309   7.953
 6214POPC   C4A18054  22.898  42.300   7.653
 6214POPC   C1B18055  22.721  42.296   8.553
 6214POPC   C2B18056  22.680  42.352   8.253
 6214POPC   C3B18057  22.664  42.278   7.953
 6214POPC   C4B18058  22.693  42.355   7.653
 6215POPC   NC318059  11.280  33.821   9.453
 6215POPC   PO418060  11.254  33.849   9.153
 6215POPC   GL118061  11.340  33.811   8.853
 6215POPC   GL218062  11.291  33.668   8.853
 6215POPC   C1A18063  11.263  33.836   8.553
 6215POPC   D2A18064  11.283  33.760   8.253
 6215POPC   C3A18065  11.285  33.798   7.953
 6215POPC   C4A18066  11.288  33.755   7.653
 6215POPC   C1B18067  11.321  33.573   8.553
 6215POPC   C2B18068  11.340  33.520   8.253
 6215POPC   C3B18069  11.341  33.571   7.953
 6215POPC   C4B18070  11.290  33.504   7.653
 6216POPC   NC318071   4.364  27.628   9.453
 6216POPC   PO418072   4.321  27.613   9.153
 6216POPC   GL118073   4.343  27.586   8.853
 6216POPC   GL218074   4.217  27.677   8.853
 6216POPC   C1A18075   4.270  27.638   8.553
 6216POPC   D2A18076   4.313  27.555   8.253
 6216POPC   C3A18077   4.296  27.634   7.953
 6216POPC   C4A18078   4.331  27.618   7.653
 6216POPC   C1B18079   4.107  27.740   8.553
 6216POPC   C2B18080   4.120  27.690   8.253
 6216POPC   C3B18081   4.044  27.687   7.953
 6216POPC   C4B18082   4.116  27.703   7.653
 6217POPC   NC318083  22.168  10.552   9.453
 6217POPC   PO418084  22.145  10.545   9.153
 6217POPC   GL118085  22.211  10.523   8.853
 6217POPC   GL218086  22.075  10.406   8.853
 6217POPC   C1A18087  22.157  10.501   8.553
 6217POPC   D2A18088  22.172  10.564   8.253
 6217POPC   C3A18089  22.193  10.526   7.953
 6217POPC   C4A18090  22.166  10.548   7.653
 6217POPC   C1B18091  21.940  10.420   8.553
 6217POPC   C2B18092  21.937  10.345   8.253
 6217POPC   C3B18093  21.971  10.377   7.953
 6217POPC   C4B18094  21.968  10.390   7.653
 6218POPC   NC318095  19.106  26.060   9.453
 6218POPC   PO418096  19.052  26.057   9.153
 6218POPC   GL118097  19.050  26.069   8.853
 6218POPC   GL218098  19.014  26.128   8.853
 6218POPC   C1A18099  19.093  26.068   8.553
 6218POPC   D2A18100  19.018  26.082   8.253
 6218POPC   C3A18101  19.094  26.047   7.953
 6218POPC   C4A18102  19.052  26.015   7.653
 6218POPC   C1B18103  18.848  26.263   8.553
 6218POPC   C2B18104  18.849  26.214   8.253
 6218POPC   C3B18105  18.844  26.243   7.953
 6218POPC   C4B18106  18.898  26.231   7.653
 6219POPC   NC318107  31.490  33.814   9.453
 6219POPC   PO418108  31.503  33.812   9.153
 6219POPC   GL118109  31.472  33.825   8.853
 6219POPC   GL218110  31.461  33.690   8.853
 6219POPC   C1A18111  31.439  33.808   8.553
 6219POPC   D2A18112  31.464  33.761   8.253
 6219POPC   C3A18113  31.459  33.812   7.953
 6219POPC   C4A18114  31.455  33.849   7.653
 6219POPC   C1B18115  31.538  33.548   8.553
 6219POPC   C2B18116  31.493  33.536   8.253
 6219POPC   C3B18117  31.513  33.581   7.953
 6219POPC   C4B18118  31.557  33.564   7.653
 6220POPC   NC318119   9.751  22.982   9.453
 6220POPC   PO418120   9.760  22.914   9.153
 6220POPC   GL118121   9.717  22.892   8.853
 6220POPC   GL218122   9.789  22.795   8.853
 6220POPC   C1A18123   9.723  22.908   8.553
 6220POPC   D2A18124   9.776  22.974   8.253
 6220POPC   C3A18125   9.781  22.970   7.953
 6220POPC   C4A18126   9.791  22.956   7.653
 6220POPC   C1B18127   9.906  22.694   8.553
 6220POPC   C2B18128   9.859  22.689   8.253
 6220POPC   C3B18129   9.941  22.736   7.953
 6220POPC   C4B18130   9.901  22.722   7.653
 6221POPC   NC318131  15.138  15.148   9.453
 6221POPC   PO418132  15.184  15.164   9.153
 6221POPC   GL118133  15.195  15.129   8.853
 6221POPC   GL218134  15.249  15.089   8.853
 6221POPC   C1A18135  15.191  15.169   8.553
 6221POPC   D2A18136  15.166  15.142   8.253
 6221POPC   C3A18137  15.221  15.147   7.953
 6221POPC   C4A18138  15.162  15.143   7.653
 6221POPC   C1B18139  15.373  15.104   8.553
 6221POPC   C2B18140  15.436  15.077   8.253
 6221POPC   C3B18141  15.392  15.025   7.953
 6221POPC   C4B18142  15.424  15.050   7.653
 6222POPC   NC318143  44.708  31.489   9.453
 6222POPC   PO418144  44.681  31.519   9.153
 6222POPC   GL118145  44.666  31.435   8.853
 6222POPC   GL218146  44.566  31.618   8.853
 6222POPC   C1A18147  44.614  31.458   8.553
 6222POPC   D2A18148  44.684  31.429   8.253
 6222POPC   C3A18149  44.681  31.436   7.953
 6222POPC   C4A18150  44.694  31.470   7.653
 6222POPC   C1B18151  44.521  31.717   8.553
 6222POPC   C2B18152  44.565  31.700   8.253
 6222POPC   C3B18153  44.504  31.742   7.953
 6222POPC   C4B18154  44.588  31.700   7.653
 6223POPC   NC318155  13.598   1.191   9.453
 6223POPC   PO418156  13.675   1.198   9.153
 6223POPC   GL118157  13.663   1.188   8.853
 6223POPC   GL218158  13.785   1.227   8.853
 6223POPC   C1A18159  13.641   1.187   8.553
 6223POPC   D2A18160  13.646   1.184   8.253
 6223POPC   C3A18161  13.628   1.215   7.953
 6223POPC   C4A18162  13.625   1.232   7.653
 6223POPC   C1B18163  13.878   1.173   8.553
 6223POPC   C2B18164  13.865   1.141   8.253
 6223POPC   C3B18165  13.856   1.149   7.953
 6223POPC   C4B18166  13.894   1.207   7.653
 6224POPC   NC318167  31.494  13.587   9.453
 6224POPC   PO418168  31.430  13.600   9.153
 6224POPC   GL118169  31.466  13.670   8.853
 6224POPC   GL218170  31.509  13.789   8.853
 6224POPC   C1A18171  31.451  13.628   8.553
 6224POPC   D2A18172  31.511  13.650   8.253
 6224POPC   C3A18173  31.450  13.669   7.953
 6224POPC   C4A18174  31.468  13.619   7.653
 6224POPC   C1B18175  31.487  13.825   8.553
 6224POPC   C2B18176  31.518  13.919   8.253
 6224POPC   C3B18177  31.476  13.893   7.953
 6224POPC   C4B18178  31.541  13.827   7.653
 6225POPC   NC318179  40.753  19.045   9.453
 6225POPC   PO418180  40.789  19.101   9.153
 6225POPC   GL118181  40.793  19.073   8.853
 6225POPC   GL218182  40.745  18.893   8.853
 6225POPC   C1A18183  40.826  19.074   8.553
 6225POPC   D2A18184  40.735  19.076   8.253
 6225POPC   C3A18185  40.794  19.044   7.953
 6225POPC   C4A18186  40.743  19.059   7.653
 6225POPC   C1B18187  40.752  18.806   8.553
 6225POPC   C2B18188  40.670  18.774   8.253
 6225POPC   C3B18189  40.689  18.808   7.953
 6225POPC   C4B18190  40.747  18.820   7.653
 6226POPC   NC318191  12.814  17.548   9.453
 6226POPC   PO418192  12.899  17.536   9.153
 6226POPC   GL118193  12.886  17.530   8.853
 6226POPC   GL218194  12.693  17.544   8.853
 6226POPC   C1A18195  12.835  17.506   8.553
 6226POPC   D2A18196  12.809  17.508   8.253
 6226POPC   C3A18197  12.863  17.477   7.953
 6226POPC   C4A18198  12.836  17.479   7.653
 6226POPC   C1B18199  12.616  17.584   8.553
 6226POPC   C2B18200  12.582  17.547   8.253
 6226POPC   C3B18201  12.570  17.617   7.953
 6226POPC   C4B18202  12.599  17.618   7.653
 6227POPC   NC318203  12.875  33.795   9.453
 6227POPC   PO418204  12.808  33.847   9.153
 6227POPC   GL118205  12.893  33.816   8.853
 6227POPC   GL218206  12.954  33.892   8.853
 6227POPC   C1A18207  12.840  33.811   8.553
 6227POPC   D2A18208  12.858  33.847   8.253
 6227POPC   C3A18209  12.808  33.793   7.953
 6227POPC   C4A18210  12.807  33.790   7.653
 6227POPC   C1B18211  13.010  33.981   8.553
 6227POPC   C2B18212  12.964  34.031   8.253
 6227POPC   C3B18213  13.053  33.951   7.953
 6227POPC   C4B18214  13.001  34.037   7.653
 6228POPC   NC318215  30.657  11.328   9.453
 6228POPC   PO418216  30.691  11.313   9.153
 6228POPC   GL118217  30.650  11.300   8.853
 6228POPC   GL218218  30.611  11.370   8.853
 6228POPC   C1A18219  30.694  11.263   8.553
 6228POPC   D2A18220  30.684  11.275   8.253
 6228POPC   C3A18221  30.647  11.287   7.953
 6228POPC   C4A18222  30.708  11.269   7.653
 6228POPC   C1B18223  30.480  11.471   8.553
 6228POPC   C2B18224  30.469  11.425   8.253
 6228POPC   C3B18225  30.485  11.468   7.953
 6228POPC   C4B18226  30.463  11.378   7.653
 6229POPC   NC318227  19.033  28.373   9.453
 6229POPC   PO418228  19.091  28.367   9.153
 6229POPC   GL118229  19.108  28.335   8.853
 6229POPC   GL218230  19.142  28.298   8.853
 6229POPC   C1A18231  19.062  28.355   8.553
 6229POPC   D2A18232  19.094  28.412   8.253
 6229POPC   C3A18233  19.086  28.388   7.953
 6229POPC   C4A18234  19.057  28.328   7.653
 6229POPC   C1B18235  19.236  28.125   8.553
 6229POPC   C2B18236  19.187  28.139   8.253
 6229POPC   C3B18237  19.182  28.124   7.953
 6229POPC   C4B18238  19.230  28.208   7.653
 6230POPC   NC318239   8.213  17.463   9.453
 6230POPC   PO418240   8.244  17.506   9.153
 6230POPC   GL118241   8.214  17.521   8.853
 6230POPC   GL218242   8.196  17.673   8.853
 6230POPC   C1A18243   8.209  17.528   8.553
 6230POPC   D2A18244   8.155  17.555   8.253
 6230POPC   C3A18245   8.224  17.484   7.953
 6230POPC   C4A18246   8.215  17.506   7.653
 6230POPC   C1B18247   8.116  17.799   8.553
 6230POPC   C2B18248   8.151  17.728   8.253
 6230POPC   C3B18249   8.130  17.786   7.953
 6230POPC   C4B18250   8.134  17.786   7.653
 6231POPC   NC318251   6.647  29.935   9.453
 6231POPC   PO418252   6.633  29.924   9.153
 6231POPC   GL118253   6.694  29.883   8.853
 6231POPC   GL218254   6.587  29.832   8.853
 6231POPC   C1A18255   6.645  29.879   8.553
 6231POPC   D2A18256   6.663  29.876   8.253
 6231POPC   C3A18257   6.600  29.934   7.953
 6231POPC   C4A18258   6.680  29.923   7.653
 6231POPC   C1B18259   6.460  29.782   8.553
 6231POPC   C2B18260   6.417  29.788   8.253
 6231POPC   C3B18261   6.464  29.811   7.953
 6231POPC   C4B18262   6.445  29.834   7.653
 6232POPC   NC318263   6.600  40.051   9.453
 6232POPC   PO418264   6.615  40.048   9.153
 6232POPC   GL118265   6.661  40.030   8.853
 6232POPC   GL218266   6.501  39.984   8.853
 6232POPC   C1A18267   6.681  40.046   8.553
 6232POPC   D2A18268   6.677  40.030   8.253
 6232POPC   C3A18269   6.664  39.969   7.953
 6232POPC   C4A18270   6.621  40.043   7.653
 6232POPC   C1B18271   6.430  39.911   8.553
 6232POPC   C2B18272   6.419  39.976   8.253
 6232POPC   C3B18273   6.410  39.913   7.953
 6232POPC   C4B18274   6.428  39.909   7.653
 6233POPC   NC318275  26.008  18.248   9.453
 6233POPC   PO418276  26.014  18.264   9.153
 6233POPC   GL118277  25.992  18.250   8.853
 6233POPC   GL218278  26.021  18.433   8.853
 6233POPC   C1A18279  26.000  18.311   8.553
 6233POPC   D2A18280  26.052  18.242   8.253
 6233POPC   C3A18281  26.045  18.259   7.953
 6233POPC   C4A18282  26.046  18.304   7.653
 6233POPC   C1B18283  26.075  18.565   8.553
 6233POPC   C2B18284  26.095  18.478   8.253
 6233POPC   C3B18285  26.113  18.526   7.953
 6233POPC   C4B18286  26.079  18.536   7.653
 6234POPC   NC318287  13.668   4.311   9.453
 6234POPC   PO418288  13.650   4.345   9.153
 6234POPC   GL118289  13.660   4.276   8.853
 6234POPC   GL218290  13.564   4.415   8.853
 6234POPC   C1A18291  13.673   4.351   8.553
 6234POPC   D2A18292  13.611   4.281   8.253
 6234POPC   C3A18293  13.664   4.355   7.953
 6234POPC   C4A18294  13.674   4.345   7.653
 6234POPC   C1B18295  13.437   4.481   8.553
 6234POPC   C2B18296  13.501   4.560   8.253
 6234POPC   C3B18297  13.444   4.489   7.953
 6234POPC   C4B18298  13.484   4.519   7.653
 6235POPC   NC318299   1.203  41.588   9.453
 6235POPC   PO418300   1.198  41.533   9.153
 6235POPC   GL118301   1.235  41.526   8.853
 6235POPC   GL218302   1.260  41.484   8.853
 6235POPC   C1A18303   1.219  41.599   8.553
 6235POPC   D2A18304   1.221  41.542   8.253
 6235POPC   C3A18305   1.176  41.585   7.953
 6235POPC   C4A18306   1.249  41.534   7.653
 6235POPC   C1B18307   1.360  41.342   8.553
 6235POPC   C2B18308   1.364  41.300   8.253
 6235POPC   C3B18309   1.355  41.361   7.953
 6235POPC   C4B18310   1.313  41.327   7.653
 6236POPC   NC318311  32.274  25.282   9.453
 6236POPC   PO418312  32.253  25.273   9.153
 6236POPC   GL118313  32.279  25.291   8.853
 6236POPC   GL218314  32.185  25.187   8.853
 6236POPC   C1A18315  32.236  25.235   8.553
 6236POPC   D2A18316  32.237  25.302   8.253
 6236POPC   C3A18317  32.199  25.251   7.953
 6236POPC   C4A18318  32.238  25.223   7.653
 6236POPC   C1B18319  32.213  25.054   8.553
 6236POPC   C2B18320  32.201  24.992   8.253
 6236POPC   C3B18321  32.222  25.048   7.953
 6236POPC   C4B18322  32.176  24.990   7.653
 6237POPC   NC318323  24.443  15.938   9.453
 6237POPC   PO418324  24.453  15.924   9.153
 6237POPC   GL118325  24.492  15.983   8.853
 6237POPC   GL218326  24.340  15.957   8.853
 6237POPC   C1A18327  24.488  15.968   8.553
 6237POPC   D2A18328  24.506  15.912   8.253
 6237POPC   C3A18329  24.535  15.925   7.953
 6237POPC   C4A18330  24.478  15.966   7.653
 6237POPC   C1B18331  24.245  16.009   8.553
 6237POPC   C2B18332  24.266  16.042   8.253
 6237POPC   C3B18333  24.226  16.078   7.953
 6237POPC   C4B18334  24.241  16.078   7.653
 6238POPC   NC318335  37.638  33.814   9.453
 6238POPC   PO418336  37.641  33.756   9.153
 6238POPC   GL118337  37.708  33.779   8.853
 6238POPC   GL218338  37.620  33.701   8.853
 6238POPC   C1A18339  37.715  33.774   8.553
 6238POPC   D2A18340  37.669  33.797   8.253
 6238POPC   C3A18341  37.728  33.818   7.953
 6238POPC   C4A18342  37.630  33.850   7.653
 6238POPC   C1B18343  37.510  33.561   8.553
 6238POPC   C2B18344  37.532  33.556   8.253
 6238POPC   C3B18345  37.563  33.539   7.953
 6238POPC   C4B18346  37.531  33.548   7.653
 6239POPC   NC318347  25.292  17.497   9.453
 6239POPC   PO418348  25.286  17.509   9.153
 6239POPC   GL118349  25.307  17.555   8.853
 6239POPC   GL218350  25.123  17.500   8.853
 6239POPC   C1A18351  25.221  17.509   8.553
 6239POPC   D2A18352  25.252  17.471   8.253
 6239POPC   C3A18353  25.306  17.506   7.953
 6239POPC   C4A18354  25.224  17.555   7.653
 6239POPC   C1B18355  25.026  17.474   8.553
 6239POPC   C2B18356  25.000  17.442   8.253
 6239POPC   C3B18357  24.981  17.443   7.953
 6239POPC   C4B18358  25.058  17.454   7.653
 6240POPC   NC318359   5.095  15.169   9.453
 6240POPC   PO418360   5.046  15.189   9.153
 6240POPC   GL118361   5.084  15.225   8.853
 6240POPC   GL218362   5.246  15.239   8.853
 6240POPC   C1A18363   5.139  15.156   8.553
 6240POPC   D2A18364   5.106  15.148   8.253
 6240POPC   C3A18365   5.045  15.146   7.953
 6240POPC   C4A18366   5.106  15.198   7.653
 6240POPC   C1B18367   5.334  15.294   8.553
 6240POPC   C2B18368   5.292  15.325   8.253
 6240POPC   C3B18369   5.270  15.331   7.953
 6240POPC   C4B18370   5.326  15.262   7.653
 6241POPC   NC318371  12.868  23.724   9.453
 6241POPC   PO418372  12.893  23.682   9.153
 6241POPC   GL118373  12.866  23.756   8.853
 6241POPC   GL218374  12.898  23.577   8.853
 6241POPC   C1A18375  12.893  23.672   8.553
 6241POPC   D2A18376  12.819  23.666   8.253
 6241POPC   C3A18377  12.899  23.735   7.953
 6241POPC   C4A18378  12.881  23.665   7.653
 6241POPC   C1B18379  13.037  23.552   8.553
 6241POPC   C2B18380  13.014  23.532   8.253
 6241POPC   C3B18381  12.965  23.530   7.953
 6241POPC   C4B18382  13.019  23.478   7.653
 6242POPC   NC318383   1.980  30.678   9.453
 6242POPC   PO418384   1.984  30.688   9.153
 6242POPC   GL118385   2.005  30.730   8.853
 6242POPC   GL218386   1.967  30.808   8.853
 6242POPC   C1A18387   1.972  30.651   8.553
 6242POPC   D2A18388   2.021  30.731   8.253
 6242POPC   C3A18389   1.959  30.684   7.953
 6242POPC   C4A18390   1.987  30.663   7.653
 6242POPC   C1B18391   1.819  30.872   8.553
 6242POPC   C2B18392   1.858  30.943   8.253
 6242POPC   C3B18393   1.814  30.954   7.953
 6242POPC   C4B18394   1.850  30.859   7.653
 6243POPC   NC318395  33.812  44.619   9.453
 6243POPC   PO418396  33.849  44.652   9.153
 6243POPC   GL118397  33.751  44.639   8.853
 6243POPC   GL218398  33.634  44.687   8.853
 6243POPC   C1A18399  33.842  44.676   8.553
 6243POPC   D2A18400  33.797  44.698   8.253
 6243POPC   C3A18401  33.798  44.614   7.953
 6243POPC   C4A18402  33.814  44.648   7.653
 6243POPC   C1B18403  33.567  44.624   8.553
 6243POPC   C2B18404  33.540  44.651   8.253
 6243POPC   C3B18405  33.555  44.628   7.953
 6243POPC   C4B18406  33.512  44.601   7.653
 6244POPC   NC318407   4.284   1.987   9.453
 6244POPC   PO418408   4.350   2.039   9.153
 6244POPC   GL118409   4.345   1.954   8.853
 6244POPC   GL218410   4.239   1.936   8.853
 6244POPC   C1A18411   4.329   1.976   8.553
 6244POPC   D2A18412   4.339   2.019   8.253
 6244POPC   C3A18413   4.356   2.000   7.953
 6244POPC   C4A18414   4.267   2.012   7.653
 6244POPC   C1B18415   4.090   1.920   8.553
 6244POPC   C2B18416   4.077   1.932   8.253
 6244POPC   C3B18417   4.106   1.833   7.953
 6244POPC   C4B18418   4.086   1.846   7.653
 6245POPC   NC318419   3.570  18.250   9.453
 6245POPC   PO418420   3.515  18.294   9.153
 6245POPC   GL118421   3.557  18.317   8.853
 6245POPC   GL218422   3.420  18.351   8.853
 6245POPC   C1A18423   3.553  18.309   8.553
 6245POPC   D2A18424   3.571  18.307   8.253
 6245POPC   C3A18425   3.521  18.287   7.953
 6245POPC   C4A18426   3.518  18.235   7.653
 6245POPC   C1B18427   3.373  18.404   8.553
 6245POPC   C2B18428   3.301  18.386   8.253
 6245POPC   C3B18429   3.290  18.384   7.953
 6245POPC   C4B18430   3.361  18.391   7.653
 6246POPC   NC318431  32.237   2.002   9.453
 6246POPC   PO418432  32.241   1.996   9.153
 6246POPC   GL118433  32.215   1.999   8.853
 6246POPC   GL218434  32.309   2.032   8.853
 6246POPC   C1A18435  32.235   1.970   8.553
 6246POPC   D2A18436  32.214   1.947   8.253
 6246POPC   C3A18437  32.253   1.942   7.953
 6246POPC   C4A18438  32.209   1.998   7.653
 6246POPC   C1B18439  32.412   2.196   8.553
 6246POPC   C2B18440  32.397   2.187   8.253
 6246POPC   C3B18441  32.415   2.135   7.953
 6246POPC   C4B18442  32.410   2.178   7.653
 6247POPC   NC318443  29.914  33.809   9.453
 6247POPC   PO418444  29.958  33.760   9.153
 6247POPC   GL118445  29.947  33.833   8.853
 6247POPC   GL218446  29.992  33.909   8.853
 6247POPC   C1A18447  29.938  33.809   8.553
 6247POPC   D2A18448  29.941  33.807   8.253
 6247POPC   C3A18449  29.887  33.834   7.953
 6247POPC   C4A18450  29.953  33.836   7.653
 6247POPC   C1B18451  30.001  34.028   8.553
 6247POPC   C2B18452  29.999  34.051   8.253
 6247POPC   C3B18453  29.955  34.055   7.953
 6247POPC   C4B18454  29.993  34.006   7.653
 6248POPC   NC318455  37.658  43.136   9.453
 6248POPC   PO418456  37.729  43.110   9.153
 6248POPC   GL118457  37.722  43.124   8.853
 6248POPC   GL218458  37.746  43.174   8.853
 6248POPC   C1A18459  37.652  43.105   8.553
 6248POPC   D2A18460  37.709  43.095   8.253
 6248POPC   C3A18461  37.700  43.080   7.953
 6248POPC   C4A18462  37.650  43.103   7.653
 6248POPC   C1B18463  37.895  43.239   8.553
 6248POPC   C2B18464  37.838  43.296   8.253
 6248POPC   C3B18465  37.919  43.223   7.953
 6248POPC   C4B18466  37.860  43.234   7.653
 6249POPC   NC318467  18.277  36.895   9.453
 6249POPC   PO418468  18.266  36.909   9.153
 6249POPC   GL118469  18.279  36.864   8.853
 6249POPC   GL218470  18.357  36.999   8.853
 6249POPC   C1A18471  18.320  36.929   8.553
 6249POPC   D2A18472  18.255  36.927   8.253
 6249POPC   C3A18473  18.325  36.892   7.953
 6249POPC   C4A18474  18.246  36.952   7.653
 6249POPC   C1B18475  18.373  37.114   8.553
 6249POPC   C2B18476  18.396  37.167   8.253
 6249POPC   C3B18477  18.352  37.145   7.953
 6249POPC   C4B18478  18.348  37.192   7.653
 6250POPC   NC318479  35.388  40.810   9.453
 6250POPC   PO418480  35.366  40.776   9.153
 6250POPC   GL118481  35.316  40.775   8.853
 6250POPC   GL218482  35.262  40.808   8.853
 6250POPC   C1A18483  35.401  40.786   8.553
 6250POPC   D2A18484  35.365  40.736   8.253
 6250POPC   C3A18485  35.370  40.829   7.953
 6250POPC   C4A18486  35.338  40.815   7.653
 6250POPC   C1B18487  35.170  40.914   8.553
 6250POPC   C2B18488  35.122  40.903   8.253
 6250POPC   C3B18489  35.098  40.906   7.953
 6250POPC   C4B18490  35.128  40.926   7.653
 6251POPC   NC318491  40.005  34.577   9.453
 6251POPC   PO418492  40.047  34.538   9.153
 6251POPC   GL118493  39.999  34.619   8.853
 6251POPC   GL218494  39.885  34.538   8.853
 6251POPC   C1A18495  40.046  34.576   8.553
 6251POPC   D2A18496  39.980  34.566   8.253
 6251POPC   C3A18497  39.980  34.527   7.953
 6251POPC   C4A18498  40.040  34.584   7.653
 6251POPC   C1B18499  39.751  34.562   8.553
 6251POPC   C2B18500  39.802  34.577   8.253
 6251POPC   C3B18501  39.746  34.576   7.953
 6251POPC   C4B18502  39.764  34.570   7.653
 6252POPC   NC318503  12.898  34.551   9.453
 6252POPC   PO418504  12.812  34.599   9.153
 6252POPC   GL118505  12.875  34.545   8.853
 6252POPC   GL218506  12.721  34.652   8.853
 6252POPC   C1A18507  12.803  34.556   8.553
 6252POPC   D2A18508  12.813  34.546   8.253
 6252POPC   C3A18509  12.825  34.556   7.953
 6252POPC   C4A18510  12.868  34.613   7.653
 6252POPC   C1B18511  12.644  34.665   8.553
 6252POPC   C2B18512  12.634  34.626   8.253
 6252POPC   C3B18513  12.604  34.620   7.953
 6252POPC   C4B18514  12.609  34.634   7.653
 6253POPC   NC318515   7.470   8.217   9.453
 6253POPC   PO418516   7.461   8.149   9.153
 6253POPC   GL118517   7.410   8.149   8.853
 6253POPC   GL218518   7.463   8.130   8.853
 6253POPC   C1A18519   7.390   8.245   8.553
 6253POPC   D2A18520   7.446   8.179   8.253
 6253POPC   C3A18521   7.445   8.221   7.953
 6253POPC   C4A18522   7.427   8.158   7.653
 6253POPC   C1B18523   7.521   7.954   8.553
 6253POPC   C2B18524   7.555   7.947   8.253
 6253POPC   C3B18525   7.531   8.013   7.953
 6253POPC   C4B18526   7.559   8.018   7.653
 6254POPC   NC318527   4.267  11.255   9.453
 6254POPC   PO418528   4.298  11.290   9.153
 6254POPC   GL118529   4.313  11.268   8.853
 6254POPC   GL218530   4.420  11.254   8.853
 6254POPC   C1A18531   4.307  11.339   8.553
 6254POPC   D2A18532   4.360  11.301   8.253
 6254POPC   C3A18533   4.316  11.276   7.953
 6254POPC   C4A18534   4.352  11.296   7.653
 6254POPC   C1B18535   4.597  11.331   8.553
 6254POPC   C2B18536   4.574  11.283   8.253
 6254POPC   C3B18537   4.596  11.293   7.953
 6254POPC   C4B18538   4.567  11.320   7.653
 6255POPC   NC318539  23.723   9.700   9.453
 6255POPC   PO418540  23.751   9.713   9.153
 6255POPC   GL118541  23.683   9.710   8.853
 6255POPC   GL218542  23.886   9.680   8.853
 6255POPC   C1A18543  23.677   9.778   8.553
 6255POPC   D2A18544  23.726   9.770   8.253
 6255POPC   C3A18545  23.728   9.742   7.953
 6255POPC   C4A18546  23.668   9.732   7.653
 6255POPC   C1B18547  23.930   9.700   8.553
 6255POPC   C2B18548  24.007   9.735   8.253
 6255POPC   C3B18549  23.948   9.745   7.953
 6255POPC   C4B18550  23.957   9.724   7.653
 6256POPC   NC318551  22.188   9.009   9.453
 6256POPC   PO418552  22.143   8.987   9.153
 6256POPC   GL118553  22.130   8.985   8.853
 6256POPC   GL218554  22.277   9.052   8.853
 6256POPC   C1A18555  22.161   8.984   8.553
 6256POPC   D2A18556  22.212   8.951   8.253
 6256POPC   C3A18557  22.136   8.986   7.953
 6256POPC   C4A18558  22.119   8.926   7.653
 6256POPC   C1B18559  22.369   9.040   8.553
 6256POPC   C2B18560  22.359   9.029   8.253
 6256POPC   C3B18561  22.419   9.076   7.953
 6256POPC   C4B18562  22.418   9.074   7.653
 6257POPC   NC318563   2.724  26.062   9.453
 6257POPC   PO418564   2.753  26.079   9.153
 6257POPC   GL118565   2.810  26.030   8.853
 6257POPC   GL218566   2.715  25.945   8.853
 6257POPC   C1A18567   2.774  26.006   8.553
 6257POPC   D2A18568   2.725  26.089   8.253
 6257POPC   C3A18569   2.802  26.024   7.953
 6257POPC   C4A18570   2.787  26.004   7.653
 6257POPC   C1B18571   2.551  25.875   8.553
 6257POPC   C2B18572   2.558  25.863   8.253
 6257POPC   C3B18573   2.613  25.890   7.953
 6257POPC   C4B18574   2.590  25.845   7.653
 6258POPC   NC318575   5.138  42.379   9.453
 6258POPC   PO418576   5.044  42.384   9.153
 6258POPC   GL118577   5.049  42.286   8.853
 6258POPC   GL218578   5.118  42.454   8.853
 6258POPC   C1A18579   5.124  42.286   8.553
 6258POPC   D2A18580   5.062  42.306   8.253
 6258POPC   C3A18581   5.054  42.329   7.953
 6258POPC   C4A18582   5.131  42.287   7.653
 6258POPC   C1B18583   5.159  42.614   8.553
 6258POPC   C2B18584   5.207  42.618   8.253
 6258POPC   C3B18585   5.210  42.567   7.953
 6258POPC   C4B18586   5.166  42.596   7.653
 6259POPC   NC318587  17.520   5.914   9.453
 6259POPC   PO418588  17.492   5.834   9.153
 6259POPC   GL118589  17.471   5.904   8.853
 6259POPC   GL218590  17.631   5.928   8.853
 6259POPC   C1A18591  17.544   5.819   8.553
 6259POPC   D2A18592  17.538   5.822   8.253
 6259POPC   C3A18593  17.495   5.901   7.953
 6259POPC   C4A18594  17.514   5.888   7.653
 6259POPC   C1B18595  17.716   5.970   8.553
 6259POPC   C2B18596  17.763   5.972   8.253
 6259POPC   C3B18597  17.731   5.948   7.953
 6259POPC   C4B18598  17.725   5.966   7.653
 6260POPC   NC318599   6.627  22.196   9.453
 6260POPC   PO418600   6.618  22.188   9.153
 6260POPC   GL118601   6.661  22.124   8.853
 6260POPC   GL218602   6.687  22.230   8.853
 6260POPC   C1A18603   6.633  22.162   8.553
 6260POPC   D2A18604   6.609  22.162   8.253
 6260POPC   C3A18605   6.685  22.151   7.953
 6260POPC   C4A18606   6.608  22.136   7.653
 6260POPC   C1B18607   6.736  22.380   8.553
 6260POPC   C2B18608   6.816  22.328   8.253
 6260POPC   C3B18609   6.777  22.333   7.953
 6260POPC   C4B18610   6.743  22.348   7.653
 6261POPC   NC318611  37.677  19.845   9.453
 6261POPC   PO418612  37.709  19.849   9.153
 6261POPC   GL118613  37.675  19.788   8.853
 6261POPC   GL218614  37.766  19.787   8.853
 6261POPC   C1A18615  37.646  19.785   8.553
 6261POPC   D2A18616  37.648  19.832   8.253
 6261POPC   C3A18617  37.692  19.850   7.953
 6261POPC   C4A18618  37.633  19.830   7.653
 6261POPC   C1B18619  37.901  19.687   8.553
 6261POPC   C2B18620  37.875  19.673   8.253
 6261POPC   C3B18621  37.894  19.719   7.953
 6261POPC   C4B18622  37.918  19.722   7.653
 6262POPC   NC318623   8.213  40.832   9.453
 6262POPC   PO418624   8.153  40.828   9.153
 6262POPC   GL118625   8.165  40.765   8.853
 6262POPC   GL218626   8.288  40.865   8.853
 6262POPC   C1A18627   8.199  40.764   8.553
 6262POPC   D2A18628   8.235  40.748   8.253
 6262POPC   C3A18629   8.206  40.806   7.953
 6262POPC   C4A18630   8.200  40.766   7.653
 6262POPC   C1B18631   8.349  40.958   8.553
 6262POPC   C2B18632   8.340  40.978   8.253
 6262POPC   C3B18633   8.317  40.965   7.953
 6262POPC   C4B18634   8.351  40.939   7.653
 6263POPC   NC318635  19.850  36.887   9.453
 6263POPC   PO418636  19.814  36.919   9.153
 6263POPC   GL118637  19.785  36.866   8.853
 6263POPC   GL218638  19.764  37.018   8.853
 6263POPC   C1A18639  19.826  36.918   8.553
 6263POPC   D2A18640  19.818  36.926   8.253
 6263POPC   C3A18641  19.871  36.903   7.953
 6263POPC   C4A18642  19.807  36.943   7.653
 6263POPC   C1B18643  19.632  37.087   8.553
 6263POPC   C2B18644  19.680  37.029   8.253
 6263POPC   C3B18645  19.697  37.050   7.953
 6263POPC   C4B18646  19.622  37.108   7.653
 6264POPC   NC318647  39.232   1.166   9.453
 6264POPC   PO418648  39.230   1.255   9.153
 6264POPC   GL118649  39.213   1.245   8.853
 6264POPC   GL218650  39.317   1.330   8.853
 6264POPC   C1A18651  39.190   1.240   8.553
 6264POPC   D2A18652  39.245   1.255   8.253
 6264POPC   C3A18653  39.220   1.205   7.953
 6264POPC   C4A18654  39.214   1.234   7.653
 6264POPC   C1B18655  39.285   1.416   8.553
 6264POPC   C2B18656  39.300   1.463   8.253
 6264POPC   C3B18657  39.306   1.462   7.953
 6264POPC   C4B18658  39.277   1.490   7.653
 6265POPC   NC318659  26.851   1.984   9.453
 6265POPC   PO418660  26.831   1.999   9.153
 6265POPC   GL118661  26.841   1.981   8.853
 6265POPC   GL218662  26.742   2.133   8.853
 6265POPC   C1A18663  26.831   2.020   8.553
 6265POPC   D2A18664  26.825   2.039   8.253
 6265POPC   C3A18665  26.862   1.984   7.953
 6265POPC   C4A18666  26.792   1.958   7.653
 6265POPC   C1B18667  26.744   2.220   8.553
 6265POPC   C2B18668  26.715   2.189   8.253
 6265POPC   C3B18669  26.704   2.189   7.953
 6265POPC   C4B18670  26.731   2.254   7.653
 6266POPC   NC318671  21.413  22.156   9.453
 6266POPC   PO418672  21.426  22.194   9.153
 6266POPC   GL118673  21.418  22.197   8.853
 6266POPC   GL218674  21.535  22.144   8.853
 6266POPC   C1A18675  21.403  22.161   8.553
 6266POPC   D2A18676  21.383  22.168   8.253
 6266POPC   C3A18677  21.421  22.149   7.953
 6266POPC   C4A18678  21.348  22.133   7.653
 6266POPC   C1B18679  21.644  22.205   8.553
 6266POPC   C2B18680  21.678  22.232   8.253
 6266POPC   C3B18681  21.585  22.230   7.953
 6266POPC   C4B18682  21.600  22.206   7.653
 6267POPC   NC318683   3.589   3.533   9.453
 6267POPC   PO418684   3.510   3.568   9.153
 6267POPC   GL118685   3.505   3.510   8.853
 6267POPC   GL218686   3.470   3.397   8.853
 6267POPC   C1A18687   3.580   3.548   8.553
 6267POPC   D2A18688   3.564   3.580   8.253
 6267POPC   C3A18689   3.584   3.537   7.953
 6267POPC   C4A18690   3.588   3.495   7.653
 6267POPC   C1B18691   3.353   3.340   8.553
 6267POPC   C2B18692   3.406   3.355   8.253
 6267POPC   C3B18693   3.400   3.356   7.953
 6267POPC   C4B18694   3.410   3.348   7.653
 6268POPC   NC318695   2.039  26.065   9.453
 6268POPC   PO418696   2.030  26.071   9.153
 6268POPC   GL118697   1.970  26.060   8.853
 6268POPC   GL218698   1.843  26.105   8.853
 6268POPC   C1A18699   1.978  26.022   8.553
 6268POPC   D2A18700   1.969  26.077   8.253
 6268POPC   C3A18701   2.002  25.996   7.953
 6268POPC   C4A18702   2.018  26.005   7.653
 6268POPC   C1B18703   1.796  26.154   8.553
 6268POPC   C2B18704   1.754  26.108   8.253
 6268POPC   C3B18705   1.715  26.141   7.953
 6268POPC   C4B18706   1.768  26.111   7.653
 6269POPC   NC318707  44.681  33.820   9.453
 6269POPC   PO418708  44.678  33.765   9.153
 6269POPC   GL118709  44.682  33.822   8.853
 6269POPC   GL218710  44.590  33.929   8.853
 6269POPC   C1A18711  44.630  33.769   8.553
 6269POPC   D2A18712  44.623  33.773   8.253
 6269POPC   C3A18713  44.647  33.825   7.953
 6269POPC   C4A18714  44.686  33.830   7.653
 6269POPC   C1B18715  44.557  33.980   8.553
 6269POPC   C2B18716  44.542  34.023   8.253
 6269POPC   C3B18717  44.523  34.031   7.953
 6269POPC   C4B18718  44.527  34.046   7.653
 6270POPC   NC318719  28.343   3.550   9.453
 6270POPC   PO418720  28.388   3.545   9.153
 6270POPC   GL118721  28.343   3.591   8.853
 6270POPC   GL218722  28.501   3.494   8.853
 6270POPC   C1A18723  28.392   3.574   8.553
 6270POPC   D2A18724  28.401   3.583   8.253
 6270POPC   C3A18725  28.334   3.511   7.953
 6270POPC   C4A18726  28.409   3.509   7.653
 6270POPC   C1B18727  28.615   3.485   8.553
 6270POPC   C2B18728  28.639   3.443   8.253
 6270POPC   C3B18729  28.636   3.439   7.953
 6270POPC   C4B18730  28.635   3.416   7.653
 6271POPC   NC318731  42.315  24.474   9.453
 6271POPC   PO418732  42.341  24.455   9.153
 6271POPC   GL118733  42.311  24.448   8.853
 6271POPC   GL218734  42.452  24.522   8.853
 6271POPC   C1A18735  42.286  24.456   8.553
 6271POPC   D2A18736  42.294  24.491   8.253
 6271POPC   C3A18737  42.352  24.474   7.953
 6271POPC   C4A18738  42.364  24.449   7.653
 6271POPC   C1B18739  42.563  24.470   8.553
 6271POPC   C2B18740  42.597  24.552   8.253
 6271POPC   C3B18741  42.631  24.468   7.953
 6271POPC   C4B18742  42.591  24.551   7.653
 6272POPC   NC318743  29.101  32.237   9.453
 6272POPC   PO418744  29.171  32.199   9.153
 6272POPC   GL118745  29.157  32.220   8.853
 6272POPC   GL218746  29.094  32.155   8.853
 6272POPC   C1A18747  29.120  32.218   8.553
 6272POPC   D2A18748  29.148  32.202   8.253
 6272POPC   C3A18749  29.152  32.222   7.953
 6272POPC   C4A18750  29.176  32.217   7.653
 6272POPC   C1B18751  29.000  32.055   8.553
 6272POPC   C2B18752  29.077  32.007   8.253
 6272POPC   C3B18753  28.993  32.072   7.953
 6272POPC   C4B18754  29.021  31.980   7.653
 6273POPC   NC318755  40.008  21.422   9.453
 6273POPC   PO418756  39.958  21.366   9.153
 6273POPC   GL118757  39.960  21.436   8.853
 6273POPC   GL218758  39.990  21.270   8.853
 6273POPC   C1A18759  40.019  21.376   8.553
 6273POPC   D2A18760  40.044  21.391   8.253
 6273POPC   C3A18761  39.965  21.375   7.953
 6273POPC   C4A18762  40.009  21.352   7.653
 6273POPC   C1B18763  39.989  21.120   8.553
 6273POPC   C2B18764  39.990  21.091   8.253
 6273POPC   C3B18765  39.989  21.184   7.953
 6273POPC   C4B18766  40.056  21.139   7.653
 6274POPC   NC318767  35.357  29.967   9.453
 6274POPC   PO418768  35.309  29.909   9.153
 6274POPC   GL118769  35.356  29.926   8.853
 6274POPC   GL218770  35.520  29.925   8.853
 6274POPC   C1A18771  35.383  29.897   8.553
 6274POPC   D2A18772  35.329  29.928   8.253
 6274POPC   C3A18773  35.349  29.948   7.953
 6274POPC   C4A18774  35.401  29.871   7.653
 6274POPC   C1B18775  35.638  29.871   8.553
 6274POPC   C2B18776  35.568  29.915   8.253
 6274POPC   C3B18777  35.637  29.864   7.953
 6274POPC   C4B18778  35.585  29.944   7.653
 6275POPC   NC318779  36.078  43.837   9.453
 6275POPC   PO418780  36.080  43.864   9.153
 6275POPC   GL118781  36.160  43.909   8.853
 6275POPC   GL218782  36.082  43.747   8.853
 6275POPC   C1A18783  36.137  43.909   8.553
 6275POPC   D2A18784  36.115  43.852   8.253
 6275POPC   C3A18785  36.107  43.905   7.953
 6275POPC   C4A18786  36.124  43.933   7.653
 6275POPC   C1B18787  36.032  43.633   8.553
 6275POPC   C2B18788  35.996  43.628   8.253
 6275POPC   C3B18789  35.992  43.618   7.953
 6275POPC   C4B18790  36.039  43.680   7.653
 6276POPC   NC318791  36.948  12.043   9.453
 6276POPC   PO418792  36.904  12.034   9.153
 6276POPC   GL118793  36.865  12.072   8.853
 6276POPC   GL218794  36.792  12.069   8.853
 6276POPC   C1A18795  36.857  12.038   8.553
 6276POPC   D2A18796  36.947  12.100   8.253
 6276POPC   C3A18797  36.914  12.049   7.953
 6276POPC   C4A18798  36.914  12.117   7.653
 6276POPC   C1B18799  36.697  12.127   8.553
 6276POPC   C2B18800  36.686  12.135   8.253
 6276POPC   C3B18801  36.687  12.152   7.953
 6276POPC   C4B18802  36.615  12.190   7.653
 6277POPC   NC318803  33.067  13.630   9.453
 6277POPC   PO418804  33.029  13.655   9.153
 6277POPC   GL118805  33.049  13.605   8.853
 6277POPC   GL218806  32.940  13.727   8.853
 6277POPC   C1A18807  32.982  13.672   8.553
 6277POPC   D2A18808  32.975  13.645   8.253
 6277POPC   C3A18809  33.020  13.580   7.953
 6277POPC   C4A18810  33.030  13.642   7.653
 6277POPC   C1B18811  32.956  13.833   8.553
 6277POPC   C2B18812  32.957  13.816   8.253
 6277POPC   C3B18813  32.981  13.903   7.953
 6277POPC   C4B18814  32.977  13.835   7.653
 6278POPC   NC318815  10.552  15.952   9.453
 6278POPC   PO418816  10.492  15.962   9.153
 6278POPC   GL118817  10.477  15.984   8.853
 6278POPC   GL218818  10.529  16.124   8.853
 6278POPC   C1A18819  10.560  15.914   8.553
 6278POPC   D2A18820  10.493  15.905   8.253
 6278POPC   C3A18821  10.512  15.991   7.953
 6278POPC   C4A18822  10.509  15.929   7.653
 6278POPC   C1B18823  10.507  16.156   8.553
 6278POPC   C2B18824  10.579  16.183   8.253
 6278POPC   C3B18825  10.518  16.173   7.953
 6278POPC   C4B18826  10.585  16.188   7.653
 6279POPC   NC318827  22.212   8.212   9.453
 6279POPC   PO418828  22.196   8.197   9.153
 6279POPC   GL118829  22.128   8.183   8.853
 6279POPC   GL218830  22.050   8.292   8.853
 6279POPC   C1A18831  22.119   8.220   8.553
 6279POPC   D2A18832  22.121   8.236   8.253
 6279POPC   C3A18833  22.170   8.166   7.953
 6279POPC   C4A18834  22.138   8.194   7.653
 6279POPC   C1B18835  21.988   8.306   8.553
 6279POPC   C2B18836  21.942   8.300   8.253
 6279POPC   C3B18837  21.936   8.343   7.953
 6279POPC   C4B18838  21.990   8.337   7.653
 6280POPC   NC318839  26.824  19.078   9.453
 6280POPC   PO418840  26.771  19.072   9.153
 6280POPC   GL118841  26.831  19.067   8.853
 6280POPC   GL218842  26.806  18.988   8.853
 6280POPC   C1A18843  26.791  19.038   8.553
 6280POPC   D2A18844  26.780  19.031   8.253
 6280POPC   C3A18845  26.790  19.052   7.953
 6280POPC   C4A18846  26.863  19.014   7.653
 6280POPC   C1B18847  26.709  18.839   8.553
 6280POPC   C2B18848  26.756  18.812   8.253
 6280POPC   C3B18849  26.797  18.785   7.953
 6280POPC   C4B18850  26.742  18.794   7.653
 6281POPC   NC318851  26.078  29.126   9.453
 6281POPC   PO418852  26.026  29.163   9.153
 6281POPC   GL118853  26.060  29.117   8.853
 6281POPC   GL218854  26.137  29.170   8.853
 6281POPC   C1A18855  26.052  29.173   8.553
 6281POPC   D2A18856  26.041  29.170   8.253
 6281POPC   C3A18857  26.083  29.153   7.953
 6281POPC   C4A18858  26.022  29.154   7.653
 6281POPC   C1B18859  26.300  29.227   8.553
 6281POPC   C2B18860  26.227  29.210   8.253
 6281POPC   C3B18861  26.277  29.245   7.953
 6281POPC   C4B18862  26.261  29.248   7.653
 6282POPC   NC318863  19.049  39.215   9.453
 6282POPC   PO418864  19.037  39.202   9.153
 6282POPC   GL118865  19.058  39.263   8.853
 6282POPC   GL218866  19.173  39.122   8.853
 6282POPC   C1A18867  19.046  39.272   8.553
 6282POPC   D2A18868  19.041  39.201   8.253
 6282POPC   C3A18869  19.053  39.218   7.953
 6282POPC   C4A18870  19.077  39.208   7.653
 6282POPC   C1B18871  19.265  39.147   8.553
 6282POPC   C2B18872  19.268  39.068   8.253
 6282POPC   C3B18873  19.316  39.093   7.953
 6282POPC   C4B18874  19.320  39.143   7.653
 6283POPC   NC318875  16.692  11.278   9.453
 6283POPC   PO418876  16.726  11.287   9.153
 6283POPC   GL118877  16.776  11.318   8.853
 6283POPC   GL218878  16.585  11.328   8.853
 6283POPC   C1A18879  16.723  11.253   8.553
 6283POPC   D2A18880  16.768  11.310   8.253
 6283POPC   C3A18881  16.750  11.269   7.953
 6283POPC   C4A18882  16.771  11.302   7.653
 6283POPC   C1B18883  16.447  11.415   8.553
 6283POPC   C2B18884  16.502  11.337   8.253
 6283POPC   C3B18885  16.507  11.401   7.953
 6283POPC   C4B18886  16.480  11.418   7.653
 6284POPC   NC318887  12.826  13.635   9.453
 6284POPC   PO418888  12.867  13.626   9.153
 6284POPC   GL118889  12.822  13.612   8.853
 6284POPC   GL218890  12.727  13.679   8.853
 6284POPC   C1A18891  12.832  13.650   8.553
 6284POPC   D2A18892  12.848  13.652   8.253
 6284POPC   C3A18893  12.889  13.627   7.953
 6284POPC   C4A18894  12.870  13.651   7.653
 6284POPC   C1B18895  12.646  13.676   8.553
 6284POPC   C2B18896  12.645  13.684   8.253
 6284POPC   C3B18897  12.654  13.662   7.953
 6284POPC   C4B18898  12.587  13.682   7.653
 6285POPC   NC318899  41.584  27.606   9.453
 6285POPC   PO418900  41.544  27.591   9.153
 6285POPC   GL118901  41.572  27.643   8.853
 6285POPC   GL218902  41.504  27.686   8.853
 6285POPC   C1A18903  41.511  27.606   8.553
 6285POPC   D2A18904  41.591  27.581   8.253
 6285POPC   C3A18905  41.600  27.578   7.953
 6285POPC   C4A18906  41.526  27.588   7.653
 6285POPC   C1B18907  41.557  27.871   8.553
 6285POPC   C2B18908  41.490  27.831   8.253
 6285POPC   C3B18909  41.555  27.881   7.953
 6285POPC   C4B18910  41.464  27.798   7.653
 6286POPC   NC318911  22.986  34.540   9.453
 6286POPC   PO418912  22.899  34.611   9.153
 6286POPC   GL118913  22.940  34.547   8.853
 6286POPC   GL218914  23.111  34.601   8.853
 6286POPC   C1A18915  22.956  34.574   8.553
 6286POPC   D2A18916  22.987  34.560   8.253
 6286POPC   C3A18917  22.937  34.595   7.953
 6286POPC   C4A18918  22.981  34.536   7.653
 6286POPC   C1B18919  23.156  34.539   8.553
 6286POPC   C2B18920  23.219  34.527   8.253
 6286POPC   C3B18921  23.156  34.543   7.953
 6286POPC   C4B18922  23.160  34.581   7.653
 6287POPC   NC318923  40.759  29.880   9.453
 6287POPC   PO418924  40.819  29.931   9.153
 6287POPC   GL118925  40.751  29.921   8.853
 6287POPC   GL218926  40.684  29.905   8.853
 6287POPC   C1A18927  40.787  29.910   8.553
 6287POPC   D2A18928  40.804  29.917   8.253
 6287POPC   C3A18929  40.777  29.923   7.953
 6287POPC   C4A18930  40.771  29.925   7.653
 6287POPC   C1B18931  40.556  29.907   8.553
 6287POPC   C2B18932  40.490  29.999   8.253
 6287POPC   C3B18933  40.536  29.933   7.953
 6287POPC   C4B18934  40.516  29.918   7.653
 6288POPC   NC318935  21.400  19.009   9.453
 6288POPC   PO418936  21.337  19.096   9.153
 6288POPC   GL118937  21.393  19.102   8.853
 6288POPC   GL218938  21.250  19.109   8.853
 6288POPC   C1A18939  21.386  19.065   8.553
 6288POPC   D2A18940  21.354  19.099   8.253
 6288POPC   C3A18941  21.356  19.095   7.953
 6288POPC   C4A18942  21.394  19.054   7.653
 6288POPC   C1B18943  21.098  19.114   8.553
 6288POPC   C2B18944  21.175  19.072   8.253
 6288POPC   C3B18945  21.127  19.042   7.953
 6288POPC   C4B18946  21.099  19.101   7.653
 6289POPC   NC318947  12.125  33.806   9.453
 6289POPC   PO418948  12.091  33.842   9.153
 6289POPC   GL118949  12.120  33.773   8.853
 6289POPC   GL218950  11.978  33.740   8.853
 6289POPC   C1A18951  12.042  33.807   8.553
 6289POPC   D2A18952  12.112  33.756   8.253
 6289POPC   C3A18953  12.059  33.789   7.953
 6289POPC   C4A18954  12.111  33.830   7.653
 6289POPC   C1B18955  11.883  33.632   8.553
 6289POPC   C2B18956  11.914  33.714   8.253
 6289POPC   C3B18957  11.854  33.673   7.953
 6289POPC   C4B18958  11.865  33.691   7.653
 6290POPC   NC318959  21.388  28.356   9.453
 6290POPC   PO418960  21.380  28.332   9.153
 6290POPC   GL118961  21.395  28.333   8.853
 6290POPC   GL218962  21.293  28.320   8.853
 6290POPC   C1A18963  21.400  28.329   8.553
 6290POPC   D2A18964  21.340  28.320   8.253
 6290POPC   C3A18965  21.357  28.404   7.953
 6290POPC   C4A18966  21.370  28.328   7.653
 6290POPC   C1B18967  21.234  28.218   8.553
 6290POPC   C2B18968  21.198  28.155   8.253
 6290POPC   C3B18969  21.177  28.153   7.953
 6290POPC   C4B18970  21.175  28.154   7.653
 6291POPC   NC318971   4.357  10.494   9.453
 6291POPC   PO418972   4.339  10.546   9.153
 6291POPC   GL118973   4.339  10.549   8.853
 6291POPC   GL218974   4.478  10.471   8.853
 6291POPC   C1A18975   4.320  10.572   8.553
 6291POPC   D2A18976   4.323  10.568   8.253
 6291POPC   C3A18977   4.337  10.542   7.953
 6291POPC   C4A18978   4.339  10.528   7.653
 6291POPC   C1B18979   4.532  10.488   8.553
 6291POPC   C2B18980   4.558  10.462   8.253
 6291POPC   C3B18981   4.551  10.470   7.953
 6291POPC   C4B18982   4.546  10.449   7.653
 6292POPC   NC318983  22.195   9.749   9.453
 6292POPC   PO418984  22.143   9.720   9.153
 6292POPC   GL118985  22.173   9.774   8.853
 6292POPC   GL218986  22.142   9.841   8.853
 6292POPC   C1A18987  22.132   9.720   8.553
 6292POPC   D2A18988  22.126   9.758   8.253
 6292POPC   C3A18989  22.167   9.743   7.953
 6292POPC   C4A18990  22.182   9.782   7.653
 6292POPC   C1B18991  22.038  10.003   8.553
 6292POPC   C2B18992  22.102   9.986   8.253
 6292POPC   C3B18993  22.082   9.979   7.953
 6292POPC   C4B18994  22.078   9.974   7.653
 6293POPC   NC318995  35.356  24.463   9.453
 6293POPC   PO418996  35.352  24.497   9.153
 6293POPC   GL118997  35.332  24.494   8.853
 6293POPC   GL218998  35.238  24.376   8.853
 6293POPC   C1A18999  35.374  24.473   8.553
 6293POPC   D2A19000  35.312  24.441   8.253
 6293POPC   C3A19001  35.342  24.509   7.953
 6293POPC   C4A19002  35.306  24.453   7.653
 6293POPC   C1B19003  35.171  24.291   8.553
 6293POPC   C2B19004  35.187  24.250   8.253
 6293POPC   C3B19005  35.142  24.262   7.953
 6293POPC   C4B19006  35.178  24.266   7.653
 6294POPC   NC319007  13.590  42.379   9.453
 6294POPC   PO419008  13.661  42.328   9.153
 6294POPC   GL119009  13.597  42.337   8.853
 6294POPC   GL219010  13.506  42.294   8.853
 6294POPC   C1A19011  13.667  42.363   8.553
 6294POPC   D2A19012  13.630  42.384   8.253
 6294POPC   C3A19013  13.607  42.308   7.953
 6294POPC   C4A19014  13.653  42.364   7.653
 6294POPC   C1B19015  13.381  42.278   8.553
 6294POPC   C2B19016  13.409  42.258   8.253
 6294POPC   C3B19017  13.408  42.291   7.953
 6294POPC   C4B19018  13.385  42.325   7.653
 6295POPC   NC319019  40.823  19.821   9.453
 6295POPC   PO419020  40.742  19.795   9.153
 6295POPC   GL119021  40.765  19.882   8.853
 6295POPC   GL219022  40.842  19.766   8.853
 6295POPC   C1A19023  40.829  19.793   8.553
 6295POPC   D2A19024  40.792  19.847   8.253
 6295POPC   C3A19025  40.764  19.861   7.953
 6295POPC   C4A19026  40.750  19.840   7.653
 6295POPC   C1B19027  40.971  19.671   8.553
 6295POPC   C2B19028  40.958  19.681   8.253
 6295POPC   C3B19029  40.961  19.755   7.953
 6295POPC   C4B19030  41.040  19.707   7.653
 6296POPC   NC319031  23.728  13.585   9.453
 6296POPC   PO419032  23.692  13.587   9.153
 6296POPC   GL119033  23.667  13.673   8.853
 6296POPC   GL219034  23.548  13.678   8.853
 6296POPC   C1A19035  23.755  13.640   8.553
 6296POPC   D2A19036  23.678  13.640   8.253
 6296POPC   C3A19037  23.700  13.663   7.953
 6296POPC   C4A19038  23.748  13.586   7.653
 6296POPC   C1B19039  23.470  13.674   8.553
 6296POPC   C2B19040  23.445  13.697   8.253
 6296POPC   C3B19041  23.443  13.746   7.953
 6296POPC   C4B19042  23.500  13.744   7.653
 6297POPC   NC319043   1.211  30.723   9.453
 6297POPC   PO419044   1.252  30.701   9.153
 6297POPC   GL119045   1.242  30.671   8.853
 6297POPC   GL219046   1.198  30.612   8.853
 6297POPC   C1A19047   1.200  30.663   8.553
 6297POPC   D2A19048   1.213  30.739   8.253
 6297POPC   C3A19049   1.206  30.674   7.953
 6297POPC   C4A19050   1.189  30.731   7.653
 6297POPC   C1B19051   1.243  30.448   8.553
 6297POPC   C2B19052   1.181  30.398   8.253
 6297POPC   C3B19053   1.219  30.469   7.953
 6297POPC   C4B19054   1.197  30.465   7.653
 6298POPC   NC319055  22.194  15.985   9.453
 6298POPC   PO419056  22.174  15.975   9.153
 6298POPC   GL119057  22.132  15.988   8.853
 6298POPC   GL219058  22.174  15.861   8.853
 6298POPC   C1A19059  22.156  16.000   8.553
 6298POPC   D2A19060  22.159  15.964   8.253
 6298POPC   C3A19061  22.156  15.929   7.953
 6298POPC   C4A19062  22.200  15.947   7.653
 6298POPC   C1B19063  22.160  15.702   8.553
 6298POPC   C2B19064  22.126  15.704   8.253
 6298POPC   C3B19065  22.110  15.667   7.953
 6298POPC   C4B19066  22.153  15.733   7.653
 6299POPC   NC319067   9.743  19.840   9.453
 6299POPC   PO419068   9.775  19.852   9.153
 6299POPC   GL119069   9.774  19.858   8.853
 6299POPC   GL219070   9.606  19.788   8.853
 6299POPC   C1A19071   9.793  19.798   8.553
 6299POPC   D2A19072   9.782  19.839   8.253
 6299POPC   C3A19073   9.790  19.864   7.953
 6299POPC   C4A19074   9.699  19.834   7.653
 6299POPC   C1B19075   9.539  19.747   8.553
 6299POPC   C2B19076   9.513  19.794   8.253
 6299POPC   C3B19077   9.516  19.750   7.953
 6299POPC   C4B19078   9.555  19.771   7.653
 6300POPC   NC319079  30.674  32.216   9.453
 6300POPC   PO419080  30.650  32.264   9.153
 6300POPC   GL119081  30.668  32.246   8.853
 6300POPC   GL219082  30.636  32.338   8.853
 6300POPC   C1A19083  30.746  32.277   8.553
 6300POPC   D2A19084  30.670  32.289   8.253
 6300POPC   C3A19085  30.647  32.262   7.953
 6300POPC   C4A19086  30.719  32.284   7.653
 6300POPC   C1B19087  30.517  32.483   8.553
 6300POPC   C2B19088  30.497  32.419   8.253
 6300POPC   C3B19089  30.522  32.450   7.953
 6300POPC   C4B19090  30.525  32.468   7.653
 6301POPC   NC319091  34.554  41.604   9.453
 6301POPC   PO419092  34.531  41.572   9.153
 6301POPC   GL119093  34.555  41.543   8.853
 6301POPC   GL219094  34.641  41.638   8.853
 6301POPC   C1A19095  34.587  41.548   8.553
 6301POPC   D2A19096  34.610  41.537   8.253
 6301POPC   C3A19097  34.624  41.537   7.953
 6301POPC   C4A19098  34.617  41.569   7.653
 6301POPC   C1B19099  34.691  41.814   8.553
 6301POPC   C2B19100  34.747  41.788   8.253
 6301POPC   C3B19101  34.750  41.734   7.953
 6301POPC   C4B19102  34.756  41.804   7.653
 6302POPC   NC319103  11.319  17.552   9.453
 6302POPC   PO419104  11.335  17.551   9.153
 6302POPC   GL119105  11.307  17.513   8.853
 6302POPC   GL219106  11.209  17.373   8.853
 6302POPC   C1A19107  11.309  17.517   8.553
 6302POPC   D2A19108  11.334  17.492   8.253
 6302POPC   C3A19109  11.344  17.526   7.953
 6302POPC   C4A19110  11.287  17.473   7.653
 6302POPC   C1B19111  11.114  17.256   8.553
 6302POPC   C2B19112  11.205  17.320   8.253
 6302POPC   C3B19113  11.178  17.334   7.953
 6302POPC   C4B19114  11.176  17.260   7.653
 6303POPC   NC319115  13.655  15.223   9.453
 6303POPC   PO419116  13.651  15.184   9.153
 6303POPC   GL119117  13.609  15.148   8.853
 6303POPC   GL219118  13.552  15.273   8.853
 6303POPC   C1A19119  13.607  15.146   8.553
 6303POPC   D2A19120  13.642  15.187   8.253
 6303POPC   C3A19121  13.651  15.167   7.953
 6303POPC   C4A19122  13.603  15.134   7.653
 6303POPC   C1B19123  13.548  15.432   8.553
 6303POPC   C2B19124  13.515  15.369   8.253
 6303POPC   C3B19125  13.524  15.398   7.953
 6303POPC   C4B19126  13.590  15.421   7.653
 6304POPC   NC319127  35.318   1.997   9.453
 6304POPC   PO419128  35.369   1.946   9.153
 6304POPC   GL119129  35.374   1.942   8.853
 6304POPC   GL219130  35.185   1.941   8.853
 6304POPC   C1A19131  35.348   1.952   8.553
 6304POPC   D2A19132  35.385   2.022   8.253
 6304POPC   C3A19133  35.370   2.034   7.953
 6304POPC   C4A19134  35.400   1.943   7.653
 6304POPC   C1B19135  35.124   1.923   8.553
 6304POPC   C2B19136  35.074   1.891   8.253
 6304POPC   C3B19137  35.148   1.937   7.953
 6304POPC   C4B19138  35.152   1.915   7.653
 6305POPC   NC319139   0.447  42.337   9.453
 6305POPC   PO419140   0.435  42.357   9.153
 6305POPC   GL119141   0.443  42.368   8.853
 6305POPC   GL219142   0.558  42.223   8.853
 6305POPC   C1A19143   0.405  42.355   8.553
 6305POPC   D2A19144   0.457  42.286   8.253
 6305POPC   C3A19145   0.468  42.290   7.953
 6305POPC   C4A19146   0.463  42.297   7.653
 6305POPC   C1B19147   0.596  42.128   8.553
 6305POPC   C2B19148   0.641  42.186   8.253
 6305POPC   C3B19149   0.655  42.159   7.953
 6305POPC   C4B19150   0.645  42.142   7.653
 6306POPC   NC319151   0.440  41.608   9.453
 6306POPC   PO419152   0.451  41.520   9.153
 6306POPC   GL119153   0.449  41.539   8.853
 6306POPC   GL219154   0.305  41.500   8.853
 6306POPC   C1A19155   0.430  41.523   8.553
 6306POPC   D2A19156   0.453  41.581   8.253
 6306POPC   C3A19157   0.412  41.575   7.953
 6306POPC   C4A19158   0.438  41.547   7.653
 6306POPC   C1B19159   0.218  41.437   8.553
 6306POPC   C2B19160   0.219  41.400   8.253
 6306POPC   C3B19161   0.187  41.379   7.953
 6306POPC   C4B19162   0.233  41.392   7.653
 6307POPC   NC319163   2.798   8.939   9.453
 6307POPC   PO419164   2.730   8.980   9.153
 6307POPC   GL119165   2.746   8.979   8.853
 6307POPC   GL219166   2.770   8.810   8.853
 6307POPC   C1A19167   2.728   8.981   8.553
 6307POPC   D2A19168   2.763   8.951   8.253
 6307POPC   C3A19169   2.729   8.989   7.953
 6307POPC   C4A19170   2.747   8.989   7.653
 6307POPC   C1B19171   2.774   8.695   8.553
 6307POPC   C2B19172   2.762   8.760   8.253
 6307POPC   C3B19173   2.741   8.759   7.953
 6307POPC   C4B19174   2.770   8.763   7.653
 6308POPC   NC319175   5.903   6.613   9.453
 6308POPC   PO419176   5.862   6.643   9.153
 6308POPC   GL119177   5.890   6.635   8.853
 6308POPC   GL219178   5.833   6.567   8.853
 6308POPC   C1A19179   5.824   6.673   8.553
 6308POPC   D2A19180   5.856   6.690   8.253
 6308POPC   C3A19181   5.861   6.636   7.953
 6308POPC   C4A19182   5.839   6.598   7.653
 6308POPC   C1B19183   5.864   6.398   8.553
 6308POPC   C2B19184   5.798   6.358   8.253
 6308POPC   C3B19185   5.856   6.380   7.953
 6308POPC   C4B19186   5.872   6.438   7.653
 6309POPC   NC319187  34.618  15.967   9.453
 6309POPC   PO419188  34.577  15.939   9.153
 6309POPC   GL119189  34.591  15.956   8.853
 6309POPC   GL219190  34.522  15.840   8.853
 6309POPC   C1A19191  34.531  15.935   8.553
 6309POPC   D2A19192  34.587  15.915   8.253
 6309POPC   C3A19193  34.607  15.944   7.953
 6309POPC   C4A19194  34.604  15.918   7.653
 6309POPC   C1B19195  34.584  15.669   8.553
 6309POPC   C2B19196  34.542  15.719   8.253
 6309POPC   C3B19197  34.529  15.696   7.953
 6309POPC   C4B19198  34.538  15.692   7.653
 6310POPC   NC319199   4.271  22.151   9.453
 6310POPC   PO419200   4.272  22.163   9.153
 6310POPC   GL119201   4.295  22.146   8.853
 6310POPC   GL219202   4.401  22.163   8.853
 6310POPC   C1A19203   4.355  22.154   8.553
 6310POPC   D2A19204   4.323  22.178   8.253
 6310POPC   C3A19205   4.293  22.203   7.953
 6310POPC   C4A19206   4.363  22.131   7.653
 6310POPC   C1B19207   4.575  22.072   8.553
 6310POPC   C2B19208   4.579  22.023   8.253
 6310POPC   C3B19209   4.596  22.084   7.953
 6310POPC   C4B19210   4.539  22.025   7.653
 6311POPC   NC319211  37.654  18.247   9.453
 6311POPC   PO419212  37.685  18.270   9.153
 6311POPC   GL119213  37.703  18.314   8.853
 6311POPC   GL219214  37.730  18.206   8.853
 6311POPC   C1A19215  37.688  18.307   8.553
 6311POPC   D2A19216  37.712  18.325   8.253
 6311POPC   C3A19217  37.723  18.320   7.953
 6311POPC   C4A19218  37.646  18.245   7.653
 6311POPC   C1B19219  37.740  18.062   8.553
 6311POPC   C2B19220  37.766  18.031   8.253
 6311POPC   C3B19221  37.779  18.055   7.953
 6311POPC   C4B19222  37.752  18.035   7.653
 6312POPC   NC319223  44.638  28.405   9.453
 6312POPC   PO419224  44.612  28.326   9.153
 6312POPC   GL119225  44.692  28.362   8.853
 6312POPC   GL219226  44.616  28.502   8.853
 6312POPC   C1A19227  44.699  28.364   8.553
 6312POPC   D2A19228  44.692  28.408   8.253
 6312POPC   C3A19229  44.655  28.362   7.953
 6312POPC   C4A19230  44.625  28.378   7.653
 6312POPC   C1B19231  44.563  28.657   8.553
 6312POPC   C2B19232  44.540  28.565   8.253
 6312POPC   C3B19233  44.582  28.569   7.953
 6312POPC   C4B19234  44.578  28.585   7.653
 6313POPC   NC319235  41.533  33.804   9.453
 6313POPC   PO419236  41.553  33.750   9.153
 6313POPC   GL119237  41.593  33.779   8.853
 6313POPC   GL219238  41.561  33.882   8.853
 6313POPC   C1A19239  41.580  33.773   8.553
 6313POPC   D2A19240  41.545  33.799   8.253
 6313POPC   C3A19241  41.565  33.833   7.953
 6313POPC   C4A19242  41.602  33.776   7.653
 6313POPC   C1B19243  41.673  34.059   8.553
 6313POPC   C2B19244  41.601  34.011   8.253
 6313POPC   C3B19245  41.668  34.040   7.953
 6313POPC   C4B19246  41.682  33.987   7.653
 6314POPC   NC319247  10.552  15.131   9.453
 6314POPC   PO419248  10.492  15.180   9.153
 6314POPC   GL119249  10.492  15.177   8.853
 6314POPC   GL219250  10.531  15.316   8.853
 6314POPC   C1A19251  10.542  15.175   8.553
 6314POPC   D2A19252  10.547  15.192   8.253
 6314POPC   C3A19253  10.475  15.197   7.953
 6314POPC   C4A19254  10.571  15.180   7.653
 6314POPC   C1B19255  10.605  15.463   8.553
 6314POPC   C2B19256  10.599  15.399   8.253
 6314POPC   C3B19257  10.587  15.397   7.953
 6314POPC   C4B19258  10.618  15.469   7.653
 6315POPC   NC319259  15.228  33.001   9.453
 6315POPC   PO419260  15.135  33.001   9.153
 6315POPC   GL119261  15.196  32.993   8.853
 6315POPC   GL219262  15.075  33.002   8.853
 6315POPC   C1A19263  15.173  32.974   8.553
 6315POPC   D2A19264  15.144  32.982   8.253
 6315POPC   C3A19265  15.216  33.009   7.953
 6315POPC   C4A19266  15.189  33.007   7.653
 6315POPC   C1B19267  14.924  32.971   8.553
 6315POPC   C2B19268  14.964  32.921   8.253
 6315POPC   C3B19269  14.924  32.947   7.953
 6315POPC   C4B19270  14.897  32.912   7.653
 6316POPC   NC319271  13.638  23.695   9.453
 6316POPC   PO419272  13.663  23.744   9.153
 6316POPC   GL119273  13.620  23.694   8.853
 6316POPC   GL219274  13.634  23.642   8.853
 6316POPC   C1A19275  13.640  23.708   8.553
 6316POPC   D2A19276  13.642  23.739   8.253
 6316POPC   C3A19277  13.620  23.702   7.953
 6316POPC   C4A19278  13.582  23.753   7.653
 6316POPC   C1B19279  13.731  23.456   8.553
 6316POPC   C2B19280  13.699  23.455   8.253
 6316POPC   C3B19281  13.756  23.438   7.953
 6316POPC   C4B19282  13.687  23.521   7.653
 6317POPC   NC319283  39.964  36.124   9.453
 6317POPC   PO419284  39.983  36.105   9.153
 6317POPC   GL119285  39.959  36.168   8.853
 6317POPC   GL219286  40.079  36.205   8.853
 6317POPC   C1A19287  40.007  36.078   8.553
 6317POPC   D2A19288  39.965  36.175   8.253
 6317POPC   C3A19289  40.037  36.115   7.953
 6317POPC   C4A19290  40.002  36.105   7.653
 6317POPC   C1B19291  40.184  36.366   8.553
 6317POPC   C2B19292  40.174  36.325   8.253
 6317POPC   C3B19293  40.144  36.296   7.953
 6317POPC   C4B19294  40.130  36.278   7.653
 6318POPC   NC319295  17.480  29.165   9.453
 6318POPC   PO419296  17.499  29.147   9.153
 6318POPC   GL119297  17.464  29.120   8.853
 6318POPC   GL219298  17.411  29.038   8.853
 6318POPC   C1A19299  17.468  29.178   8.553
 6318POPC   D2A19300  17.457  29.193   8.253
 6318POPC   C3A19301  17.539  29.171   7.953
 6318POPC   C4A19302  17.500  29.153   7.653
 6318POPC   C1B19303  17.400  28.893   8.553
 6318POPC   C2B19304  17.389  28.886   8.253
 6318POPC   C3B19305  17.366  28.908   7.953
 6318POPC   C4B19306  17.423  28.901   7.653
 6319POPC   NC319307  23.715   7.424   9.453
 6319POPC   PO419308  23.747   7.394   9.153
 6319POPC   GL119309  23.666   7.378   8.853
 6319POPC   GL219310  23.625   7.375   8.853
 6319POPC   C1A19311  23.722   7.375   8.553
 6319POPC   D2A19312  23.670   7.439   8.253
 6319POPC   C3A19313  23.716   7.407   7.953
 6319POPC   C4A19314  23.720   7.419   7.653
 6319POPC   C1B19315  23.459   7.339   8.553
 6319POPC   C2B19316  23.433   7.389   8.253
 6319POPC   C3B19317  23.509   7.352   7.953
 6319POPC   C4B19318  23.527   7.376   7.653
 6320POPC   NC319319   2.775   5.885   9.453
 6320POPC   PO419320   2.788   5.870   9.153
 6320POPC   GL119321   2.721   5.915   8.853
 6320POPC   GL219322   2.891   5.785   8.853
 6320POPC   C1A19323   2.724   5.834   8.553
 6320POPC   D2A19324   2.727   5.881   8.253
 6320POPC   C3A19325   2.729   5.883   7.953
 6320POPC   C4A19326   2.762   5.858   7.653
 6320POPC   C1B19327   2.999   5.719   8.553
 6320POPC   C2B19328   2.940   5.741   8.253
 6320POPC   C3B19329   2.944   5.691   7.953
 6320POPC   C4B19330   2.979   5.688   7.653
 6321POPC   NC319331  31.504  26.015   9.453
 6321POPC   PO419332  31.519  26.007   9.153
 6321POPC   GL119333  31.489  26.032   8.853
 6321POPC   GL219334  31.439  26.192   8.853
 6321POPC   C1A19335  31.499  26.083   8.553
 6321POPC   D2A19336  31.508  26.079   8.253
 6321POPC   C3A19337  31.522  26.039   7.953
 6321POPC   C4A19338  31.469  26.067   7.653
 6321POPC   C1B19339  31.349  26.280   8.553
 6321POPC   C2B19340  31.331  26.238   8.253
 6321POPC   C3B19341  31.393  26.236   7.953
 6321POPC   C4B19342  31.308  26.248   7.653
 6322POPC   NC319343  20.637  20.655   9.453
 6322POPC   PO419344  20.584  20.644   9.153
 6322POPC   GL119345  20.572  20.566   8.853
 6322POPC   GL219346  20.580  20.532   8.853
 6322POPC   C1A19347  20.564  20.637   8.553
 6322POPC   D2A19348  20.620  20.568   8.253
 6322POPC   C3A19349  20.649  20.625   7.953
 6322POPC   C4A19350  20.623  20.589   7.653
 6322POPC   C1B19351  20.465  20.426   8.553
 6322POPC   C2B19352  20.430  20.437   8.253
 6322POPC   C3B19353  20.467  20.378   7.953
 6322POPC   C4B19354  20.478  20.375   7.653
 6323POPC   NC319355   5.918  40.048   9.453
 6323POPC   PO419356   5.881  39.990   9.153
 6323POPC   GL119357   5.875  39.986   8.853
 6323POPC   GL219358   5.746  39.980   8.853
 6323POPC   C1A19359   5.848  39.966   8.553
 6323POPC   D2A19360   5.852  39.960   8.253
 6323POPC   C3A19361   5.917  39.975   7.953
 6323POPC   C4A19362   5.858  40.009   7.653
 6323POPC   C1B19363   5.604  39.908   8.553
 6323POPC   C2B19364   5.684  39.929   8.253
 6323POPC   C3B19365   5.673  39.908   7.953
 6323POPC   C4B19366   5.694  39.927   7.653
 6324POPC   NC319367  16.710  19.047   9.453
 6324POPC   PO419368  16.727  19.029   9.153
 6324POPC   GL119369  16.777  19.082   8.853
 6324POPC   GL219370  16.696  18.914   8.853
 6324POPC   C1A19371  16.682  19.100   8.553
 6324POPC   D2A19372  16.703  19.016   8.253
 6324POPC   C3A19373  16.732  19.031   7.953
 6324POPC   C4A19374  16.708  19.040   7.653
 6324POPC   C1B19375  16.585  18.832   8.553
 6324POPC   C2B19376  16.628  18.830   8.253
 6324POPC   C3B19377  16.598  18.845   7.953
 6324POPC   C4B19378  16.586  18.816   7.653
 6325POPC   NC319379  37.709   4.299   9.453
 6325POPC   PO419380  37.723   4.358   9.153
 6325POPC   GL119381  37.685   4.282   8.853
 6325POPC   GL219382  37.546   4.365   8.853
 6325POPC   C1A19383  37.640   4.275   8.553
 6325POPC   D2A19384  37.697   4.274   8.253
 6325POPC   C3A19385  37.713   4.276   7.953
 6325POPC   C4A19386  37.667   4.320   7.653
 6325POPC   C1B19387  37.388   4.361   8.553
 6325POPC   C2B19388  37.448   4.274   8.253
 6325POPC   C3B19389  37.472   4.339   7.953
 6325POPC   C4B19390  37.457   4.336   7.653
 6326POPC   NC319391  22.918  29.969   9.453
 6326POPC   PO419392  22.983  29.871   9.153
 6326POPC   GL119393  22.955  29.965   8.853
 6326POPC   GL219394  22.961  30.025   8.853
 6326POPC   C1A19395  22.978  29.894   8.553
 6326POPC   D2A19396  22.931  29.944   8.253
 6326POPC   C3A19397  22.921  29.962   7.953
 6326POPC   C4A19398  22.956  29.874   7.653
 6326POPC   C1B19399  23.087  30.148   8.553
 6326POPC   C2B19400  23.043  30.130   8.253
 6326POPC   C3B19401  23.049  30.120   7.953
 6326POPC   C4B19402  23.104  30.168   7.653
 6327POPC   NC319403  39.199  33.781   9.453
 6327POPC   PO419404  39.184  33.815   9.153
 6327POPC   GL119405  39.248  33.845   8.853
 6327POPC   GL219406  39.355  33.806   8.853
 6327POPC   C1A19407  39.264  33.776   8.553
 6327POPC   D2A19408  39.225  33.773   8.253
 6327POPC   C3A19409  39.193  33.768   7.953
 6327POPC   C4A19410  39.254  33.831   7.653
 6327POPC   C1B19411  39.449  33.733   8.553
 6327POPC   C2B19412  39.498  33.765   8.253
 6327POPC   C3B19413  39.500  33.734   7.953
 6327POPC   C4B19414  39.445  33.776   7.653
 6328POPC   NC319415  38.407   6.621   9.453
 6328POPC   PO419416  38.409   6.641   9.153
 6328POPC   GL119417  38.426   6.681   8.853
 6328POPC   GL219418  38.509   6.594   8.853
 6328POPC   C1A19419  38.480   6.652   8.553
 6328POPC   D2A19420  38.467   6.691   8.253
 6328POPC   C3A19421  38.464   6.657   7.953
 6328POPC   C4A19422  38.466   6.601   7.653
 6328POPC   C1B19423  38.571   6.492   8.553
 6328POPC   C2B19424  38.648   6.474   8.253
 6328POPC   C3B19425  38.586   6.425   7.953
 6328POPC   C4B19426  38.567   6.487   7.653
 6329POPC   NC319427  14.405  33.789   9.453
 6329POPC   PO419428  14.372  33.757   9.153
 6329POPC   GL119429  14.356  33.834   8.853
 6329POPC   GL219430  14.502  33.668   8.853
 6329POPC   C1A19431  14.420  33.778   8.553
 6329POPC   D2A19432  14.387  33.844   8.253
 6329POPC   C3A19433  14.423  33.758   7.953
 6329POPC   C4A19434  14.430  33.811   7.653
 6329POPC   C1B19435  14.555  33.652   8.553
 6329POPC   C2B19436  14.557  33.620   8.253
 6329POPC   C3B19437  14.596  33.626   7.953
 6329POPC   C4B19438  14.547  33.648   7.653
 6330POPC   NC319439  21.372  40.030   9.453
 6330POPC   PO419440  21.402  40.035   9.153
 6330POPC   GL119441  21.362  40.015   8.853
 6330POPC   GL219442  21.316  39.901   8.853
 6330POPC   C1A19443  21.415  40.054   8.553
 6330POPC   D2A19444  21.432  40.008   8.253
 6330POPC   C3A19445  21.348  39.985   7.953
 6330POPC   C4A19446  21.382  39.998   7.653
 6330POPC   C1B19447  21.186  39.851   8.553
 6330POPC   C2B19448  21.240  39.801   8.253
 6330POPC   C3B19449  21.248  39.854   7.953
 6330POPC   C4B19450  21.226  39.845   7.653
 6331POPC   NC319451  35.322  33.823   9.453
 6331POPC   PO419452  35.312  33.821   9.153
 6331POPC   GL119453  35.340  33.786   8.853
 6331POPC   GL219454  35.270  33.732   8.853
 6331POPC   C1A19455  35.384  33.829   8.553
 6331POPC   D2A19456  35.317  33.805   8.253
 6331POPC   C3A19457  35.376  33.822   7.953
 6331POPC   C4A19458  35.317  33.767   7.653
 6331POPC   C1B19459  35.153  33.656   8.553
 6331POPC   C2B19460  35.162  33.661   8.253
 6331POPC   C3B19461  35.149  33.624   7.953
 6331POPC   C4B19462  35.130  33.695   7.653
 6332POPC   NC319463  35.345  30.694   9.453
 6332POPC   PO419464  35.310  30.648   9.153
 6332POPC   GL119465  35.361  30.740   8.853
 6332POPC   GL219466  35.501  30.687   8.853
 6332POPC   C1A19467  35.321  30.718   8.553
 6332POPC   D2A19468  35.392  30.710   8.253
 6332POPC   C3A19469  35.355  30.731   7.953
 6332POPC   C4A19470  35.336  30.734   7.653
 6332POPC   C1B19471  35.610  30.702   8.553
 6332POPC   C2B19472  35.585  30.695   8.253
 6332POPC   C3B19473  35.608  30.741   7.953
 6332POPC   C4B19474  35.587  30.688   7.653
 6333POPC   NC319475  32.231   4.336   9.453
 6333POPC   PO419476  32.271   4.362   9.153
 6333POPC   GL119477  32.254   4.339   8.853
 6333POPC   GL219478  32.298   4.165   8.853
 6333POPC   C1A19479  32.255   4.327   8.553
 6333POPC   D2A19480  32.260   4.310   8.253
 6333POPC   C3A19481  32.255   4.314   7.953
 6333POPC   C4A19482  32.207   4.347   7.653
 6333POPC   C1B19483  32.341   4.042   8.553
 6333POPC   C2B19484  32.339   4.044   8.253
 6333POPC   C3B19485  32.316   4.072   7.953
 6333POPC   C4B19486  32.397   4.137   7.653
 6334POPC   NC319487  21.394  12.841   9.453
 6334POPC   PO419488  21.361  12.839   9.153
 6334POPC   GL119489  21.372  12.845   8.853
 6334POPC   GL219490  21.440  12.947   8.853
 6334POPC   C1A19491  21.359  12.842   8.553
 6334POPC   D2A19492  21.373  12.820   8.253
 6334POPC   C3A19493  21.432  12.827   7.953
 6334POPC   C4A19494  21.398  12.869   7.653
 6334POPC   C1B19495  21.575  13.064   8.553
 6334POPC   C2B19496  21.501  13.019   8.253
 6334POPC   C3B19497  21.549  13.035   7.953
 6334POPC   C4B19498  21.597  13.081   7.653
 6335POPC   NC319499   6.608  21.391   9.453
 6335POPC   PO419500   6.631  21.399   9.153
 6335POPC   GL119501   6.653  21.402   8.853
 6335POPC   GL219502   6.554  21.338   8.853
 6335POPC   C1A19503   6.618  21.364   8.553
 6335POPC   D2A19504   6.611  21.425   8.253
 6335POPC   C3A19505   6.606  21.350   7.953
 6335POPC   C4A19506   6.673  21.407   7.653
 6335POPC   C1B19507   6.481  21.266   8.553
 6335POPC   C2B19508   6.433  21.175   8.253
 6335POPC   C3B19509   6.422  21.230   7.953
 6335POPC   C4B19510   6.477  21.191   7.653
 6336POPC   NC319511  29.915  34.554   9.453
 6336POPC   PO419512  29.881  34.550   9.153
 6336POPC   GL119513  29.876  34.569   8.853
 6336POPC   GL219514  29.891  34.459   8.853
 6336POPC   C1A19515  29.901  34.549   8.553
 6336POPC   D2A19516  29.909  34.583   8.253
 6336POPC   C3A19517  29.916  34.546   7.953
 6336POPC   C4A19518  29.893  34.543   7.653
 6336POPC   C1B19519  29.918  34.377   8.553
 6336POPC   C2B19520  29.835  34.303   8.253
 6336POPC   C3B19521  29.854  34.356   7.953
 6336POPC   C4B19522  29.885  34.353   7.653
 6337POPC   NC319523   5.069  28.349   9.453
 6337POPC   PO419524   5.109  28.409   9.153
 6337POPC   GL119525   5.139  28.390   8.853
 6337POPC   GL219526   5.031  28.268   8.853
 6337POPC   C1A19527   5.053  28.366   8.553
 6337POPC   D2A19528   5.065  28.381   8.253
 6337POPC   C3A19529   5.058  28.370   7.953
 6337POPC   C4A19530   5.076  28.321   7.653
 6337POPC   C1B19531   4.911  28.202   8.553
 6337POPC   C2B19532   4.905  28.171   8.253
 6337POPC   C3B19533   4.860  28.227   7.953
 6337POPC   C4B19534   4.895  28.227   7.653
 6338POPC   NC319535  39.246  21.397   9.453
 6338POPC   PO419536  39.237  21.388   9.153
 6338POPC   GL119537  39.230  21.363   8.853
 6338POPC   GL219538  39.079  21.379   8.853
 6338POPC   C1A19539  39.216  21.346   8.553
 6338POPC   D2A19540  39.246  21.417   8.253
 6338POPC   C3A19541  39.185  21.421   7.953
 6338POPC   C4A19542  39.272  21.344   7.653
 6338POPC   C1B19543  38.992  21.374   8.553
 6338POPC   C2B19544  38.960  21.401   8.253
 6338POPC   C3B19545  38.952  21.460   7.953
 6338POPC   C4B19546  38.984  21.381   7.653
 6339POPC   NC319547  15.158  29.149   9.453
 6339POPC   PO419548  15.202  29.097   9.153
 6339POPC   GL119549  15.148  29.147   8.853
 6339POPC   GL219550  15.329  29.085   8.853
 6339POPC   C1A19551  15.147  29.194   8.553
 6339POPC   D2A19552  15.136  29.181   8.253
 6339POPC   C3A19553  15.201  29.095   7.953
 6339POPC   C4A19554  15.190  29.177   7.653
 6339POPC   C1B19555  15.384  29.049   8.553
 6339POPC   C2B19556  15.418  29.019   8.253
 6339POPC   C3B19557  15.422  29.000   7.953
 6339POPC   C4B19558  15.410  29.052   7.653
 6340POPC   NC319559   0.463  17.522   9.453
 6340POPC   PO419560   0.449  17.481   9.153
 6340POPC   GL119561   0.448  17.523   8.853
 6340POPC   GL219562   0.363  17.435   8.853
 6340POPC   C1A19563   0.397  17.532   8.553
 6340POPC   D2A19564   0.469  17.511   8.253
 6340POPC   C3A19565   0.487  17.556   7.953
 6340POPC   C4A19566   0.433  17.486   7.653
 6340POPC   C1B19567   0.363  17.273   8.553
 6340POPC   C2B19568   0.314  17.281   8.253
 6340POPC   C3B19569   0.340  17.273   7.953
 6340POPC   C4B19570   0.294  17.309   7.653
 6341POPC   NC319571  19.813  41.574   9.453
 6341POPC   PO419572  19.790  41.604   9.153
 6341POPC   GL119573  19.828  41.591   8.853
 6341POPC   GL219574  19.696  41.543   8.853
 6341POPC   C1A19575  19.800  41.521   8.553
 6341POPC   D2A19576  19.812  41.560   8.253
 6341POPC   C3A19577  19.842  41.586   7.953
 6341POPC   C4A19578  19.859  41.543   7.653
 6341POPC   C1B19579  19.568  41.499   8.553
 6341POPC   C2B19580  19.627  41.506   8.253
 6341POPC   C3B19581  19.639  41.465   7.953
 6341POPC   C4B19582  19.626  41.495   7.653
 6342POPC   NC319583  40.748  28.347   9.453
 6342POPC   PO419584  40.790  28.371   9.153
 6342POPC   GL119585  40.822  28.342   8.853
 6342POPC   GL219586  40.907  28.462   8.853
 6342POPC   C1A19587  40.820  28.388   8.553
 6342POPC   D2A19588  40.771  28.381   8.253
 6342POPC   C3A19589  40.808  28.407   7.953
 6342POPC   C4A19590  40.758  28.381   7.653
 6342POPC   C1B19591  41.002  28.582   8.553
 6342POPC   C2B19592  40.986  28.575   8.253
 6342POPC   C3B19593  40.976  28.600   7.953
 6342POPC   C4B19594  40.959  28.564   7.653
 6343POPC   NC319595  33.815  28.384   9.453
 6343POPC   PO419596  33.798  28.352   9.153
 6343POPC   GL119597  33.844  28.391   8.853
 6343POPC   GL219598  33.963  28.387   8.853
 6343POPC   C1A19599  33.750  28.348   8.553
 6343POPC   D2A19600  33.767  28.412   8.253
 6343POPC   C3A19601  33.817  28.319   7.953
 6343POPC   C4A19602  33.758  28.328   7.653
 6343POPC   C1B19603  34.066  28.430   8.553
 6343POPC   C2B19604  34.064  28.506   8.253
 6343POPC   C3B19605  34.023  28.457   7.953
 6343POPC   C4B19606  34.064  28.454   7.653
 6344POPC   NC319607  41.595  25.249   9.453
 6344POPC   PO419608  41.582  25.253   9.153
 6344POPC   GL119609  41.607  25.282   8.853
 6344POPC   GL219610  41.699  25.251   8.853
 6344POPC   C1A19611  41.543  25.295   8.553
 6344POPC   D2A19612  41.559  25.292   8.253
 6344POPC   C3A19613  41.533  25.297   7.953
 6344POPC   C4A19614  41.592  25.259   7.653
 6344POPC   C1B19615  41.780  25.170   8.553
 6344POPC   C2B19616  41.767  25.228   8.253
 6344POPC   C3B19617  41.847  25.171   7.953
 6344POPC   C4B19618  41.757  25.232   7.653
 6345POPC   NC319619  12.811  30.687   9.453
 6345POPC   PO419620  12.814  30.671   9.153
 6345POPC   GL119621  12.847  30.726   8.853
 6345POPC   GL219622  12.834  30.591   8.853
 6345POPC   C1A19623  12.844  30.661   8.553
 6345POPC   D2A19624  12.842  30.654   8.253
 6345POPC   C3A19625  12.811  30.744   7.953
 6345POPC   C4A19626  12.819  30.709   7.653
 6345POPC   C1B19627  12.830  30.415   8.553
 6345POPC   C2B19628  12.792  30.429   8.253
 6345POPC   C3B19629  12.870  30.494   7.953
 6345POPC   C4B19630  12.784  30.441   7.653
 6346POPC   NC319631  44.697  21.351   9.453
 6346POPC   PO419632  44.646  21.404   9.153
 6346POPC   GL119633  44.670  21.337   8.853
 6346POPC   GL219634  44.788  21.422   8.853
 6346POPC   C1A19635  44.614  21.425   8.553
 6346POPC   D2A19636  44.658  21.409   8.253
 6346POPC   C3A19637  44.641  21.382   7.953
 6346POPC   C4A19638  44.681  21.365   7.653
 6346POPC   C1B19639  44.895  21.442   8.553
 6346POPC   C2B19640  44.920  21.449   8.253
 6346POPC   C3B19641  44.940  21.396   7.953
 6346POPC   C4B19642  44.870  21.467   7.653
 6347POPC   NC319643  30.697  24.536   9.453
 6347POPC   PO419644  30.703  24.444   9.153
 6347POPC   GL119645  30.664  24.441   8.853
 6347POPC   GL219646  30.823  24.530   8.853
 6347POPC   C1A19647  30.723  24.492   8.553
 6347POPC   D2A19648  30.654  24.470   8.253
 6347POPC   C3A19649  30.698  24.498   7.953
 6347POPC   C4A19650  30.704  24.485   7.653
 6347POPC   C1B19651  30.862  24.664   8.553
 6347POPC   C2B19652  30.927  24.675   8.253
 6347POPC   C3B19653  30.921  24.650   7.953
 6347POPC   C4B19654  30.930  24.584   7.653
 6348POPC   NC319655  14.367  33.036   9.453
 6348POPC   PO419656  14.413  33.045   9.153
 6348POPC   GL119657  14.451  33.052   8.853
 6348POPC   GL219658  14.246  33.014   8.853
 6348POPC   C1A19659  14.410  33.070   8.553
 6348POPC   D2A19660  14.383  33.054   8.253
 6348POPC   C3A19661  14.426  33.064   7.953
 6348POPC   C4A19662  14.405  33.072   7.653
 6348POPC   C1B19663  14.147  32.986   8.553
 6348POPC   C2B19664  14.160  32.986   8.253
 6348POPC   C3B19665  14.191  32.972   7.953
 6348POPC   C4B19666  14.202  32.968   7.653
 6349POPC   NC319667  15.982  10.513   9.453
 6349POPC   PO419668  15.942  10.560   9.153
 6349POPC   GL119669  15.926  10.542   8.853
 6349POPC   GL219670  16.091  10.448   8.853
 6349POPC   C1A19671  16.002  10.479   8.553
 6349POPC   D2A19672  15.915  10.510   8.253
 6349POPC   C3A19673  15.938  10.539   7.953
 6349POPC   C4A19674  15.978  10.526   7.653
 6349POPC   C1B19675  16.103  10.336   8.553
 6349POPC   C2B19676  16.200  10.369   8.253
 6349POPC   C3B19677  16.108  10.335   7.953
 6349POPC   C4B19678  16.191  10.363   7.653
 6350POPC   NC319679  18.248  26.046   9.453
 6350POPC   PO419680  18.282  26.037   9.153
 6350POPC   GL119681  18.310  26.015   8.853
 6350POPC   GL219682  18.207  26.110   8.853
 6350POPC   C1A19683  18.278  26.047   8.553
 6350POPC   D2A19684  18.253  26.020   8.253
 6350POPC   C3A19685  18.278  26.031   7.953
 6350POPC   C4A19686  18.299  26.007   7.653
 6350POPC   C1B19687  18.106  26.282   8.553
 6350POPC   C2B19688  18.083  26.246   8.253
 6350POPC   C3B19689  18.093  26.258   7.953
 6350POPC   C4B19690  18.130  26.235   7.653
 6351POPC   NC319691   3.578   7.388   9.453
 6351POPC   PO419692   3.577   7.453   9.153
 6351POPC   GL119693   3.512   7.390   8.853
 6351POPC   GL219694   3.630   7.517   8.853
 6351POPC   C1A19695   3.580   7.465   8.553
 6351POPC   D2A19696   3.535   7.433   8.253
 6351POPC   C3A19697   3.515   7.424   7.953
 6351POPC   C4A19698   3.589   7.460   7.653
 6351POPC   C1B19699   3.792   7.563   8.553
 6351POPC   C2B19700   3.787   7.545   8.253
 6351POPC   C3B19701   3.819   7.541   7.953
 6351POPC   C4B19702   3.760   7.472   7.653
 6352POPC   NC319703  37.666  36.079   9.453
 6352POPC   PO419704  37.639  36.149   9.153
 6352POPC   GL119705  37.685  36.097   8.853
 6352POPC   GL219706  37.650  35.989   8.853
 6352POPC   C1A19707  37.718  36.119   8.553
 6352POPC   D2A19708  37.632  36.166   8.253
 6352POPC   C3A19709  37.681  36.135   7.953
 6352POPC   C4A19710  37.705  36.157   7.653
 6352POPC   C1B19711  37.677  35.916   8.553
 6352POPC   C2B19712  37.644  35.856   8.253
 6352POPC   C3B19713  37.630  35.884   7.953
 6352POPC   C4B19714  37.691  35.875   7.653
 6353POPC   NC319715  43.065  19.084   9.453
 6353POPC   PO419716  43.128  19.018   9.153
 6353POPC   GL119717  43.154  19.036   8.853
 6353POPC   GL219718  43.210  19.140   8.853
 6353POPC   C1A19719  43.089  19.082   8.553
 6353POPC   D2A19720  43.146  19.106   8.253
 6353POPC   C3A19721  43.140  19.061   7.953
 6353POPC   C4A19722  43.136  19.106   7.653
 6353POPC   C1B19723  43.250  19.240   8.553
 6353POPC   C2B19724  43.251  19.294   8.253
 6353POPC   C3B19725  43.227  19.255   7.953
 6353POPC   C4B19726  43.229  19.271   7.653
 6354POPC   NC319727  27.583   1.205   9.453
 6354POPC   PO419728  27.634   1.175   9.153
 6354POPC   GL119729  27.622   1.252   8.853
 6354POPC   GL219730  27.505   1.300   8.853
 6354POPC   C1A19731  27.619   1.202   8.553
 6354POPC   D2A19732  27.599   1.206   8.253
 6354POPC   C3A19733  27.559   1.228   7.953
 6354POPC   C4A19734  27.633   1.196   7.653
 6354POPC   C1B19735  27.390   1.309   8.553
 6354POPC   C2B19736  27.384   1.315   8.253
 6354POPC   C3B19737  27.351   1.330   7.953
 6354POPC   C4B19738  27.314   1.324   7.653
 6355POPC   NC319739  17.497  44.707   9.453
 6355POPC   PO419740  17.550  44.691   9.153
 6355POPC   GL119741  17.538  44.618   8.853
 6355POPC   GL219742  17.621  44.593   8.853
 6355POPC   C1A19743  17.509  44.674   8.553
 6355POPC   D2A19744  17.552  44.672   8.253
 6355POPC   C3A19745  17.504  44.687   7.953
 6355POPC   C4A19746  17.477  44.664   7.653
 6355POPC   C1B19747  17.725  44.485   8.553
 6355POPC   C2B19748  17.723  44.519   8.253
 6355POPC   C3B19749  17.689  44.527   7.953
 6355POPC   C4B19750  17.702  44.499   7.653
 6356POPC   NC319751   8.210  22.126   9.453
 6356POPC   PO419752   8.225  22.145   9.153
 6356POPC   GL119753   8.202  22.195   8.853
 6356POPC   GL219754   8.048  22.141   8.853
 6356POPC   C1A19755   8.211  22.140   8.553
 6356POPC   D2A19756   8.206  22.164   8.253
 6356POPC   C3A19757   8.221  22.187   7.953
 6356POPC   C4A19758   8.203  22.172   7.653
 6356POPC   C1B19759   7.965  22.079   8.553
 6356POPC   C2B19760   7.955  22.090   8.253
 6356POPC   C3B19761   7.975  22.059   7.953
 6356POPC   C4B19762   7.966  22.038   7.653
 6357POPC   NC319763  29.114  23.716   9.453
 6357POPC   PO419764  29.184  23.742   9.153
 6357POPC   GL119765  29.172  23.665   8.853
 6357POPC   GL219766  29.197  23.819   8.853
 6357POPC   C1A19767  29.132  23.723   8.553
 6357POPC   D2A19768  29.169  23.693   8.253
 6357POPC   C3A19769  29.134  23.743   7.953
 6357POPC   C4A19770  29.148  23.668   7.653
 6357POPC   C1B19771  29.324  23.893   8.553
 6357POPC   C2B19772  29.302  23.886   8.253
 6357POPC   C3B19773  29.268  23.941   7.953
 6357POPC   C4B19774  29.253  23.913   7.653
 6358POPC   NC319775  17.480   8.243   9.453
 6358POPC   PO419776  17.483   8.218   9.153
 6358POPC   GL119777  17.545   8.178   8.853
 6358POPC   GL219778  17.386   8.211   8.853
 6358POPC   C1A19779  17.459   8.153   8.553
 6358POPC   D2A19780  17.458   8.151   8.253
 6358POPC   C3A19781  17.474   8.209   7.953
 6358POPC   C4A19782  17.499   8.198   7.653
 6358POPC   C1B19783  17.287   8.128   8.553
 6358POPC   C2B19784  17.219   8.173   8.253
 6358POPC   C3B19785  17.252   8.125   7.953
 6358POPC   C4B19786  17.240   8.187   7.653
 6359POPC   NC319787  26.813   1.197   9.453
 6359POPC   PO419788  26.841   1.245   9.153
 6359POPC   GL119789  26.820   1.250   8.853
 6359POPC   GL219790  26.935   1.303   8.853
 6359POPC   C1A19791  26.829   1.245   8.553
 6359POPC   D2A19792  26.769   1.204   8.253
 6359POPC   C3A19793  26.817   1.216   7.953
 6359POPC   C4A19794  26.782   1.168   7.653
 6359POPC   C1B19795  26.971   1.464   8.553
 6359POPC   C2B19796  26.944   1.412   8.253
 6359POPC   C3B19797  26.980   1.433   7.953
 6359POPC   C4B19798  26.987   1.441   7.653
 6360POPC   NC319799  14.375  42.371   9.453
 6360POPC   PO419800  14.425  42.369   9.153
 6360POPC   GL119801  14.385  42.327   8.853
 6360POPC   GL219802  14.338  42.289   8.853
 6360POPC   C1A19803  14.439  42.317   8.553
 6360POPC   D2A19804  14.404  42.333   8.253
 6360POPC   C3A19805  14.408  42.383   7.953
 6360POPC   C4A19806  14.405  42.377   7.653
 6360POPC   C1B19807  14.215  42.222   8.553
 6360POPC   C2B19808  14.163  42.147   8.253
 6360POPC   C3B19809  14.190  42.215   7.953
 6360POPC   C4B19810  14.231  42.150   7.653
 6361POPC   NC319811  27.568  22.981   9.453
 6361POPC   PO419812  27.567  22.918   9.153
 6361POPC   GL119813  27.610  22.928   8.853
 6361POPC   GL219814  27.521  22.850   8.853
 6361POPC   C1A19815  27.620  22.963   8.553
 6361POPC   D2A19816  27.639  22.920   8.253
 6361POPC   C3A19817  27.554  22.960   7.953
 6361POPC   C4A19818  27.590  22.938   7.653
 6361POPC   C1B19819  27.327  22.782   8.553
 6361POPC   C2B19820  27.341  22.855   8.253
 6361POPC   C3B19821  27.347  22.802   7.953
 6361POPC   C4B19822  27.322  22.836   7.653
 6362POPC   NC319823  14.440  24.535   9.453
 6362POPC   PO419824  14.445  24.475   9.153
 6362POPC   GL119825  14.366  24.470   8.853
 6362POPC   GL219826  14.392  24.644   8.853
 6362POPC   C1A19827  14.374  24.480   8.553
 6362POPC   D2A19828  14.355  24.512   8.253
 6362POPC   C3A19829  14.368  24.455   7.953
 6362POPC   C4A19830  14.436  24.454   7.653
 6362POPC   C1B19831  14.355  24.761   8.553
 6362POPC   C2B19832  14.342  24.707   8.253
 6362POPC   C3B19833  14.398  24.733   7.953
 6362POPC   C4B19834  14.406  24.720   7.653
 6363POPC   NC319835   1.946  29.191   9.453
 6363POPC   PO419836   1.954  29.105   9.153
 6363POPC   GL119837   1.968  29.128   8.853
 6363POPC   GL219838   2.156  29.102   8.853
 6363POPC   C1A19839   1.951  29.186   8.553
 6363POPC   D2A19840   2.002  29.106   8.253
 6363POPC   C3A19841   1.999  29.183   7.953
 6363POPC   C4A19842   2.021  29.113   7.653
 6363POPC   C1B19843   2.205  29.082   8.553
 6363POPC   C2B19844   2.267  29.068   8.253
 6363POPC   C3B19845   2.220  29.050   7.953
 6363POPC   C4B19846   2.278  29.103   7.653
 6364POPC   NC319847  33.836  37.634   9.453
 6364POPC   PO419848  33.797  37.729   9.153
 6364POPC   GL119849  33.776  37.645   8.853
 6364POPC   GL219850  33.668  37.684   8.853
 6364POPC   C1A19851  33.766  37.693   8.553
 6364POPC   D2A19852  33.837  37.641   8.253
 6364POPC   C3A19853  33.806  37.701   7.953
 6364POPC   C4A19854  33.788  37.685   7.653
 6364POPC   C1B19855  33.534  37.769   8.553
 6364POPC   C2B19856  33.595  37.805   8.253
 6364POPC   C3B19857  33.581  37.721   7.953
 6364POPC   C4B19858  33.565  37.793   7.653
 6365POPC   NC319859  35.384  35.308   9.453
 6365POPC   PO419860  35.394  35.311   9.153
 6365POPC   GL119861  35.383  35.331   8.853
 6365POPC   GL219862  35.248  35.305   8.853
 6365POPC   C1A19863  35.313  35.398   8.553
 6365POPC   D2A19864  35.342  35.324   8.253
 6365POPC   C3A19865  35.371  35.390   7.953
 6365POPC   C4A19866  35.367  35.390   7.653
 6365POPC   C1B19867  35.134  35.303   8.553
 6365POPC   C2B19868  35.104  35.280   8.253
 6365POPC   C3B19869  35.079  35.301   7.953
 6365POPC   C4B19870  35.082  35.249   7.653
 6366POPC   NC319871  35.346  44.707   9.453
 6366POPC   PO419872  35.333  44.688   9.153
 6366POPC   GL119873  35.326  44.711   8.853
 6366POPC   GL219874  35.416  44.817   8.853
 6366POPC   C1A19875  35.365  44.614   8.553
 6366POPC   D2A19876  35.385  44.663   8.253
 6366POPC   C3A19877  35.329  44.645   7.953
 6366POPC   C4A19878  35.336  44.632   7.653
 6366POPC   C1B19879  35.415  44.859   8.553
 6366POPC   C2B19880  35.467  44.907   8.253
 6366POPC   C3B19881  35.473  44.889   7.953
 6366POPC   C4B19882  35.417  44.878   7.653
 6367POPC   NC319883  21.430  19.796   9.453
 6367POPC   PO419884  21.383  19.843   9.153
 6367POPC   GL119885  21.377  19.801   8.853
 6367POPC   GL219886  21.516  19.820   8.853
 6367POPC   C1A19887  21.419  19.794   8.553
 6367POPC   D2A19888  21.348  19.813   8.253
 6367POPC   C3A19889  21.338  19.817   7.953
 6367POPC   C4A19890  21.377  19.794   7.653
 6367POPC   C1B19891  21.679  19.915   8.553
 6367POPC   C2B19892  21.630  19.850   8.253
 6367POPC   C3B19893  21.600  19.851   7.953
 6367POPC   C4B19894  21.680  19.897   7.653
 6368POPC   NC319895  17.507  21.337   9.453
 6368POPC   PO419896  17.540  21.344   9.153
 6368POPC   GL119897  17.469  21.351   8.853
 6368POPC   GL219898  17.444  21.316   8.853
 6368POPC   C1A19899  17.533  21.342   8.553
 6368POPC   D2A19900  17.555  21.404   8.253
 6368POPC   C3A19901  17.508  21.393   7.953
 6368POPC   C4A19902  17.554  21.380   7.653
 6368POPC   C1B19903  17.476  21.129   8.553
 6368POPC   C2B19904  17.464  21.158   8.253
 6368POPC   C3B19905  17.481  21.115   7.953
 6368POPC   C4B19906  17.464  21.138   7.653
 6369POPC   NC319907  25.251  18.315   9.453
 6369POPC   PO419908  25.285  18.274   9.153
 6369POPC   GL119909  25.256  18.320   8.853
 6369POPC   GL219910  25.318  18.241   8.853
 6369POPC   C1A19911  25.297  18.320   8.553
 6369POPC   D2A19912  25.295  18.238   8.253
 6369POPC   C3A19913  25.247  18.307   7.953
 6369POPC   C4A19914  25.277  18.304   7.653
 6369POPC   C1B19915  25.433  18.083   8.553
 6369POPC   C2B19916  25.398  18.064   8.253
 6369POPC   C3B19917  25.454  18.073   7.953
 6369POPC   C4B19918  25.409  18.097   7.653
 6370POPC   NC319919  22.145  30.651   9.453
 6370POPC   PO419920  22.211  30.658   9.153
 6370POPC   GL119921  22.184  30.710   8.853
 6370POPC   GL219922  22.114  30.553   8.853
 6370POPC   C1A19923  22.150  30.659   8.553
 6370POPC   D2A19924  22.124  30.683   8.253
 6370POPC   C3A19925  22.163  30.738   7.953
 6370POPC   C4A19926  22.200  30.723   7.653
 6370POPC   C1B19927  22.150  30.441   8.553
 6370POPC   C2B19928  22.094  30.473   8.253
 6370POPC   C3B19929  22.060  30.484   7.953
 6370POPC   C4B19930  22.148  30.430   7.653
 6371POPC   NC319931   1.212  13.658   9.453
 6371POPC   PO419932   1.235  13.663   9.153
 6371POPC   GL119933   1.185  13.599   8.853
 6371POPC   GL219934   1.343  13.633   8.853
 6371POPC   C1A19935   1.256  13.623   8.553
 6371POPC   D2A19936   1.253  13.642   8.253
 6371POPC   C3A19937   1.251  13.588   7.953
 6371POPC   C4A19938   1.175  13.653   7.653
 6371POPC   C1B19939   1.443  13.667   8.553
 6371POPC   C2B19940   1.441  13.650   8.253
 6371POPC   C3B19941   1.500  13.689   7.953
 6371POPC   C4B19942   1.487  13.689   7.653
 6372POPC   NC319943  29.179  22.201   9.453
 6372POPC   PO419944  29.191  22.149   9.153
 6372POPC   GL119945  29.162  22.165   8.853
 6372POPC   GL219946  28.988  22.159   8.853
 6372POPC   C1A19947  29.172  22.120   8.553
 6372POPC   D2A19948  29.135  22.135   8.253
 6372POPC   C3A19949  29.177  22.146   7.953
 6372POPC   C4A19950  29.135  22.116   7.653
 6372POPC   C1B19951  28.922  22.110   8.553
 6372POPC   C2B19952  28.914  22.138   8.253
 6372POPC   C3B19953  28.900  22.071   7.953
 6372POPC   C4B19954  28.890  22.074   7.653
 6373POPC   NC319955  43.891  33.007   9.453
 6373POPC   PO419956  43.928  32.984   9.153
 6373POPC   GL119957  43.916  33.030   8.853
 6373POPC   GL219958  44.030  33.020   8.853
 6373POPC   C1A19959  43.874  33.055   8.553
 6373POPC   D2A19960  43.854  33.025   8.253
 6373POPC   C3A19961  43.930  32.988   7.953
 6373POPC   C4A19962  43.864  33.058   7.653
 6373POPC   C1B19963  44.165  33.033   8.553
 6373POPC   C2B19964  44.117  33.033   8.253
 6373POPC   C3B19965  44.160  32.958   7.953
 6373POPC   C4B19966  44.140  33.029   7.653
 6374POPC   NC319967  26.839  13.600   9.453
 6374POPC   PO419968  26.782  13.655   9.153
 6374POPC   GL119969  26.784  13.659   8.853
 6374POPC   GL219970  26.953  13.672   8.853
 6374POPC   C1A19971  26.823  13.662   8.553
 6374POPC   D2A19972  26.814  13.602   8.253
 6374POPC   C3A19973  26.813  13.608   7.953
 6374POPC   C4A19974  26.768  13.676   7.653
 6374POPC   C1B19975  27.005  13.719   8.553
 6374POPC   C2B19976  27.041  13.746   8.253
 6374POPC   C3B19977  26.993  13.722   7.953
 6374POPC   C4B19978  27.016  13.780   7.653
 6375POPC   NC319979  17.497  31.488   9.453
 6375POPC   PO419980  17.499  31.480   9.153
 6375POPC   GL119981  17.478  31.442   8.853
 6375POPC   GL219982  17.585  31.538   8.853
 6375POPC   C1A19983  17.535  31.486   8.553
 6375POPC   D2A19984  17.507  31.466   8.253
 6375POPC   C3A19985  17.549  31.431   7.953
 6375POPC   C4A19986  17.524  31.489   7.653
 6375POPC   C1B19987  17.690  31.587   8.553
 6375POPC   C2B19988  17.674  31.660   8.253
 6375POPC   C3B19989  17.716  31.636   7.953
 6375POPC   C4B19990  17.727  31.602   7.653
 6376POPC   NC319991  25.231   8.230   9.453
 6376POPC   PO419992  25.277   8.202   9.153
 6376POPC   GL119993  25.246   8.230   8.853
 6376POPC   GL219994  25.129   8.174   8.853
 6376POPC   C1A19995  25.259   8.203   8.553
 6376POPC   D2A19996  25.301   8.180   8.253
 6376POPC   C3A19997  25.224   8.175   7.953
 6376POPC   C4A19998  25.308   8.186   7.653
 6376POPC   C1B19999  25.066   8.121   8.553
 6376POPC   C2B20000  25.064   8.158   8.253
 6376POPC   C3B20001  25.000   8.168   7.953
 6376POPC   C4B20002  24.992   8.162   7.653
 6377POPC   NC320003  31.442  42.296   9.453
 6377POPC   PO420004  31.494  42.316   9.153
 6377POPC   GL120005  31.485  42.319   8.853
 6377POPC   GL220006  31.435  42.233   8.853
 6377POPC   C1A20007  31.482  42.299   8.553
 6377POPC   D2A20008  31.466  42.292   8.253
 6377POPC   C3A20009  31.462  42.293   7.953
 6377POPC   C4A20010  31.517  42.366   7.653
 6377POPC   C1B20011  31.418  42.121   8.553
 6377POPC   C2B20012  31.398  42.152   8.253
 6377POPC   C3B20013  31.373  42.148   7.953
 6377POPC   C4B20014  31.395  42.123   7.653
 6378POPC   NC320015  33.023  36.939   9.453
 6378POPC   PO420016  33.059  36.937   9.153
 6378POPC   GL120017  33.023  36.912   8.853
 6378POPC   GL220018  33.034  37.020   8.853
 6378POPC   C1A20019  32.979  36.928   8.553
 6378POPC   D2A20020  33.021  36.948   8.253
 6378POPC   C3A20021  33.020  36.917   7.953
 6378POPC   C4A20022  33.020  36.863   7.653
 6378POPC   C1B20023  33.186  37.150   8.553
 6378POPC   C2B20024  33.133  37.126   8.253
 6378POPC   C3B20025  33.161  37.174   7.953
 6378POPC   C4B20026  33.126  37.145   7.653
 6379POPC   NC320027  17.549  22.893   9.453
 6379POPC   PO420028  17.512  22.891   9.153
 6379POPC   GL120029  17.545  22.943   8.853
 6379POPC   GL220030  17.422  23.053   8.853
 6379POPC   C1A20031  17.526  22.971   8.553
 6379POPC   D2A20032  17.475  22.891   8.253
 6379POPC   C3A20033  17.504  22.913   7.953
 6379POPC   C4A20034  17.460  22.943   7.653
 6379POPC   C1B20035  17.465  23.205   8.553
 6379POPC   C2B20036  17.403  23.132   8.253
 6379POPC   C3B20037  17.428  23.126   7.953
 6379POPC   C4B20038  17.377  23.178   7.653
 6380POPC   NC320039   6.681  24.509   9.453
 6380POPC   PO420040   6.681  24.529   9.153
 6380POPC   GL120041   6.603  24.520   8.853
 6380POPC   GL220042   6.545  24.526   8.853
 6380POPC   C1A20043   6.624  24.471   8.553
 6380POPC   D2A20044   6.658  24.447   8.253
 6380POPC   C3A20045   6.626  24.492   7.953
 6380POPC   C4A20046   6.605  24.461   7.653
 6380POPC   C1B20047   6.434  24.453   8.553
 6380POPC   C2B20048   6.433  24.503   8.253
 6380POPC   C3B20049   6.416  24.520   7.953
 6380POPC   C4B20050   6.409  24.470   7.653
 6381POPC   NC320051   2.736  38.478   9.453
 6381POPC   PO420052   2.771  38.499   9.153
 6381POPC   GL120053   2.793  38.433   8.853
 6381POPC   GL220054   2.815  38.530   8.853
 6381POPC   C1A20055   2.808  38.434   8.553
 6381POPC   D2A20056   2.790  38.476   8.253
 6381POPC   C3A20057   2.737  38.465   7.953
 6381POPC   C4A20058   2.764  38.415   7.653
 6381POPC   C1B20059   2.914  38.624   8.553
 6381POPC   C2B20060   2.911  38.583   8.253
 6381POPC   C3B20061   2.908  38.572   7.953
 6381POPC   C4B20062   2.981  38.609   7.653
 6382POPC   NC320063   7.435  30.675   9.453
 6382POPC   PO420064   7.430  30.664   9.153
 6382POPC   GL120065   7.392  30.705   8.853
 6382POPC   GL220066   7.528  30.655   8.853
 6382POPC   C1A20067   7.468  30.684   8.553
 6382POPC   D2A20068   7.377  30.706   8.253
 6382POPC   C3A20069   7.460  30.716   7.953
 6382POPC   C4A20070   7.451  30.739   7.653
 6382POPC   C1B20071   7.640  30.592   8.553
 6382POPC   C2B20072   7.663  30.613   8.253
 6382POPC   C3B20073   7.623  30.598   7.953
 6382POPC   C4B20074   7.650  30.598   7.653
 6383POPC   NC320075  28.400  14.366   9.453
 6383POPC   PO420076  28.345  14.417   9.153
 6383POPC   GL120077  28.354  14.435   8.853
 6383POPC   GL220078  28.228  14.441   8.853
 6383POPC   C1A20079  28.361  14.444   8.553
 6383POPC   D2A20080  28.377  14.448   8.253
 6383POPC   C3A20081  28.403  14.368   7.953
 6383POPC   C4A20082  28.401  14.384   7.653
 6383POPC   C1B20083  28.161  14.381   8.553
 6383POPC   C2B20084  28.076  14.378   8.253
 6383POPC   C3B20085  28.128  14.426   7.953
 6383POPC   C4B20086  28.111  14.412   7.653
 6384POPC   NC320087  12.079   2.788   9.453
 6384POPC   PO420088  12.043   2.739   9.153
 6384POPC   GL120089  12.045   2.793   8.853
 6384POPC   GL220090  12.190   2.843   8.853
 6384POPC   C1A20091  12.077   2.741   8.553
 6384POPC   D2A20092  12.114   2.763   8.253
 6384POPC   C3A20093  12.054   2.727   7.953
 6384POPC   C4A20094  12.124   2.716   7.653
 6384POPC   C1B20095  12.310   2.856   8.553
 6384POPC   C2B20096  12.258   2.848   8.253
 6384POPC   C3B20097  12.352   2.914   7.953
 6384POPC   C4B20098  12.329   2.862   7.653
 6385POPC   NC320099  37.648  24.487   9.453
 6385POPC   PO420100  37.674  24.510   9.153
 6385POPC   GL120101  37.670  24.517   8.853
 6385POPC   GL220102  37.788  24.625   8.853
 6385POPC   C1A20103  37.717  24.534   8.553
 6385POPC   D2A20104  37.703  24.499   8.253
 6385POPC   C3A20105  37.729  24.505   7.953
 6385POPC   C4A20106  37.655  24.442   7.653
 6385POPC   C1B20107  37.827  24.733   8.553
 6385POPC   C2B20108  37.819  24.641   8.253
 6385POPC   C3B20109  37.851  24.666   7.953
 6385POPC   C4B20110  37.820  24.728   7.653
 6386POPC   NC320111  27.611   9.734   9.453
 6386POPC   PO420112  27.571   9.722   9.153
 6386POPC   GL120113  27.619   9.720   8.853
 6386POPC   GL220114  27.579   9.616   8.853
 6386POPC   C1A20115  27.578   9.772   8.553
 6386POPC   D2A20116  27.578   9.721   8.253
 6386POPC   C3A20117  27.577   9.750   7.953
 6386POPC   C4A20118  27.544   9.783   7.653
 6386POPC   C1B20119  27.557   9.459   8.553
 6386POPC   C2B20120  27.627   9.463   8.253
 6386POPC   C3B20121  27.592   9.533   7.953
 6386POPC   C4B20122  27.545   9.483   7.653
 6387POPC   NC320123  43.151   1.174   9.453
 6387POPC   PO420124  43.062   1.178   9.153
 6387POPC   GL120125  43.112   1.213   8.853
 6387POPC   GL220126  43.164   1.135   8.853
 6387POPC   C1A20127  43.088   1.243   8.553
 6387POPC   D2A20128  43.069   1.182   8.253
 6387POPC   C3A20129  43.072   1.192   7.953
 6387POPC   C4A20130  43.083   1.211   7.653
 6387POPC   C1B20131  43.163   0.945   8.553
 6387POPC   C2B20132  43.118   1.007   8.253
 6387POPC   C3B20133  43.129   0.991   7.953
 6387POPC   C4B20134  43.124   1.004   7.653
 6388POPC   NC320135  44.707  34.564   9.453
 6388POPC   PO420136  44.647  34.615   9.153
 6388POPC   GL120137  44.689  34.599   8.853
 6388POPC   GL220138  44.515  34.583   8.853
 6388POPC   C1A20139  44.642  34.565   8.553
 6388POPC   D2A20140  44.709  34.553   8.253
 6388POPC   C3A20141  44.655  34.563   7.953
 6388POPC   C4A20142  44.635  34.573   7.653
 6388POPC   C1B20143  44.370  34.670   8.553
 6388POPC   C2B20144  44.464  34.636   8.253
 6388POPC   C3B20145  44.379  34.657   7.953
 6388POPC   C4B20146  44.437  34.574   7.653
 6389POPC   NC320147  42.308  37.652   9.453
 6389POPC   PO420148  42.344  37.675   9.153
 6389POPC   GL120149  42.306  37.638   8.853
 6389POPC   GL220150  42.278  37.636   8.853
 6389POPC   C1A20151  42.346  37.665   8.553
 6389POPC   D2A20152  42.370  37.724   8.253
 6389POPC   C3A20153  42.326  37.687   7.953
 6389POPC   C4A20154  42.299  37.719   7.653
 6389POPC   C1B20155  42.123  37.537   8.553
 6389POPC   C2B20156  42.164  37.474   8.253
 6389POPC   C3B20157  42.141  37.479   7.953
 6389POPC   C4B20158  42.147  37.489   7.653
 6390POPC   NC320159  14.388  19.059   9.453
 6390POPC   PO420160  14.415  19.067   9.153
 6390POPC   GL120161  14.358  19.094   8.853
 6390POPC   GL220162  14.522  19.021   8.853
 6390POPC   C1A20163  14.416  19.021   8.553
 6390POPC   D2A20164  14.427  19.064   8.253
 6390POPC   C3A20165  14.422  19.106   7.953
 6390POPC   C4A20166  14.431  19.082   7.653
 6390POPC   C1B20167  14.652  19.074   8.553
 6390POPC   C2B20168  14.605  19.047   8.253
 6390POPC   C3B20169  14.622  19.074   7.953
 6390POPC   C4B20170  14.624  19.074   7.653
 6391POPC   NC320171  41.605  36.878   9.453
 6391POPC   PO420172  41.531  36.863   9.153
 6391POPC   GL120173  41.545  36.896   8.853
 6391POPC   GL220174  41.720  36.830   8.853
 6391POPC   C1A20175  41.549  36.909   8.553
 6391POPC   D2A20176  41.524  36.889   8.253
 6391POPC   C3A20177  41.552  36.923   7.953
 6391POPC   C4A20178  41.565  36.869   7.653
 6391POPC   C1B20179  41.779  36.771   8.553
 6391POPC   C2B20180  41.796  36.810   8.253
 6391POPC   C3B20181  41.787  36.774   7.953
 6391POPC   C4B20182  41.749  36.852   7.653
 6392POPC   NC320183  22.184  41.576   9.453
 6392POPC   PO420184  22.197  41.519   9.153
 6392POPC   GL120185  22.124  41.592   8.853
 6392POPC   GL220186  22.136  41.442   8.853
 6392POPC   C1A20187  22.208  41.607   8.553
 6392POPC   D2A20188  22.156  41.584   8.253
 6392POPC   C3A20189  22.141  41.595   7.953
 6392POPC   C4A20190  22.118  41.570   7.653
 6392POPC   C1B20191  22.134  41.290   8.553
 6392POPC   C2B20192  22.148  41.347   8.253
 6392POPC   C3B20193  22.113  41.334   7.953
 6392POPC   C4B20194  22.171  41.267   7.653
 6393POPC   NC320195  38.414  26.033   9.453
 6393POPC   PO420196  38.475  26.087   9.153
 6393POPC   GL120197  38.496  26.028   8.853
 6393POPC   GL220198  38.342  25.898   8.853
 6393POPC   C1A20199  38.484  26.012   8.553
 6393POPC   D2A20200  38.448  26.006   8.253
 6393POPC   C3A20201  38.472  26.063   7.953
 6393POPC   C4A20202  38.412  26.050   7.653
 6393POPC   C1B20203  38.341  25.877   8.553
 6393POPC   C2B20204  38.346  25.846   8.253
 6393POPC   C3B20205  38.272  25.875   7.953
 6393POPC   C4B20206  38.346  25.820   7.653
 6394POPC   NC320207  20.575   7.448   9.453
 6394POPC   PO420208  20.563   7.427   9.153
 6394POPC   GL120209  20.594   7.421   8.853
 6394POPC   GL220210  20.623   7.330   8.853
 6394POPC   C1A20211  20.569   7.418   8.553
 6394POPC   D2A20212  20.574   7.389   8.253
 6394POPC   C3A20213  20.615   7.457   7.953
 6394POPC   C4A20214  20.602   7.387   7.653
 6394POPC   C1B20215  20.633   7.160   8.553
 6394POPC   C2B20216  20.634   7.171   8.253
 6394POPC   C3B20217  20.587   7.212   7.953
 6394POPC   C4B20218  20.593   7.141   7.653
 6395POPC   NC320219   4.329   5.127   9.453
 6395POPC   PO420220   4.324   5.101   9.153
 6395POPC   GL120221   4.338   5.139   8.853
 6395POPC   GL220222   4.362   5.257   8.853
 6395POPC   C1A20223   4.362   5.090   8.553
 6395POPC   D2A20224   4.340   5.043   8.253
 6395POPC   C3A20225   4.328   5.110   7.953
 6395POPC   C4A20226   4.332   5.140   7.653
 6395POPC   C1B20227   4.381   5.380   8.553
 6395POPC   C2B20228   4.393   5.353   8.253
 6395POPC   C3B20229   4.387   5.330   7.953
 6395POPC   C4B20230   4.340   5.293   7.653
 6396POPC   NC320231   7.418   4.343   9.453
 6396POPC   PO420232   7.448   4.281   9.153
 6396POPC   GL120233   7.409   4.353   8.853
 6396POPC   GL220234   7.378   4.463   8.853
 6396POPC   C1A20235   7.388   4.364   8.553
 6396POPC   D2A20236   7.434   4.330   8.253
 6396POPC   C3A20237   7.408   4.313   7.953
 6396POPC   C4A20238   7.420   4.270   7.653
 6396POPC   C1B20239   7.375   4.604   8.553
 6396POPC   C2B20240   7.366   4.609   8.253
 6396POPC   C3B20241   7.317   4.582   7.953
 6396POPC   C4B20242   7.383   4.589   7.653
 6397POPC   NC320243  32.286  15.164   9.453
 6397POPC   PO420244  32.287  15.215   9.153
 6397POPC   GL120245  32.234  15.157   8.853
 6397POPC   GL220246  32.254  15.259   8.853
 6397POPC   C1A20247  32.201  15.151   8.553
 6397POPC   D2A20248  32.225  15.228   8.253
 6397POPC   C3A20249  32.277  15.148   7.953
 6397POPC   C4A20250  32.235  15.201   7.653
 6397POPC   C1B20251  32.367  15.372   8.553
 6397POPC   C2B20252  32.295  15.430   8.253
 6397POPC   C3B20253  32.318  15.405   7.953
 6397POPC   C4B20254  32.331  15.422   7.653
 6398POPC   NC320255  33.775  25.271   9.453
 6398POPC   PO420256  33.768  25.218   9.153
 6398POPC   GL120257  33.773  25.249   8.853
 6398POPC   GL220258  33.742  25.328   8.853
 6398POPC   C1A20259  33.845  25.255   8.553
 6398POPC   D2A20260  33.835  25.258   8.253
 6398POPC   C3A20261  33.784  25.265   7.953
 6398POPC   C4A20262  33.828  25.261   7.653
 6398POPC   C1B20263  33.626  25.482   8.553
 6398POPC   C2B20264  33.691  25.457   8.253
 6398POPC   C3B20265  33.610  25.452   7.953
 6398POPC   C4B20266  33.646  25.442   7.653
 6399POPC   NC320267  38.440  30.724   9.453
 6399POPC   PO420268  38.438  30.658   9.153
 6399POPC   GL120269  38.468  30.688   8.853
 6399POPC   GL220270  38.341  30.757   8.853
 6399POPC   C1A20271  38.407  30.669   8.553
 6399POPC   D2A20272  38.503  30.666   8.253
 6399POPC   C3A20273  38.472  30.654   7.953
 6399POPC   C4A20274  38.412  30.685   7.653
 6399POPC   C1B20275  38.326  30.828   8.553
 6399POPC   C2B20276  38.313  30.833   8.253
 6399POPC   C3B20277  38.286  30.874   7.953
 6399POPC   C4B20278  38.303  30.838   7.653
 6400POPC   NC320279  40.755  17.555   9.453
 6400POPC   PO420280  40.737  17.490   9.153
 6400POPC   GL120281  40.796  17.532   8.853
 6400POPC   GL220282  40.742  17.642   8.853
 6400POPC   C1A20283  40.808  17.458   8.553
 6400POPC   D2A20284  40.745  17.468   8.253
 6400POPC   C3A20285  40.755  17.539   7.953
 6400POPC   C4A20286  40.831  17.502   7.653
 6400POPC   C1B20287  40.753  17.746   8.553
 6400POPC   C2B20288  40.759  17.751   8.253
 6400POPC   C3B20289  40.814  17.751   7.953
 6400POPC   C4B20290  40.758  17.805   7.653
 6401POPC   NC320291  40.783  42.300   9.453
 6401POPC   PO420292  40.760  42.325   9.153
 6401POPC   GL120293  40.772  42.346   8.853
 6401POPC   GL220294  40.886  42.346   8.853
 6401POPC   C1A20295  40.808  42.347   8.553
 6401POPC   D2A20296  40.796  42.314   8.253
 6401POPC   C3A20297  40.762  42.375   7.953
 6401POPC   C4A20298  40.754  42.329   7.653
 6401POPC   C1B20299  41.002  42.282   8.553
 6401POPC   C2B20300  41.078  42.268   8.253
 6401POPC   C3B20301  41.070  42.273   7.953
 6401POPC   C4B20302  41.017  42.276   7.653
 6402POPC   NC320303  22.172  33.023   9.453
 6402POPC   PO420304  22.152  33.025   9.153
 6402POPC   GL120305  22.144  33.028   8.853
 6402POPC   GL220306  21.997  33.017   8.853
 6402POPC   C1A20307  22.122  33.021   8.553
 6402POPC   D2A20308  22.156  33.003   8.253
 6402POPC   C3A20309  22.197  32.984   7.953
 6402POPC   C4A20310  22.182  33.064   7.653
 6402POPC   C1B20311  21.897  32.899   8.553
 6402POPC   C2B20312  21.960  32.964   8.253
 6402POPC   C3B20313  21.933  32.910   7.953
 6402POPC   C4B20314  21.887  32.946   7.653
 6403POPC   NC320315  29.130  20.585   9.453
 6403POPC   PO420316  29.170  20.638   9.153
 6403POPC   GL120317  29.140  20.603   8.853
 6403POPC   GL220318  29.223  20.738   8.853
 6403POPC   C1A20319  29.134  20.653   8.553
 6403POPC   D2A20320  29.176  20.637   8.253
 6403POPC   C3A20321  29.152  20.582   7.953
 6403POPC   C4A20322  29.190  20.632   7.653
 6403POPC   C1B20323  29.339  20.745   8.553
 6403POPC   C2B20324  29.286  20.754   8.253
 6403POPC   C3B20325  29.355  20.792   7.953
 6403POPC   C4B20326  29.304  20.784   7.653
 6404POPC   NC320327  37.636   2.780   9.453
 6404POPC   PO420328  37.703   2.745   9.153
 6404POPC   GL120329  37.652   2.779   8.853
 6404POPC   GL220330  37.771   2.849   8.853
 6404POPC   C1A20331  37.725   2.727   8.553
 6404POPC   D2A20332  37.688   2.719   8.253
 6404POPC   C3A20333  37.649   2.803   7.953
 6404POPC   C4A20334  37.651   2.797   7.653
 6404POPC   C1B20335  37.779   2.953   8.553
 6404POPC   C2B20336  37.799   2.972   8.253
 6404POPC   C3B20337  37.829   2.965   7.953
 6404POPC   C4B20338  37.786   3.011   7.653
 6405POPC   NC320339  15.191  12.843   9.453
 6405POPC   PO420340  15.154  12.842   9.153
 6405POPC   GL120341  15.204  12.877   8.853
 6405POPC   GL220342  15.288  12.752   8.853
 6405POPC   C1A20343  15.156  12.807   8.553
 6405POPC   D2A20344  15.157  12.853   8.253
 6405POPC   C3A20345  15.189  12.825   7.953
 6405POPC   C4A20346  15.172  12.838   7.653
 6405POPC   C1B20347  15.308  12.667   8.553
 6405POPC   C2B20348  15.287  12.606   8.253
 6405POPC   C3B20349  15.360  12.596   7.953
 6405POPC   C4B20350  15.347  12.605   7.653
 6406POPC   NC320351  11.254  43.150   9.453
 6406POPC   PO420352  11.333  43.097   9.153
 6406POPC   GL120353  11.309  43.127   8.853
 6406POPC   GL220354  11.306  43.015   8.853
 6406POPC   C1A20355  11.347  43.139   8.553
 6406POPC   D2A20356  11.303  43.157   8.253
 6406POPC   C3A20357  11.256  43.156   7.953
 6406POPC   C4A20358  11.251  43.102   7.653
 6406POPC   C1B20359  11.304  42.902   8.553
 6406POPC   C2B20360  11.259  42.879   8.253
 6406POPC   C3B20361  11.250  42.827   7.953
 6406POPC   C4B20362  11.307  42.873   7.653
 6407POPC   NC320363  22.914   9.722   9.453
 6407POPC   PO420364  22.980   9.796   9.153
 6407POPC   GL120365  22.952   9.745   8.853
 6407POPC   GL220366  23.032   9.697   8.853
 6407POPC   C1A20367  22.927   9.787   8.553
 6407POPC   D2A20368  22.895   9.769   8.253
 6407POPC   C3A20369  22.952   9.718   7.953
 6407POPC   C4A20370  22.982   9.721   7.653
 6407POPC   C1B20371  23.135   9.608   8.553
 6407POPC   C2B20372  23.170   9.677   8.253
 6407POPC   C3B20373  23.158   9.612   7.953
 6407POPC   C4B20374  23.154   9.661   7.653
 6408POPC   NC320375  40.754  43.096   9.453
 6408POPC   PO420376  40.789  43.080   9.153
 6408POPC   GL120377  40.781  43.124   8.853
 6408POPC   GL220378  40.838  43.254   8.853
 6408POPC   C1A20379  40.812  43.133   8.553
 6408POPC   D2A20380  40.830  43.121   8.253
 6408POPC   C3A20381  40.770  43.140   7.953
 6408POPC   C4A20382  40.815  43.090   7.653
 6408POPC   C1B20383  40.877  43.308   8.553
 6408POPC   C2B20384  40.866  43.353   8.253
 6408POPC   C3B20385  40.822  43.349   7.953
 6408POPC   C4B20386  40.847  43.340   7.653
 6409POPC   NC320387  29.140   8.149   9.453
 6409POPC   PO420388  29.101   8.203   9.153
 6409POPC   GL120389  29.175   8.220   8.853
 6409POPC   GL220390  29.095   8.108   8.853
 6409POPC   C1A20391  29.183   8.241   8.553
 6409POPC   D2A20392  29.115   8.239   8.253
 6409POPC   C3A20393  29.121   8.153   7.953
 6409POPC   C4A20394  29.127   8.182   7.653
 6409POPC   C1B20395  28.960   8.013   8.553
 6409POPC   C2B20396  28.999   8.037   8.253
 6409POPC   C3B20397  28.978   7.988   7.953
 6409POPC   C4B20398  28.930   8.050   7.653
 6410POPC   NC320399  26.088  15.218   9.453
 6410POPC   PO420400  26.087  15.141   9.153
 6410POPC   GL120401  26.012  15.206   8.853
 6410POPC   GL220402  25.925  15.270   8.853
 6410POPC   C1A20403  25.992  15.133   8.553
 6410POPC   D2A20404  26.090  15.171   8.253
 6410POPC   C3A20405  26.080  15.218   7.953
 6410POPC   C4A20406  26.006  15.136   7.653
 6410POPC   C1B20407  25.838  15.387   8.553
 6410POPC   C2B20408  25.909  15.362   8.253
 6410POPC   C3B20409  25.924  15.394   7.953
 6410POPC   C4B20410  25.938  15.356   7.653
 6411POPC   NC320411   5.047  36.176   9.453
 6411POPC   PO420412   5.059  36.103   9.153
 6411POPC   GL120413   5.077  36.162   8.853
 6411POPC   GL220414   5.136  36.009   8.853
 6411POPC   C1A20415   5.098  36.144   8.553
 6411POPC   D2A20416   5.081  36.165   8.253
 6411POPC   C3A20417   5.076  36.170   7.953
 6411POPC   C4A20418   5.048  36.112   7.653
 6411POPC   C1B20419   5.256  35.988   8.553
 6411POPC   C2B20420   5.249  35.914   8.253
 6411POPC   C3B20421   5.314  35.952   7.953
 6411POPC   C4B20422   5.231  35.903   7.653
 6412POPC   NC320423  30.691   1.243   9.453
 6412POPC   PO420424  30.664   1.218   9.153
 6412POPC   GL120425  30.700   1.262   8.853
 6412POPC   GL220426  30.772   1.168   8.853
 6412POPC   C1A20427  30.694   1.244   8.553
 6412POPC   D2A20428  30.649   1.196   8.253
 6412POPC   C3A20429  30.717   1.215   7.953
 6412POPC   C4A20430  30.725   1.167   7.653
 6412POPC   C1B20431  30.903   1.101   8.553
 6412POPC   C2B20432  30.951   1.108   8.253
 6412POPC   C3B20433  30.946   1.050   7.953
 6412POPC   C4B20434  30.961   1.108   7.653
 6413POPC   NC320435  30.710   3.590   9.453
 6413POPC   PO420436  30.734   3.578   9.153
 6413POPC   GL120437  30.727   3.573   8.853
 6413POPC   GL220438  30.704   3.666   8.853
 6413POPC   C1A20439  30.733   3.529   8.553
 6413POPC   D2A20440  30.715   3.496   8.253
 6413POPC   C3A20441  30.687   3.524   7.953
 6413POPC   C4A20442  30.671   3.506   7.653
 6413POPC   C1B20443  30.747   3.765   8.553
 6413POPC   C2B20444  30.723   3.796   8.253
 6413POPC   C3B20445  30.757   3.750   7.953
 6413POPC   C4B20446  30.766   3.767   7.653
 6414POPC   NC320447  19.021   0.389   9.453
 6414POPC   PO420448  19.032   0.414   9.153
 6414POPC   GL120449  19.078   0.440   8.853
 6414POPC   GL220450  18.974   0.522   8.853
 6414POPC   C1A20451  19.104   0.478   8.553
 6414POPC   D2A20452  19.103   0.395   8.253
 6414POPC   C3A20453  19.036   0.422   7.953
 6414POPC   C4A20454  19.047   0.433   7.653
 6414POPC   C1B20455  18.930   0.661   8.553
 6414POPC   C2B20456  18.889   0.589   8.253
 6414POPC   C3B20457  18.902   0.585   7.953
 6414POPC   C4B20458  18.855   0.629   7.653
 6415POPC   NC320459  32.982  42.305   9.453
 6415POPC   PO420460  32.989  42.355   9.153
 6415POPC   GL120461  33.053  42.329   8.853
 6415POPC   GL220462  33.027  42.473   8.853
 6415POPC   C1A20463  33.043  42.342   8.553
 6415POPC   D2A20464  32.985  42.322   8.253
 6415POPC   C3A20465  33.004  42.335   7.953
 6415POPC   C4A20466  32.993  42.309   7.653
 6415POPC   C1B20467  32.991  42.557   8.553
 6415POPC   C2B20468  33.043  42.545   8.253
 6415POPC   C3B20469  32.996  42.554   7.953
 6415POPC   C4B20470  33.030  42.612   7.653
 6416POPC   NC320471  40.754   1.997   9.453
 6416POPC   PO420472  40.741   1.962   9.153
 6416POPC   GL120473  40.774   1.957   8.853
 6416POPC   GL220474  40.670   2.112   8.853
 6416POPC   C1A20475  40.777   1.951   8.553
 6416POPC   D2A20476  40.810   2.036   8.253
 6416POPC   C3A20477  40.796   1.990   7.953
 6416POPC   C4A20478  40.785   2.016   7.653
 6416POPC   C1B20479  40.607   2.140   8.553
 6416POPC   C2B20480  40.565   2.181   8.253
 6416POPC   C3B20481  40.547   2.119   7.953
 6416POPC   C4B20482  40.620   2.144   7.653
 6417POPC   NC320483   8.179  21.357   9.453
 6417POPC   PO420484   8.233  21.385   9.153
 6417POPC   GL120485   8.192  21.403   8.853
 6417POPC   GL220486   8.035  21.411   8.853
 6417POPC   C1A20487   8.163  21.347   8.553
 6417POPC   D2A20488   8.205  21.339   8.253
 6417POPC   C3A20489   8.163  21.408   7.953
 6417POPC   C4A20490   8.201  21.411   7.653
 6417POPC   C1B20491   7.979  21.489   8.553
 6417POPC   C2B20492   7.962  21.465   8.253
 6417POPC   C3B20493   7.926  21.436   7.953
 6417POPC   C4B20494   7.926  21.494   7.653
 6418POPC   NC320495   1.940   6.690   9.453
 6418POPC   PO420496   1.988   6.670   9.153
 6418POPC   GL120497   1.966   6.605   8.853
 6418POPC   GL220498   1.999   6.568   8.853
 6418POPC   C1A20499   1.968   6.631   8.553
 6418POPC   D2A20500   1.976   6.634   8.253
 6418POPC   C3A20501   1.941   6.617   7.953
 6418POPC   C4A20502   1.941   6.643   7.653
 6418POPC   C1B20503   1.913   6.368   8.553
 6418POPC   C2B20504   1.914   6.403   8.253
 6418POPC   C3B20505   1.942   6.405   7.953
 6418POPC   C4B20506   1.906   6.440   7.653
 6419POPC   NC320507  35.366  20.581   9.453
 6419POPC   PO420508  35.346  20.649   9.153
 6419POPC   GL120509  35.332  20.649   8.853
 6419POPC   GL220510  35.360  20.472   8.853
 6419POPC   C1A20511  35.325  20.659   8.553
 6419POPC   D2A20512  35.359  20.563   8.253
 6419POPC   C3A20513  35.354  20.625   7.953
 6419POPC   C4A20514  35.361  20.620   7.653
 6419POPC   C1B20515  35.361  20.319   8.553
 6419POPC   C2B20516  35.430  20.394   8.253
 6419POPC   C3B20517  35.399  20.415   7.953
 6419POPC   C4B20518  35.429  20.319   7.653
 6420POPC   NC320519  12.053   2.000   9.453
 6420POPC   PO420520  12.102   2.028   9.153
 6420POPC   GL120521  12.064   1.941   8.853
 6420POPC   GL220522  12.223   1.950   8.853
 6420POPC   C1A20523  12.058   2.013   8.553
 6420POPC   D2A20524  12.087   1.994   8.253
 6420POPC   C3A20525  12.065   2.026   7.953
 6420POPC   C4A20526  12.048   1.963   7.653
 6420POPC   C1B20527  12.357   1.955   8.553
 6420POPC   C2B20528  12.372   2.015   8.253
 6420POPC   C3B20529  12.281   1.973   7.953
 6420POPC   C4B20530  12.366   2.023   7.653
 6421POPC   NC320531   3.526  30.737   9.453
 6421POPC   PO420532   3.534  30.727   9.153
 6421POPC   GL120533   3.501  30.654   8.853
 6421POPC   GL220534   3.566  30.843   8.853
 6421POPC   C1A20535   3.492  30.694   8.553
 6421POPC   D2A20536   3.495  30.729   8.253
 6421POPC   C3A20537   3.494  30.685   7.953
 6421POPC   C4A20538   3.546  30.713   7.653
 6421POPC   C1B20539   3.499  30.985   8.553
 6421POPC   C2B20540   3.535  30.961   8.253
 6421POPC   C3B20541   3.587  30.945   7.953
 6421POPC   C4B20542   3.522  30.928   7.653
 6422POPC   NC320543  18.286  43.886   9.453
 6422POPC   PO420544  18.301  43.876   9.153
 6422POPC   GL120545  18.259  43.888   8.853
 6422POPC   GL220546  18.152  43.817   8.853
 6422POPC   C1A20547  18.315  43.879   8.553
 6422POPC   D2A20548  18.332  43.867   8.253
 6422POPC   C3A20549  18.251  43.874   7.953
 6422POPC   C4A20550  18.332  43.839   7.653
 6422POPC   C1B20551  18.035  43.798   8.553
 6422POPC   C2B20552  18.077  43.825   8.253
 6422POPC   C3B20553  18.036  43.859   7.953
 6422POPC   C4B20554  18.056  43.834   7.653
 6423POPC   NC320555  22.974  29.115   9.453
 6423POPC   PO420556  22.936  29.121   9.153
 6423POPC   GL120557  22.919  29.142   8.853
 6423POPC   GL220558  23.062  29.246   8.853
 6423POPC   C1A20559  22.929  29.116   8.553
 6423POPC   D2A20560  22.910  29.166   8.253
 6423POPC   C3A20561  22.924  29.104   7.953
 6423POPC   C4A20562  22.924  29.164   7.653
 6423POPC   C1B20563  23.147  29.305   8.553
 6423POPC   C2B20564  23.129  29.286   8.253
 6423POPC   C3B20565  23.110  29.275   7.953
 6423POPC   C4B20566  23.080  29.327   7.653
 6424POPC   NC320567  29.889  35.326   9.453
 6424POPC   PO420568  29.897  35.309   9.153
 6424POPC   GL120569  29.948  35.309   8.853
 6424POPC   GL220570  29.951  35.228   8.853
 6424POPC   C1A20571  29.969  35.362   8.553
 6424POPC   D2A20572  29.871  35.384   8.253
 6424POPC   C3A20573  29.894  35.381   7.953
 6424POPC   C4A20574  29.907  35.394   7.653
 6424POPC   C1B20575  30.081  35.103   8.553
 6424POPC   C2B20576  30.022  35.175   8.253
 6424POPC   C3B20577  30.034  35.163   7.953
 6424POPC   C4B20578  30.021  35.169   7.653
 6425POPC   NC320579  26.005  32.199   9.453
 6425POPC   PO420580  26.049  32.212   9.153
 6425POPC   GL120581  26.012  32.279   8.853
 6425POPC   GL220582  25.915  32.256   8.853
 6425POPC   C1A20583  26.084  32.248   8.553
 6425POPC   D2A20584  26.037  32.225   8.253
 6425POPC   C3A20585  26.020  32.247   7.953
 6425POPC   C4A20586  26.037  32.229   7.653
 6425POPC   C1B20587  25.828  32.287   8.553
 6425POPC   C2B20588  25.802  32.284   8.253
 6425POPC   C3B20589  25.766  32.298   7.953
 6425POPC   C4B20590  25.774  32.322   7.653
 6426POPC   NC320591  33.765  30.672   9.453
 6426POPC   PO420592  33.809  30.682   9.153
 6426POPC   GL120593  33.778  30.717   8.853
 6426POPC   GL220594  33.882  30.806   8.853
 6426POPC   C1A20595  33.831  30.657   8.553
 6426POPC   D2A20596  33.813  30.666   8.253
 6426POPC   C3A20597  33.791  30.685   7.953
 6426POPC   C4A20598  33.846  30.718   7.653
 6426POPC   C1B20599  33.851  30.890   8.553
 6426POPC   C2B20600  33.824  30.892   8.253
 6426POPC   C3B20601  33.870  30.901   7.953
 6426POPC   C4B20602  33.852  30.960   7.653
 6427POPC   NC320603   5.885  15.218   9.453
 6427POPC   PO420604   5.826  15.136   9.153
 6427POPC   GL120605   5.841  15.197   8.853
 6427POPC   GL220606   5.874  15.322   8.853
 6427POPC   C1A20607   5.831  15.147   8.553
 6427POPC   D2A20608   5.886  15.198   8.253
 6427POPC   C3A20609   5.858  15.196   7.953
 6427POPC   C4A20610   5.915  15.139   7.653
 6427POPC   C1B20611   5.899  15.462   8.553
 6427POPC   C2B20612   5.949  15.408   8.253
 6427POPC   C3B20613   5.995  15.444   7.953
 6427POPC   C4B20614   5.976  15.401   7.653
 6428POPC   NC320615  41.580  43.145   9.453
 6428POPC   PO420616  41.556  43.092   9.153
 6428POPC   GL120617  41.528  43.114   8.853
 6428POPC   GL220618  41.464  43.174   8.853
 6428POPC   C1A20619  41.541  43.111   8.553
 6428POPC   D2A20620  41.510  43.134   8.253
 6428POPC   C3A20621  41.592  43.090   7.953
 6428POPC   C4A20622  41.566  43.075   7.653
 6428POPC   C1B20623  41.421  43.313   8.553
 6428POPC   C2B20624  41.473  43.364   8.253
 6428POPC   C3B20625  41.430  43.303   7.953
 6428POPC   C4B20626  41.465  43.339   7.653
 6429POPC   NC320627  29.954  30.650   9.453
 6429POPC   PO420628  29.932  30.681   9.153
 6429POPC   GL120629  29.939  30.650   8.853
 6429POPC   GL220630  30.078  30.710   8.853
 6429POPC   C1A20631  29.873  30.703   8.553
 6429POPC   D2A20632  29.910  30.746   8.253
 6429POPC   C3A20633  29.927  30.735   7.953
 6429POPC   C4A20634  29.888  30.661   7.653
 6429POPC   C1B20635  30.107  30.817   8.553
 6429POPC   C2B20636  30.167  30.765   8.253
 6429POPC   C3B20637  30.163  30.765   7.953
 6429POPC   C4B20638  30.097  30.765   7.653
 6430POPC   NC320639   5.082  33.058   9.453
 6430POPC   PO420640   5.095  33.012   9.153
 6430POPC   GL120641   5.059  33.063   8.853
 6430POPC   GL220642   5.234  33.002   8.853
 6430POPC   C1A20643   5.118  33.059   8.553
 6430POPC   D2A20644   5.099  33.038   8.253
 6430POPC   C3A20645   5.127  33.041   7.953
 6430POPC   C4A20646   5.143  33.041   7.653
 6430POPC   C1B20647   5.297  32.948   8.553
 6430POPC   C2B20648   5.297  33.037   8.253
 6430POPC   C3B20649   5.364  33.000   7.953
 6430POPC   C4B20650   5.310  33.016   7.653
 6431POPC   NC320651   9.723  43.892   9.453
 6431POPC   PO420652   9.785  43.931   9.153
 6431POPC   GL120653   9.752  43.882   8.853
 6431POPC   GL220654   9.649  43.996   8.853
 6431POPC   C1A20655   9.782  43.886   8.553
 6431POPC   D2A20656   9.789  43.920   8.253
 6431POPC   C3A20657   9.706  43.895   7.953
 6431POPC   C4A20658   9.786  43.882   7.653
 6431POPC   C1B20659   9.566  44.018   8.553
 6431POPC   C2B20660   9.561  44.053   8.253
 6431POPC   C3B20661   9.582  44.052   7.953
 6431POPC   C4B20662   9.580  43.972   7.653
 6432POPC   NC320663  14.364  17.469   9.453
 6432POPC   PO420664  14.389  17.513   9.153
 6432POPC   GL120665  14.427  17.525   8.853
 6432POPC   GL220666  14.412  17.599   8.853
 6432POPC   C1A20667  14.429  17.546   8.553
 6432POPC   D2A20668  14.416  17.465   8.253
 6432POPC   C3A20669  14.363  17.502   7.953
 6432POPC   C4A20670  14.402  17.482   7.653
 6432POPC   C1B20671  14.462  17.735   8.553
 6432POPC   C2B20672  14.422  17.736   8.253
 6432POPC   C3B20673  14.513  17.710   7.953
 6432POPC   C4B20674  14.426  17.747   7.653
 6433POPC   NC320675  44.621  36.121   9.453
 6433POPC   PO420676  44.636  36.080   9.153
 6433POPC   GL120677  44.633  36.107   8.853
 6433POPC   GL220678  44.789  36.089   8.853
 6433POPC   C1A20679  44.693  36.168   8.553
 6433POPC   D2A20680  44.642  36.154   8.253
 6433POPC   C3A20681  44.671  36.115   7.953
 6433POPC   C4A20682  44.673  36.098   7.653
 6433POPC   C1B20683  44.928  36.004   8.553
 6433POPC   C2B20684  44.890  36.012   8.253
 6433POPC   C3B20685  44.851  35.986   7.953
 6433POPC   C4B20686  44.913  36.027   7.653
 6434POPC   NC320687  26.863  12.107   9.453
 6434POPC   PO420688  26.842  12.030   9.153
 6434POPC   GL120689  26.810  12.053   8.853
 6434POPC   GL220690  26.887  12.200   8.853
 6434POPC   C1A20691  26.846  12.038   8.553
 6434POPC   D2A20692  26.789  12.060   8.253
 6434POPC   C3A20693  26.834  12.085   7.953
 6434POPC   C4A20694  26.806  12.049   7.653
 6434POPC   C1B20695  26.975  12.233   8.553
 6434POPC   C2B20696  26.972  12.257   8.253
 6434POPC   C3B20697  27.006  12.264   7.953
 6434POPC   C4B20698  26.976  12.319   7.653
 6435POPC   NC320699   3.500  22.982   9.453
 6435POPC   PO420700   3.536  22.890   9.153
 6435POPC   GL120701   3.532  22.889   8.853
 6435POPC   GL220702   3.491  22.781   8.853
 6435POPC   C1A20703   3.573  22.939   8.553
 6435POPC   D2A20704   3.494  22.892   8.253
 6435POPC   C3A20705   3.582  22.895   7.953
 6435POPC   C4A20706   3.520  22.910   7.653
 6435POPC   C1B20707   3.455  22.765   8.553
 6435POPC   C2B20708   3.398  22.684   8.253
 6435POPC   C3B20709   3.379  22.708   7.953
 6435POPC   C4B20710   3.381  22.723   7.653
 6436POPC   NC320711  25.273  29.953   9.453
 6436POPC   PO420712  25.314  29.882   9.153
 6436POPC   GL120713  25.260  29.966   8.853
 6436POPC   GL220714  25.158  30.013   8.853
 6436POPC   C1A20715  25.314  29.892   8.553
 6436POPC   D2A20716  25.293  29.960   8.253
 6436POPC   C3A20717  25.216  29.963   7.953
 6436POPC   C4A20718  25.249  29.960   7.653
 6436POPC   C1B20719  25.106  30.133   8.553
 6436POPC   C2B20720  25.128  30.134   8.253
 6436POPC   C3B20721  25.158  30.127   7.953
 6436POPC   C4B20722  25.113  30.174   7.653
 6437POPC   NC320723   8.217   2.021   9.453
 6437POPC   PO420724   8.232   1.960   9.153
 6437POPC   GL120725   8.210   1.987   8.853
 6437POPC   GL220726   8.341   1.948   8.853
 6437POPC   C1A20727   8.217   2.026   8.553
 6437POPC   D2A20728   8.163   1.957   8.253
 6437POPC   C3A20729   8.153   1.942   7.953
 6437POPC   C4A20730   8.156   1.997   7.653
 6437POPC   C1B20731   8.408   2.008   8.553
 6437POPC   C2B20732   8.428   2.022   8.253
 6437POPC   C3B20733   8.454   1.950   7.953
 6437POPC   C4B20734   8.479   1.981   7.653
 6438POPC   NC320735  35.304  38.425   9.453
 6438POPC   PO420736  35.328  38.411   9.153
 6438POPC   GL120737  35.308  38.430   8.853
 6438POPC   GL220738  35.180  38.432   8.853
 6438POPC   C1A20739  35.374  38.443   8.553
 6438POPC   D2A20740  35.315  38.441   8.253
 6438POPC   C3A20741  35.378  38.424   7.953
 6438POPC   C4A20742  35.345  38.408   7.653
 6438POPC   C1B20743  35.084  38.464   8.553
 6438POPC   C2B20744  35.129  38.398   8.253
 6438POPC   C3B20745  35.068  38.398   7.953
 6438POPC   C4B20746  35.119  38.420   7.653
 6439POPC   NC320747  15.988  11.345   9.453
 6439POPC   PO420748  15.995  11.299   9.153
 6439POPC   GL120749  15.915  11.282   8.853
 6439POPC   GL220750  16.013  11.233   8.853
 6439POPC   C1A20751  15.919  11.262   8.553
 6439POPC   D2A20752  15.971  11.311   8.253
 6439POPC   C3A20753  15.937  11.264   7.953
 6439POPC   C4A20754  15.988  11.333   7.653
 6439POPC   C1B20755  16.121  11.136   8.553
 6439POPC   C2B20756  16.110  11.155   8.253
 6439POPC   C3B20757  16.071  11.111   7.953
 6439POPC   C4B20758  16.072  11.077   7.653
 6440POPC   NC320759  15.974  32.268   9.453
 6440POPC   PO420760  15.995  32.245   9.153
 6440POPC   GL120761  15.980  32.289   8.853
 6440POPC   GL220762  15.928  32.371   8.853
 6440POPC   C1A20763  15.945  32.277   8.553
 6440POPC   D2A20764  15.996  32.250   8.253
 6440POPC   C3A20765  16.001  32.211   7.953
 6440POPC   C4A20766  15.947  32.275   7.653
 6440POPC   C1B20767  15.787  32.427   8.553
 6440POPC   C2B20768  15.786  32.479   8.253
 6440POPC   C3B20769  15.758  32.424   7.953
 6440POPC   C4B20770  15.804  32.430   7.653
 6441POPC   NC320771  22.164  13.609   9.453
 6441POPC   PO420772  22.169  13.594   9.153
 6441POPC   GL120773  22.126  13.663   8.853
 6441POPC   GL220774  22.145  13.472   8.853
 6441POPC   C1A20775  22.113  13.655   8.553
 6441POPC   D2A20776  22.178  13.616   8.253
 6441POPC   C3A20777  22.177  13.581   7.953
 6441POPC   C4A20778  22.180  13.623   7.653
 6441POPC   C1B20779  22.179  13.425   8.553
 6441POPC   C2B20780  22.101  13.425   8.253
 6441POPC   C3B20781  22.127  13.408   7.953
 6441POPC   C4B20782  22.096  13.343   7.653
 6442POPC   NC320783  44.703  25.292   9.453
 6442POPC   PO420784  44.676  25.251   9.153
 6442POPC   GL120785  44.684  25.278   8.853
 6442POPC   GL220786  44.801  25.200   8.853
 6442POPC   C1A20787  44.659  25.312   8.553
 6442POPC   D2A20788  44.655  25.229   8.253
 6442POPC   C3A20789  44.693  25.232   7.953
 6442POPC   C4A20790  44.633  25.223   7.653
 6442POPC   C1B20791  44.900  25.244   8.553
 6442POPC   C2B20792  44.896  25.254   8.253
 6442POPC   C3B20793  44.862  25.251   7.953
 6442POPC   C4B20794  44.898  25.199   7.653
 6443POPC   NC320795  19.060  12.839   9.453
 6443POPC   PO420796  19.083  12.809   9.153
 6443POPC   GL120797  19.087  12.901   8.853
 6443POPC   GL220798  18.953  12.875   8.853
 6443POPC   C1A20799  19.109  12.818   8.553
 6443POPC   D2A20800  19.055  12.816   8.253
 6443POPC   C3A20801  19.044  12.820   7.953
 6443POPC   C4A20802  19.055  12.866   7.653
 6443POPC   C1B20803  18.797  12.866   8.553
 6443POPC   C2B20804  18.849  12.901   8.253
 6443POPC   C3B20805  18.829  12.869   7.953
 6443POPC   C4B20806  18.815  12.876   7.653
 6444POPC   NC320807  43.893  40.762   9.453
 6444POPC   PO420808  43.879  40.750   9.153
 6444POPC   GL120809  43.870  40.737   8.853
 6444POPC   GL220810  43.953  40.850   8.853
 6444POPC   C1A20811  43.849  40.740   8.553
 6444POPC   D2A20812  43.905  40.809   8.253
 6444POPC   C3A20813  43.902  40.815   7.953
 6444POPC   C4A20814  43.855  40.735   7.653
 6444POPC   C1B20815  44.039  40.980   8.553
 6444POPC   C2B20816  44.061  40.904   8.253
 6444POPC   C3B20817  44.082  40.916   7.953
 6444POPC   C4B20818  44.047  40.893   7.653
 6445POPC   NC320819   9.009  24.462   9.453
 6445POPC   PO420820   9.003  24.502   9.153
 6445POPC   GL120821   8.926  24.472   8.853
 6445POPC   GL220822   8.993  24.648   8.853
 6445POPC   C1A20823   8.967  24.505   8.553
 6445POPC   D2A20824   8.997  24.455   8.253
 6445POPC   C3A20825   8.999  24.505   7.953
 6445POPC   C4A20826   8.947  24.516   7.653
 6445POPC   C1B20827   9.007  24.719   8.553
 6445POPC   C2B20828   9.024  24.774   8.253
 6445POPC   C3B20829   9.073  24.766   7.953
 6445POPC   C4B20830   9.000  24.739   7.653
 6446POPC   NC320831  12.894  44.674   9.453
 6446POPC   PO420832  12.881  44.682   9.153
 6446POPC   GL120833  12.841  44.615   8.853
 6446POPC   GL220834  12.712  44.674   8.853
 6446POPC   C1A20835  12.858  44.615   8.553
 6446POPC   D2A20836  12.827  44.694   8.253
 6446POPC   C3A20837  12.876  44.670   7.953
 6446POPC   C4A20838  12.888  44.621   7.653
 6446POPC   C1B20839  12.572  44.669   8.553
 6446POPC   C2B20840  12.612  44.602   8.253
 6446POPC   C3B20841  12.621  44.666   7.953
 6446POPC   C4B20842  12.620  44.669   7.653
 6447POPC   NC320843  27.575  13.649   9.453
 6447POPC   PO420844  27.609  13.650   9.153
 6447POPC   GL120845  27.577  13.636   8.853
 6447POPC   GL220846  27.747  13.565   8.853
 6447POPC   C1A20847  27.576  13.665   8.553
 6447POPC   D2A20848  27.579  13.657   8.253
 6447POPC   C3A20849  27.623  13.677   7.953
 6447POPC   C4A20850  27.580  13.607   7.653
 6447POPC   C1B20851  27.850  13.573   8.553
 6447POPC   C2B20852  27.835  13.618   8.253
 6447POPC   C3B20853  27.877  13.555   7.953
 6447POPC   C4B20854  27.837  13.626   7.653
 6448POPC   NC320855   9.740  23.721   9.453
 6448POPC   PO420856   9.720  23.704   9.153
 6448POPC   GL120857   9.739  23.692   8.853
 6448POPC   GL220858   9.861  23.755   8.853
 6448POPC   C1A20859   9.718  23.761   8.553
 6448POPC   D2A20860   9.740  23.686   8.253
 6448POPC   C3A20861   9.798  23.720   7.953
 6448POPC   C4A20862   9.744  23.738   7.653
 6448POPC   C1B20863   9.948  23.884   8.553
 6448POPC   C2B20864   9.923  23.825   8.253
 6448POPC   C3B20865   9.941  23.837   7.953
 6448POPC   C4B20866   9.989  23.795   7.653
 6449POPC   NC320867  16.751   9.742   9.453
 6449POPC   PO420868  16.717   9.767   9.153
 6449POPC   GL120869  16.689   9.758   8.853
 6449POPC   GL220870  16.652   9.755   8.853
 6449POPC   C1A20871  16.737   9.762   8.553
 6449POPC   D2A20872  16.714   9.717   8.253
 6449POPC   C3A20873  16.727   9.704   7.953
 6449POPC   C4A20874  16.729   9.778   7.653
 6449POPC   C1B20875  16.535   9.695   8.553
 6449POPC   C2B20876  16.518   9.723   8.253
 6449POPC   C3B20877  16.531   9.685   7.953
 6449POPC   C4B20878  16.463   9.641   7.653
 6450POPC   NC320879   2.796  12.107   9.453
 6450POPC   PO420880   2.779  12.088   9.153
 6450POPC   GL120881   2.781  12.066   8.853
 6450POPC   GL220882   2.654  12.008   8.853
 6450POPC   C1A20883   2.762  12.080   8.553
 6450POPC   D2A20884   2.723  12.080   8.253
 6450POPC   C3A20885   2.716  12.065   7.953
 6450POPC   C4A20886   2.781  12.060   7.653
 6450POPC   C1B20887   2.538  11.966   8.553
 6450POPC   C2B20888   2.606  11.975   8.253
 6450POPC   C3B20889   2.596  11.923   7.953
 6450POPC   C4B20890   2.580  11.970   7.653
 6451POPC   NC320891  37.722  30.731   9.453
 6451POPC   PO420892  37.720  30.666   9.153
 6451POPC   GL120893  37.683  30.695   8.853
 6451POPC   GL220894  37.556  30.801   8.853
 6451POPC   C1A20895  37.709  30.665   8.553
 6451POPC   D2A20896  37.708  30.741   8.253
 6451POPC   C3A20897  37.666  30.706   7.953
 6451POPC   C4A20898  37.687  30.741   7.653
 6451POPC   C1B20899  37.502  30.877   8.553
 6451POPC   C2B20900  37.521  30.906   8.253
 6451POPC   C3B20901  37.465  30.847   7.953
 6451POPC   C4B20902  37.528  30.845   7.653
 6452POPC   NC320903  14.409  25.276   9.453
 6452POPC   PO420904  14.370  25.222   9.153
 6452POPC   GL120905  14.382  25.314   8.853
 6452POPC   GL220906  14.458  25.172   8.853
 6452POPC   C1A20907  14.369  25.313   8.553
 6452POPC   D2A20908  14.413  25.270   8.253
 6452POPC   C3A20909  14.440  25.278   7.953
 6452POPC   C4A20910  14.387  25.307   7.653
 6452POPC   C1B20911  14.552  25.094   8.553
 6452POPC   C2B20912  14.617  25.107   8.253
 6452POPC   C3B20913  14.596  25.061   7.953
 6452POPC   C4B20914  14.618  25.116   7.653
 6453POPC   NC320915  15.227  43.876   9.453
 6453POPC   PO420916  15.208  43.838   9.153
 6453POPC   GL120917  15.168  43.928   8.853
 6453POPC   GL220918  15.300  43.922   8.853
 6453POPC   C1A20919  15.169  43.858   8.553
 6453POPC   D2A20920  15.222  43.839   8.253
 6453POPC   C3A20921  15.156  43.917   7.953
 6453POPC   C4A20922  15.198  43.904   7.653
 6453POPC   C1B20923  15.403  43.855   8.553
 6453POPC   C2B20924  15.420  43.843   8.253
 6453POPC   C3B20925  15.477  43.873   7.953
 6453POPC   C4B20926  15.404  43.913   7.653
 6454POPC   NC320927  30.727  26.061   9.453
 6454POPC   PO420928  30.705  26.021   9.153
 6454POPC   GL120929  30.683  26.042   8.853
 6454POPC   GL220930  30.608  26.137   8.853
 6454POPC   C1A20931  30.693  26.025   8.553
 6454POPC   D2A20932  30.682  26.032   8.253
 6454POPC   C3A20933  30.667  26.079   7.953
 6454POPC   C4A20934  30.650  25.991   7.653
 6454POPC   C1B20935  30.582  26.235   8.553
 6454POPC   C2B20936  30.534  26.191   8.253
 6454POPC   C3B20937  30.509  26.269   7.953
 6454POPC   C4B20938  30.552  26.214   7.653
 6455POPC   NC320939  16.724  31.430   9.453
 6455POPC   PO420940  16.740  31.491   9.153
 6455POPC   GL120941  16.749  31.464   8.853
 6455POPC   GL220942  16.597  31.508   8.853
 6455POPC   C1A20943  16.758  31.480   8.553
 6455POPC   D2A20944  16.697  31.474   8.253
 6455POPC   C3A20945  16.718  31.454   7.953
 6455POPC   C4A20946  16.779  31.436   7.653
 6455POPC   C1B20947  16.542  31.628   8.553
 6455POPC   C2B20948  16.505  31.569   8.253
 6455POPC   C3B20949  16.482  31.626   7.953
 6455POPC   C4B20950  16.512  31.567   7.653
 6456POPC   NC320951  36.139  15.149   9.453
 6456POPC   PO420952  36.080  15.220   9.153
 6456POPC   GL120953  36.150  15.229   8.853
 6456POPC   GL220954  36.268  15.143   8.853
 6456POPC   C1A20955  36.168  15.185   8.553
 6456POPC   D2A20956  36.145  15.161   8.253
 6456POPC   C3A20957  36.098  15.172   7.953
 6456POPC   C4A20958  36.110  15.161   7.653
 6456POPC   C1B20959  36.348  15.172   8.553
 6456POPC   C2B20960  36.364  15.181   8.253
 6456POPC   C3B20961  36.372  15.243   7.953
 6456POPC   C4B20962  36.366  15.232   7.653
 6457POPC   NC320963   2.749  26.836   9.453
 6457POPC   PO420964   2.794  26.769   9.153
 6457POPC   GL120965   2.743  26.856   8.853
 6457POPC   GL220966   2.835  26.828   8.853
 6457POPC   C1A20967   2.731  26.803   8.553
 6457POPC   D2A20968   2.813  26.793   8.253
 6457POPC   C3A20969   2.738  26.811   7.953
 6457POPC   C4A20970   2.751  26.788   7.653
 6457POPC   C1B20971   3.037  26.893   8.553
 6457POPC   C2B20972   3.019  26.858   8.253
 6457POPC   C3B20973   3.000  26.929   7.953
 6457POPC   C4B20974   3.022  26.845   7.653
 6458POPC   NC320975   5.112  10.567   9.453
 6458POPC   PO420976   5.126  10.520   9.153
 6458POPC   GL120977   5.121  10.501   8.853
 6458POPC   GL220978   5.183  10.543   8.853
 6458POPC   C1A20979   5.110  10.514   8.553
 6458POPC   D2A20980   5.056  10.517   8.253
 6458POPC   C3A20981   5.131  10.539   7.953
 6458POPC   C4A20982   5.068  10.551   7.653
 6458POPC   C1B20983   5.333  10.634   8.553
 6458POPC   C2B20984   5.261  10.624   8.253
 6458POPC   C3B20985   5.343  10.608   7.953
 6458POPC   C4B20986   5.334  10.646   7.653
 6459POPC   NC320987  26.044   6.629   9.453
 6459POPC   PO420988  25.992   6.678   9.153
 6459POPC   GL120989  26.075   6.608   8.853
 6459POPC   GL220990  26.190   6.666   8.853
 6459POPC   C1A20991  26.056   6.600   8.553
 6459POPC   D2A20992  26.064   6.653   8.253
 6459POPC   C3A20993  25.999   6.636   7.953
 6459POPC   C4A20994  26.050   6.649   7.653
 6459POPC   C1B20995  26.269   6.684   8.553
 6459POPC   C2B20996  26.304   6.655   8.253
 6459POPC   C3B20997  26.328   6.627   7.953
 6459POPC   C4B20998  26.288   6.702   7.653
 6460POPC   NC320999  24.473   9.021   9.453
 6460POPC   PO421000  24.510   8.942   9.153
 6460POPC   GL121001  24.518   9.020   8.853
 6460POPC   GL221002  24.606   8.888   8.853
 6460POPC   C1A21003  24.451   8.971   8.553
 6460POPC   D2A21004  24.460   9.018   8.253
 6460POPC   C3A21005  24.450   8.925   7.953
 6460POPC   C4A21006  24.471   8.934   7.653
 6460POPC   C1B21007  24.705   8.904   8.553
 6460POPC   C2B21008  24.766   8.931   8.253
 6460POPC   C3B21009  24.727   8.897   7.953
 6460POPC   C4B21010  24.714   8.943   7.653
 6461POPC   NC321011  33.032  43.142   9.453
 6461POPC   PO421012  32.975  43.065   9.153
 6461POPC   GL121013  33.012  43.125   8.853
 6461POPC   GL221014  33.127  43.175   8.853
 6461POPC   C1A21015  33.014  43.148   8.553
 6461POPC   D2A21016  32.998  43.073   8.253
 6461POPC   C3A21017  33.013  43.076   7.953
 6461POPC   C4A21018  32.997  43.128   7.653
 6461POPC   C1B21019  33.146  43.329   8.553
 6461POPC   C2B21020  33.106  43.348   8.253
 6461POPC   C3B21021  33.159  43.294   7.953
 6461POPC   C4B21022  33.156  43.339   7.653
 6462POPC   NC321023   1.986  19.819   9.453
 6462POPC   PO421024   2.030  19.869   9.153
 6462POPC   GL121025   1.981  19.883   8.853
 6462POPC   GL221026   2.108  19.940   8.853
 6462POPC   C1A21027   2.002  19.825   8.553
 6462POPC   D2A21028   1.982  19.857   8.253
 6462POPC   C3A21029   1.997  19.803   7.953
 6462POPC   C4A21030   2.024  19.861   7.653
 6462POPC   C1B21031   2.144  20.049   8.553
 6462POPC   C2B21032   2.220  19.980   8.253
 6462POPC   C3B21033   2.175  20.012   7.953
 6462POPC   C4B21034   2.154  20.045   7.653
 6463POPC   NC321035  13.626  26.845   9.453
 6463POPC   PO421036  13.666  26.844   9.153
 6463POPC   GL121037  13.646  26.809   8.853
 6463POPC   GL221038  13.749  26.839   8.853
 6463POPC   C1A21039  13.657  26.780   8.553
 6463POPC   D2A21040  13.670  26.839   8.253
 6463POPC   C3A21041  13.618  26.788   7.953
 6463POPC   C4A21042  13.615  26.834   7.653
 6463POPC   C1B21043  13.832  26.874   8.553
 6463POPC   C2B21044  13.899  26.882   8.253
 6463POPC   C3B21045  13.835  26.878   7.953
 6463POPC   C4B21046  13.855  26.851   7.653
 6464POPC   NC321047   9.718  17.510   9.453
 6464POPC   PO421048   9.790  17.531   9.153
 6464POPC   GL121049   9.716  17.516   8.853
 6464POPC   GL221050   9.852  17.544   8.853
 6464POPC   C1A21051   9.739  17.507   8.553
 6464POPC   D2A21052   9.751  17.536   8.253
 6464POPC   C3A21053   9.784  17.553   7.953
 6464POPC   C4A21054   9.777  17.517   7.653
 6464POPC   C1B21055  10.033  17.505   8.553
 6464POPC   C2B21056  10.040  17.521   8.253
 6464POPC   C3B21057  10.010  17.511   7.953
 6464POPC   C4B21058   9.989  17.518   7.653
 6465POPC   NC321059  14.436  10.503   9.453
 6465POPC   PO421060  14.394  10.559   9.153
 6465POPC   GL121061  14.383  10.482   8.853
 6465POPC   GL221062  14.285  10.567   8.853
 6465POPC   C1A21063  14.365  10.517   8.553
 6465POPC   D2A21064  14.433  10.487   8.253
 6465POPC   C3A21065  14.433  10.503   7.953
 6465POPC   C4A21066  14.429  10.516   7.653
 6465POPC   C1B21067  14.201  10.626   8.553
 6465POPC   C2B21068  14.247  10.653   8.253
 6465POPC   C3B21069  14.214  10.716   7.953
 6465POPC   C4B21070  14.191  10.692   7.653
 6466POPC   NC321071  22.954   7.429   9.453
 6466POPC   PO421072  22.960   7.421   9.153
 6466POPC   GL121073  22.901   7.405   8.853
 6466POPC   GL221074  23.063   7.370   8.853
 6466POPC   C1A21075  22.954   7.461   8.553
 6466POPC   D2A21076  22.981   7.399   8.253
 6466POPC   C3A21077  22.953   7.419   7.953
 6466POPC   C4A21078  22.970   7.381   7.653
 6466POPC   C1B21079  23.224   7.367   8.553
 6466POPC   C2B21080  23.193   7.381   8.253
 6466POPC   C3B21081  23.159   7.402   7.953
 6466POPC   C4B21082  23.174   7.335   7.653
 6467POPC   NC321083  40.826  33.820   9.453
 6467POPC   PO421084  40.793  33.788   9.153
 6467POPC   GL121085  40.790  33.840   8.853
 6467POPC   GL221086  40.910  33.797   8.853
 6467POPC   C1A21087  40.737  33.830   8.553
 6467POPC   D2A21088  40.739  33.847   8.253
 6467POPC   C3A21089  40.747  33.768   7.953
 6467POPC   C4A21090  40.762  33.796   7.653
 6467POPC   C1B21091  41.072  33.763   8.553
 6467POPC   C2B21092  40.986  33.785   8.253
 6467POPC   C3B21093  41.036  33.780   7.953
 6467POPC   C4B21094  41.031  33.784   7.653
 6468POPC   NC321095  20.641  23.717   9.453
 6468POPC   PO421096  20.619  23.708   9.153
 6468POPC   GL121097  20.628  23.748   8.853
 6468POPC   GL221098  20.679  23.595   8.853
 6468POPC   C1A21099  20.623  23.722   8.553
 6468POPC   D2A21100  20.585  23.742   8.253
 6468POPC   C3A21101  20.593  23.693   7.953
 6468POPC   C4A21102  20.578  23.687   7.653
 6468POPC   C1B21103  20.684  23.446   8.553
 6468POPC   C2B21104  20.691  23.532   8.253
 6468POPC   C3B21105  20.677  23.499   7.953
 6468POPC   C4B21106  20.744  23.520   7.653
 6469POPC   NC321107   9.714   0.402   9.453
 6469POPC   PO421108   9.743   0.436   9.153
 6469POPC   GL121109   9.781   0.476   8.853
 6469POPC   GL221110   9.688   0.374   8.853
 6469POPC   C1A21111   9.702   0.449   8.553
 6469POPC   D2A21112   9.786   0.457   8.253
 6469POPC   C3A21113   9.725   0.486   7.953
 6469POPC   C4A21114   9.750   0.458   7.653
 6469POPC   C1B21115   9.598   0.254   8.553
 6469POPC   C2B21116   9.605   0.281   8.253
 6469POPC   C3B21117   9.588   0.225   7.953
 6469POPC   C4B21118   9.558   0.294   7.653
 6470POPC   NC321119  40.758  11.264   9.453
 6470POPC   PO421120  40.748  11.327   9.153
 6470POPC   GL121121  40.745  11.291   8.853
 6470POPC   GL221122  40.699  11.416   8.853
 6470POPC   C1A21123  40.789  11.335   8.553
 6470POPC   D2A21124  40.757  11.277   8.253
 6470POPC   C3A21125  40.827  11.324   7.953
 6470POPC   C4A21126  40.815  11.252   7.653
 6470POPC   C1B21127  40.611  11.459   8.553
 6470POPC   C2B21128  40.594  11.468   8.253
 6470POPC   C3B21129  40.601  11.434   7.953
 6470POPC   C4B21130  40.575  11.459   7.653
 6471POPC   NC321131  29.934   7.455   9.453
 6471POPC   PO421132  29.961   7.426   9.153
 6471POPC   GL121133  29.897   7.461   8.853
 6471POPC   GL221134  30.044   7.412   8.853
 6471POPC   C1A21135  29.872   7.381   8.553
 6471POPC   D2A21136  29.911   7.439   8.253
 6471POPC   C3A21137  29.917   7.382   7.953
 6471POPC   C4A21138  29.963   7.468   7.653
 6471POPC   C1B21139  30.188   7.426   8.553
 6471POPC   C2B21140  30.215   7.410   8.253
 6471POPC   C3B21141  30.132   7.426   7.953
 6471POPC   C4B21142  30.184   7.415   7.653
 6472POPC   NC321143  38.491  33.832   9.453
 6472POPC   PO421144  38.485  33.809   9.153
 6472POPC   GL121145  38.443  33.816   8.853
 6472POPC   GL221146  38.577  33.799   8.853
 6472POPC   C1A21147  38.495  33.842   8.553
 6472POPC   D2A21148  38.432  33.795   8.253
 6472POPC   C3A21149  38.411  33.833   7.953
 6472POPC   C4A21150  38.461  33.815   7.653
 6472POPC   C1B21151  38.641  33.879   8.553
 6472POPC   C2B21152  38.685  33.862   8.253
 6472POPC   C3B21153  38.727  33.884   7.953
 6472POPC   C4B21154  38.727  33.901   7.653
 6473POPC   NC321155   2.774  29.097   9.453
 6473POPC   PO421156   2.775  29.177   9.153
 6473POPC   GL121157   2.809  29.099   8.853
 6473POPC   GL221158   2.865  29.281   8.853
 6473POPC   C1A21159   2.779  29.149   8.553
 6473POPC   D2A21160   2.751  29.160   8.253
 6473POPC   C3A21161   2.811  29.096   7.953
 6473POPC   C4A21162   2.811  29.101   7.653
 6473POPC   C1B21163   2.859  29.330   8.553
 6473POPC   C2B21164   2.938  29.307   8.253
 6473POPC   C3B21165   2.926  29.335   7.953
 6473POPC   C4B21166   2.950  29.311   7.653
 6474POPC   NC321167  43.086  44.701   9.453
 6474POPC   PO421168  43.098  44.620   9.153
 6474POPC   GL121169  43.147  44.689   8.853
 6474POPC   GL221170  43.138  44.729   8.853
 6474POPC   C1A21171  43.068  44.663   8.553
 6474POPC   D2A21172  43.062  44.624   8.253
 6474POPC   C3A21173  43.155  44.697   7.953
 6474POPC   C4A21174  43.103  44.628   7.653
 6474POPC   C1B21175  43.163  44.897   8.553
 6474POPC   C2B21176  43.244  44.856   8.253
 6474POPC   C3B21177  43.179  44.898   7.953
 6474POPC   C4B21178  43.237  44.939   7.653
 6475POPC   NC321179  29.124   6.692   9.453
 6475POPC   PO421180  29.154   6.659   9.153
 6475POPC   GL121181  29.182   6.618   8.853
 6475POPC   GL221182  29.073   6.724   8.853
 6475POPC   C1A21183  29.161   6.609   8.553
 6475POPC   D2A21184  29.123   6.673   8.253
 6475POPC   C3A21185  29.135   6.611   7.953
 6475POPC   C4A21186  29.156   6.690   7.653
 6475POPC   C1B21187  29.051   6.922   8.553
 6475POPC   C2B21188  29.104   6.909   8.253
 6475POPC   C3B21189  29.107   6.931   7.953
 6475POPC   C4B21190  29.079   6.928   7.653
 6476POPC   NC321191   3.517   9.003   9.453
 6476POPC   PO421192   3.546   9.022   9.153
 6476POPC   GL121193   3.536   9.009   8.853
 6476POPC   GL221194   3.607   8.860   8.853
 6476POPC   C1A21195   3.568   8.968   8.553
 6476POPC   D2A21196   3.562   8.930   8.253
 6476POPC   C3A21197   3.529   8.960   7.953
 6476POPC   C4A21198   3.526   9.007   7.653
 6476POPC   C1B21199   3.593   8.755   8.553
 6476POPC   C2B21200   3.596   8.726   8.253
 6476POPC   C3B21201   3.584   8.697   7.953
 6476POPC   C4B21202   3.625   8.681   7.653
 6477POPC   NC321203  21.400  11.284   9.453
 6477POPC   PO421204  21.341  11.314   9.153
 6477POPC   GL121205  21.435  11.258   8.853
 6477POPC   GL221206  21.496  11.203   8.853
 6477POPC   C1A21207  21.408  11.299   8.553
 6477POPC   D2A21208  21.410  11.348   8.253
 6477POPC   C3A21209  21.348  11.299   7.953
 6477POPC   C4A21210  21.372  11.324   7.653
 6477POPC   C1B21211  21.532  11.099   8.553
 6477POPC   C2B21212  21.567  11.053   8.253
 6477POPC   C3B21213  21.568  11.135   7.953
 6477POPC   C4B21214  21.503  11.078   7.653
 6478POPC   NC321215  24.464  29.901   9.453
 6478POPC   PO421216  24.534  29.923   9.153
 6478POPC   GL121217  24.476  29.900   8.853
 6478POPC   GL221218  24.550  29.977   8.853
 6478POPC   C1A21219  24.505  29.960   8.553
 6478POPC   D2A21220  24.539  29.909   8.253
 6478POPC   C3A21221  24.491  29.887   7.953
 6478POPC   C4A21222  24.456  29.936   7.653
 6478POPC   C1B21223  24.640  30.109   8.553
 6478POPC   C2B21224  24.651  30.153   8.253
 6478POPC   C3B21225  24.695  30.080   7.953
 6478POPC   C4B21226  24.709  30.098   7.653
 6479POPC   NC321227  38.422  32.977   9.453
 6479POPC   PO421228  38.406  32.978   9.153
 6479POPC   GL121229  38.447  33.065   8.853
 6479POPC   GL221230  38.481  33.168   8.853
 6479POPC   C1A21231  38.451  33.028   8.553
 6479POPC   D2A21232  38.462  33.040   8.253
 6479POPC   C3A21233  38.417  33.039   7.953
 6479POPC   C4A21234  38.453  32.975   7.653
 6479POPC   C1B21235  38.601  33.224   8.553
 6479POPC   C2B21236  38.644  33.220   8.253
 6479POPC   C3B21237  38.605  33.200   7.953
 6479POPC   C4B21238  38.572  33.216   7.653
 6480POPC   NC321239  44.620  17.491   9.453
 6480POPC   PO421240  44.623  17.556   9.153
 6480POPC   GL121241  44.631  17.516   8.853
 6480POPC   GL221242  44.743  17.445   8.853
 6480POPC   C1A21243  44.621  17.551   8.553
 6480POPC   D2A21244  44.688  17.461   8.253
 6480POPC   C3A21245  44.690  17.502   7.953
 6480POPC   C4A21246  44.676  17.533   7.653
 6480POPC   C1B21247  44.868  17.315   8.553
 6480POPC   C2B21248  44.803  17.366   8.253
 6480POPC   C3B21249  44.853  17.359   7.953
 6480POPC   C4B21250  44.839  17.341   7.653
 6481POPC   NC321251   0.472  33.786   9.453
 6481POPC   PO421252   0.443  33.833   9.153
 6481POPC   GL121253   0.389  33.847   8.853
 6481POPC   GL221254   0.404  33.696   8.853
 6481POPC   C1A21255   0.476  33.798   8.553
 6481POPC   D2A21256   0.404  33.789   8.253
 6481POPC   C3A21257   0.455  33.811   7.953
 6481POPC   C4A21258   0.474  33.755   7.653
 6481POPC   C1B21259   0.504  33.576   8.553
 6481POPC   C2B21260   0.422  33.516   8.253
 6481POPC   C3B21261   0.475  33.506   7.953
 6481POPC   C4B21262   0.518  33.571   7.653
 6482POPC   NC321263  14.366  12.038   9.453
 6482POPC   PO421264  14.445  12.114   9.153
 6482POPC   GL121265  14.422  12.101   8.853
 6482POPC   GL221266  14.507  12.115   8.853
 6482POPC   C1A21267  14.403  12.122   8.553
 6482POPC   D2A21268  14.365  12.110   8.253
 6482POPC   C3A21269  14.389  12.054   7.953
 6482POPC   C4A21270  14.379  12.085   7.653
 6482POPC   C1B21271  14.664  12.142   8.553
 6482POPC   C2B21272  14.620  12.087   8.253
 6482POPC   C3B21273  14.608  12.109   7.953
 6482POPC   C4B21274  14.688  12.115   7.653
 6483POPC   NC321275  39.982  24.537   9.453
 6483POPC   PO421276  40.013  24.509   9.153
 6483POPC   GL121277  39.986  24.460   8.853
 6483POPC   GL221278  40.082  24.413   8.853
 6483POPC   C1A21279  39.963  24.461   8.553
 6483POPC   D2A21280  39.964  24.461   8.253
 6483POPC   C3A21281  40.020  24.491   7.953
 6483POPC   C4A21282  40.012  24.499   7.653
 6483POPC   C1B21283  40.188  24.319   8.553
 6483POPC   C2B21284  40.142  24.325   8.253
 6483POPC   C3B21285  40.138  24.331   7.953
 6483POPC   C4B21286  40.164  24.326   7.653
 6484POPC   NC321287  41.604  38.481   9.453
 6484POPC   PO421288  41.536  38.443   9.153
 6484POPC   GL121289  41.586  38.465   8.853
 6484POPC   GL221290  41.671  38.414   8.853
 6484POPC   C1A21291  41.548  38.461   8.553
 6484POPC   D2A21292  41.540  38.491   8.253
 6484POPC   C3A21293  41.527  38.429   7.953
 6484POPC   C4A21294  41.524  38.420   7.653
 6484POPC   C1B21295  41.788  38.292   8.553
 6484POPC   C2B21296  41.792  38.310   8.253
 6484POPC   C3B21297  41.750  38.369   7.953
 6484POPC   C4B21298  41.796  38.297   7.653
 6485POPC   NC321299  19.034  40.824   9.453
 6485POPC   PO421300  19.061  40.756   9.153
 6485POPC   GL121301  19.015  40.827   8.853
 6485POPC   GL221302  19.003  40.700   8.853
 6485POPC   C1A21303  19.076  40.748   8.553
 6485POPC   D2A21304  19.024  40.811   8.253
 6485POPC   C3A21305  19.051  40.738   7.953
 6485POPC   C4A21306  19.017  40.741   7.653
 6485POPC   C1B21307  18.987  40.528   8.553
 6485POPC   C2B21308  19.012  40.555   8.253
 6485POPC   C3B21309  19.012  40.505   7.953
 6485POPC   C4B21310  19.027  40.488   7.653
 6486POPC   NC321311  20.633  27.608   9.453
 6486POPC   PO421312  20.614  27.559   9.153
 6486POPC   GL121313  20.615  27.615   8.853
 6486POPC   GL221314  20.607  27.750   8.853
 6486POPC   C1A21315  20.590  27.609   8.553
 6486POPC   D2A21316  20.645  27.619   8.253
 6486POPC   C3A21317  20.630  27.551   7.953
 6486POPC   C4A21318  20.573  27.604   7.653
 6486POPC   C1B21319  20.548  27.838   8.553
 6486POPC   C2B21320  20.548  27.872   8.253
 6486POPC   C3B21321  20.504  27.825   7.953
 6486POPC   C4B21322  20.508  27.805   7.653
 6487POPC   NC321323  37.641  21.373   9.453
 6487POPC   PO421324  37.720  21.421   9.153
 6487POPC   GL121325  37.635  21.431   8.853
 6487POPC   GL221326  37.756  21.358   8.853
 6487POPC   C1A21327  37.722  21.424   8.553
 6487POPC   D2A21328  37.637  21.424   8.253
 6487POPC   C3A21329  37.718  21.346   7.953
 6487POPC   C4A21330  37.656  21.343   7.653
 6487POPC   C1B21331  37.893  21.357   8.553
 6487POPC   C2B21332  37.949  21.404   8.253
 6487POPC   C3B21333  37.890  21.379   7.953
 6487POPC   C4B21334  37.911  21.425   7.653
 6488POPC   NC321335  42.368   4.313   9.453
 6488POPC   PO421336  42.287   4.339   9.153
 6488POPC   GL121337  42.366   4.352   8.853
 6488POPC   GL221338  42.258   4.378   8.853
 6488POPC   C1A21339  42.319   4.289   8.553
 6488POPC   D2A21340  42.299   4.301   8.253
 6488POPC   C3A21341  42.332   4.317   7.953
 6488POPC   C4A21342  42.382   4.307   7.653
 6488POPC   C1B21343  42.165   4.472   8.553
 6488POPC   C2B21344  42.155   4.519   8.253
 6488POPC   C3B21345  42.139   4.483   7.953
 6488POPC   C4B21346  42.224   4.542   7.653
 6489POPC   NC321347  26.077  33.039   9.453
 6489POPC   PO421348  26.001  32.979   9.153
 6489POPC   GL121349  26.016  33.057   8.853
 6489POPC   GL221350  25.960  32.977   8.853
 6489POPC   C1A21351  26.058  33.058   8.553
 6489POPC   D2A21352  26.033  32.996   8.253
 6489POPC   C3A21353  26.078  33.002   7.953
 6489POPC   C4A21354  26.011  33.048   7.653
 6489POPC   C1B21355  25.844  32.804   8.553
 6489POPC   C2B21356  25.857  32.823   8.253
 6489POPC   C3B21357  25.877  32.817   7.953
 6489POPC   C4B21358  25.852  32.854   7.653
 6490POPC   NC321359  21.342  10.545   9.453
 6490POPC   PO421360  21.415  10.507   9.153
 6490POPC   GL121361  21.373  10.543   8.853
 6490POPC   GL221362  21.536  10.540   8.853
 6490POPC   C1A21363  21.393  10.494   8.553
 6490POPC   D2A21364  21.351  10.515   8.253
 6490POPC   C3A21365  21.419  10.504   7.953
 6490POPC   C4A21366  21.385  10.559   7.653
 6490POPC   C1B21367  21.629  10.534   8.553
 6490POPC   C2B21368  21.674  10.561   8.253
 6490POPC   C3B21369  21.611  10.587   7.953
 6490POPC   C4B21370  21.646  10.508   7.653
 6491POPC   NC321371  41.557  19.789   9.453
 6491POPC   PO421372  41.585  19.791   9.153
 6491POPC   GL121373  41.524  19.817   8.853
 6491POPC   GL221374  41.574  19.973   8.853
 6491POPC   C1A21375  41.518  19.847   8.553
 6491POPC   D2A21376  41.528  19.868   8.253
 6491POPC   C3A21377  41.535  19.787   7.953
 6491POPC   C4A21378  41.559  19.827   7.653
 6491POPC   C1B21379  41.626  20.090   8.553
 6491POPC   C2B21380  41.611  20.051   8.253
 6491POPC   C3B21381  41.605  20.044   7.953
 6491POPC   C4B21382  41.666  20.113   7.653
 6492POPC   NC321383  43.903  29.169   9.453
 6492POPC   PO421384  43.880  29.136   9.153
 6492POPC   GL121385  43.874  29.131   8.853
 6492POPC   GL221386  43.985  29.014   8.853
 6492POPC   C1A21387  43.876  29.175   8.553
 6492POPC   D2A21388  43.934  29.184   8.253
 6492POPC   C3A21389  43.903  29.131   7.953
 6492POPC   C4A21390  43.854  29.150   7.653
 6492POPC   C1B21391  44.040  28.933   8.553
 6492POPC   C2B21392  44.028  28.994   8.253
 6492POPC   C3B21393  44.073  28.985   7.953
 6492POPC   C4B21394  44.095  28.922   7.653
 6493POPC   NC321395  16.694  25.235   9.453
 6493POPC   PO421396  16.729  25.223   9.153
 6493POPC   GL121397  16.762  25.226   8.853
 6493POPC   GL221398  16.844  25.145   8.853
 6493POPC   C1A21399  16.708  25.276   8.553
 6493POPC   D2A21400  16.736  25.285   8.253
 6493POPC   C3A21401  16.737  25.270   7.953
 6493POPC   C4A21402  16.731  25.291   7.653
 6493POPC   C1B21403  16.876  25.110   8.553
 6493POPC   C2B21404  16.900  25.057   8.253
 6493POPC   C3B21405  16.882  25.139   7.953
 6493POPC   C4B21406  16.942  25.073   7.653
 6494POPC   NC321407  28.363  16.760   9.453
 6494POPC   PO421408  28.333  16.754   9.153
 6494POPC   GL121409  28.401  16.752   8.853
 6494POPC   GL221410  28.254  16.657   8.853
 6494POPC   C1A21411  28.361  16.702   8.553
 6494POPC   D2A21412  28.325  16.764   8.253
 6494POPC   C3A21413  28.397  16.714   7.953
 6494POPC   C4A21414  28.358  16.688   7.653
 6494POPC   C1B21415  28.169  16.547   8.553
 6494POPC   C2B21416  28.212  16.522   8.253
 6494POPC   C3B21417  28.228  16.509   7.953
 6494POPC   C4B21418  28.185  16.544   7.653
 6495POPC   NC321419  18.310  31.450   9.453
 6495POPC   PO421420  18.246  31.483   9.153
 6495POPC   GL121421  18.299  31.439   8.853
 6495POPC   GL221422  18.168  31.383   8.853
 6495POPC   C1A21423  18.262  31.427   8.553
 6495POPC   D2A21424  18.289  31.440   8.253
 6495POPC   C3A21425  18.288  31.518   7.953
 6495POPC   C4A21426  18.280  31.477   7.653
 6495POPC   C1B21427  18.179  31.224   8.553
 6495POPC   C2B21428  18.110  31.228   8.253
 6495POPC   C3B21429  18.175  31.318   7.953
 6495POPC   C4B21430  18.154  31.283   7.653
 6496POPC   NC321431  39.223  17.526   9.453
 6496POPC   PO421432  39.198  17.524   9.153
 6496POPC   GL121433  39.184  17.499   8.853
 6496POPC   GL221434  39.140  17.558   8.853
 6496POPC   C1A21435  39.198  17.542   8.553
 6496POPC   D2A21436  39.193  17.464   8.253
 6496POPC   C3A21437  39.223  17.468   7.953
 6496POPC   C4A21438  39.183  17.544   7.653
 6496POPC   C1B21439  38.962  17.581   8.553
 6496POPC   C2B21440  39.019  17.643   8.253
 6496POPC   C3B21441  39.004  17.583   7.953
 6496POPC   C4B21442  39.031  17.639   7.653
 6497POPC   NC321443  27.585  21.367   9.453
 6497POPC   PO421444  27.615  21.407   9.153
 6497POPC   GL121445  27.606  21.413   8.853
 6497POPC   GL221446  27.514  21.345   8.853
 6497POPC   C1A21447  27.600  21.427   8.553
 6497POPC   D2A21448  27.623  21.342   8.253
 6497POPC   C3A21449  27.624  21.386   7.953
 6497POPC   C4A21450  27.580  21.435   7.653
 6497POPC   C1B21451  27.408  21.208   8.553
 6497POPC   C2B21452  27.401  21.214   8.253
 6497POPC   C3B21453  27.430  21.228   7.953
 6497POPC   C4B21454  27.424  21.264   7.653
 6498POPC   NC321455  25.247  36.154   9.453
 6498POPC   PO421456  25.305  36.163   9.153
 6498POPC   GL121457  25.260  36.142   8.853
 6498POPC   GL221458  25.356  36.215   8.853
 6498POPC   C1A21459  25.287  36.111   8.553
 6498POPC   D2A21460  25.315  36.156   8.253
 6498POPC   C3A21461  25.315  36.161   7.953
 6498POPC   C4A21462  25.275  36.160   7.653
 6498POPC   C1B21463  25.503  36.328   8.553
 6498POPC   C2B21464  25.452  36.279   8.253
 6498POPC   C3B21465  25.451  36.284   7.953
 6498POPC   C4B21466  25.446  36.262   7.653
 6499POPC   NC321467  10.565  41.552   9.453
 6499POPC   PO421468  10.551  41.547   9.153
 6499POPC   GL121469  10.539  41.571   8.853
 6499POPC   GL221470  10.594  41.685   8.853
 6499POPC   C1A21471  10.492  41.594   8.553
 6499POPC   D2A21472  10.529  41.512   8.253
 6499POPC   C3A21473  10.544  41.532   7.953
 6499POPC   C4A21474  10.523  41.569   7.653
 6499POPC   C1B21475  10.737  41.757   8.553
 6499POPC   C2B21476  10.698  41.713   8.253
 6499POPC   C3B21477  10.736  41.746   7.953
 6499POPC   C4B21478  10.754  41.695   7.653
 6500POPC   NC321479   1.176  43.108   9.453
 6500POPC   PO421480   1.182  43.121   9.153
 6500POPC   GL121481   1.188  43.122   8.853
 6500POPC   GL221482   1.350  43.126   8.853
 6500POPC   C1A21483   1.239  43.130   8.553
 6500POPC   D2A21484   1.204  43.155   8.253
 6500POPC   C3A21485   1.201  43.076   7.953
 6500POPC   C4A21486   1.215  43.106   7.653
 6500POPC   C1B21487   1.421  43.084   8.553
 6500POPC   C2B21488   1.429  43.071   8.253
 6500POPC   C3B21489   1.491  43.064   7.953
 6500POPC   C4B21490   1.464  43.093   7.653
 6501POPC   NC321491   1.943  39.250   9.453
 6501POPC   PO421492   1.970  39.207   9.153
 6501POPC   GL121493   1.944  39.218   8.853
 6501POPC   GL221494   1.968  39.135   8.853
 6501POPC   C1A21495   1.971  39.226   8.553
 6501POPC   D2A21496   1.965  39.197   8.253
 6501POPC   C3A21497   2.006  39.257   7.953
 6501POPC   C4A21498   2.023  39.239   7.653
 6501POPC   C1B21499   1.841  39.027   8.553
 6501POPC   C2B21500   1.922  39.030   8.253
 6501POPC   C3B21501   1.899  38.981   7.953
 6501POPC   C4B21502   1.872  39.006   7.653
 6502POPC   NC321503   9.749  42.378   9.453
 6502POPC   PO421504   9.767  42.377   9.153
 6502POPC   GL121505   9.726  42.318   8.853
 6502POPC   GL221506   9.864  42.240   8.853
 6502POPC   C1A21507   9.726  42.360   8.553
 6502POPC   D2A21508   9.721  42.338   8.253
 6502POPC   C3A21509   9.726  42.343   7.953
 6502POPC   C4A21510   9.765  42.348   7.653
 6502POPC   C1B21511   9.861  42.081   8.553
 6502POPC   C2B21512   9.879  42.087   8.253
 6502POPC   C3B21513   9.872  42.104   7.953
 6502POPC   C4B21514   9.904  42.156   7.653
 6503POPC   NC321515   8.949  29.101   9.453
 6503POPC   PO421516   8.970  29.095   9.153
 6503POPC   GL121517   8.988  29.187   8.853
 6503POPC   GL221518   9.014  29.021   8.853
 6503POPC   C1A21519   8.993  29.127   8.553
 6503POPC   D2A21520   9.002  29.170   8.253
 6503POPC   C3A21521   8.993  29.128   7.953
 6503POPC   C4A21522   8.971  29.115   7.653
 6503POPC   C1B21523   9.100  28.946   8.553
 6503POPC   C2B21524   9.106  28.911   8.253
 6503POPC   C3B21525   9.186  28.953   7.953
 6503POPC   C4B21526   9.091  28.950   7.653
 6504POPC   NC321527  34.526  23.687   9.453
 6504POPC   PO421528  34.565  23.764   9.153
 6504POPC   GL121529  34.575  23.711   8.853
 6504POPC   GL221530  34.706  23.715   8.853
 6504POPC   C1A21531  34.538  23.675   8.553
 6504POPC   D2A21532  34.610  23.672   8.253
 6504POPC   C3A21533  34.568  23.680   7.953
 6504POPC   C4A21534  34.594  23.712   7.653
 6504POPC   C1B21535  34.833  23.697   8.553
 6504POPC   C2B21536  34.836  23.721   8.253
 6504POPC   C3B21537  34.864  23.721   7.953
 6504POPC   C4B21538  34.803  23.715   7.653
 6505POPC   NC321539  19.067  42.285   9.453
 6505POPC   PO421540  19.052  42.370   9.153
 6505POPC   GL121541  19.086  42.356   8.853
 6505POPC   GL221542  18.941  42.381   8.853
 6505POPC   C1A21543  19.096  42.340   8.553
 6505POPC   D2A21544  19.012  42.363   8.253
 6505POPC   C3A21545  19.018  42.352   7.953
 6505POPC   C4A21546  19.105  42.316   7.653
 6505POPC   C1B21547  18.876  42.487   8.553
 6505POPC   C2B21548  18.828  42.427   8.253
 6505POPC   C3B21549  18.797  42.431   7.953
 6505POPC   C4B21550  18.851  42.428   7.653
 6506POPC   NC321551  28.373  36.854   9.453
 6506POPC   PO421552  28.408  36.884   9.153
 6506POPC   GL121553  28.368  36.901   8.853
 6506POPC   GL221554  28.393  37.004   8.853
 6506POPC   C1A21555  28.395  36.949   8.553
 6506POPC   D2A21556  28.370  36.869   8.253
 6506POPC   C3A21557  28.338  36.894   7.953
 6506POPC   C4A21558  28.406  36.925   7.653
 6506POPC   C1B21559  28.415  37.159   8.553
 6506POPC   C2B21560  28.434  37.115   8.253
 6506POPC   C3B21561  28.377  37.189   7.953
 6506POPC   C4B21562  28.367  37.111   7.653
 6507POPC   NC321563  26.049   9.728   9.453
 6507POPC   PO421564  26.041   9.753   9.153
 6507POPC   GL121565  26.064   9.706   8.853
 6507POPC   GL221566  26.131   9.686   8.853
 6507POPC   C1A21567  26.051   9.757   8.553
 6507POPC   D2A21568  26.052   9.737   8.253
 6507POPC   C3A21569  26.063   9.716   7.953
 6507POPC   C4A21570  26.032   9.788   7.653
 6507POPC   C1B21571  26.247   9.698   8.553
 6507POPC   C2B21572  26.298   9.740   8.253
 6507POPC   C3B21573  26.278   9.673   7.953
 6507POPC   C4B21574  26.315   9.739   7.653
 6508POPC   NC321575  43.909   1.218   9.453
 6508POPC   PO421576  43.905   1.211   9.153
 6508POPC   GL121577  43.878   1.236   8.853
 6508POPC   GL221578  43.784   1.224   8.853
 6508POPC   C1A21579  43.843   1.262   8.553
 6508POPC   D2A21580  43.840   1.242   8.253
 6508POPC   C3A21581  43.919   1.219   7.953
 6508POPC   C4A21582  43.928   1.179   7.653
 6508POPC   C1B21583  43.608   1.232   8.553
 6508POPC   C2B21584  43.592   1.172   8.253
 6508POPC   C3B21585  43.666   1.219   7.953
 6508POPC   C4B21586  43.665   1.264   7.653
 6509POPC   NC321587  38.425  35.350   9.453
 6509POPC   PO421588  38.502  35.327   9.153
 6509POPC   GL121589  38.467  35.399   8.853
 6509POPC   GL221590  38.294  35.332   8.853
 6509POPC   C1A21591  38.449  35.385   8.553
 6509POPC   D2A21592  38.438  35.327   8.253
 6509POPC   C3A21593  38.480  35.382   7.953
 6509POPC   C4A21594  38.421  35.348   7.653
 6509POPC   C1B21595  38.202  35.195   8.553
 6509POPC   C2B21596  38.232  35.267   8.253
 6509POPC   C3B21597  38.243  35.200   7.953
 6509POPC   C4B21598  38.208  35.193   7.653
 6510POPC   NC321599  30.716  38.409   9.453
 6510POPC   PO421600  30.688  38.435   9.153
 6510POPC   GL121601  30.730  38.477   8.853
 6510POPC   GL221602  30.760  38.512   8.853
 6510POPC   C1A21603  30.667  38.448   8.553
 6510POPC   D2A21604  30.665  38.409   8.253
 6510POPC   C3A21605  30.649  38.426   7.953
 6510POPC   C4A21606  30.687  38.447   7.653
 6510POPC   C1B21607  30.950  38.612   8.553
 6510POPC   C2B21608  30.908  38.562   8.253
 6510POPC   C3B21609  30.858  38.598   7.953
 6510POPC   C4B21610  30.920  38.567   7.653
 6511POPC   NC321611  36.887  36.859   9.453
 6511POPC   PO421612  36.858  36.878   9.153
 6511POPC   GL121613  36.854  36.938   8.853
 6511POPC   GL221614  36.734  36.934   8.853
 6511POPC   C1A21615  36.909  36.878   8.553
 6511POPC   D2A21616  36.877  36.941   8.253
 6511POPC   C3A21617  36.949  36.888   7.953
 6511POPC   C4A21618  36.895  36.865   7.653
 6511POPC   C1B21619  36.642  36.868   8.553
 6511POPC   C2B21620  36.632  36.887   8.253
 6511POPC   C3B21621  36.691  36.900   7.953
 6511POPC   C4B21622  36.608  36.899   7.653
 6512POPC   NC321623  43.883  31.491   9.453
 6512POPC   PO421624  43.840  31.425   9.153
 6512POPC   GL121625  43.936  31.471   8.853
 6512POPC   GL221626  43.762  31.501   8.853
 6512POPC   C1A21627  43.867  31.461   8.553
 6512POPC   D2A21628  43.891  31.514   8.253
 6512POPC   C3A21629  43.921  31.423   7.953
 6512POPC   C4A21630  43.844  31.480   7.653
 6512POPC   C1B21631  43.678  31.496   8.553
 6512POPC   C2B21632  43.601  31.447   8.253
 6512POPC   C3B21633  43.619  31.469   7.953
 6512POPC   C4B21634  43.654  31.501   7.653
 6513POPC   NC321635  25.247  44.660   9.453
 6513POPC   PO421636  25.237  44.668   9.153
 6513POPC   GL121637  25.291  44.665   8.853
 6513POPC   GL221638  25.198  44.736   8.853
 6513POPC   C1A21639  25.305  44.659   8.553
 6513POPC   D2A21640  25.223  44.652   8.253
 6513POPC   C3A21641  25.311  44.669   7.953
 6513POPC   C4A21642  25.290  44.699   7.653
 6513POPC   C1B21643  25.197  44.861   8.553
 6513POPC   C2B21644  25.247  44.928   8.253
 6513POPC   C3B21645  25.264  44.949   7.953
 6513POPC   C4B21646  25.263  44.922   7.653
 6514POPC   NC321647  32.265  37.668   9.453
 6514POPC   PO421648  32.216  37.654   9.153
 6514POPC   GL121649  32.252  37.645   8.853
 6514POPC   GL221650  32.126  37.708   8.853
 6514POPC   C1A21651  32.288  37.670   8.553
 6514POPC   D2A21652  32.215  37.648   8.253
 6514POPC   C3A21653  32.267  37.671   7.953
 6514POPC   C4A21654  32.281  37.708   7.653
 6514POPC   C1B21655  31.961  37.791   8.553
 6514POPC   C2B21656  32.002  37.755   8.253
 6514POPC   C3B21657  32.015  37.711   7.953
 6514POPC   C4B21658  32.010  37.766   7.653
 6515POPC   NC321659   5.067   1.221   9.453
 6515POPC   PO421660   5.107   1.200   9.153
 6515POPC   GL121661   5.078   1.198   8.853
 6515POPC   GL221662   5.178   1.156   8.853
 6515POPC   C1A21663   5.084   1.227   8.553
 6515POPC   D2A21664   5.063   1.180   8.253
 6515POPC   C3A21665   5.089   1.218   7.953
 6515POPC   C4A21666   5.110   1.224   7.653
 6515POPC   C1B21667   5.337   1.053   8.553
 6515POPC   C2B21668   5.310   1.087   8.253
 6515POPC   C3B21669   5.359   1.073   7.953
 6515POPC   C4B21670   5.262   1.069   7.653
 6516POPC   NC321671  19.014  43.878   9.453
 6516POPC   PO421672  19.011  43.863   9.153
 6516POPC   GL121673  19.105  43.889   8.853
 6516POPC   GL221674  19.224  43.905   8.853
 6516POPC   C1A21675  19.009  43.876   8.553
 6516POPC   D2A21676  19.093  43.847   8.253
 6516POPC   C3A21677  19.078  43.863   7.953
 6516POPC   C4A21678  19.031  43.871   7.653
 6516POPC   C1B21679  19.301  43.911   8.553
 6516POPC   C2B21680  19.304  43.879   8.253
 6516POPC   C3B21681  19.333  43.948   7.953
 6516POPC   C4B21682  19.345  43.885   7.653
 6517POPC   NC321683   0.410  19.010   9.453
 6517POPC   PO421684   0.400  19.078   9.153
 6517POPC   GL121685   0.461  19.084   8.853
 6517POPC   GL221686   0.448  19.230   8.853
 6517POPC   C1A21687   0.470  19.056   8.553
 6517POPC   D2A21688   0.413  19.075   8.253
 6517POPC   C3A21689   0.401  19.055   7.953
 6517POPC   C4A21690   0.388  19.031   7.653
 6517POPC   C1B21691   0.489  19.296   8.553
 6517POPC   C2B21692   0.434  19.304   8.253
 6517POPC   C3B21693   0.463  19.328   7.953
 6517POPC   C4B21694   0.519  19.355   7.653
 6518POPC   NC321695  42.333  26.799   9.453
 6518POPC   PO421696  42.330  26.839   9.153
 6518POPC   GL121697  42.287  26.845   8.853
 6518POPC   GL221698  42.339  26.652   8.853
 6518POPC   C1A21699  42.299  26.817   8.553
 6518POPC   D2A21700  42.288  26.853   8.253
 6518POPC   C3A21701  42.316  26.813   7.953
 6518POPC   C4A21702  42.382  26.820   7.653
 6518POPC   C1B21703  42.317  26.595   8.553
 6518POPC   C2B21704  42.347  26.577   8.253
 6518POPC   C3B21705  42.351  26.568   7.953
 6518POPC   C4B21706  42.318  26.541   7.653
 6519POPC   NC321707  29.125  31.451   9.453
 6519POPC   PO421708  29.171  31.519   9.153
 6519POPC   GL121709  29.148  31.470   8.853
 6519POPC   GL221710  29.102  31.556   8.853
 6519POPC   C1A21711  29.183  31.463   8.553
 6519POPC   D2A21712  29.101  31.502   8.253
 6519POPC   C3A21713  29.153  31.465   7.953
 6519POPC   C4A21714  29.190  31.520   7.653
 6519POPC   C1B21715  29.130  31.739   8.553
 6519POPC   C2B21716  29.090  31.719   8.253
 6519POPC   C3B21717  29.097  31.681   7.953
 6519POPC   C4B21718  29.087  31.723   7.653
 6520POPC   NC321719  34.593  42.301   9.453
 6520POPC   PO421720  34.600  42.372   9.153
 6520POPC   GL121721  34.547  42.348   8.853
 6520POPC   GL221722  34.645  42.193   8.853
 6520POPC   C1A21723  34.565  42.336   8.553
 6520POPC   D2A21724  34.544  42.315   8.253
 6520POPC   C3A21725  34.597  42.300   7.953
 6520POPC   C4A21726  34.530  42.375   7.653
 6520POPC   C1B21727  34.709  42.155   8.553
 6520POPC   C2B21728  34.666  42.139   8.253
 6520POPC   C3B21729  34.665  42.118   7.953
 6520POPC   C4B21730  34.727  42.128   7.653
 6521POPC   NC321731   9.716  40.000   9.453
 6521POPC   PO421732   9.789  40.032   9.153
 6521POPC   GL121733   9.712  40.016   8.853
 6521POPC   GL221734   9.581  40.054   8.853
 6521POPC   C1A21735   9.789  40.000   8.553
 6521POPC   D2A21736   9.769  39.979   8.253
 6521POPC   C3A21737   9.793  40.035   7.953
 6521POPC   C4A21738   9.769  40.028   7.653
 6521POPC   C1B21739   9.516  40.015   8.553
 6521POPC   C2B21740   9.490  39.963   8.253
 6521POPC   C3B21741   9.532  40.002   7.953
 6521POPC   C4B21742   9.515  40.001   7.653
 6522POPC   NC321743  40.055   4.347   9.453
 6522POPC   PO421744  39.999   4.320   9.153
 6522POPC   GL121745  40.006   4.344   8.853
 6522POPC   GL221746  39.922   4.288   8.853
 6522POPC   C1A21747  39.994   4.356   8.553
 6522POPC   D2A21748  40.033   4.301   8.253
 6522POPC   C3A21749  40.021   4.349   7.953
 6522POPC   C4A21750  40.007   4.275   7.653
 6522POPC   C1B21751  39.751   4.354   8.553
 6522POPC   C2B21752  39.768   4.300   8.253
 6522POPC   C3B21753  39.718   4.296   7.953
 6522POPC   C4B21754  39.785   4.394   7.653
 6523POPC   NC321755  23.759  17.556   9.453
 6523POPC   PO421756  23.757  17.523   9.153
 6523POPC   GL121757  23.699  17.538   8.853
 6523POPC   GL221758  23.838  17.575   8.853
 6523POPC   C1A21759  23.724  17.544   8.553
 6523POPC   D2A21760  23.744  17.534   8.253
 6523POPC   C3A21761  23.728  17.499   7.953
 6523POPC   C4A21762  23.737  17.472   7.653
 6523POPC   C1B21763  23.918  17.677   8.553
 6523POPC   C2B21764  23.845  17.723   8.253
 6523POPC   C3B21765  23.929  17.715   7.953
 6523POPC   C4B21766  23.845  17.663   7.653
 6524POPC   NC321767   1.970  27.570   9.453
 6524POPC   PO421768   2.035  27.596   9.153
 6524POPC   GL121769   2.023  27.574   8.853
 6524POPC   GL221770   1.934  27.536   8.853
 6524POPC   C1A21771   1.997  27.558   8.553
 6524POPC   D2A21772   1.999  27.631   8.253
 6524POPC   C3A21773   1.999  27.578   7.953
 6524POPC   C4A21774   1.982  27.568   7.653
 6524POPC   C1B21775   1.800  27.390   8.553
 6524POPC   C2B21776   1.837  27.356   8.253
 6524POPC   C3B21777   1.836  27.436   7.953
 6524POPC   C4B21778   1.890  27.426   7.653
 6525POPC   NC321779  20.644  25.995   9.453
 6525POPC   PO421780  20.640  26.083   9.153
 6525POPC   GL121781  20.625  26.028   8.853
 6525POPC   GL221782  20.540  25.900   8.853
 6525POPC   C1A21783  20.564  26.002   8.553
 6525POPC   D2A21784  20.570  26.025   8.253
 6525POPC   C3A21785  20.623  26.041   7.953
 6525POPC   C4A21786  20.582  26.030   7.653
 6525POPC   C1B21787  20.458  25.904   8.553
 6525POPC   C2B21788  20.430  25.857   8.253
 6525POPC   C3B21789  20.488  25.821   7.953
 6525POPC   C4B21790  20.404  25.822   7.653
 6526POPC   NC321791  42.330  18.254   9.453
 6526POPC   PO421792  42.285  18.296   9.153
 6526POPC   GL121793  42.380  18.239   8.853
 6526POPC   GL221794  42.466  18.178   8.853
 6526POPC   C1A21795  42.314  18.255   8.553
 6526POPC   D2A21796  42.364  18.314   8.253
 6526POPC   C3A21797  42.376  18.325   7.953
 6526POPC   C4A21798  42.323  18.248   7.653
 6526POPC   C1B21799  42.479  18.113   8.553
 6526POPC   C2B21800  42.545  18.073   8.253
 6526POPC   C3B21801  42.531  18.065   7.953
 6526POPC   C4B21802  42.525  18.060   7.653
 6527POPC   NC321803  16.774  28.406   9.453
 6527POPC   PO421804  16.780  28.356   9.153
 6527POPC   GL121805  16.751  28.342   8.853
 6527POPC   GL221806  16.800  28.466   8.853
 6527POPC   C1A21807  16.729  28.396   8.553
 6527POPC   D2A21808  16.693  28.383   8.253
 6527POPC   C3A21809  16.767  28.323   7.953
 6527POPC   C4A21810  16.755  28.376   7.653
 6527POPC   C1B21811  16.910  28.571   8.553
 6527POPC   C2B21812  16.953  28.497   8.253
 6527POPC   C3B21813  16.911  28.538   7.953
 6527POPC   C4B21814  16.960  28.546   7.653
 6528POPC   NC321815  36.099  10.510   9.453
 6528POPC   PO421816  36.131  10.573   9.153
 6528POPC   GL121817  36.078  10.498   8.853
 6528POPC   GL221818  36.077  10.666   8.853
 6528POPC   C1A21819  36.131  10.559   8.553
 6528POPC   D2A21820  36.163  10.548   8.253
 6528POPC   C3A21821  36.173  10.543   7.953
 6528POPC   C4A21822  36.147  10.572   7.653
 6528POPC   C1B21823  35.996  10.676   8.553
 6528POPC   C2B21824  35.917  10.714   8.253
 6528POPC   C3B21825  35.921  10.726   7.953
 6528POPC   C4B21826  36.003  10.713   7.653
 6529POPC   NC321827   3.509  38.436   9.453
 6529POPC   PO421828   3.544  38.471   9.153
 6529POPC   GL121829   3.562  38.456   8.853
 6529POPC   GL221830   3.525  38.555   8.853
 6529POPC   C1A21831   3.557  38.421   8.553
 6529POPC   D2A21832   3.508  38.413   8.253
 6529POPC   C3A21833   3.531  38.406   7.953
 6529POPC   C4A21834   3.492  38.427   7.653
 6529POPC   C1B21835   3.529  38.678   8.553
 6529POPC   C2B21836   3.472  38.732   8.253
 6529POPC   C3B21837   3.514  38.694   7.953
 6529POPC   C4B21838   3.458  38.652   7.653
 6530POPC   NC321839  39.243  34.581   9.453
 6530POPC   PO421840  39.193  34.572   9.153
 6530POPC   GL121841  39.267  34.617   8.853
 6530POPC   GL221842  39.268  34.473   8.853
 6530POPC   C1A21843  39.260  34.605   8.553
 6530POPC   D2A21844  39.184  34.586   8.253
 6530POPC   C3A21845  39.263  34.608   7.953
 6530POPC   C4A21846  39.251  34.619   7.653
 6530POPC   C1B21847  39.271  34.340   8.553
 6530POPC   C2B21848  39.310  34.362   8.253
 6530POPC   C3B21849  39.329  34.353   7.953
 6530POPC   C4B21850  39.315  34.350   7.653
 6531POPC   NC321851   2.791  22.189   9.453
 6531POPC   PO421852   2.746  22.117   9.153
 6531POPC   GL121853   2.789  22.133   8.853
 6531POPC   GL221854   2.727  22.308   8.853
 6531POPC   C1A21855   2.790  22.207   8.553
 6531POPC   D2A21856   2.743  22.136   8.253
 6531POPC   C3A21857   2.767  22.143   7.953
 6531POPC   C4A21858   2.794  22.143   7.653
 6531POPC   C1B21859   2.790  22.396   8.553
 6531POPC   C2B21860   2.712  22.402   8.253
 6531POPC   C3B21861   2.734  22.377   7.953
 6531POPC   C4B21862   2.739  22.366   7.653
 6532POPC   NC321863  22.899  12.040   9.453
 6532POPC   PO421864  22.983  12.057   9.153
 6532POPC   GL121865  22.967  12.050   8.853
 6532POPC   GL221866  22.981  11.998   8.853
 6532POPC   C1A21867  22.945  12.101   8.553
 6532POPC   D2A21868  22.960  12.055   8.253
 6532POPC   C3A21869  22.897  12.072   7.953
 6532POPC   C4A21870  22.980  12.107   7.653
 6532POPC   C1B21871  23.131  11.895   8.553
 6532POPC   C2B21872  23.140  11.896   8.253
 6532POPC   C3B21873  23.060  11.895   7.953
 6532POPC   C4B21874  23.121  11.867   7.653
 6533POPC   NC321875  36.932  15.914   9.453
 6533POPC   PO421876  36.887  15.961   9.153
 6533POPC   GL121877  36.907  15.977   8.853
 6533POPC   GL221878  36.743  15.979   8.853
 6533POPC   C1A21879  36.910  15.910   8.553
 6533POPC   D2A21880  36.945  15.953   8.253
 6533POPC   C3A21881  36.926  15.932   7.953
 6533POPC   C4A21882  36.863  15.962   7.653
 6533POPC   C1B21883  36.663  16.027   8.553
 6533POPC   C2B21884  36.665  16.061   8.253
 6533POPC   C3B21885  36.626  16.082   7.953
 6533POPC   C4B21886  36.664  15.998   7.653
 6534POPC   NC321887   2.782  13.671   9.453
 6534POPC   PO421888   2.780  13.676   9.153
 6534POPC   GL121889   2.726  13.625   8.853
 6534POPC   GL221890   2.807  13.729   8.853
 6534POPC   C1A21891   2.728  13.642   8.553
 6534POPC   D2A21892   2.741  13.654   8.253
 6534POPC   C3A21893   2.767  13.672   7.953
 6534POPC   C4A21894   2.716  13.675   7.653
 6534POPC   C1B21895   2.855  13.816   8.553
 6534POPC   C2B21896   2.842  13.889   8.253
 6534POPC   C3B21897   2.845  13.808   7.953
 6534POPC   C4B21898   2.875  13.848   7.653
 6535POPC   NC321899  31.467  38.483   9.453
 6535POPC   PO421900  31.455  38.472   9.153
 6535POPC   GL121901  31.503  38.460   8.853
 6535POPC   GL221902  31.490  38.323   8.853
 6535POPC   C1A21903  31.467  38.481   8.553
 6535POPC   D2A21904  31.470  38.422   8.253
 6535POPC   C3A21905  31.480  38.414   7.953
 6535POPC   C4A21906  31.487  38.467   7.653
 6535POPC   C1B21907  31.487  38.177   8.553
 6535POPC   C2B21908  31.505  38.212   8.253
 6535POPC   C3B21909  31.528  38.226   7.953
 6535POPC   C4B21910  31.501  38.245   7.653
 6536POPC   NC321911   8.973  19.080   9.453
 6536POPC   PO421912   8.997  19.051   9.153
 6536POPC   GL121913   9.000  19.092   8.853
 6536POPC   GL221914   8.950  18.919   8.853
 6536POPC   C1A21915   8.927  19.037   8.553
 6536POPC   D2A21916   8.951  19.095   8.253
 6536POPC   C3A21917   8.949  19.063   7.953
 6536POPC   C4A21918   8.933  19.091   7.653
 6536POPC   C1B21919   8.925  18.842   8.553
 6536POPC   C2B21920   8.930  18.819   8.253
 6536POPC   C3B21921   8.934  18.807   7.953
 6536POPC   C4B21922   8.895  18.865   7.653
 6537POPC   NC321923  27.543  32.202   9.453
 6537POPC   PO421924  27.582  32.210   9.153
 6537POPC   GL121925  27.580  32.207   8.853
 6537POPC   GL221926  27.518  32.215   8.853
 6537POPC   C1A21927  27.640  32.274   8.553
 6537POPC   D2A21928  27.629  32.268   8.253
 6537POPC   C3A21929  27.606  32.214   7.953
 6537POPC   C4A21930  27.553  32.219   7.653
 6537POPC   C1B21931  27.354  32.101   8.553
 6537POPC   C2B21932  27.395  32.111   8.253
 6537POPC   C3B21933  27.390  32.084   7.953
 6537POPC   C4B21934  27.408  32.135   7.653
 6538POPC   NC321935   8.215  35.344   9.453
 6538POPC   PO421936   8.196  35.361   9.153
 6538POPC   GL121937   8.245  35.324   8.853
 6538POPC   GL221938   8.368  35.375   8.853
 6538POPC   C1A21939   8.152  35.311   8.553
 6538POPC   D2A21940   8.226  35.354   8.253
 6538POPC   C3A21941   8.184  35.368   7.953
 6538POPC   C4A21942   8.172  35.353   7.653
 6538POPC   C1B21943   8.490  35.443   8.553
 6538POPC   C2B21944   8.463  35.362   8.253
 6538POPC   C3B21945   8.418  35.439   7.953
 6538POPC   C4B21946   8.425  35.363   7.653
 6539POPC   NC321947  12.103  43.143   9.453
 6539POPC   PO421948  12.107  43.075   9.153
 6539POPC   GL121949  12.049  43.132   8.853
 6539POPC   GL221950  11.991  43.036   8.853
 6539POPC   C1A21951  12.039  43.137   8.553
 6539POPC   D2A21952  12.093  43.074   8.253
 6539POPC   C3A21953  12.098  43.157   7.953
 6539POPC   C4A21954  12.091  43.111   7.653
 6539POPC   C1B21955  11.987  42.926   8.553
 6539POPC   C2B21956  12.029  42.897   8.253
 6539POPC   C3B21957  11.981  42.897   7.953
 6539POPC   C4B21958  11.956  42.832   7.653
 6540POPC   NC321959  43.912  34.536   9.453
 6540POPC   PO421960  43.913  34.533   9.153
 6540POPC   GL121961  43.873  34.601   8.853
 6540POPC   GL221962  44.000  34.539   8.853
 6540POPC   C1A21963  43.918  34.617   8.553
 6540POPC   D2A21964  43.845  34.604   8.253
 6540POPC   C3A21965  43.853  34.577   7.953
 6540POPC   C4A21966  43.891  34.609   7.653
 6540POPC   C1B21967  44.077  34.427   8.553
 6540POPC   C2B21968  44.140  34.420   8.253
 6540POPC   C3B21969  44.066  34.434   7.953
 6540POPC   C4B21970  44.129  34.409   7.653
 6541POPC   NC321971   2.741  34.531   9.453
 6541POPC   PO421972   2.746  34.594   9.153
 6541POPC   GL121973   2.734  34.606   8.853
 6541POPC   GL221974   2.697  34.417   8.853
 6541POPC   C1A21975   2.727  34.596   8.553
 6541POPC   D2A21976   2.716  34.554   8.253
 6541POPC   C3A21977   2.802  34.532   7.953
 6541POPC   C4A21978   2.720  34.617   7.653
 6541POPC   C1B21979   2.683  34.347   8.553
 6541POPC   C2B21980   2.681  34.307   8.253
 6541POPC   C3B21981   2.685  34.383   7.953
 6541POPC   C4B21982   2.662  34.368   7.653
 6542POPC   NC321983  15.927  28.368   9.453
 6542POPC   PO421984  15.986  28.418   9.153
 6542POPC   GL121985  15.906  28.386   8.853
 6542POPC   GL221986  15.885  28.327   8.853
 6542POPC   C1A21987  16.002  28.412   8.553
 6542POPC   D2A21988  15.931  28.402   8.253
 6542POPC   C3A21989  15.950  28.348   7.953
 6542POPC   C4A21990  15.979  28.322   7.653
 6542POPC   C1B21991  15.798  28.184   8.553
 6542POPC   C2B21992  15.716  28.170   8.253
 6542POPC   C3B21993  15.720  28.174   7.953
 6542POPC   C4B21994  15.796  28.189   7.653
 6543POPC   NC321995   2.015  33.001   9.453
 6543POPC   PO421996   2.024  32.978   9.153
 6543POPC   GL121997   1.960  33.045   8.853
 6543POPC   GL221998   2.080  32.936   8.853
 6543POPC   C1A21999   2.014  33.013   8.553
 6543POPC   D2A22000   2.001  32.989   8.253
 6543POPC   C3A22001   1.973  33.055   7.953
 6543POPC   C4A22002   2.001  33.037   7.653
 6543POPC   C1B22003   2.176  32.877   8.553
 6543POPC   C2B22004   2.190  32.907   8.253
 6543POPC   C3B22005   2.225  32.827   7.953
 6543POPC   C4B22006   2.207  32.898   7.653
 6544POPC   NC322007  15.964  18.266   9.453
 6544POPC   PO422008  15.961  18.272   9.153
 6544POPC   GL122009  15.909  18.263   8.853
 6544POPC   GL222010  15.912  18.412   8.853
 6544POPC   C1A22011  15.977  18.297   8.553
 6544POPC   D2A22012  15.984  18.256   8.253
 6544POPC   C3A22013  15.925  18.317   7.953
 6544POPC   C4A22014  15.959  18.251   7.653
 6544POPC   C1B22015  15.751  18.456   8.553
 6544POPC   C2B22016  15.741  18.473   8.253
 6544POPC   C3B22017  15.754  18.433   7.953
 6544POPC   C4B22018  15.827  18.464   7.653
 6545POPC   NC322019   7.380  24.484   9.453
 6545POPC   PO422020   7.399  24.519   9.153
 6545POPC   GL122021   7.470  24.481   8.853
 6545POPC   GL222022   7.432  24.327   8.853
 6545POPC   C1A22023   7.413  24.482   8.553
 6545POPC   D2A22024   7.453  24.456   8.253
 6545POPC   C3A22025   7.399  24.499   7.953
 6545POPC   C4A22026   7.462  24.534   7.653
 6545POPC   C1B22027   7.351  24.200   8.553
 6545POPC   C2B22028   7.408  24.219   8.253
 6545POPC   C3B22029   7.351  24.254   7.953
 6545POPC   C4B22030   7.326  24.249   7.653
 6546POPC   NC322031   7.420  26.854   9.453
 6546POPC   PO422032   7.403  26.831   9.153
 6546POPC   GL122033   7.406  26.832   8.853
 6546POPC   GL222034   7.522  26.699   8.853
 6546POPC   C1A22035   7.409  26.839   8.553
 6546POPC   D2A22036   7.381  26.773   8.253
 6546POPC   C3A22037   7.461  26.851   7.953
 6546POPC   C4A22038   7.463  26.792   7.653
 6546POPC   C1B22039   7.537  26.601   8.553
 6546POPC   C2B22040   7.533  26.606   8.253
 6546POPC   C3B22041   7.539  26.632   7.953
 6546POPC   C4B22042   7.599  26.615   7.653
 6547POPC   NC322043  33.757  15.132   9.453
 6547POPC   PO422044  33.805  15.145   9.153
 6547POPC   GL122045  33.820  15.205   8.853
 6547POPC   GL222046  33.768  15.346   8.853
 6547POPC   C1A22047  33.826  15.134   8.553
 6547POPC   D2A22048  33.847  15.219   8.253
 6547POPC   C3A22049  33.834  15.145   7.953
 6547POPC   C4A22050  33.796  15.210   7.653
 6547POPC   C1B22051  33.784  15.422   8.553
 6547POPC   C2B22052  33.777  15.473   8.253
 6547POPC   C3B22053  33.788  15.417   7.953
 6547POPC   C4B22054  33.807  15.396   7.653
 6548POPC   NC322055   1.197  35.336   9.453
 6548POPC   PO422056   1.198  35.387   9.153
 6548POPC   GL122057   1.246  35.386   8.853
 6548POPC   GL222058   1.257  35.249   8.853
 6548POPC   C1A22059   1.194  35.344   8.553
 6548POPC   D2A22060   1.255  35.327   8.253
 6548POPC   C3A22061   1.205  35.313   7.953
 6548POPC   C4A22062   1.182  35.364   7.653
 6548POPC   C1B22063   1.300  35.082   8.553
 6548POPC   C2B22064   1.253  35.073   8.253
 6548POPC   C3B22065   1.283  35.142   7.953
 6548POPC   C4B22066   1.264  35.094   7.653
 6549POPC   NC322067  39.217  40.806   9.453
 6549POPC   PO422068  39.194  40.811   9.153
 6549POPC   GL122069  39.228  40.737   8.853
 6549POPC   GL222070  39.109  40.818   8.853
 6549POPC   C1A22071  39.189  40.810   8.553
 6549POPC   D2A22072  39.255  40.766   8.253
 6549POPC   C3A22073  39.258  40.775   7.953
 6549POPC   C4A22074  39.193  40.739   7.653
 6549POPC   C1B22075  38.978  40.842   8.553
 6549POPC   C2B22076  39.006  40.806   8.253
 6549POPC   C3B22077  38.999  40.800   7.953
 6549POPC   C4B22078  38.982  40.759   7.653
 6550POPC   NC322079  15.168  34.571   9.453
 6550POPC   PO422080  15.182  34.546   9.153
 6550POPC   GL122081  15.182  34.617   8.853
 6550POPC   GL222082  15.043  34.634   8.853
 6550POPC   C1A22083  15.170  34.617   8.553
 6550POPC   D2A22084  15.228  34.545   8.253
 6550POPC   C3A22085  15.214  34.540   7.953
 6550POPC   C4A22086  15.134  34.588   7.653
 6550POPC   C1B22087  14.980  34.718   8.553
 6550POPC   C2B22088  14.950  34.731   8.253
 6550POPC   C3B22089  14.933  34.673   7.953
 6550POPC   C4B22090  14.965  34.646   7.653
 6551POPC   NC322091  24.539  35.329   9.453
 6551POPC   PO422092  24.469  35.307   9.153
 6551POPC   GL122093  24.460  35.386   8.853
 6551POPC   GL222094  24.552  35.434   8.853
 6551POPC   C1A22095  24.481  35.400   8.553
 6551POPC   D2A22096  24.448  35.333   8.253
 6551POPC   C3A22097  24.491  35.356   7.953
 6551POPC   C4A22098  24.476  35.348   7.653
 6551POPC   C1B22099  24.578  35.580   8.553
 6551POPC   C2B22100  24.572  35.547   8.253
 6551POPC   C3B22101  24.536  35.557   7.953
 6551POPC   C4B22102  24.585  35.582   7.653
 6552POPC   NC322103  16.773  40.799   9.453
 6552POPC   PO422104  16.765  40.743   9.153
 6552POPC   GL122105  16.691  40.744   8.853
 6552POPC   GL222106  16.601  40.742   8.853
 6552POPC   C1A22107  16.689  40.796   8.553
 6552POPC   D2A22108  16.729  40.746   8.253
 6552POPC   C3A22109  16.746  40.769   7.953
 6552POPC   C4A22110  16.738  40.779   7.653
 6552POPC   C1B22111  16.603  40.557   8.553
 6552POPC   C2B22112  16.565  40.606   8.253
 6552POPC   C3B22113  16.606  40.566   7.953
 6552POPC   C4B22114  16.548  40.558   7.653
 6553POPC   NC322115  25.266  12.821   9.453
 6553POPC   PO422116  25.237  12.825   9.153
 6553POPC   GL122117  25.230  12.804   8.853
 6553POPC   GL222118  25.176  12.790   8.853
 6553POPC   C1A22119  25.269  12.834   8.553
 6553POPC   D2A22120  25.232  12.870   8.253
 6553POPC   C3A22121  25.218  12.835   7.953
 6553POPC   C4A22122  25.258  12.901   7.653
 6553POPC   C1B22123  25.157  12.691   8.553
 6553POPC   C2B22124  25.159  12.631   8.253
 6553POPC   C3B22125  25.148  12.691   7.953
 6553POPC   C4B22126  25.163  12.681   7.653
 6554POPC   NC322127  33.757  36.872   9.453
 6554POPC   PO422128  33.838  36.949   9.153
 6554POPC   GL122129  33.764  36.906   8.853
 6554POPC   GL222130  33.912  36.846   8.853
 6554POPC   C1A22131  33.845  36.938   8.553
 6554POPC   D2A22132  33.787  36.871   8.253
 6554POPC   C3A22133  33.780  36.912   7.953
 6554POPC   C4A22134  33.772  36.923   7.653
 6554POPC   C1B22135  33.964  36.700   8.553
 6554POPC   C2B22136  33.937  36.683   8.253
 6554POPC   C3B22137  33.927  36.654   7.953
 6554POPC   C4B22138  33.960  36.710   7.653
 6555POPC   NC322139   9.742  39.243   9.453
 6555POPC   PO422140   9.781  39.212   9.153
 6555POPC   GL122141   9.699  39.243   8.853
 6555POPC   GL222142   9.705  39.078   8.853
 6555POPC   C1A22143   9.739  39.192   8.553
 6555POPC   D2A22144   9.738  39.211   8.253
 6555POPC   C3A22145   9.720  39.274   7.953
 6555POPC   C4A22146   9.760  39.269   7.653
 6555POPC   C1B22147   9.591  39.002   8.553
 6555POPC   C2B22148   9.642  39.018   8.253
 6555POPC   C3B22149   9.635  38.981   7.953
 6555POPC   C4B22150   9.637  39.013   7.653
 6556POPC   NC322151   2.006  23.751   9.453
 6556POPC   PO422152   1.969  23.673   9.153
 6556POPC   GL122153   2.019  23.686   8.853
 6556POPC   GL222154   1.855  23.635   8.853
 6556POPC   C1A22155   2.025  23.749   8.553
 6556POPC   D2A22156   2.007  23.723   8.253
 6556POPC   C3A22157   2.033  23.673   7.953
 6556POPC   C4A22158   1.964  23.701   7.653
 6556POPC   C1B22159   1.768  23.593   8.553
 6556POPC   C2B22160   1.783  23.591   8.253
 6556POPC   C3B22161   1.758  23.575   7.953
 6556POPC   C4B22162   1.728  23.562   7.653
 6557POPC   NC322163   1.239  39.240   9.453
 6557POPC   PO422164   1.204  39.220   9.153
 6557POPC   GL122165   1.248  39.256   8.853
 6557POPC   GL222166   1.113  39.341   8.853
 6557POPC   C1A22167   1.181  39.260   8.553
 6557POPC   D2A22168   1.228  39.242   8.253
 6557POPC   C3A22169   1.199  39.253   7.953
 6557POPC   C4A22170   1.254  39.184   7.653
 6557POPC   C1B22171   1.044  39.388   8.553
 6557POPC   C2B22172   1.107  39.436   8.253
 6557POPC   C3B22173   1.065  39.451   7.953
 6557POPC   C4B22174   1.096  39.425   7.653
 6558POPC   NC322175  13.632  19.080   9.453
 6558POPC   PO422176  13.611  19.050   9.153
 6558POPC   GL122177  13.612  19.059   8.853
 6558POPC   GL222178  13.605  18.942   8.853
 6558POPC   C1A22179  13.658  19.095   8.553
 6558POPC   D2A22180  13.612  19.077   8.253
 6558POPC   C3A22181  13.618  19.019   7.953
 6558POPC   C4A22182  13.610  19.030   7.653
 6558POPC   C1B22183  13.657  18.773   8.553
 6558POPC   C2B22184  13.645  18.783   8.253
 6558POPC   C3B22185  13.614  18.788   7.953
 6558POPC   C4B22186  13.623  18.789   7.653
 6559POPC   NC322187  35.322  42.299   9.453
 6559POPC   PO422188  35.327  42.374   9.153
 6559POPC   GL122189  35.319  42.295   8.853
 6559POPC   GL222190  35.420  42.207   8.853
 6559POPC   C1A22191  35.372  42.291   8.553
 6559POPC   D2A22192  35.345  42.286   8.253
 6559POPC   C3A22193  35.305  42.355   7.953
 6559POPC   C4A22194  35.337  42.364   7.653
 6559POPC   C1B22195  35.420  42.077   8.553
 6559POPC   C2B22196  35.450  42.085   8.253
 6559POPC   C3B22197  35.382  42.048   7.953
 6559POPC   C4B22198  35.385  42.053   7.653
 6560POPC   NC322199  19.785   8.967   9.453
 6560POPC   PO422200  19.817   8.997   9.153
 6560POPC   GL122201  19.878   9.015   8.853
 6560POPC   GL222202  19.973   8.979   8.853
 6560POPC   C1A22203  19.805   8.989   8.553
 6560POPC   D2A22204  19.821   8.979   8.253
 6560POPC   C3A22205  19.852   8.934   7.953
 6560POPC   C4A22206  19.846   8.954   7.653
 6560POPC   C1B22207  20.051   9.010   8.553
 6560POPC   C2B22208  20.062   8.983   8.253
 6560POPC   C3B22209  20.102   8.992   7.953
 6560POPC   C4B22210  20.097   9.022   7.653
 6561POPC   NC322211   4.357   5.839   9.453
 6561POPC   PO422212   4.304   5.893   9.153
 6561POPC   GL122213   4.270   5.866   8.853
 6561POPC   GL222214   4.245   5.889   8.853
 6561POPC   C1A22215   4.356   5.849   8.553
 6561POPC   D2A22216   4.319   5.895   8.253
 6561POPC   C3A22217   4.344   5.898   7.953
 6561POPC   C4A22218   4.340   5.877   7.653
 6561POPC   C1B22219   4.130   5.960   8.553
 6561POPC   C2B22220   4.105   6.024   8.253
 6561POPC   C3B22221   4.104   6.031   7.953
 6561POPC   C4B22222   4.109   6.009   7.653
 6562POPC   NC322223  21.364   0.410   9.453
 6562POPC   PO422224  21.337   0.419   9.153
 6562POPC   GL122225  21.410   0.448   8.853
 6562POPC   GL222226  21.259   0.393   8.853
 6562POPC   C1A22227  21.402   0.440   8.553
 6562POPC   D2A22228  21.414   0.442   8.253
 6562POPC   C3A22229  21.350   0.471   7.953
 6562POPC   C4A22230  21.435   0.460   7.653
 6562POPC   C1B22231  21.125   0.436   8.553
 6562POPC   C2B22232  21.122   0.456   8.253
 6562POPC   C3B22233  21.178   0.447   7.953
 6562POPC   C4B22234  21.153   0.406   7.653
 6563POPC   NC322235   9.702  38.452   9.453
 6563POPC   PO422236   9.703  38.453   9.153
 6563POPC   GL122237   9.768  38.449   8.853
 6563POPC   GL222238   9.899  38.474   8.853
 6563POPC   C1A22239   9.748  38.434   8.553
 6563POPC   D2A22240   9.784  38.469   8.253
 6563POPC   C3A22241   9.717  38.437   7.953
 6563POPC   C4A22242   9.771  38.491   7.653
 6563POPC   C1B22243   9.984  38.574   8.553
 6563POPC   C2B22244  10.015  38.522   8.253
 6563POPC   C3B22245   9.988  38.557   7.953
 6563POPC   C4B22246   9.955  38.571   7.653
 6564POPC   NC322247  22.172   5.103   9.453
 6564POPC   PO422248  22.165   5.088   9.153
 6564POPC   GL122249  22.124   5.059   8.853
 6564POPC   GL222250  22.099   4.989   8.853
 6564POPC   C1A22251  22.140   5.073   8.553
 6564POPC   D2A22252  22.171   5.137   8.253
 6564POPC   C3A22253  22.121   5.089   7.953
 6564POPC   C4A22254  22.129   5.134   7.653
 6564POPC   C1B22255  22.000   4.909   8.553
 6564POPC   C2B22256  22.009   4.956   8.253
 6564POPC   C3B22257  22.029   4.918   7.953
 6564POPC   C4B22258  21.984   4.892   7.653
 6565POPC   NC322259  39.244  29.147   9.453
 6565POPC   PO422260  39.222  29.115   9.153
 6565POPC   GL122261  39.279  29.193   8.853
 6565POPC   GL222262  39.166  29.266   8.853
 6565POPC   C1A22263  39.183  29.133   8.553
 6565POPC   D2A22264  39.269  29.127   8.253
 6565POPC   C3A22265  39.249  29.193   7.953
 6565POPC   C4A22266  39.265  29.117   7.653
 6565POPC   C1B22267  39.185  29.396   8.553
 6565POPC   C2B22268  39.166  29.398   8.253
 6565POPC   C3B22269  39.115  29.411   7.953
 6565POPC   C4B22270  39.206  29.389   7.653
 6566POPC   NC322271  33.032  40.831   9.453
 6566POPC   PO422272  33.002  40.770   9.153
 6566POPC   GL122273  33.056  40.761   8.853
 6566POPC   GL222274  33.061  40.630   8.853
 6566POPC   C1A22275  33.058  40.782   8.553
 6566POPC   D2A22276  33.000  40.774   8.253
 6566POPC   C3A22277  33.021  40.804   7.953
 6566POPC   C4A22278  33.009  40.818   7.653
 6566POPC   C1B22279  33.082  40.524   8.553
 6566POPC   C2B22280  33.089  40.492   8.253
 6566POPC   C3B22281  33.035  40.486   7.953
 6566POPC   C4B22282  33.062  40.536   7.653
 6567POPC   NC322283   5.899  14.364   9.453
 6567POPC   PO422284   5.825  14.448   9.153
 6567POPC   GL122285   5.897  14.399   8.853
 6567POPC   GL222286   5.952  14.325   8.853
 6567POPC   C1A22287   5.886  14.452   8.553
 6567POPC   D2A22288   5.821  14.428   8.253
 6567POPC   C3A22289   5.856  14.424   7.953
 6567POPC   C4A22290   5.876  14.408   7.653
 6567POPC   C1B22291   6.047  14.231   8.553
 6567POPC   C2B22292   6.079  14.190   8.253
 6567POPC   C3B22293   6.060  14.270   7.953
 6567POPC   C4B22294   6.009  14.230   7.653
 6568POPC   NC322295  26.774  28.397   9.453
 6568POPC   PO422296  26.770  28.349   9.153
 6568POPC   GL122297  26.790  28.350   8.853
 6568POPC   GL222298  26.864  28.444   8.853
 6568POPC   C1A22299  26.848  28.359   8.553
 6568POPC   D2A22300  26.823  28.395   8.253
 6568POPC   C3A22301  26.856  28.372   7.953
 6568POPC   C4A22302  26.798  28.333   7.653
 6568POPC   C1B22303  26.852  28.634   8.553
 6568POPC   C2B22304  26.915  28.620   8.253
 6568POPC   C3B22305  26.896  28.620   7.953
 6568POPC   C4B22306  26.881  28.577   7.653
 6569POPC   NC322307  41.529   2.756   9.453
 6569POPC   PO422308  41.512   2.719   9.153
 6569POPC   GL122309  41.549   2.779   8.853
 6569POPC   GL222310  41.645   2.697   8.853
 6569POPC   C1A22311  41.559   2.781   8.553
 6569POPC   D2A22312  41.541   2.793   8.253
 6569POPC   C3A22313  41.604   2.799   7.953
 6569POPC   C4A22314  41.579   2.729   7.653
 6569POPC   C1B22315  41.675   2.586   8.553
 6569POPC   C2B22316  41.665   2.549   8.253
 6569POPC   C3B22317  41.711   2.561   7.953
 6569POPC   C4B22318  41.691   2.534   7.653
 6570POPC   NC322319   5.874  20.603   9.453
 6570POPC   PO422320   5.861  20.623   9.153
 6570POPC   GL122321   5.907  20.605   8.853
 6570POPC   GL222322   5.877  20.442   8.853
 6570POPC   C1A22323   5.901  20.605   8.553
 6570POPC   D2A22324   5.830  20.608   8.253
 6570POPC   C3A22325   5.820  20.598   7.953
 6570POPC   C4A22326   5.824  20.603   7.653
 6570POPC   C1B22327   5.864  20.353   8.553
 6570POPC   C2B22328   5.865  20.398   8.253
 6570POPC   C3B22329   5.909  20.406   7.953
 6570POPC   C4B22330   5.868  20.360   7.653
 6571POPC   NC322331  34.598  43.893   9.453
 6571POPC   PO422332  34.567  43.867   9.153
 6571POPC   GL122333  34.562  43.919   8.853
 6571POPC   GL222334  34.578  44.034   8.853
 6571POPC   C1A22335  34.553  43.857   8.553
 6571POPC   D2A22336  34.622  43.916   8.253
 6571POPC   C3A22337  34.613  43.924   7.953
 6571POPC   C4A22338  34.613  43.925   7.653
 6571POPC   C1B22339  34.559  44.156   8.553
 6571POPC   C2B22340  34.511  44.110   8.253
 6571POPC   C3B22341  34.489  44.173   7.953
 6571POPC   C4B22342  34.521  44.083   7.653
 6572POPC   NC322343  27.635  19.085   9.453
 6572POPC   PO422344  27.627  19.088   9.153
 6572POPC   GL122345  27.598  19.031   8.853
 6572POPC   GL222346  27.597  19.202   8.853
 6572POPC   C1A22347  27.543  19.106   8.553
 6572POPC   D2A22348  27.562  19.045   8.253
 6572POPC   C3A22349  27.594  19.073   7.953
 6572POPC   C4A22350  27.641  19.059   7.653
 6572POPC   C1B22351  27.556  19.306   8.553
 6572POPC   C2B22352  27.496  19.349   8.253
 6572POPC   C3B22353  27.545  19.292   7.953
 6572POPC   C4B22354  27.579  19.350   7.653
 6573POPC   NC322355  26.054  19.809   9.453
 6573POPC   PO422356  25.992  19.812   9.153
 6573POPC   GL122357  26.019  19.848   8.853
 6573POPC   GL222358  25.934  19.701   8.853
 6573POPC   C1A22359  26.010  19.796   8.553
 6573POPC   D2A22360  26.025  19.796   8.253
 6573POPC   C3A22361  26.020  19.840   7.953
 6573POPC   C4A22362  26.059  19.801   7.653
 6573POPC   C1B22363  25.917  19.665   8.553
 6573POPC   C2B22364  25.915  19.611   8.253
 6573POPC   C3B22365  25.871  19.592   7.953
 6573POPC   C4B22366  25.862  19.607   7.653
 6574POPC   NC322367  32.998  26.828   9.453
 6574POPC   PO422368  33.040  26.814   9.153
 6574POPC   GL122369  33.016  26.836   8.853
 6574POPC   GL222370  33.086  26.913   8.853
 6574POPC   C1A22371  33.049  26.831   8.553
 6574POPC   D2A22372  32.997  26.825   8.253
 6574POPC   C3A22373  32.989  26.793   7.953
 6574POPC   C4A22374  33.073  26.799   7.653
 6574POPC   C1B22375  33.183  27.029   8.553
 6574POPC   C2B22376  33.204  26.972   8.253
 6574POPC   C3B22377  33.224  27.057   7.953
 6574POPC   C4B22378  33.152  27.021   7.653
 6575POPC   NC322379  15.181  41.540   9.453
 6575POPC   PO422380  15.209  41.564   9.153
 6575POPC   GL122381  15.155  41.553   8.853
 6575POPC   GL222382  15.242  41.615   8.853
 6575POPC   C1A22383  15.214  41.515   8.553
 6575POPC   D2A22384  15.163  41.548   8.253
 6575POPC   C3A22385  15.209  41.574   7.953
 6575POPC   C4A22386  15.155  41.573   7.653
 6575POPC   C1B22387  15.391  41.665   8.553
 6575POPC   C2B22388  15.429  41.685   8.253
 6575POPC   C3B22389  15.393  41.677   7.953
 6575POPC   C4B22390  15.438  41.653   7.653
 6576POPC   NC322391  15.158  16.729   9.453
 6576POPC   PO422392  15.144  16.755   9.153
 6576POPC   GL122393  15.168  16.707   8.853
 6576POPC   GL222394  15.041  16.608   8.853
 6576POPC   C1A22395  15.152  16.712   8.553
 6576POPC   D2A22396  15.174  16.761   8.253
 6576POPC   C3A22397  15.202  16.700   7.953
 6576POPC   C4A22398  15.178  16.682   7.653
 6576POPC   C1B22399  14.976  16.552   8.553
 6576POPC   C2B22400  15.013  16.590   8.253
 6576POPC   C3B22401  14.929  16.564   7.953
 6576POPC   C4B22402  15.004  16.580   7.653
 6577POPC   NC322403  19.080  33.832   9.453
 6577POPC   PO422404  19.074  33.832   9.153
 6577POPC   GL122405  19.022  33.771   8.853
 6577POPC   GL222406  18.961  33.738   8.853
 6577POPC   C1A22407  19.072  33.830   8.553
 6577POPC   D2A22408  19.036  33.827   8.253
 6577POPC   C3A22409  19.085  33.750   7.953
 6577POPC   C4A22410  19.095  33.766   7.653
 6577POPC   C1B22411  18.865  33.726   8.553
 6577POPC   C2B22412  18.816  33.721   8.253
 6577POPC   C3B22413  18.848  33.738   7.953
 6577POPC   C4B22414  18.789  33.713   7.653
 6578POPC   NC322415  38.425   4.329   9.453
 6578POPC   PO422416  38.424   4.267   9.153
 6578POPC   GL122417  38.420   4.272   8.853
 6578POPC   GL222418  38.558   4.254   8.853
 6578POPC   C1A22419  38.458   4.284   8.553
 6578POPC   D2A22420  38.441   4.354   8.253
 6578POPC   C3A22421  38.475   4.335   7.953
 6578POPC   C4A22422  38.479   4.331   7.653
 6578POPC   C1B22423  38.705   4.225   8.553
 6578POPC   C2B22424  38.702   4.159   8.253
 6578POPC   C3B22425  38.624   4.211   7.953
 6578POPC   C4B22426  38.668   4.199   7.653
 6579POPC   NC322427  33.769  35.319   9.453
 6579POPC   PO422428  33.824  35.391   9.153
 6579POPC   GL122429  33.823  35.399   8.853
 6579POPC   GL222430  33.835  35.272   8.853
 6579POPC   C1A22431  33.789  35.302   8.553
 6579POPC   D2A22432  33.766  35.344   8.253
 6579POPC   C3A22433  33.829  35.349   7.953
 6579POPC   C4A22434  33.773  35.401   7.653
 6579POPC   C1B22435  33.957  35.202   8.553
 6579POPC   C2B22436  34.000  35.124   8.253
 6579POPC   C3B22437  33.972  35.158   7.953
 6579POPC   C4B22438  33.924  35.177   7.653
 6580POPC   NC322439  39.960   2.789   9.453
 6580POPC   PO422440  40.010   2.791   9.153
 6580POPC   GL122441  40.045   2.775   8.853
 6580POPC   GL222442  40.089   2.895   8.853
 6580POPC   C1A22443  40.018   2.779   8.553
 6580POPC   D2A22444  40.023   2.740   8.253
 6580POPC   C3A22445  40.055   2.725   7.953
 6580POPC   C4A22446  40.010   2.790   7.653
 6580POPC   C1B22447  40.043   3.009   8.553
 6580POPC   C2B22448  40.100   3.015   8.253
 6580POPC   C3B22449  40.077   3.009   7.953
 6580POPC   C4B22450  40.118   3.031   7.653
 6581POPC   NC322451  44.687  20.575   9.453
 6581POPC   PO422452  44.682  20.652   9.153
 6581POPC   GL122453  44.632  20.592   8.853
 6581POPC   GL222454  44.543  20.542   8.853
 6581POPC   C1A22455  44.680  20.611   8.553
 6581POPC   D2A22456  44.644  20.636   8.253
 6581POPC   C3A22457  44.643  20.565   7.953
 6581POPC   C4A22458  44.676  20.585   7.653
 6581POPC   C1B22459  44.424  20.539   8.553
 6581POPC   C2B22460  44.419  20.493   8.253
 6581POPC   C3B22461  44.452  20.520   7.953
 6581POPC   C4B22462  44.401  20.497   7.653
 6582POPC   NC322463   5.846   1.947   9.453
 6582POPC   PO422464   5.864   1.971   9.153
 6582POPC   GL122465   5.874   1.978   8.853
 6582POPC   GL222466   6.016   2.072   8.853
 6582POPC   C1A22467   5.842   1.953   8.553
 6582POPC   D2A22468   5.867   1.982   8.253
 6582POPC   C3A22469   5.893   1.999   7.953
 6582POPC   C4A22470   5.910   1.975   7.653
 6582POPC   C1B22471   6.070   2.161   8.553
 6582POPC   C2B22472   6.126   2.125   8.253
 6582POPC   C3B22473   6.061   2.084   7.953
 6582POPC   C4B22474   6.085   2.119   7.653
 6583POPC   NC322475   7.375  16.771   9.453
 6583POPC   PO422476   7.425  16.739   9.153
 6583POPC   GL122477   7.404  16.731   8.853
 6583POPC   GL222478   7.364  16.871   8.853
 6583POPC   C1A22479   7.423  16.713   8.553
 6583POPC   D2A22480   7.430  16.758   8.253
 6583POPC   C3A22481   7.392  16.741   7.953
 6583POPC   C4A22482   7.406  16.708   7.653
 6583POPC   C1B22483   7.356  16.965   8.553
 6583POPC   C2B22484   7.415  17.023   8.253
 6583POPC   C3B22485   7.421  16.967   7.953
 6583POPC   C4B22486   7.383  16.935   7.653
 6584POPC   NC322487  39.265  10.497   9.453
 6584POPC   PO422488  39.201  10.477   9.153
 6584POPC   GL122489  39.183  10.515   8.853
 6584POPC   GL222490  39.100  10.454   8.853
 6584POPC   C1A22491  39.218  10.513   8.553
 6584POPC   D2A22492  39.227  10.532   8.253
 6584POPC   C3A22493  39.215  10.483   7.953
 6584POPC   C4A22494  39.256  10.481   7.653
 6584POPC   C1B22495  38.996  10.461   8.553
 6584POPC   C2B22496  39.009  10.433   8.253
 6584POPC   C3B22497  39.048  10.463   7.953
 6584POPC   C4B22498  38.976  10.448   7.653
 6585POPC   NC322499  21.386  31.431   9.453
 6585POPC   PO422500  21.349  31.482   9.153
 6585POPC   GL122501  21.346  31.442   8.853
 6585POPC   GL222502  21.535  31.427   8.853
 6585POPC   C1A22503  21.406  31.488   8.553
 6585POPC   D2A22504  21.343  31.433   8.253
 6585POPC   C3A22505  21.353  31.441   7.953
 6585POPC   C4A22506  21.371  31.434   7.653
 6585POPC   C1B22507  21.670  31.447   8.553
 6585POPC   C2B22508  21.655  31.462   8.253
 6585POPC   C3B22509  21.608  31.417   7.953
 6585POPC   C4B22510  21.586  31.462   7.653
 6586POPC   NC322511  36.895   6.663   9.453
 6586POPC   PO422512  36.871   6.657   9.153
 6586POPC   GL122513  36.902   6.693   8.853
 6586POPC   GL222514  36.852   6.715   8.853
 6586POPC   C1A22515  36.875   6.608   8.553
 6586POPC   D2A22516  36.946   6.659   8.253
 6586POPC   C3A22517  36.887   6.673   7.953
 6586POPC   C4A22518  36.932   6.666   7.653
 6586POPC   C1B22519  36.785   6.816   8.553
 6586POPC   C2B22520  36.777   6.807   8.253
 6586POPC   C3B22521  36.732   6.872   7.953
 6586POPC   C4B22522  36.744   6.856   7.653
 6587POPC   NC322523  25.315  43.890   9.453
 6587POPC   PO422524  25.308  43.877   9.153
 6587POPC   GL122525  25.234  43.934   8.853
 6587POPC   GL222526  25.237  43.975   8.853
 6587POPC   C1A22527  25.282  43.863   8.553
 6587POPC   D2A22528  25.271  43.906   8.253
 6587POPC   C3A22529  25.241  43.913   7.953
 6587POPC   C4A22530  25.251  43.865   7.653
 6587POPC   C1B22531  25.139  44.147   8.553
 6587POPC   C2B22532  25.205  44.131   8.253
 6587POPC   C3B22533  25.213  44.155   7.953
 6587POPC   C4B22534  25.183  44.111   7.653
 6588POPC   NC322535  36.120  36.110   9.453
 6588POPC   PO422536  36.122  36.084   9.153
 6588POPC   GL122537  36.086  36.138   8.853
 6588POPC   GL222538  36.278  36.101   8.853
 6588POPC   C1A22539  36.153  36.140   8.553
 6588POPC   D2A22540  36.079  36.150   8.253
 6588POPC   C3A22541  36.078  36.148   7.953
 6588POPC   C4A22542  36.136  36.115   7.653
 6588POPC   C1B22543  36.337  36.193   8.553
 6588POPC   C2B22544  36.394  36.147   8.253
 6588POPC   C3B22545  36.344  36.191   7.953
 6588POPC   C4B22546  36.371  36.146   7.653
 6589POPC   NC322547  31.485  40.799   9.453
 6589POPC   PO422548  31.459  40.790   9.153
 6589POPC   GL122549  31.502  40.808   8.853
 6589POPC   GL222550  31.405  40.720   8.853
 6589POPC   C1A22551  31.450  40.734   8.553
 6589POPC   D2A22552  31.438  40.815   8.253
 6589POPC   C3A22553  31.439  40.791   7.953
 6589POPC   C4A22554  31.484  40.803   7.653
 6589POPC   C1B22555  31.296  40.641   8.553
 6589POPC   C2B22556  31.257  40.652   8.253
 6589POPC   C3B22557  31.285  40.667   7.953
 6589POPC   C4B22558  31.320  40.681   7.653
 6590POPC   NC322559  25.282  21.423   9.453
 6590POPC   PO422560  25.304  21.381   9.153
 6590POPC   GL122561  25.221  21.420   8.853
 6590POPC   GL222562  25.339  21.279   8.853
 6590POPC   C1A22563  25.220  21.413   8.553
 6590POPC   D2A22564  25.268  21.370   8.253
 6590POPC   C3A22565  25.223  21.387   7.953
 6590POPC   C4A22566  25.267  21.402   7.653
 6590POPC   C1B22567  25.424  21.124   8.553
 6590POPC   C2B22568  25.427  21.118   8.253
 6590POPC   C3B22569  25.387  21.169   7.953
 6590POPC   C4B22570  25.333  21.193   7.653
 6591POPC   NC322571   5.058   9.769   9.453
 6591POPC   PO422572   5.053   9.798   9.153
 6591POPC   GL122573   5.073   9.770   8.853
 6591POPC   GL222574   5.002   9.784   8.853
 6591POPC   C1A22575   5.049   9.764   8.553
 6591POPC   D2A22576   5.130   9.737   8.253
 6591POPC   C3A22577   5.089   9.708   7.953
 6591POPC   C4A22578   5.079   9.719   7.653
 6591POPC   C1B22579   4.873   9.836   8.553
 6591POPC   C2B22580   4.827   9.857   8.253
 6591POPC   C3B22581   4.868   9.863   7.953
 6591POPC   C4B22582   4.867   9.878   7.653
 6592POPC   NC322583   5.133  27.613   9.453
 6592POPC   PO422584   5.130  27.548   9.153
 6592POPC   GL122585   5.074  27.603   8.853
 6592POPC   GL222586   4.957  27.518   8.853
 6592POPC   C1A22587   5.094  27.629   8.553
 6592POPC   D2A22588   5.103  27.592   8.253
 6592POPC   C3A22589   5.140  27.608   7.953
 6592POPC   C4A22590   5.122  27.629   7.653
 6592POPC   C1B22591   4.885  27.507   8.553
 6592POPC   C2B22592   4.878  27.476   8.253
 6592POPC   C3B22593   4.847  27.431   7.953
 6592POPC   C4B22594   4.903  27.513   7.653
 6593POPC   NC322595   3.522  25.226   9.453
 6593POPC   PO422596   3.544  25.302   9.153
 6593POPC   GL122597   3.560  25.273   8.853
 6593POPC   GL222598   3.676  25.225   8.853
 6593POPC   C1A22599   3.545  25.230   8.553
 6593POPC   D2A22600   3.588  25.265   8.253
 6593POPC   C3A22601   3.587  25.262   7.953
 6593POPC   C4A22602   3.575  25.289   7.653
 6593POPC   C1B22603   3.738  25.135   8.553
 6593POPC   C2B22604   3.766  25.213   8.253
 6593POPC   C3B22605   3.765  25.197   7.953
 6593POPC   C4B22606   3.765  25.213   7.653
 6594POPC   NC322607  29.955  36.078   9.453
 6594POPC   PO422608  29.926  36.166   9.153
 6594POPC   GL122609  29.921  36.090   8.853
 6594POPC   GL222610  29.923  35.994   8.853
 6594POPC   C1A22611  29.901  36.163   8.553
 6594POPC   D2A22612  29.891  36.085   8.253
 6594POPC   C3A22613  29.905  36.082   7.953
 6594POPC   C4A22614  29.924  36.172   7.653
 6594POPC   C1B22615  29.861  35.937   8.553
 6594POPC   C2B22616  29.875  35.891   8.253
 6594POPC   C3B22617  29.801  35.923   7.953
 6594POPC   C4B22618  29.842  35.889   7.653
 6595POPC   NC322619  10.483  33.828   9.453
 6595POPC   PO422620  10.507  33.797   9.153
 6595POPC   GL122621  10.556  33.847   8.853
 6595POPC   GL222622  10.632  33.745   8.853
 6595POPC   C1A22623  10.490  33.781   8.553
 6595POPC   D2A22624  10.491  33.785   8.253
 6595POPC   C3A22625  10.550  33.809   7.953
 6595POPC   C4A22626  10.552  33.840   7.653
 6595POPC   C1B22627  10.738  33.673   8.553
 6595POPC   C2B22628  10.717  33.646   8.253
 6595POPC   C3B22629  10.685  33.635   7.953
 6595POPC   C4B22630  10.752  33.608   7.653
 6596POPC   NC322631  32.273   9.758   9.453
 6596POPC   PO422632  32.289   9.740   9.153
 6596POPC   GL122633  32.215   9.791   8.853
 6596POPC   GL222634  32.329   9.636   8.853
 6596POPC   C1A22635  32.298   9.774   8.553
 6596POPC   D2A22636  32.219   9.711   8.253
 6596POPC   C3A22637  32.216   9.780   7.953
 6596POPC   C4A22638  32.257   9.762   7.653
 6596POPC   C1B22639  32.450   9.542   8.553
 6596POPC   C2B22640  32.457   9.551   8.253
 6596POPC   C3B22641  32.381   9.534   7.953
 6596POPC   C4B22642  32.409   9.577   7.653
 6597POPC   NC322643  13.594  25.271   9.453
 6597POPC   PO422644  13.589  25.258   9.153
 6597POPC   GL122645  13.661  25.280   8.853
 6597POPC   GL222646  13.776  25.338   8.853
 6597POPC   C1A22647  13.610  25.297   8.553
 6597POPC   D2A22648  13.648  25.236   8.253
 6597POPC   C3A22649  13.616  25.313   7.953
 6597POPC   C4A22650  13.657  25.237   7.653
 6597POPC   C1B22651  13.905  25.411   8.553
 6597POPC   C2B22652  13.904  25.358   8.253
 6597POPC   C3B22653  13.829  25.396   7.953
 6597POPC   C4B22654  13.824  25.382   7.653
 6598POPC   NC322655   2.801   7.456   9.453
 6598POPC   PO422656   2.771   7.451   9.153
 6598POPC   GL122657   2.743   7.390   8.853
 6598POPC   GL222658   2.657   7.419   8.853
 6598POPC   C1A22659   2.766   7.409   8.553
 6598POPC   D2A22660   2.808   7.381   8.253
 6598POPC   C3A22661   2.781   7.405   7.953
 6598POPC   C4A22662   2.727   7.378   7.653
 6598POPC   C1B22663   2.497   7.426   8.553
 6598POPC   C2B22664   2.541   7.482   8.253
 6598POPC   C3B22665   2.523   7.432   7.953
 6598POPC   C4B22666   2.508   7.494   7.653
 6599POPC   NC322667   7.434  42.335   9.453
 6599POPC   PO422668   7.469  42.348   9.153
 6599POPC   GL122669   7.395  42.334   8.853
 6599POPC   GL222670   7.569  42.409   8.853
 6599POPC   C1A22671   7.402  42.301   8.553
 6599POPC   D2A22672   7.459  42.297   8.253
 6599POPC   C3A22673   7.412  42.353   7.953
 6599POPC   C4A22674   7.430  42.348   7.653
 6599POPC   C1B22675   7.678  42.450   8.553
 6599POPC   C2B22676   7.680  42.419   8.253
 6599POPC   C3B22677   7.644  42.455   7.953
 6599POPC   C4B22678   7.670  42.390   7.653
 6600POPC   NC322679  33.787  34.559   9.453
 6600POPC   PO422680  33.758  34.566   9.153
 6600POPC   GL122681  33.764  34.572   8.853
 6600POPC   GL222682  33.700  34.619   8.853
 6600POPC   C1A22683  33.843  34.535   8.553
 6600POPC   D2A22684  33.815  34.552   8.253
 6600POPC   C3A22685  33.824  34.565   7.953
 6600POPC   C4A22686  33.812  34.561   7.653
 6600POPC   C1B22687  33.652  34.766   8.553
 6600POPC   C2B22688  33.618  34.727   8.253
 6600POPC   C3B22689  33.667  34.752   7.953
 6600POPC   C4B22690  33.592  34.777   7.653
 6601POPC   NC322691  36.106  32.254   9.453
 6601POPC   PO422692  36.115  32.206   9.153
 6601POPC   GL122693  36.116  32.266   8.853
 6601POPC   GL222694  36.037  32.198   8.853
 6601POPC   C1A22695  36.160  32.215   8.553
 6601POPC   D2A22696  36.151  32.215   8.253
 6601POPC   C3A22697  36.152  32.246   7.953
 6601POPC   C4A22698  36.175  32.283   7.653
 6601POPC   C1B22699  35.886  32.238   8.553
 6601POPC   C2B22700  35.898  32.256   8.253
 6601POPC   C3B22701  35.897  32.230   7.953
 6601POPC   C4B22702  35.886  32.226   7.653
 6602POPC   NC322703   5.093  14.398   9.453
 6602POPC   PO422704   5.128  14.449   9.153
 6602POPC   GL122705   5.129  14.402   8.853
 6602POPC   GL222706   5.170  14.365   8.853
 6602POPC   C1A22707   5.071  14.374   8.553
 6602POPC   D2A22708   5.106  14.435   8.253
 6602POPC   C3A22709   5.056  14.397   7.953
 6602POPC   C4A22710   5.114  14.389   7.653
 6602POPC   C1B22711   5.319  14.345   8.553
 6602POPC   C2B22712   5.379  14.308   8.253
 6602POPC   C3B22713   5.306  14.340   7.953
 6602POPC   C4B22714   5.292  14.320   7.653
 6603POPC   NC322715  19.080  44.623   9.453
 6603POPC   PO422716  19.015  44.692   9.153
 6603POPC   GL122717  19.019  44.632   8.853
 6603POPC   GL222718  18.967  44.793   8.853
 6603POPC   C1A22719  19.074  44.626   8.553
 6603POPC   D2A22720  19.046  44.689   8.253
 6603POPC   C3A22721  19.018  44.649   7.953
 6603POPC   C4A22722  19.041  44.694   7.653
 6603POPC   C1B22723  18.950  44.869   8.553
 6603POPC   C2B22724  18.901  44.855   8.253
 6603POPC   C3B22725  18.961  44.894   7.953
 6603POPC   C4B22726  18.911  44.863   7.653
 6604POPC   NC322727   8.214  29.116   9.453
 6604POPC   PO422728   8.149  29.147   9.153
 6604POPC   GL122729   8.151  29.116   8.853
 6604POPC   GL222730   8.119  29.215   8.853
 6604POPC   C1A22731   8.200  29.130   8.553
 6604POPC   D2A22732   8.198  29.172   8.253
 6604POPC   C3A22733   8.189  29.181   7.953
 6604POPC   C4A22734   8.216  29.174   7.653
 6604POPC   C1B22735   8.085  29.421   8.553
 6604POPC   C2B22736   8.129  29.335   8.253
 6604POPC   C3B22737   8.060  29.336   7.953
 6604POPC   C4B22738   8.047  29.395   7.653
 6605POPC   NC322739   7.404  18.272   9.453
 6605POPC   PO422740   7.406  18.272   9.153
 6605POPC   GL122741   7.408  18.292   8.853
 6605POPC   GL222742   7.259  18.373   8.853
 6605POPC   C1A22743   7.454  18.257   8.553
 6605POPC   D2A22744   7.438  18.234   8.253
 6605POPC   C3A22745   7.452  18.241   7.953
 6605POPC   C4A22746   7.461  18.292   7.653
 6605POPC   C1B22747   7.217  18.370   8.553
 6605POPC   C2B22748   7.149  18.360   8.253
 6605POPC   C3B22749   7.180  18.345   7.953
 6605POPC   C4B22750   7.209  18.343   7.653
 6606POPC   NC322751   2.783  33.054   9.453
 6606POPC   PO422752   2.809  33.016   9.153
 6606POPC   GL122753   2.718  32.979   8.853
 6606POPC   GL222754   2.653  33.126   8.853
 6606POPC   C1A22755   2.727  33.016   8.553
 6606POPC   D2A22756   2.720  33.044   8.253
 6606POPC   C3A22757   2.765  32.997   7.953
 6606POPC   C4A22758   2.765  32.998   7.653
 6606POPC   C1B22759   2.558  33.153   8.553
 6606POPC   C2B22760   2.548  33.118   8.253
 6606POPC   C3B22761   2.587  33.135   7.953
 6606POPC   C4B22762   2.550  33.139   7.653
 6607POPC   NC322763  20.567   6.659   9.453
 6607POPC   PO422764  20.640   6.609   9.153
 6607POPC   GL122765  20.617   6.662   8.853
 6607POPC   GL222766  20.603   6.483   8.853
 6607POPC   C1A22767  20.659   6.639   8.553
 6607POPC   D2A22768  20.649   6.671   8.253
 6607POPC   C3A22769  20.615   6.603   7.953
 6607POPC   C4A22770  20.588   6.662   7.653
 6607POPC   C1B22771  20.671   6.406   8.553
 6607POPC   C2B22772  20.711   6.399   8.253
 6607POPC   C3B22773  20.712   6.373   7.953
 6607POPC   C4B22774  20.721   6.454   7.653
 6608POPC   NC322775   7.394  21.390   9.453
 6608POPC   PO422776   7.470  21.391   9.153
 6608POPC   GL122777   7.398  21.398   8.853
 6608POPC   GL222778   7.306  21.490   8.853
 6608POPC   C1A22779   7.379  21.347   8.553
 6608POPC   D2A22780   7.422  21.351   8.253
 6608POPC   C3A22781   7.453  21.347   7.953
 6608POPC   C4A22782   7.452  21.387   7.653
 6608POPC   C1B22783   7.160  21.534   8.553
 6608POPC   C2B22784   7.195  21.467   8.253
 6608POPC   C3B22785   7.189  21.454   7.953
 6608POPC   C4B22786   7.187  21.536   7.653
 6609POPC   NC322787   5.849   1.210   9.453
 6609POPC   PO422788   5.905   1.230   9.153
 6609POPC   GL122789   5.866   1.205   8.853
 6609POPC   GL222790   5.797   1.295   8.853
 6609POPC   C1A22791   5.918   1.259   8.553
 6609POPC   D2A22792   5.828   1.261   8.253
 6609POPC   C3A22793   5.909   1.228   7.953
 6609POPC   C4A22794   5.823   1.184   7.653
 6609POPC   C1B22795   5.654   1.353   8.553
 6609POPC   C2B22796   5.677   1.367   8.253
 6609POPC   C3B22797   5.650   1.343   7.953
 6609POPC   C4B22798   5.648   1.437   7.653
 6610POPC   NC322799  16.706  12.809   9.453
 6610POPC   PO422800  16.685  12.892   9.153
 6610POPC   GL122801  16.685  12.834   8.853
 6610POPC   GL222802  16.887  12.842   8.853
 6610POPC   C1A22803  16.748  12.810   8.553
 6610POPC   D2A22804  16.698  12.878   8.253
 6610POPC   C3A22805  16.770  12.873   7.953
 6610POPC   C4A22806  16.719  12.854   7.653
 6610POPC   C1B22807  17.017  12.907   8.553
 6610POPC   C2B22808  16.976  12.919   8.253
 6610POPC   C3B22809  16.973  12.888   7.953
 6610POPC   C4B22810  17.008  12.902   7.653
 6611POPC   NC322811   4.353  23.744   9.453
 6611POPC   PO422812   4.312  23.712   9.153
 6611POPC   GL122813   4.323  23.746   8.853
 6611POPC   GL222814   4.152  23.757   8.853
 6611POPC   C1A22815   4.280  23.689   8.553
 6611POPC   D2A22816   4.355  23.683   8.253
 6611POPC   C3A22817   4.331  23.711   7.953
 6611POPC   C4A22818   4.365  23.721   7.653
 6611POPC   C1B22819   4.087  23.767   8.553
 6611POPC   C2B22820   4.066  23.748   8.253
 6611POPC   C3B22821   4.078  23.806   7.953
 6611POPC   C4B22822   4.053  23.795   7.653
 6612POPC   NC322823   8.175  36.161   9.453
 6612POPC   PO422824   8.203  36.149   9.153
 6612POPC   GL122825   8.221  36.174   8.853
 6612POPC   GL222826   8.179  35.991   8.853
 6612POPC   C1A22827   8.216  36.108   8.553
 6612POPC   D2A22828   8.221  36.161   8.253
 6612POPC   C3A22829   8.158  36.134   7.953
 6612POPC   C4A22830   8.209  36.147   7.653
 6612POPC   C1B22831   8.236  35.858   8.553
 6612POPC   C2B22832   8.244  35.902   8.253
 6612POPC   C3B22833   8.288  35.915   7.953
 6612POPC   C4B22834   8.251  35.902   7.653
 6613POPC   NC322835  11.258  22.970   9.453
 6613POPC   PO422836  11.293  22.939   9.153
 6613POPC   GL122837  11.336  22.977   8.853
 6613POPC   GL222838  11.159  22.961   8.853
 6613POPC   C1A22839  11.260  22.891   8.553
 6613POPC   D2A22840  11.338  22.934   8.253
 6613POPC   C3A22841  11.316  22.943   7.953
 6613POPC   C4A22842  11.252  22.981   7.653
 6613POPC   C1B22843  11.116  23.018   8.553
 6613POPC   C2B22844  11.094  23.064   8.253
 6613POPC   C3B22845  11.049  23.115   7.953
 6613POPC   C4B22846  11.087  23.079   7.653
 6614POPC   NC322847  19.810   8.190   9.453
 6614POPC   PO422848  19.851   8.221   9.153
 6614POPC   GL122849  19.803   8.205   8.853
 6614POPC   GL222850  19.750   8.268   8.853
 6614POPC   C1A22851  19.830   8.170   8.553
 6614POPC   D2A22852  19.802   8.201   8.253
 6614POPC   C3A22853  19.854   8.187   7.953
 6614POPC   C4A22854  19.822   8.235   7.653
 6614POPC   C1B22855  19.543   8.265   8.553
 6614POPC   C2B22856  19.562   8.216   8.253
 6614POPC   C3B22857  19.601   8.280   7.953
 6614POPC   C4B22858  19.614   8.271   7.653
 6615POPC   NC322859  35.354  15.177   9.453
 6615POPC   PO422860  35.394  15.182   9.153
 6615POPC   GL122861  35.386  15.223   8.853
 6615POPC   GL222862  35.237  15.231   8.853
 6615POPC   C1A22863  35.360  15.225   8.553
 6615POPC   D2A22864  35.344  15.213   8.253
 6615POPC   C3A22865  35.382  15.158   7.953
 6615POPC   C4A22866  35.375  15.212   7.653
 6615POPC   C1B22867  35.169  15.298   8.553
 6615POPC   C2B22868  35.140  15.273   8.253
 6615POPC   C3B22869  35.169  15.316   7.953
 6615POPC   C4B22870  35.126  15.316   7.653
 6616POPC   NC322871   8.987  35.400   9.453
 6616POPC   PO422872   8.934  35.331   9.153
 6616POPC   GL122873   8.992  35.321   8.853
 6616POPC   GL222874   8.903  35.443   8.853
 6616POPC   C1A22875   8.974  35.383   8.553
 6616POPC   D2A22876   8.995  35.357   8.253
 6616POPC   C3A22877   8.996  35.390   7.953
 6616POPC   C4A22878   8.937  35.399   7.653
 6616POPC   C1B22879   8.880  35.613   8.553
 6616POPC   C2B22880   8.950  35.614   8.253
 6616POPC   C3B22881   8.942  35.561   7.953
 6616POPC   C4B22882   8.924  35.563   7.653
 6617POPC   NC322883   5.915   3.505   9.453
 6617POPC   PO422884   5.903   3.563   9.153
 6617POPC   GL122885   5.828   3.570   8.853
 6617POPC   GL222886   5.867   3.614   8.853
 6617POPC   C1A22887   5.876   3.534   8.553
 6617POPC   D2A22888   5.842   3.510   8.253
 6617POPC   C3A22889   5.886   3.560   7.953
 6617POPC   C4A22890   5.835   3.534   7.653
 6617POPC   C1B22891   5.844   3.736   8.553
 6617POPC   C2B22892   5.786   3.805   8.253
 6617POPC   C3B22893   5.754   3.752   7.953
 6617POPC   C4B22894   5.751   3.767   7.653
 6618POPC   NC322895  36.171  33.054   9.453
 6618POPC   PO422896  36.078  33.059   9.153
 6618POPC   GL122897  36.160  32.995   8.853
 6618POPC   GL222898  36.233  33.100   8.853
 6618POPC   C1A22899  36.088  33.072   8.553
 6618POPC   D2A22900  36.096  33.024   8.253
 6618POPC   C3A22901  36.161  33.018   7.953
 6618POPC   C4A22902  36.105  33.021   7.653
 6618POPC   C1B22903  36.355  33.137   8.553
 6618POPC   C2B22904  36.410  33.106   8.253
 6618POPC   C3B22905  36.409  33.133   7.953
 6618POPC   C4B22906  36.412  33.089   7.653
 6619POPC   NC322907  10.523  22.151   9.453
 6619POPC   PO422908  10.556  22.200   9.153
 6619POPC   GL122909  10.531  22.169   8.853
 6619POPC   GL222910  10.537  22.337   8.853
 6619POPC   C1A22911  10.493  22.198   8.553
 6619POPC   D2A22912  10.531  22.131   8.253
 6619POPC   C3A22913  10.484  22.174   7.953
 6619POPC   C4A22914  10.480  22.189   7.653
 6619POPC   C1B22915  10.562  22.393   8.553
 6619POPC   C2B22916  10.520  22.437   8.253
 6619POPC   C3B22917  10.581  22.442   7.953
 6619POPC   C4B22918  10.516  22.448   7.653
 6620POPC   NC322919  40.016  31.491   9.453
 6620POPC   PO422920  40.001  31.439   9.153
 6620POPC   GL122921  39.961  31.486   8.853
 6620POPC   GL222922  40.102  31.425   8.853
 6620POPC   C1A22923  39.989  31.460   8.553
 6620POPC   D2A22924  40.011  31.495   8.253
 6620POPC   C3A22925  39.980  31.505   7.953
 6620POPC   C4A22926  40.044  31.506   7.653
 6620POPC   C1B22927  40.240  31.414   8.553
 6620POPC   C2B22928  40.268  31.411   8.253
 6620POPC   C3B22929  40.286  31.394   7.953
 6620POPC   C4B22930  40.293  31.405   7.653
 6621POPC   NC322931  12.843  12.102   9.453
 6621POPC   PO422932  12.856  12.118   9.153
 6621POPC   GL122933  12.891  12.112   8.853
 6621POPC   GL222934  12.788  12.117   8.853
 6621POPC   C1A22935  12.810  12.046   8.553
 6621POPC   D2A22936  12.881  12.038   8.253
 6621POPC   C3A22937  12.896  12.037   7.953
 6621POPC   C4A22938  12.822  12.072   7.653
 6621POPC   C1B22939  12.677  12.174   8.553
 6621POPC   C2B22940  12.620  12.216   8.253
 6621POPC   C3B22941  12.633  12.179   7.953
 6621POPC   C4B22942  12.591  12.168   7.653
 6622POPC   NC322943   8.206   9.748   9.453
 6622POPC   PO422944   8.184   9.704   9.153
 6622POPC   GL122945   8.173   9.740   8.853
 6622POPC   GL222946   8.107   9.762   8.853
 6622POPC   C1A22947   8.243   9.699   8.553
 6622POPC   D2A22948   8.222   9.723   8.253
 6622POPC   C3A22949   8.164   9.734   7.953
 6622POPC   C4A22950   8.204   9.721   7.653
 6622POPC   C1B22951   7.915   9.732   8.553
 6622POPC   C2B22952   7.918   9.778   8.253
 6622POPC   C3B22953   7.972   9.727   7.953
 6622POPC   C4B22954   7.957   9.709   7.653
 6623POPC   NC322955   0.472  18.243   9.453
 6623POPC   PO422956   0.460  18.308   9.153
 6623POPC   GL122957   0.463  18.309   8.853
 6623POPC   GL222958   0.529  18.189   8.853
 6623POPC   C1A22959   0.478  18.332   8.553
 6623POPC   D2A22960   0.483  18.256   8.253
 6623POPC   C3A22961   0.396  18.316   7.953
 6623POPC   C4A22962   0.459  18.318   7.653
 6623POPC   C1B22963   0.622  18.111   8.553
 6623POPC   C2B22964   0.667  18.100   8.253
 6623POPC   C3B22965   0.602  18.101   7.953
 6623POPC   C4B22966   0.691  18.103   7.653
 6624POPC   NC322967  22.166  43.127   9.453
 6624POPC   PO422968  22.151  43.105   9.153
 6624POPC   GL122969  22.174  43.155   8.853
 6624POPC   GL222970  22.268  43.011   8.853
 6624POPC   C1A22971  22.190  43.097   8.553
 6624POPC   D2A22972  22.115  43.143   8.253
 6624POPC   C3A22973  22.126  43.071   7.953
 6624POPC   C4A22974  22.190  43.160   7.653
 6624POPC   C1B22975  22.347  42.950   8.553
 6624POPC   C2B22976  22.370  42.894   8.253
 6624POPC   C3B22977  22.379  42.975   7.953
 6624POPC   C4B22978  22.349  42.963   7.653
 6625POPC   NC322979  10.521  14.354   9.453
 6625POPC   PO422980  10.569  14.384   9.153
 6625POPC   GL122981  10.503  14.366   8.853
 6625POPC   GL222982  10.491  14.281   8.853
 6625POPC   C1A22983  10.519  14.451   8.553
 6625POPC   D2A22984  10.569  14.429   8.253
 6625POPC   C3A22985  10.491  14.418   7.953
 6625POPC   C4A22986  10.550  14.355   7.653
 6625POPC   C1B22987  10.422  14.212   8.553
 6625POPC   C2B22988  10.395  14.157   8.253
 6625POPC   C3B22989  10.445  14.147   7.953
 6625POPC   C4B22990  10.457  14.211   7.653
 6626POPC   NC322991  15.196   7.373   9.453
 6626POPC   PO422992  15.216   7.415   9.153
 6626POPC   GL122993  15.182   7.417   8.853
 6626POPC   GL222994  15.281   7.423   8.853
 6626POPC   C1A22995  15.144   7.414   8.553
 6626POPC   D2A22996  15.203   7.446   8.253
 6626POPC   C3A22997  15.208   7.383   7.953
 6626POPC   C4A22998  15.144   7.376   7.653
 6626POPC   C1B22999  15.403   7.355   8.553
 6626POPC   C2B23000  15.377   7.388   8.253
 6626POPC   C3B23001  15.380   7.328   7.953
 6626POPC   C4B23002  15.398   7.376   7.653
 6627POPC   NC323003  28.350   5.890   9.453
 6627POPC   PO423004  28.417   5.906   9.153
 6627POPC   GL123005  28.329   5.840   8.853
 6627POPC   GL223006  28.317   5.995   8.853
 6627POPC   C1A23007  28.351   5.905   8.553
 6627POPC   D2A23008  28.361   5.843   8.253
 6627POPC   C3A23009  28.337   5.901   7.953
 6627POPC   C4A23010  28.341   5.873   7.653
 6627POPC   C1B23011  28.352   6.097   8.553
 6627POPC   C2B23012  28.313   6.128   8.253
 6627POPC   C3B23013  28.347   6.073   7.953
 6627POPC   C4B23014  28.347   6.151   7.653
 6628POPC   NC323015  39.276  14.424   9.453
 6628POPC   PO423016  39.188  14.424   9.153
 6628POPC   GL123017  39.189  14.398   8.853
 6628POPC   GL223018  39.199  14.548   8.853
 6628POPC   C1A23019  39.192  14.384   8.553
 6628POPC   D2A23020  39.254  14.449   8.253
 6628POPC   C3A23021  39.205  14.392   7.953
 6628POPC   C4A23022  39.201  14.403   7.653
 6628POPC   C1B23023  39.223  14.606   8.553
 6628POPC   C2B23024  39.244  14.647   8.253
 6628POPC   C3B23025  39.262  14.690   7.953
 6628POPC   C4B23026  39.229  14.670   7.653
 6629POPC   NC323027  20.613  39.187   9.453
 6629POPC   PO423028  20.568  39.236   9.153
 6629POPC   GL123029  20.622  39.213   8.853
 6629POPC   GL223030  20.694  39.105   8.853
 6629POPC   C1A23031  20.576  39.269   8.553
 6629POPC   D2A23032  20.566  39.260   8.253
 6629POPC   C3A23033  20.612  39.275   7.953
 6629POPC   C4A23034  20.626  39.257   7.653
 6629POPC   C1B23035  20.770  39.064   8.553
 6629POPC   C2B23036  20.773  39.097   8.253
 6629POPC   C3B23037  20.754  39.032   7.953
 6629POPC   C4B23038  20.765  39.040   7.653
 6630POPC   NC323039  37.708  16.690   9.453
 6630POPC   PO423040  37.713  16.709   9.153
 6630POPC   GL123041  37.682  16.708   8.853
 6630POPC   GL223042  37.657  16.879   8.853
 6630POPC   C1A23043  37.694  16.721   8.553
 6630POPC   D2A23044  37.725  16.688   8.253
 6630POPC   C3A23045  37.718  16.706   7.953
 6630POPC   C4A23046  37.639  16.687   7.653
 6630POPC   C1B23047  37.582  17.008   8.553
 6630POPC   C2B23048  37.609  16.939   8.253
 6630POPC   C3B23049  37.558  17.012   7.953
 6630POPC   C4B23050  37.610  16.945   7.653
 6631POPC   NC323051  38.492  23.673   9.453
 6631POPC   PO423052  38.456  23.760   9.153
 6631POPC   GL123053  38.472  23.696   8.853
 6631POPC   GL223054  38.389  23.757   8.853
 6631POPC   C1A23055  38.462  23.694   8.553
 6631POPC   D2A23056  38.496  23.732   8.253
 6631POPC   C3A23057  38.408  23.675   7.953
 6631POPC   C4A23058  38.471  23.741   7.653
 6631POPC   C1B23059  38.224  23.880   8.553
 6631POPC   C2B23060  38.281  23.879   8.253
 6631POPC   C3B23061  38.217  23.865   7.953
 6631POPC   C4B23062  38.221  23.911   7.653
 6632POPC   NC323063  21.412  40.743   9.453
 6632POPC   PO423064  21.372  40.794   9.153
 6632POPC   GL123065  21.400  40.752   8.853
 6632POPC   GL223066  21.323  40.911   8.853
 6632POPC   C1A23067  21.367  40.810   8.553
 6632POPC   D2A23068  21.413  40.818   8.253
 6632POPC   C3A23069  21.410  40.814   7.953
 6632POPC   C4A23070  21.347  40.742   7.653
 6632POPC   C1B23071  21.151  40.902   8.553
 6632POPC   C2B23072  21.240  40.961   8.253
 6632POPC   C3B23073  21.235  40.918   7.953
 6632POPC   C4B23074  21.159  40.974   7.653
 6633POPC   NC323075  36.924  27.610   9.453
 6633POPC   PO423076  36.918  27.620   9.153
 6633POPC   GL123077  36.899  27.593   8.853
 6633POPC   GL223078  36.798  27.620   8.853
 6633POPC   C1A23079  36.902  27.639   8.553
 6633POPC   D2A23080  36.864  27.641   8.253
 6633POPC   C3A23081  36.908  27.599   7.953
 6633POPC   C4A23082  36.875  27.609   7.653
 6633POPC   C1B23083  36.621  27.538   8.553
 6633POPC   C2B23084  36.640  27.557   8.253
 6633POPC   C3B23085  36.650  27.507   7.953
 6633POPC   C4B23086  36.632  27.597   7.653
 6634POPC   NC323087  27.613  31.508   9.453
 6634POPC   PO423088  27.558  31.514   9.153
 6634POPC   GL123089  27.619  31.451   8.853
 6634POPC   GL223090  27.469  31.496   8.853
 6634POPC   C1A23091  27.625  31.478   8.553
 6634POPC   D2A23092  27.554  31.423   8.253
 6634POPC   C3A23093  27.553  31.436   7.953
 6634POPC   C4A23094  27.632  31.448   7.653
 6634POPC   C1B23095  27.363  31.398   8.553
 6634POPC   C2B23096  27.323  31.445   8.253
 6634POPC   C3B23097  27.318  31.461   7.953
 6634POPC   C4B23098  27.316  31.379   7.653
 6635POPC   NC323099   4.322   4.365   9.453
 6635POPC   PO423100   4.342   4.360   9.153
 6635POPC   GL123101   4.285   4.309   8.853
 6635POPC   GL223102   4.207   4.417   8.853
 6635POPC   C1A23103   4.286   4.295   8.553
 6635POPC   D2A23104   4.301   4.331   8.253
 6635POPC   C3A23105   4.293   4.367   7.953
 6635POPC   C4A23106   4.290   4.298   7.653
 6635POPC   C1B23107   4.134   4.459   8.553
 6635POPC   C2B23108   4.086   4.407   8.253
 6635POPC   C3B23109   4.135   4.425   7.953
 6635POPC   C4B23110   4.130   4.448   7.653
 6636POPC   NC323111  40.001  33.802   9.453
 6636POPC   PO423112  39.985  33.836   9.153
 6636POPC   GL123113  40.038  33.775   8.853
 6636POPC   GL223114  40.115  33.798   8.853
 6636POPC   C1A23115  39.972  33.790   8.553
 6636POPC   D2A23116  40.008  33.831   8.253
 6636POPC   C3A23117  39.962  33.843   7.953
 6636POPC   C4A23118  39.972  33.791   7.653
 6636POPC   C1B23119  40.260  33.836   8.553
 6636POPC   C2B23120  40.295  33.826   8.253
 6636POPC   C3B23121  40.210  33.787   7.953
 6636POPC   C4B23122  40.234  33.815   7.653
 6637POPC   NC323123  25.260   6.650   9.453
 6637POPC   PO423124  25.286   6.641   9.153
 6637POPC   GL123125  25.222   6.689   8.853
 6637POPC   GL223126  25.159   6.610   8.853
 6637POPC   C1A23127  25.257   6.640   8.553
 6637POPC   D2A23128  25.279   6.638   8.253
 6637POPC   C3A23129  25.287   6.685   7.953
 6637POPC   C4A23130  25.240   6.648   7.653
 6637POPC   C1B23131  25.043   6.647   8.553
 6637POPC   C2B23132  24.974   6.685   8.253
 6637POPC   C3B23133  25.015   6.700   7.953
 6637POPC   C4B23134  25.029   6.662   7.653
 6638POPC   NC323135  42.349  41.591   9.453
 6638POPC   PO423136  42.373  41.510   9.153
 6638POPC   GL123137  42.339  41.549   8.853
 6638POPC   GL223138  42.272  41.689   8.853
 6638POPC   C1A23139  42.317  41.528   8.553
 6638POPC   D2A23140  42.384  41.519   8.253
 6638POPC   C3A23141  42.338  41.566   7.953
 6638POPC   C4A23142  42.338  41.599   7.653
 6638POPC   C1B23143  42.255  41.838   8.553
 6638POPC   C2B23144  42.280  41.827   8.253
 6638POPC   C3B23145  42.316  41.760   7.953
 6638POPC   C4B23146  42.325  41.832   7.653
 6639POPC   NC323147  36.904  22.981   9.453
 6639POPC   PO423148  36.924  22.929   9.153
 6639POPC   GL123149  36.937  22.972   8.853
 6639POPC   GL223150  36.991  22.788   8.853
 6639POPC   C1A23151  36.914  22.988   8.553
 6639POPC   D2A23152  36.863  22.936   8.253
 6639POPC   C3A23153  36.872  22.931   7.953
 6639POPC   C4A23154  36.882  22.935   7.653
 6639POPC   C1B23155  36.969  22.685   8.553
 6639POPC   C2B23156  37.029  22.709   8.253
 6639POPC   C3B23157  37.046  22.715   7.953
 6639POPC   C4B23158  36.979  22.750   7.653
 6640POPC   NC323159   8.246   8.226   9.453
 6640POPC   PO423160   8.217   8.156   9.153
 6640POPC   GL123161   8.192   8.239   8.853
 6640POPC   GL223162   8.304   8.237   8.853
 6640POPC   C1A23163   8.187   8.224   8.553
 6640POPC   D2A23164   8.148   8.227   8.253
 6640POPC   C3A23165   8.182   8.172   7.953
 6640POPC   C4A23166   8.154   8.194   7.653
 6640POPC   C1B23167   8.446   8.357   8.553
 6640POPC   C2B23168   8.449   8.309   8.253
 6640POPC   C3B23169   8.426   8.351   7.953
 6640POPC   C4B23170   8.435   8.294   7.653
 6641POPC   NC323171  24.510  34.542   9.453
 6641POPC   PO423172  24.465  34.596   9.153
 6641POPC   GL123173  24.443  34.612   8.853
 6641POPC   GL223174  24.429  34.734   8.853
 6641POPC   C1A23175  24.447  34.603   8.553
 6641POPC   D2A23176  24.517  34.538   8.253
 6641POPC   C3A23177  24.487  34.599   7.953
 6641POPC   C4A23178  24.519  34.542   7.653
 6641POPC   C1B23179  24.467  34.783   8.553
 6641POPC   C2B23180  24.448  34.804   8.253
 6641POPC   C3B23181  24.417  34.863   7.953
 6641POPC   C4B23182  24.467  34.781   7.653
 6642POPC   NC323183   2.025  44.685   9.453
 6642POPC   PO423184   1.981  44.691   9.153
 6642POPC   GL123185   1.981  44.677   8.853
 6642POPC   GL223186   1.963  44.768   8.853
 6642POPC   C1A23187   1.980  44.637   8.553
 6642POPC   D2A23188   1.993  44.663   8.253
 6642POPC   C3A23189   1.976  44.681   7.953
 6642POPC   C4A23190   1.966  44.641   7.653
 6642POPC   C1B23191   2.057  44.929   8.553
 6642POPC   C2B23192   2.016  44.875   8.253
 6642POPC   C3B23193   2.047  44.909   7.953
 6642POPC   C4B23194   1.992  44.862   7.653
 6643POPC   NC323195  36.093  41.592   9.453
 6643POPC   PO423196  36.139  41.519   9.153
 6643POPC   GL123197  36.133  41.524   8.853
 6643POPC   GL223198  36.074  41.639   8.853
 6643POPC   C1A23199  36.155  41.595   8.553
 6643POPC   D2A23200  36.149  41.517   8.253
 6643POPC   C3A23201  36.132  41.542   7.953
 6643POPC   C4A23202  36.092  41.572   7.653
 6643POPC   C1B23203  36.064  41.838   8.553
 6643POPC   C2B23204  36.055  41.793   8.253
 6643POPC   C3B23205  36.033  41.758   7.953
 6643POPC   C4B23206  35.988  41.787   7.653
 6644POPC   NC323207  37.649  20.620   9.453
 6644POPC   PO423208  37.662  20.623   9.153
 6644POPC   GL123209  37.654  20.593   8.853
 6644POPC   GL223210  37.756  20.570   8.853
 6644POPC   C1A23211  37.701  20.564   8.553
 6644POPC   D2A23212  37.667  20.622   8.253
 6644POPC   C3A23213  37.716  20.603   7.953
 6644POPC   C4A23214  37.664  20.599   7.653
 6644POPC   C1B23215  37.836  20.453   8.553
 6644POPC   C2B23216  37.865  20.469   8.253
 6644POPC   C3B23217  37.859  20.455   7.953
 6644POPC   C4B23218  37.896  20.456   7.653
 6645POPC   NC323219   1.943  36.888   9.453
 6645POPC   PO423220   1.943  36.870   9.153
 6645POPC   GL123221   1.961  36.890   8.853
 6645POPC   GL223222   2.108  36.951   8.853
 6645POPC   C1A23223   2.004  36.879   8.553
 6645POPC   D2A23224   1.941  36.918   8.253
 6645POPC   C3A23225   2.006  36.942   7.953
 6645POPC   C4A23226   1.985  36.877   7.653
 6645POPC   C1B23227   2.173  37.117   8.553
 6645POPC   C2B23228   2.182  37.119   8.253
 6645POPC   C3B23229   2.131  37.122   7.953
 6645POPC   C4B23230   2.151  37.098   7.653
 6646POPC   NC323231   2.814  41.551   9.453
 6646POPC   PO423232   2.774  41.592   9.153
 6646POPC   GL123233   2.743  41.604   8.853
 6646POPC   GL223234   2.823  41.690   8.853
 6646POPC   C1A23235   2.773  41.555   8.553
 6646POPC   D2A23236   2.749  41.538   8.253
 6646POPC   C3A23237   2.758  41.603   7.953
 6646POPC   C4A23238   2.719  41.560   7.653
 6646POPC   C1B23239   2.920  41.823   8.553
 6646POPC   C2B23240   2.901  41.736   8.253
 6646POPC   C3B23241   2.904  41.759   7.953
 6646POPC   C4B23242   2.909  41.766   7.653
 6647POPC   NC323243  30.734  36.090   9.453
 6647POPC   PO423244  30.684  36.131   9.153
 6647POPC   GL123245  30.698  36.155   8.853
 6647POPC   GL223246  30.575  36.108   8.853
 6647POPC   C1A23247  30.704  36.178   8.553
 6647POPC   D2A23248  30.696  36.101   8.253
 6647POPC   C3A23249  30.743  36.153   7.953
 6647POPC   C4A23250  30.726  36.125   7.653
 6647POPC   C1B23251  30.483  36.062   8.553
 6647POPC   C2B23252  30.516  36.034   8.253
 6647POPC   C3B23253  30.431  36.041   7.953
 6647POPC   C4B23254  30.471  36.045   7.653
 6648POPC   NC323255  22.926  13.604   9.453
 6648POPC   PO423256  22.936  13.613   9.153
 6648POPC   GL123257  22.894  13.602   8.853
 6648POPC   GL223258  23.083  13.663   8.853
 6648POPC   C1A23259  22.899  13.655   8.553
 6648POPC   D2A23260  22.935  13.664   8.253
 6648POPC   C3A23261  22.901  13.583   7.953
 6648POPC   C4A23262  22.958  13.678   7.653
 6648POPC   C1B23263  23.114  13.830   8.553
 6648POPC   C2B23264  23.100  13.741   8.253
 6648POPC   C3B23265  23.131  13.829   7.953
 6648POPC   C4B23266  23.111  13.782   7.653
 6649POPC   NC323267  26.830  33.841   9.453
 6649POPC   PO423268  26.839  33.820   9.153
 6649POPC   GL123269  26.849  33.805   8.853
 6649POPC   GL223270  26.724  33.851   8.853
 6649POPC   C1A23271  26.805  33.817   8.553
 6649POPC   D2A23272  26.839  33.809   8.253
 6649POPC   C3A23273  26.811  33.813   7.953
 6649POPC   C4A23274  26.813  33.831   7.653
 6649POPC   C1B23275  26.642  33.959   8.553
 6649POPC   C2B23276  26.622  34.010   8.253
 6649POPC   C3B23277  26.657  34.027   7.953
 6649POPC   C4B23278  26.597  33.979   7.653
 6650POPC   NC323279  17.506   4.342   9.453
 6650POPC   PO423280  17.491   4.315   9.153
 6650POPC   GL123281  17.477   4.334   8.853
 6650POPC   GL223282  17.653   4.379   8.853
 6650POPC   C1A23283  17.533   4.293   8.553
 6650POPC   D2A23284  17.504   4.273   8.253
 6650POPC   C3A23285  17.511   4.297   7.953
 6650POPC   C4A23286  17.493   4.280   7.653
 6650POPC   C1B23287  17.711   4.512   8.553
 6650POPC   C2B23288  17.718   4.423   8.253
 6650POPC   C3B23289  17.670   4.444   7.953
 6650POPC   C4B23290  17.703   4.518   7.653
 6651POPC   NC323291  31.430  39.261   9.453
 6651POPC   PO423292  31.433  39.258   9.153
 6651POPC   GL123293  31.499  39.187   8.853
 6651POPC   GL223294  31.377  39.241   8.853
 6651POPC   C1A23295  31.430  39.211   8.553
 6651POPC   D2A23296  31.513  39.266   8.253
 6651POPC   C3A23297  31.507  39.251   7.953
 6651POPC   C4A23298  31.470  39.250   7.653
 6651POPC   C1B23299  31.183  39.276   8.553
 6651POPC   C2B23300  31.219  39.298   8.253
 6651POPC   C3B23301  31.264  39.316   7.953
 6651POPC   C4B23302  31.234  39.291   7.653
 6652POPC   NC323303  20.657  30.722   9.453
 6652POPC   PO423304  20.565  30.726   9.153
 6652POPC   GL123305  20.603  30.667   8.853
 6652POPC   GL223306  20.739  30.679   8.853
 6652POPC   C1A23307  20.571  30.706   8.553
 6652POPC   D2A23308  20.592  30.666   8.253
 6652POPC   C3A23309  20.569  30.723   7.953
 6652POPC   C4A23310  20.595  30.717   7.653
 6652POPC   C1B23311  20.877  30.626   8.553
 6652POPC   C2B23312  20.900  30.631   8.253
 6652POPC   C3B23313  20.843  30.607   7.953
 6652POPC   C4B23314  20.872  30.610   7.653
 6653POPC   NC323315  33.021  35.357   9.453
 6653POPC   PO423316  33.049  35.363   9.153
 6653POPC   GL123317  33.023  35.371   8.853
 6653POPC   GL223318  33.164  35.339   8.853
 6653POPC   C1A23319  32.979  35.377   8.553
 6653POPC   D2A23320  33.034  35.376   8.253
 6653POPC   C3A23321  33.045  35.322   7.953
 6653POPC   C4A23322  33.049  35.311   7.653
 6653POPC   C1B23323  33.232  35.231   8.553
 6653POPC   C2B23324  33.238  35.230   8.253
 6653POPC   C3B23325  33.217  35.254   7.953
 6653POPC   C4B23326  33.248  35.242   7.653
 6654POPC   NC323327  22.930  35.305   9.453
 6654POPC   PO423328  22.982  35.375   9.153
 6654POPC   GL123329  22.934  35.313   8.853
 6654POPC   GL223330  22.860  35.455   8.853
 6654POPC   C1A23331  22.968  35.397   8.553
 6654POPC   D2A23332  22.935  35.304   8.253
 6654POPC   C3A23333  22.927  35.307   7.953
 6654POPC   C4A23334  22.893  35.303   7.653
 6654POPC   C1B23335  22.824  35.617   8.553
 6654POPC   C2B23336  22.789  35.583   8.253
 6654POPC   C3B23337  22.780  35.544   7.953
 6654POPC   C4B23338  22.827  35.534   7.653
 6655POPC   NC323339  33.031  33.027   9.453
 6655POPC   PO423340  32.991  33.073   9.153
 6655POPC   GL123341  33.056  33.060   8.853
 6655POPC   GL223342  32.946  32.988   8.853
 6655POPC   C1A23343  33.001  33.018   8.553
 6655POPC   D2A23344  33.045  33.038   8.253
 6655POPC   C3A23345  32.982  32.996   7.953
 6655POPC   C4A23346  33.026  33.064   7.653
 6655POPC   C1B23347  32.800  32.938   8.553
 6655POPC   C2B23348  32.825  32.997   8.253
 6655POPC   C3B23349  32.787  32.991   7.953
 6655POPC   C4B23350  32.782  32.923   7.653
 6656POPC   NC323351  14.386   0.442   9.453
 6656POPC   PO423352  14.371   0.418   9.153
 6656POPC   GL123353  14.374   0.409   8.853
 6656POPC   GL223354  14.351   0.323   8.853
 6656POPC   C1A23355  14.421   0.466   8.553
 6656POPC   D2A23356  14.394   0.412   8.253
 6656POPC   C3A23357  14.361   0.436   7.953
 6656POPC   C4A23358  14.359   0.418   7.653
 6656POPC   C1B23359  14.326   0.187   8.553
 6656POPC   C2B23360  14.408   0.233   8.253
 6656POPC   C3B23361  14.396   0.155   7.953
 6656POPC   C4B23362  14.411   0.172   7.653
 6657POPC   NC323363  38.458  21.403   9.453
 6657POPC   PO423364  38.464  21.384   9.153
 6657POPC   GL123365  38.492  21.371   8.853
 6657POPC   GL223366  38.316  21.374   8.853
 6657POPC   C1A23367  38.457  21.356   8.553
 6657POPC   D2A23368  38.425  21.383   8.253
 6657POPC   C3A23369  38.503  21.338   7.953
 6657POPC   C4A23370  38.434  21.430   7.653
 6657POPC   C1B23371  38.217  21.400   8.553
 6657POPC   C2B23372  38.172  21.360   8.253
 6657POPC   C3B23373  38.184  21.315   7.953
 6657POPC   C4B23374  38.224  21.390   7.653
 6658POPC   NC323375  35.349  14.386   9.453
 6658POPC   PO423376  35.337  14.444   9.153
 6658POPC   GL123377  35.364  14.400   8.853
 6658POPC   GL223378  35.449  14.402   8.853
 6658POPC   C1A23379  35.350  14.424   8.553
 6658POPC   D2A23380  35.345  14.416   8.253
 6658POPC   C3A23381  35.355  14.422   7.953
 6658POPC   C4A23382  35.351  14.359   7.653
 6658POPC   C1B23383  35.606  14.318   8.553
 6658POPC   C2B23384  35.566  14.280   8.253
 6658POPC   C3B23385  35.543  14.357   7.953
 6658POPC   C4B23386  35.543  14.323   7.653
 6659POPC   NC323387  16.746  10.518   9.453
 6659POPC   PO423388  16.767  10.565   9.153
 6659POPC   GL123389  16.726  10.487   8.853
 6659POPC   GL223390  16.860  10.598   8.853
 6659POPC   C1A23391  16.721  10.531   8.553
 6659POPC   D2A23392  16.744  10.478   8.253
 6659POPC   C3A23393  16.718  10.504   7.953
 6659POPC   C4A23394  16.764  10.573   7.653
 6659POPC   C1B23395  16.998  10.620   8.553
 6659POPC   C2B23396  16.940  10.587   8.253
 6659POPC   C3B23397  16.972  10.608   7.953
 6659POPC   C4B23398  16.944  10.629   7.653
 6660POPC   NC323399  21.383  37.708   9.453
 6660POPC   PO423400  21.350  37.722   9.153
 6660POPC   GL123401  21.383  37.703   8.853
 6660POPC   GL223402  21.307  37.781   8.853
 6660POPC   C1A23403  21.368  37.657   8.553
 6660POPC   D2A23404  21.399  37.665   8.253
 6660POPC   C3A23405  21.363  37.712   7.953
 6660POPC   C4A23406  21.356  37.681   7.653
 6660POPC   C1B23407  21.181  37.782   8.553
 6660POPC   C2B23408  21.175  37.821   8.253
 6660POPC   C3B23409  21.203  37.830   7.953
 6660POPC   C4B23410  21.212  37.820   7.653
 6661POPC   NC323411  38.501   1.980   9.453
 6661POPC   PO423412  38.457   1.951   9.153
 6661POPC   GL123413  38.433   1.950   8.853
 6661POPC   GL223414  38.496   1.849   8.853
 6661POPC   C1A23415  38.414   2.019   8.553
 6661POPC   D2A23416  38.422   1.982   8.253
 6661POPC   C3A23417  38.437   1.964   7.953
 6661POPC   C4A23418  38.458   1.968   7.653
 6661POPC   C1B23419  38.551   1.802   8.553
 6661POPC   C2B23420  38.599   1.761   8.253
 6661POPC   C3B23421  38.583   1.739   7.953
 6661POPC   C4B23422  38.606   1.805   7.653
 6662POPC   NC323423  11.313  12.814   9.453
 6662POPC   PO423424  11.283  12.850   9.153
 6662POPC   GL123425  11.288  12.860   8.853
 6662POPC   GL223426  11.338  13.001   8.853
 6662POPC   C1A23427  11.329  12.880   8.553
 6662POPC   D2A23428  11.309  12.879   8.253
 6662POPC   C3A23429  11.314  12.819   7.953
 6662POPC   C4A23430  11.326  12.814   7.653
 6662POPC   C1B23431  11.256  13.076   8.553
 6662POPC   C2B23432  11.285  13.135   8.253
 6662POPC   C3B23433  11.262  13.076   7.953
 6662POPC   C4B23434  11.320  13.057   7.653
 6663POPC   NC323435  28.375  29.936   9.453
 6663POPC   PO423436  28.328  29.893   9.153
 6663POPC   GL123437  28.416  29.886   8.853
 6663POPC   GL223438  28.363  29.845   8.853
 6663POPC   C1A23439  28.354  29.966   8.553
 6663POPC   D2A23440  28.329  29.933   8.253
 6663POPC   C3A23441  28.377  29.954   7.953
 6663POPC   C4A23442  28.389  29.906   7.653
 6663POPC   C1B23443  28.401  29.699   8.553
 6663POPC   C2B23444  28.487  29.680   8.253
 6663POPC   C3B23445  28.482  29.643   7.953
 6663POPC   C4B23446  28.430  29.663   7.653
 6664POPC   NC323447   7.453  20.590   9.453
 6664POPC   PO423448   7.456  20.624   9.153
 6664POPC   GL123449   7.453  20.660   8.853
 6664POPC   GL223450   7.476  20.744   8.853
 6664POPC   C1A23451   7.420  20.571   8.553
 6664POPC   D2A23452   7.429  20.648   8.253
 6664POPC   C3A23453   7.423  20.589   7.953
 6664POPC   C4A23454   7.464  20.603   7.653
 6664POPC   C1B23455   7.566  20.801   8.553
 6664POPC   C2B23456   7.527  20.843   8.253
 6664POPC   C3B23457   7.584  20.861   7.953
 6664POPC   C4B23458   7.536  20.786   7.653
 6665POPC   NC323459  10.520  23.671   9.453
 6665POPC   PO423460  10.505  23.709   9.153
 6665POPC   GL123461  10.567  23.666   8.853
 6665POPC   GL223462  10.375  23.789   8.853
 6665POPC   C1A23463  10.523  23.705   8.553
 6665POPC   D2A23464  10.509  23.709   8.253
 6665POPC   C3A23465  10.557  23.678   7.953
 6665POPC   C4A23466  10.480  23.757   7.653
 6665POPC   C1B23467  10.311  23.854   8.553
 6665POPC   C2B23468  10.362  23.841   8.253
 6665POPC   C3B23469  10.322  23.843   7.953
 6665POPC   C4B23470  10.321  23.832   7.653
 6666POPC   NC323471  39.241  12.811   9.453
 6666POPC   PO423472  39.216  12.827   9.153
 6666POPC   GL123473  39.247  12.886   8.853
 6666POPC   GL223474  39.122  12.831   8.853
 6666POPC   C1A23475  39.279  12.869   8.553
 6666POPC   D2A23476  39.215  12.878   8.253
 6666POPC   C3A23477  39.229  12.887   7.953
 6666POPC   C4A23478  39.217  12.837   7.653
 6666POPC   C1B23479  38.936  12.921   8.553
 6666POPC   C2B23480  38.957  12.919   8.253
 6666POPC   C3B23481  38.969  12.862   7.953
 6666POPC   C4B23482  38.994  12.870   7.653
 6667POPC   NC323483  28.412  27.589   9.453
 6667POPC   PO423484  28.380  27.630   9.153
 6667POPC   GL123485  28.373  27.603   8.853
 6667POPC   GL223486  28.243  27.723   8.853
 6667POPC   C1A23487  28.375  27.583   8.553
 6667POPC   D2A23488  28.329  27.617   8.253
 6667POPC   C3A23489  28.364  27.579   7.953
 6667POPC   C4A23490  28.399  27.625   7.653
 6667POPC   C1B23491  28.211  27.709   8.553
 6667POPC   C2B23492  28.215  27.726   8.253
 6667POPC   C3B23493  28.144  27.735   7.953
 6667POPC   C4B23494  28.212  27.767   7.653
 6668POPC   NC323495  22.184  17.461   9.453
 6668POPC   PO423496  22.208  17.544   9.153
 6668POPC   GL123497  22.171  17.513   8.853
 6668POPC   GL223498  22.204  17.374   8.853
 6668POPC   C1A23499  22.187  17.526   8.553
 6668POPC   D2A23500  22.183  17.508   8.253
 6668POPC   C3A23501  22.133  17.550   7.953
 6668POPC   C4A23502  22.158  17.467   7.653
 6668POPC   C1B23503  22.180  17.253   8.553
 6668POPC   C2B23504  22.178  17.278   8.253
 6668POPC   C3B23505  22.111  17.270   7.953
 6668POPC   C4B23506  22.154  17.265   7.653
 6669POPC   NC323507   4.359  20.621   9.453
 6669POPC   PO423508   4.363  20.604   9.153
 6669POPC   GL123509   4.292  20.590   8.853
 6669POPC   GL223510   4.162  20.540   8.853
 6669POPC   C1A23511   4.299  20.631   8.553
 6669POPC   D2A23512   4.318  20.594   8.253
 6669POPC   C3A23513   4.285  20.629   7.953
 6669POPC   C4A23514   4.333  20.628   7.653
 6669POPC   C1B23515   4.099  20.516   8.553
 6669POPC   C2B23516   4.045  20.536   8.253
 6669POPC   C3B23517   4.093  20.521   7.953
 6669POPC   C4B23518   4.142  20.475   7.653
 6670POPC   NC323519  15.138  27.606   9.453
 6670POPC   PO423520  15.213  27.546   9.153
 6670POPC   GL123521  15.147  27.582   8.853
 6670POPC   GL223522  15.228  27.694   8.853
 6670POPC   C1A23523  15.145  27.599   8.553
 6670POPC   D2A23524  15.200  27.566   8.253
 6670POPC   C3A23525  15.145  27.546   7.953
 6670POPC   C4A23526  15.158  27.601   7.653
 6670POPC   C1B23527  15.212  27.839   8.553
 6670POPC   C2B23528  15.289  27.782   8.253
 6670POPC   C3B23529  15.225  27.836   7.953
 6670POPC   C4B23530  15.287  27.835   7.653
 6671POPC   NC323531   2.778  14.420   9.453
 6671POPC   PO423532   2.814  14.373   9.153
 6671POPC   GL123533   2.801  14.407   8.853
 6671POPC   GL223534   2.791  14.513   8.853
 6671POPC   C1A23535   2.753  14.401   8.553
 6671POPC   D2A23536   2.755  14.439   8.253
 6671POPC   C3A23537   2.727  14.420   7.953
 6671POPC   C4A23538   2.734  14.416   7.653
 6671POPC   C1B23539   2.903  14.658   8.553
 6671POPC   C2B23540   2.844  14.618   8.253
 6671POPC   C3B23541   2.834  14.629   7.953
 6671POPC   C4B23542   2.841  14.582   7.653
 6672POPC   NC323543  22.963  15.166   9.453
 6672POPC   PO423544  22.985  15.193   9.153
 6672POPC   GL123545  22.942  15.143   8.853
 6672POPC   GL223546  22.853  15.309   8.853
 6672POPC   C1A23547  22.907  15.186   8.553
 6672POPC   D2A23548  22.938  15.194   8.253
 6672POPC   C3A23549  22.930  15.171   7.953
 6672POPC   C4A23550  22.984  15.177   7.653
 6672POPC   C1B23551  22.781  15.322   8.553
 6672POPC   C2B23552  22.725  15.337   8.253
 6672POPC   C3B23553  22.722  15.368   7.953
 6672POPC   C4B23554  22.706  15.342   7.653
 6673POPC   NC323555  43.890   3.567   9.453
 6673POPC   PO423556  43.878   3.534   9.153
 6673POPC   GL123557  43.871   3.500   8.853
 6673POPC   GL223558  43.968   3.585   8.853
 6673POPC   C1A23559  43.871   3.505   8.553
 6673POPC   D2A23560  43.908   3.547   8.253
 6673POPC   C3A23561  43.837   3.561   7.953
 6673POPC   C4A23562  43.879   3.504   7.653
 6673POPC   C1B23563  44.021   3.706   8.553
 6673POPC   C2B23564  44.016   3.702   8.253
 6673POPC   C3B23565  44.102   3.700   7.953
 6673POPC   C4B23566  44.075   3.669   7.653
 6674POPC   NC323567   9.750  16.768   9.453
 6674POPC   PO423568   9.759  16.772   9.153
 6674POPC   GL123569   9.729  16.682   8.853
 6674POPC   GL223570   9.776  16.583   8.853
 6674POPC   C1A23571   9.752  16.776   8.553
 6674POPC   D2A23572   9.792  16.753   8.253
 6674POPC   C3A23573   9.740  16.739   7.953
 6674POPC   C4A23574   9.764  16.751   7.653
 6674POPC   C1B23575   9.827  16.466   8.553
 6674POPC   C2B23576   9.802  16.529   8.253
 6674POPC   C3B23577   9.782  16.473   7.953
 6674POPC   C4B23578   9.788  16.476   7.653
 6675POPC   NC323579   5.094  13.613   9.453
 6675POPC   PO423580   5.083  13.595   9.153
 6675POPC   GL123581   5.100  13.584   8.853
 6675POPC   GL223582   5.031  13.568   8.853
 6675POPC   C1A23583   5.116  13.613   8.553
 6675POPC   D2A23584   5.060  13.642   8.253
 6675POPC   C3A23585   5.122  13.633   7.953
 6675POPC   C4A23586   5.136  13.579   7.653
 6675POPC   C1B23587   4.864  13.447   8.553
 6675POPC   C2B23588   4.939  13.492   8.253
 6675POPC   C3B23589   4.882  13.463   7.953
 6675POPC   C4B23590   4.898  13.458   7.653
 6676POPC   NC323591   8.971  23.739   9.453
 6676POPC   PO423592   9.022  23.763   9.153
 6676POPC   GL123593   9.015  23.745   8.853
 6676POPC   GL223594   9.085  23.607   8.853
 6676POPC   C1A23595   8.962  23.671   8.553
 6676POPC   D2A23596   9.006  23.748   8.253
 6676POPC   C3A23597   8.990  23.715   7.953
 6676POPC   C4A23598   8.928  23.719   7.653
 6676POPC   C1B23599   9.132  23.470   8.553
 6676POPC   C2B23600   9.122  23.512   8.253
 6676POPC   C3B23601   9.056  23.452   7.953
 6676POPC   C4B23602   9.062  23.475   7.653
 6677POPC   NC323603  36.088  39.197   9.453
 6677POPC   PO423604  36.098  39.230   9.153
 6677POPC   GL123605  36.129  39.281   8.853
 6677POPC   GL223606  36.143  39.338   8.853
 6677POPC   C1A23607  36.123  39.198   8.553
 6677POPC   D2A23608  36.125  39.198   8.253
 6677POPC   C3A23609  36.116  39.213   7.953
 6677POPC   C4A23610  36.085  39.187   7.653
 6677POPC   C1B23611  36.111  39.493   8.553
 6677POPC   C2B23612  36.100  39.458   8.253
 6677POPC   C3B23613  36.097  39.450   7.953
 6677POPC   C4B23614  36.100  39.510   7.653
 6678POPC   NC323615  42.331  19.814   9.453
 6678POPC   PO423616  42.331  19.877   9.153
 6678POPC   GL123617  42.291  19.826   8.853
 6678POPC   GL223618  42.287  19.739   8.853
 6678POPC   C1A23619  42.346  19.873   8.553
 6678POPC   D2A23620  42.370  19.819   8.253
 6678POPC   C3A23621  42.372  19.798   7.953
 6678POPC   C4A23622  42.339  19.841   7.653
 6678POPC   C1B23623  42.114  19.686   8.553
 6678POPC   C2B23624  42.195  19.638   8.253
 6678POPC   C3B23625  42.160  19.642   7.953
 6678POPC   C4B23626  42.112  19.631   7.653
 6679POPC   NC323627  36.913  40.025   9.453
 6679POPC   PO423628  36.901  40.013   9.153
 6679POPC   GL123629  36.929  40.039   8.853
 6679POPC   GL223630  36.963  39.852   8.853
 6679POPC   C1A23631  36.924  40.046   8.553
 6679POPC   D2A23632  36.880  39.998   8.253
 6679POPC   C3A23633  36.889  39.969   7.953
 6679POPC   C4A23634  36.934  40.014   7.653
 6679POPC   C1B23635  36.983  39.751   8.553
 6679POPC   C2B23636  36.965  39.782   8.253
 6679POPC   C3B23637  36.949  39.710   7.953
 6679POPC   C4B23638  36.970  39.761   7.653
 6680POPC   NC323639  14.355  43.851   9.453
 6680POPC   PO423640  14.444  43.856   9.153
 6680POPC   GL123641  14.394  43.871   8.853
 6680POPC   GL223642  14.544  43.898   8.853
 6680POPC   C1A23643  14.379  43.853   8.553
 6680POPC   D2A23644  14.430  43.893   8.253
 6680POPC   C3A23645  14.435  43.842   7.953
 6680POPC   C4A23646  14.451  43.837   7.653
 6680POPC   C1B23647  14.622  43.950   8.553
 6680POPC   C2B23648  14.642  43.986   8.253
 6680POPC   C3B23649  14.671  43.926   7.953
 6680POPC   C4B23650  14.619  43.952   7.653
 6681POPC   NC323651   2.731  21.353   9.453
 6681POPC   PO423652   2.732  21.423   9.153
 6681POPC   GL123653   2.720  21.400   8.853
 6681POPC   GL223654   2.801  21.486   8.853
 6681POPC   C1A23655   2.764  21.348   8.553
 6681POPC   D2A23656   2.721  21.431   8.253
 6681POPC   C3A23657   2.802  21.384   7.953
 6681POPC   C4A23658   2.785  21.341   7.653
 6681POPC   C1B23659   2.860  21.655   8.553
 6681POPC   C2B23660   2.833  21.578   8.253
 6681POPC   C3B23661   2.871  21.644   7.953
 6681POPC   C4B23662   2.874  21.624   7.653
 6682POPC   NC323663  14.361   2.736   9.453
 6682POPC   PO423664  14.383   2.745   9.153
 6682POPC   GL123665  14.423   2.789   8.853
 6682POPC   GL223666  14.478   2.648   8.853
 6682POPC   C1A23667  14.424   2.745   8.553
 6682POPC   D2A23668  14.376   2.779   8.253
 6682POPC   C3A23669  14.442   2.777   7.953
 6682POPC   C4A23670  14.392   2.736   7.653
 6682POPC   C1B23671  14.526   2.575   8.553
 6682POPC   C2B23672  14.495   2.531   8.253
 6682POPC   C3B23673  14.477   2.563   7.953
 6682POPC   C4B23674  14.478   2.543   7.653
 6683POPC   NC323675  12.895  19.821   9.453
 6683POPC   PO423676  12.820  19.877   9.153
 6683POPC   GL123677  12.812  19.798   8.853
 6683POPC   GL223678  12.782  19.787   8.853
 6683POPC   C1A23679  12.877  19.863   8.553
 6683POPC   D2A23680  12.878  19.864   8.253
 6683POPC   C3A23681  12.900  19.817   7.953
 6683POPC   C4A23682  12.893  19.806   7.653
 6683POPC   C1B23683  12.637  19.618   8.553
 6683POPC   C2B23684  12.683  19.664   8.253
 6683POPC   C3B23685  12.697  19.614   7.953
 6683POPC   C4B23686  12.732  19.662   7.653
 6684POPC   NC323687  36.916  26.865   9.453
 6684POPC   PO423688  36.950  26.807   9.153
 6684POPC   GL123689  36.923  26.842   8.853
 6684POPC   GL223690  36.782  26.742   8.853
 6684POPC   C1A23691  36.945  26.803   8.553
 6684POPC   D2A23692  36.946  26.778   8.253
 6684POPC   C3A23693  36.942  26.865   7.953
 6684POPC   C4A23694  36.905  26.824   7.653
 6684POPC   C1B23695  36.694  26.784   8.553
 6684POPC   C2B23696  36.688  26.687   8.253
 6684POPC   C3B23697  36.659  26.749   7.953
 6684POPC   C4B23698  36.623  26.735   7.653
 6685POPC   NC323699   8.180  37.721   9.453
 6685POPC   PO423700   8.187  37.705   9.153
 6685POPC   GL123701   8.232  37.648   8.853
 6685POPC   GL223702   8.157  37.792   8.853
 6685POPC   C1A23703   8.232  37.663   8.553
 6685POPC   D2A23704   8.189  37.660   8.253
 6685POPC   C3A23705   8.201  37.715   7.953
 6685POPC   C4A23706   8.208  37.634   7.653
 6685POPC   C1B23707   8.052  37.891   8.553
 6685POPC   C2B23708   8.071  37.936   8.253
 6685POPC   C3B23709   8.081  37.858   7.953
 6685POPC   C4B23710   8.070  37.875   7.653
 6686POPC   NC323711  29.956   4.336   9.453
 6686POPC   PO423712  29.941   4.270   9.153
 6686POPC   GL123713  29.966   4.353   8.853
 6686POPC   GL223714  30.014   4.334   8.853
 6686POPC   C1A23715  29.902   4.280   8.553
 6686POPC   D2A23716  29.922   4.346   8.253
 6686POPC   C3A23717  29.896   4.275   7.953
 6686POPC   C4A23718  29.919   4.293   7.653
 6686POPC   C1B23719  30.203   4.377   8.553
 6686POPC   C2B23720  30.193   4.360   8.253
 6686POPC   C3B23721  30.200   4.409   7.953
 6686POPC   C4B23722  30.163   4.350   7.653
 6687POPC   NC323723  23.761  10.527   9.453
 6687POPC   PO423724  23.674  10.475   9.153
 6687POPC   GL123725  23.692  10.511   8.853
 6687POPC   GL223726  23.619  10.473   8.853
 6687POPC   C1A23727  23.755  10.537   8.553
 6687POPC   D2A23728  23.696  10.483   8.253
 6687POPC   C3A23729  23.666  10.543   7.953
 6687POPC   C4A23730  23.687  10.520   7.653
 6687POPC   C1B23731  23.595  10.342   8.553
 6687POPC   C2B23732  23.545  10.384   8.253
 6687POPC   C3B23733  23.520  10.315   7.953
 6687POPC   C4B23734  23.593  10.353   7.653
 6688POPC   NC323735  19.858  24.469   9.453
 6688POPC   PO423736  19.800  24.472   9.153
 6688POPC   GL123737  19.847  24.522   8.853
 6688POPC   GL223738  19.981  24.514   8.853
 6688POPC   C1A23739  19.790  24.459   8.553
 6688POPC   D2A23740  19.849  24.536   8.253
 6688POPC   C3A23741  19.831  24.539   7.953
 6688POPC   C4A23742  19.838  24.491   7.653
 6688POPC   C1B23743  20.098  24.525   8.553
 6688POPC   C2B23744  20.103  24.579   8.253
 6688POPC   C3B23745  20.046  24.549   7.953
 6688POPC   C4B23746  20.030  24.541   7.653
 6689POPC   NC323747  15.226  42.324   9.453
 6689POPC   PO423748  15.165  42.309   9.153
 6689POPC   GL123749  15.170  42.337   8.853
 6689POPC   GL223750  15.029  42.297   8.853
 6689POPC   C1A23751  15.154  42.290   8.553
 6689POPC   D2A23752  15.150  42.374   8.253
 6689POPC   C3A23753  15.176  42.376   7.953
 6689POPC   C4A23754  15.212  42.345   7.653
 6689POPC   C1B23755  14.910  42.238   8.553
 6689POPC   C2B23756  14.923  42.270   8.253
 6689POPC   C3B23757  14.927  42.232   7.953
 6689POPC   C4B23758  14.960  42.255   7.653
 6690POPC   NC323759  24.503   9.750   9.453
 6690POPC   PO423760  24.481   9.771   9.153
 6690POPC   GL123761  24.446   9.744   8.853
 6690POPC   GL223762  24.390   9.669   8.853
 6690POPC   C1A23763  24.507   9.739   8.553
 6690POPC   D2A23764  24.450   9.741   8.253
 6690POPC   C3A23765  24.476   9.709   7.953
 6690POPC   C4A23766  24.510   9.740   7.653
 6690POPC   C1B23767  24.412   9.555   8.553
 6690POPC   C2B23768  24.412   9.477   8.253
 6690POPC   C3B23769  24.378   9.526   7.953
 6690POPC   C4B23770  24.422   9.536   7.653
 6691POPC   NC323771   2.759  17.474   9.453
 6691POPC   PO423772   2.735  17.557   9.153
 6691POPC   GL123773   2.729  17.519   8.853
 6691POPC   GL223774   2.704  17.383   8.853
 6691POPC   C1A23775   2.791  17.532   8.553
 6691POPC   D2A23776   2.790  17.550   8.253
 6691POPC   C3A23777   2.756  17.506   7.953
 6691POPC   C4A23778   2.728  17.516   7.653
 6691POPC   C1B23779   2.685  17.237   8.553
 6691POPC   C2B23780   2.684  17.289   8.253
 6691POPC   C3B23781   2.691  17.305   7.953
 6691POPC   C4B23782   2.737  17.229   7.653
 6692POPC   NC323783   7.408  11.268   9.453
 6692POPC   PO423784   7.397  11.316   9.153
 6692POPC   GL123785   7.444  11.314   8.853
 6692POPC   GL223786   7.538  11.239   8.853
 6692POPC   C1A23787   7.446  11.337   8.553
 6692POPC   D2A23788   7.469  11.294   8.253
 6692POPC   C3A23789   7.410  11.288   7.953
 6692POPC   C4A23790   7.440  11.292   7.653
 6692POPC   C1B23791   7.694  11.248   8.553
 6692POPC   C2B23792   7.641  11.257   8.253
 6692POPC   C3B23793   7.657  11.300   7.953
 6692POPC   C4B23794   7.711  11.297   7.653
 6693POPC   NC323795   1.172  12.884   9.453
 6693POPC   PO423796   1.212  12.900   9.153
 6693POPC   GL123797   1.246  12.875   8.853
 6693POPC   GL223798   1.272  12.938   8.853
 6693POPC   C1A23799   1.181  12.819   8.553
 6693POPC   D2A23800   1.181  12.807   8.253
 6693POPC   C3A23801   1.244  12.887   7.953
 6693POPC   C4A23802   1.204  12.882   7.653
 6693POPC   C1B23803   1.307  13.084   8.553
 6693POPC   C2B23804   1.295  13.077   8.253
 6693POPC   C3B23805   1.280  13.105   7.953
 6693POPC   C4B23806   1.328  13.054   7.653
 6694POPC   NC323807  20.591  28.336   9.453
 6694POPC   PO423808  20.597  28.397   9.153
 6694POPC   GL123809  20.604  28.399   8.853
 6694POPC   GL223810  20.659  28.440   8.853
 6694POPC   C1A23811  20.576  28.393   8.553
 6694POPC   D2A23812  20.569  28.372   8.253
 6694POPC   C3A23813  20.595  28.392   7.953
 6694POPC   C4A23814  20.605  28.411   7.653
 6694POPC   C1B23815  20.839  28.533   8.553
 6694POPC   C2B23816  20.806  28.496   8.253
 6694POPC   C3B23817  20.799  28.514   7.953
 6694POPC   C4B23818  20.787  28.501   7.653
 6695POPC   NC323819   5.891  22.914   9.453
 6695POPC   PO423820   5.908  22.969   9.153
 6695POPC   GL123821   5.820  22.894   8.853
 6695POPC   GL223822   5.956  22.968   8.853
 6695POPC   C1A23823   5.865  22.892   8.553
 6695POPC   D2A23824   5.901  22.969   8.253
 6695POPC   C3A23825   5.912  22.948   7.953
 6695POPC   C4A23826   5.823  22.942   7.653
 6695POPC   C1B23827   6.101  22.969   8.553
 6695POPC   C2B23828   6.151  23.015   8.253
 6695POPC   C3B23829   6.162  22.962   7.953
 6695POPC   C4B23830   6.119  22.979   7.653
 6696POPC   NC323831  43.909   5.827   9.453
 6696POPC   PO423832  43.871   5.899   9.153
 6696POPC   GL123833  43.866   5.820   8.853
 6696POPC   GL223834  43.753   5.920   8.853
 6696POPC   C1A23835  43.879   5.826   8.553
 6696POPC   D2A23836  43.851   5.899   8.253
 6696POPC   C3A23837  43.918   5.915   7.953
 6696POPC   C4A23838  43.854   5.880   7.653
 6696POPC   C1B23839  43.640   5.975   8.553
 6696POPC   C2B23840  43.659   6.015   8.253
 6696POPC   C3B23841  43.688   5.942   7.953
 6696POPC   C4B23842  43.643   6.010   7.653
 6697POPC   NC323843   8.158  11.274   9.453
 6697POPC   PO423844   8.219  11.305   9.153
 6697POPC   GL123845   8.147  11.251   8.853
 6697POPC   GL223846   8.326  11.420   8.853
 6697POPC   C1A23847   8.159  11.341   8.553
 6697POPC   D2A23848   8.237  11.318   8.253
 6697POPC   C3A23849   8.216  11.329   7.953
 6697POPC   C4A23850   8.230  11.301   7.653
 6697POPC   C1B23851   8.358  11.481   8.553
 6697POPC   C2B23852   8.327  11.486   8.253
 6697POPC   C3B23853   8.345  11.467   7.953
 6697POPC   C4B23854   8.354  11.451   7.653
 6698POPC   NC323855  19.834  27.620   9.453
 6698POPC   PO423856  19.788  27.597   9.153
 6698POPC   GL123857  19.853  27.619   8.853
 6698POPC   GL223858  19.735  27.530   8.853
 6698POPC   C1A23859  19.819  27.620   8.553
 6698POPC   D2A23860  19.832  27.638   8.253
 6698POPC   C3A23861  19.883  27.637   7.953
 6698POPC   C4A23862  19.803  27.557   7.653
 6698POPC   C1B23863  19.585  27.582   8.553
 6698POPC   C2B23864  19.552  27.588   8.253
 6698POPC   C3B23865  19.613  27.560   7.953
 6698POPC   C4B23866  19.612  27.501   7.653
 6699POPC   NC323867   5.051  17.495   9.453
 6699POPC   PO423868   5.130  17.521   9.153
 6699POPC   GL123869   5.051  17.550   8.853
 6699POPC   GL223870   5.107  17.344   8.853
 6699POPC   C1A23871   5.111  17.494   8.553
 6699POPC   D2A23872   5.076  17.517   8.253
 6699POPC   C3A23873   5.086  17.475   7.953
 6699POPC   C4A23874   5.114  17.531   7.653
 6699POPC   C1B23875   5.050  17.247   8.553
 6699POPC   C2B23876   4.987  17.246   8.253
 6699POPC   C3B23877   5.072  17.223   7.953
 6699POPC   C4B23878   5.082  17.243   7.653
 6700POPC   NC323879   2.734  35.402   9.453
 6700POPC   PO423880   2.745  35.336   9.153
 6700POPC   GL123881   2.735  35.378   8.853
 6700POPC   GL223882   2.668  35.271   8.853
 6700POPC   C1A23883   2.754  35.331   8.553
 6700POPC   D2A23884   2.772  35.388   8.253
 6700POPC   C3A23885   2.755  35.398   7.953
 6700POPC   C4A23886   2.815  35.398   7.653
 6700POPC   C1B23887   2.541  35.251   8.553
 6700POPC   C2B23888   2.533  35.288   8.253
 6700POPC   C3B23889   2.535  35.265   7.953
 6700POPC   C4B23890   2.524  35.288   7.653
 6701POPC   NC323891  29.949  43.859   9.453
 6701POPC   PO423892  29.904  43.922   9.153
 6701POPC   GL123893  29.918  43.843   8.853
 6701POPC   GL223894  30.017  43.914   8.853
 6701POPC   C1A23895  29.931  43.903   8.553
 6701POPC   D2A23896  29.927  43.866   8.253
 6701POPC   C3A23897  29.939  43.918   7.953
 6701POPC   C4A23898  29.889  43.842   7.653
 6701POPC   C1B23899  30.149  43.910   8.553
 6701POPC   C2B23900  30.183  43.985   8.253
 6701POPC   C3B23901  30.137  43.945   7.953
 6701POPC   C4B23902  30.114  43.948   7.653
 6702POPC   NC323903  28.409  11.271   9.453
 6702POPC   PO423904  28.384  11.253   9.153
 6702POPC   GL123905  28.408  11.314   8.853
 6702POPC   GL223906  28.465  11.176   8.853
 6702POPC   C1A23907  28.354  11.287   8.553
 6702POPC   D2A23908  28.401  11.255   8.253
 6702POPC   C3A23909  28.382  11.302   7.953
 6702POPC   C4A23910  28.363  11.270   7.653
 6702POPC   C1B23911  28.581  11.138   8.553
 6702POPC   C2B23912  28.525  11.105   8.253
 6702POPC   C3B23913  28.598  11.089   7.953
 6702POPC   C4B23914  28.524  11.166   7.653
 6703POPC   NC323915   0.405  29.909   9.453
 6703POPC   PO423916   0.484  29.890   9.153
 6703POPC   GL123917   0.448  29.878   8.853
 6703POPC   GL223918   0.441  30.017   8.853
 6703POPC   C1A23919   0.406  29.924   8.553
 6703POPC   D2A23920   0.454  29.932   8.253
 6703POPC   C3A23921   0.392  29.965   7.953
 6703POPC   C4A23922   0.436  29.874   7.653
 6703POPC   C1B23923   0.334  30.212   8.553
 6703POPC   C2B23924   0.337  30.134   8.253
 6703POPC   C3B23925   0.431  30.179   7.953
 6703POPC   C4B23926   0.349  30.212   7.653
 6704POPC   NC323927  38.415  32.203   9.453
 6704POPC   PO423928  38.430  32.284   9.153
 6704POPC   GL123929  38.418  32.236   8.853
 6704POPC   GL223930  38.620  32.190   8.853
 6704POPC   C1A23931  38.440  32.247   8.553
 6704POPC   D2A23932  38.413  32.289   8.253
 6704POPC   C3A23933  38.504  32.221   7.953
 6704POPC   C4A23934  38.409  32.278   7.653
 6704POPC   C1B23935  38.705  32.226   8.553
 6704POPC   C2B23936  38.685  32.170   8.253
 6704POPC   C3B23937  38.739  32.185   7.953
 6704POPC   C4B23938  38.715  32.243   7.653
 6705POPC   NC323939  11.340  26.829   9.453
 6705POPC   PO423940  11.334  26.784   9.153
 6705POPC   GL123941  11.270  26.816   8.853
 6705POPC   GL223942  11.286  26.677   8.853
 6705POPC   C1A23943  11.267  26.824   8.553
 6705POPC   D2A23944  11.338  26.829   8.253
 6705POPC   C3A23945  11.256  26.808   7.953
 6705POPC   C4A23946  11.344  26.776   7.653
 6705POPC   C1B23947  11.247  26.576   8.553
 6705POPC   C2B23948  11.320  26.583   8.253
 6705POPC   C3B23949  11.245  26.602   7.953
 6705POPC   C4B23950  11.321  26.603   7.653
 6706POPC   NC323951  32.252  38.503   9.453
 6706POPC   PO423952  32.236  38.405   9.153
 6706POPC   GL123953  32.207  38.503   8.853
 6706POPC   GL223954  32.190  38.606   8.853
 6706POPC   C1A23955  32.228  38.415   8.553
 6706POPC   D2A23956  32.249  38.406   8.253
 6706POPC   C3A23957  32.242  38.426   7.953
 6706POPC   C4A23958  32.290  38.497   7.653
 6706POPC   C1B23959  32.174  38.705   8.553
 6706POPC   C2B23960  32.166  38.670   8.253
 6706POPC   C3B23961  32.096  38.641   7.953
 6706POPC   C4B23962  32.136  38.678   7.653
 6707POPC   NC323963  32.256  11.328   9.453
 6707POPC   PO423964  32.288  11.337   9.153
 6707POPC   GL123965  32.252  11.283   8.853
 6707POPC   GL223966  32.293  11.171   8.853
 6707POPC   C1A23967  32.244  11.303   8.553
 6707POPC   D2A23968  32.278  11.272   8.253
 6707POPC   C3A23969  32.221  11.293   7.953
 6707POPC   C4A23970  32.233  11.284   7.653
 6707POPC   C1B23971  32.343  11.026   8.553
 6707POPC   C2B23972  32.348  11.097   8.253
 6707POPC   C3B23973  32.291  11.041   7.953
 6707POPC   C4B23974  32.386  11.018   7.653
 6708POPC   NC323975  32.229  12.096   9.453
 6708POPC   PO423976  32.240  12.096   9.153
 6708POPC   GL123977  32.270  12.069   8.853
 6708POPC   GL223978  32.239  12.226   8.853
 6708POPC   C1A23979  32.240  12.105   8.553
 6708POPC   D2A23980  32.226  12.057   8.253
 6708POPC   C3A23981  32.253  12.121   7.953
 6708POPC   C4A23982  32.250  12.102   7.653
 6708POPC   C1B23983  32.359  12.272   8.553
 6708POPC   C2B23984  32.352  12.333   8.253
 6708POPC   C3B23985  32.316  12.340   7.953
 6708POPC   C4B23986  32.361  12.317   7.653
 6709POPC   NC323987  43.932  32.273   9.453
 6709POPC   PO423988  43.875  32.204   9.153
 6709POPC   GL123989  43.864  32.212   8.853
 6709POPC   GL223990  44.011  32.322   8.853
 6709POPC   C1A23991  43.903  32.282   8.553
 6709POPC   D2A23992  43.874  32.256   8.253
 6709POPC   C3A23993  43.838  32.211   7.953
 6709POPC   C4A23994  43.875  32.248   7.653
 6709POPC   C1B23995  44.139  32.362   8.553
 6709POPC   C2B23996  44.124  32.412   8.253
 6709POPC   C3B23997  44.150  32.359   7.953
 6709POPC   C4B23998  44.096  32.405   7.653
 6710POPC   NC323999  20.590  33.064   9.453
 6710POPC   PO424000  20.601  33.051   9.153
 6710POPC   GL124001  20.660  32.984   8.853
 6710POPC   GL224002  20.675  33.178   8.853
 6710POPC   C1A24003  20.620  33.037   8.553
 6710POPC   D2A24004  20.562  33.027   8.253
 6710POPC   C3A24005  20.598  33.045   7.953
 6710POPC   C4A24006  20.601  32.978   7.653
 6710POPC   C1B24007  20.681  33.270   8.553
 6710POPC   C2B24008  20.681  33.226   8.253
 6710POPC   C3B24009  20.735  33.300   7.953
 6710POPC   C4B24010  20.727  33.255   7.653
 6711POPC   NC324011  33.776  36.132   9.453
 6711POPC   PO424012  33.784  36.122   9.153
 6711POPC   GL124013  33.779  36.091   8.853
 6711POPC   GL224014  33.646  36.116   8.853
 6711POPC   C1A24015  33.795  36.143   8.553
 6711POPC   D2A24016  33.771  36.101   8.253
 6711POPC   C3A24017  33.782  36.117   7.953
 6711POPC   C4A24018  33.838  36.080   7.653
 6711POPC   C1B24019  33.530  36.051   8.553
 6711POPC   C2B24020  33.577  36.131   8.253
 6711POPC   C3B24021  33.515  36.095   7.953
 6711POPC   C4B24022  33.534  36.099   7.653
 6712POPC   NC324023  15.997  22.905   9.453
 6712POPC   PO424024  15.958  22.947   9.153
 6712POPC   GL124025  15.917  22.956   8.853
 6712POPC   GL224026  15.958  23.088   8.853
 6712POPC   C1A24027  15.960  22.927   8.553
 6712POPC   D2A24028  15.961  22.977   8.253
 6712POPC   C3A24029  15.973  22.987   7.953
 6712POPC   C4A24030  15.922  22.900   7.653
 6712POPC   C1B24031  15.947  23.212   8.553
 6712POPC   C2B24032  15.960  23.146   8.253
 6712POPC   C3B24033  15.945  23.203   7.953
 6712POPC   C4B24034  15.931  23.156   7.653
 6713POPC   NC324035  26.802  21.341   9.453
 6713POPC   PO424036  26.784  21.346   9.153
 6713POPC   GL124037  26.865  21.343   8.853
 6713POPC   GL224038  26.739  21.454   8.853
 6713POPC   C1A24039  26.854  21.353   8.553
 6713POPC   D2A24040  26.814  21.430   8.253
 6713POPC   C3A24041  26.833  21.346   7.953
 6713POPC   C4A24042  26.780  21.434   7.653
 6713POPC   C1B24043  26.574  21.477   8.553
 6713POPC   C2B24044  26.586  21.498   8.253
 6713POPC   C3B24045  26.555  21.536   7.953
 6713POPC   C4B24046  26.559  21.456   7.653
 6714POPC   NC324047   5.821  33.013   9.453
 6714POPC   PO424048   5.898  33.050   9.153
 6714POPC   GL124049   5.845  33.034   8.853
 6714POPC   GL224050   5.802  32.963   8.853
 6714POPC   C1A24051   5.912  33.038   8.553
 6714POPC   D2A24052   5.891  32.985   8.253
 6714POPC   C3A24053   5.884  33.005   7.953
 6714POPC   C4A24054   5.858  32.988   7.653
 6714POPC   C1B24055   5.692  32.832   8.553
 6714POPC   C2B24056   5.700  32.833   8.253
 6714POPC   C3B24057   5.639  32.837   7.953
 6714POPC   C4B24058   5.622  32.846   7.653
 6715POPC   NC324059   7.415  29.159   9.453
 6715POPC   PO424060   7.412  29.193   9.153
 6715POPC   GL124061   7.422  29.171   8.853
 6715POPC   GL224062   7.373  29.312   8.853
 6715POPC   C1A24063   7.382  29.135   8.553
 6715POPC   D2A24064   7.454  29.183   8.253
 6715POPC   C3A24065   7.379  29.188   7.953
 6715POPC   C4A24066   7.407  29.129   7.653
 6715POPC   C1B24067   7.300  29.351   8.553
 6715POPC   C2B24068   7.295  29.388   8.253
 6715POPC   C3B24069   7.353  29.354   7.953
 6715POPC   C4B24070   7.292  29.428   7.653
 6716POPC   NC324071  15.907   2.768   9.453
 6716POPC   PO424072  15.954   2.745   9.153
 6716POPC   GL124073  15.935   2.781   8.853
 6716POPC   GL224074  16.108   2.865   8.853
 6716POPC   C1A24075  15.948   2.736   8.553
 6716POPC   D2A24076  15.923   2.802   8.253
 6716POPC   C3A24077  15.946   2.763   7.953
 6716POPC   C4A24078  15.997   2.748   7.653
 6716POPC   C1B24079  16.142   2.900   8.553
 6716POPC   C2B24080  16.148   2.844   8.253
 6716POPC   C3B24081  16.180   2.849   7.953
 6716POPC   C4B24082  16.224   2.918   7.653
 6717POPC   NC324083  19.806  19.829   9.453
 6717POPC   PO424084  19.834  19.848   9.153
 6717POPC   GL124085  19.813  19.788   8.853
 6717POPC   GL224086  19.842  19.742   8.853
 6717POPC   C1A24087  19.829  19.857   8.553
 6717POPC   D2A24088  19.859  19.866   8.253
 6717POPC   C3A24089  19.873  19.847   7.953
 6717POPC   C4A24090  19.871  19.862   7.653
 6717POPC   C1B24091  19.782  19.561   8.553
 6717POPC   C2B24092  19.829  19.571   8.253
 6717POPC   C3B24093  19.834  19.575   7.953
 6717POPC   C4B24094  19.797  19.567   7.653
 6718POPC   NC324095  17.547  27.573   9.453
 6718POPC   PO424096  17.495  27.556   9.153
 6718POPC   GL124097  17.458  27.632   8.853
 6718POPC   GL224098  17.593  27.690   8.853
 6718POPC   C1A24099  17.509  27.546   8.553
 6718POPC   D2A24100  17.513  27.548   8.253
 6718POPC   C3A24101  17.528  27.554   7.953
 6718POPC   C4A24102  17.516  27.615   7.653
 6718POPC   C1B24103  17.702  27.761   8.553
 6718POPC   C2B24104  17.725  27.767   8.253
 6718POPC   C3B24105  17.721  27.752   7.953
 6718POPC   C4B24106  17.739  27.682   7.653
 6719POPC   NC324107  34.549  36.865   9.453
 6719POPC   PO424108  34.596  36.936   9.153
 6719POPC   GL124109  34.575  36.901   8.853
 6719POPC   GL224110  34.551  36.849   8.853
 6719POPC   C1A24111  34.603  36.948   8.553
 6719POPC   D2A24112  34.613  36.855   8.253
 6719POPC   C3A24113  34.559  36.875   7.953
 6719POPC   C4A24114  34.561  36.880   7.653
 6719POPC   C1B24115  34.408  36.729   8.553
 6719POPC   C2B24116  34.416  36.675   8.253
 6719POPC   C3B24117  34.432  36.704   7.953
 6719POPC   C4B24118  34.391  36.687   7.653
 6720POPC   NC324119   3.572  39.989   9.453
 6720POPC   PO424120   3.558  39.987   9.153
 6720POPC   GL124121   3.519  40.008   8.853
 6720POPC   GL224122   3.687  39.955   8.853
 6720POPC   C1A24123   3.572  40.029   8.553
 6720POPC   D2A24124   3.554  39.971   8.253
 6720POPC   C3A24125   3.517  40.014   7.953
 6720POPC   C4A24126   3.576  40.009   7.653
 6720POPC   C1B24127   3.767  39.988   8.553
 6720POPC   C2B24128   3.808  40.002   8.253
 6720POPC   C3B24129   3.819  39.985   7.953
 6720POPC   C4B24130   3.781  39.965   7.653
 6721POPC   NC324131  36.089  25.276   9.453
 6721POPC   PO424132  36.082  25.308   9.153
 6721POPC   GL124133  36.103  25.308   8.853
 6721POPC   GL224134  36.168  25.377   8.853
 6721POPC   C1A24135  36.131  25.289   8.553
 6721POPC   D2A24136  36.138  25.288   8.253
 6721POPC   C3A24137  36.118  25.255   7.953
 6721POPC   C4A24138  36.160  25.224   7.653
 6721POPC   C1B24139  36.290  25.482   8.553
 6721POPC   C2B24140  36.256  25.433   8.253
 6721POPC   C3B24141  36.267  25.473   7.953
 6721POPC   C4B24142  36.280  25.504   7.653
 6722POPC   NC324143  21.433  15.190   9.453
 6722POPC   PO424144  21.409  15.170   9.153
 6722POPC   GL124145  21.387  15.193   8.853
 6722POPC   GL224146  21.338  15.019   8.853
 6722POPC   C1A24147  21.343  15.219   8.553
 6722POPC   D2A24148  21.370  15.208   8.253
 6722POPC   C3A24149  21.380  15.146   7.953
 6722POPC   C4A24150  21.398  15.218   7.653
 6722POPC   C1B24151  21.241  14.924   8.553
 6722POPC   C2B24152  21.336  14.979   8.253
 6722POPC   C3B24153  21.270  14.945   7.953
 6722POPC   C4B24154  21.252  14.926   7.653
 6723POPC   NC324155  23.690  36.118   9.453
 6723POPC   PO424156  23.664  36.108   9.153
 6723POPC   GL124157  23.706  36.086   8.853
 6723POPC   GL224158  23.613  36.056   8.853
 6723POPC   C1A24159  23.691  36.123   8.553
 6723POPC   D2A24160  23.682  36.165   8.253
 6723POPC   C3A24161  23.686  36.104   7.953
 6723POPC   C4A24162  23.665  36.141   7.653
 6723POPC   C1B24163  23.501  36.007   8.553
 6723POPC   C2B24164  23.475  36.026   8.253
 6723POPC   C3B24165  23.530  36.003   7.953
 6723POPC   C4B24166  23.488  35.992   7.653
 6724POPC   NC324167   5.050  41.543   9.453
 6724POPC   PO424168   5.082  41.520   9.153
 6724POPC   GL124169   5.121  41.553   8.853
 6724POPC   GL224170   5.231  41.433   8.853
 6724POPC   C1A24171   5.119  41.524   8.553
 6724POPC   D2A24172   5.075  41.571   8.253
 6724POPC   C3A24173   5.082  41.577   7.953
 6724POPC   C4A24174   5.096  41.547   7.653
 6724POPC   C1B24175   5.263  41.446   8.553
 6724POPC   C2B24176   5.248  41.430   8.253
 6724POPC   C3B24177   5.293  41.446   7.953
 6724POPC   C4B24178   5.246  41.383   7.653
 6725POPC   NC324179  29.157  19.834   9.453
 6725POPC   PO424180  29.181  19.858   9.153
 6725POPC   GL124181  29.180  19.884   8.853
 6725POPC   GL224182  28.993  19.765   8.853
 6725POPC   C1A24183  29.138  19.881   8.553
 6725POPC   D2A24184  29.155  19.841   8.253
 6725POPC   C3A24185  29.172  19.800   7.953
 6725POPC   C4A24186  29.097  19.819   7.653
 6725POPC   C1B24187  28.925  19.708   8.553
 6725POPC   C2B24188  28.969  19.723   8.253
 6725POPC   C3B24189  28.904  19.734   7.953
 6725POPC   C4B24190  28.911  19.678   7.653
 6726POPC   NC324191  11.287  39.995   9.453
 6726POPC   PO424192  11.339  40.038   9.153
 6726POPC   GL124193  11.255  39.995   8.853
 6726POPC   GL224194  11.467  39.958   8.853
 6726POPC   C1A24195  11.329  39.964   8.553
 6726POPC   D2A24196  11.300  39.960   8.253
 6726POPC   C3A24197  11.313  39.966   7.953
 6726POPC   C4A24198  11.337  40.030   7.653
 6726POPC   C1B24199  11.535  40.000   8.553
 6726POPC   C2B24200  11.558  40.020   8.253
 6726POPC   C3B24201  11.555  39.978   7.953
 6726POPC   C4B24202  11.580  39.978   7.653
 6727POPC   NC324203   5.910  34.601   9.453
 6727POPC   PO424204   5.899  34.618   9.153
 6727POPC   GL124205   5.886  34.599   8.853
 6727POPC   GL224206   5.923  34.458   8.853
 6727POPC   C1A24207   5.896  34.575   8.553
 6727POPC   D2A24208   5.918  34.570   8.253
 6727POPC   C3A24209   5.834  34.540   7.953
 6727POPC   C4A24210   5.888  34.536   7.653
 6727POPC   C1B24211   5.887  34.308   8.553
 6727POPC   C2B24212   5.891  34.296   8.253
 6727POPC   C3B24213   5.907  34.309   7.953
 6727POPC   C4B24214   5.905  34.369   7.653
 6728POPC   NC324215   2.006   5.891   9.453
 6728POPC   PO424216   1.975   5.846   9.153
 6728POPC   GL124217   2.000   5.821   8.853
 6728POPC   GL224218   2.042   5.991   8.853
 6728POPC   C1A24219   1.975   5.905   8.553
 6728POPC   D2A24220   2.008   5.873   8.253
 6728POPC   C3A24221   1.975   5.875   7.953
 6728POPC   C4A24222   1.997   5.913   7.653
 6728POPC   C1B24223   2.036   6.120   8.553
 6728POPC   C2B24224   2.096   6.137   8.253
 6728POPC   C3B24225   2.046   6.123   7.953
 6728POPC   C4B24226   2.076   6.145   7.653
 6729POPC   NC324227  44.699  36.872   9.453
 6729POPC   PO424228  44.641  36.892   9.153
 6729POPC   GL124229  44.683  36.907   8.853
 6729POPC   GL224230  44.580  36.862   8.853
 6729POPC   C1A24231  44.665  36.892   8.553
 6729POPC   D2A24232  44.633  36.909   8.253
 6729POPC   C3A24233  44.614  36.941   7.953
 6729POPC   C4A24234  44.684  36.867   7.653
 6729POPC   C1B24235  44.432  36.761   8.553
 6729POPC   C2B24236  44.512  36.779   8.253
 6729POPC   C3B24237  44.527  36.775   7.953
 6729POPC   C4B24238  44.473  36.690   7.653
 6730POPC   NC324239  39.997  43.874   9.453
 6730POPC   PO424240  40.035  43.865   9.153
 6730POPC   GL124241  40.047  43.857   8.853
 6730POPC   GL224242  40.068  43.837   8.853
 6730POPC   C1A24243  39.991  43.840   8.553
 6730POPC   D2A24244  39.979  43.921   8.253
 6730POPC   C3A24245  40.050  43.870   7.953
 6730POPC   C4A24246  39.981  43.915   7.653
 6730POPC   C1B24247  40.224  43.730   8.553
 6730POPC   C2B24248  40.187  43.779   8.253
 6730POPC   C3B24249  40.252  43.774   7.953
 6730POPC   C4B24250  40.258  43.714   7.653
 6731POPC   NC324251  19.078  21.345   9.453
 6731POPC   PO424252  19.048  21.380   9.153
 6731POPC   GL124253  19.040  21.384   8.853
 6731POPC   GL224254  18.951  21.460   8.853
 6731POPC   C1A24255  19.102  21.349   8.553
 6731POPC   D2A24256  19.015  21.409   8.253
 6731POPC   C3A24257  19.074  21.392   7.953
 6731POPC   C4A24258  19.077  21.336   7.653
 6731POPC   C1B24259  18.898  21.578   8.553
 6731POPC   C2B24260  18.941  21.580   8.253
 6731POPC   C3B24261  18.848  21.577   7.953
 6731POPC   C4B24262  18.939  21.608   7.653
 6732POPC   NC324263  21.380  30.678   9.453
 6732POPC   PO424264  21.423  30.704   9.153
 6732POPC   GL124265  21.370  30.744   8.853
 6732POPC   GL224266  21.486  30.811   8.853
 6732POPC   C1A24267  21.358  30.709   8.553
 6732POPC   D2A24268  21.431  30.695   8.253
 6732POPC   C3A24269  21.380  30.679   7.953
 6732POPC   C4A24270  21.392  30.722   7.653
 6732POPC   C1B24271  21.535  30.863   8.553
 6732POPC   C2B24272  21.567  30.833   8.253
 6732POPC   C3B24273  21.574  30.869   7.953
 6732POPC   C4B24274  21.618  30.832   7.653
 6733POPC   NC324275  15.913  23.747   9.453
 6733POPC   PO424276  15.995  23.744   9.153
 6733POPC   GL124277  15.954  23.671   8.853
 6733POPC   GL224278  16.061  23.781   8.853
 6733POPC   C1A24279  15.952  23.738   8.553
 6733POPC   D2A24280  15.931  23.675   8.253
 6733POPC   C3A24281  15.989  23.667   7.953
 6733POPC   C4A24282  15.945  23.729   7.653
 6733POPC   C1B24283  16.172  23.844   8.553
 6733POPC   C2B24284  16.150  23.827   8.253
 6733POPC   C3B24285  16.182  23.829   7.953
 6733POPC   C4B24286  16.180  23.766   7.653
 6734POPC   NC324287  37.675  44.703   9.453
 6734POPC   PO424288  37.677  44.640   9.153
 6734POPC   GL124289  37.709  44.692   8.853
 6734POPC   GL224290  37.665  44.553   8.853
 6734POPC   C1A24291  37.641  44.687   8.553
 6734POPC   D2A24292  37.637  44.656   8.253
 6734POPC   C3A24293  37.644  44.629   7.953
 6734POPC   C4A24294  37.668  44.654   7.653
 6734POPC   C1B24295  37.620  44.395   8.553
 6734POPC   C2B24296  37.592  44.408   8.253
 6734POPC   C3B24297  37.539  44.467   7.953
 6734POPC   C4B24298  37.613  44.466   7.653
 6735POPC   NC324299  34.566  29.895   9.453
 6735POPC   PO424300  34.597  29.896   9.153
 6735POPC   GL124301  34.563  29.871   8.853
 6735POPC   GL224302  34.651  30.018   8.853
 6735POPC   C1A24303  34.552  29.924   8.553
 6735POPC   D2A24304  34.568  29.894   8.253
 6735POPC   C3A24305  34.585  29.965   7.953
 6735POPC   C4A24306  34.544  29.938   7.653
 6735POPC   C1B24307  34.796  29.978   8.553
 6735POPC   C2B24308  34.849  30.010   8.253
 6735POPC   C3B24309  34.796  30.023   7.953
 6735POPC   C4B24310  34.811  29.985   7.653
 6736POPC   NC324311   5.122  20.605   9.453
 6736POPC   PO424312   5.055  20.580   9.153
 6736POPC   GL124313   5.093  20.640   8.853
 6736POPC   GL224314   5.250  20.657   8.853
 6736POPC   C1A24315   5.049  20.626   8.553
 6736POPC   D2A24316   5.050  20.623   8.253
 6736POPC   C3A24317   5.116  20.624   7.953
 6736POPC   C4A24318   5.122  20.644   7.653
 6736POPC   C1B24319   5.313  20.743   8.553
 6736POPC   C2B24320   5.357  20.728   8.253
 6736POPC   C3B24321   5.361  20.704   7.953
 6736POPC   C4B24322   5.358  20.756   7.653
 6737POPC   NC324323  37.663  15.150   9.453
 6737POPC   PO424324  37.727  15.198   9.153
 6737POPC   GL124325  37.697  15.186   8.853
 6737POPC   GL224326  37.834  15.203   8.853
 6737POPC   C1A24327  37.668  15.173   8.553
 6737POPC   D2A24328  37.641  15.200   8.253
 6737POPC   C3A24329  37.704  15.171   7.953
 6737POPC   C4A24330  37.728  15.215   7.653
 6737POPC   C1B24331  37.931  15.178   8.553
 6737POPC   C2B24332  37.940  15.226   8.253
 6737POPC   C3B24333  37.934  15.215   7.953
 6737POPC   C4B24334  37.944  15.219   7.653
 6738POPC   NC324335  43.088  18.298   9.453
 6738POPC   PO424336  43.128  18.294   9.153
 6738POPC   GL124337  43.116  18.296   8.853
 6738POPC   GL224338  42.957  18.331   8.853
 6738POPC   C1A24339  43.123  18.244   8.553
 6738POPC   D2A24340  43.149  18.285   8.253
 6738POPC   C3A24341  43.096  18.287   7.953
 6738POPC   C4A24342  43.140  18.252   7.653
 6738POPC   C1B24343  42.911  18.272   8.553
 6738POPC   C2B24344  42.819  18.275   8.253
 6738POPC   C3B24345  42.905  18.258   7.953
 6738POPC   C4B24346  42.844  18.340   7.653
 6739POPC   NC324347  28.361   5.108   9.453
 6739POPC   PO424348  28.392   5.092   9.153
 6739POPC   GL124349  28.323   5.066   8.853
 6739POPC   GL224350  28.322   5.194   8.853
 6739POPC   C1A24351  28.339   5.079   8.553
 6739POPC   D2A24352  28.412   5.099   8.253
 6739POPC   C3A24353  28.338   5.053   7.953
 6739POPC   C4A24354  28.386   5.137   7.653
 6739POPC   C1B24355  28.241   5.303   8.553
 6739POPC   C2B24356  28.328   5.365   8.253
 6739POPC   C3B24357  28.334   5.281   7.953
 6739POPC   C4B24358  28.310   5.371   7.653
 6740POPC   NC324359   4.352  43.883   9.453
 6740POPC   PO424360   4.336  43.890   9.153
 6740POPC   GL124361   4.355  43.839   8.853
 6740POPC   GL224362   4.163  43.950   8.853
 6740POPC   C1A24363   4.315  43.841   8.553
 6740POPC   D2A24364   4.363  43.851   8.253
 6740POPC   C3A24365   4.303  43.915   7.953
 6740POPC   C4A24366   4.343  43.836   7.653
 6740POPC   C1B24367   4.058  43.999   8.553
 6740POPC   C2B24368   4.065  43.943   8.253
 6740POPC   C3B24369   4.074  43.981   7.953
 6740POPC   C4B24370   4.140  44.028   7.653
 6741POPC   NC324371  25.286  15.952   9.453
 6741POPC   PO424372  25.244  15.933   9.153
 6741POPC   GL124373  25.303  15.983   8.853
 6741POPC   GL224374  25.313  16.063   8.853
 6741POPC   C1A24375  25.304  15.980   8.553
 6741POPC   D2A24376  25.274  15.983   8.253
 6741POPC   C3A24377  25.220  15.996   7.953
 6741POPC   C4A24378  25.246  15.954   7.653
 6741POPC   C1B24379  25.388  16.165   8.553
 6741POPC   C2B24380  25.356  16.179   8.253
 6741POPC   C3B24381  25.300  16.155   7.953
 6741POPC   C4B24382  25.388  16.172   7.653
 6742POPC   NC324383  27.545  20.646   9.453
 6742POPC   PO424384  27.603  20.592   9.153
 6742POPC   GL124385  27.594  20.566   8.853
 6742POPC   GL224386  27.630  20.696   8.853
 6742POPC   C1A24387  27.593  20.652   8.553
 6742POPC   D2A24388  27.610  20.632   8.253
 6742POPC   C3A24389  27.606  20.603   7.953
 6742POPC   C4A24390  27.563  20.650   7.653
 6742POPC   C1B24391  27.669  20.811   8.553
 6742POPC   C2B24392  27.658  20.861   8.253
 6742POPC   C3B24393  27.632  20.819   7.953
 6742POPC   C4B24394  27.637  20.899   7.653
 6743POPC   NC324395   5.096   5.854   9.453
 6743POPC   PO424396   5.115   5.836   9.153
 6743POPC   GL124397   5.043   5.870   8.853
 6743POPC   GL224398   5.203   5.796   8.853
 6743POPC   C1A24399   5.106   5.843   8.553
 6743POPC   D2A24400   5.115   5.892   8.253
 6743POPC   C3A24401   5.070   5.866   7.953
 6743POPC   C4A24402   5.081   5.830   7.653
 6743POPC   C1B24403   5.295   5.776   8.553
 6743POPC   C2B24404   5.284   5.777   8.253
 6743POPC   C3B24405   5.257   5.732   7.953
 6743POPC   C4B24406   5.280   5.754   7.653
 6744POPC   NC324407  38.408   3.561   9.453
 6744POPC   PO424408  38.418   3.493   9.153
 6744POPC   GL124409  38.478   3.493   8.853
 6744POPC   GL224410  38.519   3.417   8.853
 6744POPC   C1A24411  38.429   3.580   8.553
 6744POPC   D2A24412  38.473   3.550   8.253
 6744POPC   C3A24413  38.464   3.570   7.953
 6744POPC   C4A24414  38.466   3.499   7.653
 6744POPC   C1B24415  38.499   3.281   8.553
 6744POPC   C2B24416  38.460   3.254   8.253
 6744POPC   C3B24417  38.492   3.266   7.953
 6744POPC   C4B24418  38.538   3.345   7.653
 6745POPC   NC324419  12.815   3.587   9.453
 6745POPC   PO424420  12.807   3.574   9.153
 6745POPC   GL124421  12.826   3.503   8.853
 6745POPC   GL224422  12.757   3.624   8.853
 6745POPC   C1A24423  12.830   3.572   8.553
 6745POPC   D2A24424  12.826   3.567   8.253
 6745POPC   C3A24425  12.848   3.542   7.953
 6745POPC   C4A24426  12.846   3.565   7.653
 6745POPC   C1B24427  12.742   3.777   8.553
 6745POPC   C2B24428  12.747   3.789   8.253
 6745POPC   C3B24429  12.753   3.738   7.953
 6745POPC   C4B24430  12.749   3.724   7.653
 6746POPC   NC324431  20.636   8.187   9.453
 6746POPC   PO424432  20.634   8.244   9.153
 6746POPC   GL124433  20.566   8.162   8.853
 6746POPC   GL224434  20.512   8.226   8.853
 6746POPC   C1A24435  20.641   8.181   8.553
 6746POPC   D2A24436  20.561   8.159   8.253
 6746POPC   C3A24437  20.595   8.179   7.953
 6746POPC   C4A24438  20.584   8.184   7.653
 6746POPC   C1B24439  20.382   8.342   8.553
 6746POPC   C2B24440  20.385   8.332   8.253
 6746POPC   C3B24441  20.362   8.308   7.953
 6746POPC   C4B24442  20.426   8.256   7.653
 6747POPC   NC324443  41.536  21.340   9.453
 6747POPC   PO424444  41.561  21.379   9.153
 6747POPC   GL124445  41.589  21.379   8.853
 6747POPC   GL224446  41.455  21.303   8.853
 6747POPC   C1A24447  41.574  21.433   8.553
 6747POPC   D2A24448  41.535  21.340   8.253
 6747POPC   C3A24449  41.536  21.388   7.953
 6747POPC   C4A24450  41.513  21.399   7.653
 6747POPC   C1B24451  41.422  21.183   8.553
 6747POPC   C2B24452  41.412  21.171   8.253
 6747POPC   C3B24453  41.444  21.155   7.953
 6747POPC   C4B24454  41.478  21.176   7.653
 6748POPC   NC324455  31.441  11.301   9.453
 6748POPC   PO424456  31.493  11.313   9.153
 6748POPC   GL124457  31.504  11.305   8.853
 6748POPC   GL224458  31.380  11.258   8.853
 6748POPC   C1A24459  31.495  11.314   8.553
 6748POPC   D2A24460  31.439  11.305   8.253
 6748POPC   C3A24461  31.452  11.294   7.953
 6748POPC   C4A24462  31.498  11.293   7.653
 6748POPC   C1B24463  31.304  11.211   8.553
 6748POPC   C2B24464  31.214  11.193   8.253
 6748POPC   C3B24465  31.272  11.191   7.953
 6748POPC   C4B24466  31.289  11.203   7.653
 6749POPC   NC324467   2.027  22.942   9.453
 6749POPC   PO424468   1.953  22.971   9.153
 6749POPC   GL124469   1.977  22.935   8.853
 6749POPC   GL224470   2.088  22.890   8.853
 6749POPC   C1A24471   2.014  22.984   8.553
 6749POPC   D2A24472   1.983  22.947   8.253
 6749POPC   C3A24473   1.992  22.892   7.953
 6749POPC   C4A24474   2.013  22.964   7.653
 6749POPC   C1B24475   2.262  22.853   8.553
 6749POPC   C2B24476   2.224  22.824   8.253
 6749POPC   C3B24477   2.215  22.841   7.953
 6749POPC   C4B24478   2.221  22.859   7.653
 6750POPC   NC324479  13.625  26.048   9.453
 6750POPC   PO424480  13.641  26.046   9.153
 6750POPC   GL124481  13.631  26.076   8.853
 6750POPC   GL224482  13.513  25.943   8.853
 6750POPC   C1A24483  13.665  26.038   8.553
 6750POPC   D2A24484  13.669  26.003   8.253
 6750POPC   C3A24485  13.647  26.044   7.953
 6750POPC   C4A24486  13.586  26.032   7.653
 6750POPC   C1B24487  13.496  25.877   8.553
 6750POPC   C2B24488  13.494  25.906   8.253
 6750POPC   C3B24489  13.495  25.901   7.953
 6750POPC   C4B24490  13.419  25.843   7.653
 6751POPC   NC324491  33.065  43.898   9.453
 6751POPC   PO424492  32.984  43.857   9.153
 6751POPC   GL124493  33.029  43.891   8.853
 6751POPC   GL224494  33.149  43.802   8.853
 6751POPC   C1A24495  33.010  43.843   8.553
 6751POPC   D2A24496  32.987  43.891   8.253
 6751POPC   C3A24497  32.987  43.903   7.953
 6751POPC   C4A24498  33.013  43.902   7.653
 6751POPC   C1B24499  33.194  43.750   8.553
 6751POPC   C2B24500  33.206  43.772   8.253
 6751POPC   C3B24501  33.193  43.749   7.953
 6751POPC   C4B24502  33.231  43.771   7.653
 6752POPC   NC324503  22.942  43.898   9.453
 6752POPC   PO424504  22.974  43.852   9.153
 6752POPC   GL124505  22.926  43.847   8.853
 6752POPC   GL224506  22.877  43.971   8.853
 6752POPC   C1A24507  22.980  43.881   8.553
 6752POPC   D2A24508  22.902  43.863   8.253
 6752POPC   C3A24509  22.922  43.915   7.953
 6752POPC   C4A24510  22.924  43.876   7.653
 6752POPC   C1B24511  22.770  44.094   8.553
 6752POPC   C2B24512  22.758  44.119   8.253
 6752POPC   C3B24513  22.779  44.064   7.953
 6752POPC   C4B24514  22.795  44.117   7.653
 6753POPC   NC324515  30.741  41.565   9.453
 6753POPC   PO424516  30.697  41.566   9.153
 6753POPC   GL124517  30.674  41.594   8.853
 6753POPC   GL224518  30.771  41.663   8.853
 6753POPC   C1A24519  30.713  41.594   8.553
 6753POPC   D2A24520  30.657  41.555   8.253
 6753POPC   C3A24521  30.744  41.511   7.953
 6753POPC   C4A24522  30.740  41.553   7.653
 6753POPC   C1B24523  30.926  41.704   8.553
 6753POPC   C2B24524  30.893  41.699   8.253
 6753POPC   C3B24525  30.913  41.682   7.953
 6753POPC   C4B24526  30.864  41.768   7.653
 6754POPC   NC324527   1.194  31.455   9.453
 6754POPC   PO424528   1.255  31.431   9.153
 6754POPC   GL124529   1.206  31.502   8.853
 6754POPC   GL224530   1.317  31.572   8.853
 6754POPC   C1A24531   1.218  31.522   8.553
 6754POPC   D2A24532   1.178  31.486   8.253
 6754POPC   C3A24533   1.189  31.441   7.953
 6754POPC   C4A24534   1.237  31.480   7.653
 6754POPC   C1B24535   1.348  31.629   8.553
 6754POPC   C2B24536   1.327  31.631   8.253
 6754POPC   C3B24537   1.346  31.624   7.953
 6754POPC   C4B24538   1.396  31.692   7.653
 6755POPC   NC324539  13.672  28.333   9.453
 6755POPC   PO424540  13.607  28.329   9.153
 6755POPC   GL124541  13.602  28.406   8.853
 6755POPC   GL224542  13.538  28.418   8.853
 6755POPC   C1A24543  13.634  28.369   8.553
 6755POPC   D2A24544  13.676  28.391   8.253
 6755POPC   C3A24545  13.668  28.351   7.953
 6755POPC   C4A24546  13.582  28.371   7.653
 6755POPC   C1B24547  13.424  28.409   8.553
 6755POPC   C2B24548  13.403  28.404   8.253
 6755POPC   C3B24549  13.378  28.430   7.953
 6755POPC   C4B24550  13.402  28.352   7.653
 6756POPC   NC324551   6.643  31.504   9.453
 6756POPC   PO424552   6.684  31.458   9.153
 6756POPC   GL124553   6.668  31.434   8.853
 6756POPC   GL224554   6.598  31.606   8.853
 6756POPC   C1A24555   6.682  31.503   8.553
 6756POPC   D2A24556   6.605  31.491   8.253
 6756POPC   C3A24557   6.601  31.453   7.953
 6756POPC   C4A24558   6.639  31.435   7.653
 6756POPC   C1B24559   6.649  31.673   8.553
 6756POPC   C2B24560   6.588  31.694   8.253
 6756POPC   C3B24561   6.619  31.699   7.953
 6756POPC   C4B24562   6.621  31.740   7.653
 6757POPC   NC324563  14.415   6.678   9.453
 6757POPC   PO424564  14.437   6.681   9.153
 6757POPC   GL124565  14.376   6.618   8.853
 6757POPC   GL224566  14.382   6.495   8.853
 6757POPC   C1A24567  14.388   6.690   8.553
 6757POPC   D2A24568  14.367   6.669   8.253
 6757POPC   C3A24569  14.378   6.688   7.953
 6757POPC   C4A24570  14.410   6.640   7.653
 6757POPC   C1B24571  14.428   6.431   8.553
 6757POPC   C2B24572  14.341   6.377   8.253
 6757POPC   C3B24573  14.373   6.369   7.953
 6757POPC   C4B24574  14.402   6.393   7.653
 6758POPC   NC324575  43.896  43.876   9.453
 6758POPC   PO424576  43.864  43.909   9.153
 6758POPC   GL124577  43.931  43.839   8.853
 6758POPC   GL224578  43.948  44.016   8.853
 6758POPC   C1A24579  43.880  43.926   8.553
 6758POPC   D2A24580  43.929  43.936   8.253
 6758POPC   C3A24581  43.900  43.838   7.953
 6758POPC   C4A24582  43.924  43.931   7.653
 6758POPC   C1B24583  44.041  44.091   8.553
 6758POPC   C2B24584  44.018  44.081   8.253
 6758POPC   C3B24585  44.065  44.113   7.953
 6758POPC   C4B24586  44.026  44.066   7.653
 6759POPC   NC324587  27.550  12.122   9.453
 6759POPC   PO424588  27.634  12.074   9.153
 6759POPC   GL124589  27.581  12.029   8.853
 6759POPC   GL224590  27.496  12.047   8.853
 6759POPC   C1A24591  27.582  12.081   8.553
 6759POPC   D2A24592  27.591  12.046   8.253
 6759POPC   C3A24593  27.642  12.030   7.953
 6759POPC   C4A24594  27.625  12.102   7.653
 6759POPC   C1B24595  27.339  11.984   8.553
 6759POPC   C2B24596  27.384  11.945   8.253
 6759POPC   C3B24597  27.381  11.945   7.953
 6759POPC   C4B24598  27.394  11.948   7.653
 6760POPC   NC324599   8.936  32.198   9.453
 6760POPC   PO424600   9.017  32.230   9.153
 6760POPC   GL124601   8.974  32.282   8.853
 6760POPC   GL224602   8.856  32.138   8.853
 6760POPC   C1A24603   8.967  32.229   8.553
 6760POPC   D2A24604   8.987  32.235   8.253
 6760POPC   C3A24605   8.989  32.219   7.953
 6760POPC   C4A24606   9.020  32.225   7.653
 6760POPC   C1B24607   8.783  32.139   8.553
 6760POPC   C2B24608   8.763  32.058   8.253
 6760POPC   C3B24609   8.773  32.081   7.953
 6760POPC   C4B24610   8.730  32.108   7.653
 6761POPC   NC324611  14.448  30.731   9.453
 6761POPC   PO424612  14.400  30.670   9.153
 6761POPC   GL124613  14.396  30.738   8.853
 6761POPC   GL224614  14.358  30.603   8.853
 6761POPC   C1A24615  14.371  30.648   8.553
 6761POPC   D2A24616  14.364  30.668   8.253
 6761POPC   C3A24617  14.424  30.738   7.953
 6761POPC   C4A24618  14.407  30.659   7.653
 6761POPC   C1B24619  14.236  30.528   8.553
 6761POPC   C2B24620  14.235  30.558   8.253
 6761POPC   C3B24621  14.195  30.501   7.953
 6761POPC   C4B24622  14.245  30.544   7.653
 6762POPC   NC324623  17.526  25.233   9.453
 6762POPC   PO424624  17.498  25.241   9.153
 6762POPC   GL124625  17.550  25.287   8.853
 6762POPC   GL224626  17.419  25.305   8.853
 6762POPC   C1A24627  17.463  25.298   8.553
 6762POPC   D2A24628  17.505  25.286   8.253
 6762POPC   C3A24629  17.491  25.219   7.953
 6762POPC   C4A24630  17.553  25.287   7.653
 6762POPC   C1B24631  17.314  25.467   8.553
 6762POPC   C2B24632  17.292  25.409   8.253
 6762POPC   C3B24633  17.296  25.396   7.953
 6762POPC   C4B24634  17.283  25.458   7.653
 6763POPC   NC324635  15.965   7.425   9.453
 6763POPC   PO424636  15.955   7.399   9.153
 6763POPC   GL124637  15.955   7.437   8.853
 6763POPC   GL224638  15.929   7.593   8.853
 6763POPC   C1A24639  15.948   7.461   8.553
 6763POPC   D2A24640  15.929   7.372   8.253
 6763POPC   C3A24641  15.951   7.404   7.953
 6763POPC   C4A24642  15.960   7.470   7.653
 6763POPC   C1B24643  15.982   7.638   8.553
 6763POPC   C2B24644  15.972   7.666   8.253
 6763POPC   C3B24645  15.968   7.704   7.953
 6763POPC   C4B24646  15.976   7.686   7.653
 6764POPC   NC324647   3.586   8.182   9.453
 6764POPC   PO424648   3.514   8.150   9.153
 6764POPC   GL124649   3.549   8.237   8.853
 6764POPC   GL224650   3.522   8.054   8.853
 6764POPC   C1A24651   3.561   8.195   8.553
 6764POPC   D2A24652   3.521   8.239   8.253
 6764POPC   C3A24653   3.494   8.206   7.953
 6764POPC   C4A24654   3.555   8.183   7.653
 6764POPC   C1B24655   3.461   7.936   8.553
 6764POPC   C2B24656   3.470   7.952   8.253
 6764POPC   C3B24657   3.471   7.989   7.953
 6764POPC   C4B24658   3.501   7.966   7.653
 6765POPC   NC324659   1.996  16.750   9.453
 6765POPC   PO424660   1.980  16.692   9.153
 6765POPC   GL124661   2.032  16.770   8.853
 6765POPC   GL224662   2.019  16.563   8.853
 6765POPC   C1A24663   1.946  16.715   8.553
 6765POPC   D2A24664   1.946  16.766   8.253
 6765POPC   C3A24665   1.955  16.682   7.953
 6765POPC   C4A24666   1.971  16.723   7.653
 6765POPC   C1B24667   2.000  16.460   8.553
 6765POPC   C2B24668   2.036  16.488   8.253
 6765POPC   C3B24669   1.990  16.483   7.953
 6765POPC   C4B24670   1.990  16.442   7.653
 6766POPC   NC324671  36.132  36.928   9.453
 6766POPC   PO424672  36.134  36.888   9.153
 6766POPC   GL124673  36.086  36.904   8.853
 6766POPC   GL224674  36.067  36.772   8.853
 6766POPC   C1A24675  36.147  36.883   8.553
 6766POPC   D2A24676  36.091  36.899   8.253
 6766POPC   C3A24677  36.120  36.948   7.953
 6766POPC   C4A24678  36.124  36.933   7.653
 6766POPC   C1B24679  36.066  36.699   8.553
 6766POPC   C2B24680  35.975  36.658   8.253
 6766POPC   C3B24681  36.031  36.718   7.953
 6766POPC   C4B24682  36.032  36.628   7.653
 6767POPC   NC324683  38.421  40.756   9.453
 6767POPC   PO424684  38.494  40.807   9.153
 6767POPC   GL124685  38.458  40.767   8.853
 6767POPC   GL224686  38.441  40.697   8.853
 6767POPC   C1A24687  38.434  40.811   8.553
 6767POPC   D2A24688  38.406  40.821   8.253
 6767POPC   C3A24689  38.490  40.749   7.953
 6767POPC   C4A24690  38.495  40.786   7.653
 6767POPC   C1B24691  38.551  40.555   8.553
 6767POPC   C2B24692  38.514  40.585   8.253
 6767POPC   C3B24693  38.498  40.564   7.953
 6767POPC   C4B24694  38.460  40.522   7.653
 6768POPC   NC324695  14.381  20.607   9.453
 6768POPC   PO424696  14.391  20.600   9.153
 6768POPC   GL124697  14.451  20.632   8.853
 6768POPC   GL224698  14.444  20.708   8.853
 6768POPC   C1A24699  14.381  20.606   8.553
 6768POPC   D2A24700  14.367  20.611   8.253
 6768POPC   C3A24701  14.451  20.571   7.953
 6768POPC   C4A24702  14.381  20.560   7.653
 6768POPC   C1B24703  14.530  20.839   8.553
 6768POPC   C2B24704  14.561  20.878   8.253
 6768POPC   C3B24705  14.561  20.797   7.953
 6768POPC   C4B24706  14.499  20.881   7.653
 6769POPC   NC324707   2.809  36.172   9.453
 6769POPC   PO424708   2.758  36.090   9.153
 6769POPC   GL124709   2.755  36.128   8.853
 6769POPC   GL224710   2.746  36.246   8.853
 6769POPC   C1A24711   2.741  36.131   8.553
 6769POPC   D2A24712   2.785  36.086   8.253
 6769POPC   C3A24713   2.755  36.169   7.953
 6769POPC   C4A24714   2.728  36.083   7.653
 6769POPC   C1B24715   2.711  36.391   8.553
 6769POPC   C2B24716   2.755  36.324   8.253
 6769POPC   C3B24717   2.698  36.377   7.953
 6769POPC   C4B24718   2.668  36.411   7.653
 6770POPC   NC324719   7.427   1.194   9.453
 6770POPC   PO424720   7.422   1.235   9.153
 6770POPC   GL124721   7.454   1.176   8.853
 6770POPC   GL224722   7.475   1.069   8.853
 6770POPC   C1A24723   7.408   1.201   8.553
 6770POPC   D2A24724   7.403   1.215   8.253
 6770POPC   C3A24725   7.397   1.171   7.953
 6770POPC   C4A24726   7.376   1.232   7.653
 6770POPC   C1B24727   7.498   0.945   8.553
 6770POPC   C2B24728   7.533   0.952   8.253
 6770POPC   C3B24729   7.475   1.008   7.953
 6770POPC   C4B24730   7.541   0.956   7.653
 6771POPC   NC324731  28.393  32.998   9.453
 6771POPC   PO424732  28.401  33.068   9.153
 6771POPC   GL124733  28.379  33.017   8.853
 6771POPC   GL224734  28.469  33.155   8.853
 6771POPC   C1A24735  28.344  33.038   8.553
 6771POPC   D2A24736  28.375  33.001   8.253
 6771POPC   C3A24737  28.325  32.980   7.953
 6771POPC   C4A24738  28.376  32.989   7.653
 6771POPC   C1B24739  28.558  33.212   8.553
 6771POPC   C2B24740  28.583  33.220   8.253
 6771POPC   C3B24741  28.562  33.149   7.953
 6771POPC   C4B24742  28.574  33.235   7.653
 6772POPC   NC324743  22.888  36.863   9.453
 6772POPC   PO424744  22.897  36.935   9.153
 6772POPC   GL124745  22.959  36.885   8.853
 6772POPC   GL224746  23.040  36.972   8.853
 6772POPC   C1A24747  22.934  36.861   8.553
 6772POPC   D2A24748  22.940  36.914   8.253
 6772POPC   C3A24749  22.891  36.944   7.953
 6772POPC   C4A24750  22.952  36.924   7.653
 6772POPC   C1B24751  23.176  37.074   8.553
 6772POPC   C2B24752  23.181  37.018   8.253
 6772POPC   C3B24753  23.085  37.032   7.953
 6772POPC   C4B24754  23.171  37.036   7.653
 6773POPC   NC324755  25.994   4.299   9.453
 6773POPC   PO424756  26.055   4.335   9.153
 6773POPC   GL124757  26.078   4.310   8.853
 6773POPC   GL224758  26.063   4.487   8.853
 6773POPC   C1A24759  26.038   4.305   8.553
 6773POPC   D2A24760  26.007   4.290   8.253
 6773POPC   C3A24761  26.014   4.347   7.953
 6773POPC   C4A24762  26.068   4.352   7.653
 6773POPC   C1B24763  26.080   4.594   8.553
 6773POPC   C2B24764  26.088   4.595   8.253
 6773POPC   C3B24765  26.020   4.571   7.953
 6773POPC   C4B24766  26.061   4.520   7.653
 6774POPC   NC324767  12.114  41.543   9.453
 6774POPC   PO424768  12.104  41.516   9.153
 6774POPC   GL124769  12.039  41.608   8.853
 6774POPC   GL224770  12.051  41.717   8.853
 6774POPC   C1A24771  12.035  41.596   8.553
 6774POPC   D2A24772  12.123  41.541   8.253
 6774POPC   C3A24773  12.027  41.587   7.953
 6774POPC   C4A24774  12.077  41.549   7.653
 6774POPC   C1B24775  12.025  41.837   8.553
 6774POPC   C2B24776  12.062  41.853   8.253
 6774POPC   C3B24777  12.012  41.855   7.953
 6774POPC   C4B24778  12.011  41.779   7.653
 6775POPC   NC324779  22.151  19.058   9.453
 6775POPC   PO424780  22.134  19.104   9.153
 6775POPC   GL124781  22.135  19.058   8.853
 6775POPC   GL224782  22.053  19.088   8.853
 6775POPC   C1A24783  22.129  19.017   8.553
 6775POPC   D2A24784  22.170  19.055   8.253
 6775POPC   C3A24785  22.175  19.058   7.953
 6775POPC   C4A24786  22.143  19.076   7.653
 6775POPC   C1B24787  21.957  19.151   8.553
 6775POPC   C2B24788  21.965  19.120   8.253
 6775POPC   C3B24789  21.941  19.138   7.953
 6775POPC   C4B24790  21.926  19.157   7.653
 6776POPC   NC324791   7.442  35.332   9.453
 6776POPC   PO424792   7.407  35.362   9.153
 6776POPC   GL124793   7.392  35.360   8.853
 6776POPC   GL224794   7.403  35.285   8.853
 6776POPC   C1A24795   7.465  35.397   8.553
 6776POPC   D2A24796   7.430  35.388   8.253
 6776POPC   C3A24797   7.448  35.347   7.953
 6776POPC   C4A24798   7.371  35.399   7.653
 6776POPC   C1B24799   7.350  35.126   8.553
 6776POPC   C2B24800   7.283  35.134   8.253
 6776POPC   C3B24801   7.316  35.144   7.953
 6776POPC   C4B24802   7.375  35.134   7.653
 6777POPC   NC324803  27.628  34.622   9.453
 6777POPC   PO424804  27.626  34.574   9.153
 6777POPC   GL124805  27.565  34.537   8.853
 6777POPC   GL224806  27.541  34.658   8.853
 6777POPC   C1A24807  27.545  34.528   8.553
 6777POPC   D2A24808  27.606  34.577   8.253
 6777POPC   C3A24809  27.551  34.615   7.953
 6777POPC   C4A24810  27.619  34.545   7.653
 6777POPC   C1B24811  27.410  34.762   8.553
 6777POPC   C2B24812  27.429  34.807   8.253
 6777POPC   C3B24813  27.464  34.756   7.953
 6777POPC   C4B24814  27.407  34.805   7.653
 6778POPC   NC324815  28.364   2.716   9.453
 6778POPC   PO424816  28.407   2.783   9.153
 6778POPC   GL124817  28.364   2.779   8.853
 6778POPC   GL224818  28.440   2.662   8.853
 6778POPC   C1A24819  28.375   2.776   8.553
 6778POPC   D2A24820  28.389   2.812   8.253
 6778POPC   C3A24821  28.373   2.727   7.953
 6778POPC   C4A24822  28.379   2.754   7.653
 6778POPC   C1B24823  28.565   2.607   8.553
 6778POPC   C2B24824  28.606   2.657   8.253
 6778POPC   C3B24825  28.544   2.579   7.953
 6778POPC   C4B24826  28.549   2.601   7.653
 6779POPC   NC324827  14.385  14.363   9.453
 6779POPC   PO424828  14.425  14.369   9.153
 6779POPC   GL124829  14.392  14.391   8.853
 6779POPC   GL224830  14.365  14.324   8.853
 6779POPC   C1A24831  14.373  14.408   8.553
 6779POPC   D2A24832  14.400  14.363   8.253
 6779POPC   C3A24833  14.369  14.423   7.953
 6779POPC   C4A24834  14.434  14.361   7.653
 6779POPC   C1B24835  14.430  14.151   8.553
 6779POPC   C2B24836  14.438  14.160   8.253
 6779POPC   C3B24837  14.418  14.136   7.953
 6779POPC   C4B24838  14.388  14.105   7.653
 6780POPC   NC324839  36.900  10.569   9.453
 6780POPC   PO424840  36.868  10.487   9.153
 6780POPC   GL124841  36.905  10.526   8.853
 6780POPC   GL224842  37.028  10.614   8.853
 6780POPC   C1A24843  36.952  10.548   8.553
 6780POPC   D2A24844  36.899  10.546   8.253
 6780POPC   C3A24845  36.944  10.511   7.953
 6780POPC   C4A24846  36.939  10.493   7.653
 6780POPC   C1B24847  37.057  10.712   8.553
 6780POPC   C2B24848  37.117  10.659   8.253
 6780POPC   C3B24849  37.061  10.681   7.953
 6780POPC   C4B24850  37.118  10.717   7.653
 6781POPC   NC324851  41.586  37.706   9.453
 6781POPC   PO424852  41.535  37.651   9.153
 6781POPC   GL124853  41.576  37.656   8.853
 6781POPC   GL224854  41.443  37.676   8.853
 6781POPC   C1A24855  41.606  37.713   8.553
 6781POPC   D2A24856  41.574  37.660   8.253
 6781POPC   C3A24857  41.552  37.701   7.953
 6781POPC   C4A24858  41.606  37.673   7.653
 6781POPC   C1B24859  41.283  37.618   8.553
 6781POPC   C2B24860  41.327  37.597   8.253
 6781POPC   C3B24861  41.369  37.571   7.953
 6781POPC   C4B24862  41.362  37.553   7.653
 6782POPC   NC324863   3.507  33.036   9.453
 6782POPC   PO424864   3.544  33.051   9.153
 6782POPC   GL124865   3.582  32.987   8.853
 6782POPC   GL224866   3.429  33.096   8.853
 6782POPC   C1A24867   3.510  33.062   8.553
 6782POPC   D2A24868   3.550  33.052   8.253
 6782POPC   C3A24869   3.518  33.031   7.953
 6782POPC   C4A24870   3.539  33.006   7.653
 6782POPC   C1B24871   3.429  33.211   8.553
 6782POPC   C2B24872   3.376  33.266   8.253
 6782POPC   C3B24873   3.340  33.231   7.953
 6782POPC   C4B24874   3.436  33.211   7.653
 6783POPC   NC324875  27.576  29.158   9.453
 6783POPC   PO424876  27.558  29.095   9.153
 6783POPC   GL124877  27.592  29.131   8.853
 6783POPC   GL224878  27.704  29.091   8.853
 6783POPC   C1A24879  27.637  29.122   8.553
 6783POPC   D2A24880  27.563  29.123   8.253
 6783POPC   C3A24881  27.545  29.115   7.953
 6783POPC   C4A24882  27.613  29.150   7.653
 6783POPC   C1B24883  27.786  28.951   8.553
 6783POPC   C2B24884  27.789  28.969   8.253
 6783POPC   C3B24885  27.722  28.921   7.953
 6783POPC   C4B24886  27.799  28.986   7.653
 6784POPC   NC324887  33.763  26.774   9.453
 6784POPC   PO424888  33.761  26.803   9.153
 6784POPC   GL124889  33.816  26.799   8.853
 6784POPC   GL224890  33.894  26.779   8.853
 6784POPC   C1A24891  33.799  26.856   8.553
 6784POPC   D2A24892  33.813  26.851   8.253
 6784POPC   C3A24893  33.827  26.854   7.953
 6784POPC   C4A24894  33.830  26.803   7.653
 6784POPC   C1B24895  34.057  26.784   8.553
 6784POPC   C2B24896  34.039  26.729   8.253
 6784POPC   C3B24897  34.009  26.787   7.953
 6784POPC   C4B24898  34.039  26.732   7.653
 6785POPC   NC324899  26.790  34.585   9.453
 6785POPC   PO424900  26.771  34.572   9.153
 6785POPC   GL124901  26.858  34.612   8.853
 6785POPC   GL224902  26.793  34.441   8.853
 6785POPC   C1A24903  26.808  34.622   8.553
 6785POPC   D2A24904  26.799  34.549   8.253
 6785POPC   C3A24905  26.791  34.623   7.953
 6785POPC   C4A24906  26.780  34.538   7.653
 6785POPC   C1B24907  26.887  34.316   8.553
 6785POPC   C2B24908  26.868  34.337   8.253
 6785POPC   C3B24909  26.820  34.313   7.953
 6785POPC   C4B24910  26.871  34.301   7.653
 6786POPC   NC324911  44.616   4.283   9.453
 6786POPC   PO424912  44.631   4.348   9.153
 6786POPC   GL124913  44.698   4.333   8.853
 6786POPC   GL224914  44.813   4.370   8.853
 6786POPC   C1A24915  44.644   4.278   8.553
 6786POPC   D2A24916  44.639   4.284   8.253
 6786POPC   C3A24917  44.685   4.308   7.953
 6786POPC   C4A24918  44.648   4.297   7.653
 6786POPC   C1B24919  44.876   4.335   8.553
 6786POPC   C2B24920  44.947   4.376   8.253
 6786POPC   C3B24921  44.911   4.329   7.953
 6786POPC   C4B24922  44.934   4.383   7.653
 6787POPC   NC324923  39.995  36.875   9.453
 6787POPC   PO424924  39.986  36.944   9.153
 6787POPC   GL124925  39.972  36.951   8.853
 6787POPC   GL224926  40.105  36.887   8.853
 6787POPC   C1A24927  39.997  36.910   8.553
 6787POPC   D2A24928  40.014  36.944   8.253
 6787POPC   C3A24929  39.961  36.886   7.953
 6787POPC   C4A24930  40.040  36.865   7.653
 6787POPC   C1B24931  40.190  36.790   8.553
 6787POPC   C2B24932  40.192  36.771   8.253
 6787POPC   C3B24933  40.242  36.729   7.953
 6787POPC   C4B24934  40.258  36.764   7.653
 6788POPC   NC324935  26.050  31.436   9.453
 6788POPC   PO424936  26.056  31.437   9.153
 6788POPC   GL124937  26.035  31.472   8.853
 6788POPC   GL224938  25.970  31.427   8.853
 6788POPC   C1A24939  26.003  31.485   8.553
 6788POPC   D2A24940  26.087  31.485   8.253
 6788POPC   C3A24941  26.035  31.513   7.953
 6788POPC   C4A24942  25.997  31.505   7.653
 6788POPC   C1B24943  25.813  31.386   8.553
 6788POPC   C2B24944  25.843  31.378   8.253
 6788POPC   C3B24945  25.823  31.399   7.953
 6788POPC   C4B24946  25.815  31.425   7.653
 6789POPC   NC324947  39.959   3.587   9.453
 6789POPC   PO424948  39.986   3.575   9.153
 6789POPC   GL124949  40.056   3.551   8.853
 6789POPC   GL224950  40.103   3.593   8.853
 6789POPC   C1A24951  39.989   3.514   8.553
 6789POPC   D2A24952  40.056   3.537   8.253
 6789POPC   C3A24953  40.037   3.509   7.953
 6789POPC   C4A24954  40.021   3.552   7.653
 6789POPC   C1B24955  40.207   3.712   8.553
 6789POPC   C2B24956  40.175   3.633   8.253
 6789POPC   C3B24957  40.232   3.650   7.953
 6789POPC   C4B24958  40.228   3.698   7.653
 6790POPC   NC324959  42.360  21.393   9.453
 6790POPC   PO424960  42.376  21.402   9.153
 6790POPC   GL124961  42.341  21.417   8.853
 6790POPC   GL224962  42.440  21.273   8.853
 6790POPC   C1A24963  42.342  21.361   8.553
 6790POPC   D2A24964  42.299  21.343   8.253
 6790POPC   C3A24965  42.292  21.380   7.953
 6790POPC   C4A24966  42.323  21.383   7.653
 6790POPC   C1B24967  42.452  21.162   8.553
 6790POPC   C2B24968  42.505  21.213   8.253
 6790POPC   C3B24969  42.433  21.173   7.953
 6790POPC   C4B24970  42.515  21.161   7.653
 6791POPC   NC324971  21.347   7.421   9.453
 6791POPC   PO424972  21.403   7.417   9.153
 6791POPC   GL124973  21.381   7.430   8.853
 6791POPC   GL224974  21.334   7.526   8.853
 6791POPC   C1A24975  21.403   7.428   8.553
 6791POPC   D2A24976  21.397   7.395   8.253
 6791POPC   C3A24977  21.404   7.435   7.953
 6791POPC   C4A24978  21.381   7.447   7.653
 6791POPC   C1B24979  21.262   7.622   8.553
 6791POPC   C2B24980  21.215   7.599   8.253
 6791POPC   C3B24981  21.190   7.576   7.953
 6791POPC   C4B24982  21.237   7.625   7.653
 6792POPC   NC324983  43.839   2.740   9.453
 6792POPC   PO424984  43.936   2.763   9.153
 6792POPC   GL124985  43.873   2.811   8.853
 6792POPC   GL224986  43.772   2.676   8.853
 6792POPC   C1A24987  43.840   2.719   8.553
 6792POPC   D2A24988  43.885   2.769   8.253
 6792POPC   C3A24989  43.873   2.741   7.953
 6792POPC   C4A24990  43.842   2.806   7.653
 6792POPC   C1B24991  43.726   2.619   8.553
 6792POPC   C2B24992  43.730   2.622   8.253
 6792POPC   C3B24993  43.769   2.602   7.953
 6792POPC   C4B24994  43.699   2.585   7.653
 6793POPC   NC324995  40.034  38.451   9.453
 6793POPC   PO424996  40.032  38.487   9.153
 6793POPC   GL124997  40.000  38.469   8.853
 6793POPC   GL224998  39.965  38.552   8.853
 6793POPC   C1A24999  39.988  38.474   8.553
 6793POPC   D2A25000  39.970  38.502   8.253
 6793POPC   C3A25001  39.970  38.414   7.953
 6793POPC   C4A25002  39.964  38.486   7.653
 6793POPC   C1B25003  39.901  38.678   8.553
 6793POPC   C2B25004  39.925  38.715   8.253
 6793POPC   C3B25005  39.876  38.707   7.953
 6793POPC   C4B25006  39.895  38.641   7.653
 6794POPC   NC325007  41.528  24.467   9.453
 6794POPC   PO425008  41.593  24.445   9.153
 6794POPC   GL125009  41.596  24.442   8.853
 6794POPC   GL225010  41.665  24.561   8.853
 6794POPC   C1A25011  41.509  24.457   8.553
 6794POPC   D2A25012  41.516  24.487   8.253
 6794POPC   C3A25013  41.537  24.490   7.953
 6794POPC   C4A25014  41.541  24.498   7.653
 6794POPC   C1B25015  41.812  24.589   8.553
 6794POPC   C2B25016  41.790  24.595   8.253
 6794POPC   C3B25017  41.742  24.620   7.953
 6794POPC   C4B25018  41.747  24.612   7.653
 6795POPC   NC325019   4.278  29.158   9.453
 6795POPC   PO425020   4.268  29.114   9.153
 6795POPC   GL125021   4.277  29.153   8.853
 6795POPC   GL225022   4.243  29.265   8.853
 6795POPC   C1A25023   4.297  29.151   8.553
 6795POPC   D2A25024   4.355  29.133   8.253
 6795POPC   C3A25025   4.306  29.193   7.953
 6795POPC   C4A25026   4.307  29.132   7.653
 6795POPC   C1B25027   4.246  29.344   8.553
 6795POPC   C2B25028   4.235  29.399   8.253
 6795POPC   C3B25029   4.188  29.391   7.953
 6795POPC   C4B25030   4.240  29.345   7.653
 6796POPC   NC325031  19.873  30.676   9.453
 6796POPC   PO425032  19.805  30.700   9.153
 6796POPC   GL125033  19.848  30.718   8.853
 6796POPC   GL225034  19.907  30.805   8.853
 6796POPC   C1A25035  19.840  30.727   8.553
 6796POPC   D2A25036  19.799  30.683   8.253
 6796POPC   C3A25037  19.857  30.690   7.953
 6796POPC   C4A25038  19.829  30.664   7.653
 6796POPC   C1B25039  19.948  30.891   8.553
 6796POPC   C2B25040  19.931  30.923   8.253
 6796POPC   C3B25041  19.929  30.960   7.953
 6796POPC   C4B25042  19.959  30.920   7.653
 6797POPC   NC325043  18.280   8.204   9.453
 6797POPC   PO425044  18.316   8.210   9.153
 6797POPC   GL125045  18.284   8.209   8.853
 6797POPC   GL225046  18.252   8.319   8.853
 6797POPC   C1A25047  18.304   8.185   8.553
 6797POPC   D2A25048  18.248   8.173   8.253
 6797POPC   C3A25049  18.253   8.161   7.953
 6797POPC   C4A25050  18.258   8.150   7.653
 6797POPC   C1B25051  18.141   8.435   8.553
 6797POPC   C2B25052  18.140   8.379   8.253
 6797POPC   C3B25053  18.144   8.423   7.953
 6797POPC   C4B25054  18.144   8.464   7.653
 6798POPC   NC325055  19.877  25.239   9.453
 6798POPC   PO425056  19.836  25.238   9.153
 6798POPC   GL125057  19.817  25.252   8.853
 6798POPC   GL225058  19.662  25.279   8.853
 6798POPC   C1A25059  19.816  25.235   8.553
 6798POPC   D2A25060  19.845  25.244   8.253
 6798POPC   C3A25061  19.872  25.308   7.953
 6798POPC   C4A25062  19.819  25.217   7.653
 6798POPC   C1B25063  19.585  25.212   8.553
 6798POPC   C2B25064  19.582  25.238   8.253
 6798POPC   C3B25065  19.619  25.186   7.953
 6798POPC   C4B25066  19.622  25.226   7.653
 6799POPC   NC325067  17.513  40.018   9.453
 6799POPC   PO425068  17.510  40.024   9.153
 6799POPC   GL125069  17.459  39.982   8.853
 6799POPC   GL225070  17.435  40.115   8.853
 6799POPC   C1A25071  17.533  39.969   8.553
 6799POPC   D2A25072  17.465  39.984   8.253
 6799POPC   C3A25073  17.519  40.036   7.953
 6799POPC   C4A25074  17.464  40.029   7.653
 6799POPC   C1B25075  17.295  40.234   8.553
 6799POPC   C2B25076  17.325  40.141   8.253
 6799POPC   C3B25077  17.317  40.167   7.953
 6799POPC   C4B25078  17.372  40.220   7.653
 6800POPC   NC325079  37.672  41.519   9.453
 6800POPC   PO425080  37.724  41.528   9.153
 6800POPC   GL125081  37.692  41.577   8.853
 6800POPC   GL225082  37.722  41.405   8.853
 6800POPC   C1A25083  37.660  41.555   8.553
 6800POPC   D2A25084  37.727  41.513   8.253
 6800POPC   C3A25085  37.726  41.543   7.953
 6800POPC   C4A25086  37.678  41.554   7.653
 6800POPC   C1B25087  37.715  41.308   8.553
 6800POPC   C2B25088  37.640  41.342   8.253
 6800POPC   C3B25089  37.704  41.286   7.953
 6800POPC   C4B25090  37.717  41.268   7.653
 6801POPC   NC325091  26.857   9.774   9.453
 6801POPC   PO425092  26.831   9.762   9.153
 6801POPC   GL125093  26.846   9.792   8.853
 6801POPC   GL225094  26.942   9.741   8.853
 6801POPC   C1A25095  26.844   9.751   8.553
 6801POPC   D2A25096  26.852   9.773   8.253
 6801POPC   C3A25097  26.853   9.740   7.953
 6801POPC   C4A25098  26.807   9.772   7.653
 6801POPC   C1B25099  27.107   9.707   8.553
 6801POPC   C2B25100  27.105   9.696   8.253
 6801POPC   C3B25101  27.055   9.741   7.953
 6801POPC   C4B25102  27.019   9.697   7.653
 6802POPC   NC325103  34.618  15.162   9.453
 6802POPC   PO425104  34.600  15.216   9.153
 6802POPC   GL125105  34.615  15.193   8.853
 6802POPC   GL225106  34.524  15.051   8.853
 6802POPC   C1A25107  34.599  15.196   8.553
 6802POPC   D2A25108  34.603  15.142   8.253
 6802POPC   C3A25109  34.533  15.186   7.953
 6802POPC   C4A25110  34.541  15.146   7.653
 6802POPC   C1B25111  34.475  14.978   8.553
 6802POPC   C2B25112  34.457  14.985   8.253
 6802POPC   C3B25113  34.467  14.924   7.953
 6802POPC   C4B25114  34.493  14.984   7.653
 6803POPC   NC325115  44.627   3.590   9.453
 6803POPC   PO425116  44.643   3.496   9.153
 6803POPC   GL125117  44.625   3.495   8.853
 6803POPC   GL225118  44.744   3.672   8.853
 6803POPC   C1A25119  44.656   3.549   8.553
 6803POPC   D2A25120  44.673   3.567   8.253
 6803POPC   C3A25121  44.658   3.583   7.953
 6803POPC   C4A25122  44.615   3.522   7.653
 6803POPC   C1B25123  44.764   3.727   8.553
 6803POPC   C2B25124  44.827   3.802   8.253
 6803POPC   C3B25125  44.759   3.771   7.953
 6803POPC   C4B25126  44.804   3.794   7.653
 6804POPC   NC325127   2.808   5.117   9.453
 6804POPC   PO425128   2.778   5.097   9.153
 6804POPC   GL125129   2.777   5.087   8.853
 6804POPC   GL225130   2.724   5.009   8.853
 6804POPC   C1A25131   2.806   5.076   8.553
 6804POPC   D2A25132   2.724   5.067   8.253
 6804POPC   C3A25133   2.784   5.073   7.953
 6804POPC   C4A25134   2.809   5.046   7.653
 6804POPC   C1B25135   2.599   4.858   8.553
 6804POPC   C2B25136   2.670   4.901   8.253
 6804POPC   C3B25137   2.651   4.907   7.953
 6804POPC   C4B25138   2.620   4.848   7.653
 6805POPC   NC325139  27.633  12.861   9.453
 6805POPC   PO425140  27.637  12.808   9.153
 6805POPC   GL125141  27.642  12.833   8.853
 6805POPC   GL225142  27.621  12.764   8.853
 6805POPC   C1A25143  27.605  12.841   8.553
 6805POPC   D2A25144  27.634  12.899   8.253
 6805POPC   C3A25145  27.553  12.871   7.953
 6805POPC   C4A25146  27.555  12.845   7.653
 6805POPC   C1B25147  27.628  12.588   8.553
 6805POPC   C2B25148  27.628  12.622   8.253
 6805POPC   C3B25149  27.583  12.641   7.953
 6805POPC   C4B25150  27.584  12.573   7.653
 6806POPC   NC325151  40.046  27.574   9.453
 6806POPC   PO425152  40.025  27.636   9.153
 6806POPC   GL125153  39.986  27.572   8.853
 6806POPC   GL225154  39.956  27.486   8.853
 6806POPC   C1A25155  40.016  27.574   8.553
 6806POPC   D2A25156  40.050  27.618   8.253
 6806POPC   C3A25157  39.987  27.584   7.953
 6806POPC   C4A25158  40.028  27.604   7.653
 6806POPC   C1B25159  39.885  27.447   8.553
 6806POPC   C2B25160  39.836  27.422   8.253
 6806POPC   C3B25161  39.871  27.421   7.953
 6806POPC   C4B25162  39.878  27.357   7.653
 6807POPC   NC325163  43.070   4.272   9.453
 6807POPC   PO425164  43.090   4.302   9.153
 6807POPC   GL125165  43.109   4.296   8.853
 6807POPC   GL225166  43.205   4.213   8.853
 6807POPC   C1A25167  43.091   4.281   8.553
 6807POPC   D2A25168  43.150   4.305   8.253
 6807POPC   C3A25169  43.090   4.274   7.953
 6807POPC   C4A25170  43.061   4.308   7.653
 6807POPC   C1B25171  43.263   4.087   8.553
 6807POPC   C2B25172  43.233   4.132   8.253
 6807POPC   C3B25173  43.280   4.162   7.953
 6807POPC   C4B25174  43.291   4.112   7.653
 6808POPC   NC325175  32.257  32.208   9.453
 6808POPC   PO425176  32.234  32.256   9.153
 6808POPC   GL125177  32.250  32.220   8.853
 6808POPC   GL225178  32.200  32.084   8.853
 6808POPC   C1A25179  32.237  32.244   8.553
 6808POPC   D2A25180  32.214  32.254   8.253
 6808POPC   C3A25181  32.226  32.255   7.953
 6808POPC   C4A25182  32.206  32.212   7.653
 6808POPC   C1B25183  32.231  31.975   8.553
 6808POPC   C2B25184  32.155  31.964   8.253
 6808POPC   C3B25185  32.157  32.030   7.953
 6808POPC   C4B25186  32.152  31.965   7.653
 6809POPC   NC325187   2.760   4.361   9.453
 6809POPC   PO425188   2.804   4.341   9.153
 6809POPC   GL125189   2.765   4.337   8.853
 6809POPC   GL225190   2.832   4.245   8.853
 6809POPC   C1A25191   2.773   4.351   8.553
 6809POPC   D2A25192   2.776   4.318   8.253
 6809POPC   C3A25193   2.792   4.339   7.953
 6809POPC   C4A25194   2.749   4.295   7.653
 6809POPC   C1B25195   2.905   4.073   8.553
 6809POPC   C2B25196   2.850   4.091   8.253
 6809POPC   C3B25197   2.896   4.149   7.953
 6809POPC   C4B25198   2.939   4.108   7.653
 6810POPC   NC325199  29.110  11.271   9.453
 6810POPC   PO425200  29.117  11.316   9.153
 6810POPC   GL125201  29.107  11.306   8.853
 6810POPC   GL225202  29.268  11.343   8.853
 6810POPC   C1A25203  29.108  11.298   8.553
 6810POPC   D2A25204  29.131  11.288   8.253
 6810POPC   C3A25205  29.101  11.287   7.953
 6810POPC   C4A25206  29.188  11.269   7.653
 6810POPC   C1B25207  29.396  11.395   8.553
 6810POPC   C2B25208  29.364  11.368   8.253
 6810POPC   C3B25209  29.339  11.382   7.953
 6810POPC   C4B25210  29.394  11.386   7.653
 6811POPC   NC325211  26.043   2.798   9.453
 6811POPC   PO425212  26.031   2.725   9.153
 6811POPC   GL125213  26.076   2.780   8.853
 6811POPC   GL225214  25.927   2.725   8.853
 6811POPC   C1A25215  25.995   2.737   8.553
 6811POPC   D2A25216  26.049   2.765   8.253
 6811POPC   C3A25217  26.051   2.783   7.953
 6811POPC   C4A25218  26.070   2.755   7.653
 6811POPC   C1B25219  25.822   2.629   8.553
 6811POPC   C2B25220  25.788   2.704   8.253
 6811POPC   C3B25221  25.791   2.718   7.953
 6811POPC   C4B25222  25.795   2.700   7.653
 6812POPC   NC325223  41.599   5.056   9.453
 6812POPC   PO425224  41.520   5.135   9.153
 6812POPC   GL125225  41.530   5.048   8.853
 6812POPC   GL225226  41.449   4.976   8.853
 6812POPC   C1A25227  41.518   5.095   8.553
 6812POPC   D2A25228  41.518   5.068   8.253
 6812POPC   C3A25229  41.570   5.095   7.953
 6812POPC   C4A25230  41.607   5.079   7.653
 6812POPC   C1B25231  41.394   4.938   8.553
 6812POPC   C2B25232  41.462   4.927   8.253
 6812POPC   C3B25233  41.437   4.896   7.953
 6812POPC   C4B25234  41.399   4.878   7.653
 6813POPC   NC325235  29.185  35.365   9.453
 6813POPC   PO425236  29.187  35.310   9.153
 6813POPC   GL125237  29.119  35.374   8.853
 6813POPC   GL225238  29.273  35.244   8.853
 6813POPC   C1A25239  29.113  35.322   8.553
 6813POPC   D2A25240  29.142  35.349   8.253
 6813POPC   C3A25241  29.117  35.322   7.953
 6813POPC   C4A25242  29.096  35.362   7.653
 6813POPC   C1B25243  29.318  35.186   8.553
 6813POPC   C2B25244  29.371  35.217   8.253
 6813POPC   C3B25245  29.403  35.177   7.953
 6813POPC   C4B25246  29.331  35.192   7.653
 6814POPC   NC325247  43.928  18.250   9.453
 6814POPC   PO425248  43.875  18.330   9.153
 6814POPC   GL125249  43.861  18.233   8.853
 6814POPC   GL225250  43.949  18.232   8.853
 6814POPC   C1A25251  43.884  18.305   8.553
 6814POPC   D2A25252  43.847  18.287   8.253
 6814POPC   C3A25253  43.876  18.233   7.953
 6814POPC   C4A25254  43.884  18.320   7.653
 6814POPC   C1B25255  44.129  18.150   8.553
 6814POPC   C2B25256  44.092  18.153   8.253
 6814POPC   C3B25257  44.079  18.126   7.953
 6814POPC   C4B25258  44.088  18.173   7.653
 6815POPC   NC325259  29.919  23.712   9.453
 6815POPC   PO425260  29.930  23.732   9.153
 6815POPC   GL125261  29.905  23.698   8.853
 6815POPC   GL225262  29.808  23.629   8.853
 6815POPC   C1A25263  29.939  23.721   8.553
 6815POPC   D2A25264  29.922  23.676   8.253
 6815POPC   C3A25265  29.959  23.686   7.953
 6815POPC   C4A25266  29.958  23.754   7.653
 6815POPC   C1B25267  29.758  23.574   8.553
 6815POPC   C2B25268  29.716  23.607   8.253
 6815POPC   C3B25269  29.683  23.538   7.953
 6815POPC   C4B25270  29.681  23.576   7.653
 6816POPC   NC325271  21.337  34.546   9.453
 6816POPC   PO425272  21.397  34.603   9.153
 6816POPC   GL125273  21.338  34.607   8.853
 6816POPC   GL225274  21.272  34.544   8.853
 6816POPC   C1A25275  21.360  34.533   8.553
 6816POPC   D2A25276  21.401  34.572   8.253
 6816POPC   C3A25277  21.389  34.591   7.953
 6816POPC   C4A25278  21.399  34.573   7.653
 6816POPC   C1B25279  21.199  34.389   8.553
 6816POPC   C2B25280  21.235  34.392   8.253
 6816POPC   C3B25281  21.190  34.438   7.953
 6816POPC   C4B25282  21.157  34.380   7.653
 6817POPC   NC325283  12.888  33.057   9.453
 6817POPC   PO425284  12.886  33.055   9.153
 6817POPC   GL125285  12.842  33.004   8.853
 6817POPC   GL225286  12.936  33.103   8.853
 6817POPC   C1A25287  12.842  32.977   8.553
 6817POPC   D2A25288  12.898  33.003   8.253
 6817POPC   C3A25289  12.820  33.065   7.953
 6817POPC   C4A25290  12.884  33.040   7.653
 6817POPC   C1B25291  13.004  33.216   8.553
 6817POPC   C2B25292  12.984  33.198   8.253
 6817POPC   C3B25293  13.003  33.180   7.953
 6817POPC   C4B25294  12.990  33.231   7.653
 6818POPC   NC325295  26.020   8.989   9.453
 6818POPC   PO425296  25.993   8.979   9.153
 6818POPC   GL125297  26.053   8.931   8.853
 6818POPC   GL225298  26.117   9.063   8.853
 6818POPC   C1A25299  26.058   8.996   8.553
 6818POPC   D2A25300  26.036   8.975   8.253
 6818POPC   C3A25301  26.061   8.962   7.953
 6818POPC   C4A25302  26.084   8.959   7.653
 6818POPC   C1B25303  26.234   9.063   8.553
 6818POPC   C2B25304  26.289   9.023   8.253
 6818POPC   C3B25305  26.285   9.040   7.953
 6818POPC   C4B25306  26.302   9.032   7.653
 6819POPC   NC325307  13.633  24.537   9.453
 6819POPC   PO425308  13.579  24.447   9.153
 6819POPC   GL125309  13.605  24.452   8.853
 6819POPC   GL225310  13.736  24.492   8.853
 6819POPC   C1A25311  13.661  24.466   8.553
 6819POPC   D2A25312  13.656  24.513   8.253
 6819POPC   C3A25313  13.659  24.482   7.953
 6819POPC   C4A25314  13.626  24.524   7.653
 6819POPC   C1B25315  13.874  24.470   8.553
 6819POPC   C2B25316  13.895  24.392   8.253
 6819POPC   C3B25317  13.920  24.477   7.953
 6819POPC   C4B25318  13.910  24.426   7.653
 6820POPC   NC325319  15.164   1.199   9.453
 6820POPC   PO425320  15.228   1.217   9.153
 6820POPC   GL125321  15.228   1.228   8.853
 6820POPC   GL225322  15.088   1.220   8.853
 6820POPC   C1A25323  15.175   1.215   8.553
 6820POPC   D2A25324  15.182   1.259   8.253
 6820POPC   C3A25325  15.180   1.244   7.953
 6820POPC   C4A25326  15.191   1.243   7.653
 6820POPC   C1B25327  14.931   1.191   8.553
 6820POPC   C2B25328  14.975   1.179   8.253
 6820POPC   C3B25329  14.928   1.185   7.953
 6820POPC   C4B25330  14.971   1.218   7.653
 6821POPC   NC325331   9.780  26.786   9.453
 6821POPC   PO425332   9.786  26.847   9.153
 6821POPC   GL125333   9.774  26.784   8.853
 6821POPC   GL225334   9.778  26.750   8.853
 6821POPC   C1A25335   9.757  26.839   8.553
 6821POPC   D2A25336   9.776  26.787   8.253
 6821POPC   C3A25337   9.699  26.819   7.953
 6821POPC   C4A25338   9.742  26.856   7.653
 6821POPC   C1B25339   9.864  26.640   8.553
 6821POPC   C2B25340   9.938  26.591   8.253
 6821POPC   C3B25341   9.923  26.667   7.953
 6821POPC   C4B25342   9.948  26.632   7.653
 6822POPC   NC325343  31.429   3.573   9.453
 6822POPC   PO425344  31.428   3.496   9.153
 6822POPC   GL125345  31.522   3.541   8.853
 6822POPC   GL225346  31.363   3.490   8.853
 6822POPC   C1A25347  31.440   3.497   8.553
 6822POPC   D2A25348  31.453   3.548   8.253
 6822POPC   C3A25349  31.464   3.547   7.953
 6822POPC   C4A25350  31.459   3.514   7.653
 6822POPC   C1B25351  31.343   3.343   8.553
 6822POPC   C2B25352  31.265   3.337   8.253
 6822POPC   C3B25353  31.265   3.406   7.953
 6822POPC   C4B25354  31.326   3.309   7.653
 6823POPC   NC325355  43.836   0.394   9.453
 6823POPC   PO425356  43.877   0.403   9.153
 6823POPC   GL125357  43.889   0.409   8.853
 6823POPC   GL225358  43.808   0.322   8.853
 6823POPC   C1A25359  43.885   0.461   8.553
 6823POPC   D2A25360  43.926   0.475   8.253
 6823POPC   C3A25361  43.845   0.465   7.953
 6823POPC   C4A25362  43.914   0.435   7.653
 6823POPC   C1B25363  43.754   0.225   8.553
 6823POPC   C2B25364  43.794   0.216   8.253
 6823POPC   C3B25365  43.846   0.183   7.953
 6823POPC   C4B25366  43.771   0.212   7.653
 6824POPC   NC325367  42.355  28.354   9.453
 6824POPC   PO425368  42.295  28.359   9.153
 6824POPC   GL125369  42.345  28.327   8.853
 6824POPC   GL225370  42.353  28.517   8.853
 6824POPC   C1A25371  42.329  28.417   8.553
 6824POPC   D2A25372  42.289  28.376   8.253
 6824POPC   C3A25373  42.381  28.373   7.953
 6824POPC   C4A25374  42.340  28.358   7.653
 6824POPC   C1B25375  42.493  28.613   8.553
 6824POPC   C2B25376  42.492  28.554   8.253
 6824POPC   C3B25377  42.424  28.615   7.953
 6824POPC   C4B25378  42.513  28.578   7.653
 6825POPC   NC325379  23.750  29.113   9.453
 6825POPC   PO425380  23.665  29.151   9.153
 6825POPC   GL125381  23.722  29.129   8.853
 6825POPC   GL225382  23.563  29.234   8.853
 6825POPC   C1A25383  23.735  29.132   8.553
 6825POPC   D2A25384  23.731  29.146   8.253
 6825POPC   C3A25385  23.689  29.163   7.953
 6825POPC   C4A25386  23.751  29.116   7.653
 6825POPC   C1B25387  23.471  29.270   8.553
 6825POPC   C2B25388  23.457  29.285   8.253
 6825POPC   C3B25389  23.466  29.307   7.953
 6825POPC   C4B25390  23.533  29.297   7.653
 6826POPC   NC325391  32.216  16.781   9.453
 6826POPC   PO425392  32.275  16.740   9.153
 6826POPC   GL125393  32.274  16.759   8.853
 6826POPC   GL225394  32.149  16.835   8.853
 6826POPC   C1A25395  32.235  16.695   8.553
 6826POPC   D2A25396  32.202  16.687   8.253
 6826POPC   C3A25397  32.261  16.692   7.953
 6826POPC   C4A25398  32.202  16.743   7.653
 6826POPC   C1B25399  32.130  16.885   8.553
 6826POPC   C2B25400  32.046  16.978   8.253
 6826POPC   C3B25401  32.122  16.884   7.953
 6826POPC   C4B25402  32.077  16.941   7.653
 6827POPC   NC325403  14.357  28.327   9.453
 6827POPC   PO425404  14.417  28.329   9.153
 6827POPC   GL125405  14.428  28.320   8.853
 6827POPC   GL225406  14.256  28.332   8.853
 6827POPC   C1A25407  14.429  28.319   8.553
 6827POPC   D2A25408  14.450  28.351   8.253
 6827POPC   C3A25409  14.438  28.414   7.953
 6827POPC   C4A25410  14.377  28.354   7.653
 6827POPC   C1B25411  14.158  28.288   8.553
 6827POPC   C2B25412  14.178  28.266   8.253
 6827POPC   C3B25413  14.216  28.275   7.953
 6827POPC   C4B25414  14.179  28.247   7.653
 6828POPC   NC325415  36.172  27.547   9.453
 6828POPC   PO425416  36.085  27.578   9.153
 6828POPC   GL125417  36.092  27.637   8.853
 6828POPC   GL225418  35.992  27.629   8.853
 6828POPC   C1A25419  36.139  27.599   8.553
 6828POPC   D2A25420  36.169  27.641   8.253
 6828POPC   C3A25421  36.132  27.554   7.953
 6828POPC   C4A25422  36.120  27.627   7.653
 6828POPC   C1B25423  35.854  27.580   8.553
 6828POPC   C2B25424  35.926  27.589   8.253
 6828POPC   C3B25425  35.854  27.635   7.953
 6828POPC   C4B25426  35.854  27.601   7.653
 6829POPC   NC325427  22.987  21.347   9.453
 6829POPC   PO425428  22.967  21.371   9.153
 6829POPC   GL125429  22.930  21.357   8.853
 6829POPC   GL225430  22.864  21.341   8.853
 6829POPC   C1A25431  22.940  21.380   8.553
 6829POPC   D2A25432  22.947  21.355   8.253
 6829POPC   C3A25433  22.913  21.354   7.953
 6829POPC   C4A25434  22.951  21.405   7.653
 6829POPC   C1B25435  22.787  21.227   8.553
 6829POPC   C2B25436  22.756  21.228   8.253
 6829POPC   C3B25437  22.781  21.277   7.953
 6829POPC   C4B25438  22.739  21.245   7.653
 6830POPC   NC325439  30.664  15.220   9.453
 6830POPC   PO425440  30.719  15.162   9.153
 6830POPC   GL125441  30.724  15.186   8.853
 6830POPC   GL225442  30.548  15.252   8.853
 6830POPC   C1A25443  30.685  15.145   8.553
 6830POPC   D2A25444  30.693  15.211   8.253
 6830POPC   C3A25445  30.665  15.216   7.953
 6830POPC   C4A25446  30.670  15.219   7.653
 6830POPC   C1B25447  30.447  15.367   8.553
 6830POPC   C2B25448  30.457  15.279   8.253
 6830POPC   C3B25449  30.483  15.276   7.953
 6830POPC   C4B25450  30.520  15.325   7.653
 6831POPC   NC325451  14.379   3.590   9.453
 6831POPC   PO425452  14.380   3.543   9.153
 6831POPC   GL125453  14.412   3.530   8.853
 6831POPC   GL225454  14.399   3.421   8.853
 6831POPC   C1A25455  14.452   3.522   8.553
 6831POPC   D2A25456  14.452   3.541   8.253
 6831POPC   C3A25457  14.422   3.506   7.953
 6831POPC   C4A25458  14.389   3.560   7.653
 6831POPC   C1B25459  14.449   3.263   8.553
 6831POPC   C2B25460  14.434   3.281   8.253
 6831POPC   C3B25461  14.504   3.334   7.953
 6831POPC   C4B25462  14.497   3.308   7.653
 6832POPC   NC325463  32.225  27.558   9.453
 6832POPC   PO425464  32.203  27.595   9.153
 6832POPC   GL125465  32.233  27.596   8.853
 6832POPC   GL225466  32.109  27.609   8.853
 6832POPC   C1A25467  32.203  27.639   8.553
 6832POPC   D2A25468  32.255  27.623   8.253
 6832POPC   C3A25469  32.244  27.641   7.953
 6832POPC   C4A25470  32.266  27.619   7.653
 6832POPC   C1B25471  32.052  27.661   8.553
 6832POPC   C2B25472  32.054  27.641   8.253
 6832POPC   C3B25473  32.017  27.696   7.953
 6832POPC   C4B25474  31.973  27.691   7.653
 6833POPC   NC325475  28.377  43.894   9.453
 6833POPC   PO425476  28.386  43.883   9.153
 6833POPC   GL125477  28.357  43.914   8.853
 6833POPC   GL225478  28.293  43.910   8.853
 6833POPC   C1A25479  28.412  43.862   8.553
 6833POPC   D2A25480  28.409  43.910   8.253
 6833POPC   C3A25481  28.382  43.878   7.953
 6833POPC   C4A25482  28.414  43.879   7.653
 6833POPC   C1B25483  28.178  43.984   8.553
 6833POPC   C2B25484  28.165  43.967   8.253
 6833POPC   C3B25485  28.178  43.955   7.953
 6833POPC   C4B25486  28.145  44.022   7.653
 6834POPC   NC325487  22.926  19.024   9.453
 6834POPC   PO425488  22.915  19.038   9.153
 6834POPC   GL125489  22.970  19.085   8.853
 6834POPC   GL225490  23.007  19.004   8.853
 6834POPC   C1A25491  22.916  19.021   8.553
 6834POPC   D2A25492  22.906  19.042   8.253
 6834POPC   C3A25493  22.890  19.030   7.953
 6834POPC   C4A25494  22.890  19.074   7.653
 6834POPC   C1B25495  23.204  18.968   8.553
 6834POPC   C2B25496  23.204  18.955   8.253
 6834POPC   C3B25497  23.179  18.928   7.953
 6834POPC   C4B25498  23.202  18.964   7.653
 6835POPC   NC325499  29.914  13.584   9.453
 6835POPC   PO425500  29.967  13.581   9.153
 6835POPC   GL125501  29.939  13.612   8.853
 6835POPC   GL225502  30.026  13.501   8.853
 6835POPC   C1A25503  29.946  13.625   8.553
 6835POPC   D2A25504  29.935  13.601   8.253
 6835POPC   C3A25505  29.899  13.621   7.953
 6835POPC   C4A25506  29.967  13.627   7.653
 6835POPC   C1B25507  30.057  13.409   8.553
 6835POPC   C2B25508  30.049  13.400   8.253
 6835POPC   C3B25509  30.094  13.412   7.953
 6835POPC   C4B25510  30.036  13.394   7.653
 6836POPC   NC325511  28.359  35.324   9.453
 6836POPC   PO425512  28.320  35.338   9.153
 6836POPC   GL125513  28.392  35.391   8.853
 6836POPC   GL225514  28.307  35.298   8.853
 6836POPC   C1A25515  28.416  35.348   8.553
 6836POPC   D2A25516  28.363  35.324   8.253
 6836POPC   C3A25517  28.378  35.327   7.953
 6836POPC   C4A25518  28.337  35.385   7.653
 6836POPC   C1B25519  28.232  35.150   8.553
 6836POPC   C2B25520  28.197  35.215   8.253
 6836POPC   C3B25521  28.237  35.206   7.953
 6836POPC   C4B25522  28.195  35.187   7.653
 6837POPC   NC325523  33.809  27.630   9.453
 6837POPC   PO425524  33.785  27.641   9.153
 6837POPC   GL125525  33.817  27.569   8.853
 6837POPC   GL225526  33.895  27.538   8.853
 6837POPC   C1A25527  33.767  27.628   8.553
 6837POPC   D2A25528  33.820  27.601   8.253
 6837POPC   C3A25529  33.752  27.622   7.953
 6837POPC   C4A25530  33.773  27.637   7.653
 6837POPC   C1B25531  34.014  27.513   8.553
 6837POPC   C2B25532  34.033  27.556   8.253
 6837POPC   C3B25533  34.054  27.562   7.953
 6837POPC   C4B25534  34.022  27.508   7.653
 6838POPC   NC325535  16.722   3.561   9.453
 6838POPC   PO425536  16.699   3.532   9.153
 6838POPC   GL125537  16.723   3.572   8.853
 6838POPC   GL225538  16.715   3.408   8.853
 6838POPC   C1A25539  16.685   3.518   8.553
 6838POPC   D2A25540  16.695   3.562   8.253
 6838POPC   C3A25541  16.735   3.573   7.953
 6838POPC   C4A25542  16.762   3.520   7.653
 6838POPC   C1B25543  16.625   3.367   8.553
 6838POPC   C2B25544  16.586   3.336   8.253
 6838POPC   C3B25545  16.659   3.305   7.953
 6838POPC   C4B25546  16.604   3.363   7.653
 6839POPC   NC325547  12.870  22.116   9.453
 6839POPC   PO425548  12.818  22.137   9.153
 6839POPC   GL125549  12.835  22.143   8.853
 6839POPC   GL225550  12.710  22.236   8.853
 6839POPC   C1A25551  12.832  22.144   8.553
 6839POPC   D2A25552  12.869  22.156   8.253
 6839POPC   C3A25553  12.876  22.187   7.953
 6839POPC   C4A25554  12.890  22.208   7.653
 6839POPC   C1B25555  12.672  22.312   8.553
 6839POPC   C2B25556  12.579  22.217   8.253
 6839POPC   C3B25557  12.630  22.300   7.953
 6839POPC   C4B25558  12.656  22.315   7.653
 6840POPC   NC325559   7.376  25.250   9.453
 6840POPC   PO425560   7.434  25.260   9.153
 6840POPC   GL125561   7.446  25.241   8.853
 6840POPC   GL225562   7.477  25.159   8.853
 6840POPC   C1A25563   7.439  25.278   8.553
 6840POPC   D2A25564   7.394  25.242   8.253
 6840POPC   C3A25565   7.433  25.281   7.953
 6840POPC   C4A25566   7.439  25.296   7.653
 6840POPC   C1B25567   7.587  25.041   8.553
 6840POPC   C2B25568   7.546  25.116   8.253
 6840POPC   C3B25569   7.548  25.034   7.953
 6840POPC   C4B25570   7.595  25.044   7.653
 6841POPC   NC325571  31.496   8.994   9.453
 6841POPC   PO425572  31.473   9.001   9.153
 6841POPC   GL125573  31.441   9.001   8.853
 6841POPC   GL225574  31.514   8.817   8.853
 6841POPC   C1A25575  31.519   8.968   8.553
 6841POPC   D2A25576  31.457   8.968   8.253
 6841POPC   C3A25577  31.485   8.978   7.953
 6841POPC   C4A25578  31.463   8.963   7.653
 6841POPC   C1B25579  31.594   8.772   8.553
 6841POPC   C2B25580  31.587   8.786   8.253
 6841POPC   C3B25581  31.615   8.698   7.953
 6841POPC   C4B25582  31.568   8.743   7.653
 6842POPC   NC325583  32.292   7.395   9.453
 6842POPC   PO425584  32.248   7.463   9.153
 6842POPC   GL125585  32.279   7.426   8.853
 6842POPC   GL225586  32.369   7.406   8.853
 6842POPC   C1A25587  32.262   7.444   8.553
 6842POPC   D2A25588  32.247   7.385   8.253
 6842POPC   C3A25589  32.296   7.399   7.953
 6842POPC   C4A25590  32.283   7.414   7.653
 6842POPC   C1B25591  32.439   7.339   8.553
 6842POPC   C2B25592  32.465   7.309   8.253
 6842POPC   C3B25593  32.470   7.319   7.953
 6842POPC   C4B25594  32.515   7.291   7.653
 6843POPC   NC325595   4.332   6.617   9.453
 6843POPC   PO425596   4.296   6.610   9.153
 6843POPC   GL125597   4.282   6.608   8.853
 6843POPC   GL225598   4.200   6.701   8.853
 6843POPC   C1A25599   4.315   6.668   8.553
 6843POPC   D2A25600   4.294   6.606   8.253
 6843POPC   C3A25601   4.312   6.633   7.953
 6843POPC   C4A25602   4.339   6.659   7.653
 6843POPC   C1B25603   4.061   6.747   8.553
 6843POPC   C2B25604   4.108   6.718   8.253
 6843POPC   C3B25605   4.078   6.755   7.953
 6843POPC   C4B25606   4.033   6.744   7.653
 6844POPC   NC325607   6.687  25.992   9.453
 6844POPC   PO425608   6.692  26.021   9.153
 6844POPC   GL125609   6.687  26.052   8.853
 6844POPC   GL225610   6.539  26.094   8.853
 6844POPC   C1A25611   6.615  26.088   8.553
 6844POPC   D2A25612   6.641  26.042   8.253
 6844POPC   C3A25613   6.622  26.073   7.953
 6844POPC   C4A25614   6.681  26.082   7.653
 6844POPC   C1B25615   6.400  26.115   8.553
 6844POPC   C2B25616   6.364  26.145   8.253
 6844POPC   C3B25617   6.415  26.143   7.953
 6844POPC   C4B25618   6.428  26.063   7.653
 6845POPC   NC325619  30.654   6.649   9.453
 6845POPC   PO425620  30.676   6.643   9.153
 6845POPC   GL125621  30.739   6.664   8.853
 6845POPC   GL225622  30.863   6.598   8.853
 6845POPC   C1A25623  30.685   6.668   8.553
 6845POPC   D2A25624  30.674   6.672   8.253
 6845POPC   C3A25625  30.708   6.685   7.953
 6845POPC   C4A25626  30.656   6.658   7.653
 6845POPC   C1B25627  30.905   6.620   8.553
 6845POPC   C2B25628  30.934   6.620   8.253
 6845POPC   C3B25629  30.951   6.619   7.953
 6845POPC   C4B25630  30.972   6.552   7.653
 6846POPC   NC325631  23.704  44.652   9.453
 6846POPC   PO425632  23.716  44.693   9.153
 6846POPC   GL125633  23.702  44.670   8.853
 6846POPC   GL225634  23.838  44.635   8.853
 6846POPC   C1A25635  23.736  44.633   8.553
 6846POPC   D2A25636  23.749  44.645   8.253
 6846POPC   C3A25637  23.733  44.637   7.953
 6846POPC   C4A25638  23.745  44.687   7.653
 6846POPC   C1B25639  23.939  44.629   8.553
 6846POPC   C2B25640  23.984  44.576   8.253
 6846POPC   C3B25641  23.943  44.581   7.953
 6846POPC   C4B25642  23.998  44.606   7.653
 6847POPC   NC325643  16.773  32.996   9.453
 6847POPC   PO425644  16.713  33.046   9.153
 6847POPC   GL125645  16.777  33.046   8.853
 6847POPC   GL225646  16.565  33.025   8.853
 6847POPC   C1A25647  16.760  33.058   8.553
 6847POPC   D2A25648  16.726  33.043   8.253
 6847POPC   C3A25649  16.743  33.009   7.953
 6847POPC   C4A25650  16.707  32.984   7.653
 6847POPC   C1B25651  16.485  32.990   8.553
 6847POPC   C2B25652  16.492  32.975   8.253
 6847POPC   C3B25653  16.435  33.055   7.953
 6847POPC   C4B25654  16.480  32.993   7.653
 6848POPC   NC325655  44.657  43.887   9.453
 6848POPC   PO425656  44.705  43.931   9.153
 6848POPC   GL125657  44.640  43.935   8.853
 6848POPC   GL225658  44.694  43.786   8.853
 6848POPC   C1A25659  44.684  43.926   8.553
 6848POPC   D2A25660  44.701  43.876   8.253
 6848POPC   C3A25661  44.674  43.913   7.953
 6848POPC   C4A25662  44.675  43.854   7.653
 6848POPC   C1B25663  44.846  43.652   8.553
 6848POPC   C2B25664  44.822  43.705   8.253
 6848POPC   C3B25665  44.807  43.706   7.953
 6848POPC   C4B25666  44.813  43.686   7.653
 6849POPC   NC325667  10.500  42.374   9.453
 6849POPC   PO425668  10.516  42.317   9.153
 6849POPC   GL125669  10.559  42.317   8.853
 6849POPC   GL225670  10.466  42.273   8.853
 6849POPC   C1A25671  10.510  42.289   8.553
 6849POPC   D2A25672  10.551  42.377   8.253
 6849POPC   C3A25673  10.567  42.352   7.953
 6849POPC   C4A25674  10.475  42.353   7.653
 6849POPC   C1B25675  10.322  42.186   8.553
 6849POPC   C2B25676  10.352  42.126   8.253
 6849POPC   C3B25677  10.367  42.155   7.953
 6849POPC   C4B25678  10.308  42.209   7.653
 6850POPC   NC325679  39.977  42.379   9.453
 6850POPC   PO425680  39.965  42.339   9.153
 6850POPC   GL125681  39.996  42.326   8.853
 6850POPC   GL225682  40.054  42.262   8.853
 6850POPC   C1A25683  39.979  42.322   8.553
 6850POPC   D2A25684  40.007  42.376   8.253
 6850POPC   C3A25685  40.019  42.357   7.953
 6850POPC   C4A25686  39.992  42.362   7.653
 6850POPC   C1B25687  40.167  42.158   8.553
 6850POPC   C2B25688  40.125  42.140   8.253
 6850POPC   C3B25689  40.079  42.156   7.953
 6850POPC   C4B25690  40.077  42.069   7.653
 6851POPC   NC325691  38.498  38.407   9.453
 6851POPC   PO425692  38.451  38.429   9.153
 6851POPC   GL125693  38.440  38.464   8.853
 6851POPC   GL225694  38.391  38.552   8.853
 6851POPC   C1A25695  38.484  38.442   8.553
 6851POPC   D2A25696  38.468  38.480   8.253
 6851POPC   C3A25697  38.462  38.421   7.953
 6851POPC   C4A25698  38.427  38.463   7.653
 6851POPC   C1B25699  38.405  38.715   8.553
 6851POPC   C2B25700  38.380  38.681   8.253
 6851POPC   C3B25701  38.396  38.702   7.953
 6851POPC   C4B25702  38.440  38.733   7.653
 6852POPC   NC325703   2.014   3.563   9.453
 6852POPC   PO425704   1.959   3.588   9.153
 6852POPC   GL125705   2.032   3.535   8.853
 6852POPC   GL225706   2.149   3.470   8.853
 6852POPC   C1A25707   2.021   3.535   8.553
 6852POPC   D2A25708   1.942   3.532   8.253
 6852POPC   C3A25709   2.017   3.586   7.953
 6852POPC   C4A25710   2.013   3.540   7.653
 6852POPC   C1B25711   2.198   3.440   8.553
 6852POPC   C2B25712   2.256   3.477   8.253
 6852POPC   C3B25713   2.264   3.452   7.953
 6852POPC   C4B25714   2.195   3.497   7.653
 6853POPC   NC325715  21.346  25.996   9.453
 6853POPC   PO425716  21.366  26.060   9.153
 6853POPC   GL125717  21.350  26.090   8.853
 6853POPC   GL225718  21.269  26.063   8.853
 6853POPC   C1A25719  21.392  26.059   8.553
 6853POPC   D2A25720  21.390  25.995   8.253
 6853POPC   C3A25721  21.386  26.077   7.953
 6853POPC   C4A25722  21.399  26.032   7.653
 6853POPC   C1B25723  21.154  26.153   8.553
 6853POPC   C2B25724  21.190  26.164   8.253
 6853POPC   C3B25725  21.110  26.146   7.953
 6853POPC   C4B25726  21.113  26.162   7.653
 6854POPC   NC325727   7.380  12.104   9.453
 6854POPC   PO425728   7.408  12.091   9.153
 6854POPC   GL125729   7.372  12.048   8.853
 6854POPC   GL225730   7.453  12.184   8.853
 6854POPC   C1A25731   7.434  12.037   8.553
 6854POPC   D2A25732   7.432  12.088   8.253
 6854POPC   C3A25733   7.386  12.029   7.953
 6854POPC   C4A25734   7.421  12.098   7.653
 6854POPC   C1B25735   7.540  12.340   8.553
 6854POPC   C2B25736   7.538  12.313   8.253
 6854POPC   C3B25737   7.513  12.319   7.953
 6854POPC   C4B25738   7.527  12.313   7.653
 6855POPC   NC325739  28.397  26.018   9.453
 6855POPC   PO425740  28.416  26.007   9.153
 6855POPC   GL125741  28.358  26.072   8.853
 6855POPC   GL225742  28.277  25.907   8.853
 6855POPC   C1A25743  28.377  26.059   8.553
 6855POPC   D2A25744  28.406  26.054   8.253
 6855POPC   C3A25745  28.333  26.045   7.953
 6855POPC   C4A25746  28.399  25.993   7.653
 6855POPC   C1B25747  28.253  25.845   8.553
 6855POPC   C2B25748  28.215  25.848   8.253
 6855POPC   C3B25749  28.204  25.803   7.953
 6855POPC   C4B25750  28.185  25.794   7.653
 6856POPC   NC325751  13.629  15.944   9.453
 6856POPC   PO425752  13.673  15.922   9.153
 6856POPC   GL125753  13.660  15.949   8.853
 6856POPC   GL225754  13.663  15.860   8.853
 6856POPC   C1A25755  13.605  15.969   8.553
 6856POPC   D2A25756  13.628  15.952   8.253
 6856POPC   C3A25757  13.639  15.933   7.953
 6856POPC   C4A25758  13.617  15.912   7.653
 6856POPC   C1B25759  13.797  15.757   8.553
 6856POPC   C2B25760  13.778  15.789   8.253
 6856POPC   C3B25761  13.828  15.786   7.953
 6856POPC   C4B25762  13.768  15.726   7.653
 6857POPC   NC325763  30.737   9.002   9.453
 6857POPC   PO425764  30.661   8.936   9.153
 6857POPC   GL125765  30.669   8.993   8.853
 6857POPC   GL225766  30.617   8.930   8.853
 6857POPC   C1A25767  30.693   9.005   8.553
 6857POPC   D2A25768  30.698   9.009   8.253
 6857POPC   C3A25769  30.691   8.970   7.953
 6857POPC   C4A25770  30.684   8.943   7.653
 6857POPC   C1B25771  30.504   8.924   8.553
 6857POPC   C2B25772  30.469   8.951   8.253
 6857POPC   C3B25773  30.469   8.893   7.953
 6857POPC   C4B25774  30.491   8.874   7.653
 6858POPC   NC325775   9.787   1.953   9.453
 6858POPC   PO425776   9.739   1.991   9.153
 6858POPC   GL125777   9.714   1.947   8.853
 6858POPC   GL225778   9.799   1.858   8.853
 6858POPC   C1A25779   9.764   1.946   8.553
 6858POPC   D2A25780   9.795   1.953   8.253
 6858POPC   C3A25781   9.702   2.007   7.953
 6858POPC   C4A25782   9.754   1.995   7.653
 6858POPC   C1B25783   9.952   1.848   8.553
 6858POPC   C2B25784   9.923   1.824   8.253
 6858POPC   C3B25785   9.890   1.813   7.953
 6858POPC   C4B25786   9.931   1.818   7.653
 6859POPC   NC325787  36.086  33.798   9.453
 6859POPC   PO425788  36.134  33.786   9.153
 6859POPC   GL125789  36.090  33.791   8.853
 6859POPC   GL225790  36.147  33.640   8.853
 6859POPC   C1A25791  36.109  33.797   8.553
 6859POPC   D2A25792  36.137  33.843   8.253
 6859POPC   C3A25793  36.119  33.849   7.953
 6859POPC   C4A25794  36.086  33.848   7.653
 6859POPC   C1B25795  36.083  33.570   8.553
 6859POPC   C2B25796  36.083  33.580   8.253
 6859POPC   C3B25797  36.149  33.561   7.953
 6859POPC   C4B25798  36.120  33.547   7.653
 6860POPC   NC325799   5.066  35.377   9.453
 6860POPC   PO425800   5.045  35.303   9.153
 6860POPC   GL125801   5.113  35.311   8.853
 6860POPC   GL225802   5.182  35.444   8.853
 6860POPC   C1A25803   5.099  35.332   8.553
 6860POPC   D2A25804   5.110  35.348   8.253
 6860POPC   C3A25805   5.117  35.331   7.953
 6860POPC   C4A25806   5.140  35.346   7.653
 6860POPC   C1B25807   5.185  35.590   8.553
 6860POPC   C2B25808   5.205  35.594   8.253
 6860POPC   C3B25809   5.248  35.549   7.953
 6860POPC   C4B25810   5.231  35.543   7.653
 6861POPC   NC325811  24.519  32.263   9.453
 6861POPC   PO425812  24.455  32.265   9.153
 6861POPC   GL125813  24.463  32.229   8.853
 6861POPC   GL225814  24.373  32.179   8.853
 6861POPC   C1A25815  24.449  32.203   8.553
 6861POPC   D2A25816  24.519  32.205   8.253
 6861POPC   C3A25817  24.481  32.297   7.953
 6861POPC   C4A25818  24.499  32.268   7.653
 6861POPC   C1B25819  24.268  32.124   8.553
 6861POPC   C2B25820  24.311  32.092   8.253
 6861POPC   C3B25821  24.275  32.111   7.953
 6861POPC   C4B25822  24.256  32.151   7.653
 6862POPC   NC325823  38.454  37.690   9.453
 6862POPC   PO425824  38.486  37.678   9.153
 6862POPC   GL125825  38.488  37.659   8.853
 6862POPC   GL225826  38.372  37.708   8.853
 6862POPC   C1A25827  38.427  37.650   8.553
 6862POPC   D2A25828  38.458  37.724   8.253
 6862POPC   C3A25829  38.415  37.650   7.953
 6862POPC   C4A25830  38.491  37.691   7.653
 6862POPC   C1B25831  38.226  37.728   8.553
 6862POPC   C2B25832  38.265  37.739   8.253
 6862POPC   C3B25833  38.197  37.775   7.953
 6862POPC   C4B25834  38.210  37.761   7.653
 6863POPC   NC325835  33.834   1.227   9.453
 6863POPC   PO425836  33.780   1.185   9.153
 6863POPC   GL125837  33.753   1.238   8.853
 6863POPC   GL225838  33.914   1.150   8.853
 6863POPC   C1A25839  33.789   1.200   8.553
 6863POPC   D2A25840  33.758   1.200   8.253
 6863POPC   C3A25841  33.753   1.204   7.953
 6863POPC   C4A25842  33.818   1.244   7.653
 6863POPC   C1B25843  33.997   1.092   8.553
 6863POPC   C2B25844  34.025   1.054   8.253
 6863POPC   C3B25845  33.990   1.110   7.953
 6863POPC   C4B25846  34.027   1.124   7.653
 6864POPC   NC325847  11.340  24.463   9.453
 6864POPC   PO425848  11.319  24.524   9.153
 6864POPC   GL125849  11.301  24.443   8.853
 6864POPC   GL225850  11.307  24.576   8.853
 6864POPC   C1A25851  11.266  24.501   8.553
 6864POPC   D2A25852  11.257  24.487   8.253
 6864POPC   C3A25853  11.302  24.462   7.953
 6864POPC   C4A25854  11.315  24.517   7.653
 6864POPC   C1B25855  11.259  24.735   8.553
 6864POPC   C2B25856  11.308  24.719   8.253
 6864POPC   C3B25857  11.298  24.767   7.953
 6864POPC   C4B25858  11.251  24.764   7.653
 6865POPC   NC325859   6.652  26.780   9.453
 6865POPC   PO425860   6.688  26.793   9.153
 6865POPC   GL125861   6.608  26.823   8.853
 6865POPC   GL225862   6.719  26.728   8.853
 6865POPC   C1A25863   6.623  26.793   8.553
 6865POPC   D2A25864   6.677  26.829   8.253
 6865POPC   C3A25865   6.616  26.787   7.953
 6865POPC   C4A25866   6.631  26.776   7.653
 6865POPC   C1B25867   6.831  26.681   8.553
 6865POPC   C2B25868   6.828  26.681   8.253
 6865POPC   C3B25869   6.904  26.727   7.953
 6865POPC   C4B25870   6.810  26.682   7.653
 6866POPC   NC325871  30.686   7.455   9.453
 6866POPC   PO425872  30.687   7.427   9.153
 6866POPC   GL125873  30.713   7.448   8.853
 6866POPC   GL225874  30.685   7.329   8.853
 6866POPC   C1A25875  30.720   7.427   8.553
 6866POPC   D2A25876  30.649   7.465   8.253
 6866POPC   C3A25877  30.739   7.390   7.953
 6866POPC   C4A25878  30.719   7.425   7.653
 6866POPC   C1B25879  30.592   7.180   8.553
 6866POPC   C2B25880  30.605   7.141   8.253
 6866POPC   C3B25881  30.590   7.226   7.953
 6866POPC   C4B25882  30.683   7.213   7.653
 6867POPC   NC325883  21.361  43.092   9.453
 6867POPC   PO425884  21.412  43.119   9.153
 6867POPC   GL125885  21.367  43.130   8.853
 6867POPC   GL225886  21.528  43.070   8.853
 6867POPC   C1A25887  21.345  43.123   8.553
 6867POPC   D2A25888  21.402  43.139   8.253
 6867POPC   C3A25889  21.409  43.070   7.953
 6867POPC   C4A25890  21.407  43.086   7.653
 6867POPC   C1B25891  21.558  42.912   8.553
 6867POPC   C2B25892  21.603  42.960   8.253
 6867POPC   C3B25893  21.606  42.943   7.953
 6867POPC   C4B25894  21.579  42.939   7.653
 6868POPC   NC325895  34.569  26.000   9.453
 6868POPC   PO425896  34.581  26.026   9.153
 6868POPC   GL125897  34.618  26.038   8.853
 6868POPC   GL225898  34.491  26.128   8.853
 6868POPC   C1A25899  34.535  26.034   8.553
 6868POPC   D2A25900  34.619  26.058   8.253
 6868POPC   C3A25901  34.544  26.020   7.953
 6868POPC   C4A25902  34.548  26.089   7.653
 6868POPC   C1B25903  34.388  26.142   8.553
 6868POPC   C2B25904  34.395  26.192   8.253
 6868POPC   C3B25905  34.313  26.150   7.953
 6868POPC   C4B25906  34.314  26.173   7.653
 6869POPC   NC325907  26.016   7.385   9.453
 6869POPC   PO425908  26.057   7.434   9.153
 6869POPC   GL125909  25.997   7.398   8.853
 6869POPC   GL225910  25.901   7.400   8.853
 6869POPC   C1A25911  26.002   7.469   8.553
 6869POPC   D2A25912  26.039   7.433   8.253
 6869POPC   C3A25913  26.040   7.430   7.953
 6869POPC   C4A25914  26.043   7.467   7.653
 6869POPC   C1B25915  25.825   7.253   8.553
 6869POPC   C2B25916  25.786   7.271   8.253
 6869POPC   C3B25917  25.835   7.326   7.953
 6869POPC   C4B25918  25.831   7.255   7.653
 6870POPC   NC325919  26.827   0.487   9.453
 6870POPC   PO425920  26.837   0.406   9.153
 6870POPC   GL125921  26.821   0.419   8.853
 6870POPC   GL225922  26.741   0.489   8.853
 6870POPC   C1A25923  26.838   0.431   8.553
 6870POPC   D2A25924  26.861   0.392   8.253
 6870POPC   C3A25925  26.804   0.469   7.953
 6870POPC   C4A25926  26.783   0.431   7.653
 6870POPC   C1B25927  26.608   0.556   8.553
 6870POPC   C2B25928  26.640   0.629   8.253
 6870POPC   C3B25929  26.633   0.600   7.953
 6870POPC   C4B25930  26.679   0.605   7.653
 6871POPC   NC325931  41.525  30.673   9.453
 6871POPC   PO425932  41.520  30.716   9.153
 6871POPC   GL125933  41.545  30.666   8.853
 6871POPC   GL225934  41.385  30.644   8.853
 6871POPC   C1A25935  41.554  30.727   8.553
 6871POPC   D2A25936  41.560  30.705   8.253
 6871POPC   C3A25937  41.582  30.717   7.953
 6871POPC   C4A25938  41.510  30.677   7.653
 6871POPC   C1B25939  41.347  30.643   8.553
 6871POPC   C2B25940  41.281  30.683   8.253
 6871POPC   C3B25941  41.262  30.680   7.953
 6871POPC   C4B25942  41.283  30.635   7.653
 6872POPC   NC325943   1.997  35.318   9.453
 6872POPC   PO425944   2.031  35.379   9.153
 6872POPC   GL125945   1.957  35.328   8.853
 6872POPC   GL225946   1.843  35.268   8.853
 6872POPC   C1A25947   1.971  35.394   8.553
 6872POPC   D2A25948   1.989  35.352   8.253
 6872POPC   C3A25949   2.019  35.396   7.953
 6872POPC   C4A25950   2.008  35.390   7.653
 6872POPC   C1B25951   1.771  35.171   8.553
 6872POPC   C2B25952   1.777  35.171   8.253
 6872POPC   C3B25953   1.835  35.169   7.953
 6872POPC   C4B25954   1.767  35.186   7.653
 6873POPC   NC325955  43.155  42.381   9.453
 6873POPC   PO425956  43.143  42.288   9.153
 6873POPC   GL125957  43.066  42.309   8.853
 6873POPC   GL225958  43.027  42.365   8.853
 6873POPC   C1A25959  43.088  42.366   8.553
 6873POPC   D2A25960  43.078  42.317   8.253
 6873POPC   C3A25961  43.146  42.321   7.953
 6873POPC   C4A25962  43.077  42.333   7.653
 6873POPC   C1B25963  42.875  42.494   8.553
 6873POPC   C2B25964  42.875  42.463   8.253
 6873POPC   C3B25965  42.881  42.441   7.953
 6873POPC   C4B25966  42.892  42.466   7.653
 6874POPC   NC325967  39.244  40.038   9.453
 6874POPC   PO425968  39.219  40.031   9.153
 6874POPC   GL125969  39.187  40.054   8.853
 6874POPC   GL225970  39.289  40.089   8.853
 6874POPC   C1A25971  39.274  39.983   8.553
 6874POPC   D2A25972  39.247  40.049   8.253
 6874POPC   C3A25973  39.185  39.979   7.953
 6874POPC   C4A25974  39.199  40.045   7.653
 6874POPC   C1B25975  39.394  40.177   8.553
 6874POPC   C2B25976  39.417  40.245   8.253
 6874POPC   C3B25977  39.407  40.170   7.953
 6874POPC   C4B25978  39.421  40.180   7.653
 6875POPC   NC325979  10.552  25.303   9.453
 6875POPC   PO425980  10.485  25.243   9.153
 6875POPC   GL125981  10.520  25.241   8.853
 6875POPC   GL225982  10.361  25.249   8.853
 6875POPC   C1A25983  10.557  25.291   8.553
 6875POPC   D2A25984  10.552  25.280   8.253
 6875POPC   C3A25985  10.517  25.283   7.953
 6875POPC   C4A25986  10.535  25.259   7.653
 6875POPC   C1B25987  10.308  25.111   8.553
 6875POPC   C2B25988  10.327  25.161   8.253
 6875POPC   C3B25989  10.335  25.191   7.953
 6875POPC   C4B25990  10.302  25.172   7.653
 6876POPC   NC325991  42.293  15.908   9.453
 6876POPC   PO425992  42.333  15.939   9.153
 6876POPC   GL125993  42.341  15.928   8.853
 6876POPC   GL225994  42.488  15.894   8.853
 6876POPC   C1A25995  42.319  15.976   8.553
 6876POPC   D2A25996  42.310  15.977   8.253
 6876POPC   C3A25997  42.350  15.920   7.953
 6876POPC   C4A25998  42.370  15.914   7.653
 6876POPC   C1B25999  42.594  15.863   8.553
 6876POPC   C2B26000  42.519  15.829   8.253
 6876POPC   C3B26001  42.589  15.827   7.953
 6876POPC   C4B26002  42.572  15.825   7.653
 6877POPC   NC326003  38.472  18.236   9.453
 6877POPC   PO426004  38.494  18.273   9.153
 6877POPC   GL126005  38.499  18.295   8.853
 6877POPC   GL226006  38.577  18.274   8.853
 6877POPC   C1A26007  38.488  18.249   8.553
 6877POPC   D2A26008  38.456  18.329   8.253
 6877POPC   C3A26009  38.455  18.316   7.953
 6877POPC   C4A26010  38.495  18.236   7.653
 6877POPC   C1B26011  38.683  18.288   8.553
 6877POPC   C2B26012  38.680  18.318   8.253
 6877POPC   C3B26013  38.667  18.303   7.953
 6877POPC   C4B26014  38.730  18.304   7.653
 6878POPC   NC326015  12.854   4.310   9.453
 6878POPC   PO426016  12.817   4.358   9.153
 6878POPC   GL126017  12.805   4.319   8.853
 6878POPC   GL226018  12.837   4.170   8.853
 6878POPC   C1A26019  12.865   4.315   8.553
 6878POPC   D2A26020  12.816   4.367   8.253
 6878POPC   C3A26021  12.875   4.352   7.953
 6878POPC   C4A26022  12.804   4.340   7.653
 6878POPC   C1B26023  12.910   4.087   8.553
 6878POPC   C2B26024  12.872   4.081   8.253
 6878POPC   C3B26025  12.922   4.048   7.953
 6878POPC   C4B26026  12.851   4.086   7.653
 6879POPC   NC326027  15.168  32.231   9.453
 6879POPC   PO426028  15.195  32.262   9.153
 6879POPC   GL126029  15.170  32.225   8.853
 6879POPC   GL226030  15.321  32.210   8.853
 6879POPC   C1A26031  15.159  32.253   8.553
 6879POPC   D2A26032  15.133  32.279   8.253
 6879POPC   C3A26033  15.131  32.234   7.953
 6879POPC   C4A26034  15.138  32.274   7.653
 6879POPC   C1B26035  15.417  32.216   8.553
 6879POPC   C2B26036  15.461  32.253   8.253
 6879POPC   C3B26037  15.439  32.274   7.953
 6879POPC   C4B26038  15.444  32.282   7.653
 6880POPC   NC326039   7.424  44.641   9.453
 6880POPC   PO426040   7.418  44.693   9.153
 6880POPC   GL126041   7.443  44.656   8.853
 6880POPC   GL226042   7.461  44.805   8.853
 6880POPC   C1A26043   7.389  44.676   8.553
 6880POPC   D2A26044   7.420  44.688   8.253
 6880POPC   C3A26045   7.432  44.654   7.953
 6880POPC   C4A26046   7.438  44.687   7.653
 6880POPC   C1B26047   7.378  44.942   8.553
 6880POPC   C2B26048   7.430  44.922   8.253
 6880POPC   C3B26049   7.408  44.868   7.953
 6880POPC   C4B26050   7.443  44.902   7.653
 6881POPC   NC326051  17.514  29.900   9.453
 6881POPC   PO426052  17.526  29.884   9.153
 6881POPC   GL126053  17.533  29.912   8.853
 6881POPC   GL226054  17.476  30.054   8.853
 6881POPC   C1A26055  17.550  29.925   8.553
 6881POPC   D2A26056  17.540  29.943   8.253
 6881POPC   C3A26057  17.533  29.949   7.953
 6881POPC   C4A26058  17.492  29.904   7.653
 6881POPC   C1B26059  17.349  30.109   8.553
 6881POPC   C2B26060  17.313  30.159   8.253
 6881POPC   C3B26061  17.359  30.131   7.953
 6881POPC   C4B26062  17.348  30.131   7.653
 6882POPC   NC326063  28.333  19.794   9.453
 6882POPC   PO426064  28.369  19.858   9.153
 6882POPC   GL126065  28.347  19.856   8.853
 6882POPC   GL226066  28.489  19.947   8.853
 6882POPC   C1A26067  28.416  19.804   8.553
 6882POPC   D2A26068  28.329  19.796   8.253
 6882POPC   C3A26069  28.398  19.869   7.953
 6882POPC   C4A26070  28.361  19.824   7.653
 6882POPC   C1B26071  28.585  20.025   8.553
 6882POPC   C2B26072  28.509  19.976   8.253
 6882POPC   C3B26073  28.583  20.015   7.953
 6882POPC   C4B26074  28.594  19.959   7.653
 6883POPC   NC326075  43.112  28.333   9.453
 6883POPC   PO426076  43.126  28.348   9.153
 6883POPC   GL126077  43.159  28.320   8.853
 6883POPC   GL226078  43.125  28.266   8.853
 6883POPC   C1A26079  43.091  28.370   8.553
 6883POPC   D2A26080  43.115  28.357   8.253
 6883POPC   C3A26081  43.087  28.377   7.953
 6883POPC   C4A26082  43.077  28.359   7.653
 6883POPC   C1B26083  43.084  28.146   8.553
 6883POPC   C2B26084  43.083  28.140   8.253
 6883POPC   C3B26085  43.087  28.136   7.953
 6883POPC   C4B26086  43.078  28.169   7.653
 6884POPC   NC326087  30.733  16.781   9.453
 6884POPC   PO426088  30.709  16.713   9.153
 6884POPC   GL126089  30.692  16.763   8.853
 6884POPC   GL226090  30.688  16.614   8.853
 6884POPC   C1A26091  30.720  16.748   8.553
 6884POPC   D2A26092  30.678  16.689   8.253
 6884POPC   C3A26093  30.650  16.728   7.953
 6884POPC   C4A26094  30.689  16.698   7.653
 6884POPC   C1B26095  30.750  16.485   8.553
 6884POPC   C2B26096  30.691  16.531   8.253
 6884POPC   C3B26097  30.745  16.514   7.953
 6884POPC   C4B26098  30.685  16.530   7.653
 6885POPC   NC326099  42.291  23.703   9.453
 6885POPC   PO426100  42.285  23.761   9.153
 6885POPC   GL126101  42.334  23.708   8.853
 6885POPC   GL226102  42.474  23.625   8.853
 6885POPC   C1A26103  42.317  23.722   8.553
 6885POPC   D2A26104  42.303  23.697   8.253
 6885POPC   C3A26105  42.344  23.693   7.953
 6885POPC   C4A26106  42.312  23.666   7.653
 6885POPC   C1B26107  42.592  23.570   8.553
 6885POPC   C2B26108  42.597  23.574   8.253
 6885POPC   C3B26109  42.570  23.637   7.953
 6885POPC   C4B26110  42.588  23.620   7.653
 6886POPC   NC326111  23.693  21.390   9.453
 6886POPC   PO426112  23.708  21.353   9.153
 6886POPC   GL126113  23.713  21.337   8.853
 6886POPC   GL226114  23.803  21.487   8.853
 6886POPC   C1A26115  23.723  21.396   8.553
 6886POPC   D2A26116  23.704  21.347   8.253
 6886POPC   C3A26117  23.757  21.337   7.953
 6886POPC   C4A26118  23.720  21.425   7.653
 6886POPC   C1B26119  23.826  21.646   8.553
 6886POPC   C2B26120  23.800  21.631   8.253
 6886POPC   C3B26121  23.862  21.661   7.953
 6886POPC   C4B26122  23.829  21.634   7.653
 6887POPC   NC326123  16.752   8.174   9.453
 6887POPC   PO426124  16.684   8.226   9.153
 6887POPC   GL126125  16.750   8.191   8.853
 6887POPC   GL226126  16.693   8.343   8.853
 6887POPC   C1A26127  16.756   8.223   8.553
 6887POPC   D2A26128  16.721   8.148   8.253
 6887POPC   C3A26129  16.747   8.246   7.953
 6887POPC   C4A26130  16.772   8.190   7.653
 6887POPC   C1B26131  16.665   8.490   8.553
 6887POPC   C2B26132  16.657   8.427   8.253
 6887POPC   C3B26133  16.680   8.414   7.953
 6887POPC   C4B26134  16.659   8.464   7.653
 6888POPC   NC326135   7.385  36.097   9.453
 6888POPC   PO426136   7.455  36.177   9.153
 6888POPC   GL126137   7.391  36.171   8.853
 6888POPC   GL226138   7.574  36.159   8.853
 6888POPC   C1A26139   7.429  36.081   8.553
 6888POPC   D2A26140   7.427  36.154   8.253
 6888POPC   C3A26141   7.404  36.118   7.953
 6888POPC   C4A26142   7.397  36.092   7.653
 6888POPC   C1B26143   7.664  36.184   8.553
 6888POPC   C2B26144   7.661  36.144   8.253
 6888POPC   C3B26145   7.647  36.124   7.953
 6888POPC   C4B26146   7.701  36.152   7.653
 6889POPC   NC326147  16.765  43.854   9.453
 6889POPC   PO426148  16.742  43.871   9.153
 6889POPC   GL126149  16.753  43.879   8.853
 6889POPC   GL226150  16.830  43.946   8.853
 6889POPC   C1A26151  16.728  43.838   8.553
 6889POPC   D2A26152  16.733  43.898   8.253
 6889POPC   C3A26153  16.710  43.931   7.953
 6889POPC   C4A26154  16.753  43.922   7.653
 6889POPC   C1B26155  16.967  44.015   8.553
 6889POPC   C2B26156  16.929  43.962   8.253
 6889POPC   C3B26157  16.980  44.012   7.953
 6889POPC   C4B26158  16.998  43.960   7.653
 6890POPC   NC326159  37.658   1.223   9.453
 6890POPC   PO426160  37.662   1.204   9.153
 6890POPC   GL126161  37.657   1.253   8.853
 6890POPC   GL226162  37.730   1.111   8.853
 6890POPC   C1A26163  37.681   1.175   8.553
 6890POPC   D2A26164  37.646   1.235   8.253
 6890POPC   C3A26165  37.678   1.207   7.953
 6890POPC   C4A26166  37.683   1.222   7.653
 6890POPC   C1B26167  37.729   1.001   8.553
 6890POPC   C2B26168  37.675   0.914   8.253
 6890POPC   C3B26169  37.724   0.974   7.953
 6890POPC   C4B26170  37.695   0.923   7.653
 6891POPC   NC326171  14.411  26.080   9.453
 6891POPC   PO426172  14.438  26.007   9.153
 6891POPC   GL126173  14.440  25.993   8.853
 6891POPC   GL226174  14.466  26.187   8.853
 6891POPC   C1A26175  14.443  26.041   8.553
 6891POPC   D2A26176  14.437  26.057   8.253
 6891POPC   C3A26177  14.359  26.005   7.953
 6891POPC   C4A26178  14.412  26.081   7.653
 6891POPC   C1B26179  14.415  26.314   8.553
 6891POPC   C2B26180  14.394  26.279   8.253
 6891POPC   C3B26181  14.393  26.270   7.953
 6891POPC   C4B26182  14.462  26.250   7.653
 6892POPC   NC326183  22.919  20.580   9.453
 6892POPC   PO426184  22.941  20.656   9.153
 6892POPC   GL126185  22.942  20.600   8.853
 6892POPC   GL226186  23.101  20.603   8.853
 6892POPC   C1A26187  22.978  20.630   8.553
 6892POPC   D2A26188  22.896  20.590   8.253
 6892POPC   C3A26189  22.910  20.578   7.953
 6892POPC   C4A26190  22.972  20.644   7.653
 6892POPC   C1B26191  23.169  20.581   8.553
 6892POPC   C2B26192  23.199  20.570   8.253
 6892POPC   C3B26193  23.180  20.574   7.953
 6892POPC   C4B26194  23.136  20.517   7.653
 6893POPC   NC326195  35.387  27.599   9.453
 6893POPC   PO426196  35.377  27.633   9.153
 6893POPC   GL126197  35.395  27.593   8.853
 6893POPC   GL226198  35.273  27.666   8.853
 6893POPC   C1A26199  35.375  27.624   8.553
 6893POPC   D2A26200  35.320  27.583   8.253
 6893POPC   C3A26201  35.362  27.626   7.953
 6893POPC   C4A26202  35.401  27.550   7.653
 6893POPC   C1B26203  35.137  27.756   8.553
 6893POPC   C2B26204  35.143  27.773   8.253
 6893POPC   C3B26205  35.112  27.789   7.953
 6893POPC   C4B26206  35.134  27.755   7.653
 6894POPC   NC326207  11.255  13.657   9.453
 6894POPC   PO426208  11.309  13.661   9.153
 6894POPC   GL126209  11.335  13.667   8.853
 6894POPC   GL226210  11.233  13.703   8.853
 6894POPC   C1A26211  11.349  13.591   8.553
 6894POPC   D2A26212  11.349  13.578   8.253
 6894POPC   C3A26213  11.344  13.664   7.953
 6894POPC   C4A26214  11.279  13.635   7.653
 6894POPC   C1B26215  11.188  13.883   8.553
 6894POPC   C2B26216  11.203  13.895   8.253
 6894POPC   C3B26217  11.189  13.859   7.953
 6894POPC   C4B26218  11.206  13.865   7.653
 6895POPC   NC326219   2.035  15.226   9.453
 6895POPC   PO426220   2.004  15.204   9.153
 6895POPC   GL126221   2.026  15.187   8.853
 6895POPC   GL226222   1.945  15.051   8.853
 6895POPC   C1A26223   2.031  15.135   8.553
 6895POPC   D2A26224   1.999  15.154   8.253
 6895POPC   C3A26225   2.001  15.145   7.953
 6895POPC   C4A26226   1.995  15.150   7.653
 6895POPC   C1B26227   1.934  14.929   8.553
 6895POPC   C2B26228   1.933  14.968   8.253
 6895POPC   C3B26229   1.944  14.976   7.953
 6895POPC   C4B26230   1.934  14.980   7.653
 6896POPC   NC326231  24.524  11.253   9.453
 6896POPC   PO426232  24.505  11.272   9.153
 6896POPC   GL126233  24.531  11.335   8.853
 6896POPC   GL226234  24.381  11.423   8.853
 6896POPC   C1A26235  24.456  11.292   8.553
 6896POPC   D2A26236  24.476  11.273   8.253
 6896POPC   C3A26237  24.491  11.269   7.953
 6896POPC   C4A26238  24.496  11.337   7.653
 6896POPC   C1B26239  24.352  11.507   8.553
 6896POPC   C2B26240  24.332  11.499   8.253
 6896POPC   C3B26241  24.381  11.539   7.953
 6896POPC   C4B26242  24.356  11.524   7.653
 6897POPC   NC326243  16.718  27.601   9.453
 6897POPC   PO426244  16.685  27.628   9.153
 6897POPC   GL126245  16.716  27.621   8.853
 6897POPC   GL226246  16.873  27.664   8.853
 6897POPC   C1A26247  16.720  27.556   8.553
 6897POPC   D2A26248  16.752  27.567   8.253
 6897POPC   C3A26249  16.712  27.584   7.953
 6897POPC   C4A26250  16.711  27.582   7.653
 6897POPC   C1B26251  16.997  27.638   8.553
 6897POPC   C2B26252  16.919  27.726   8.253
 6897POPC   C3B26253  16.955  27.662   7.953
 6897POPC   C4B26254  16.977  27.697   7.653
 6898POPC   NC326255  15.951   8.981   9.453
 6898POPC   PO426256  16.000   8.998   9.153
 6898POPC   GL126257  16.003   8.972   8.853
 6898POPC   GL226258  15.953   9.126   8.853
 6898POPC   C1A26259  15.943   8.980   8.553
 6898POPC   D2A26260  15.999   8.923   8.253
 6898POPC   C3A26261  15.945   8.937   7.953
 6898POPC   C4A26262  15.919   8.949   7.653
 6898POPC   C1B26263  15.945   9.216   8.553
 6898POPC   C2B26264  15.967   9.200   8.253
 6898POPC   C3B26265  15.940   9.267   7.953
 6898POPC   C4B26266  15.946   9.243   7.653
 6899POPC   NC326267  35.363   2.739   9.453
 6899POPC   PO426268  35.377   2.761   9.153
 6899POPC   GL126269  35.379   2.748   8.853
 6899POPC   GL226270  35.234   2.846   8.853
 6899POPC   C1A26271  35.376   2.723   8.553
 6899POPC   D2A26272  35.345   2.782   8.253
 6899POPC   C3A26273  35.386   2.813   7.953
 6899POPC   C4A26274  35.358   2.723   7.653
 6899POPC   C1B26275  35.085   2.934   8.553
 6899POPC   C2B26276  35.171   2.915   8.253
 6899POPC   C3B26277  35.170   2.869   7.953
 6899POPC   C4B26278  35.121   2.883   7.653
 6900POPC   NC326279   2.748  40.804   9.453
 6900POPC   PO426280   2.797  40.761   9.153
 6900POPC   GL126281   2.764  40.749   8.853
 6900POPC   GL226282   2.841  40.836   8.853
 6900POPC   C1A26283   2.770  40.794   8.553
 6900POPC   D2A26284   2.810  40.829   8.253
 6900POPC   C3A26285   2.755  40.776   7.953
 6900POPC   C4A26286   2.786  40.765   7.653
 6900POPC   C1B26287   3.058  40.806   8.553
 6900POPC   C2B26288   3.016  40.834   8.253
 6900POPC   C3B26289   3.018  40.796   7.953
 6900POPC   C4B26290   3.017  40.761   7.653
 6901POPC   NC326291  33.052   0.394   9.453
 6901POPC   PO426292  33.006   0.400   9.153
 6901POPC   GL126293  33.014   0.396   8.853
 6901POPC   GL226294  32.935   0.484   8.853
 6901POPC   C1A26295  32.979   0.473   8.553
 6901POPC   D2A26296  33.015   0.403   8.253
 6901POPC   C3A26297  33.050   0.440   7.953
 6901POPC   C4A26298  33.072   0.437   7.653
 6901POPC   C1B26299  32.785   0.500   8.553
 6901POPC   C2B26300  32.748   0.503   8.253
 6901POPC   C3B26301  32.781   0.466   7.953
 6901POPC   C4B26302  32.823   0.485   7.653
 6902POPC   NC326303   9.010  14.371   9.453
 6902POPC   PO426304   8.967  14.366   9.153
 6902POPC   GL126305   8.978  14.450   8.853
 6902POPC   GL226306   8.840  14.431   8.853
 6902POPC   C1A26307   9.021  14.434   8.553
 6902POPC   D2A26308   8.992  14.403   8.253
 6902POPC   C3A26309   8.990  14.424   7.953
 6902POPC   C4A26310   8.946  14.392   7.653
 6902POPC   C1B26311   8.790  14.537   8.553
 6902POPC   C2B26312   8.811  14.542   8.253
 6902POPC   C3B26313   8.736  14.565   7.953
 6902POPC   C4B26314   8.735  14.543   7.653
 6903POPC   NC326315  26.832  36.090   9.453
 6903POPC   PO426316  26.780  36.142   9.153
 6903POPC   GL126317  26.812  36.101   8.853
 6903POPC   GL226318  26.947  36.078   8.853
 6903POPC   C1A26319  26.801  36.152   8.553
 6903POPC   D2A26320  26.808  36.175   8.253
 6903POPC   C3A26321  26.853  36.162   7.953
 6903POPC   C4A26322  26.767  36.156   7.653
 6903POPC   C1B26323  26.978  35.988   8.553
 6903POPC   C2B26324  27.016  35.962   8.253
 6903POPC   C3B26325  27.057  35.950   7.953
 6903POPC   C4B26326  27.032  35.949   7.653
 6904POPC   NC326327  33.769  18.255   9.453
 6904POPC   PO426328  33.764  18.312   9.153
 6904POPC   GL126329  33.798  18.305   8.853
 6904POPC   GL226330  33.942  18.351   8.853
 6904POPC   C1A26331  33.812  18.255   8.553
 6904POPC   D2A26332  33.754  18.309   8.253
 6904POPC   C3A26333  33.751  18.245   7.953
 6904POPC   C4A26334  33.796  18.247   7.653
 6904POPC   C1B26335  34.051  18.403   8.553
 6904POPC   C2B26336  33.984  18.443   8.253
 6904POPC   C3B26337  34.052  18.379   7.953
 6904POPC   C4B26338  33.993  18.384   7.653
 6905POPC   NC326339   0.390   4.290   9.453
 6905POPC   PO426340   0.433   4.329   9.153
 6905POPC   GL126341   0.480   4.329   8.853
 6905POPC   GL226342   0.306   4.268   8.853
 6905POPC   C1A26343   0.485   4.335   8.553
 6905POPC   D2A26344   0.431   4.301   8.253
 6905POPC   C3A26345   0.449   4.359   7.953
 6905POPC   C4A26346   0.409   4.341   7.653
 6905POPC   C1B26347   0.230   4.116   8.553
 6905POPC   C2B26348   0.260   4.154   8.253
 6905POPC   C3B26349   0.201   4.171   7.953
 6905POPC   C4B26350   0.219   4.132   7.653
 6906POPC   NC326351  43.121  36.865   9.453
 6906POPC   PO426352  43.110  36.859   9.153
 6906POPC   GL126353  43.143  36.875   8.853
 6906POPC   GL226354  43.233  36.890   8.853
 6906POPC   C1A26355  43.088  36.877   8.553
 6906POPC   D2A26356  43.074  36.875   8.253
 6906POPC   C3A26357  43.128  36.858   7.953
 6906POPC   C4A26358  43.158  36.908   7.653
 6906POPC   C1B26359  43.307  36.809   8.553
 6906POPC   C2B26360  43.362  36.873   8.253
 6906POPC   C3B26361  43.344  36.862   7.953
 6906POPC   C4B26362  43.311  36.885   7.653
 6907POPC   NC326363  39.206  38.495   9.453
 6907POPC   PO426364  39.192  38.474   9.153
 6907POPC   GL126365  39.218  38.441   8.853
 6907POPC   GL226366  39.116  38.431   8.853
 6907POPC   C1A26367  39.272  38.408   8.553
 6907POPC   D2A26368  39.233  38.451   8.253
 6907POPC   C3A26369  39.201  38.450   7.953
 6907POPC   C4A26370  39.203  38.498   7.653
 6907POPC   C1B26371  38.954  38.380   8.553
 6907POPC   C2B26372  39.025  38.321   8.253
 6907POPC   C3B26373  39.003  38.325   7.953
 6907POPC   C4B26374  39.001  38.353   7.653
 6908POPC   NC326375  28.405  19.024   9.453
 6908POPC   PO426376  28.337  19.015   9.153
 6908POPC   GL126377  28.393  19.037   8.853
 6908POPC   GL226378  28.239  19.151   8.853
 6908POPC   C1A26379  28.360  19.084   8.553
 6908POPC   D2A26380  28.342  19.044   8.253
 6908POPC   C3A26381  28.347  19.103   7.953
 6908POPC   C4A26382  28.407  19.093   7.653
 6908POPC   C1B26383  28.157  19.276   8.553
 6908POPC   C2B26384  28.163  19.213   8.253
 6908POPC   C3B26385  28.238  19.239   7.953
 6908POPC   C4B26386  28.167  19.205   7.653
 6909POPC   NC326387  44.641   1.181   9.453
 6909POPC   PO426388  44.654   1.193   9.153
 6909POPC   GL126389  44.641   1.167   8.853
 6909POPC   GL226390  44.677   1.362   8.853
 6909POPC   C1A26391  44.646   1.254   8.553
 6909POPC   D2A26392  44.642   1.239   8.253
 6909POPC   C3A26393  44.691   1.231   7.953
 6909POPC   C4A26394  44.621   1.262   7.653
 6909POPC   C1B26395  44.793   1.437   8.553
 6909POPC   C2B26396  44.716   1.420   8.253
 6909POPC   C3B26397  44.723   1.438   7.953
 6909POPC   C4B26398  44.803   1.481   7.653
 6910POPC   NC326399   7.417  14.399   9.453
 6910POPC   PO426400   7.414  14.438   9.153
 6910POPC   GL126401   7.413  14.425   8.853
 6910POPC   GL226402   7.273  14.401   8.853
 6910POPC   C1A26403   7.378  14.430   8.553
 6910POPC   D2A26404   7.423  14.417   8.253
 6910POPC   C3A26405   7.388  14.391   7.953
 6910POPC   C4A26406   7.464  14.360   7.653
 6910POPC   C1B26407   7.169  14.387   8.553
 6910POPC   C2B26408   7.201  14.359   8.253
 6910POPC   C3B26409   7.174  14.378   7.953
 6910POPC   C4B26410   7.126  14.436   7.653
 6911POPC   NC326411  19.088  40.005   9.453
 6911POPC   PO426412  19.106  39.978   9.153
 6911POPC   GL126413  19.084  39.992   8.853
 6911POPC   GL226414  18.987  39.862   8.853
 6911POPC   C1A26415  19.010  40.009   8.553
 6911POPC   D2A26416  19.050  39.978   8.253
 6911POPC   C3A26417  19.078  40.017   7.953
 6911POPC   C4A26418  19.042  39.973   7.653
 6911POPC   C1B26419  18.991  39.739   8.553
 6911POPC   C2B26420  18.962  39.739   8.253
 6911POPC   C3B26421  18.970  39.795   7.953
 6911POPC   C4B26422  19.025  39.737   7.653
 6912POPC   NC326423  29.148  12.100   9.453
 6912POPC   PO426424  29.138  12.117   9.153
 6912POPC   GL126425  29.170  12.105   8.853
 6912POPC   GL226426  29.046  12.146   8.853
 6912POPC   C1A26427  29.187  12.042   8.553
 6912POPC   D2A26428  29.109  12.037   8.253
 6912POPC   C3A26429  29.172  12.040   7.953
 6912POPC   C4A26430  29.110  12.096   7.653
 6912POPC   C1B26431  29.009  12.318   8.553
 6912POPC   C2B26432  29.041  12.282   8.253
 6912POPC   C3B26433  29.003  12.280   7.953
 6912POPC   C4B26434  28.967  12.258   7.653
 6913POPC   NC326435  11.253  32.252   9.453
 6913POPC   PO426436  11.250  32.286   9.153
 6913POPC   GL126437  11.265  32.238   8.853
 6913POPC   GL226438  11.174  32.134   8.853
 6913POPC   C1A26439  11.312  32.261   8.553
 6913POPC   D2A26440  11.326  32.259   8.253
 6913POPC   C3A26441  11.332  32.298   7.953
 6913POPC   C4A26442  11.327  32.285   7.653
 6913POPC   C1B26443  11.098  32.121   8.553
 6913POPC   C2B26444  11.138  32.089   8.253
 6913POPC   C3B26445  11.097  32.130   7.953
 6913POPC   C4B26446  11.146  32.102   7.653
 6914POPC   NC326447  27.587   6.623   9.453
 6914POPC   PO426448  27.597   6.677   9.153
 6914POPC   GL126449  27.596   6.607   8.853
 6914POPC   GL226450  27.486   6.759   8.853
 6914POPC   C1A26451  27.587   6.599   8.553
 6914POPC   D2A26452  27.618   6.617   8.253
 6914POPC   C3A26453  27.588   6.654   7.953
 6914POPC   C4A26454  27.632   6.652   7.653
 6914POPC   C1B26455  27.451   6.827   8.553
 6914POPC   C2B26456  27.489   6.873   8.253
 6914POPC   C3B26457  27.490   6.825   7.953
 6914POPC   C4B26458  27.468   6.825   7.653
 6915POPC   NC326459  15.184   6.669   9.453
 6915POPC   PO426460  15.155   6.668   9.153
 6915POPC   GL126461  15.174   6.651   8.853
 6915POPC   GL226462  15.267   6.724   8.853
 6915POPC   C1A26463  15.199   6.676   8.553
 6915POPC   D2A26464  15.202   6.638   8.253
 6915POPC   C3A26465  15.154   6.678   7.953
 6915POPC   C4A26466  15.175   6.682   7.653
 6915POPC   C1B26467  15.418   6.741   8.553
 6915POPC   C2B26468  15.412   6.709   8.253
 6915POPC   C3B26469  15.392   6.687   7.953
 6915POPC   C4B26470  15.465   6.695   7.653
 6916POPC   NC326471  31.435  37.647   9.453
 6916POPC   PO426472  31.476  37.725   9.153
 6916POPC   GL126473  31.440  37.646   8.853
 6916POPC   GL226474  31.471  37.567   8.853
 6916POPC   C1A26475  31.487  37.661   8.553
 6916POPC   D2A26476  31.458  37.649   8.253
 6916POPC   C3A26477  31.444  37.631   7.953
 6916POPC   C4A26478  31.501  37.705   7.653
 6916POPC   C1B26479  31.412  37.455   8.553
 6916POPC   C2B26480  31.357  37.431   8.253
 6916POPC   C3B26481  31.404  37.471   7.953
 6916POPC   C4B26482  31.399  37.485   7.653
 6917POPC   NC326483  13.579  22.987   9.453
 6917POPC   PO426484  13.596  22.951   9.153
 6917POPC   GL126485  13.600  22.963   8.853
 6917POPC   GL226486  13.596  23.041   8.853
 6917POPC   C1A26487  13.653  22.945   8.553
 6917POPC   D2A26488  13.610  22.913   8.253
 6917POPC   C3A26489  13.635  22.905   7.953
 6917POPC   C4A26490  13.581  22.985   7.653
 6917POPC   C1B26491  13.658  23.208   8.553
 6917POPC   C2B26492  13.650  23.145   8.253
 6917POPC   C3B26493  13.636  23.191   7.953
 6917POPC   C4B26494  13.576  23.217   7.653
 6918POPC   NC326495   2.769  27.587   9.453
 6918POPC   PO426496   2.815  27.582   9.153
 6918POPC   GL126497   2.805  27.587   8.853
 6918POPC   GL226498   2.722  27.439   8.853
 6918POPC   C1A26499   2.751  27.583   8.553
 6918POPC   D2A26500   2.778  27.632   8.253
 6918POPC   C3A26501   2.815  27.587   7.953
 6918POPC   C4A26502   2.733  27.622   7.653
 6918POPC   C1B26503   2.657  27.361   8.553
 6918POPC   C2B26504   2.626  27.336   8.253
 6918POPC   C3B26505   2.612  27.359   7.953
 6918POPC   C4B26506   2.646  27.397   7.653
 6919POPC   NC326507  19.816  43.070   9.453
 6919POPC   PO426508  19.814  43.151   9.153
 6919POPC   GL126509  19.850  43.129   8.853
 6919POPC   GL226510  19.698  43.131   8.853
 6919POPC   C1A26511  19.806  43.128   8.553
 6919POPC   D2A26512  19.801  43.067   8.253
 6919POPC   C3A26513  19.853  43.099   7.953
 6919POPC   C4A26514  19.810  43.150   7.653
 6919POPC   C1B26515  19.647  43.226   8.553
 6919POPC   C2B26516  19.660  43.266   8.253
 6919POPC   C3B26517  19.598  43.216   7.953
 6919POPC   C4B26518  19.643  43.237   7.653
 6920POPC   NC326519  15.945   0.400   9.453
 6920POPC   PO426520  15.998   0.447   9.153
 6920POPC   GL126521  15.933   0.420   8.853
 6920POPC   GL226522  15.784   0.486   8.853
 6920POPC   C1A26523  15.959   0.409   8.553
 6920POPC   D2A26524  15.907   0.453   8.253
 6920POPC   C3A26525  15.916   0.425   7.953
 6920POPC   C4A26526  15.972   0.451   7.653
 6920POPC   C1B26527  15.717   0.503   8.553
 6920POPC   C2B26528  15.743   0.492   8.253
 6920POPC   C3B26529  15.719   0.476   7.953
 6920POPC   C4B26530  15.720   0.492   7.653
 6921POPC   NC326531  37.694  40.018   9.453
 6921POPC   PO426532  37.681  40.033   9.153
 6921POPC   GL126533  37.665  40.024   8.853
 6921POPC   GL226534  37.654  39.905   8.853
 6921POPC   C1A26535  37.651  39.988   8.553
 6921POPC   D2A26536  37.689  40.052   8.253
 6921POPC   C3A26537  37.691  39.993   7.953
 6921POPC   C4A26538  37.691  39.993   7.653
 6921POPC   C1B26539  37.702  39.783   8.553
 6921POPC   C2B26540  37.719  39.808   8.253
 6921POPC   C3B26541  37.745  39.720   7.953
 6921POPC   C4B26542  37.708  39.807   7.653
 6922POPC   NC326543  19.803  11.290   9.453
 6922POPC   PO426544  19.860  11.290   9.153
 6922POPC   GL126545  19.799  11.312   8.853
 6922POPC   GL226546  20.000  11.367   8.853
 6922POPC   C1A26547  19.822  11.294   8.553
 6922POPC   D2A26548  19.881  11.341   8.253
 6922POPC   C3A26549  19.827  11.252   7.953
 6922POPC   C4A26550  19.808  11.300   7.653
 6922POPC   C1B26551  20.040  11.312   8.553
 6922POPC   C2B26552  20.087  11.299   8.253
 6922POPC   C3B26553  20.039  11.327   7.953
 6922POPC   C4B26554  20.052  11.364   7.653
 6923POPC   NC326555  33.055  15.920   9.453
 6923POPC   PO426556  33.021  15.918   9.153
 6923POPC   GL126557  32.984  15.922   8.853
 6923POPC   GL226558  32.938  15.968   8.853
 6923POPC   C1A26559  33.072  15.972   8.553
 6923POPC   D2A26560  32.996  15.921   8.253
 6923POPC   C3A26561  32.986  15.999   7.953
 6923POPC   C4A26562  33.013  15.947   7.653
 6923POPC   C1B26563  32.762  16.017   8.553
 6923POPC   C2B26564  32.778  16.058   8.253
 6923POPC   C3B26565  32.837  16.077   7.953
 6923POPC   C4B26566  32.797  16.050   7.653
 6924POPC   NC326567  42.329  22.211   9.453
 6924POPC   PO426568  42.363  22.124   9.153
 6924POPC   GL126569  42.310  22.187   8.853
 6924POPC   GL226570  42.210  22.099   8.853
 6924POPC   C1A26571  42.312  22.189   8.553
 6924POPC   D2A26572  42.380  22.149   8.253
 6924POPC   C3A26573  42.352  22.195   7.953
 6924POPC   C4A26574  42.315  22.125   7.653
 6924POPC   C1B26575  42.042  22.125   8.553
 6924POPC   C2B26576  42.101  22.107   8.253
 6924POPC   C3B26577  42.048  22.120   7.953
 6924POPC   C4B26578  42.117  22.145   7.653
 6925POPC   NC326579  29.118  15.954   9.453
 6925POPC   PO426580  29.171  15.986   9.153
 6925POPC   GL126581  29.142  15.919   8.853
 6925POPC   GL226582  28.999  16.017   8.853
 6925POPC   C1A26583  29.145  15.920   8.553
 6925POPC   D2A26584  29.118  15.947   8.253
 6925POPC   C3A26585  29.149  15.994   7.953
 6925POPC   C4A26586  29.126  15.987   7.653
 6925POPC   C1B26587  28.969  16.050   8.553
 6925POPC   C2B26588  28.965  16.135   8.253
 6925POPC   C3B26589  28.917  16.104   7.953
 6925POPC   C4B26590  28.919  16.111   7.653
 6926POPC   NC326591  22.954  32.286   9.453
 6926POPC   PO426592  22.949  32.233   9.153
 6926POPC   GL126593  22.915  32.282   8.853
 6926POPC   GL226594  22.894  32.113   8.853
 6926POPC   C1A26595  22.911  32.267   8.553
 6926POPC   D2A26596  22.893  32.205   8.253
 6926POPC   C3A26597  22.951  32.278   7.953
 6926POPC   C4A26598  22.892  32.241   7.653
 6926POPC   C1B26599  22.865  31.974   8.553
 6926POPC   C2B26600  22.897  32.007   8.253
 6926POPC   C3B26601  22.918  31.968   7.953
 6926POPC   C4B26602  22.897  31.958   7.653
 6927POPC   NC326603   5.074  16.759   9.453
 6927POPC   PO426604   5.120  16.759   9.153
 6927POPC   GL126605   5.066  16.701   8.853
 6927POPC   GL226606   5.224  16.847   8.853
 6927POPC   C1A26607   5.064  16.698   8.553
 6927POPC   D2A26608   5.109  16.781   8.253
 6927POPC   C3A26609   5.129  16.721   7.953
 6927POPC   C4A26610   5.123  16.739   7.653
 6927POPC   C1B26611   5.259  16.915   8.553
 6927POPC   C2B26612   5.273  16.876   8.253
 6927POPC   C3B26613   5.325  16.894   7.953
 6927POPC   C4B26614   5.332  16.852   7.653
 6928POPC   NC326615  38.443  28.391   9.453
 6928POPC   PO426616  38.412  28.403   9.153
 6928POPC   GL126617  38.442  28.324   8.853
 6928POPC   GL226618  38.449  28.250   8.853
 6928POPC   C1A26619  38.500  28.398   8.553
 6928POPC   D2A26620  38.469  28.364   8.253
 6928POPC   C3A26621  38.493  28.387   7.953
 6928POPC   C4A26622  38.504  28.338   7.653
 6928POPC   C1B26623  38.369  28.099   8.553
 6928POPC   C2B26624  38.375  28.169   8.253
 6928POPC   C3B26625  38.380  28.098   7.953
 6928POPC   C4B26626  38.340  28.114   7.653
 6929POPC   NC326627  15.933   9.724   9.453
 6929POPC   PO426628  15.920   9.739   9.153
 6929POPC   GL126629  15.949   9.744   8.853
 6929POPC   GL226630  16.027   9.883   8.853
 6929POPC   C1A26631  15.985   9.746   8.553
 6929POPC   D2A26632  15.982   9.760   8.253
 6929POPC   C3A26633  15.933   9.729   7.953
 6929POPC   C4A26634  15.957   9.713   7.653
 6929POPC   C1B26635  16.092   9.939   8.553
 6929POPC   C2B26636  16.092   9.960   8.253
 6929POPC   C3B26637  16.062   9.960   7.953
 6929POPC   C4B26638  16.097   9.961   7.653
 6930POPC   NC326639  36.944  25.251   9.453
 6930POPC   PO426640  36.869  25.308   9.153
 6930POPC   GL126641  36.915  25.277   8.853
 6930POPC   GL226642  36.997  25.172   8.853
 6930POPC   C1A26643  36.952  25.219   8.553
 6930POPC   D2A26644  36.948  25.279   8.253
 6930POPC   C3A26645  36.915  25.231   7.953
 6930POPC   C4A26646  36.904  25.243   7.653
 6930POPC   C1B26647  37.143  25.140   8.553
 6930POPC   C2B26648  37.071  25.064   8.253
 6930POPC   C3B26649  37.110  25.105   7.953
 6930POPC   C4B26650  37.135  25.130   7.653
 6931POPC   NC326651  24.472  12.105   9.453
 6931POPC   PO426652  24.444  12.115   9.153
 6931POPC   GL126653  24.512  12.126   8.853
 6931POPC   GL226654  24.477  12.153   8.853
 6931POPC   C1A26655  24.485  12.118   8.553
 6931POPC   D2A26656  24.534  12.032   8.253
 6931POPC   C3A26657  24.538  12.077   7.953
 6931POPC   C4A26658  24.524  12.075   7.653
 6931POPC   C1B26659  24.439  12.313   8.553
 6931POPC   C2B26660  24.441  12.330   8.253
 6931POPC   C3B26661  24.412  12.348   7.953
 6931POPC   C4B26662  24.475  12.365   7.653
 6932POPC   NC326663  17.499  22.120   9.453
 6932POPC   PO426664  17.486  22.145   9.153
 6932POPC   GL126665  17.481  22.187   8.853
 6932POPC   GL226666  17.341  22.173   8.853
 6932POPC   C1A26667  17.528  22.205   8.553
 6932POPC   D2A26668  17.485  22.119   8.253
 6932POPC   C3A26669  17.472  22.208   7.953
 6932POPC   C4A26670  17.488  22.191   7.653
 6932POPC   C1B26671  17.254  22.169   8.553
 6932POPC   C2B26672  17.279  22.216   8.253
 6932POPC   C3B26673  17.208  22.196   7.953
 6932POPC   C4B26674  17.276  22.147   7.653
 6933POPC   NC326675  24.455  36.858   9.453
 6933POPC   PO426676  24.537  36.916   9.153
 6933POPC   GL126677  24.535  36.865   8.853
 6933POPC   GL226678  24.534  36.943   8.853
 6933POPC   C1A26679  24.443  36.882   8.553
 6933POPC   D2A26680  24.464  36.888   8.253
 6933POPC   C3A26681  24.515  36.923   7.953
 6933POPC   C4A26682  24.506  36.889   7.653
 6933POPC   C1B26683  24.666  37.046   8.553
 6933POPC   C2B26684  24.712  37.120   8.253
 6933POPC   C3B26685  24.674  37.067   7.953
 6933POPC   C4B26686  24.696  37.120   7.653
 6934POPC   NC326687   4.270  43.146   9.453
 6934POPC   PO426688   4.340  43.076   9.153
 6934POPC   GL126689   4.277  43.120   8.853
 6934POPC   GL226690   4.321  43.005   8.853
 6934POPC   C1A26691   4.312  43.103   8.553
 6934POPC   D2A26692   4.345  43.113   8.253
 6934POPC   C3A26693   4.360  43.144   7.953
 6934POPC   C4A26694   4.296  43.116   7.653
 6934POPC   C1B26695   4.241  42.861   8.553
 6934POPC   C2B26696   4.247  42.874   8.253
 6934POPC   C3B26697   4.226  42.834   7.953
 6934POPC   C4B26698   4.261  42.857   7.653
 6935POPC   NC326699  36.155  40.803   9.453
 6935POPC   PO426700  36.081  40.770   9.153
 6935POPC   GL126701  36.116  40.812   8.853
 6935POPC   GL226702  36.174  40.873   8.853
 6935POPC   C1A26703  36.092  40.820   8.553
 6935POPC   D2A26704  36.175  40.766   8.253
 6935POPC   C3A26705  36.121  40.798   7.953
 6935POPC   C4A26706  36.121  40.817   7.653
 6935POPC   C1B26707  36.152  40.989   8.553
 6935POPC   C2B26708  36.194  40.989   8.253
 6935POPC   C3B26709  36.177  41.070   7.953
 6935POPC   C4B26710  36.158  40.987   7.653
 6936POPC   NC326711  44.626  40.039   9.453
 6936POPC   PO426712  44.690  40.000   9.153
 6936POPC   GL126713  44.707  40.008   8.853
 6936POPC   GL226714  44.652  40.083   8.853
 6936POPC   C1A26715  44.655  40.007   8.553
 6936POPC   D2A26716  44.643  39.982   8.253
 6936POPC   C3A26717  44.677  39.958   7.953
 6936POPC   C4A26718  44.667  39.965   7.653
 6936POPC   C1B26719  44.676  40.273   8.553
 6936POPC   C2B26720  44.688  40.240   8.253
 6936POPC   C3B26721  44.669  40.220   7.953
 6936POPC   C4B26722  44.671  40.206   7.653
 6937POPC   NC326723   1.184  37.716   9.453
 6937POPC   PO426724   1.235  37.715   9.153
 6937POPC   GL126725   1.176  37.632   8.853
 6937POPC   GL226726   1.275  37.559   8.853
 6937POPC   C1A26727   1.169  37.662   8.553
 6937POPC   D2A26728   1.249  37.646   8.253
 6937POPC   C3A26729   1.253  37.689   7.953
 6937POPC   C4A26730   1.165  37.722   7.653
 6937POPC   C1B26731   1.328  37.398   8.553
 6937POPC   C2B26732   1.260  37.417   8.253
 6937POPC   C3B26733   1.293  37.409   7.953
 6937POPC   C4B26734   1.269  37.470   7.653
 6938POPC   NC326735  13.645  30.668   9.453
 6938POPC   PO426736  13.619  30.665   9.153
 6938POPC   GL126737  13.655  30.738   8.853
 6938POPC   GL226738  13.604  30.589   8.853
 6938POPC   C1A26739  13.640  30.737   8.553
 6938POPC   D2A26740  13.625  30.654   8.253
 6938POPC   C3A26741  13.649  30.660   7.953
 6938POPC   C4A26742  13.620  30.695   7.653
 6938POPC   C1B26743  13.472  30.437   8.553
 6938POPC   C2B26744  13.529  30.451   8.253
 6938POPC   C3B26745  13.545  30.511   7.953
 6938POPC   C4B26746  13.558  30.442   7.653
 6939POPC   NC326747  40.827   2.814   9.453
 6939POPC   PO426748  40.807   2.805   9.153
 6939POPC   GL126749  40.824   2.800   8.853
 6939POPC   GL226750  40.705   2.774   8.853
 6939POPC   C1A26751  40.735   2.740   8.553
 6939POPC   D2A26752  40.790   2.775   8.253
 6939POPC   C3A26753  40.734   2.800   7.953
 6939POPC   C4A26754  40.796   2.790   7.653
 6939POPC   C1B26755  40.565   2.735   8.553
 6939POPC   C2B26756  40.487   2.711   8.253
 6939POPC   C3B26757  40.497   2.763   7.953
 6939POPC   C4B26758  40.581   2.762   7.653
 6940POPC   NC326759   0.486  23.709   9.453
 6940POPC   PO426760   0.406  23.687   9.153
 6940POPC   GL126761   0.435  23.723   8.853
 6940POPC   GL226762   0.506  23.546   8.853
 6940POPC   C1A26763   0.422  23.748   8.553
 6940POPC   D2A26764   0.485  23.728   8.253
 6940POPC   C3A26765   0.470  23.704   7.953
 6940POPC   C4A26766   0.443  23.673   7.653
 6940POPC   C1B26767   0.446  23.435   8.553
 6940POPC   C2B26768   0.451  23.427   8.253
 6940POPC   C3B26769   0.478  23.455   7.953
 6940POPC   C4B26770   0.504  23.464   7.653
 6941POPC   NC326771  35.343  16.696   9.453
 6941POPC   PO426772  35.308  16.709   9.153
 6941POPC   GL126773  35.364  16.777   8.853
 6941POPC   GL226774  35.489  16.775   8.853
 6941POPC   C1A26775  35.304  16.744   8.553
 6941POPC   D2A26776  35.311  16.737   8.253
 6941POPC   C3A26777  35.332  16.769   7.953
 6941POPC   C4A26778  35.314  16.753   7.653
 6941POPC   C1B26779  35.503  16.941   8.553
 6941POPC   C2B26780  35.498  16.876   8.253
 6941POPC   C3B26781  35.544  16.936   7.953
 6941POPC   C4B26782  35.543  16.912   7.653
 6942POPC   NC326783  18.327   5.056   9.453
 6942POPC   PO426784  18.237   5.070   9.153
 6942POPC   GL126785  18.286   5.104   8.853
 6942POPC   GL226786  18.408   5.128   8.853
 6942POPC   C1A26787  18.234   5.106   8.553
 6942POPC   D2A26788  18.250   5.075   8.253
 6942POPC   C3A26789  18.238   5.093   7.953
 6942POPC   C4A26790  18.317   5.123   7.653
 6942POPC   C1B26791  18.492   5.172   8.553
 6942POPC   C2B26792  18.530   5.153   8.253
 6942POPC   C3B26793  18.479   5.240   7.953
 6942POPC   C4B26794  18.511   5.182   7.653
 6943POPC   NC326795  15.227   4.338   9.453
 6943POPC   PO426796  15.154   4.298   9.153
 6943POPC   GL126797  15.144   4.327   8.853
 6943POPC   GL226798  15.069   4.411   8.853
 6943POPC   C1A26799  15.229   4.346   8.553
 6943POPC   D2A26800  15.138   4.345   8.253
 6943POPC   C3A26801  15.196   4.281   7.953
 6943POPC   C4A26802  15.200   4.284   7.653
 6943POPC   C1B26803  14.958   4.469   8.553
 6943POPC   C2B26804  14.963   4.477   8.253
 6943POPC   C3B26805  14.989   4.449   7.953
 6943POPC   C4B26806  15.022   4.486   7.653
 6944POPC   NC326807   4.299  12.081   9.453
 6944POPC   PO426808   4.299  12.078   9.153
 6944POPC   GL126809   4.342  12.126   8.853
 6944POPC   GL226810   4.429  12.076   8.853
 6944POPC   C1A26811   4.288  12.115   8.553
 6944POPC   D2A26812   4.347  12.104   8.253
 6944POPC   C3A26813   4.308  12.091   7.953
 6944POPC   C4A26814   4.312  12.052   7.653
 6944POPC   C1B26815   4.559  12.073   8.553
 6944POPC   C2B26816   4.599  12.022   8.253
 6944POPC   C3B26817   4.525  11.989   7.953
 6944POPC   C4B26818   4.577  11.975   7.653
 6945POPC   NC326819   3.586  15.956   9.453
 6945POPC   PO426820   3.574  15.972   9.153
 6945POPC   GL126821   3.576  15.939   8.853
 6945POPC   GL226822   3.624  15.846   8.853
 6945POPC   C1A26823   3.523  15.985   8.553
 6945POPC   D2A26824   3.522  15.996   8.253
 6945POPC   C3A26825   3.524  15.992   7.953
 6945POPC   C4A26826   3.586  15.921   7.653
 6945POPC   C1B26827   3.738  15.775   8.553
 6945POPC   C2B26828   3.665  15.756   8.253
 6945POPC   C3B26829   3.718  15.715   7.953
 6945POPC   C4B26830   3.660  15.726   7.653
 6946POPC   NC326831  19.059   8.948   9.453
 6946POPC   PO426832  19.093   9.000   9.153
 6946POPC   GL126833  19.088   8.961   8.853
 6946POPC   GL226834  18.907   9.027   8.853
 6946POPC   C1A26835  19.049   8.967   8.553
 6946POPC   D2A26836  19.012   8.942   8.253
 6946POPC   C3A26837  19.037   8.932   7.953
 6946POPC   C4A26838  19.092   9.012   7.653
 6946POPC   C1B26839  18.886   9.148   8.553
 6946POPC   C2B26840  18.892   9.069   8.253
 6946POPC   C3B26841  18.821   9.069   7.953
 6946POPC   C4B26842  18.842   9.145   7.653
 6947POPC   NC326843  29.135  40.769   9.453
 6947POPC   PO426844  29.107  40.801   9.153
 6947POPC   GL126845  29.173  40.793   8.853
 6947POPC   GL226846  29.268  40.917   8.853
 6947POPC   C1A26847  29.147  40.808   8.553
 6947POPC   D2A26848  29.185  40.750   8.253
 6947POPC   C3A26849  29.149  40.783   7.953
 6947POPC   C4A26850  29.154  40.815   7.653
 6947POPC   C1B26851  29.258  40.997   8.553
 6947POPC   C2B26852  29.345  40.986   8.253
 6947POPC   C3B26853  29.262  40.932   7.953
 6947POPC   C4B26854  29.294  40.928   7.653
 6948POPC   NC326855  31.432  29.098   9.453
 6948POPC   PO426856  31.490  29.110   9.153
 6948POPC   GL126857  31.474  29.189   8.853
 6948POPC   GL226858  31.613  29.065   8.853
 6948POPC   C1A26859  31.436  29.103   8.553
 6948POPC   D2A26860  31.481  29.112   8.253
 6948POPC   C3A26861  31.435  29.106   7.953
 6948POPC   C4A26862  31.483  29.174   7.653
 6948POPC   C1B26863  31.662  29.008   8.553
 6948POPC   C2B26864  31.703  29.038   8.253
 6948POPC   C3B26865  31.642  28.982   7.953
 6948POPC   C4B26866  31.666  29.035   7.653
 6949POPC   NC326867   7.420  27.629   9.453
 6949POPC   PO426868   7.433  27.592   9.153
 6949POPC   GL126869   7.437  27.549   8.853
 6949POPC   GL226870   7.321  27.529   8.853
 6949POPC   C1A26871   7.400  27.581   8.553
 6949POPC   D2A26872   7.416  27.624   8.253
 6949POPC   C3A26873   7.372  27.568   7.953
 6949POPC   C4A26874   7.397  27.614   7.653
 6949POPC   C1B26875   7.232  27.445   8.553
 6949POPC   C2B26876   7.203  27.457   8.253
 6949POPC   C3B26877   7.203  27.427   7.953
 6949POPC   C4B26878   7.260  27.398   7.653
 6950POPC   NC326879   0.469  13.659   9.453
 6950POPC   PO426880   0.449  13.608   9.153
 6950POPC   GL126881   0.407  13.662   8.853
 6950POPC   GL226882   0.529  13.497   8.853
 6950POPC   C1A26883   0.404  13.623   8.553
 6950POPC   D2A26884   0.414  13.665   8.253
 6950POPC   C3A26885   0.415  13.608   7.953
 6950POPC   C4A26886   0.422  13.597   7.653
 6950POPC   C1B26887   0.641  13.450   8.553
 6950POPC   C2B26888   0.587  13.439   8.253
 6950POPC   C3B26889   0.634  13.513   7.953
 6950POPC   C4B26890   0.673  13.494   7.653
 6951POPC   NC326891  30.707   2.734   9.453
 6951POPC   PO426892  30.710   2.799   9.153
 6951POPC   GL126893  30.694   2.761   8.853
 6951POPC   GL226894  30.598   2.832   8.853
 6951POPC   C1A26895  30.712   2.806   8.553
 6951POPC   D2A26896  30.713   2.742   8.253
 6951POPC   C3A26897  30.696   2.784   7.953
 6951POPC   C4A26898  30.674   2.747   7.653
 6951POPC   C1B26899  30.446   2.824   8.553
 6951POPC   C2B26900  30.481   2.842   8.253
 6951POPC   C3B26901  30.508   2.823   7.953
 6951POPC   C4B26902  30.487   2.803   7.653
 6952POPC   NC326903  44.702  39.278   9.453
 6952POPC   PO426904  44.630  39.198   9.153
 6952POPC   GL126905  44.682  39.248   8.853
 6952POPC   GL226906  44.706  39.150   8.853
 6952POPC   C1A26907  44.682  39.213   8.553
 6952POPC   D2A26908  44.620  39.190   8.253
 6952POPC   C3A26909  44.661  39.251   7.953
 6952POPC   C4A26910  44.707  39.199   7.653
 6952POPC   C1B26911  44.814  39.025   8.553
 6952POPC   C2B26912  44.791  39.045   8.253
 6952POPC   C3B26913  44.853  39.045   7.953
 6952POPC   C4B26914  44.868  39.103   7.653
 6953POPC   NC326915   9.022  16.725   9.453
 6953POPC   PO426916   8.934  16.755   9.153
 6953POPC   GL126917   8.962  16.708   8.853
 6953POPC   GL226918   9.000  16.817   8.853
 6953POPC   C1A26919   8.943  16.750   8.553
 6953POPC   D2A26920   8.940  16.748   8.253
 6953POPC   C3A26921   9.005  16.709   7.953
 6953POPC   C4A26922   8.934  16.690   7.653
 6953POPC   C1B26923   8.972  16.976   8.553
 6953POPC   C2B26924   9.015  17.006   8.253
 6953POPC   C3B26925   8.984  17.007   7.953
 6953POPC   C4B26926   8.998  17.028   7.653
 6954POPC   NC326927  15.989  44.686   9.453
 6954POPC   PO426928  15.936  44.658   9.153
 6954POPC   GL126929  15.941  44.682   8.853
 6954POPC   GL226930  15.836  44.559   8.853
 6954POPC   C1A26931  16.001  44.633   8.553
 6954POPC   D2A26932  15.938  44.696   8.253
 6954POPC   C3A26933  15.923  44.706   7.953
 6954POPC   C4A26934  15.961  44.614   7.653
 6954POPC   C1B26935  15.752  44.584   8.553
 6954POPC   C2B26936  15.691  44.524   8.253
 6954POPC   C3B26937  15.702  44.503   7.953
 6954POPC   C4B26938  15.738  44.503   7.653
 6955POPC   NC326939   4.367  25.225   9.453
 6955POPC   PO426940   4.359  25.219   9.153
 6955POPC   GL126941   4.336  25.251   8.853
 6955POPC   GL226942   4.173  25.223   8.853
 6955POPC   C1A26943   4.272  25.260   8.553
 6955POPC   D2A26944   4.330  25.307   8.253
 6955POPC   C3A26945   4.331  25.277   7.953
 6955POPC   C4A26946   4.309  25.228   7.653
 6955POPC   C1B26947   4.089  25.125   8.553
 6955POPC   C2B26948   4.151  25.074   8.253
 6955POPC   C3B26949   4.128  25.091   7.953
 6955POPC   C4B26950   4.173  25.070   7.653
 6956POPC   NC326951  24.522  13.668   9.453
 6956POPC   PO426952  24.456  13.661   9.153
 6956POPC   GL126953  24.504  13.669   8.853
 6956POPC   GL226954  24.507  13.517   8.853
 6956POPC   C1A26955  24.472  13.629   8.553
 6956POPC   D2A26956  24.484  13.669   8.253
 6956POPC   C3A26957  24.537  13.670   7.953
 6956POPC   C4A26958  24.491  13.656   7.653
 6956POPC   C1B26959  24.628  13.387   8.553
 6956POPC   C2B26960  24.566  13.439   8.253
 6956POPC   C3B26961  24.606  13.419   7.953
 6956POPC   C4B26962  24.658  13.397   7.653
 6957POPC   NC326963   5.044  12.863   9.453
 6957POPC   PO426964   5.065  12.846   9.153
 6957POPC   GL126965   5.051  12.824   8.853
 6957POPC   GL226966   5.077  12.735   8.853
 6957POPC   C1A26967   5.106  12.817   8.553
 6957POPC   D2A26968   5.132  12.849   8.253
 6957POPC   C3A26969   5.073  12.871   7.953
 6957POPC   C4A26970   5.137  12.831   7.653
 6957POPC   C1B26971   4.972  12.594   8.553
 6957POPC   C2B26972   4.992  12.571   8.253
 6957POPC   C3B26973   5.002  12.622   7.953
 6957POPC   C4B26974   5.066  12.651   7.653
 6958POPC   NC326975  43.893  39.984   9.453
 6958POPC   PO426976  43.917  40.025   9.153
 6958POPC   GL126977  43.841  39.996   8.853
 6958POPC   GL226978  43.975  39.997   8.853
 6958POPC   C1A26979  43.850  39.971   8.553
 6958POPC   D2A26980  43.865  40.016   8.253
 6958POPC   C3A26981  43.914  39.971   7.953
 6958POPC   C4A26982  43.904  40.049   7.653
 6958POPC   C1B26983  44.131  40.113   8.553
 6958POPC   C2B26984  44.109  40.111   8.253
 6958POPC   C3B26985  44.105  40.070   7.953
 6958POPC   C4B26986  44.167  40.121   7.653
 6959POPC   NC326987   7.436  15.190   9.453
 6959POPC   PO426988   7.469  15.138   9.153
 6959POPC   GL126989   7.421  15.176   8.853
 6959POPC   GL226990   7.300  15.227   8.853
 6959POPC   C1A26991   7.428  15.188   8.553
 6959POPC   D2A26992   7.381  15.209   8.253
 6959POPC   C3A26993   7.431  15.147   7.953
 6959POPC   C4A26994   7.431  15.169   7.653
 6959POPC   C1B26995   7.198  15.263   8.553
 6959POPC   C2B26996   7.251  15.312   8.253
 6959POPC   C3B26997   7.225  15.315   7.953
 6959POPC   C4B26998   7.157  15.345   7.653
 6960POPC   NC326999  14.381  23.750   9.453
 6960POPC   PO427000  14.420  23.756   9.153
 6960POPC   GL127001  14.413  23.706   8.853
 6960POPC   GL227002  14.314  23.687   8.853
 6960POPC   C1A27003  14.432  23.717   8.553
 6960POPC   D2A27004  14.443  23.705   8.253
 6960POPC   C3A27005  14.445  23.759   7.953
 6960POPC   C4A27006  14.357  23.762   7.653
 6960POPC   C1B27007  14.181  23.674   8.553
 6960POPC   C2B27008  14.133  23.673   8.253
 6960POPC   C3B27009  14.183  23.701   7.953
 6960POPC   C4B27010  14.161  23.712   7.653
 6961POPC   NC327011  44.625  26.055   9.453
 6961POPC   PO427012  44.638  26.073   9.153
 6961POPC   GL127013  44.677  26.077   8.853
 6961POPC   GL227014  44.574  26.052   8.853
 6961POPC   C1A27015  44.673  26.062   8.553
 6961POPC   D2A27016  44.654  26.079   8.253
 6961POPC   C3A27017  44.677  26.032   7.953
 6961POPC   C4A27018  44.660  26.036   7.653
 6961POPC   C1B27019  44.372  26.109   8.553
 6961POPC   C2B27020  44.415  26.070   8.253
 6961POPC   C3B27021  44.369  26.066   7.953
 6961POPC   C4B27022  44.459  26.041   7.653
 6962POPC   NC327023  12.061  23.760   9.453
 6962POPC   PO427024  12.039  23.672   9.153
 6962POPC   GL127025  12.094  23.754   8.853
 6962POPC   GL227026  12.120  23.834   8.853
 6962POPC   C1A27027  12.071  23.749   8.553
 6962POPC   D2A27028  12.028  23.694   8.253
 6962POPC   C3A27029  12.069  23.763   7.953
 6962POPC   C4A27030  12.101  23.738   7.653
 6962POPC   C1B27031  12.140  23.961   8.553
 6962POPC   C2B27032  12.166  23.951   8.253
 6962POPC   C3B27033  12.196  23.944   7.953
 6962POPC   C4B27034  12.138  23.898   7.653
 6963POPC   NC327035  38.473  39.265   9.453
 6963POPC   PO427036  38.487  39.250   9.153
 6963POPC   GL127037  38.468  39.267   8.853
 6963POPC   GL227038  38.338  39.246   8.853
 6963POPC   C1A27039  38.500  39.190   8.553
 6963POPC   D2A27040  38.459  39.247   8.253
 6963POPC   C3A27041  38.447  39.233   7.953
 6963POPC   C4A27042  38.436  39.193   7.653
 6963POPC   C1B27043  38.260  39.128   8.553
 6963POPC   C2B27044  38.198  39.117   8.253
 6963POPC   C3B27045  38.259  39.166   7.953
 6963POPC   C4B27046  38.218  39.164   7.653
 6964POPC   NC327047  25.280  22.951   9.453
 6964POPC   PO427048  25.298  22.956   9.153
 6964POPC   GL127049  25.262  22.952   8.853
 6964POPC   GL227050  25.273  23.008   8.853
 6964POPC   C1A27051  25.228  22.910   8.553
 6964POPC   D2A27052  25.257  22.955   8.253
 6964POPC   C3A27053  25.282  22.955   7.953
 6964POPC   C4A27054  25.265  22.926   7.653
 6964POPC   C1B27055  25.372  23.147   8.553
 6964POPC   C2B27056  25.408  23.159   8.253
 6964POPC   C3B27057  25.374  23.155   7.953
 6964POPC   C4B27058  25.418  23.121   7.653
 6965POPC   NC327059  22.137  34.575   9.453
 6965POPC   PO427060  22.211  34.554   9.153
 6965POPC   GL127061  22.160  34.536   8.853
 6965POPC   GL227062  22.111  34.430   8.853
 6965POPC   C1A27063  22.192  34.622   8.553
 6965POPC   D2A27064  22.130  34.544   8.253
 6965POPC   C3A27065  22.184  34.567   7.953
 6965POPC   C4A27066  22.146  34.624   7.653
 6965POPC   C1B27067  22.072  34.333   8.553
 6965POPC   C2B27068  22.019  34.338   8.253
 6965POPC   C3B27069  22.005  34.367   7.953
 6965POPC   C4B27070  22.025  34.366   7.653
 6966POPC   NC327071   5.862  38.458   9.453
 6966POPC   PO427072   5.848  38.431   9.153
 6966POPC   GL127073   5.860  38.500   8.853
 6966POPC   GL227074   5.703  38.466   8.853
 6966POPC   C1A27075   5.859  38.486   8.553
 6966POPC   D2A27076   5.819  38.457   8.253
 6966POPC   C3A27077   5.834  38.439   7.953
 6966POPC   C4A27078   5.842  38.426   7.653
 6966POPC   C1B27079   5.675  38.532   8.553
 6966POPC   C2B27080   5.680  38.531   8.253
 6966POPC   C3B27081   5.663  38.550   7.953
 6966POPC   C4B27082   5.620  38.496   7.653
 6967POPC   NC327083  38.490  44.662   9.453
 6967POPC   PO427084  38.414  44.690   9.153
 6967POPC   GL127085  38.414  44.697   8.853
 6967POPC   GL227086  38.605  44.590   8.853
 6967POPC   C1A27087  38.449  44.643   8.553
 6967POPC   D2A27088  38.459  44.684   8.253
 6967POPC   C3A27089  38.452  44.635   7.953
 6967POPC   C4A27090  38.497  44.673   7.653
 6967POPC   C1B27091  38.680  44.487   8.553
 6967POPC   C2B27092  38.621  44.515   8.253
 6967POPC   C3B27093  38.645  44.499   7.953
 6967POPC   C4B27094  38.679  44.473   7.653
 6968POPC   NC327095  21.403   9.743   9.453
 6968POPC   PO427096  21.404   9.772   9.153
 6968POPC   GL127097  21.418   9.748   8.853
 6968POPC   GL227098  21.372   9.654   8.853
 6968POPC   C1A27099  21.352   9.706   8.553
 6968POPC   D2A27100  21.435   9.790   8.253
 6968POPC   C3A27101  21.383   9.761   7.953
 6968POPC   C4A27102  21.411   9.743   7.653
 6968POPC   C1B27103  21.212   9.558   8.553
 6968POPC   C2B27104  21.235   9.527   8.253
 6968POPC   C3B27105  21.283   9.526   7.953
 6968POPC   C4B27106  21.309   9.493   7.653
 6969POPC   NC327107  30.675  35.341   9.453
 6969POPC   PO427108  30.671  35.392   9.153
 6969POPC   GL127109  30.721  35.316   8.853
 6969POPC   GL227110  30.550  35.302   8.853
 6969POPC   C1A27111  30.716  35.359   8.553
 6969POPC   D2A27112  30.720  35.379   8.253
 6969POPC   C3A27113  30.708  35.363   7.953
 6969POPC   C4A27114  30.732  35.334   7.653
 6969POPC   C1B27115  30.457  35.285   8.553
 6969POPC   C2B27116  30.487  35.291   8.253
 6969POPC   C3B27117  30.452  35.333   7.953
 6969POPC   C4B27118  30.407  35.255   7.653
 6970POPC   NC327119  36.174  31.504   9.453
 6970POPC   PO427120  36.086  31.473   9.153
 6970POPC   GL127121  36.087  31.466   8.853
 6970POPC   GL227122  36.229  31.421   8.853
 6970POPC   C1A27123  36.165  31.464   8.553
 6970POPC   D2A27124  36.095  31.508   8.253
 6970POPC   C3A27125  36.143  31.452   7.953
 6970POPC   C4A27126  36.087  31.437   7.653
 6970POPC   C1B27127  36.349  31.313   8.553
 6970POPC   C2B27128  36.354  31.349   8.253
 6970POPC   C3B27129  36.265  31.344   7.953
 6970POPC   C4B27130  36.314  31.291   7.653
 6971POPC   NC327131  42.316  29.171   9.453
 6971POPC   PO427132  42.331  29.175   9.153
 6971POPC   GL127133  42.379  29.158   8.853
 6971POPC   GL227134  42.370  29.099   8.853
 6971POPC   C1A27135  42.303  29.180   8.553
 6971POPC   D2A27136  42.298  29.113   8.253
 6971POPC   C3A27137  42.369  29.178   7.953
 6971POPC   C4A27138  42.307  29.175   7.653
 6971POPC   C1B27139  42.519  28.968   8.553
 6971POPC   C2B27140  42.531  29.000   8.253
 6971POPC   C3B27141  42.503  29.001   7.953
 6971POPC   C4B27142  42.526  28.958   7.653
 6972POPC   NC327143   6.597  43.067   9.453
 6972POPC   PO427144   6.668  43.068   9.153
 6972POPC   GL127145   6.642  43.068   8.853
 6972POPC   GL227146   6.492  43.141   8.853
 6972POPC   C1A27147   6.662  43.099   8.553
 6972POPC   D2A27148   6.639  43.079   8.253
 6972POPC   C3A27149   6.652  43.076   7.953
 6972POPC   C4A27150   6.644  43.075   7.653
 6972POPC   C1B27151   6.430  43.226   8.553
 6972POPC   C2B27152   6.365  43.235   8.253
 6972POPC   C3B27153   6.453  43.245   7.953
 6972POPC   C4B27154   6.411  43.250   7.653
 6973POPC   NC327155   7.399   9.726   9.453
 6973POPC   PO427156   7.430   9.776   9.153
 6973POPC   GL127157   7.426   9.707   8.853
 6973POPC   GL227158   7.481   9.596   8.853
 6973POPC   C1A27159   7.406   9.738   8.553
 6973POPC   D2A27160   7.379   9.747   8.253
 6973POPC   C3A27161   7.437   9.793   7.953
 6973POPC   C4A27162   7.400   9.736   7.653
 6973POPC   C1B27163   7.541   9.548   8.553
 6973POPC   C2B27164   7.574   9.513   8.253
 6973POPC   C3B27165   7.537   9.540   7.953
 6973POPC   C4B27166   7.548   9.537   7.653
 6974POPC   NC327167   5.066  39.274   9.453
 6974POPC   PO427168   5.089  39.215   9.153
 6974POPC   GL127169   5.121  39.249   8.853
 6974POPC   GL227170   5.007  39.304   8.853
 6974POPC   C1A27171   5.128  39.211   8.553
 6974POPC   D2A27172   5.126  39.239   8.253
 6974POPC   C3A27173   5.098  39.206   7.953
 6974POPC   C4A27174   5.079  39.208   7.653
 6974POPC   C1B27175   4.895  39.416   8.553
 6974POPC   C2B27176   4.916  39.430   8.253
 6974POPC   C3B27177   4.878  39.388   7.953
 6974POPC   C4B27178   4.913  39.363   7.653
 6975POPC   NC327179  26.835   5.824   9.453
 6975POPC   PO427180  26.821   5.875   9.153
 6975POPC   GL127181  26.776   5.824   8.853
 6975POPC   GL227182  26.810   5.752   8.853
 6975POPC   C1A27183  26.782   5.857   8.553
 6975POPC   D2A27184  26.814   5.835   8.253
 6975POPC   C3A27185  26.801   5.892   7.953
 6975POPC   C4A27186  26.816   5.884   7.653
 6975POPC   C1B27187  26.776   5.593   8.553
 6975POPC   C2B27188  26.717   5.593   8.253
 6975POPC   C3B27189  26.781   5.584   7.953
 6975POPC   C4B27190  26.793   5.644   7.653
 6976POPC   NC327191  30.698  27.607   9.453
 6976POPC   PO427192  30.719  27.631   9.153
 6976POPC   GL127193  30.685  27.608   8.853
 6976POPC   GL227194  30.750  27.652   8.853
 6976POPC   C1A27195  30.705  27.618   8.553
 6976POPC   D2A27196  30.693  27.568   8.253
 6976POPC   C3A27197  30.660  27.642   7.953
 6976POPC   C4A27198  30.651  27.568   7.653
 6976POPC   C1B27199  30.910  27.771   8.553
 6976POPC   C2B27200  30.827  27.795   8.253
 6976POPC   C3B27201  30.865  27.718   7.953
 6976POPC   C4B27202  30.921  27.733   7.653
 6977POPC   NC327203  17.513  33.846   9.453
 6977POPC   PO427204  17.487  33.786   9.153
 6977POPC   GL127205  17.505  33.769   8.853
 6977POPC   GL227206  17.534  33.960   8.853
 6977POPC   C1A27207  17.473  33.784   8.553
 6977POPC   D2A27208  17.556  33.755   8.253
 6977POPC   C3A27209  17.516  33.802   7.953
 6977POPC   C4A27210  17.500  33.822   7.653
 6977POPC   C1B27211  17.563  34.001   8.553
 6977POPC   C2B27212  17.543  34.047   8.253
 6977POPC   C3B27213  17.499  34.022   7.953
 6977POPC   C4B27214  17.556  34.041   7.653
 6978POPC   NC327215   8.990  39.989   9.453
 6978POPC   PO427216   8.961  39.984   9.153
 6978POPC   GL127217   8.937  40.051   8.853
 6978POPC   GL227218   8.855  40.048   8.853
 6978POPC   C1A27219   8.994  39.972   8.553
 6978POPC   D2A27220   8.941  40.019   8.253
 6978POPC   C3A27221   8.954  39.992   7.953
 6978POPC   C4A27222   8.964  39.987   7.653
 6978POPC   C1B27223   8.756  40.205   8.553
 6978POPC   C2B27224   8.766  40.175   8.253
 6978POPC   C3B27225   8.841  40.185   7.953
 6978POPC   C4B27226   8.753  40.186   7.653
 6979POPC   NC327227  40.034  22.953   9.453
 6979POPC   PO427228  39.996  22.956   9.153
 6979POPC   GL127229  39.960  22.980   8.853
 6979POPC   GL227230  39.926  22.954   8.853
 6979POPC   C1A27231  39.982  22.960   8.553
 6979POPC   D2A27232  39.958  22.937   8.253
 6979POPC   C3A27233  39.987  22.983   7.953
 6979POPC   C4A27234  40.030  22.962   7.653
 6979POPC   C1B27235  39.793  23.016   8.553
 6979POPC   C2B27236  39.725  22.994   8.253
 6979POPC   C3B27237  39.805  23.012   7.953
 6979POPC   C4B27238  39.801  23.036   7.653
 6980POPC   NC327239   1.958  28.350   9.453
 6980POPC   PO427240   2.004  28.321   9.153
 6980POPC   GL127241   2.038  28.356   8.853
 6980POPC   GL227242   2.145  28.406   8.853
 6980POPC   C1A27243   2.003  28.397   8.553
 6980POPC   D2A27244   1.958  28.327   8.253
 6980POPC   C3A27245   1.997  28.333   7.953
 6980POPC   C4A27246   2.038  28.394   7.653
 6980POPC   C1B27247   2.231  28.387   8.553
 6980POPC   C2B27248   2.197  28.357   8.253
 6980POPC   C3B27249   2.237  28.370   7.953
 6980POPC   C4B27250   2.237  28.353   7.653
 6981POPC   NC327251  40.744  33.067   9.453
 6981POPC   PO427252  40.777  33.053   9.153
 6981POPC   GL127253  40.813  33.031   8.853
 6981POPC   GL227254  40.695  33.055   8.853
 6981POPC   C1A27255  40.826  32.989   8.553
 6981POPC   D2A27256  40.761  32.992   8.253
 6981POPC   C3A27257  40.785  33.002   7.953
 6981POPC   C4A27258  40.800  33.024   7.653
 6981POPC   C1B27259  40.605  33.160   8.553
 6981POPC   C2B27260  40.575  33.169   8.253
 6981POPC   C3B27261  40.537  33.181   7.953
 6981POPC   C4B27262  40.558  33.180   7.653
 6982POPC   NC327263  30.680  31.492   9.453
 6982POPC   PO427264  30.685  31.467   9.153
 6982POPC   GL127265  30.688  31.480   8.853
 6982POPC   GL227266  30.649  31.407   8.853
 6982POPC   C1A27267  30.738  31.513   8.553
 6982POPC   D2A27268  30.649  31.486   8.253
 6982POPC   C3A27269  30.700  31.522   7.953
 6982POPC   C4A27270  30.654  31.468   7.653
 6982POPC   C1B27271  30.612  31.230   8.553
 6982POPC   C2B27272  30.563  31.247   8.253
 6982POPC   C3B27273  30.590  31.240   7.953
 6982POPC   C4B27274  30.622  31.221   7.653
 6983POPC   NC327275  34.585  16.702   9.453
 6983POPC   PO427276  34.620  16.709   9.153
 6983POPC   GL127277  34.613  16.711   8.853
 6983POPC   GL227278  34.626  16.584   8.853
 6983POPC   C1A27279  34.546  16.732   8.553
 6983POPC   D2A27280  34.595  16.751   8.253
 6983POPC   C3A27281  34.535  16.738   7.953
 6983POPC   C4A27282  34.571  16.717   7.653
 6983POPC   C1B27283  34.744  16.554   8.553
 6983POPC   C2B27284  34.666  16.529   8.253
 6983POPC   C3B27285  34.751  16.555   7.953
 6983POPC   C4B27286  34.687  16.516   7.653
 6984POPC   NC327287  10.571  36.882   9.453
 6984POPC   PO427288  10.480  36.894   9.153
 6984POPC   GL127289  10.561  36.886   8.853
 6984POPC   GL227290  10.358  36.878   8.853
 6984POPC   C1A27291  10.535  36.937   8.553
 6984POPC   D2A27292  10.512  36.926   8.253
 6984POPC   C3A27293  10.526  36.951   7.953
 6984POPC   C4A27294  10.518  36.882   7.653
 6984POPC   C1B27295  10.259  36.853   8.553
 6984POPC   C2B27296  10.240  36.895   8.253
 6984POPC   C3B27297  10.272  36.852   7.953
 6984POPC   C4B27298  10.266  36.871   7.653
 6985POPC   NC327299  33.759  32.285   9.453
 6985POPC   PO427300  33.771  32.286   9.153
 6985POPC   GL127301  33.843  32.289   8.853
 6985POPC   GL227302  33.690  32.157   8.853
 6985POPC   C1A27303  33.850  32.264   8.553
 6985POPC   D2A27304  33.817  32.276   8.253
 6985POPC   C3A27305  33.808  32.237   7.953
 6985POPC   C4A27306  33.784  32.272   7.653
 6985POPC   C1B27307  33.659  32.072   8.553
 6985POPC   C2B27308  33.673  32.054   8.253
 6985POPC   C3B27309  33.633  32.110   7.953
 6985POPC   C4B27310  33.671  32.023   7.653
 6986POPC   NC327311  10.503   1.944   9.453
 6986POPC   PO427312  10.506   1.957   9.153
 6986POPC   GL127313  10.478   2.032   8.853
 6986POPC   GL227314  10.446   1.908   8.853
 6986POPC   C1A27315  10.506   1.991   8.553
 6986POPC   D2A27316  10.529   2.030   8.253
 6986POPC   C3A27317  10.480   1.976   7.953
 6986POPC   C4A27318  10.519   1.987   7.653
 6986POPC   C1B27319  10.432   1.719   8.553
 6986POPC   C2B27320  10.444   1.718   8.253
 6986POPC   C3B27321  10.409   1.771   7.953
 6986POPC   C4B27322  10.474   1.758   7.653
 6987POPC   NC327323  15.978  34.573   9.453
 6987POPC   PO427324  15.989  34.566   9.153
 6987POPC   GL127325  15.968  34.615   8.853
 6987POPC   GL227326  15.818  34.583   8.853
 6987POPC   C1A27327  15.972  34.580   8.553
 6987POPC   D2A27328  15.969  34.538   8.253
 6987POPC   C3A27329  15.998  34.539   7.953
 6987POPC   C4A27330  15.935  34.581   7.653
 6987POPC   C1B27331  15.733  34.680   8.553
 6987POPC   C2B27332  15.705  34.611   8.253
 6987POPC   C3B27333  15.724  34.669   7.953
 6987POPC   C4B27334  15.665  34.609   7.653
 6988POPC   NC327335  36.156  16.757   9.453
 6988POPC   PO427336  36.146  16.766   9.153
 6988POPC   GL127337  36.147  16.770   8.853
 6988POPC   GL227338  36.245  16.699   8.853
 6988POPC   C1A27339  36.160  16.687   8.553
 6988POPC   D2A27340  36.099  16.764   8.253
 6988POPC   C3A27341  36.080  16.756   7.953
 6988POPC   C4A27342  36.098  16.760   7.653
 6988POPC   C1B27343  36.279  16.606   8.553
 6988POPC   C2B27344  36.311  16.536   8.253
 6988POPC   C3B27345  36.365  16.584   7.953
 6988POPC   C4B27346  36.289  16.582   7.653
 6989POPC   NC327347  20.615  18.266   9.453
 6989POPC   PO427348  20.564  18.245   9.153
 6989POPC   GL127349  20.566  18.311   8.853
 6989POPC   GL227350  20.596  18.203   8.853
 6989POPC   C1A27351  20.624  18.312   8.553
 6989POPC   D2A27352  20.631  18.248   8.253
 6989POPC   C3A27353  20.619  18.322   7.953
 6989POPC   C4A27354  20.613  18.332   7.653
 6989POPC   C1B27355  20.597  18.045   8.553
 6989POPC   C2B27356  20.564  18.019   8.253
 6989POPC   C3B27357  20.523  17.993   7.953
 6989POPC   C4B27358  20.558  18.031   7.653
 6990POPC   NC327359  21.384  17.481   9.453
 6990POPC   PO427360  21.375  17.513   9.153
 6990POPC   GL127361  21.391  17.496   8.853
 6990POPC   GL227362  21.546  17.594   8.853
 6990POPC   C1A27363  21.383  17.526   8.553
 6990POPC   D2A27364  21.390  17.505   8.253
 6990POPC   C3A27365  21.336  17.491   7.953
 6990POPC   C4A27366  21.365  17.464   7.653
 6990POPC   C1B27367  21.637  17.620   8.553
 6990POPC   C2B27368  21.584  17.587   8.253
 6990POPC   C3B27369  21.625  17.617   7.953
 6990POPC   C4B27370  21.575  17.608   7.653
 6991POPC   NC327371   0.417  31.454   9.453
 6991POPC   PO427372   0.419  31.437   9.153
 6991POPC   GL127373   0.428  31.441   8.853
 6991POPC   GL227374   0.377  31.591   8.853
 6991POPC   C1A27375   0.466  31.484   8.553
 6991POPC   D2A27376   0.440  31.461   8.253
 6991POPC   C3A27377   0.486  31.484   7.953
 6991POPC   C4A27378   0.422  31.478   7.653
 6991POPC   C1B27379   0.316  31.654   8.553
 6991POPC   C2B27380   0.356  31.695   8.253
 6991POPC   C3B27381   0.292  31.713   7.953
 6991POPC   C4B27382   0.320  31.713   7.653
 6992POPC   NC327383   7.456  29.933   9.453
 6992POPC   PO427384   7.404  29.943   9.153
 6992POPC   GL127385   7.425  29.940   8.853
 6992POPC   GL227386   7.512  29.985   8.853
 6992POPC   C1A27387   7.402  29.873   8.553
 6992POPC   D2A27388   7.464  29.940   8.253
 6992POPC   C3A27389   7.395  29.901   7.953
 6992POPC   C4A27390   7.394  29.961   7.653
 6992POPC   C1B27391   7.628  30.114   8.553
 6992POPC   C2B27392   7.630  30.120   8.253
 6992POPC   C3B27393   7.609  30.133   7.953
 6992POPC   C4B27394   7.613  30.071   7.653
 6993POPC   NC327395   3.572  14.406   9.453
 6993POPC   PO427396   3.540  14.402   9.153
 6993POPC   GL127397   3.522  14.452   8.853
 6993POPC   GL227398   3.631  14.295   8.853
 6993POPC   C1A27399   3.583  14.388   8.553
 6993POPC   D2A27400   3.498  14.432   8.253
 6993POPC   C3A27401   3.573  14.433   7.953
 6993POPC   C4A27402   3.548  14.391   7.653
 6993POPC   C1B27403   3.730  14.277   8.553
 6993POPC   C2B27404   3.793  14.224   8.253
 6993POPC   C3B27405   3.697  14.233   7.953
 6993POPC   C4B27406   3.698  14.301   7.653
 6994POPC   NC327407   1.236   3.583   9.453
 6994POPC   PO427408   1.197   3.496   9.153
 6994POPC   GL127409   1.183   3.552   8.853
 6994POPC   GL227410   1.322   3.472   8.853
 6994POPC   C1A27411   1.247   3.493   8.553
 6994POPC   D2A27412   1.207   3.572   8.253
 6994POPC   C3A27413   1.184   3.570   7.953
 6994POPC   C4A27414   1.252   3.590   7.653
 6994POPC   C1B27415   1.451   3.437   8.553
 6994POPC   C2B27416   1.462   3.402   8.253
 6994POPC   C3B27417   1.397   3.344   7.953
 6994POPC   C4B27418   1.405   3.369   7.653
 6995POPC   NC327419   0.400   3.576   9.453
 6995POPC   PO427420   0.397   3.558   9.153
 6995POPC   GL127421   0.461   3.551   8.853
 6995POPC   GL227422   0.404   3.378   8.853
 6995POPC   C1A27423   0.485   3.586   8.553
 6995POPC   D2A27424   0.424   3.498   8.253
 6995POPC   C3A27425   0.467   3.503   7.953
 6995POPC   C4A27426   0.420   3.512   7.653
 6995POPC   C1B27427   0.387   3.332   8.553
 6995POPC   C2B27428   0.366   3.281   8.253
 6995POPC   C3B27429   0.348   3.324   7.953
 6995POPC   C4B27430   0.306   3.323   7.653
 6996POPC   NC327431  41.604  29.170   9.453
 6996POPC   PO427432  41.560  29.116   9.153
 6996POPC   GL127433  41.577  29.146   8.853
 6996POPC   GL227434  41.573  28.978   8.853
 6996POPC   C1A27435  41.524  29.157   8.553
 6996POPC   D2A27436  41.530  29.159   8.253
 6996POPC   C3A27437  41.580  29.105   7.953
 6996POPC   C4A27438  41.564  29.124   7.653
 6996POPC   C1B27439  41.631  28.866   8.553
 6996POPC   C2B27440  41.595  28.853   8.253
 6996POPC   C3B27441  41.558  28.900   7.953
 6996POPC   C4B27442  41.590  28.918   7.653
 6997POPC   NC327443  23.672  33.038   9.453
 6997POPC   PO427444  23.759  33.023   9.153
 6997POPC   GL127445  23.686  33.063   8.853
 6997POPC   GL227446  23.627  32.897   8.853
 6997POPC   C1A27447  23.676  33.012   8.553
 6997POPC   D2A27448  23.761  33.017   8.253
 6997POPC   C3A27449  23.704  33.014   7.953
 6997POPC   C4A27450  23.719  33.020   7.653
 6997POPC   C1B27451  23.579  32.853   8.553
 6997POPC   C2B27452  23.559  32.805   8.253
 6997POPC   C3B27453  23.582  32.797   7.953
 6997POPC   C4B27454  23.620  32.789   7.653
 6998POPC   NC327455  19.874  42.355   9.453
 6998POPC   PO427456  19.816  42.342   9.153
 6998POPC   GL127457  19.874  42.373   8.853
 6998POPC   GL227458  19.893  42.293   8.853
 6998POPC   C1A27459  19.798  42.368   8.553
 6998POPC   D2A27460  19.830  42.328   8.253
 6998POPC   C3A27461  19.855  42.376   7.953
 6998POPC   C4A27462  19.860  42.372   7.653
 6998POPC   C1B27463  20.058  42.118   8.553
 6998POPC   C2B27464  20.024  42.145   8.253
 6998POPC   C3B27465  20.030  42.184   7.953
 6998POPC   C4B27466  20.006  42.148   7.653
 6999POPC   NC327467  32.202  31.495   9.453
 6999POPC   PO427468  32.203  31.477   9.153
 6999POPC   GL127469  32.277  31.441   8.853
 6999POPC   GL227470  32.113  31.432   8.853
 6999POPC   C1A27471  32.222  31.470   8.553
 6999POPC   D2A27472  32.239  31.496   8.253
 6999POPC   C3A27473  32.237  31.472   7.953
 6999POPC   C4A27474  32.204  31.483   7.653
 6999POPC   C1B27475  31.980  31.434   8.553
 6999POPC   C2B27476  31.974  31.482   8.253
 6999POPC   C3B27477  32.042  31.497   7.953
 6999POPC   C4B27478  32.033  31.440   7.653
 7000POPC   NC327479  10.525   4.312   9.453
 7000POPC   PO427480  10.536   4.307   9.153
 7000POPC   GL127481  10.563   4.346   8.853
 7000POPC   GL227482  10.629   4.248   8.853
 7000POPC   C1A27483  10.485   4.296   8.553
 7000POPC   D2A27484  10.514   4.301   8.253
 7000POPC   C3A27485  10.565   4.311   7.953
 7000POPC   C4A27486  10.488   4.338   7.653
 7000POPC   C1B27487  10.719   4.204   8.553
 7000POPC   C2B27488  10.711   4.214   8.253
 7000POPC   C3B27489  10.737   4.217   7.953
 7000POPC   C4B27490  10.774   4.243   7.653
 7001POPC   NC327491  28.401  25.312   9.453
 7001POPC   PO427492  28.354  25.307   9.153
 7001POPC   GL127493  28.353  25.236   8.853
 7001POPC   GL227494  28.311  25.353   8.853
 7001POPC   C1A27495  28.326  25.279   8.553
 7001POPC   D2A27496  28.405  25.262   8.253
 7001POPC   C3A27497  28.412  25.279   7.953
 7001POPC   C4A27498  28.415  25.307   7.653
 7001POPC   C1B27499  28.303  25.504   8.553
 7001POPC   C2B27500  28.329  25.503   8.253
 7001POPC   C3B27501  28.296  25.478   7.953
 7001POPC   C4B27502  28.275  25.501   7.653
 7002POPC   NC327503   0.469   5.897   9.453
 7002POPC   PO427504   0.483   5.870   9.153
 7002POPC   GL127505   0.410   5.842   8.853
 7002POPC   GL227506   0.363   5.966   8.853
 7002POPC   C1A27507   0.397   5.849   8.553
 7002POPC   D2A27508   0.434   5.827   8.253
 7002POPC   C3A27509   0.435   5.917   7.953
 7002POPC   C4A27510   0.398   5.891   7.653
 7002POPC   C1B27511   0.236   6.022   8.553
 7002POPC   C2B27512   0.193   5.956   8.253
 7002POPC   C3B27513   0.174   6.009   7.953
 7002POPC   C4B27514   0.191   6.023   7.653
 7003POPC   NC327515  41.586  40.819   9.453
 7003POPC   PO427516  41.526  40.825   9.153
 7003POPC   GL127517  41.535  40.806   8.853
 7003POPC   GL227518  41.606  40.660   8.853
 7003POPC   C1A27519  41.532  40.816   8.553
 7003POPC   D2A27520  41.556  40.820   8.253
 7003POPC   C3A27521  41.532  40.737   7.953
 7003POPC   C4A27522  41.542  40.738   7.653
 7003POPC   C1B27523  41.689  40.628   8.553
 7003POPC   C2B27524  41.765  40.586   8.253
 7003POPC   C3B27525  41.763  40.594   7.953
 7003POPC   C4B27526  41.715  40.562   7.653
 7004POPC   NC327527  12.856  42.307   9.453
 7004POPC   PO427528  12.865  42.321   9.153
 7004POPC   GL127529  12.874  42.314   8.853
 7004POPC   GL227530  12.748  42.253   8.853
 7004POPC   C1A27531  12.869  42.328   8.553
 7004POPC   D2A27532  12.863  42.331   8.253
 7004POPC   C3A27533  12.810  42.365   7.953
 7004POPC   C4A27534  12.879  42.343   7.653
 7004POPC   C1B27535  12.592  42.272   8.553
 7004POPC   C2B27536  12.629  42.283   8.253
 7004POPC   C3B27537  12.661  42.209   7.953
 7004POPC   C4B27538  12.575  42.257   7.653
 7005POPC   NC327539   7.455   1.983   9.453
 7005POPC   PO427540   7.463   1.975   9.153
 7005POPC   GL127541   7.420   1.998   8.853
 7005POPC   GL227542   7.427   1.840   8.853
 7005POPC   C1A27543   7.381   1.958   8.553
 7005POPC   D2A27544   7.437   1.946   8.253
 7005POPC   C3A27545   7.463   1.987   7.953
 7005POPC   C4A27546   7.432   1.941   7.653
 7005POPC   C1B27547   7.511   1.749   8.553
 7005POPC   C2B27548   7.575   1.795   8.253
 7005POPC   C3B27549   7.574   1.812   7.953
 7005POPC   C4B27550   7.544   1.773   7.653
 7006POPC   NC327551  27.586  16.697   9.453
 7006POPC   PO427552  27.624  16.731   9.153
 7006POPC   GL127553  27.636  16.769   8.853
 7006POPC   GL227554  27.634  16.852   8.853
 7006POPC   C1A27555  27.616  16.698   8.553
 7006POPC   D2A27556  27.546  16.760   8.253
 7006POPC   C3A27557  27.590  16.703   7.953
 7006POPC   C4A27558  27.591  16.711   7.653
 7006POPC   C1B27559  27.801  16.907   8.553
 7006POPC   C2B27560  27.716  16.960   8.253
 7006POPC   C3B27561  27.715  16.894   7.953
 7006POPC   C4B27562  27.801  16.894   7.653
 7007POPC   NC327563  10.479  12.046   9.453
 7007POPC   PO427564  10.502  12.100   9.153
 7007POPC   GL127565  10.553  12.091   8.853
 7007POPC   GL227566  10.573  11.913   8.853
 7007POPC   C1A27567  10.549  12.119   8.553
 7007POPC   D2A27568  10.532  12.098   8.253
 7007POPC   C3A27569  10.545  12.092   7.953
 7007POPC   C4A27570  10.567  12.063   7.653
 7007POPC   C1B27571  10.643  11.834   8.553
 7007POPC   C2B27572  10.667  11.883   8.253
 7007POPC   C3B27573  10.598  11.879   7.953
 7007POPC   C4B27574  10.614  11.795   7.653
 7008POPC   NC327575   6.691  18.280   9.453
 7008POPC   PO427576   6.637  18.323   9.153
 7008POPC   GL127577   6.669  18.285   8.853
 7008POPC   GL227578   6.688  18.155   8.853
 7008POPC   C1A27579   6.610  18.255   8.553
 7008POPC   D2A27580   6.684  18.291   8.253
 7008POPC   C3A27581   6.648  18.271   7.953
 7008POPC   C4A27582   6.672  18.280   7.653
 7008POPC   C1B27583   6.862  18.118   8.553
 7008POPC   C2B27584   6.776  18.055   8.253
 7008POPC   C3B27585   6.787  18.105   7.953
 7008POPC   C4B27586   6.809  18.080   7.653
 7009POPC   NC327587   5.101   4.329   9.453
 7009POPC   PO427588   5.100   4.268   9.153
 7009POPC   GL127589   5.051   4.337   8.853
 7009POPC   GL227590   4.970   4.431   8.853
 7009POPC   C1A27591   5.077   4.351   8.553
 7009POPC   D2A27592   5.143   4.273   8.253
 7009POPC   C3A27593   5.119   4.338   7.953
 7009POPC   C4A27594   5.052   4.320   7.653
 7009POPC   C1B27595   4.868   4.506   8.553
 7009POPC   C2B27596   4.866   4.471   8.253
 7009POPC   C3B27597   4.914   4.455   7.953
 7009POPC   C4B27598   4.873   4.509   7.653
 7010POPC   NC327599  31.455  41.587   9.453
 7010POPC   PO427600  31.473  41.517   9.153
 7010POPC   GL127601  31.504  41.551   8.853
 7010POPC   GL227602  31.391  41.672   8.853
 7010POPC   C1A27603  31.466  41.589   8.553
 7010POPC   D2A27604  31.489  41.570   8.253
 7010POPC   C3A27605  31.440  41.519   7.953
 7010POPC   C4A27606  31.495  41.591   7.653
 7010POPC   C1B27607  31.325  41.780   8.553
 7010POPC   C2B27608  31.358  41.723   8.253
 7010POPC   C3B27609  31.299  41.735   7.953
 7010POPC   C4B27610  31.319  41.761   7.653
 7011POPC   NC327611  16.731  18.309   9.453
 7011POPC   PO427612  16.752  18.251   9.153
 7011POPC   GL127613  16.722  18.298   8.853
 7011POPC   GL227614  16.842  18.276   8.853
 7011POPC   C1A27615  16.773  18.234   8.553
 7011POPC   D2A27616  16.770  18.239   8.253
 7011POPC   C3A27617  16.753  18.251   7.953
 7011POPC   C4A27618  16.691  18.315   7.653
 7011POPC   C1B27619  16.954  18.283   8.553
 7011POPC   C2B27620  16.941  18.298   8.253
 7011POPC   C3B27621  17.022  18.298   7.953
 7011POPC   C4B27622  17.018  18.278   7.653
 7012POPC   NC327623  19.089  20.614   9.453
 7012POPC   PO427624  19.036  20.592   9.153
 7012POPC   GL127625  19.087  20.619   8.853
 7012POPC   GL227626  19.028  20.443   8.853
 7012POPC   C1A27627  19.044  20.565   8.553
 7012POPC   D2A27628  19.025  20.644   8.253
 7012POPC   C3A27629  19.023  20.568   7.953
 7012POPC   C4A27630  19.103  20.652   7.653
 7012POPC   C1B27631  19.009  20.398   8.553
 7012POPC   C2B27632  19.009  20.398   8.253
 7012POPC   C3B27633  19.026  20.327   7.953
 7012POPC   C4B27634  19.046  20.319   7.653
 7013POPC   NC327635  42.373  29.893   9.453
 7013POPC   PO427636  42.347  29.898   9.153
 7013POPC   GL127637  42.295  29.893   8.853
 7013POPC   GL227638  42.347  29.757   8.853
 7013POPC   C1A27639  42.383  29.928   8.553
 7013POPC   D2A27640  42.289  29.922   8.253
 7013POPC   C3A27641  42.380  29.875   7.953
 7013POPC   C4A27642  42.359  29.904   7.653
 7013POPC   C1B27643  42.451  29.690   8.553
 7013POPC   C2B27644  42.402  29.709   8.253
 7013POPC   C3B27645  42.396  29.734   7.953
 7013POPC   C4B27646  42.471  29.689   7.653
 7014POPC   NC327647  30.743  12.075   9.453
 7014POPC   PO427648  30.710  12.098   9.153
 7014POPC   GL127649  30.659  12.123   8.853
 7014POPC   GL227650  30.649  11.956   8.853
 7014POPC   C1A27651  30.729  12.027   8.553
 7014POPC   D2A27652  30.716  12.090   8.253
 7014POPC   C3A27653  30.673  12.096   7.953
 7014POPC   C4A27654  30.664  12.075   7.653
 7014POPC   C1B27655  30.515  11.843   8.553
 7014POPC   C2B27656  30.553  11.845   8.253
 7014POPC   C3B27657  30.508  11.904   7.953
 7014POPC   C4B27658  30.541  11.914   7.653
 7015POPC   NC327659  15.914  26.856   9.453
 7015POPC   PO427660  15.928  26.846   9.153
 7015POPC   GL127661  15.934  26.839   8.853
 7015POPC   GL227662  16.123  26.853   8.853
 7015POPC   C1A27663  15.986  26.787   8.553
 7015POPC   D2A27664  15.914  26.821   8.253
 7015POPC   C3A27665  15.946  26.787   7.953
 7015POPC   C4A27666  15.911  26.792   7.653
 7015POPC   C1B27667  16.212  26.870   8.553
 7015POPC   C2B27668  16.236  26.796   8.253
 7015POPC   C3B27669  16.253  26.801   7.953
 7015POPC   C4B27670  16.221  26.809   7.653
 7016POPC   NC327671  18.267  22.185   9.453
 7016POPC   PO427672  18.249  22.200   9.153
 7016POPC   GL127673  18.297  22.118   8.853
 7016POPC   GL227674  18.255  22.290   8.853
 7016POPC   C1A27675  18.314  22.172   8.553
 7016POPC   D2A27676  18.250  22.210   8.253
 7016POPC   C3A27677  18.256  22.180   7.953
 7016POPC   C4A27678  18.245  22.203   7.653
 7016POPC   C1B27679  18.096  22.337   8.553
 7016POPC   C2B27680  18.177  22.368   8.253
 7016POPC   C3B27681  18.153  22.400   7.953
 7016POPC   C4B27682  18.088  22.328   7.653
 7017POPC   NC327683   2.026  43.882   9.453
 7017POPC   PO427684   1.983  43.842   9.153
 7017POPC   GL127685   2.009  43.895   8.853
 7017POPC   GL227686   2.147  43.950   8.853
 7017POPC   C1A27687   1.961  43.851   8.553
 7017POPC   D2A27688   1.958  43.837   8.253
 7017POPC   C3A27689   2.020  43.876   7.953
 7017POPC   C4A27690   1.959  43.916   7.653
 7017POPC   C1B27691   2.263  43.939   8.553
 7017POPC   C2B27692   2.220  43.975   8.253
 7017POPC   C3B27693   2.238  43.940   7.953
 7017POPC   C4B27694   2.209  43.983   7.653
 7018POPC   NC327695  15.167  44.696   9.453
 7018POPC   PO427696  15.213  44.687   9.153
 7018POPC   GL127697  15.134  44.639   8.853
 7018POPC   GL227698  15.202  44.524   8.853
 7018POPC   C1A27699  15.211  44.661   8.553
 7018POPC   D2A27700  15.188  44.666   8.253
 7018POPC   C3A27701  15.143  44.671   7.953
 7018POPC   C4A27702  15.156  44.697   7.653
 7018POPC   C1B27703  15.276  44.453   8.553
 7018POPC   C2B27704  15.221  44.445   8.253
 7018POPC   C3B27705  15.236  44.405   7.953
 7018POPC   C4B27706  15.228  44.381   7.653
 7019POPC   NC327707  27.587   5.864   9.453
 7019POPC   PO427708  27.597   5.862   9.153
 7019POPC   GL127709  27.598   5.914   8.853
 7019POPC   GL227710  27.591   5.947   8.853
 7019POPC   C1A27711  27.598   5.854   8.553
 7019POPC   D2A27712  27.580   5.839   8.253
 7019POPC   C3A27713  27.579   5.820   7.953
 7019POPC   C4A27714  27.596   5.906   7.653
 7019POPC   C1B27715  27.629   6.104   8.553
 7019POPC   C2B27716  27.547   6.121   8.253
 7019POPC   C3B27717  27.565   6.080   7.953
 7019POPC   C4B27718  27.550   6.136   7.653
 7020POPC   NC327719  38.412  26.777   9.453
 7020POPC   PO427720  38.468  26.798   9.153
 7020POPC   GL127721  38.497  26.832   8.853
 7020POPC   GL227722  38.519  26.905   8.853
 7020POPC   C1A27723  38.412  26.818   8.553
 7020POPC   D2A27724  38.413  26.808   8.253
 7020POPC   C3A27725  38.410  26.800   7.953
 7020POPC   C4A27726  38.419  26.811   7.653
 7020POPC   C1B27727  38.624  27.071   8.553
 7020POPC   C2B27728  38.646  27.031   8.253
 7020POPC   C3B27729  38.617  27.003   7.953
 7020POPC   C4B27730  38.548  26.993   7.653
 7021POPC   NC327731  26.800   8.991   9.453
 7021POPC   PO427732  26.839   8.930   9.153
 7021POPC   GL127733  26.803   8.969   8.853
 7021POPC   GL227734  26.792   8.859   8.853
 7021POPC   C1A27735  26.848   8.960   8.553
 7021POPC   D2A27736  26.824   8.979   8.253
 7021POPC   C3A27737  26.860   8.990   7.953
 7021POPC   C4A27738  26.810   8.986   7.653
 7021POPC   C1B27739  26.705   8.729   8.553
 7021POPC   C2B27740  26.653   8.789   8.253
 7021POPC   C3B27741  26.688   8.799   7.953
 7021POPC   C4B27742  26.690   8.769   7.653
 7022POPC   NC327743  44.627  37.642   9.453
 7022POPC   PO427744  44.672  37.701   9.153
 7022POPC   GL127745  44.620  37.674   8.853
 7022POPC   GL227746  44.698  37.775   8.853
 7022POPC   C1A27747  44.629  37.645   8.553
 7022POPC   D2A27748  44.616  37.678   8.253
 7022POPC   C3A27749  44.622  37.661   7.953
 7022POPC   C4A27750  44.702  37.669   7.653
 7022POPC   C1B27751  44.746  37.907   8.553
 7022POPC   C2B27752  44.740  37.892   8.253
 7022POPC   C3B27753  44.820  37.867   7.953
 7022POPC   C4B27754  44.736  37.948   7.653
 7023POPC   NC327755  31.511   2.787   9.453
 7023POPC   PO427756  31.470   2.760   9.153
 7023POPC   GL127757  31.425   2.772   8.853
 7023POPC   GL227758  31.545   2.840   8.853
 7023POPC   C1A27759  31.451   2.726   8.553
 7023POPC   D2A27760  31.507   2.730   8.253
 7023POPC   C3A27761  31.475   2.782   7.953
 7023POPC   C4A27762  31.493   2.763   7.653
 7023POPC   C1B27763  31.523   3.037   8.553
 7023POPC   C2B27764  31.574   3.015   8.253
 7023POPC   C3B27765  31.479   3.038   7.953
 7023POPC   C4B27766  31.547   2.977   7.653
 7024POPC   NC327767   5.052  31.468   9.453
 7024POPC   PO427768   5.082  31.506   9.153
 7024POPC   GL127769   5.100  31.426   8.853
 7024POPC   GL227770   4.991  31.492   8.853
 7024POPC   C1A27771   5.054  31.482   8.553
 7024POPC   D2A27772   5.074  31.461   8.253
 7024POPC   C3A27773   5.140  31.448   7.953
 7024POPC   C4A27774   5.066  31.436   7.653
 7024POPC   C1B27775   4.803  31.580   8.553
 7024POPC   C2B27776   4.859  31.508   8.253
 7024POPC   C3B27777   4.814  31.494   7.953
 7024POPC   C4B27778   4.892  31.570   7.653
 7025POPC   NC327779  19.076   7.385   9.453
 7025POPC   PO427780  19.080   7.419   9.153
 7025POPC   GL127781  19.070   7.449   8.853
 7025POPC   GL227782  19.206   7.514   8.853
 7025POPC   C1A27783  19.024   7.453   8.553
 7025POPC   D2A27784  19.020   7.419   8.253
 7025POPC   C3A27785  19.063   7.451   7.953
 7025POPC   C4A27786  19.037   7.414   7.653
 7025POPC   C1B27787  19.237   7.512   8.553
 7025POPC   C2B27788  19.272   7.486   8.253
 7025POPC   C3B27789  19.321   7.515   7.953
 7025POPC   C4B27790  19.278   7.485   7.653
 7026POPC   NC327791   8.171  19.025   9.453
 7026POPC   PO427792   8.223  19.077   9.153
 7026POPC   GL127793   8.194  19.090   8.853
 7026POPC   GL227794   8.191  19.149   8.853
 7026POPC   C1A27795   8.149  19.074   8.553
 7026POPC   D2A27796   8.202  19.052   8.253
 7026POPC   C3A27797   8.185  19.092   7.953
 7026POPC   C4A27798   8.174  19.083   7.653
 7026POPC   C1B27799   8.193  19.339   8.553
 7026POPC   C2B27800   8.172  19.259   8.253
 7026POPC   C3B27801   8.219  19.318   7.953
 7026POPC   C4B27802   8.254  19.309   7.653
 7027POPC   NC327803  40.007  41.517   9.453
 7027POPC   PO427804  40.018  41.538   9.153
 7027POPC   GL127805  40.043  41.513   8.853
 7027POPC   GL227806  40.161  41.592   8.853
 7027POPC   C1A27807  39.983  41.515   8.553
 7027POPC   D2A27808  40.055  41.543   8.253
 7027POPC   C3A27809  40.012  41.559   7.953
 7027POPC   C4A27810  40.046  41.589   7.653
 7027POPC   C1B27811  40.296  41.612   8.553
 7027POPC   C2B27812  40.239  41.574   8.253
 7027POPC   C3B27813  40.269  41.593   7.953
 7027POPC   C4B27814  40.275  41.608   7.653
 7028POPC   NC327815   4.305  36.925   9.453
 7028POPC   PO427816   4.284  36.905   9.153
 7028POPC   GL127817   4.306  36.927   8.853
 7028POPC   GL227818   4.368  37.016   8.853
 7028POPC   C1A27819   4.302  36.882   8.553
 7028POPC   D2A27820   4.323  36.928   8.253
 7028POPC   C3A27821   4.321  36.865   7.953
 7028POPC   C4A27822   4.349  36.930   7.653
 7028POPC   C1B27823   4.367  37.111   8.553
 7028POPC   C2B27824   4.413  37.151   8.253
 7028POPC   C3B27825   4.393  37.112   7.953
 7028POPC   C4B27826   4.414  37.135   7.653
 7029POPC   NC327827   6.613  36.105   9.453
 7029POPC   PO427828   6.642  36.142   9.153
 7029POPC   GL127829   6.672  36.104   8.853
 7029POPC   GL227830   6.557  36.256   8.853
 7029POPC   C1A27831   6.606  36.083   8.553
 7029POPC   D2A27832   6.666  36.122   8.253
 7029POPC   C3A27833   6.692  36.089   7.953
 7029POPC   C4A27834   6.610  36.153   7.653
 7029POPC   C1B27835   6.528  36.321   8.553
 7029POPC   C2B27836   6.530  36.314   8.253
 7029POPC   C3B27837   6.458  36.383   7.953
 7029POPC   C4B27838   6.528  36.380   7.653
 7030POPC   NC327839  31.453  33.024   9.453
 7030POPC   PO427840  31.499  33.061   9.153
 7030POPC   GL127841  31.472  32.986   8.853
 7030POPC   GL227842  31.548  33.082   8.853
 7030POPC   C1A27843  31.444  33.072   8.553
 7030POPC   D2A27844  31.489  33.036   8.253
 7030POPC   C3A27845  31.450  33.000   7.953
 7030POPC   C4A27846  31.426  33.027   7.653
 7030POPC   C1B27847  31.589  33.196   8.553
 7030POPC   C2B27848  31.594  33.231   8.253
 7030POPC   C3B27849  31.650  33.229   7.953
 7030POPC   C4B27850  31.681  33.214   7.653
 7031POPC   NC327851  29.133  26.778   9.453
 7031POPC   PO427852  29.140  26.815   9.153
 7031POPC   GL127853  29.178  26.861   8.853
 7031POPC   GL227854  29.040  26.772   8.853
 7031POPC   C1A27855  29.156  26.797   8.553
 7031POPC   D2A27856  29.184  26.782   8.253
 7031POPC   C3A27857  29.168  26.851   7.953
 7031POPC   C4A27858  29.112  26.772   7.653
 7031POPC   C1B27859  28.950  26.764   8.553
 7031POPC   C2B27860  28.934  26.741   8.253
 7031POPC   C3B27861  28.884  26.747   7.953
 7031POPC   C4B27862  28.926  26.774   7.653
 7032POPC   NC327863  12.086  17.544   9.453
 7032POPC   PO427864  12.060  17.496   9.153
 7032POPC   GL127865  12.027  17.466   8.853
 7032POPC   GL227866  11.946  17.449   8.853
 7032POPC   C1A27867  12.117  17.512   8.553
 7032POPC   D2A27868  12.048  17.537   8.253
 7032POPC   C3A27869  12.104  17.535   7.953
 7032POPC   C4A27870  12.074  17.536   7.653
 7032POPC   C1B27871  11.842  17.369   8.553
 7032POPC   C2B27872  11.845  17.324   8.253
 7032POPC   C3B27873  11.870  17.333   7.953
 7032POPC   C4B27874  11.849  17.321   7.653
 7033POPC   NC327875  26.057  13.585   9.453
 7033POPC   PO427876  26.063  13.647   9.153
 7033POPC   GL127877  26.022  13.610   8.853
 7033POPC   GL227878  25.920  13.611   8.853
 7033POPC   C1A27879  26.011  13.611   8.553
 7033POPC   D2A27880  25.991  13.603   8.253
 7033POPC   C3A27881  26.086  13.673   7.953
 7033POPC   C4A27882  26.026  13.585   7.653
 7033POPC   C1B27883  25.796  13.643   8.553
 7033POPC   C2B27884  25.805  13.707   8.253
 7033POPC   C3B27885  25.756  13.656   7.953
 7033POPC   C4B27886  25.809  13.682   7.653
 7034POPC   NC327887  24.507  12.874   9.453
 7034POPC   PO427888  24.479  12.889   9.153
 7034POPC   GL127889  24.521  12.828   8.853
 7034POPC   GL227890  24.475  12.999   8.853
 7034POPC   C1A27891  24.483  12.819   8.553
 7034POPC   D2A27892  24.442  12.881   8.253
 7034POPC   C3A27893  24.471  12.885   7.953
 7034POPC   C4A27894  24.524  12.874   7.653
 7034POPC   C1B27895  24.477  13.099   8.553
 7034POPC   C2B27896  24.466  13.067   8.253
 7034POPC   C3B27897  24.467  13.090   7.953
 7034POPC   C4B27898  24.483  13.082   7.653
 7035POPC   NC327899  43.157  43.152   9.453
 7035POPC   PO427900  43.104  43.148   9.153
 7035POPC   GL127901  43.071  43.093   8.853
 7035POPC   GL227902  43.020  43.262   8.853
 7035POPC   C1A27903  43.076  43.077   8.553
 7035POPC   D2A27904  43.132  43.119   8.253
 7035POPC   C3A27905  43.146  43.090   7.953
 7035POPC   C4A27906  43.063  43.149   7.653
 7035POPC   C1B27907  43.018  43.324   8.553
 7035POPC   C2B27908  43.044  43.375   8.253
 7035POPC   C3B27909  43.027  43.312   7.953
 7035POPC   C4B27910  43.001  43.349   7.653
 7036POPC   NC327911  26.074   8.175   9.453
 7036POPC   PO427912  26.037   8.169   9.153
 7036POPC   GL127913  26.042   8.228   8.853
 7036POPC   GL227914  25.887   8.155   8.853
 7036POPC   C1A27915  26.040   8.218   8.553
 7036POPC   D2A27916  25.994   8.184   8.253
 7036POPC   C3A27917  26.034   8.164   7.953
 7036POPC   C4A27918  26.047   8.206   7.653
 7036POPC   C1B27919  25.815   8.054   8.553
 7036POPC   C2B27920  25.825   8.081   8.253
 7036POPC   C3B27921  25.837   8.124   7.953
 7036POPC   C4B27922  25.840   8.075   7.653
 7037POPC   NC327923  43.128  33.801   9.453
 7037POPC   PO427924  43.074  33.838   9.153
 7037POPC   GL127925  43.157  33.812   8.853
 7037POPC   GL227926  42.972  33.847   8.853
 7037POPC   C1A27927  43.088  33.769   8.553
 7037POPC   D2A27928  43.063  33.809   8.253
 7037POPC   C3A27929  43.070  33.848   7.953
 7037POPC   C4A27930  43.076  33.841   7.653
 7037POPC   C1B27931  42.892  33.770   8.553
 7037POPC   C2B27932  42.884  33.806   8.253
 7037POPC   C3B27933  42.910  33.849   7.953
 7037POPC   C4B27934  42.838  33.786   7.653
 7038POPC   NC327935  15.996  43.872   9.453
 7038POPC   PO427936  16.000  43.894   9.153
 7038POPC   GL127937  15.926  43.898   8.853
 7038POPC   GL227938  15.866  44.002   8.853
 7038POPC   C1A27939  15.939  43.899   8.553
 7038POPC   D2A27940  15.984  43.912   8.253
 7038POPC   C3A27941  15.954  43.839   7.953
 7038POPC   C4A27942  15.992  43.925   7.653
 7038POPC   C1B27943  15.712  44.066   8.553
 7038POPC   C2B27944  15.725  44.033   8.253
 7038POPC   C3B27945  15.759  43.984   7.953
 7038POPC   C4B27946  15.745  44.018   7.653
 7039POPC   NC327947  29.099   0.406   9.453
 7039POPC   PO427948  29.098   0.464   9.153
 7039POPC   GL127949  29.114   0.442   8.853
 7039POPC   GL227950  29.050   0.456   8.853
 7039POPC   C1A27951  29.163   0.466   8.553
 7039POPC   D2A27952  29.187   0.468   8.253
 7039POPC   C3A27953  29.190   0.443   7.953
 7039POPC   C4A27954  29.151   0.389   7.653
 7039POPC   C1B27955  28.945   0.352   8.553
 7039POPC   C2B27956  28.892   0.432   8.253
 7039POPC   C3B27957  28.919   0.402   7.953
 7039POPC   C4B27958  28.912   0.397   7.653
 7040POPC   NC327959  15.168   5.076   9.453
 7040POPC   PO427960  15.135   5.089   9.153
 7040POPC   GL127961  15.154   5.083   8.853
 7040POPC   GL227962  15.254   5.140   8.853
 7040POPC   C1A27963  15.205   5.066   8.553
 7040POPC   D2A27964  15.148   5.107   8.253
 7040POPC   C3A27965  15.172   5.112   7.953
 7040POPC   C4A27966  15.193   5.069   7.653
 7040POPC   C1B27967  15.354   5.294   8.553
 7040POPC   C2B27968  15.304   5.300   8.253
 7040POPC   C3B27969  15.326   5.250   7.953
 7040POPC   C4B27970  15.342   5.321   7.653
 7041POPC   NC327971  43.935  42.325   9.453
 7041POPC   PO427972  43.898  42.347   9.153
 7041POPC   GL127973  43.847  42.355   8.853
 7041POPC   GL227974  43.876  42.255   8.853
 7041POPC   C1A27975  43.847  42.317   8.553
 7041POPC   D2A27976  43.884  42.365   8.253
 7041POPC   C3A27977  43.890  42.327   7.953
 7041POPC   C4A27978  43.895  42.384   7.653
 7041POPC   C1B27979  43.881  42.057   8.553
 7041POPC   C2B27980  43.909  42.112   8.253
 7041POPC   C3B27981  43.912  42.043   7.953
 7041POPC   C4B27982  43.930  42.094   7.653
 7042POPC   NC327983  15.162  25.310   9.453
 7042POPC   PO427984  15.217  25.257   9.153
 7042POPC   GL127985  15.170  25.225   8.853
 7042POPC   GL227986  15.131  25.416   8.853
 7042POPC   C1A27987  15.144  25.240   8.553
 7042POPC   D2A27988  15.198  25.312   8.253
 7042POPC   C3A27989  15.228  25.255   7.953
 7042POPC   C4A27990  15.166  25.255   7.653
 7042POPC   C1B27991  15.014  25.473   8.553
 7042POPC   C2B27992  15.014  25.474   8.253
 7042POPC   C3B27993  15.027  25.467   7.953
 7042POPC   C4B27994  15.084  25.500   7.653
 7043POPC   NC327995   3.537  43.067   9.453
 7043POPC   PO427996   3.537  43.102   9.153
 7043POPC   GL127997   3.539  43.156   8.853
 7043POPC   GL227998   3.678  43.152   8.853
 7043POPC   C1A27999   3.498  43.076   8.553
 7043POPC   D2A28000   3.589  43.105   8.253
 7043POPC   C3A28001   3.560  43.074   7.953
 7043POPC   C4A28002   3.573  43.083   7.653
 7043POPC   C1B28003   3.798  43.184   8.553
 7043POPC   C2B28004   3.750  43.185   8.253
 7043POPC   C3B28005   3.824  43.208   7.953
 7043POPC   C4B28006   3.804  43.142   7.653
 7044POPC   NC328007  19.843  33.051   9.453
 7044POPC   PO428008  19.834  33.000   9.153
 7044POPC   GL128009  19.834  33.028   8.853
 7044POPC   GL228010  19.749  33.096   8.853
 7044POPC   C1A28011  19.838  32.981   8.553
 7044POPC   D2A28012  19.874  33.064   8.253
 7044POPC   C3A28013  19.813  32.994   7.953
 7044POPC   C4A28014  19.874  33.018   7.653
 7044POPC   C1B28015  19.733  33.179   8.553
 7044POPC   C2B28016  19.729  33.263   8.253
 7044POPC   C3B28017  19.649  33.258   7.953
 7044POPC   C4B28018  19.681  33.272   7.653
 7045POPC   NC328019   6.653   7.406   9.453
 7045POPC   PO428020   6.646   7.390   9.153
 7045POPC   GL128021   6.672   7.403   8.853
 7045POPC   GL228022   6.549   7.540   8.853
 7045POPC   C1A28023   6.619   7.412   8.553
 7045POPC   D2A28024   6.639   7.433   8.253
 7045POPC   C3A28025   6.636   7.435   7.953
 7045POPC   C4A28026   6.619   7.401   7.653
 7045POPC   C1B28027   6.537   7.645   8.553
 7045POPC   C2B28028   6.516   7.630   8.253
 7045POPC   C3B28029   6.582   7.606   7.953
 7045POPC   C4B28030   6.521   7.610   7.653
 7046POPC   NC328031  29.957  14.445   9.453
 7046POPC   PO428032  29.928  14.388   9.153
 7046POPC   GL128033  29.961  14.409   8.853
 7046POPC   GL228034  29.891  14.511   8.853
 7046POPC   C1A28035  29.885  14.441   8.553
 7046POPC   D2A28036  29.877  14.423   8.253
 7046POPC   C3A28037  29.920  14.429   7.953
 7046POPC   C4A28038  29.936  14.388   7.653
 7046POPC   C1B28039  29.823  14.588   8.553
 7046POPC   C2B28040  29.803  14.634   8.253
 7046POPC   C3B28041  29.757  14.581   7.953
 7046POPC   C4B28042  29.798  14.648   7.653
 7047POPC   NC328043  15.175   3.589   9.453
 7047POPC   PO428044  15.184   3.532   9.153
 7047POPC   GL128045  15.226   3.515   8.853
 7047POPC   GL228046  15.088   3.683   8.853
 7047POPC   C1A28047  15.227   3.519   8.553
 7047POPC   D2A28048  15.170   3.568   8.253
 7047POPC   C3A28049  15.216   3.516   7.953
 7047POPC   C4A28050  15.224   3.589   7.653
 7047POPC   C1B28051  15.069   3.742   8.553
 7047POPC   C2B28052  15.061   3.751   8.253
 7047POPC   C3B28053  15.132   3.797   7.953
 7047POPC   C4B28054  15.108   3.772   7.653
 7048POPC   NC328055  17.530   3.525   9.453
 7048POPC   PO428056  17.534   3.503   9.153
 7048POPC   GL128057  17.556   3.507   8.853
 7048POPC   GL228058  17.469   3.437   8.853
 7048POPC   C1A28059  17.495   3.503   8.553
 7048POPC   D2A28060  17.530   3.586   8.253
 7048POPC   C3A28061  17.517   3.500   7.953
 7048POPC   C4A28062  17.533   3.578   7.653
 7048POPC   C1B28063  17.377   3.361   8.553
 7048POPC   C2B28064  17.340   3.375   8.253
 7048POPC   C3B28065  17.393   3.325   7.953
 7048POPC   C4B28066  17.397   3.319   7.653
 7049POPC   NC328067  10.564  21.432   9.453
 7049POPC   PO428068  10.570  21.396   9.153
 7049POPC   GL128069  10.502  21.348   8.853
 7049POPC   GL228070  10.393  21.361   8.853
 7049POPC   C1A28071  10.497  21.395   8.553
 7049POPC   D2A28072  10.498  21.359   8.253
 7049POPC   C3A28073  10.550  21.372   7.953
 7049POPC   C4A28074  10.552  21.354   7.653
 7049POPC   C1B28075  10.235  21.349   8.553
 7049POPC   C2B28076  10.242  21.302   8.253
 7049POPC   C3B28077  10.276  21.307   7.953
 7049POPC   C4B28078  10.276  21.321   7.653
 7050POPC   NC328079  43.856  21.420   9.453
 7050POPC   PO428080  43.930  21.340   9.153
 7050POPC   GL128081  43.885  21.396   8.853
 7050POPC   GL228082  43.900  21.218   8.853
 7050POPC   C1A28083  43.928  21.347   8.553
 7050POPC   D2A28084  43.922  21.360   8.253
 7050POPC   C3A28085  43.926  21.390   7.953
 7050POPC   C4A28086  43.892  21.348   7.653
 7050POPC   C1B28087  43.830  21.138   8.553
 7050POPC   C2B28088  43.865  21.160   8.253
 7050POPC   C3B28089  43.784  21.108   7.953
 7050POPC   C4B28090  43.785  21.124   7.653
 7051POPC   NC328091  43.075  40.757   9.453
 7051POPC   PO428092  43.081  40.801   9.153
 7051POPC   GL128093  43.070  40.819   8.853
 7051POPC   GL228094  43.121  40.693   8.853
 7051POPC   C1A28095  43.119  40.798   8.553
 7051POPC   D2A28096  43.128  40.763   8.253
 7051POPC   C3A28097  43.111  40.744   7.953
 7051POPC   C4A28098  43.062  40.796   7.653
 7051POPC   C1B28099  43.101  40.526   8.553
 7051POPC   C2B28100  43.123  40.488   8.253
 7051POPC   C3B28101  43.064  40.579   7.953
 7051POPC   C4B28102  43.069  40.501   7.653
 7052POPC   NC328103   4.340  33.803   9.453
 7052POPC   PO428104   4.327  33.783   9.153
 7052POPC   GL128105   4.289  33.829   8.853
 7052POPC   GL228106   4.231  33.782   8.853
 7052POPC   C1A28107   4.362  33.759   8.553
 7052POPC   D2A28108   4.274  33.826   8.253
 7052POPC   C3A28109   4.341  33.800   7.953
 7052POPC   C4A28110   4.278  33.806   7.653
 7052POPC   C1B28111   4.092  33.700   8.553
 7052POPC   C2B28112   4.119  33.617   8.253
 7052POPC   C3B28113   4.084  33.687   7.953
 7052POPC   C4B28114   4.142  33.689   7.653
 7053POPC   NC328115   5.872   7.403   9.453
 7053POPC   PO428116   5.838   7.405   9.153
 7053POPC   GL128117   5.859   7.422   8.853
 7053POPC   GL228118   5.982   7.443   8.853
 7053POPC   C1A28119   5.899   7.445   8.553
 7053POPC   D2A28120   5.874   7.437   8.253
 7053POPC   C3A28121   5.899   7.462   7.953
 7053POPC   C4A28122   5.891   7.456   7.653
 7053POPC   C1B28123   6.115   7.538   8.553
 7053POPC   C2B28124   6.053   7.576   8.253
 7053POPC   C3B28125   6.064   7.609   7.953
 7053POPC   C4B28126   6.042   7.556   7.653
 7054POPC   NC328127   5.063  18.321   9.453
 7054POPC   PO428128   5.077  18.290   9.153
 7054POPC   GL128129   5.127  18.304   8.853
 7054POPC   GL228130   5.007  18.234   8.853
 7054POPC   C1A28131   5.074  18.296   8.553
 7054POPC   D2A28132   5.055  18.278   8.253
 7054POPC   C3A28133   5.093  18.317   7.953
 7054POPC   C4A28134   5.128  18.300   7.653
 7054POPC   C1B28135   4.863  18.149   8.553
 7054POPC   C2B28136   4.913  18.183   8.253
 7054POPC   C3B28137   4.872  18.101   7.953
 7054POPC   C4B28138   4.933  18.161   7.653
 7055POPC   NC328139   3.496  35.346   9.453
 7055POPC   PO428140   3.527  35.376   9.153
 7055POPC   GL128141   3.527  35.357   8.853
 7055POPC   GL228142   3.423  35.416   8.853
 7055POPC   C1A28143   3.515  35.318   8.553
 7055POPC   D2A28144   3.531  35.371   8.253
 7055POPC   C3A28145   3.506  35.349   7.953
 7055POPC   C4A28146   3.528  35.303   7.653
 7055POPC   C1B28147   3.332  35.436   8.553
 7055POPC   C2B28148   3.344  35.461   8.253
 7055POPC   C3B28149   3.309  35.448   7.953
 7055POPC   C4B28150   3.297  35.414   7.653
 7056POPC   NC328151   5.064  29.920   9.453
 7056POPC   PO428152   5.115  29.933   9.153
 7056POPC   GL128153   5.091  29.888   8.853
 7056POPC   GL228154   4.944  30.004   8.853
 7056POPC   C1A28155   5.124  29.929   8.553
 7056POPC   D2A28156   5.099  29.901   8.253
 7056POPC   C3A28157   5.055  29.899   7.953
 7056POPC   C4A28158   5.080  29.930   7.653
 7056POPC   C1B28159   4.931  30.098   8.553
 7056POPC   C2B28160   4.941  30.064   8.253
 7056POPC   C3B28161   4.900  30.040   7.953
 7056POPC   C4B28162   4.871  30.086   7.653
 7057POPC   NC328163  16.701  22.923   9.453
 7057POPC   PO428164  16.697  22.982   9.153
 7057POPC   GL128165  16.767  22.961   8.853
 7057POPC   GL228166  16.814  23.020   8.853
 7057POPC   C1A28167  16.702  22.919   8.553
 7057POPC   D2A28168  16.686  22.928   8.253
 7057POPC   C3A28169  16.756  22.979   7.953
 7057POPC   C4A28170  16.743  22.965   7.653
 7057POPC   C1B28171  16.850  23.172   8.553
 7057POPC   C2B28172  16.820  23.115   8.253
 7057POPC   C3B28173  16.816  23.118   7.953
 7057POPC   C4B28174  16.820  23.107   7.653
 7058POPC   NC328175  27.565  36.162   9.453
 7058POPC   PO428176  27.616  36.165   9.153
 7058POPC   GL128177  27.550  36.092   8.853
 7058POPC   GL228178  27.760  36.067   8.853
 7058POPC   C1A28179  27.547  36.153   8.553
 7058POPC   D2A28180  27.578  36.097   8.253
 7058POPC   C3A28181  27.629  36.168   7.953
 7058POPC   C4A28182  27.564  36.119   7.653
 7058POPC   C1B28183  27.844  36.112   8.553
 7058POPC   C2B28184  27.815  36.085   8.253
 7058POPC   C3B28185  27.888  36.050   7.953
 7058POPC   C4B28186  27.791  36.064   7.653
 7059POPC   NC328187  18.265  28.375   9.453
 7059POPC   PO428188  18.311  28.391   9.153
 7059POPC   GL128189  18.303  28.371   8.853
 7059POPC   GL228190  18.397  28.404   8.853
 7059POPC   C1A28191  18.286  28.338   8.553
 7059POPC   D2A28192  18.269  28.399   8.253
 7059POPC   C3A28193  18.317  28.343   7.953
 7059POPC   C4A28194  18.257  28.334   7.653
 7059POPC   C1B28195  18.501  28.386   8.553
 7059POPC   C2B28196  18.482  28.353   8.253
 7059POPC   C3B28197  18.564  28.384   7.953
 7059POPC   C4B28198  18.579  28.302   7.653
 7060POPC   NC328199  38.424   1.193   9.453
 7060POPC   PO428200  38.489   1.239   9.153
 7060POPC   GL128201  38.495   1.220   8.853
 7060POPC   GL228202  38.396   1.115   8.853
 7060POPC   C1A28203  38.492   1.168   8.553
 7060POPC   D2A28204  38.416   1.189   8.253
 7060POPC   C3A28205  38.446   1.191   7.953
 7060POPC   C4A28206  38.464   1.180   7.653
 7060POPC   C1B28207  38.419   0.944   8.553
 7060POPC   C2B28208  38.367   1.023   8.253
 7060POPC   C3B28209  38.368   0.977   7.953
 7060POPC   C4B28210  38.423   1.009   7.653
 7061POPC   NC328211  35.337  41.561   9.453
 7061POPC   PO428212  35.333  41.597   9.153
 7061POPC   GL128213  35.322  41.533   8.853
 7061POPC   GL228214  35.473  41.552   8.853
 7061POPC   C1A28215  35.401  41.572   8.553
 7061POPC   D2A28216  35.382  41.516   8.253
 7061POPC   C3A28217  35.363  41.606   7.953
 7061POPC   C4A28218  35.373  41.528   7.653
 7061POPC   C1B28219  35.569  41.569   8.553
 7061POPC   C2B28220  35.590  41.627   8.253
 7061POPC   C3B28221  35.632  41.572   7.953
 7061POPC   C4B28222  35.629  41.581   7.653
 7062POPC   NC328223  15.164  26.051   9.453
 7062POPC   PO428224  15.223  26.091   9.153
 7062POPC   GL128225  15.204  26.034   8.853
 7062POPC   GL228226  15.058  26.019   8.853
 7062POPC   C1A28227  15.227  26.023   8.553
 7062POPC   D2A28228  15.229  26.058   8.253
 7062POPC   C3A28229  15.209  26.054   7.953
 7062POPC   C4A28230  15.145  26.009   7.653
 7062POPC   C1B28231  14.905  26.048   8.553
 7062POPC   C2B28232  14.918  26.010   8.253
 7062POPC   C3B28233  14.944  26.009   7.953
 7062POPC   C4B28234  14.976  26.020   7.653
 7063POPC   NC328235   9.749  41.514   9.453
 7063POPC   PO428236   9.762  41.594   9.153
 7063POPC   GL128237   9.716  41.564   8.853
 7063POPC   GL228238   9.853  41.598   8.853
 7063POPC   C1A28239   9.739  41.519   8.553
 7063POPC   D2A28240   9.733  41.583   8.253
 7063POPC   C3A28241   9.721  41.528   7.953
 7063POPC   C4A28242   9.727  41.543   7.653
 7063POPC   C1B28243  10.024  41.514   8.553
 7063POPC   C2B28244   9.998  41.574   8.253
 7063POPC   C3B28245  10.013  41.511   7.953
 7063POPC   C4B28246  10.020  41.510   7.653
 7064POPC   NC328247  42.303   0.410   9.453
 7064POPC   PO428248  42.322   0.432   9.153
 7064POPC   GL128249  42.365   0.411   8.853
 7064POPC   GL228250  42.410   0.321   8.853
 7064POPC   C1A28251  42.293   0.467   8.553
 7064POPC   D2A28252  42.373   0.484   8.253
 7064POPC   C3A28253  42.326   0.416   7.953
 7064POPC   C4A28254  42.346   0.423   7.653
 7064POPC   C1B28255  42.407   0.242   8.553
 7064POPC   C2B28256  42.388   0.152   8.253
 7064POPC   C3B28257  42.440   0.172   7.953
 7064POPC   C4B28258  42.364   0.240   7.653
 7065POPC   NC328259  41.567  20.640   9.453
 7065POPC   PO428260  41.544  20.564   9.153
 7065POPC   GL128261  41.538  20.658   8.853
 7065POPC   GL228262  41.547  20.711   8.853
 7065POPC   C1A28263  41.525  20.622   8.553
 7065POPC   D2A28264  41.548  20.637   8.253
 7065POPC   C3A28265  41.565  20.588   7.953
 7065POPC   C4A28266  41.525  20.569   7.653
 7065POPC   C1B28267  41.437  20.802   8.553
 7065POPC   C2B28268  41.428  20.832   8.253
 7065POPC   C3B28269  41.466  20.807   7.953
 7065POPC   C4B28270  41.437  20.860   7.653
 7066POPC   NC328271  40.773  34.566   9.453
 7066POPC   PO428272  40.807  34.569   9.153
 7066POPC   GL128273  40.779  34.550   8.853
 7066POPC   GL228274  40.880  34.530   8.853
 7066POPC   C1A28275  40.826  34.581   8.553
 7066POPC   D2A28276  40.738  34.555   8.253
 7066POPC   C3A28277  40.829  34.620   7.953
 7066POPC   C4A28278  40.771  34.530   7.653
 7066POPC   C1B28279  40.991  34.545   8.553
 7066POPC   C2B28280  40.971  34.498   8.253
 7066POPC   C3B28281  41.015  34.492   7.953
 7066POPC   C4B28282  41.052  34.516   7.653
 7067POPC   NC328283   0.437  38.470   9.453
 7067POPC   PO428284   0.447  38.421   9.153
 7067POPC   GL128285   0.400  38.479   8.853
 7067POPC   GL228286   0.418  38.323   8.853
 7067POPC   C1A28287   0.400  38.448   8.553
 7067POPC   D2A28288   0.405  38.429   8.253
 7067POPC   C3A28289   0.466  38.494   7.953
 7067POPC   C4A28290   0.472  38.409   7.653
 7067POPC   C1B28291   0.302  38.261   8.553
 7067POPC   C2B28292   0.343  38.182   8.253
 7067POPC   C3B28293   0.370  38.173   7.953
 7067POPC   C4B28294   0.394  38.263   7.653
 7068POPC   NC328295  12.871  27.588   9.453
 7068POPC   PO428296  12.887  27.543   9.153
 7068POPC   GL128297  12.864  27.572   8.853
 7068POPC   GL228298  12.883  27.466   8.853
 7068POPC   C1A28299  12.820  27.613   8.553
 7068POPC   D2A28300  12.870  27.600   8.253
 7068POPC   C3A28301  12.860  27.606   7.953
 7068POPC   C4A28302  12.824  27.613   7.653
 7068POPC   C1B28303  12.927  27.396   8.553
 7068POPC   C2B28304  12.962  27.385   8.253
 7068POPC   C3B28305  12.950  27.329   7.953
 7068POPC   C4B28306  12.975  27.381   7.653
 7069POPC   NC328307   6.601   1.193   9.453
 7069POPC   PO428308   6.626   1.200   9.153
 7069POPC   GL128309   6.611   1.263   8.853
 7069POPC   GL228310   6.733   1.119   8.853
 7069POPC   C1A28311   6.669   1.176   8.553
 7069POPC   D2A28312   6.627   1.249   8.253
 7069POPC   C3A28313   6.607   1.193   7.953
 7069POPC   C4A28314   6.619   1.188   7.653
 7069POPC   C1B28315   6.793   1.037   8.553
 7069POPC   C2B28316   6.744   1.045   8.253
 7069POPC   C3B28317   6.789   1.002   7.953
 7069POPC   C4B28318   6.769   1.020   7.653
 7070POPC   NC328319  22.136  15.165   9.453
 7070POPC   PO428320  22.198  15.172   9.153
 7070POPC   GL128321  22.112  15.157   8.853
 7070POPC   GL228322  22.037  15.196   8.853
 7070POPC   C1A28323  22.150  15.168   8.553
 7070POPC   D2A28324  22.123  15.222   8.253
 7070POPC   C3A28325  22.202  15.227   7.953
 7070POPC   C4A28326  22.203  15.140   7.653
 7070POPC   C1B28327  21.875  15.278   8.553
 7070POPC   C2B28328  21.878  15.235   8.253
 7070POPC   C3B28329  21.929  15.210   7.953
 7070POPC   C4B28330  21.878  15.227   7.653
 7071POPC   NC328331   6.661  20.642   9.453
 7071POPC   PO428332   6.628  20.659   9.153
 7071POPC   GL128333   6.620  20.615   8.853
 7071POPC   GL228334   6.548  20.732   8.853
 7071POPC   C1A28335   6.614  20.627   8.553
 7071POPC   D2A28336   6.641  20.642   8.253
 7071POPC   C3A28337   6.667  20.599   7.953
 7071POPC   C4A28338   6.645  20.640   7.653
 7071POPC   C1B28339   6.432  20.754   8.553
 7071POPC   C2B28340   6.468  20.786   8.253
 7071POPC   C3B28341   6.400  20.806   7.953
 7071POPC   C4B28342   6.468  20.787   7.653
 7072POPC   NC328343   2.752  39.185   9.453
 7072POPC   PO428344   2.760  39.194   9.153
 7072POPC   GL128345   2.739  39.195   8.853
 7072POPC   GL228346   2.798  39.142   8.853
 7072POPC   C1A28347   2.748  39.208   8.553
 7072POPC   D2A28348   2.811  39.221   8.253
 7072POPC   C3A28349   2.767  39.277   7.953
 7072POPC   C4A28350   2.765  39.246   7.653
 7072POPC   C1B28351   2.768  38.982   8.553
 7072POPC   C2B28352   2.780  38.950   8.253
 7072POPC   C3B28353   2.776  38.983   7.953
 7072POPC   C4B28354   2.778  38.999   7.653
 7073POPC   NC328355  12.815  26.772   9.453
 7073POPC   PO428356  12.842  26.858   9.153
 7073POPC   GL128357  12.865  26.776   8.853
 7073POPC   GL228358  12.828  26.740   8.853
 7073POPC   C1A28359  12.881  26.826   8.553
 7073POPC   D2A28360  12.891  26.798   8.253
 7073POPC   C3A28361  12.802  26.782   7.953
 7073POPC   C4A28362  12.848  26.824   7.653
 7073POPC   C1B28363  12.747  26.604   8.553
 7073POPC   C2B28364  12.737  26.589   8.253
 7073POPC   C3B28365  12.738  26.606   7.953
 7073POPC   C4B28366  12.686  26.598   7.653
 7074POPC   NC328367   3.545   6.640   9.453
 7074POPC   PO428368   3.497   6.669   9.153
 7074POPC   GL128369   3.497   6.617   8.853
 7074POPC   GL228370   3.457   6.753   8.853
 7074POPC   C1A28371   3.550   6.622   8.553
 7074POPC   D2A28372   3.506   6.669   8.253
 7074POPC   C3A28373   3.586   6.604   7.953
 7074POPC   C4A28374   3.538   6.634   7.653
 7074POPC   C1B28375   3.492   6.891   8.553
 7074POPC   C2B28376   3.414   6.871   8.253
 7074POPC   C3B28377   3.408   6.880   7.953
 7074POPC   C4B28378   3.441   6.892   7.653
 7075POPC   NC328379   8.176  15.993   9.453
 7075POPC   PO428380   8.160  15.948   9.153
 7075POPC   GL128381   8.153  15.927   8.853
 7075POPC   GL228382   8.099  15.830   8.853
 7075POPC   C1A28383   8.232  16.001   8.553
 7075POPC   D2A28384   8.198  15.968   8.253
 7075POPC   C3A28385   8.196  15.941   7.953
 7075POPC   C4A28386   8.177  15.964   7.653
 7075POPC   C1B28387   8.026  15.746   8.553
 7075POPC   C2B28388   8.061  15.769   8.253
 7075POPC   C3B28389   8.025  15.738   7.953
 7075POPC   C4B28390   8.075  15.814   7.653
 7076POPC   NC328391   6.616  29.122   9.453
 7076POPC   PO428392   6.613  29.135   9.153
 7076POPC   GL128393   6.628  29.098   8.853
 7076POPC   GL228394   6.701  29.212   8.853
 7076POPC   C1A28395   6.613  29.190   8.553
 7076POPC   D2A28396   6.646  29.102   8.253
 7076POPC   C3A28397   6.613  29.129   7.953
 7076POPC   C4A28398   6.632  29.194   7.653
 7076POPC   C1B28399   6.863  29.294   8.553
 7076POPC   C2B28400   6.818  29.267   8.253
 7076POPC   C3B28401   6.824  29.265   7.953
 7076POPC   C4B28402   6.875  29.304   7.653
 7077POPC   NC328403  43.128  22.135   9.453
 7077POPC   PO428404  43.077  22.185   9.153
 7077POPC   GL128405  43.150  22.153   8.853
 7077POPC   GL228406  43.092  22.222   8.853
 7077POPC   C1A28407  43.132  22.165   8.553
 7077POPC   D2A28408  43.106  22.188   8.253
 7077POPC   C3A28409  43.159  22.113   7.953
 7077POPC   C4A28410  43.064  22.177   7.653
 7077POPC   C1B28411  43.006  22.406   8.553
 7077POPC   C2B28412  42.940  22.384   8.253
 7077POPC   C3B28413  43.018  22.361   7.953
 7077POPC   C4B28414  43.017  22.387   7.653
 7078POPC   NC328415   6.607  43.922   9.453
 7078POPC   PO428416   6.642  43.874   9.153
 7078POPC   GL128417   6.634  43.905   8.853
 7078POPC   GL228418   6.578  43.996   8.853
 7078POPC   C1A28419   6.604  43.844   8.553
 7078POPC   D2A28420   6.600  43.846   8.253
 7078POPC   C3A28421   6.666  43.915   7.953
 7078POPC   C4A28422   6.687  43.886   7.653
 7078POPC   C1B28423   6.555  44.130   8.553
 7078POPC   C2B28424   6.484  44.079   8.253
 7078POPC   C3B28425   6.559  44.059   7.953
 7078POPC   C4B28426   6.545  44.072   7.653
 7079POPC   NC328427  25.219  11.311   9.453
 7079POPC   PO428428  25.290  11.271   9.153
 7079POPC   GL128429  25.310  11.298   8.853
 7079POPC   GL228430  25.350  11.454   8.853
 7079POPC   C1A28431  25.277  11.255   8.553
 7079POPC   D2A28432  25.289  11.282   8.253
 7079POPC   C3A28433  25.314  11.307   7.953
 7079POPC   C4A28434  25.263  11.273   7.653
 7079POPC   C1B28435  25.377  11.565   8.553
 7079POPC   C2B28436  25.373  11.542   8.253
 7079POPC   C3B28437  25.327  11.500   7.953
 7079POPC   C4B28438  25.384  11.536   7.653
 7080POPC   NC328439  19.848  40.015   9.453
 7080POPC   PO428440  19.826  40.043   9.153
 7080POPC   GL128441  19.880  40.012   8.853
 7080POPC   GL228442  19.923  39.955   8.853
 7080POPC   C1A28443  19.849  39.964   8.553
 7080POPC   D2A28444  19.868  40.011   8.253
 7080POPC   C3A28445  19.857  39.984   7.953
 7080POPC   C4A28446  19.814  40.009   7.653
 7080POPC   C1B28447  20.001  39.833   8.553
 7080POPC   C2B28448  20.017  39.790   8.253
 7080POPC   C3B28449  19.979  39.824   7.953
 7080POPC   C4B28450  20.008  39.776   7.653
 7081POPC   NC328451  21.356  22.896   9.453
 7081POPC   PO428452  21.339  22.889   9.153
 7081POPC   GL128453  21.425  22.905   8.853
 7081POPC   GL228454  21.446  22.846   8.853
 7081POPC   C1A28455  21.375  22.912   8.553
 7081POPC   D2A28456  21.343  22.936   8.253
 7081POPC   C3A28457  21.374  22.898   7.953
 7081POPC   C4A28458  21.417  22.977   7.653
 7081POPC   C1B28459  21.531  22.691   8.553
 7081POPC   C2B28460  21.495  22.677   8.253
 7081POPC   C3B28461  21.462  22.665   7.953
 7081POPC   C4B28462  21.502  22.741   7.653
 7082POPC   NC328463  28.336  23.698   9.453
 7082POPC   PO428464  28.344  23.744   9.153
 7082POPC   GL128465  28.332  23.715   8.853
 7082POPC   GL228466  28.216  23.718   8.853
 7082POPC   C1A28467  28.388  23.687   8.553
 7082POPC   D2A28468  28.332  23.732   8.253
 7082POPC   C3A28469  28.337  23.723   7.953
 7082POPC   C4A28470  28.321  23.692   7.653
 7082POPC   C1B28471  28.115  23.767   8.553
 7082POPC   C2B28472  28.106  23.773   8.253
 7082POPC   C3B28473  28.100  23.700   7.953
 7082POPC   C4B28474  28.141  23.728   7.653
 7083POPC   NC328475  29.190  25.287   9.453
 7083POPC   PO428476  29.101  25.292   9.153
 7083POPC   GL128477  29.173  25.226   8.853
 7083POPC   GL228478  29.280  25.234   8.853
 7083POPC   C1A28479  29.179  25.276   8.553
 7083POPC   D2A28480  29.187  25.240   8.253
 7083POPC   C3A28481  29.173  25.245   7.953
 7083POPC   C4A28482  29.149  25.285   7.653
 7083POPC   C1B28483  29.380  25.131   8.553
 7083POPC   C2B28484  29.347  25.181   8.253
 7083POPC   C3B28485  29.352  25.187   7.953
 7083POPC   C4B28486  29.339  25.194   7.653
 7084POPC   NC328487  36.870  13.622   9.453
 7084POPC   PO428488  36.934  13.675   9.153
 7084POPC   GL128489  36.867  13.631   8.853
 7084POPC   GL228490  36.953  13.727   8.853
 7084POPC   C1A28491  36.900  13.596   8.553
 7084POPC   D2A28492  36.881  13.636   8.253
 7084POPC   C3A28493  36.896  13.584   7.953
 7084POPC   C4A28494  36.898  13.625   7.653
 7084POPC   C1B28495  36.945  13.905   8.553
 7084POPC   C2B28496  36.939  13.825   8.253
 7084POPC   C3B28497  36.978  13.919   7.953
 7084POPC   C4B28498  36.954  13.842   7.653
 7085POPC   NC328499  20.654  25.293   9.453
 7085POPC   PO428500  20.579  25.303   9.153
 7085POPC   GL128501  20.609  25.285   8.853
 7085POPC   GL228502  20.530  25.264   8.853
 7085POPC   C1A28503  20.615  25.233   8.553
 7085POPC   D2A28504  20.632  25.228   8.253
 7085POPC   C3A28505  20.659  25.314   7.953
 7085POPC   C4A28506  20.565  25.249   7.653
 7085POPC   C1B28507  20.407  25.286   8.553
 7085POPC   C2B28508  20.321  25.305   8.253
 7085POPC   C3B28509  20.395  25.345   7.953
 7085POPC   C4B28510  20.318  25.285   7.653
 7086POPC   NC328511  22.978  33.035   9.453
 7086POPC   PO428512  22.911  33.042   9.153
 7086POPC   GL128513  22.899  33.021   8.853
 7086POPC   GL228514  22.882  32.995   8.853
 7086POPC   C1A28515  22.953  33.005   8.553
 7086POPC   D2A28516  22.959  33.006   8.253
 7086POPC   C3A28517  22.939  32.977   7.953
 7086POPC   C4A28518  22.956  33.035   7.653
 7086POPC   C1B28519  22.736  32.932   8.553
 7086POPC   C2B28520  22.759  32.903   8.253
 7086POPC   C3B28521  22.745  32.876   7.953
 7086POPC   C4B28522  22.775  32.932   7.653
 7087POPC   NC328523  26.792  30.727   9.453
 7087POPC   PO428524  26.791  30.687   9.153
 7087POPC   GL128525  26.832  30.736   8.853
 7087POPC   GL228526  26.939  30.698   8.853
 7087POPC   C1A28527  26.848  30.733   8.553
 7087POPC   D2A28528  26.805  30.685   8.253
 7087POPC   C3A28529  26.825  30.694   7.953
 7087POPC   C4A28530  26.794  30.732   7.653
 7087POPC   C1B28531  27.018  30.729   8.553
 7087POPC   C2B28532  27.057  30.743   8.253
 7087POPC   C3B28533  27.061  30.823   7.953
 7087POPC   C4B28534  27.007  30.760   7.653
 7088POPC   NC328535   1.999   2.791   9.453
 7088POPC   PO428536   1.996   2.810   9.153
 7088POPC   GL128537   2.010   2.758   8.853
 7088POPC   GL228538   1.833   2.706   8.853
 7088POPC   C1A28539   2.008   2.801   8.553
 7088POPC   D2A28540   2.007   2.799   8.253
 7088POPC   C3A28541   1.953   2.740   7.953
 7088POPC   C4A28542   1.968   2.736   7.653
 7088POPC   C1B28543   1.742   2.670   8.553
 7088POPC   C2B28544   1.749   2.660   8.253
 7088POPC   C3B28545   1.802   2.639   7.953
 7088POPC   C4B28546   1.775   2.676   7.653
 7089POPC   NC328547  19.824  19.021   9.453
 7089POPC   PO428548  19.858  19.022   9.153
 7089POPC   GL128549  19.874  19.063   8.853
 7089POPC   GL228550  19.925  19.113   8.853
 7089POPC   C1A28551  19.882  19.087   8.553
 7089POPC   D2A28552  19.823  19.034   8.253
 7089POPC   C3A28553  19.858  19.033   7.953
 7089POPC   C4A28554  19.881  19.065   7.653
 7089POPC   C1B28555  20.030  19.191   8.553
 7089POPC   C2B28556  20.025  19.200   8.253
 7089POPC   C3B28557  19.989  19.193   7.953
 7089POPC   C4B28558  20.015  19.204   7.653
 7090POPC   NC328559  37.631  35.368   9.453
 7090POPC   PO428560  37.705  35.367   9.153
 7090POPC   GL128561  37.710  35.306   8.853
 7090POPC   GL228562  37.736  35.442   8.853
 7090POPC   C1A28563  37.687  35.356   8.553
 7090POPC   D2A28564  37.652  35.388   8.253
 7090POPC   C3A28565  37.707  35.314   7.953
 7090POPC   C4A28566  37.642  35.316   7.653
 7090POPC   C1B28567  37.885  35.588   8.553
 7090POPC   C2B28568  37.808  35.527   8.253
 7090POPC   C3B28569  37.865  35.529   7.953
 7090POPC   C4B28570  37.794  35.508   7.653
 7091POPC   NC328571  43.076  33.009   9.453
 7091POPC   PO428572  43.153  33.023   9.153
 7091POPC   GL128573  43.126  33.013   8.853
 7091POPC   GL228574  43.024  32.991   8.853
 7091POPC   C1A28575  43.117  33.073   8.553
 7091POPC   D2A28576  43.159  33.039   8.253
 7091POPC   C3A28577  43.118  33.008   7.953
 7091POPC   C4A28578  43.107  32.976   7.653
 7091POPC   C1B28579  42.911  33.006   8.553
 7091POPC   C2B28580  42.849  33.014   8.253
 7091POPC   C3B28581  42.847  33.014   7.953
 7091POPC   C4B28582  42.850  33.015   7.653
 7092POPC   NC328583  15.938  42.341   9.453
 7092POPC   PO428584  15.927  42.368   9.153
 7092POPC   GL128585  15.955  42.298   8.853
 7092POPC   GL228586  15.967  42.453   8.853
 7092POPC   C1A28587  15.982  42.288   8.553
 7092POPC   D2A28588  15.999  42.376   8.253
 7092POPC   C3A28589  15.947  42.307   7.953
 7092POPC   C4A28590  16.001  42.328   7.653
 7092POPC   C1B28591  16.049  42.554   8.553
 7092POPC   C2B28592  16.101  42.571   8.253
 7092POPC   C3B28593  16.107  42.524   7.953
 7092POPC   C4B28594  16.066  42.590   7.653
 7093POPC   NC328595  33.834  40.043   9.453
 7093POPC   PO428596  33.823  40.015   9.153
 7093POPC   GL128597  33.787  40.047   8.853
 7093POPC   GL228598  33.928  39.980   8.853
 7093POPC   C1A28599  33.767  39.965   8.553
 7093POPC   D2A28600  33.843  40.018   8.253
 7093POPC   C3A28601  33.776  40.014   7.953
 7093POPC   C4A28602  33.811  40.002   7.653
 7093POPC   C1B28603  33.999  39.958   8.553
 7093POPC   C2B28604  34.090  40.003   8.253
 7093POPC   C3B28605  34.042  40.008   7.953
 7093POPC   C4B28606  34.081  39.960   7.653
 7094POPC   NC328607  36.869   3.497   9.453
 7094POPC   PO428608  36.928   3.566   9.153
 7094POPC   GL128609  36.917   3.519   8.853
 7094POPC   GL228610  37.069   3.553   8.853
 7094POPC   C1A28611  36.895   3.496   8.553
 7094POPC   D2A28612  36.949   3.518   8.253
 7094POPC   C3A28613  36.922   3.565   7.953
 7094POPC   C4A28614  36.894   3.531   7.653
 7094POPC   C1B28615  37.161   3.604   8.553
 7094POPC   C2B28616  37.109   3.552   8.253
 7094POPC   C3B28617  37.118   3.605   7.953
 7094POPC   C4B28618  37.143   3.617   7.653
 7095POPC   NC328619  31.501   9.744   9.453
 7095POPC   PO428620  31.436   9.788   9.153
 7095POPC   GL128621  31.504   9.742   8.853
 7095POPC   GL228622  31.558   9.673   8.853
 7095POPC   C1A28623  31.434   9.787   8.553
 7095POPC   D2A28624  31.447   9.787   8.253
 7095POPC   C3A28625  31.475   9.712   7.953
 7095POPC   C4A28626  31.518   9.765   7.653
 7095POPC   C1B28627  31.759   9.742   8.553
 7095POPC   C2B28628  31.725   9.719   8.253
 7095POPC   C3B28629  31.678   9.701   7.953
 7095POPC   C4B28630  31.677   9.744   7.653
 7096POPC   NC328631  29.901   2.767   9.453
 7096POPC   PO428632  29.892   2.752   9.153
 7096POPC   GL128633  29.923   2.792   8.853
 7096POPC   GL228634  29.822   2.833   8.853
 7096POPC   C1A28635  29.929   2.809   8.553
 7096POPC   D2A28636  29.941   2.790   8.253
 7096POPC   C3A28637  29.911   2.734   7.953
 7096POPC   C4A28638  29.906   2.783   7.653
 7096POPC   C1B28639  29.744   2.930   8.553
 7096POPC   C2B28640  29.734   3.005   8.253
 7096POPC   C3B28641  29.749   2.914   7.953
 7096POPC   C4B28642  29.769   2.934   7.653
 7097POPC   NC328643   3.552   2.011   9.453
 7097POPC   PO428644   3.521   1.941   9.153
 7097POPC   GL128645   3.521   1.961   8.853
 7097POPC   GL228646   3.584   1.833   8.853
 7097POPC   C1A28647   3.500   1.955   8.553
 7097POPC   D2A28648   3.501   2.039   8.253
 7097POPC   C3A28649   3.522   2.034   7.953
 7097POPC   C4A28650   3.561   1.992   7.653
 7097POPC   C1B28651   3.705   1.788   8.553
 7097POPC   C2B28652   3.641   1.792   8.253
 7097POPC   C3B28653   3.689   1.776   7.953
 7097POPC   C4B28654   3.643   1.729   7.653
 7098POPC   NC328655   5.873  35.361   9.453
 7098POPC   PO428656   5.828  35.338   9.153
 7098POPC   GL128657   5.855  35.329   8.853
 7098POPC   GL228658   5.714  35.353   8.853
 7098POPC   C1A28659   5.847  35.364   8.553
 7098POPC   D2A28660   5.884  35.345   8.253
 7098POPC   C3A28661   5.912  35.342   7.953
 7098POPC   C4A28662   5.837  35.387   7.653
 7098POPC   C1B28663   5.636  35.430   8.553
 7098POPC   C2B28664   5.649  35.355   8.253
 7098POPC   C3B28665   5.584  35.369   7.953
 7098POPC   C4B28666   5.601  35.413   7.653
 7099POPC   NC328667  21.381  43.867   9.453
 7099POPC   PO428668  21.426  43.838   9.153
 7099POPC   GL128669  21.368  43.902   8.853
 7099POPC   GL228670  21.457  43.729   8.853
 7099POPC   C1A28671  21.424  43.886   8.553
 7099POPC   D2A28672  21.377  43.892   8.253
 7099POPC   C3A28673  21.409  43.913   7.953
 7099POPC   C4A28674  21.401  43.855   7.653
 7099POPC   C1B28675  21.459  43.703   8.553
 7099POPC   C2B28676  21.447  43.682   8.253
 7099POPC   C3B28677  21.462  43.667   7.953
 7099POPC   C4B28678  21.437  43.653   7.653
 7100POPC   NC328679  34.610  36.115   9.453
 7100POPC   PO428680  34.567  36.090   9.153
 7100POPC   GL128681  34.535  36.130   8.853
 7100POPC   GL228682  34.553  36.201   8.853
 7100POPC   C1A28683  34.617  36.120   8.553
 7100POPC   D2A28684  34.555  36.177   8.253
 7100POPC   C3A28685  34.580  36.149   7.953
 7100POPC   C4A28686  34.564  36.133   7.653
 7100POPC   C1B28687  34.626  36.350   8.553
 7100POPC   C2B28688  34.630  36.409   8.253
 7100POPC   C3B28689  34.640  36.398   7.953
 7100POPC   C4B28690  34.587  36.353   7.653
 7101POPC   NC328691  29.111  15.159   9.453
 7101POPC   PO428692  29.191  15.146   9.153
 7101POPC   GL128693  29.175  15.220   8.853
 7101POPC   GL228694  29.039  15.252   8.853
 7101POPC   C1A28695  29.174  15.161   8.553
 7101POPC   D2A28696  29.189  15.152   8.253
 7101POPC   C3A28697  29.102  15.224   7.953
 7101POPC   C4A28698  29.096  15.183   7.653
 7101POPC   C1B28699  28.918  15.261   8.553
 7101POPC   C2B28700  28.908  15.274   8.253
 7101POPC   C3B28701  28.855  15.289   7.953
 7101POPC   C4B28702  28.944  15.193   7.653
 7102POPC   NC328703  26.804  31.424   9.453
 7102POPC   PO428704  26.821  31.476   9.153
 7102POPC   GL128705  26.828  31.500   8.853
 7102POPC   GL228706  26.762  31.358   8.853
 7102POPC   C1A28707  26.773  31.481   8.553
 7102POPC   D2A28708  26.824  31.483   8.253
 7102POPC   C3A28709  26.813  31.483   7.953
 7102POPC   C4A28710  26.791  31.443   7.653
 7102POPC   C1B28711  26.639  31.260   8.553
 7102POPC   C2B28712  26.628  31.300   8.253
 7102POPC   C3B28713  26.653  31.254   7.953
 7102POPC   C4B28714  26.627  31.321   7.653
 7103POPC   NC328715   8.951  22.927   9.453
 7103POPC   PO428716   9.020  22.950   9.153
 7103POPC   GL128717   8.965  22.921   8.853
 7103POPC   GL228718   8.937  23.038   8.853
 7103POPC   C1A28719   8.959  22.908   8.553
 7103POPC   D2A28720   8.931  22.890   8.253
 7103POPC   C3A28721   8.951  22.988   7.953
 7103POPC   C4A28722   8.962  22.916   7.653
 7103POPC   C1B28723   8.868  23.153   8.553
 7103POPC   C2B28724   8.834  23.156   8.253
 7103POPC   C3B28725   8.792  23.128   7.953
 7103POPC   C4B28726   8.850  23.111   7.653
 7104POPC   NC328727  23.668  32.275   9.453
 7104POPC   PO428728  23.695  32.296   9.153
 7104POPC   GL128729  23.699  32.294   8.853
 7104POPC   GL228730  23.728  32.136   8.853
 7104POPC   C1A28731  23.734  32.291   8.553
 7104POPC   D2A28732  23.723  32.268   8.253
 7104POPC   C3A28733  23.726  32.287   7.953
 7104POPC   C4A28734  23.734  32.242   7.653
 7104POPC   C1B28735  23.692  31.995   8.553
 7104POPC   C2B28736  23.683  31.968   8.253
 7104POPC   C3B28737  23.709  31.996   7.953
 7104POPC   C4B28738  23.671  31.994   7.653
 7105POPC   NC328739  34.560  22.913   9.453
 7105POPC   PO428740  34.613  22.972   9.153
 7105POPC   GL128741  34.566  22.931   8.853
 7105POPC   GL228742  34.451  22.886   8.853
 7105POPC   C1A28743  34.595  22.904   8.553
 7105POPC   D2A28744  34.591  22.951   8.253
 7105POPC   C3A28745  34.548  22.954   7.953
 7105POPC   C4A28746  34.615  22.986   7.653
 7105POPC   C1B28747  34.363  22.832   8.553
 7105POPC   C2B28748  34.305  22.852   8.253
 7105POPC   C3B28749  34.327  22.867   7.953
 7105POPC   C4B28750  34.321  22.899   7.653
 7106POPC   NC328751   3.544  41.605   9.453
 7106POPC   PO428752   3.508  41.567   9.153
 7106POPC   GL128753   3.556  41.516   8.853
 7106POPC   GL228754   3.475  41.450   8.853
 7106POPC   C1A28755   3.510  41.576   8.553
 7106POPC   D2A28756   3.507  41.526   8.253
 7106POPC   C3A28757   3.587  41.607   7.953
 7106POPC   C4A28758   3.506  41.589   7.653
 7106POPC   C1B28759   3.294  41.419   8.553
 7106POPC   C2B28760   3.309  41.362   8.253
 7106POPC   C3B28761   3.326  41.421   7.953
 7106POPC   C4B28762   3.343  41.442   7.653
 7107POPC   NC328763  26.076  17.489   9.453
 7107POPC   PO428764  26.037  17.554   9.153
 7107POPC   GL128765  26.054  17.460   8.853
 7107POPC   GL228766  26.014  17.650   8.853
 7107POPC   C1A28767  25.999  17.481   8.553
 7107POPC   D2A28768  26.018  17.502   8.253
 7107POPC   C3A28769  26.086  17.501   7.953
 7107POPC   C4A28770  26.054  17.474   7.653
 7107POPC   C1B28771  25.921  17.777   8.553
 7107POPC   C2B28772  25.947  17.751   8.253
 7107POPC   C3B28773  25.920  17.712   7.953
 7107POPC   C4B28774  25.897  17.780   7.653
 7108POPC   NC328775   9.729  37.722   9.453
 7108POPC   PO428776   9.752  37.685   9.153
 7108POPC   GL128777   9.723  37.671   8.853
 7108POPC   GL228778   9.780  37.789   8.853
 7108POPC   C1A28779   9.701  37.634   8.553
 7108POPC   D2A28780   9.769  37.692   8.253
 7108POPC   C3A28781   9.740  37.631   7.953
 7108POPC   C4A28782   9.788  37.676   7.653
 7108POPC   C1B28783   9.696  37.927   8.553
 7108POPC   C2B28784   9.732  37.914   8.253
 7108POPC   C3B28785   9.753  37.883   7.953
 7108POPC   C4B28786   9.719  37.936   7.653
 7109POPC   NC328787  10.503  29.114   9.453
 7109POPC   PO428788  10.497  29.150   9.153
 7109POPC   GL128789  10.521  29.172   8.853
 7109POPC   GL228790  10.582  29.040   8.853
 7109POPC   C1A28791  10.478  29.193   8.553
 7109POPC   D2A28792  10.534  29.139   8.253
 7109POPC   C3A28793  10.551  29.099   7.953
 7109POPC   C4A28794  10.528  29.126   7.653
 7109POPC   C1B28795  10.537  28.904   8.553
 7109POPC   C2B28796  10.574  28.892   8.253
 7109POPC   C3B28797  10.554  28.892   7.953
 7109POPC   C4B28798  10.517  28.855   7.653
 7110POPC   NC328799   4.328  32.230   9.453
 7110POPC   PO428800   4.330  32.243   9.153
 7110POPC   GL128801   4.325  32.248   8.853
 7110POPC   GL228802   4.308  32.083   8.853
 7110POPC   C1A28803   4.309  32.269   8.553
 7110POPC   D2A28804   4.357  32.268   8.253
 7110POPC   C3A28805   4.320  32.222   7.953
 7110POPC   C4A28806   4.349  32.235   7.653
 7110POPC   C1B28807   4.231  32.006   8.553
 7110POPC   C2B28808   4.274  32.043   8.253
 7110POPC   C3B28809   4.247  32.046   7.953
 7110POPC   C4B28810   4.252  32.019   7.653
 7111POPC   NC328811  39.267  28.380   9.453
 7111POPC   PO428812  39.212  28.394   9.153
 7111POPC   GL128813  39.186  28.408   8.853
 7111POPC   GL228814  39.384  28.423   8.853
 7111POPC   C1A28815  39.186  28.342   8.553
 7111POPC   D2A28816  39.253  28.410   8.253
 7111POPC   C3A28817  39.276  28.397   7.953
 7111POPC   C4A28818  39.213  28.403   7.653
 7111POPC   C1B28819  39.480  28.448   8.553
 7111POPC   C2B28820  39.508  28.373   8.253
 7111POPC   C3B28821  39.497  28.390   7.953
 7111POPC   C4B28822  39.454  28.436   7.653
 7112POPC   NC328823   5.136  11.339   9.453
 7112POPC   PO428824   5.107  11.326   9.153
 7112POPC   GL128825   5.094  11.288   8.853
 7112POPC   GL228826   5.033  11.349   8.853
 7112POPC   C1A28827   5.059  11.341   8.553
 7112POPC   D2A28828   5.114  11.266   8.253
 7112POPC   C3A28829   5.142  11.349   7.953
 7112POPC   C4A28830   5.120  11.284   7.653
 7112POPC   C1B28831   4.870  11.477   8.553
 7112POPC   C2B28832   4.863  11.481   8.253
 7112POPC   C3B28833   4.831  11.439   7.953
 7112POPC   C4B28834   4.929  11.401   7.653
 7113POPC   NC328835  32.250  10.489   9.453
 7113POPC   PO428836  32.296  10.563   9.153
 7113POPC   GL128837  32.281  10.541   8.853
 7113POPC   GL228838  32.213  10.639   8.853
 7113POPC   C1A28839  32.218  10.493   8.553
 7113POPC   D2A28840  32.240  10.545   8.253
 7113POPC   C3A28841  32.292  10.475   7.953
 7113POPC   C4A28842  32.237  10.499   7.653
 7113POPC   C1B28843  32.250  10.734   8.553
 7113POPC   C2B28844  32.202  10.747   8.253
 7113POPC   C3B28845  32.230  10.805   7.953
 7113POPC   C4B28846  32.203  10.794   7.653
 7114POPC   NC328847  34.547   1.166   9.453
 7114POPC   PO428848  34.600   1.218   9.153
 7114POPC   GL128849  34.567   1.175   8.853
 7114POPC   GL228850  34.485   1.270   8.853
 7114POPC   C1A28851  34.601   1.207   8.553
 7114POPC   D2A28852  34.533   1.260   8.253
 7114POPC   C3A28853  34.573   1.178   7.953
 7114POPC   C4A28854  34.604   1.186   7.653
 7114POPC   C1B28855  34.314   1.317   8.553
 7114POPC   C2B28856  34.387   1.325   8.253
 7114POPC   C3B28857  34.316   1.312   7.953
 7114POPC   C4B28858  34.338   1.283   7.653
 7115POPC   NC328859  27.562  28.410   9.453
 7115POPC   PO428860  27.631  28.359   9.153
 7115POPC   GL128861  27.552  28.389   8.853
 7115POPC   GL228862  27.697  28.409   8.853
 7115POPC   C1A28863  27.574  28.321   8.553
 7115POPC   D2A28864  27.555  28.418   8.253
 7115POPC   C3A28865  27.614  28.409   7.953
 7115POPC   C4A28866  27.550  28.335   7.653
 7115POPC   C1B28867  27.849  28.449   8.553
 7115POPC   C2B28868  27.842  28.450   8.253
 7115POPC   C3B28869  27.808  28.447   7.953
 7115POPC   C4B28870  27.878  28.391   7.653
 7116POPC   NC328871  33.770  10.508   9.453
 7116POPC   PO428872  33.779  10.484   9.153
 7116POPC   GL128873  33.780  10.490   8.853
 7116POPC   GL228874  33.766  10.393   8.853
 7116POPC   C1A28875  33.797  10.477   8.553
 7116POPC   D2A28876  33.808  10.549   8.253
 7116POPC   C3A28877  33.756  10.519   7.953
 7116POPC   C4A28878  33.774  10.519   7.653
 7116POPC   C1B28879  33.686  10.322   8.553
 7116POPC   C2B28880  33.693  10.298   8.253
 7116POPC   C3B28881  33.758  10.327   7.953
 7116POPC   C4B28882  33.683  10.256   7.653
 7117POPC   NC328883  12.090  25.280   9.453
 7117POPC   PO428884  12.113  25.255   9.153
 7117POPC   GL128885  12.073  25.251   8.853
 7117POPC   GL228886  12.192  25.315   8.853
 7117POPC   C1A28887  12.039  25.310   8.553
 7117POPC   D2A28888  12.072  25.262   8.253
 7117POPC   C3A28889  12.108  25.226   7.953
 7117POPC   C4A28890  12.041  25.287   7.653
 7117POPC   C1B28891  12.206  25.455   8.553
 7117POPC   C2B28892  12.185  25.476   8.253
 7117POPC   C3B28893  12.250  25.471   7.953
 7117POPC   C4B28894  12.221  25.410   7.653
 7118POPC   NC328895  37.633  26.851   9.453
 7118POPC   PO428896  37.646  26.838   9.153
 7118POPC   GL128897  37.656  26.802   8.853
 7118POPC   GL228898  37.711  26.870   8.853
 7118POPC   C1A28899  37.701  26.856   8.553
 7118POPC   D2A28900  37.713  26.799   8.253
 7118POPC   C3A28901  37.648  26.799   7.953
 7118POPC   C4A28902  37.681  26.813   7.653
 7118POPC   C1B28903  37.805  26.981   8.553
 7118POPC   C2B28904  37.877  27.030   8.253
 7118POPC   C3B28905  37.800  27.023   7.953
 7118POPC   C4B28906  37.853  27.044   7.653
 7119POPC   NC328907  30.735  33.795   9.453
 7119POPC   PO428908  30.670  33.768   9.153
 7119POPC   GL128909  30.731  33.807   8.853
 7119POPC   GL228910  30.760  33.904   8.853
 7119POPC   C1A28911  30.746  33.751   8.553
 7119POPC   D2A28912  30.661  33.828   8.253
 7119POPC   C3A28913  30.665  33.815   7.953
 7119POPC   C4A28914  30.724  33.819   7.653
 7119POPC   C1B28915  30.894  33.982   8.553
 7119POPC   C2B28916  30.919  33.950   8.253
 7119POPC   C3B28917  30.865  33.973   7.953
 7119POPC   C4B28918  30.898  33.965   7.653
 7120POPC   NC328919  39.992  20.563   9.453
 7120POPC   PO428920  40.013  20.622   9.153
 7120POPC   GL128921  40.001  20.629   8.853
 7120POPC   GL228922  40.136  20.507   8.853
 7120POPC   C1A28923  40.022  20.660   8.553
 7120POPC   D2A28924  39.997  20.608   8.253
 7120POPC   C3A28925  40.000  20.654   7.953
 7120POPC   C4A28926  40.050  20.649   7.653
 7120POPC   C1B28927  40.225  20.388   8.553
 7120POPC   C2B28928  40.163  20.431   8.253
 7120POPC   C3B28929  40.175  20.444   7.953
 7120POPC   C4B28930  40.149  20.419   7.653
 7121POPC   NC328931  11.324  12.118   9.453
 7121POPC   PO428932  11.265  12.109   9.153
 7121POPC   GL128933  11.283  12.042   8.853
 7121POPC   GL228934  11.251  11.920   8.853
 7121POPC   C1A28935  11.288  12.116   8.553
 7121POPC   D2A28936  11.252  12.056   8.253
 7121POPC   C3A28937  11.278  12.109   7.953
 7121POPC   C4A28938  11.253  12.098   7.653
 7121POPC   C1B28939  11.220  11.814   8.553
 7121POPC   C2B28940  11.269  11.869   8.253
 7121POPC   C3B28941  11.187  11.816   7.953
 7121POPC   C4B28942  11.195  11.866   7.653
 7122POPC   NC328943  15.193  19.878   9.453
 7122POPC   PO428944  15.158  19.868   9.153
 7122POPC   GL128945  15.225  19.842   8.853
 7122POPC   GL228946  15.192  19.719   8.853
 7122POPC   C1A28947  15.135  19.809   8.553
 7122POPC   D2A28948  15.165  19.789   8.253
 7122POPC   C3A28949  15.181  19.845   7.953
 7122POPC   C4A28950  15.219  19.786   7.653
 7122POPC   C1B28951  15.282  19.628   8.553
 7122POPC   C2B28952  15.211  19.574   8.253
 7122POPC   C3B28953  15.199  19.572   7.953
 7122POPC   C4B28954  15.262  19.562   7.653
 7123POPC   NC328955   0.462  40.017   9.453
 7123POPC   PO428956   0.438  39.984   9.153
 7123POPC   GL128957   0.422  40.003   8.853
 7123POPC   GL228958   0.584  39.914   8.853
 7123POPC   C1A28959   0.400  40.012   8.553
 7123POPC   D2A28960   0.429  39.975   8.253
 7123POPC   C3A28961   0.399  40.021   7.953
 7123POPC   C4A28962   0.389  39.966   7.653
 7123POPC   C1B28963   0.628  39.862   8.553
 7123POPC   C2B28964   0.629  39.890   8.253
 7123POPC   C3B28965   0.651  39.858   7.953
 7123POPC   C4B28966   0.667  39.839   7.653
 7124POPC   NC328967  15.968  20.656   9.453
 7124POPC   PO428968  15.939  20.647   9.153
 7124POPC   GL128969  15.946  20.642   8.853
 7124POPC   GL228970  15.821  20.698   8.853
 7124POPC   C1A28971  15.975  20.651   8.553
 7124POPC   D2A28972  15.943  20.589   8.253
 7124POPC   C3A28973  15.946  20.605   7.953
 7124POPC   C4A28974  15.975  20.628   7.653
 7124POPC   C1B28975  15.814  20.811   8.553
 7124POPC   C2B28976  15.780  20.744   8.253
 7124POPC   C3B28977  15.818  20.796   7.953
 7124POPC   C4B28978  15.783  20.804   7.653
 7125POPC   NC328979   5.836  29.872   9.453
 7125POPC   PO428980   5.908  29.872   9.153
 7125POPC   GL128981   5.892  29.886   8.853
 7125POPC   GL228982   6.032  29.918   8.853
 7125POPC   C1A28983   5.902  29.905   8.553
 7125POPC   D2A28984   5.847  29.894   8.253
 7125POPC   C3A28985   5.860  29.945   7.953
 7125POPC   C4A28986   5.885  29.941   7.653
 7125POPC   C1B28987   6.130  29.889   8.553
 7125POPC   C2B28988   6.112  29.867   8.253
 7125POPC   C3B28989   6.154  29.863   7.953
 7125POPC   C4B28990   6.165  29.879   7.653
 7126POPC   NC328991  40.020   5.093   9.453
 7126POPC   PO428992  39.981   5.137   9.153
 7126POPC   GL128993  39.976   5.125   8.853
 7126POPC   GL228994  40.112   5.123   8.853
 7126POPC   C1A28995  39.973   5.111   8.553
 7126POPC   D2A28996  39.989   5.054   8.253
 7126POPC   C3A28997  39.975   5.101   7.953
 7126POPC   C4A28998  39.982   5.081   7.653
 7126POPC   C1B28999  40.213   5.256   8.553
 7126POPC   C2B29000  40.244   5.284   8.253
 7126POPC   C3B29001  40.203   5.272   7.953
 7126POPC   C4B29002  40.261   5.243   7.653
 7127POPC   NC329003   1.961  41.545   9.453
 7127POPC   PO429004   1.977  41.560   9.153
 7127POPC   GL129005   1.974  41.579   8.853
 7127POPC   GL229006   1.905  41.457   8.853
 7127POPC   C1A29007   1.994  41.560   8.553
 7127POPC   D2A29008   2.027  41.549   8.253
 7127POPC   C3A29009   1.973  41.566   7.953
 7127POPC   C4A29010   2.006  41.576   7.653
 7127POPC   C1B29011   1.844  41.336   8.553
 7127POPC   C2B29012   1.844  41.321   8.253
 7127POPC   C3B29013   1.887  41.345   7.953
 7127POPC   C4B29014   1.925  41.289   7.653
 7128POPC   NC329015  19.875  12.037   9.453
 7128POPC   PO429016  19.873  12.049   9.153
 7128POPC   GL129017  19.844  12.068   8.853
 7128POPC   GL229018  19.863  11.996   8.853
 7128POPC   C1A29019  19.843  12.103   8.553
 7128POPC   D2A29020  19.853  12.047   8.253
 7128POPC   C3A29021  19.806  12.063   7.953
 7128POPC   C4A29022  19.840  12.030   7.653
 7128POPC   C1B29023  19.928  11.854   8.553
 7128POPC   C2B29024  19.922  11.870   8.253
 7128POPC   C3B29025  19.895  11.817   7.953
 7128POPC   C4B29026  19.883  11.873   7.653
 7129POPC   NC329027  36.117  38.455   9.453
 7129POPC   PO429028  36.144  38.451   9.153
 7129POPC   GL129029  36.106  38.458   8.853
 7129POPC   GL229030  36.001  38.407   8.853
 7129POPC   C1A29031  36.162  38.419   8.553
 7129POPC   D2A29032  36.169  38.443   8.253
 7129POPC   C3A29033  36.156  38.433   7.953
 7129POPC   C4A29034  36.081  38.448   7.653
 7129POPC   C1B29035  35.914  38.408   8.553
 7129POPC   C2B29036  35.863  38.430   8.253
 7129POPC   C3B29037  35.870  38.484   7.953
 7129POPC   C4B29038  35.916  38.439   7.653
 7130POPC   NC329039  13.675  29.929   9.453
 7130POPC   PO429040  13.634  29.906   9.153
 7130POPC   GL129041  13.637  29.914   8.853
 7130POPC   GL229042  13.651  30.008   8.853
 7130POPC   C1A29043  13.637  29.888   8.553
 7130POPC   D2A29044  13.590  29.884   8.253
 7130POPC   C3A29045  13.637  29.969   7.953
 7130POPC   C4A29046  13.595  29.928   7.653
 7130POPC   C1B29047  13.644  30.187   8.553
 7130POPC   C2B29048  13.655  30.208   8.253
 7130POPC   C3B29049  13.646  30.123   7.953
 7130POPC   C4B29050  13.672  30.218   7.653
 7131POPC   NC329051  18.274  35.373   9.453
 7131POPC   PO429052  18.318  35.335   9.153
 7131POPC   GL129053  18.314  35.387   8.853
 7131POPC   GL229054  18.212  35.484   8.853
 7131POPC   C1A29055  18.249  35.352   8.553
 7131POPC   D2A29056  18.286  35.366   8.253
 7131POPC   C3A29057  18.258  35.305   7.953
 7131POPC   C4A29058  18.251  35.341   7.653
 7131POPC   C1B29059  18.142  35.551   8.553
 7131POPC   C2B29060  18.136  35.521   8.253
 7131POPC   C3B29061  18.137  35.500   7.953
 7131POPC   C4B29062  18.119  35.542   7.653
 7132POPC   NC329063  12.856   1.999   9.453
 7132POPC   PO429064  12.835   1.989   9.153
 7132POPC   GL129065  12.806   1.948   8.853
 7132POPC   GL229066  12.937   1.931   8.853
 7132POPC   C1A29067  12.811   2.006   8.553
 7132POPC   D2A29068  12.816   1.945   8.253
 7132POPC   C3A29069  12.827   1.996   7.953
 7132POPC   C4A29070  12.900   1.950   7.653
 7132POPC   C1B29071  13.070   1.960   8.553
 7132POPC   C2B29072  13.053   1.948   8.253
 7132POPC   C3B29073  13.056   1.903   7.953
 7132POPC   C4B29074  13.097   1.905   7.653
 7133POPC   NC329075  17.498   9.008   9.453
 7133POPC   PO429076  17.496   9.022   9.153
 7133POPC   GL129077  17.473   8.982   8.853
 7133POPC   GL229078  17.407   8.905   8.853
 7133POPC   C1A29079  17.486   8.941   8.553
 7133POPC   D2A29080  17.533   9.020   8.253
 7133POPC   C3A29081  17.534   9.020   7.953
 7133POPC   C4A29082  17.504   8.955   7.653
 7133POPC   C1B29083  17.416   8.728   8.553
 7133POPC   C2B29084  17.393   8.709   8.253
 7133POPC   C3B29085  17.394   8.770   7.953
 7133POPC   C4B29086  17.362   8.720   7.653
 7134POPC   NC329087  16.749  40.016   9.453
 7134POPC   PO429088  16.737  40.018   9.153
 7134POPC   GL129089  16.716  40.044   8.853
 7134POPC   GL229090  16.835  39.857   8.853
 7134POPC   C1A29091  16.759  40.005   8.553
 7134POPC   D2A29092  16.728  40.051   8.253
 7134POPC   C3A29093  16.721  40.054   7.953
 7134POPC   C4A29094  16.765  40.050   7.653
 7134POPC   C1B29095  16.894  39.786   8.553
 7134POPC   C2B29096  16.896  39.784   8.253
 7134POPC   C3B29097  16.838  39.830   7.953
 7134POPC   C4B29098  16.905  39.856   7.653
 7135POPC   NC329099   5.088  12.074   9.453
 7135POPC   PO429100   5.049  12.099   9.153
 7135POPC   GL129101   5.080  12.032   8.853
 7135POPC   GL229102   4.970  12.189   8.853
 7135POPC   C1A29103   5.088  12.084   8.553
 7135POPC   D2A29104   5.113  12.091   8.253
 7135POPC   C3A29105   5.122  12.095   7.953
 7135POPC   C4A29106   5.091  12.060   7.653
 7135POPC   C1B29107   4.896  12.229   8.553
 7135POPC   C2B29108   4.948  12.263   8.253
 7135POPC   C3B29109   4.930  12.269   7.953
 7135POPC   C4B29110   4.867  12.266   7.653
 7136POPC   NC329111  29.939  38.463   9.453
 7136POPC   PO429112  29.903  38.496   9.153
 7136POPC   GL129113  29.880  38.478   8.853
 7136POPC   GL229114  30.079  38.455   8.853
 7136POPC   C1A29115  29.953  38.476   8.553
 7136POPC   D2A29116  29.932  38.415   8.253
 7136POPC   C3A29117  29.950  38.468   7.953
 7136POPC   C4A29118  29.909  38.434   7.653
 7136POPC   C1B29119  30.138  38.428   8.553
 7136POPC   C2B29120  30.159  38.383   8.253
 7136POPC   C3B29121  30.140  38.405   7.953
 7136POPC   C4B29122  30.217  38.411   7.653
 7137POPC   NC329123   1.235  38.484   9.453
 7137POPC   PO429124   1.210  38.484   9.153
 7137POPC   GL129125   1.225  38.469   8.853
 7137POPC   GL229126   1.322  38.362   8.853
 7137POPC   C1A29127   1.201  38.407   8.553
 7137POPC   D2A29128   1.217  38.437   8.253
 7137POPC   C3A29129   1.171  38.502   7.953
 7137POPC   C4A29130   1.226  38.454   7.653
 7137POPC   C1B29131   1.447  38.305   8.553
 7137POPC   C2B29132   1.433  38.283   8.253
 7137POPC   C3B29133   1.471  38.306   7.953
 7137POPC   C4B29134   1.393  38.365   7.653
 7138POPC   NC329135   5.083  15.928   9.453
 7138POPC   PO429136   5.072  15.990   9.153
 7138POPC   GL129137   5.072  15.961   8.853
 7138POPC   GL229138   5.138  16.102   8.853
 7138POPC   C1A29139   5.114  15.947   8.553
 7138POPC   D2A29140   5.060  15.992   8.253
 7138POPC   C3A29141   5.135  15.920   7.953
 7138POPC   C4A29142   5.084  15.995   7.653
 7138POPC   C1B29143   5.156  16.179   8.553
 7138POPC   C2B29144   5.132  16.217   8.253
 7138POPC   C3B29145   5.085  16.202   7.953
 7138POPC   C4B29146   5.162  16.215   7.653
 7139POPC   NC329147  14.436   1.173   9.453
 7139POPC   PO429148  14.440   1.208   9.153
 7139POPC   GL129149  14.417   1.208   8.853
 7139POPC   GL229150  14.405   1.105   8.853
 7139POPC   C1A29151  14.443   1.205   8.553
 7139POPC   D2A29152  14.368   1.258   8.253
 7139POPC   C3A29153  14.375   1.226   7.953
 7139POPC   C4A29154  14.391   1.243   7.653
 7139POPC   C1B29155  14.344   0.980   8.553
 7139POPC   C2B29156  14.364   1.011   8.253
 7139POPC   C3B29157  14.312   1.017   7.953
 7139POPC   C4B29158  14.351   1.027   7.653
 7140POPC   NC329159   5.872   5.091   9.453
 7140POPC   PO429160   5.909   5.078   9.153
 7140POPC   GL129161   5.913   5.057   8.853
 7140POPC   GL229162   6.021   5.030   8.853
 7140POPC   C1A29163   5.906   5.086   8.553
 7140POPC   D2A29164   5.825   5.127   8.253
 7140POPC   C3A29165   5.892   5.079   7.953
 7140POPC   C4A29166   5.862   5.097   7.653
 7140POPC   C1B29167   6.102   5.056   8.553
 7140POPC   C2B29168   6.110   5.055   8.253
 7140POPC   C3B29169   6.110   4.991   7.953
 7140POPC   C4B29170   6.115   5.053   7.653
 7141POPC   NC329171  38.437  10.554   9.453
 7141POPC   PO429172  38.462  10.519   9.153
 7141POPC   GL129173  38.442  10.564   8.853
 7141POPC   GL229174  38.323  10.580   8.853
 7141POPC   C1A29175  38.411  10.545   8.553
 7141POPC   D2A29176  38.488  10.531   8.253
 7141POPC   C3A29177  38.412  10.489   7.953
 7141POPC   C4A29178  38.451  10.482   7.653
 7141POPC   C1B29179  38.226  10.604   8.553
 7141POPC   C2B29180  38.215  10.609   8.253
 7141POPC   C3B29181  38.250  10.648   7.953
 7141POPC   C4B29182  38.189  10.586   7.653
 7142POPC   NC329183  36.085  26.028   9.453
 7142POPC   PO429184  36.099  26.045   9.153
 7142POPC   GL129185  36.153  26.039   8.853
 7142POPC   GL229186  36.052  25.902   8.853
 7142POPC   C1A29187  36.109  26.068   8.553
 7142POPC   D2A29188  36.105  26.008   8.253
 7142POPC   C3A29189  36.088  26.076   7.953
 7142POPC   C4A29190  36.156  26.045   7.653
 7142POPC   C1B29191  35.987  25.870   8.553
 7142POPC   C2B29192  35.949  25.882   8.253
 7142POPC   C3B29193  35.967  25.882   7.953
 7142POPC   C4B29194  35.929  25.854   7.653
 7143POPC   NC329195  37.686  42.383   9.453
 7143POPC   PO429196  37.674  42.306   9.153
 7143POPC   GL129197  37.718  42.380   8.853
 7143POPC   GL229198  37.603  42.209   8.853
 7143POPC   C1A29199  37.639  42.356   8.553
 7143POPC   D2A29200  37.716  42.329   8.253
 7143POPC   C3A29201  37.637  42.329   7.953
 7143POPC   C4A29202  37.721  42.308   7.653
 7143POPC   C1B29203  37.560  42.111   8.553
 7143POPC   C2B29204  37.635  42.137   8.253
 7143POPC   C3B29205  37.612  42.080   7.953
 7143POPC   C4B29206  37.602  42.098   7.653
 7144POPC   NC329207  40.815  14.382   9.453
 7144POPC   PO429208  40.775  14.355   9.153
 7144POPC   GL129209  40.748  14.377   8.853
 7144POPC   GL229210  40.881  14.451   8.853
 7144POPC   C1A29211  40.796  14.357   8.553
 7144POPC   D2A29212  40.778  14.398   8.253
 7144POPC   C3A29213  40.830  14.362   7.953
 7144POPC   C4A29214  40.796  14.361   7.653
 7144POPC   C1B29215  40.995  14.526   8.553
 7144POPC   C2B29216  40.995  14.487   8.253
 7144POPC   C3B29217  40.960  14.492   7.953
 7144POPC   C4B29218  41.040  14.545   7.653
 7145POPC   NC329219   5.880  41.534   9.453
 7145POPC   PO429220   5.847  41.547   9.153
 7145POPC   GL129221   5.851  41.529   8.853
 7145POPC   GL229222   5.866  41.476   8.853
 7145POPC   C1A29223   5.913  41.536   8.553
 7145POPC   D2A29224   5.910  41.608   8.253
 7145POPC   C3A29225   5.847  41.554   7.953
 7145POPC   C4A29226   5.874  41.605   7.653
 7145POPC   C1B29227   5.834  41.355   8.553
 7145POPC   C2B29228   5.816  41.335   8.253
 7145POPC   C3B29229   5.901  41.262   7.953
 7145POPC   C4B29230   5.866  41.281   7.653
 7146POPC   NC329231   7.459   3.575   9.453
 7146POPC   PO429232   7.466   3.517   9.153
 7146POPC   GL129233   7.422   3.573   8.853
 7146POPC   GL229234   7.343   3.535   8.853
 7146POPC   C1A29235   7.421   3.535   8.553
 7146POPC   D2A29236   7.395   3.556   8.253
 7146POPC   C3A29237   7.383   3.536   7.953
 7146POPC   C4A29238   7.430   3.543   7.653
 7146POPC   C1B29239   7.198   3.473   8.553
 7146POPC   C2B29240   7.196   3.481   8.253
 7146POPC   C3B29241   7.144   3.462   7.953
 7146POPC   C4B29242   7.178   3.419   7.653
 7147POPC   NC329243  19.020  23.750   9.453
 7147POPC   PO429244  19.064  23.727   9.153
 7147POPC   GL129245  19.019  23.721   8.853
 7147POPC   GL229246  19.002  23.857   8.853
 7147POPC   C1A29247  19.010  23.717   8.553
 7147POPC   D2A29248  19.046  23.753   8.253
 7147POPC   C3A29249  19.031  23.694   7.953
 7147POPC   C4A29250  19.066  23.721   7.653
 7147POPC   C1B29251  18.940  23.964   8.553
 7147POPC   C2B29252  18.886  23.883   8.253
 7147POPC   C3B29253  18.939  23.955   7.953
 7147POPC   C4B29254  18.889  23.970   7.653
 7148POPC   NC329255  40.772  36.161   9.453
 7148POPC   PO429256  40.801  36.093   9.153
 7148POPC   GL129257  40.800  36.097   8.853
 7148POPC   GL229258  40.667  36.192   8.853
 7148POPC   C1A29259  40.754  36.120   8.553
 7148POPC   D2A29260  40.749  36.094   8.253
 7148POPC   C3A29261  40.734  36.080   7.953
 7148POPC   C4A29262  40.735  36.133   7.653
 7148POPC   C1B29263  40.502  36.151   8.553
 7148POPC   C2B29264  40.523  36.181   8.253
 7148POPC   C3B29265  40.564  36.187   7.953
 7148POPC   C4B29266  40.506  36.200   7.653
 7149POPC   NC329267  37.672  28.409   9.453
 7149POPC   PO429268  37.651  28.369   9.153
 7149POPC   GL129269  37.721  28.327   8.853
 7149POPC   GL229270  37.815  28.305   8.853
 7149POPC   C1A29271  37.668  28.367   8.553
 7149POPC   D2A29272  37.632  28.328   8.253
 7149POPC   C3A29273  37.646  28.402   7.953
 7149POPC   C4A29274  37.635  28.355   7.653
 7149POPC   C1B29275  37.849  28.214   8.553
 7149POPC   C2B29276  37.845  28.170   8.253
 7149POPC   C3B29277  37.857  28.228   7.953
 7149POPC   C4B29278  37.825  28.192   7.653
 7150POPC   NC329279  39.205  27.627   9.453
 7150POPC   PO429280  39.255  27.544   9.153
 7150POPC   GL129281  39.273  27.580   8.853
 7150POPC   GL229282  39.347  27.543   8.853
 7150POPC   C1A29283  39.251  27.619   8.553
 7150POPC   D2A29284  39.199  27.586   8.253
 7150POPC   C3A29285  39.195  27.633   7.953
 7150POPC   C4A29286  39.241  27.596   7.653
 7150POPC   C1B29287  39.443  27.556   8.553
 7150POPC   C2B29288  39.485  27.582   8.253
 7150POPC   C3B29289  39.448  27.586   7.953
 7150POPC   C4B29290  39.444  27.590   7.653
 7151POPC   NC329291  23.708  19.036   9.453
 7151POPC   PO429292  23.702  19.070   9.153
 7151POPC   GL129293  23.737  19.096   8.853
 7151POPC   GL229294  23.732  18.903   8.853
 7151POPC   C1A29295  23.712  19.026   8.553
 7151POPC   D2A29296  23.730  19.021   8.253
 7151POPC   C3A29297  23.750  19.034   7.953
 7151POPC   C4A29298  23.721  19.042   7.653
 7151POPC   C1B29299  23.811  18.838   8.553
 7151POPC   C2B29300  23.813  18.825   8.253
 7151POPC   C3B29301  23.787  18.888   7.953
 7151POPC   C4B29302  23.873  18.838   7.653
 7152POPC   NC329303  43.862  37.683   9.453
 7152POPC   PO429304  43.900  37.634   9.153
 7152POPC   GL129305  43.908  37.710   8.853
 7152POPC   GL229306  43.758  37.616   8.853
 7152POPC   C1A29307  43.907  37.635   8.553
 7152POPC   D2A29308  43.882  37.694   8.253
 7152POPC   C3A29309  43.925  37.659   7.953
 7152POPC   C4A29310  43.896  37.642   7.653
 7152POPC   C1B29311  43.722  37.559   8.553
 7152POPC   C2B29312  43.696  37.515   8.253
 7152POPC   C3B29313  43.703  37.587   7.953
 7152POPC   C4B29314  43.627  37.531   7.653
 7153POPC   NC329315  37.706  22.147   9.453
 7153POPC   PO429316  37.693  22.140   9.153
 7153POPC   GL129317  37.694  22.132   8.853
 7153POPC   GL229318  37.713  22.316   8.853
 7153POPC   C1A29319  37.644  22.148   8.553
 7153POPC   D2A29320  37.678  22.116   8.253
 7153POPC   C3A29321  37.719  22.135   7.953
 7153POPC   C4A29322  37.673  22.123   7.653
 7153POPC   C1B29323  37.757  22.417   8.553
 7153POPC   C2B29324  37.792  22.436   8.253
 7153POPC   C3B29325  37.718  22.419   7.953
 7153POPC   C4B29326  37.802  22.383   7.653
 7154POPC   NC329327   9.726  29.101   9.453
 7154POPC   PO429328   9.699  29.183   9.153
 7154POPC   GL129329   9.783  29.114   8.853
 7154POPC   GL229330   9.798  29.221   8.853
 7154POPC   C1A29331   9.755  29.135   8.553
 7154POPC   D2A29332   9.723  29.160   8.253
 7154POPC   C3A29333   9.730  29.111   7.953
 7154POPC   C4A29334   9.779  29.192   7.653
 7154POPC   C1B29335   9.856  29.373   8.553
 7154POPC   C2B29336   9.873  29.373   8.253
 7154POPC   C3B29337   9.863  29.331   7.953
 7154POPC   C4B29338   9.840  29.381   7.653
 7155POPC   NC329339  36.899  43.070   9.453
 7155POPC   PO429340  36.883  43.084   9.153
 7155POPC   GL129341  36.921  43.100   8.853
 7155POPC   GL229342  36.732  43.117   8.853
 7155POPC   C1A29343  36.890  43.133   8.553
 7155POPC   D2A29344  36.885  43.144   8.253
 7155POPC   C3A29345  36.877  43.070   7.953
 7155POPC   C4A29346  36.858  43.116   7.653
 7155POPC   C1B29347  36.616  43.129   8.553
 7155POPC   C2B29348  36.691  43.156   8.253
 7155POPC   C3B29349  36.628  43.174   7.953
 7155POPC   C4B29350  36.672  43.170   7.653
 7156POPC   NC329351  42.337  35.357   9.453
 7156POPC   PO429352  42.370  35.388   9.153
 7156POPC   GL129353  42.337  35.367   8.853
 7156POPC   GL229354  42.455  35.359   8.853
 7156POPC   C1A29355  42.343  35.381   8.553
 7156POPC   D2A29356  42.289  35.386   8.253
 7156POPC   C3A29357  42.368  35.356   7.953
 7156POPC   C4A29358  42.351  35.318   7.653
 7156POPC   C1B29359  42.570  35.349   8.553
 7156POPC   C2B29360  42.620  35.429   8.253
 7156POPC   C3B29361  42.585  35.417   7.953
 7156POPC   C4B29362  42.559  35.356   7.653
 7157POPC   NC329363  28.347  18.317   9.453
 7157POPC   PO429364  28.363  18.258   9.153
 7157POPC   GL129365  28.353  18.297   8.853
 7157POPC   GL229366  28.367  18.408   8.853
 7157POPC   C1A29367  28.402  18.320   8.553
 7157POPC   D2A29368  28.325  18.263   8.253
 7157POPC   C3A29369  28.360  18.301   7.953
 7157POPC   C4A29370  28.372  18.300   7.653
 7157POPC   C1B29371  28.374  18.541   8.553
 7157POPC   C2B29372  28.380  18.494   8.253
 7157POPC   C3B29373  28.375  18.524   7.953
 7157POPC   C4B29374  28.391  18.521   7.653
 7158POPC   NC329375  32.985  39.205   9.453
 7158POPC   PO429376  33.023  39.253   9.153
 7158POPC   GL129377  33.048  39.190   8.853
 7158POPC   GL229378  33.118  39.320   8.853
 7158POPC   C1A29379  33.000  39.191   8.553
 7158POPC   D2A29380  33.013  39.203   8.253
 7158POPC   C3A29381  33.072  39.205   7.953
 7158POPC   C4A29382  33.073  39.199   7.653
 7158POPC   C1B29383  33.183  39.373   8.553
 7158POPC   C2B29384  33.178  39.409   8.253
 7158POPC   C3B29385  33.180  39.369   7.953
 7158POPC   C4B29386  33.226  39.386   7.653
 7159POPC   NC329387  18.322  30.688   9.453
 7159POPC   PO429388  18.330  30.680   9.153
 7159POPC   GL129389  18.320  30.734   8.853
 7159POPC   GL229390  18.255  30.772   8.853
 7159POPC   C1A29391  18.314  30.718   8.553
 7159POPC   D2A29392  18.315  30.651   8.253
 7159POPC   C3A29393  18.301  30.731   7.953
 7159POPC   C4A29394  18.302  30.674   7.653
 7159POPC   C1B29395  18.212  30.929   8.553
 7159POPC   C2B29396  18.166  30.873   8.253
 7159POPC   C3B29397  18.197  30.886   7.953
 7159POPC   C4B29398  18.194  30.899   7.653
 7160POPC   NC329399   9.778  22.187   9.453
 7160POPC   PO429400   9.772  22.180   9.153
 7160POPC   GL129401   9.702  22.195   8.853
 7160POPC   GL229402   9.731  22.336   8.853
 7160POPC   C1A29403   9.760  22.125   8.553
 7160POPC   D2A29404   9.755  22.143   8.253
 7160POPC   C3A29405   9.767  22.164   7.953
 7160POPC   C4A29406   9.745  22.117   7.653
 7160POPC   C1B29407   9.736  22.398   8.553
 7160POPC   C2B29408   9.707  22.449   8.253
 7160POPC   C3B29409   9.771  22.374   7.953
 7160POPC   C4B29410   9.789  22.438   7.653
 7161POPC   NC329411  25.253  31.489   9.453
 7161POPC   PO429412  25.220  31.507   9.153
 7161POPC   GL129413  25.311  31.521   8.853
 7161POPC   GL229414  25.375  31.567   8.853
 7161POPC   C1A29415  25.268  31.439   8.553
 7161POPC   D2A29416  25.235  31.435   8.253
 7161POPC   C3A29417  25.281  31.448   7.953
 7161POPC   C4A29418  25.290  31.430   7.653
 7161POPC   C1B29419  25.442  31.610   8.553
 7161POPC   C2B29420  25.418  31.676   8.253
 7161POPC   C3B29421  25.471  31.627   7.953
 7161POPC   C4B29422  25.487  31.649   7.653
 7162POPC   NC329423  14.403  32.282   9.453
 7162POPC   PO429424  14.420  32.269   9.153
 7162POPC   GL129425  14.380  32.265   8.853
 7162POPC   GL229426  14.320  32.143   8.853
 7162POPC   C1A29427  14.409  32.220   8.553
 7162POPC   D2A29428  14.414  32.257   8.253
 7162POPC   C3A29429  14.356  32.212   7.953
 7162POPC   C4A29430  14.452  32.214   7.653
 7162POPC   C1B29431  14.161  32.090   8.553
 7162POPC   C2B29432  14.245  32.112   8.253
 7162POPC   C3B29433  14.187  32.080   7.953
 7162POPC   C4B29434  14.175  32.057   7.653
 7163POPC   NC329435   9.707   3.493   9.453
 7163POPC   PO429436   9.778   3.533   9.153
 7163POPC   GL129437   9.791   3.524   8.853
 7163POPC   GL229438   9.807   3.669   8.853
 7163POPC   C1A29439   9.734   3.570   8.553
 7163POPC   D2A29440   9.699   3.518   8.253
 7163POPC   C3A29441   9.789   3.544   7.953
 7163POPC   C4A29442   9.770   3.501   7.653
 7163POPC   C1B29443   9.894   3.722   8.553
 7163POPC   C2B29444   9.925   3.776   8.253
 7163POPC   C3B29445   9.927   3.768   7.953
 7163POPC   C4B29446   9.898   3.714   7.653
 7164POPC   NC329447  32.233  26.866   9.453
 7164POPC   PO429448  32.203  26.816   9.153
 7164POPC   GL129449  32.283  26.831   8.853
 7164POPC   GL229450  32.146  26.686   8.853
 7164POPC   C1A29451  32.289  26.837   8.553
 7164POPC   D2A29452  32.280  26.840   8.253
 7164POPC   C3A29453  32.206  26.805   7.953
 7164POPC   C4A29454  32.220  26.797   7.653
 7164POPC   C1B29455  32.128  26.624   8.553
 7164POPC   C2B29456  32.086  26.609   8.253
 7164POPC   C3B29457  32.130  26.646   7.953
 7164POPC   C4B29458  32.170  26.589   7.653
 7165POPC   NC329459   9.773  30.716   9.453
 7165POPC   PO429460   9.728  30.653   9.153
 7165POPC   GL129461   9.774  30.647   8.853
 7165POPC   GL229462   9.828  30.665   8.853
 7165POPC   C1A29463   9.732  30.691   8.553
 7165POPC   D2A29464   9.798  30.669   8.253
 7165POPC   C3A29465   9.778  30.734   7.953
 7165POPC   C4A29466   9.702  30.663   7.653
 7165POPC   C1B29467  10.014  30.722   8.553
 7165POPC   C2B29468  10.017  30.729   8.253
 7165POPC   C3B29469   9.957  30.660   7.953
 7165POPC   C4B29470   9.982  30.668   7.653
 7166POPC   NC329471  32.261  39.185   9.453
 7166POPC   PO429472  32.233  39.208   9.153
 7166POPC   GL129473  32.264  39.253   8.853
 7166POPC   GL229474  32.191  39.353   8.853
 7166POPC   C1A29475  32.253  39.235   8.553
 7166POPC   D2A29476  32.207  39.202   8.253
 7166POPC   C3A29477  32.291  39.204   7.953
 7166POPC   C4A29478  32.243  39.244   7.653
 7166POPC   C1B29479  32.123  39.403   8.553
 7166POPC   C2B29480  32.119  39.376   8.253
 7166POPC   C3B29481  32.060  39.436   7.953
 7166POPC   C4B29482  32.043  39.434   7.653
 7167POPC   NC329483   8.187  26.791   9.453
 7167POPC   PO429484   8.179  26.843   9.153
 7167POPC   GL129485   8.210  26.789   8.853
 7167POPC   GL229486   8.097  26.769   8.853
 7167POPC   C1A29487   8.161  26.780   8.553
 7167POPC   D2A29488   8.200  26.848   8.253
 7167POPC   C3A29489   8.222  26.807   7.953
 7167POPC   C4A29490   8.216  26.777   7.653
 7167POPC   C1B29491   8.016  26.696   8.553
 7167POPC   C2B29492   8.051  26.666   8.253
 7167POPC   C3B29493   8.038  26.631   7.953
 7167POPC   C4B29494   8.037  26.692   7.653
 7168POPC   NC329495  13.596  11.316   9.453
 7168POPC   PO429496  13.675  11.342   9.153
 7168POPC   GL129497  13.594  11.348   8.853
 7168POPC   GL229498  13.673  11.360   8.853
 7168POPC   C1A29499  13.587  11.278   8.553
 7168POPC   D2A29500  13.604  11.265   8.253
 7168POPC   C3A29501  13.620  11.313   7.953
 7168POPC   C4A29502  13.643  11.350   7.653
 7168POPC   C1B29503  13.761  11.475   8.553
 7168POPC   C2B29504  13.785  11.512   8.253
 7168POPC   C3B29505  13.752  11.490   7.953
 7168POPC   C4B29506  13.772  11.470   7.653
 7169POPC   NC329507  29.901  17.522   9.453
 7169POPC   PO429508  29.880  17.490   9.153
 7169POPC   GL129509  29.969  17.547   8.853
 7169POPC   GL229510  30.009  17.569   8.853
 7169POPC   C1A29511  29.886  17.556   8.553
 7169POPC   D2A29512  29.895  17.545   8.253
 7169POPC   C3A29513  29.880  17.552   7.953
 7169POPC   C4A29514  29.883  17.470   7.653
 7169POPC   C1B29515  30.142  17.684   8.553
 7169POPC   C2B29516  30.080  17.671   8.253
 7169POPC   C3B29517  30.110  17.659   7.953
 7169POPC   C4B29518  30.096  17.710   7.653
 7170POPC   NC329519   2.774  22.930   9.453
 7170POPC   PO429520   2.789  22.980   9.153
 7170POPC   GL129521   2.741  22.986   8.853
 7170POPC   GL229522   2.778  22.779   8.853
 7170POPC   C1A29523   2.738  22.964   8.553
 7170POPC   D2A29524   2.763  22.928   8.253
 7170POPC   C3A29525   2.778  22.916   7.953
 7170POPC   C4A29526   2.752  22.941   7.653
 7170POPC   C1B29527   2.868  22.673   8.553
 7170POPC   C2B29528   2.872  22.728   8.253
 7170POPC   C3B29529   2.899  22.749   7.953
 7170POPC   C4B29530   2.815  22.709   7.653
 7171POPC   NC329531  31.424  16.692   9.453
 7171POPC   PO429532  31.441  16.728   9.153
 7171POPC   GL129533  31.450  16.735   8.853
 7171POPC   GL229534  31.398  16.655   8.853
 7171POPC   C1A29535  31.440  16.723   8.553
 7171POPC   D2A29536  31.482  16.761   8.253
 7171POPC   C3A29537  31.442  16.757   7.953
 7171POPC   C4A29538  31.485  16.682   7.653
 7171POPC   C1B29539  31.253  16.622   8.553
 7171POPC   C2B29540  31.256  16.653   8.253
 7171POPC   C3B29541  31.265  16.652   7.953
 7171POPC   C4B29542  31.219  16.624   7.653
 7172POPC   NC329543  29.193  13.612   9.453
 7172POPC   PO429544  29.124  13.660   9.153
 7172POPC   GL129545  29.160  13.600   8.853
 7172POPC   GL229546  29.057  13.610   8.853
 7172POPC   C1A29547  29.169  13.615   8.553
 7172POPC   D2A29548  29.097  13.664   8.253
 7172POPC   C3A29549  29.161  13.670   7.953
 7172POPC   C4A29550  29.145  13.662   7.653
 7172POPC   C1B29551  28.851  13.580   8.553
 7172POPC   C2B29552  28.882  13.643   8.253
 7172POPC   C3B29553  28.855  13.611   7.953
 7172POPC   C4B29554  28.894  13.576   7.653
 7173POPC   NC329555  10.553   1.239   9.453
 7173POPC   PO429556  10.484   1.192   9.153
 7173POPC   GL129557  10.573   1.238   8.853
 7173POPC   GL229558  10.656   1.227   8.853
 7173POPC   C1A29559  10.512   1.235   8.553
 7173POPC   D2A29560  10.492   1.209   8.253
 7173POPC   C3A29561  10.497   1.173   7.953
 7173POPC   C4A29562  10.516   1.261   7.653
 7173POPC   C1B29563  10.735   1.368   8.553
 7173POPC   C2B29564  10.767   1.311   8.253
 7173POPC   C3B29565  10.714   1.380   7.953
 7173POPC   C4B29566  10.697   1.336   7.653
 7174POPC   NC329567  44.625  11.256   9.453
 7174POPC   PO429568  44.707  11.285   9.153
 7174POPC   GL129569  44.631  11.307   8.853
 7174POPC   GL229570  44.657  11.167   8.853
 7174POPC   C1A29571  44.622  11.287   8.553
 7174POPC   D2A29572  44.674  11.334   8.253
 7174POPC   C3A29573  44.652  11.255   7.953
 7174POPC   C4A29574  44.683  11.314   7.653
 7174POPC   C1B29575  44.759  11.022   8.553
 7174POPC   C2B29576  44.680  11.034   8.253
 7174POPC   C3B29577  44.757  11.027   7.953
 7174POPC   C4B29578  44.726  11.087   7.653
 7175POPC   NC329579   7.417   5.051   9.453
 7175POPC   PO429580   7.406   5.103   9.153
 7175POPC   GL129581   7.445   5.111   8.853
 7175POPC   GL229582   7.383   4.962   8.853
 7175POPC   C1A29583   7.428   5.099   8.553
 7175POPC   D2A29584   7.405   5.105   8.253
 7175POPC   C3A29585   7.464   5.071   7.953
 7175POPC   C4A29586   7.466   5.087   7.653
 7175POPC   C1B29587   7.224   4.917   8.553
 7175POPC   C2B29588   7.223   4.960   8.253
 7175POPC   C3B29589   7.244   4.866   7.953
 7175POPC   C4B29590   7.215   4.921   7.653
 7176POPC   NC329591   9.745  43.109   9.453
 7176POPC   PO429592   9.765  43.110   9.153
 7176POPC   GL129593   9.795  43.071   8.853
 7176POPC   GL229594   9.658  43.214   8.853
 7176POPC   C1A29595   9.793  43.154   8.553
 7176POPC   D2A29596   9.752  43.112   8.253
 7176POPC   C3A29597   9.754  43.102   7.953
 7176POPC   C4A29598   9.706  43.097   7.653
 7176POPC   C1B29599   9.626  43.295   8.553
 7176POPC   C2B29600   9.643  43.333   8.253
 7176POPC   C3B29601   9.603  43.337   7.953
 7176POPC   C4B29602   9.657  43.363   7.653
 7177POPC   NC329603  26.078   5.886   9.453
 7177POPC   PO429604  26.049   5.833   9.153
 7177POPC   GL129605  26.056   5.857   8.853
 7177POPC   GL229606  25.906   5.927   8.853
 7177POPC   C1A29607  26.035   5.894   8.553
 7177POPC   D2A29608  26.041   5.851   8.253
 7177POPC   C3A29609  26.041   5.854   7.953
 7177POPC   C4A29610  26.030   5.860   7.653
 7177POPC   C1B29611  25.808   6.026   8.553
 7177POPC   C2B29612  25.818   6.020   8.253
 7177POPC   C3B29613  25.856   6.026   7.953
 7177POPC   C4B29614  25.809   5.996   7.653
 7178POPC   NC329615  29.139   5.899   9.453
 7178POPC   PO429616  29.111   5.904   9.153
 7178POPC   GL129617  29.113   5.827   8.853
 7178POPC   GL229618  29.233   6.025   8.853
 7178POPC   C1A29619  29.141   5.908   8.553
 7178POPC   D2A29620  29.153   5.877   8.253
 7178POPC   C3A29621  29.136   5.849   7.953
 7178POPC   C4A29622  29.158   5.866   7.653
 7178POPC   C1B29623  29.190   6.144   8.553
 7178POPC   C2B29624  29.217   6.104   8.253
 7178POPC   C3B29625  29.219   6.100   7.953
 7178POPC   C4B29626  29.193   6.085   7.653
 7179POPC   NC329627   4.296  29.904   9.453
 7179POPC   PO429628   4.332  29.892   9.153
 7179POPC   GL129629   4.307  29.887   8.853
 7179POPC   GL229630   4.327  30.090   8.853
 7179POPC   C1A29631   4.282  29.921   8.553
 7179POPC   D2A29632   4.314  29.911   8.253
 7179POPC   C3A29633   4.358  29.964   7.953
 7179POPC   C4A29634   4.314  29.925   7.653
 7179POPC   C1B29635   4.324  30.172   8.553
 7179POPC   C2B29636   4.277  30.212   8.253
 7179POPC   C3B29637   4.273  30.132   7.953
 7179POPC   C4B29638   4.350  30.160   7.653
 7180POPC   NC329639  36.887  23.685   9.453
 7180POPC   PO429640  36.896  23.727   9.153
 7180POPC   GL129641  36.880  23.705   8.853
 7180POPC   GL229642  37.045  23.725   8.853
 7180POPC   C1A29643  36.871  23.746   8.553
 7180POPC   D2A29644  36.901  23.709   8.253
 7180POPC   C3A29645  36.869  23.688   7.953
 7180POPC   C4A29646  36.873  23.721   7.653
 7180POPC   C1B29647  37.122  23.806   8.553
 7180POPC   C2B29648  37.154  23.825   8.253
 7180POPC   C3B29649  37.194  23.754   7.953
 7180POPC   C4B29650  37.174  23.815   7.653
 7181POPC   NC329651  19.852  38.414   9.453
 7181POPC   PO429652  19.813  38.466   9.153
 7181POPC   GL129653  19.853  38.405   8.853
 7181POPC   GL229654  19.992  38.434   8.853
 7181POPC   C1A29655  19.866  38.413   8.553
 7181POPC   D2A29656  19.792  38.485   8.253
 7181POPC   C3A29657  19.861  38.501   7.953
 7181POPC   C4A29658  19.797  38.449   7.653
 7181POPC   C1B29659  20.089  38.347   8.553
 7181POPC   C2B29660  20.093  38.412   8.253
 7181POPC   C3B29661  20.104  38.369   7.953
 7181POPC   C4B29662  20.043  38.329   7.653
 7182POPC   NC329663  40.035   5.838   9.453
 7182POPC   PO429664  40.027   5.859   9.153
 7182POPC   GL129665  39.998   5.881   8.853
 7182POPC   GL229666  39.946   5.759   8.853
 7182POPC   C1A29667  39.982   5.843   8.553
 7182POPC   D2A29668  40.037   5.875   8.253
 7182POPC   C3A29669  39.994   5.841   7.953
 7182POPC   C4A29670  39.982   5.871   7.653
 7182POPC   C1B29671  39.917   5.642   8.553
 7182POPC   C2B29672  39.980   5.663   8.253
 7182POPC   C3B29673  39.894   5.581   7.953
 7182POPC   C4B29674  39.922   5.652   7.653
 7183POPC   NC329675  12.809   0.409   9.453
 7183POPC   PO429676  12.860   0.436   9.153
 7183POPC   GL129677  12.857   0.429   8.853
 7183POPC   GL229678  12.869   0.594   8.853
 7183POPC   C1A29679  12.806   0.449   8.553
 7183POPC   D2A29680  12.837   0.464   8.253
 7183POPC   C3A29681  12.855   0.473   7.953
 7183POPC   C4A29682  12.837   0.470   7.653
 7183POPC   C1B29683  12.962   0.669   8.553
 7183POPC   C2B29684  13.009   0.663   8.253
 7183POPC   C3B29685  12.935   0.672   7.953
 7183POPC   C4B29686  12.951   0.679   7.653
 7184POPC   NC329687   2.031  29.957   9.453
 7184POPC   PO429688   1.971  29.950   9.153
 7184POPC   GL129689   2.007  29.955   8.853
 7184POPC   GL229690   2.009  29.825   8.853
 7184POPC   C1A29691   2.018  29.889   8.553
 7184POPC   D2A29692   1.957  29.914   8.253
 7184POPC   C3A29693   2.016  29.948   7.953
 7184POPC   C4A29694   1.962  29.942   7.653
 7184POPC   C1B29695   1.995  29.648   8.553
 7184POPC   C2B29696   1.991  29.653   8.253
 7184POPC   C3B29697   1.934  29.670   7.953
 7184POPC   C4B29698   1.965  29.650   7.653
 7185POPC   NC329699   8.963  36.170   9.453
 7185POPC   PO429700   8.960  36.123   9.153
 7185POPC   GL129701   8.964  36.117   8.853
 7185POPC   GL229702   9.030  36.216   8.853
 7185POPC   C1A29703   9.000  36.139   8.553
 7185POPC   D2A29704   8.976  36.092   8.253
 7185POPC   C3A29705   9.013  36.087   7.953
 7185POPC   C4A29706   8.964  36.112   7.653
 7185POPC   C1B29707   9.022  36.371   8.553
 7185POPC   C2B29708   8.998  36.425   8.253
 7185POPC   C3B29709   9.022  36.351   7.953
 7185POPC   C4B29710   8.951  36.389   7.653
 7186POPC   NC329711   1.262  22.151   9.453
 7186POPC   PO429712   1.173  22.145   9.153
 7186POPC   GL129713   1.251  22.117   8.853
 7186POPC   GL229714   1.079  22.113   8.853
 7186POPC   C1A29715   1.170  22.120   8.553
 7186POPC   D2A29716   1.188  22.143   8.253
 7186POPC   C3A29717   1.206  22.120   7.953
 7186POPC   C4A29718   1.173  22.187   7.653
 7186POPC   C1B29719   1.014  21.985   8.553
 7186POPC   C2B29720   1.002  22.004   8.253
 7186POPC   C3B29721   1.013  21.999   7.953
 7186POPC   C4B29722   1.018  21.993   7.653
 7187POPC   NC329723  11.329   1.191   9.453
 7187POPC   PO429724  11.278   1.256   9.153
 7187POPC   GL129725  11.329   1.184   8.853
 7187POPC   GL229726  11.431   1.111   8.853
 7187POPC   C1A29727  11.257   1.248   8.553
 7187POPC   D2A29728  11.282   1.186   8.253
 7187POPC   C3A29729  11.264   1.240   7.953
 7187POPC   C4A29730  11.344   1.198   7.653
 7187POPC   C1B29731  11.521   1.077   8.553
 7187POPC   C2B29732  11.509   1.076   8.253
 7187POPC   C3B29733  11.504   1.090   7.953
 7187POPC   C4B29734  11.572   1.084   7.653
 7188POPC   NC329735  37.637  34.532   9.453
 7188POPC   PO429736  37.684  34.602   9.153
 7188POPC   GL129737  37.647  34.626   8.853
 7188POPC   GL229738  37.762  34.568   8.853
 7188POPC   C1A29739  37.639  34.616   8.553
 7188POPC   D2A29740  37.668  34.539   8.253
 7188POPC   C3A29741  37.711  34.548   7.953
 7188POPC   C4A29742  37.660  34.566   7.653
 7188POPC   C1B29743  37.881  34.620   8.553
 7188POPC   C2B29744  37.962  34.648   8.253
 7188POPC   C3B29745  37.934  34.619   7.953
 7188POPC   C4B29746  37.947  34.597   7.653
 7189POPC   NC329747  14.430   5.107   9.453
 7189POPC   PO429748  14.433   5.142   9.153
 7189POPC   GL129749  14.397   5.121   8.853
 7189POPC   GL229750  14.479   5.101   8.853
 7189POPC   C1A29751  14.419   5.088   8.553
 7189POPC   D2A29752  14.361   5.049   8.253
 7189POPC   C3A29753  14.367   5.047   7.953
 7189POPC   C4A29754  14.438   5.103   7.653
 7189POPC   C1B29755  14.633   5.051   8.553
 7189POPC   C2B29756  14.692   5.061   8.253
 7189POPC   C3B29757  14.630   5.048   7.953
 7189POPC   C4B29758  14.600   5.006   7.653
 7190POPC   NC329759  12.029  27.568   9.453
 7190POPC   PO429760  12.033  27.582   9.153
 7190POPC   GL129761  12.041  27.641   8.853
 7190POPC   GL229762  12.124  27.733   8.853
 7190POPC   C1A29763  12.037  27.572   8.553
 7190POPC   D2A29764  12.046  27.609   8.253
 7190POPC   C3A29765  12.035  27.599   7.953
 7190POPC   C4A29766  12.094  27.597   7.653
 7190POPC   C1B29767  12.097  27.798   8.553
 7190POPC   C2B29768  12.136  27.831   8.253
 7190POPC   C3B29769  12.081  27.834   7.953
 7190POPC   C4B29770  12.085  27.822   7.653
 7191POPC   NC329771   1.952  31.490   9.453
 7191POPC   PO429772   2.009  31.478   9.153
 7191POPC   GL129773   2.003  31.444   8.853
 7191POPC   GL229774   1.901  31.441   8.853
 7191POPC   C1A29775   1.981  31.498   8.553
 7191POPC   D2A29776   1.982  31.508   8.253
 7191POPC   C3A29777   2.000  31.509   7.953
 7191POPC   C4A29778   1.981  31.427   7.653
 7191POPC   C1B29779   1.787  31.301   8.553
 7191POPC   C2B29780   1.772  31.337   8.253
 7191POPC   C3B29781   1.810  31.315   7.953
 7191POPC   C4B29782   1.739  31.316   7.653
 7192POPC   NC329783  13.655  20.565   9.453
 7192POPC   PO429784  13.580  20.562   9.153
 7192POPC   GL129785  13.592  20.565   8.853
 7192POPC   GL229786  13.556  20.466   8.853
 7192POPC   C1A29787  13.592  20.623   8.553
 7192POPC   D2A29788  13.653  20.656   8.253
 7192POPC   C3A29789  13.631  20.624   7.953
 7192POPC   C4A29790  13.671  20.635   7.653
 7192POPC   C1B29791  13.424  20.442   8.553
 7192POPC   C2B29792  13.459  20.442   8.253
 7192POPC   C3B29793  13.461  20.382   7.953
 7192POPC   C4B29794  13.507  20.386   7.653
 7193POPC   NC329795   6.647  30.657   9.453
 7193POPC   PO429796   6.596  30.715   9.153
 7193POPC   GL129797   6.664  30.668   8.853
 7193POPC   GL229798   6.604  30.575   8.853
 7193POPC   C1A29799   6.652  30.694   8.553
 7193POPC   D2A29800   6.598  30.695   8.253
 7193POPC   C3A29801   6.661  30.669   7.953
 7193POPC   C4A29802   6.674  30.717   7.653
 7193POPC   C1B29803   6.677  30.481   8.553
 7193POPC   C2B29804   6.637  30.466   8.253
 7193POPC   C3B29805   6.703  30.402   7.953
 7193POPC   C4B29806   6.657  30.433   7.653
 7194POPC   NC329807   4.359  30.734   9.453
 7194POPC   PO429808   4.365  30.702   9.153
 7194POPC   GL129809   4.270  30.652   8.853
 7194POPC   GL229810   4.311  30.813   8.853
 7194POPC   C1A29811   4.299  30.731   8.553
 7194POPC   D2A29812   4.286  30.688   8.253
 7194POPC   C3A29813   4.337  30.715   7.953
 7194POPC   C4A29814   4.359  30.727   7.653
 7194POPC   C1B29815   4.320  30.970   8.553
 7194POPC   C2B29816   4.242  30.950   8.253
 7194POPC   C3B29817   4.243  30.908   7.953
 7194POPC   C4B29818   4.291  30.907   7.653
 7195POPC   NC329819  29.898  29.928   9.453
 7195POPC   PO429820  29.956  29.951   9.153
 7195POPC   GL129821  29.946  29.964   8.853
 7195POPC   GL229822  29.901  30.021   8.853
 7195POPC   C1A29823  29.911  29.963   8.553
 7195POPC   D2A29824  29.906  29.881   8.253
 7195POPC   C3A29825  29.960  29.912   7.953
 7195POPC   C4A29826  29.888  29.907   7.653
 7195POPC   C1B29827  29.980  30.184   8.553
 7195POPC   C2B29828  29.944  30.123   8.253
 7195POPC   C3B29829  29.968  30.168   7.953
 7195POPC   C4B29830  29.937  30.178   7.653
 7196POPC   NC329831  19.856   0.462   9.453
 7196POPC   PO429832  19.838   0.486   9.153
 7196POPC   GL129833  19.842   0.468   8.853
 7196POPC   GL229834  19.967   0.375   8.853
 7196POPC   C1A29835  19.793   0.421   8.553
 7196POPC   D2A29836  19.786   0.419   8.253
 7196POPC   C3A29837  19.797   0.428   7.953
 7196POPC   C4A29838  19.852   0.458   7.653
 7196POPC   C1B29839  20.119   0.374   8.553
 7196POPC   C2B29840  20.093   0.411   8.253
 7196POPC   C3B29841  20.085   0.423   7.953
 7196POPC   C4B29842  20.086   0.412   7.653
 7197POPC   NC329843  13.602   0.418   9.453
 7197POPC   PO429844  13.612   0.451   9.153
 7197POPC   GL129845  13.618   0.430   8.853
 7197POPC   GL229846  13.543   0.463   8.853
 7197POPC   C1A29847  13.628   0.389   8.553
 7197POPC   D2A29848  13.584   0.413   8.253
 7197POPC   C3A29849  13.590   0.442   7.953
 7197POPC   C4A29850  13.604   0.429   7.653
 7197POPC   C1B29851  13.393   0.443   8.553
 7197POPC   C2B29852  13.403   0.473   8.253
 7197POPC   C3B29853  13.373   0.492   7.953
 7197POPC   C4B29854  13.410   0.486   7.653
 7198POPC   NC329855  31.472  10.519   9.453
 7198POPC   PO429856  31.490  10.523   9.153
 7198POPC   GL129857  31.446  10.556   8.853
 7198POPC   GL229858  31.492  10.420   8.853
 7198POPC   C1A29859  31.520  10.524   8.553
 7198POPC   D2A29860  31.448  10.527   8.253
 7198POPC   C3A29861  31.441  10.505   7.953
 7198POPC   C4A29862  31.504  10.566   7.653
 7198POPC   C1B29863  31.388  10.273   8.553
 7198POPC   C2B29864  31.473  10.247   8.253
 7198POPC   C3B29865  31.416  10.243   7.953
 7198POPC   C4B29866  31.454  10.260   7.653
 7199POPC   NC329867  31.503  36.126   9.453
 7199POPC   PO429868  31.440  36.105   9.153
 7199POPC   GL129869  31.466  36.084   8.853
 7199POPC   GL229870  31.346  36.094   8.853
 7199POPC   C1A29871  31.427  36.100   8.553
 7199POPC   D2A29872  31.448  36.092   8.253
 7199POPC   C3A29873  31.486  36.078   7.953
 7199POPC   C4A29874  31.495  36.108   7.653
 7199POPC   C1B29875  31.269  36.166   8.553
 7199POPC   C2B29876  31.193  36.186   8.253
 7199POPC   C3B29877  31.201  36.144   7.953
 7199POPC   C4B29878  31.175  36.179   7.653
 7200POPC   NC329879  37.685  27.557   9.453
 7200POPC   PO429880  37.675  27.640   9.153
 7200POPC   GL129881  37.636  27.568   8.853
 7200POPC   GL229882  37.769  27.546   8.853
 7200POPC   C1A29883  37.697  27.564   8.553
 7200POPC   D2A29884  37.685  27.570   8.253
 7200POPC   C3A29885  37.676  27.548   7.953
 7200POPC   C4A29886  37.695  27.591   7.653
 7200POPC   C1B29887  37.896  27.548   8.553
 7200POPC   C2B29888  37.892  27.559   8.253
 7200POPC   C3B29889  37.920  27.606   7.953
 7200POPC   C4B29890  37.918  27.615   7.653
 7201POPC   NC329891   3.548  42.380   9.453
 7201POPC   PO429892   3.542  42.361   9.153
 7201POPC   GL129893   3.515  42.336   8.853
 7201POPC   GL229894   3.455  42.213   8.853
 7201POPC   C1A29895   3.526  42.340   8.553
 7201POPC   D2A29896   3.567  42.303   8.253
 7201POPC   C3A29897   3.530  42.370   7.953
 7201POPC   C4A29898   3.560  42.320   7.653
 7201POPC   C1B29899   3.344  42.214   8.553
 7201POPC   C2B29900   3.350  42.212   8.253
 7201POPC   C3B29901   3.387  42.175   7.953
 7201POPC   C4B29902   3.312  42.184   7.653
 7202POPC   NC329903   3.579  22.120   9.453
 7202POPC   PO429904   3.494  22.194   9.153
 7202POPC   GL129905   3.524  22.187   8.853
 7202POPC   GL229906   3.405  22.197   8.853
 7202POPC   C1A29907   3.541  22.172   8.553
 7202POPC   D2A29908   3.546  22.113   8.253
 7202POPC   C3A29909   3.549  22.129   7.953
 7202POPC   C4A29910   3.559  22.163   7.653
 7202POPC   C1B29911   3.315  22.297   8.553
 7202POPC   C2B29912   3.309  22.349   8.253
 7202POPC   C3B29913   3.305  22.297   7.953
 7202POPC   C4B29914   3.364  22.347   7.653
 7203POPC   NC329915  22.982  10.530   9.453
 7203POPC   PO429916  22.945  10.542   9.153
 7203POPC   GL129917  22.949  10.493   8.853
 7203POPC   GL229918  22.769  10.501   8.853
 7203POPC   C1A29919  22.948  10.513   8.553
 7203POPC   D2A29920  22.902  10.544   8.253
 7203POPC   C3A29921  22.932  10.523   7.953
 7203POPC   C4A29922  22.945  10.475   7.653
 7203POPC   C1B29923  22.695  10.460   8.553
 7203POPC   C2B29924  22.693  10.491   8.253
 7203POPC   C3B29925  22.700  10.446   7.953
 7203POPC   C4B29926  22.741  10.471   7.653
 7204POPC   NC329927  32.267  26.014   9.453
 7204POPC   PO429928  32.290  26.080   9.153
 7204POPC   GL129929  32.214  26.028   8.853
 7204POPC   GL229930  32.272  25.918   8.853
 7204POPC   C1A29931  32.268  26.014   8.553
 7204POPC   D2A29932  32.199  26.081   8.253
 7204POPC   C3A29933  32.294  26.076   7.953
 7204POPC   C4A29934  32.220  25.995   7.653
 7204POPC   C1B29935  32.356  25.826   8.553
 7204POPC   C2B29936  32.317  25.833   8.253
 7204POPC   C3B29937  32.329  25.779   7.953
 7204POPC   C4B29938  32.324  25.812   7.653
 7205POPC   NC329939  34.606  33.825   9.453
 7205POPC   PO429940  34.534  33.829   9.153
 7205POPC   GL129941  34.527  33.774   8.853
 7205POPC   GL229942  34.487  33.816   8.853
 7205POPC   C1A29943  34.556  33.790   8.553
 7205POPC   D2A29944  34.586  33.847   8.253
 7205POPC   C3A29945  34.612  33.766   7.953
 7205POPC   C4A29946  34.533  33.794   7.653
 7205POPC   C1B29947  34.323  33.790   8.553
 7205POPC   C2B29948  34.370  33.802   8.253
 7205POPC   C3B29949  34.289  33.719   7.953
 7205POPC   C4B29950  34.362  33.803   7.653
 7206POPC   NC329951  15.167  29.889   9.453
 7206POPC   PO429952  15.216  29.913   9.153
 7206POPC   GL129953  15.139  29.887   8.853
 7206POPC   GL229954  15.312  29.881   8.853
 7206POPC   C1A29955  15.215  29.939   8.553
 7206POPC   D2A29956  15.182  29.942   8.253
 7206POPC   C3A29957  15.168  29.872   7.953
 7206POPC   C4A29958  15.139  29.966   7.653
 7206POPC   C1B29959  15.391  29.815   8.553
 7206POPC   C2B29960  15.433  29.878   8.253
 7206POPC   C3B29961  15.387  29.874   7.953
 7206POPC   C4B29962  15.390  29.803   7.653
 7207POPC   NC329963  37.709   9.789   9.453
 7207POPC   PO429964  37.661   9.794   9.153
 7207POPC   GL129965  37.721   9.711   8.853
 7207POPC   GL229966  37.712   9.581   8.853
 7207POPC   C1A29967  37.713   9.764   8.553
 7207POPC   D2A29968  37.688   9.718   8.253
 7207POPC   C3A29969  37.718   9.723   7.953
 7207POPC   C4A29970  37.729   9.792   7.653
 7207POPC   C1B29971  37.654   9.476   8.553
 7207POPC   C2B29972  37.729   9.547   8.253
 7207POPC   C3B29973  37.721   9.520   7.953
 7207POPC   C4B29974  37.739   9.545   7.653
 7208POPC   NC329975  41.557  28.356   9.453
 7208POPC   PO429976  41.586  28.415   9.153
 7208POPC   GL129977  41.511  28.382   8.853
 7208POPC   GL229978  41.586  28.480   8.853
 7208POPC   C1A29979  41.551  28.335   8.553
 7208POPC   D2A29980  41.596  28.418   8.253
 7208POPC   C3A29981  41.593  28.415   7.953
 7208POPC   C4A29982  41.512  28.363   7.653
 7208POPC   C1B29983  41.600  28.563   8.553
 7208POPC   C2B29984  41.611  28.610   8.253
 7208POPC   C3B29985  41.611  28.570   7.953
 7208POPC   C4B29986  41.646  28.657   7.653
 7209POPC   NC329987  32.258  33.022   9.453
 7209POPC   PO429988  32.233  33.069   9.153
 7209POPC   GL129989  32.204  32.985   8.853
 7209POPC   GL229990  32.140  32.898   8.853
 7209POPC   C1A29991  32.272  33.050   8.553
 7209POPC   D2A29992  32.266  32.989   8.253
 7209POPC   C3A29993  32.246  32.976   7.953
 7209POPC   C4A29994  32.223  32.984   7.653
 7209POPC   C1B29995  32.064  32.875   8.553
 7209POPC   C2B29996  32.039  32.862   8.253
 7209POPC   C3B29997  32.023  32.890   7.953
 7209POPC   C4B29998  32.021  32.833   7.653
 7210POPC   NC329999  32.989  15.162   9.453
 7210POPC   PO430000  33.024  15.135   9.153
 7210POPC   GL130001  33.048  15.164   8.853
 7210POPC   GL230002  33.021  15.266   8.853
 7210POPC   C1A30003  33.044  15.204   8.553
 7210POPC   D2A30004  33.033  15.137   8.253
 7210POPC   C3A30005  33.018  15.157   7.953
 7210POPC   C4A30006  33.053  15.177   7.653
 7210POPC   C1B30007  32.910  15.414   8.553
 7210POPC   C2B30008  32.939  15.404   8.253
 7210POPC   C3B30009  32.897  15.410   7.953
 7210POPC   C4B30010  32.895  15.389   7.653
 7211POPC   NC330011   0.439  34.571   9.453
 7211POPC   PO430012   0.465  34.596   9.153
 7211POPC   GL130013   0.410  34.623   8.853
 7211POPC   GL230014   0.476  34.495   8.853
 7211POPC   C1A30015   0.447  34.543   8.553
 7211POPC   D2A30016   0.394  34.558   8.253
 7211POPC   C3A30017   0.486  34.580   7.953
 7211POPC   C4A30018   0.441  34.554   7.653
 7211POPC   C1B30019   0.618  34.373   8.553
 7211POPC   C2B30020   0.637  34.378   8.253
 7211POPC   C3B30021   0.578  34.397   7.953
 7211POPC   C4B30022   0.548  34.336   7.653
 7212POPC   NC330023  23.741   8.985   9.453
 7212POPC   PO430024  23.741   8.975   9.153
 7212POPC   GL130025  23.762   8.962   8.853
 7212POPC   GL230026  23.850   9.048   8.853
 7212POPC   C1A30027  23.696   8.976   8.553
 7212POPC   D2A30028  23.759   9.010   8.253
 7212POPC   C3A30029  23.677   8.972   7.953
 7212POPC   C4A30030  23.688   8.995   7.653
 7212POPC   C1B30031  23.882   9.112   8.553
 7212POPC   C2B30032  23.864   9.111   8.253
 7212POPC   C3B30033  23.855   9.170   7.953
 7212POPC   C4B30034  23.863   9.100   7.653
 7213POPC   NC330035   2.780  29.911   9.453
 7213POPC   PO430036   2.737  29.952   9.153
 7213POPC   GL130037   2.763  29.963   8.853
 7213POPC   GL230038   2.873  29.981   8.853
 7213POPC   C1A30039   2.770  29.923   8.553
 7213POPC   D2A30040   2.727  29.871   8.253
 7213POPC   C3A30041   2.755  29.935   7.953
 7213POPC   C4A30042   2.757  29.898   7.653
 7213POPC   C1B30043   2.996  30.031   8.553
 7213POPC   C2B30044   3.001  30.023   8.253
 7213POPC   C3B30045   2.968  30.043   7.953
 7213POPC   C4B30046   2.968  30.023   7.653
 7214POPC   NC330047   4.318  35.392   9.453
 7214POPC   PO430048   4.294  35.347   9.153
 7214POPC   GL130049   4.270  35.305   8.853
 7214POPC   GL230050   4.396  35.340   8.853
 7214POPC   C1A30051   4.275  35.338   8.553
 7214POPC   D2A30052   4.319  35.317   8.253
 7214POPC   C3A30053   4.328  35.311   7.953
 7214POPC   C4A30054   4.276  35.394   7.653
 7214POPC   C1B30055   4.505  35.218   8.553
 7214POPC   C2B30056   4.555  35.238   8.253
 7214POPC   C3B30057   4.523  35.218   7.953
 7214POPC   C4B30058   4.567  35.275   7.653
 7215POPC   NC330059   3.518  12.067   9.453
 7215POPC   PO430060   3.579  12.027   9.153
 7215POPC   GL130061   3.560  12.036   8.853
 7215POPC   GL230062   3.419  12.011   8.853
 7215POPC   C1A30063   3.543  12.075   8.553
 7215POPC   D2A30064   3.558  12.034   8.253
 7215POPC   C3A30065   3.584  12.054   7.953
 7215POPC   C4A30066   3.510  12.105   7.653
 7215POPC   C1B30067   3.309  12.006   8.553
 7215POPC   C2B30068   3.264  11.974   8.253
 7215POPC   C3B30069   3.304  11.955   7.953
 7215POPC   C4B30070   3.282  11.950   7.653
 7216POPC   NC330071  29.921  37.679   9.453
 7216POPC   PO430072  29.928  37.688   9.153
 7216POPC   GL130073  29.882  37.720   8.853
 7216POPC   GL230074  30.029  37.716   8.853
 7216POPC   C1A30075  29.879  37.711   8.553
 7216POPC   D2A30076  29.924  37.701   8.253
 7216POPC   C3A30077  29.921  37.728   7.953
 7216POPC   C4A30078  29.959  37.689   7.653
 7216POPC   C1B30079  30.169  37.722   8.553
 7216POPC   C2B30080  30.155  37.755   8.253
 7216POPC   C3B30081  30.159  37.697   7.953
 7216POPC   C4B30082  30.131  37.691   7.653
 7217POPC   NC330083  34.534  12.804   9.453
 7217POPC   PO430084  34.581  12.879   9.153
 7217POPC   GL130085  34.571  12.864   8.853
 7217POPC   GL230086  34.531  12.703   8.853
 7217POPC   C1A30087  34.533  12.862   8.553
 7217POPC   D2A30088  34.552  12.877   8.253
 7217POPC   C3A30089  34.556  12.846   7.953
 7217POPC   C4A30090  34.533  12.861   7.653
 7217POPC   C1B30091  34.570  12.647   8.553
 7217POPC   C2B30092  34.577  12.652   8.253
 7217POPC   C3B30093  34.543  12.621   7.953
 7217POPC   C4B30094  34.564  12.567   7.653
 7218POPC   NC330095   1.211  44.663   9.453
 7218POPC   PO430096   1.193  44.687   9.153
 7218POPC   GL130097   1.238  44.676   8.853
 7218POPC   GL230098   1.301  44.698   8.853
 7218POPC   C1A30099   1.200  44.695   8.553
 7218POPC   D2A30100   1.191  44.705   8.253
 7218POPC   C3A30101   1.253  44.632   7.953
 7218POPC   C4A30102   1.204  44.707   7.653
 7218POPC   C1B30103   1.459  44.816   8.553
 7218POPC   C2B30104   1.405  44.805   8.253
 7218POPC   C3B30105   1.484  44.720   7.953
 7218POPC   C4B30106   1.410  44.772   7.653
 7219POPC   NC330107  36.949  16.713   9.453
 7219POPC   PO430108  36.902  16.748   9.153
 7219POPC   GL130109  36.920  16.691   8.853
 7219POPC   GL230110  36.780  16.773   8.853
 7219POPC   C1A30111  36.939  16.698   8.553
 7219POPC   D2A30112  36.887  16.740   8.253
 7219POPC   C3A30113  36.882  16.763   7.953
 7219POPC   C4A30114  36.873  16.714   7.653
 7219POPC   C1B30115  36.719  16.773   8.553
 7219POPC   C2B30116  36.634  16.854   8.253
 7219POPC   C3B30117  36.647  16.832   7.953
 7219POPC   C4B30118  36.638  16.781   7.653
 7220POPC   NC330119  33.073  26.000   9.453
 7220POPC   PO430120  32.992  26.033   9.153
 7220POPC   GL130121  32.996  25.997   8.853
 7220POPC   GL230122  32.902  25.997   8.853
 7220POPC   C1A30123  33.016  26.011   8.553
 7220POPC   D2A30124  33.019  26.020   8.253
 7220POPC   C3A30125  32.998  26.014   7.953
 7220POPC   C4A30126  33.066  26.083   7.653
 7220POPC   C1B30127  32.782  25.961   8.553
 7220POPC   C2B30128  32.778  25.972   8.253
 7220POPC   C3B30129  32.799  25.952   7.953
 7220POPC   C4B30130  32.803  25.953   7.653
 7221POPC   NC330131  36.166  30.733   9.453
 7221POPC   PO430132  36.131  30.720   9.153
 7221POPC   GL130133  36.109  30.664   8.853
 7221POPC   GL230134  36.101  30.554   8.853
 7221POPC   C1A30135  36.090  30.709   8.553
 7221POPC   D2A30136  36.138  30.656   8.253
 7221POPC   C3A30137  36.086  30.712   7.953
 7221POPC   C4A30138  36.094  30.668   7.653
 7221POPC   C1B30139  36.203  30.481   8.553
 7221POPC   C2B30140  36.151  30.419   8.253
 7221POPC   C3B30141  36.131  30.483   7.953
 7221POPC   C4B30142  36.127  30.446   7.653
 7222POPC   NC330143  15.155  22.129   9.453
 7222POPC   PO430144  15.191  22.164   9.153
 7222POPC   GL130145  15.149  22.139   8.853
 7222POPC   GL230146  15.273  22.071   8.853
 7222POPC   C1A30147  15.178  22.154   8.553
 7222POPC   D2A30148  15.187  22.121   8.253
 7222POPC   C3A30149  15.166  22.127   7.953
 7222POPC   C4A30150  15.195  22.175   7.653
 7222POPC   C1B30151  15.319  21.937   8.553
 7222POPC   C2B30152  15.319  21.960   8.253
 7222POPC   C3B30153  15.375  22.032   7.953
 7222POPC   C4B30154  15.316  21.993   7.653
 7223POPC   NC330155  32.243  14.397   9.453
 7223POPC   PO430156  32.235  14.410   9.153
 7223POPC   GL130157  32.271  14.418   8.853
 7223POPC   GL230158  32.178  14.487   8.853
 7223POPC   C1A30159  32.219  14.434   8.553
 7223POPC   D2A30160  32.201  14.438   8.253
 7223POPC   C3A30161  32.253  14.446   7.953
 7223POPC   C4A30162  32.236  14.379   7.653
 7223POPC   C1B30163  32.165  14.589   8.553
 7223POPC   C2B30164  32.141  14.624   8.253
 7223POPC   C3B30165  32.158  14.599   7.953
 7223POPC   C4B30166  32.127  14.671   7.653
 7224POPC   NC330167  16.684   5.849   9.453
 7224POPC   PO430168  16.771   5.846   9.153
 7224POPC   GL130169  16.736   5.865   8.853
 7224POPC   GL230170  16.659   5.737   8.853
 7224POPC   C1A30171  16.736   5.826   8.553
 7224POPC   D2A30172  16.758   5.832   8.253
 7224POPC   C3A30173  16.749   5.890   7.953
 7224POPC   C4A30174  16.691   5.872   7.653
 7224POPC   C1B30175  16.601   5.615   8.553
 7224POPC   C2B30176  16.609   5.617   8.253
 7224POPC   C3B30177  16.563   5.675   7.953
 7224POPC   C4B30178  16.620   5.694   7.653
 7225POPC   NC330179  35.344  37.650   9.453
 7225POPC   PO430180  35.314  37.670   9.153
 7225POPC   GL130181  35.350  37.725   8.853
 7225POPC   GL230182  35.392  37.539   8.853
 7225POPC   C1A30183  35.371  37.718   8.553
 7225POPC   D2A30184  35.343  37.722   8.253
 7225POPC   C3A30185  35.306  37.648   7.953
 7225POPC   C4A30186  35.367  37.640   7.653
 7225POPC   C1B30187  35.401  37.424   8.553
 7225POPC   C2B30188  35.319  37.392   8.253
 7225POPC   C3B30189  35.346  37.428   7.953
 7225POPC   C4B30190  35.311  37.404   7.653
 7226POPC   NC330191  11.316  19.060   9.453
 7226POPC   PO430192  11.310  19.094   9.153
 7226POPC   GL130193  11.265  19.084   8.853
 7226POPC   GL230194  11.223  19.043   8.853
 7226POPC   C1A30195  11.259  19.034   8.553
 7226POPC   D2A30196  11.349  19.055   8.253
 7226POPC   C3A30197  11.290  19.044   7.953
 7226POPC   C4A30198  11.307  19.054   7.653
 7226POPC   C1B30199  11.069  18.984   8.553
 7226POPC   C2B30200  11.082  19.010   8.253
 7226POPC   C3B30201  11.073  19.021   7.953
 7226POPC   C4B30202  11.076  19.078   7.653
 7227POPC   NC330203   5.824   8.233   9.453
 7227POPC   PO430204   5.896   8.193   9.153
 7227POPC   GL130205   5.870   8.242   8.853
 7227POPC   GL230206   5.862   8.082   8.853
 7227POPC   C1A30207   5.862   8.246   8.553
 7227POPC   D2A30208   5.857   8.208   8.253
 7227POPC   C3A30209   5.838   8.153   7.953
 7227POPC   C4A30210   5.844   8.223   7.653
 7227POPC   C1B30211   5.758   7.952   8.553
 7227POPC   C2B30212   5.785   7.998   8.253
 7227POPC   C3B30213   5.784   8.004   7.953
 7227POPC   C4B30214   5.833   7.958   7.653
 7228POPC   NC330215  37.635  32.978   9.453
 7228POPC   PO430216  37.640  33.073   9.153
 7228POPC   GL130217  37.666  33.064   8.853
 7228POPC   GL230218  37.826  32.985   8.853
 7228POPC   C1A30219  37.707  32.988   8.553
 7228POPC   D2A30220  37.673  33.044   8.253
 7228POPC   C3A30221  37.706  33.003   7.953
 7228POPC   C4A30222  37.711  33.006   7.653
 7228POPC   C1B30223  37.918  32.951   8.553
 7228POPC   C2B30224  37.878  32.920   8.253
 7228POPC   C3B30225  37.915  32.955   7.953
 7228POPC   C4B30226  37.934  32.958   7.653
 7229POPC   NC330227  35.357  29.120   9.453
 7229POPC   PO430228  35.386  29.186   9.153
 7229POPC   GL130229  35.391  29.171   8.853
 7229POPC   GL230230  35.194  29.143   8.853
 7229POPC   C1A30231  35.389  29.185   8.553
 7229POPC   D2A30232  35.320  29.114   8.253
 7229POPC   C3A30233  35.335  29.154   7.953
 7229POPC   C4A30234  35.394  29.168   7.653
 7229POPC   C1B30235  35.146  29.053   8.553
 7229POPC   C2B30236  35.144  29.076   8.253
 7229POPC   C3B30237  35.100  29.095   7.953
 7229POPC   C4B30238  35.115  29.089   7.653
 7230POPC   NC330239  22.201  22.955   9.453
 7230POPC   PO430240  22.138  22.923   9.153
 7230POPC   GL130241  22.186  22.913   8.853
 7230POPC   GL230242  22.212  23.081   8.853
 7230POPC   C1A30243  22.163  22.953   8.553
 7230POPC   D2A30244  22.192  22.936   8.253
 7230POPC   C3A30245  22.159  22.918   7.953
 7230POPC   C4A30246  22.133  22.907   7.653
 7230POPC   C1B30247  22.264  23.165   8.553
 7230POPC   C2B30248  22.281  23.140   8.253
 7230POPC   C3B30249  22.270  23.157   7.953
 7230POPC   C4B30250  22.227  23.143   7.653
 7231POPC   NC330251  39.222  20.638   9.453
 7231POPC   PO430252  39.230  20.621   9.153
 7231POPC   GL130253  39.214  20.593   8.853
 7231POPC   GL230254  39.310  20.470   8.853
 7231POPC   C1A30255  39.249  20.564   8.553
 7231POPC   D2A30256  39.230  20.640   8.253
 7231POPC   C3A30257  39.229  20.576   7.953
 7231POPC   C4A30258  39.191  20.645   7.653
 7231POPC   C1B30259  39.369  20.455   8.553
 7231POPC   C2B30260  39.419  20.403   8.253
 7231POPC   C3B30261  39.436  20.442   7.953
 7231POPC   C4B30262  39.392  20.412   7.653
 7232POPC   NC330263  14.403  16.766   9.453
 7232POPC   PO430264  14.423  16.749   9.153
 7232POPC   GL130265  14.428  16.726   8.853
 7232POPC   GL230266  14.332  16.831   8.853
 7232POPC   C1A30267  14.410  16.727   8.553
 7232POPC   D2A30268  14.381  16.709   8.253
 7232POPC   C3A30269  14.391  16.689   7.953
 7232POPC   C4A30270  14.391  16.761   7.653
 7232POPC   C1B30271  14.310  16.911   8.553
 7232POPC   C2B30272  14.298  16.897   8.253
 7232POPC   C3B30273  14.275  16.930   7.953
 7232POPC   C4B30274  14.301  16.925   7.653
 7233POPC   NC330275  26.859   4.362   9.453
 7233POPC   PO430276  26.819   4.271   9.153
 7233POPC   GL130277  26.799   4.304   8.853
 7233POPC   GL230278  26.807   4.459   8.853
 7233POPC   C1A30279  26.774   4.296   8.553
 7233POPC   D2A30280  26.854   4.272   8.253
 7233POPC   C3A30281  26.826   4.281   7.953
 7233POPC   C4A30282  26.805   4.366   7.653
 7233POPC   C1B30283  26.860   4.572   8.553
 7233POPC   C2B30284  26.819   4.595   8.253
 7233POPC   C3B30285  26.773   4.611   7.953
 7233POPC   C4B30286  26.816   4.518   7.653
 7234POPC   NC330287  41.587  39.207   9.453
 7234POPC   PO430288  41.566  39.196   9.153
 7234POPC   GL130289  41.578  39.232   8.853
 7234POPC   GL230290  41.600  39.063   8.853
 7234POPC   C1A30291  41.535  39.262   8.553
 7234POPC   D2A30292  41.564  39.279   8.253
 7234POPC   C3A30293  41.586  39.274   7.953
 7234POPC   C4A30294  41.534  39.266   7.653
 7234POPC   C1B30295  41.580  39.018   8.553
 7234POPC   C2B30296  41.573  38.944   8.253
 7234POPC   C3B30297  41.533  38.987   7.953
 7234POPC   C4B30298  41.592  38.932   7.653
 7235POPC   NC330299   5.094  22.185   9.453
 7235POPC   PO430300   5.085  22.198   9.153
 7235POPC   GL130301   5.134  22.143   8.853
 7235POPC   GL230302   5.030  22.288   8.853
 7235POPC   C1A30303   5.098  22.178   8.553
 7235POPC   D2A30304   5.043  22.152   8.253
 7235POPC   C3A30305   5.078  22.154   7.953
 7235POPC   C4A30306   5.063  22.174   7.653
 7235POPC   C1B30307   4.850  22.355   8.553
 7235POPC   C2B30308   4.881  22.295   8.253
 7235POPC   C3B30309   4.866  22.274   7.953
 7235POPC   C4B30310   4.925  22.284   7.653
 7236POPC   NC330311  38.465  15.210   9.453
 7236POPC   PO430312  38.445  15.187   9.153
 7236POPC   GL130313  38.473  15.168   8.853
 7236POPC   GL230314  38.343  15.206   8.853
 7236POPC   C1A30315  38.485  15.191   8.553
 7236POPC   D2A30316  38.418  15.227   8.253
 7236POPC   C3A30317  38.405  15.137   7.953
 7236POPC   C4A30318  38.407  15.152   7.653
 7236POPC   C1B30319  38.185  15.246   8.553
 7236POPC   C2B30320  38.171  15.287   8.253
 7236POPC   C3B30321  38.194  15.196   7.953
 7236POPC   C4B30322  38.225  15.214   7.653
 7237POPC   NC330323  18.291   0.477   9.453
 7237POPC   PO430324  18.246   0.447   9.153
 7237POPC   GL130325  18.292   0.449   8.853
 7237POPC   GL230326  18.348   0.554   8.853
 7237POPC   C1A30327  18.286   0.437   8.553
 7237POPC   D2A30328  18.257   0.447   8.253
 7237POPC   C3A30329  18.306   0.424   7.953
 7237POPC   C4A30330  18.318   0.479   7.653
 7237POPC   C1B30331  18.295   0.658   8.553
 7237POPC   C2B30332  18.385   0.712   8.253
 7237POPC   C3B30333  18.351   0.665   7.953
 7237POPC   C4B30334  18.383   0.686   7.653
 7238POPC   NC330335  10.563  36.115   9.453
 7238POPC   PO430336  10.509  36.088   9.153
 7238POPC   GL130337  10.482  36.120   8.853
 7238POPC   GL230338  10.420  36.143   8.853
 7238POPC   C1A30339  10.539  36.158   8.553
 7238POPC   D2A30340  10.483  36.111   8.253
 7238POPC   C3A30341  10.568  36.100   7.953
 7238POPC   C4A30342  10.572  36.082   7.653
 7238POPC   C1B30343  10.292  36.111   8.553
 7238POPC   C2B30344  10.291  36.153   8.253
 7238POPC   C3B30345  10.235  36.117   7.953
 7238POPC   C4B30346  10.270  36.138   7.653
 7239POPC   NC330347  17.472  42.307   9.453
 7239POPC   PO430348  17.535  42.300   9.153
 7239POPC   GL130349  17.524  42.321   8.853
 7239POPC   GL230350  17.581  42.213   8.853
 7239POPC   C1A30351  17.472  42.334   8.553
 7239POPC   D2A30352  17.498  42.349   8.253
 7239POPC   C3A30353  17.515  42.289   7.953
 7239POPC   C4A30354  17.548  42.297   7.653
 7239POPC   C1B30355  17.558  42.121   8.553
 7239POPC   C2B30356  17.555  42.110   8.253
 7239POPC   C3B30357  17.607  42.096   7.953
 7239POPC   C4B30358  17.602  42.119   7.653
 7240POPC   NC330359  34.544  17.545   9.453
 7240POPC   PO430360  34.616  17.488   9.153
 7240POPC   GL130361  34.542  17.521   8.853
 7240POPC   GL230362  34.617  17.664   8.853
 7240POPC   C1A30363  34.534  17.482   8.553
 7240POPC   D2A30364  34.553  17.508   8.253
 7240POPC   C3A30365  34.624  17.462   7.953
 7240POPC   C4A30366  34.568  17.483   7.653
 7240POPC   C1B30367  34.616  17.743   8.553
 7240POPC   C2B30368  34.626  17.759   8.253
 7240POPC   C3B30369  34.601  17.758   7.953
 7240POPC   C4B30370  34.625  17.764   7.653
 7241POPC   NC330371  10.528  35.336   9.453
 7241POPC   PO430372  10.537  35.357   9.153
 7241POPC   GL130373  10.482  35.314   8.853
 7241POPC   GL230374  10.443  35.276   8.853
 7241POPC   C1A30375  10.557  35.357   8.553
 7241POPC   D2A30376  10.548  35.337   8.253
 7241POPC   C3A30377  10.475  35.316   7.953
 7241POPC   C4A30378  10.481  35.384   7.653
 7241POPC   C1B30379  10.383  35.147   8.553
 7241POPC   C2B30380  10.451  35.150   8.253
 7241POPC   C3B30381  10.446  35.173   7.953
 7241POPC   C4B30382  10.460  35.159   7.653
 7242POPC   NC330383  12.078  40.771   9.453
 7242POPC   PO430384  12.046  40.817   9.153
 7242POPC   GL130385  12.058  40.784   8.853
 7242POPC   GL230386  11.993  40.888   8.853
 7242POPC   C1A30387  12.102  40.760   8.553
 7242POPC   D2A30388  12.054  40.774   8.253
 7242POPC   C3A30389  12.096  40.789   7.953
 7242POPC   C4A30390  12.040  40.777   7.653
 7242POPC   C1B30391  11.844  40.918   8.553
 7242POPC   C2B30392  11.829  40.895   8.253
 7242POPC   C3B30393  11.868  40.966   7.953
 7242POPC   C4B30394  11.891  40.946   7.653
 7243POPC   NC330395  37.683  12.807   9.453
 7243POPC   PO430396  37.666  12.862   9.153
 7243POPC   GL130397  37.632  12.871   8.853
 7243POPC   GL230398  37.635  12.763   8.853
 7243POPC   C1A30399  37.647  12.901   8.553
 7243POPC   D2A30400  37.708  12.869   8.253
 7243POPC   C3A30401  37.685  12.870   7.953
 7243POPC   C4A30402  37.675  12.873   7.653
 7243POPC   C1B30403  37.554  12.695   8.553
 7243POPC   C2B30404  37.520  12.630   8.253
 7243POPC   C3B30405  37.506  12.699   7.953
 7243POPC   C4B30406  37.546  12.676   7.653
 7244POPC   NC330407  44.646  22.188   9.453
 7244POPC   PO430408  44.636  22.186   9.153
 7244POPC   GL130409  44.628  22.144   8.853
 7244POPC   GL230410  44.711  22.241   8.853
 7244POPC   C1A30411  44.660  22.150   8.553
 7244POPC   D2A30412  44.691  22.136   8.253
 7244POPC   C3A30413  44.622  22.129   7.953
 7244POPC   C4A30414  44.642  22.146   7.653
 7244POPC   C1B30415  44.688  22.444   8.553
 7244POPC   C2B30416  44.657  22.461   8.253
 7244POPC   C3B30417  44.687  22.460   7.953
 7244POPC   C4B30418  44.627  22.454   7.653
 7245POPC   NC330419  10.504  43.108   9.453
 7245POPC   PO430420  10.487  43.089   9.153
 7245POPC   GL130421  10.509  43.111   8.853
 7245POPC   GL230422  10.659  43.163   8.853
 7245POPC   C1A30423  10.532  43.131   8.553
 7245POPC   D2A30424  10.537  43.070   8.253
 7245POPC   C3A30425  10.495  43.146   7.953
 7245POPC   C4A30426  10.511  43.074   7.653
 7245POPC   C1B30427  10.783  43.168   8.553
 7245POPC   C2B30428  10.729  43.201   8.253
 7245POPC   C3B30429  10.799  43.178   7.953
 7245POPC   C4B30430  10.738  43.188   7.653
 7246POPC   NC330431  10.565  26.001   9.453
 7246POPC   PO430432  10.515  26.066   9.153
 7246POPC   GL130433  10.527  26.080   8.853
 7246POPC   GL230434  10.437  25.919   8.853
 7246POPC   C1A30435  10.565  26.034   8.553
 7246POPC   D2A30436  10.551  26.074   8.253
 7246POPC   C3A30437  10.536  26.088   7.953
 7246POPC   C4A30438  10.490  26.001   7.653
 7246POPC   C1B30439  10.382  25.873   8.553
 7246POPC   C2B30440  10.324  25.885   8.253
 7246POPC   C3B30441  10.363  25.867   7.953
 7246POPC   C4B30442  10.341  25.804   7.653
 7247POPC   NC330443  12.042  24.452   9.453
 7247POPC   PO430444  12.093  24.459   9.153
 7247POPC   GL130445  12.108  24.517   8.853
 7247POPC   GL230446  11.982  24.461   8.853
 7247POPC   C1A30447  12.103  24.491   8.553
 7247POPC   D2A30448  12.112  24.472   8.253
 7247POPC   C3A30449  12.093  24.511   7.953
 7247POPC   C4A30450  12.126  24.467   7.653
 7247POPC   C1B30451  11.898  24.389   8.553
 7247POPC   C2B30452  11.815  24.369   8.253
 7247POPC   C3B30453  11.823  24.351   7.953
 7247POPC   C4B30454  11.890  24.359   7.653
 7248POPC   NC330455  18.249   6.627   9.453
 7248POPC   PO430456  18.296   6.600   9.153
 7248POPC   GL130457  18.254   6.638   8.853
 7248POPC   GL230458  18.245   6.550   8.853
 7248POPC   C1A30459  18.244   6.623   8.553
 7248POPC   D2A30460  18.299   6.658   8.253
 7248POPC   C3A30461  18.275   6.602   7.953
 7248POPC   C4A30462  18.277   6.631   7.653
 7248POPC   C1B30463  18.267   6.379   8.553
 7248POPC   C2B30464  18.281   6.398   8.253
 7248POPC   C3B30465  18.314   6.428   7.953
 7248POPC   C4B30466  18.255   6.423   7.653
 7249POPC   NC330467  12.049  28.382   9.453
 7249POPC   PO430468  12.126  28.386   9.153
 7249POPC   GL130469  12.105  28.340   8.853
 7249POPC   GL230470  11.977  28.305   8.853
 7249POPC   C1A30471  12.124  28.347   8.553
 7249POPC   D2A30472  12.090  28.335   8.253
 7249POPC   C3A30473  12.095  28.400   7.953
 7249POPC   C4A30474  12.078  28.409   7.653
 7249POPC   C1B30475  11.857  28.155   8.553
 7249POPC   C2B30476  11.879  28.176   8.253
 7249POPC   C3B30477  11.894  28.224   7.953
 7249POPC   C4B30478  11.936  28.186   7.653
 7250POPC   NC330479  31.510  27.603   9.453
 7250POPC   PO430480  31.435  27.592   9.153
 7250POPC   GL130481  31.497  27.563   8.853
 7250POPC   GL230482  31.392  27.700   8.853
 7250POPC   C1A30483  31.438  27.547   8.553
 7250POPC   D2A30484  31.426  27.601   8.253
 7250POPC   C3A30485  31.517  27.625   7.953
 7250POPC   C4A30486  31.490  27.595   7.653
 7250POPC   C1B30487  31.254  27.767   8.553
 7250POPC   C2B30488  31.283  27.755   8.253
 7250POPC   C3B30489  31.325  27.747   7.953
 7250POPC   C4B30490  31.258  27.750   7.653
 7251POPC   NC330491  15.142   8.191   9.453
 7251POPC   PO430492  15.174   8.246   9.153
 7251POPC   GL130493  15.141   8.233   8.853
 7251POPC   GL230494  15.275   8.157   8.853
 7251POPC   C1A30495  15.135   8.166   8.553
 7251POPC   D2A30496  15.211   8.197   8.253
 7251POPC   C3A30497  15.212   8.161   7.953
 7251POPC   C4A30498  15.174   8.213   7.653
 7251POPC   C1B30499  15.380   8.019   8.553
 7251POPC   C2B30500  15.414   8.010   8.253
 7251POPC   C3B30501  15.351   8.013   7.953
 7251POPC   C4B30502  15.353   8.033   7.653
 7252POPC   NC330503   3.508  11.308   9.453
 7252POPC   PO430504   3.523  11.344   9.153
 7252POPC   GL130505   3.561  11.348   8.853
 7252POPC   GL230506   3.592  11.210   8.853
 7252POPC   C1A30507   3.565  11.325   8.553
 7252POPC   D2A30508   3.539  11.338   8.253
 7252POPC   C3A30509   3.587  11.314   7.953
 7252POPC   C4A30510   3.493  11.255   7.653
 7252POPC   C1B30511   3.692  11.069   8.553
 7252POPC   C2B30512   3.650  11.109   8.253
 7252POPC   C3B30513   3.623  11.066   7.953
 7252POPC   C4B30514   3.637  11.073   7.653
 7253POPC   NC330515  42.381  38.464   9.453
 7253POPC   PO430516  42.316  38.429   9.153
 7253POPC   GL130517  42.292  38.432   8.853
 7253POPC   GL230518  42.449  38.469   8.853
 7253POPC   C1A30519  42.303  38.432   8.553
 7253POPC   D2A30520  42.378  38.486   8.253
 7253POPC   C3A30521  42.337  38.468   7.953
 7253POPC   C4A30522  42.290  38.450   7.653
 7253POPC   C1B30523  42.590  38.564   8.553
 7253POPC   C2B30524  42.571  38.468   8.253
 7253POPC   C3B30525  42.537  38.485   7.953
 7253POPC   C4B30526  42.600  38.469   7.653
 7254POPC   NC330527   3.511  37.717   9.453
 7254POPC   PO430528   3.537  37.697   9.153
 7254POPC   GL130529   3.563  37.722   8.853
 7254POPC   GL230530   3.407  37.734   8.853
 7254POPC   C1A30531   3.548  37.634   8.553
 7254POPC   D2A30532   3.544  37.666   8.253
 7254POPC   C3A30533   3.571  37.699   7.953
 7254POPC   C4A30534   3.587  37.669   7.653
 7254POPC   C1B30535   3.324  37.787   8.553
 7254POPC   C2B30536   3.273  37.731   8.253
 7254POPC   C3B30537   3.353  37.803   7.953
 7254POPC   C4B30538   3.271  37.766   7.653
 7255POPC   NC330539   2.812  11.316   9.453
 7255POPC   PO430540   2.752  11.304   9.153
 7255POPC   GL130541   2.755  11.313   8.853
 7255POPC   GL230542   2.647  11.228   8.853
 7255POPC   C1A30543   2.783  11.303   8.553
 7255POPC   D2A30544   2.779  11.338   8.253
 7255POPC   C3A30545   2.780  11.278   7.953
 7255POPC   C4A30546   2.728  11.255   7.653
 7255POPC   C1B30547   2.607  11.081   8.553
 7255POPC   C2B30548   2.607  11.079   8.253
 7255POPC   C3B30549   2.628  11.068   7.953
 7255POPC   C4B30550   2.590  11.162   7.653
 7256POPC   NC330551  44.620  32.999   9.453
 7256POPC   PO430552  44.682  33.065   9.153
 7256POPC   GL130553  44.693  32.988   8.853
 7256POPC   GL230554  44.791  33.088   8.853
 7256POPC   C1A30555  44.672  33.021   8.553
 7256POPC   D2A30556  44.667  33.052   8.253
 7256POPC   C3A30557  44.699  33.069   7.953
 7256POPC   C4A30558  44.651  33.045   7.653
 7256POPC   C1B30559  44.827  33.157   8.553
 7256POPC   C2B30560  44.843  33.208   8.253
 7256POPC   C3B30561  44.890  33.222   7.953
 7256POPC   C4B30562  44.833  33.154   7.653
 7257POPC   NC330563   1.252   4.349   9.453
 7257POPC   PO430564   1.165   4.341   9.153
 7257POPC   GL130565   1.252   4.359   8.853
 7257POPC   GL230566   1.315   4.269   8.853
 7257POPC   C1A30567   1.193   4.293   8.553
 7257POPC   D2A30568   1.224   4.316   8.253
 7257POPC   C3A30569   1.183   4.292   7.953
 7257POPC   C4A30570   1.252   4.334   7.653
 7257POPC   C1B30571   1.323   4.130   8.553
 7257POPC   C2B30572   1.323   4.091   8.253
 7257POPC   C3B30573   1.403   4.161   7.953
 7257POPC   C4B30574   1.409   4.147   7.653
 7258POPC   NC330575  18.234   5.881   9.453
 7258POPC   PO430576  18.275   5.836   9.153
 7258POPC   GL130577  18.263   5.853   8.853
 7258POPC   GL230578  18.334   5.784   8.853
 7258POPC   C1A30579  18.254   5.917   8.553
 7258POPC   D2A30580  18.306   5.888   8.253
 7258POPC   C3A30581  18.258   5.911   7.953
 7258POPC   C4A30582  18.305   5.873   7.653
 7258POPC   C1B30583  18.509   5.647   8.553
 7258POPC   C2B30584  18.452   5.664   8.253
 7258POPC   C3B30585  18.422   5.651   7.953
 7258POPC   C4B30586  18.418   5.720   7.653
 7259POPC   NC330587  19.844   9.702   9.453
 7259POPC   PO430588  19.878   9.759   9.153
 7259POPC   GL130589  19.854   9.707   8.853
 7259POPC   GL230590  19.887   9.638   8.853
 7259POPC   C1A30591  19.827   9.778   8.553
 7259POPC   D2A30592  19.851   9.723   8.253
 7259POPC   C3A30593  19.829   9.736   7.953
 7259POPC   C4A30594  19.838   9.758   7.653
 7259POPC   C1B30595  19.923   9.532   8.553
 7259POPC   C2B30596  19.955   9.555   8.253
 7259POPC   C3B30597  20.004   9.516   7.953
 7259POPC   C4B30598  19.960   9.551   7.653
 7260POPC   NC330599  33.050  36.151   9.453
 7260POPC   PO430600  33.049  36.083   9.153
 7260POPC   GL130601  33.046  36.172   8.853
 7260POPC   GL230602  33.147  36.106   8.853
 7260POPC   C1A30603  33.015  36.158   8.553
 7260POPC   D2A30604  32.997  36.173   8.253
 7260POPC   C3A30605  32.996  36.169   7.953
 7260POPC   C4A30606  33.049  36.105   7.653
 7260POPC   C1B30607  33.307  36.110   8.553
 7260POPC   C2B30608  33.266  36.097   8.253
 7260POPC   C3B30609  33.255  36.045   7.953
 7260POPC   C4B30610  33.306  36.142   7.653
 7261POPC   NC330611   1.170  23.737   9.453
 7261POPC   PO430612   1.213  23.678   9.153
 7261POPC   GL130613   1.233  23.749   8.853
 7261POPC   GL230614   1.317  23.828   8.853
 7261POPC   C1A30615   1.179  23.731   8.553
 7261POPC   D2A30616   1.213  23.694   8.253
 7261POPC   C3A30617   1.175  23.751   7.953
 7261POPC   C4A30618   1.244  23.670   7.653
 7261POPC   C1B30619   1.359  23.920   8.553
 7261POPC   C2B30620   1.441  23.889   8.253
 7261POPC   C3B30621   1.408  23.863   7.953
 7261POPC   C4B30622   1.380  23.849   7.653
 7262POPC   NC330623  35.374  31.504   9.453
 7262POPC   PO430624  35.323  31.448   9.153
 7262POPC   GL130625  35.393  31.482   8.853
 7262POPC   GL230626  35.386  31.593   8.853
 7262POPC   C1A30627  35.302  31.505   8.553
 7262POPC   D2A30628  35.337  31.424   8.253
 7262POPC   C3A30629  35.369  31.479   7.953
 7262POPC   C4A30630  35.383  31.460   7.653
 7262POPC   C1B30631  35.383  31.745   8.553
 7262POPC   C2B30632  35.395  31.730   8.253
 7262POPC   C3B30633  35.317  31.714   7.953
 7262POPC   C4B30634  35.369  31.748   7.653
 7263POPC   NC330635  44.647  42.349   9.453
 7263POPC   PO430636  44.696  42.286   9.153
 7263POPC   GL130637  44.644  42.323   8.853
 7263POPC   GL230638  44.825  42.307   8.853
 7263POPC   C1A30639  44.702  42.352   8.553
 7263POPC   D2A30640  44.677  42.359   8.253
 7263POPC   C3A30641  44.637  42.381   7.953
 7263POPC   C4A30642  44.673  42.339   7.653
 7263POPC   C1B30643  44.911  42.322   8.553
 7263POPC   C2B30644  44.892  42.350   8.253
 7263POPC   C3B30645  44.867  42.274   7.953
 7263POPC   C4B30646  44.945  42.341   7.653
 7264POPC   NC330647  12.814  29.119   9.453
 7264POPC   PO430648  12.837  29.147   9.153
 7264POPC   GL130649  12.803  29.144   8.853
 7264POPC   GL230650  12.957  29.068   8.853
 7264POPC   C1A30651  12.866  29.159   8.553
 7264POPC   D2A30652  12.827  29.134   8.253
 7264POPC   C3A30653  12.820  29.139   7.953
 7264POPC   C4A30654  12.896  29.101   7.653
 7264POPC   C1B30655  13.092  29.105   8.553
 7264POPC   C2B30656  13.048  29.064   8.253
 7264POPC   C3B30657  13.099  29.086   7.953
 7264POPC   C4B30658  13.077  29.097   7.653
 7265POPC   NC330659  35.359  39.268   9.453
 7265POPC   PO430660  35.308  39.255   9.153
 7265POPC   GL130661  35.358  39.242   8.853
 7265POPC   GL230662  35.379  39.153   8.853
 7265POPC   C1A30663  35.378  39.261   8.553
 7265POPC   D2A30664  35.389  39.280   8.253
 7265POPC   C3A30665  35.353  39.206   7.953
 7265POPC   C4A30666  35.366  39.216   7.653
 7265POPC   C1B30667  35.363  39.026   8.553
 7265POPC   C2B30668  35.280  38.951   8.253
 7265POPC   C3B30669  35.373  38.997   7.953
 7265POPC   C4B30670  35.346  38.990   7.653
 7266POPC   NC330671   3.568   4.306   9.453
 7266POPC   PO430672   3.573   4.363   9.153
 7266POPC   GL130673   3.553   4.284   8.853
 7266POPC   GL230674   3.607   4.428   8.853
 7266POPC   C1A30675   3.585   4.363   8.553
 7266POPC   D2A30676   3.566   4.326   8.253
 7266POPC   C3A30677   3.523   4.341   7.953
 7266POPC   C4A30678   3.499   4.355   7.653
 7266POPC   C1B30679   3.659   4.547   8.553
 7266POPC   C2B30680   3.735   4.460   8.253
 7266POPC   C3B30681   3.737   4.465   7.953
 7266POPC   C4B30682   3.722   4.481   7.653
 7267POPC   NC330683  40.738  32.255   9.453
 7267POPC   PO430684  40.763  32.270   9.153
 7267POPC   GL130685  40.754  32.214   8.853
 7267POPC   GL230686  40.639  32.325   8.853
 7267POPC   C1A30687  40.742  32.223   8.553
 7267POPC   D2A30688  40.746  32.280   8.253
 7267POPC   C3A30689  40.753  32.232   7.953
 7267POPC   C4A30690  40.795  32.282   7.653
 7267POPC   C1B30691  40.591  32.340   8.553
 7267POPC   C2B30692  40.553  32.317   8.253
 7267POPC   C3B30693  40.538  32.401   7.953
 7267POPC   C4B30694  40.556  32.377   7.653
 7268POPC   NC330695  38.453  41.519   9.453
 7268POPC   PO430696  38.418  41.602   9.153
 7268POPC   GL130697  38.458  41.540   8.853
 7268POPC   GL230698  38.396  41.637   8.853
 7268POPC   C1A30699  38.453  41.584   8.553
 7268POPC   D2A30700  38.450  41.514   8.253
 7268POPC   C3A30701  38.422  41.530   7.953
 7268POPC   C4A30702  38.491  41.546   7.653
 7268POPC   C1B30703  38.320  41.705   8.553
 7268POPC   C2B30704  38.263  41.768   8.253
 7268POPC   C3B30705  38.292  41.724   7.953
 7268POPC   C4B30706  38.303  41.749   7.653
 7269POPC   NC330707  40.747  22.923   9.453
 7269POPC   PO430708  40.758  22.945   9.153
 7269POPC   GL130709  40.797  22.920   8.853
 7269POPC   GL230710  40.829  23.020   8.853
 7269POPC   C1A30711  40.809  22.901   8.553
 7269POPC   D2A30712  40.787  22.957   8.253
 7269POPC   C3A30713  40.778  22.902   7.953
 7269POPC   C4A30714  40.791  22.896   7.653
 7269POPC   C1B30715  40.932  23.091   8.553
 7269POPC   C2B30716  40.999  23.145   8.253
 7269POPC   C3B30717  41.013  23.085   7.953
 7269POPC   C4B30718  41.011  23.064   7.653
 7270POPC   NC330719  27.619  15.193   9.453
 7270POPC   PO430720  27.616  15.184   9.153
 7270POPC   GL130721  27.585  15.213   8.853
 7270POPC   GL230722  27.717  15.098   8.853
 7270POPC   C1A30723  27.551  15.151   8.553
 7270POPC   D2A30724  27.575  15.144   8.253
 7270POPC   C3A30725  27.597  15.166   7.953
 7270POPC   C4A30726  27.632  15.181   7.653
 7270POPC   C1B30727  27.833  15.108   8.553
 7270POPC   C2B30728  27.813  15.022   8.253
 7270POPC   C3B30729  27.851  15.024   7.953
 7270POPC   C4B30730  27.816  15.091   7.653
 7271POPC   NC330731  16.705  44.688   9.453
 7271POPC   PO430732  16.749  44.706   9.153
 7271POPC   GL130733  16.688  44.691   8.853
 7271POPC   GL230734  16.639  44.588   8.853
 7271POPC   C1A30735  16.712  44.674   8.553
 7271POPC   D2A30736  16.722  44.642   8.253
 7271POPC   C3A30737  16.714  44.667   7.953
 7271POPC   C4A30738  16.773  44.672   7.653
 7271POPC   C1B30739  16.533  44.539   8.553
 7271POPC   C2B30740  16.555  44.569   8.253
 7271POPC   C3B30741  16.529  44.511   7.953
 7271POPC   C4B30742  16.513  44.482   7.653
 7272POPC   NC330743  29.140  33.846   9.453
 7272POPC   PO430744  29.167  33.829   9.153
 7272POPC   GL130745  29.180  33.817   8.853
 7272POPC   GL230746  29.065  33.918   8.853
 7272POPC   C1A30747  29.180  33.784   8.553
 7272POPC   D2A30748  29.137  33.773   8.253
 7272POPC   C3A30749  29.144  33.792   7.953
 7272POPC   C4A30750  29.167  33.803   7.653
 7272POPC   C1B30751  28.991  33.916   8.553
 7272POPC   C2B30752  28.967  33.981   8.253
 7272POPC   C3B30753  28.972  33.908   7.953
 7272POPC   C4B30754  28.930  33.910   7.653
 7273POPC   NC330755  40.764  26.823   9.453
 7273POPC   PO430756  40.736  26.865   9.153
 7273POPC   GL130757  40.781  26.781   8.853
 7273POPC   GL230758  40.633  26.891   8.853
 7273POPC   C1A30759  40.787  26.809   8.553
 7273POPC   D2A30760  40.829  26.806   8.253
 7273POPC   C3A30761  40.770  26.776   7.953
 7273POPC   C4A30762  40.798  26.821   7.653
 7273POPC   C1B30763  40.532  26.904   8.553
 7273POPC   C2B30764  40.542  26.915   8.253
 7273POPC   C3B30765  40.538  26.905   7.953
 7273POPC   C4B30766  40.599  26.902   7.653
 7274POPC   NC330767  11.289  18.247   9.453
 7274POPC   PO430768  11.307  18.255   9.153
 7274POPC   GL130769  11.348  18.258   8.853
 7274POPC   GL230770  11.213  18.325   8.853
 7274POPC   C1A30771  11.322  18.286   8.553
 7274POPC   D2A30772  11.326  18.298   8.253
 7274POPC   C3A30773  11.281  18.280   7.953
 7274POPC   C4A30774  11.347  18.311   7.653
 7274POPC   C1B30775  11.116  18.337   8.553
 7274POPC   C2B30776  11.079  18.336   8.253
 7274POPC   C3B30777  11.077  18.410   7.953
 7274POPC   C4B30778  11.059  18.407   7.653
 7275POPC   NC330779  37.700  17.521   9.453
 7275POPC   PO430780  37.639  17.470   9.153
 7275POPC   GL130781  37.664  17.552   8.853
 7275POPC   GL230782  37.690  17.635   8.853
 7275POPC   C1A30783  37.665  17.519   8.553
 7275POPC   D2A30784  37.695  17.532   8.253
 7275POPC   C3A30785  37.672  17.516   7.953
 7275POPC   C4A30786  37.637  17.471   7.653
 7275POPC   C1B30787  37.826  17.720   8.553
 7275POPC   C2B30788  37.742  17.735   8.253
 7275POPC   C3B30789  37.758  17.714   7.953
 7275POPC   C4B30790  37.796  17.700   7.653
 7276POPC   NC330791  24.534  33.050   9.453
 7276POPC   PO430792  24.517  33.024   9.153
 7276POPC   GL130793  24.521  33.065   8.853
 7276POPC   GL230794  24.641  33.100   8.853
 7276POPC   C1A30795  24.477  32.993   8.553
 7276POPC   D2A30796  24.491  32.994   8.253
 7276POPC   C3A30797  24.451  33.047   7.953
 7276POPC   C4A30798  24.532  33.072   7.653
 7276POPC   C1B30799  24.724  33.145   8.553
 7276POPC   C2B30800  24.685  33.126   8.253
 7276POPC   C3B30801  24.713  33.082   7.953
 7276POPC   C4B30802  24.715  33.122   7.653
 7277POPC   NC330803   3.519   9.717   9.453
 7277POPC   PO430804   3.514   9.725   9.153
 7277POPC   GL130805   3.560   9.701   8.853
 7277POPC   GL230806   3.640   9.722   8.853
 7277POPC   C1A30807   3.533   9.713   8.553
 7277POPC   D2A30808   3.533   9.732   8.253
 7277POPC   C3A30809   3.494   9.783   7.953
 7277POPC   C4A30810   3.530   9.709   7.653
 7277POPC   C1B30811   3.730   9.606   8.553
 7277POPC   C2B30812   3.712   9.565   8.253
 7277POPC   C3B30813   3.760   9.633   7.953
 7277POPC   C4B30814   3.743   9.555   7.653
 7278POPC   NC330815  26.823  17.489   9.453
 7278POPC   PO430816  26.841  17.523   9.153
 7278POPC   GL130817  26.787  17.522   8.853
 7278POPC   GL230818  26.782  17.653   8.853
 7278POPC   C1A30819  26.825  17.457   8.553
 7278POPC   D2A30820  26.830  17.482   8.253
 7278POPC   C3A30821  26.784  17.522   7.953
 7278POPC   C4A30822  26.849  17.513   7.653
 7278POPC   C1B30823  26.684  17.734   8.553
 7278POPC   C2B30824  26.649  17.679   8.253
 7278POPC   C3B30825  26.695  17.683   7.953
 7278POPC   C4B30826  26.690  17.715   7.653
 7279POPC   NC330827   8.219  19.785   9.453
 7279POPC   PO430828   8.168  19.809   9.153
 7279POPC   GL130829   8.226  19.828   8.853
 7279POPC   GL230830   8.296  19.805   8.853
 7279POPC   C1A30831   8.152  19.884   8.553
 7279POPC   D2A30832   8.202  19.876   8.253
 7279POPC   C3A30833   8.220  19.787   7.953
 7279POPC   C4A30834   8.211  19.813   7.653
 7279POPC   C1B30835   8.422  19.715   8.553
 7279POPC   C2B30836   8.413  19.659   8.253
 7279POPC   C3B30837   8.383  19.644   7.953
 7279POPC   C4B30838   8.376  19.645   7.653
 7280POPC   NC330839   1.216  42.323   9.453
 7280POPC   PO430840   1.257  42.322   9.153
 7280POPC   GL130841   1.168  42.381   8.853
 7280POPC   GL230842   1.080  42.273   8.853
 7280POPC   C1A30843   1.228  42.295   8.553
 7280POPC   D2A30844   1.257  42.295   8.253
 7280POPC   C3A30845   1.243  42.328   7.953
 7280POPC   C4A30846   1.213  42.357   7.653
 7280POPC   C1B30847   1.012  42.179   8.553
 7280POPC   C2B30848   1.074  42.167   8.253
 7280POPC   C3B30849   1.079  42.139   7.953
 7280POPC   C4B30850   1.014  42.164   7.653
 7281POPC   NC330851  21.392  39.232   9.453
 7281POPC   PO430852  21.340  39.247   9.153
 7281POPC   GL130853  21.415  39.274   8.853
 7281POPC   GL230854  21.488  39.122   8.853
 7281POPC   C1A30855  21.394  39.231   8.553
 7281POPC   D2A30856  21.340  39.223   8.253
 7281POPC   C3A30857  21.432  39.226   7.953
 7281POPC   C4A30858  21.389  39.209   7.653
 7281POPC   C1B30859  21.540  39.030   8.553
 7281POPC   C2B30860  21.549  38.998   8.253
 7281POPC   C3B30861  21.521  39.016   7.953
 7281POPC   C4B30862  21.492  38.975   7.653
 7282POPC   NC330863   6.628  34.605   9.453
 7282POPC   PO430864   6.606  34.561   9.153
 7282POPC   GL130865   6.618  34.615   8.853
 7282POPC   GL230866   6.681  34.653   8.853
 7282POPC   C1A30867   6.635  34.609   8.553
 7282POPC   D2A30868   6.606  34.571   8.253
 7282POPC   C3A30869   6.646  34.605   7.953
 7282POPC   C4A30870   6.679  34.591   7.653
 7282POPC   C1B30871   6.761  34.815   8.553
 7282POPC   C2B30872   6.743  34.797   8.253
 7282POPC   C3B30873   6.733  34.804   7.953
 7282POPC   C4B30874   6.797  34.778   7.653
 7283POPC   NC330875  22.200  12.821   9.453
 7283POPC   PO430876  22.117  12.802   9.153
 7283POPC   GL130877  22.194  12.836   8.853
 7283POPC   GL230878  22.086  12.933   8.853
 7283POPC   C1A30879  22.117  12.837   8.553
 7283POPC   D2A30880  22.113  12.829   8.253
 7283POPC   C3A30881  22.148  12.844   7.953
 7283POPC   C4A30882  22.207  12.842   7.653
 7283POPC   C1B30883  22.109  13.092   8.553
 7283POPC   C2B30884  22.101  13.118   8.253
 7283POPC   C3B30885  22.023  13.076   7.953
 7283POPC   C4B30886  22.063  13.085   7.653
 7284POPC   NC330887  20.621  21.369   9.453
 7284POPC   PO430888  20.567  21.393   9.153
 7284POPC   GL130889  20.597  21.386   8.853
 7284POPC   GL230890  20.511  21.418   8.853
 7284POPC   C1A30891  20.573  21.389   8.553
 7284POPC   D2A30892  20.570  21.375   8.253
 7284POPC   C3A30893  20.652  21.390   7.953
 7284POPC   C4A30894  20.569  21.432   7.653
 7284POPC   C1B30895  20.408  21.494   8.553
 7284POPC   C2B30896  20.361  21.474   8.253
 7284POPC   C3B30897  20.409  21.506   7.953
 7284POPC   C4B30898  20.338  21.452   7.653
 7285POPC   NC330899  28.398  21.369   9.453
 7285POPC   PO430900  28.348  21.393   9.153
 7285POPC   GL130901  28.416  21.401   8.853
 7285POPC   GL230902  28.469  21.329   8.853
 7285POPC   C1A30903  28.377  21.353   8.553
 7285POPC   D2A30904  28.341  21.404   8.253
 7285POPC   C3A30905  28.343  21.401   7.953
 7285POPC   C4A30906  28.347  21.434   7.653
 7285POPC   C1B30907  28.565  21.290   8.553
 7285POPC   C2B30908  28.567  21.297   8.253
 7285POPC   C3B30909  28.586  21.248   7.953
 7285POPC   C4B30910  28.588  21.211   7.653
 7286POPC   NC330911  11.251  21.424   9.453
 7286POPC   PO430912  11.264  21.420   9.153
 7286POPC   GL130913  11.308  21.363   8.853
 7286POPC   GL230914  11.458  21.327   8.853
 7286POPC   C1A30915  11.331  21.337   8.553
 7286POPC   D2A30916  11.337  21.367   8.253
 7286POPC   C3A30917  11.342  21.341   7.953
 7286POPC   C4A30918  11.336  21.382   7.653
 7286POPC   C1B30919  11.535  21.402   8.553
 7286POPC   C2B30920  11.504  21.388   8.253
 7286POPC   C3B30921  11.598  21.377   7.953
 7286POPC   C4B30922  11.526  21.318   7.653
 7287POPC   NC330923  36.101  29.155   9.453
 7287POPC   PO430924  36.119  29.175   9.153
 7287POPC   GL130925  36.111  29.141   8.853
 7287POPC   GL230926  36.122  29.262   8.853
 7287POPC   C1A30927  36.147  29.096   8.553
 7287POPC   D2A30928  36.134  29.185   8.253
 7287POPC   C3A30929  36.170  29.110   7.953
 7287POPC   C4A30930  36.111  29.179   7.653
 7287POPC   C1B30931  36.128  29.438   8.553
 7287POPC   C2B30932  36.178  29.407   8.253
 7287POPC   C3B30933  36.119  29.402   7.953
 7287POPC   C4B30934  36.195  29.389   7.653
 7288POPC   NC330935  16.703  21.361   9.453
 7288POPC   PO430936  16.780  21.385   9.153
 7288POPC   GL130937  16.713  21.390   8.853
 7288POPC   GL230938  16.795  21.407   8.853
 7288POPC   C1A30939  16.760  21.353   8.553
 7288POPC   D2A30940  16.722  21.435   8.253
 7288POPC   C3A30941  16.770  21.393   7.953
 7288POPC   C4A30942  16.694  21.351   7.653
 7288POPC   C1B30943  16.974  21.512   8.553
 7288POPC   C2B30944  16.948  21.518   8.253
 7288POPC   C3B30945  16.917  21.488   7.953
 7288POPC   C4B30946  16.933  21.547   7.653
 7289POPC   NC330947  31.482  43.917   9.453
 7289POPC   PO430948  31.491  43.911   9.153
 7289POPC   GL130949  31.467  43.888   8.853
 7289POPC   GL230950  31.396  43.829   8.853
 7289POPC   C1A30951  31.457  43.888   8.553
 7289POPC   D2A30952  31.499  43.869   8.253
 7289POPC   C3A30953  31.452  43.906   7.953
 7289POPC   C4A30954  31.451  43.925   7.653
 7289POPC   C1B30955  31.221  43.794   8.553
 7289POPC   C2B30956  31.200  43.827   8.253
 7289POPC   C3B30957  31.235  43.863   7.953
 7289POPC   C4B30958  31.272  43.778   7.653
 7290POPC   NC330959   8.991  15.968   9.453
 7290POPC   PO430960   8.975  15.994   9.153
 7290POPC   GL130961   8.927  15.977   8.853
 7290POPC   GL230962   9.059  15.959   8.853
 7290POPC   C1A30963   8.981  15.924   8.553
 7290POPC   D2A30964   8.997  15.985   8.253
 7290POPC   C3A30965   9.015  15.946   7.953
 7290POPC   C4A30966   9.007  15.924   7.653
 7290POPC   C1B30967   9.185  16.046   8.553
 7290POPC   C2B30968   9.181  15.993   8.253
 7290POPC   C3B30969   9.179  16.052   7.953
 7290POPC   C4B30970   9.171  15.998   7.653
 7291POPC   NC330971   5.128  39.981   9.453
 7291POPC   PO430972   5.137  40.020   9.153
 7291POPC   GL130973   5.129  40.019   8.853
 7291POPC   GL230974   4.987  39.922   8.853
 7291POPC   C1A30975   5.095  40.051   8.553
 7291POPC   D2A30976   5.059  39.988   8.253
 7291POPC   C3A30977   5.067  40.027   7.953
 7291POPC   C4A30978   5.132  39.981   7.653
 7291POPC   C1B30979   4.979  39.739   8.553
 7291POPC   C2B30980   4.934  39.818   8.253
 7291POPC   C3B30981   5.015  39.817   7.953
 7291POPC   C4B30982   4.944  39.795   7.653
 7292POPC   NC330983  17.464  34.617   9.453
 7292POPC   PO430984  17.479  34.575   9.153
 7292POPC   GL130985  17.515  34.610   8.853
 7292POPC   GL230986  17.420  34.586   8.853
 7292POPC   C1A30987  17.555  34.580   8.553
 7292POPC   D2A30988  17.506  34.541   8.253
 7292POPC   C3A30989  17.491  34.587   7.953
 7292POPC   C4A30990  17.457  34.572   7.653
 7292POPC   C1B30991  17.235  34.535   8.553
 7292POPC   C2B30992  17.283  34.522   8.253
 7292POPC   C3B30993  17.235  34.586   7.953
 7292POPC   C4B30994  17.254  34.563   7.653
 7293POPC   NC330995  43.067  30.697   9.453
 7293POPC   PO430996  43.074  30.680   9.153
 7293POPC   GL130997  43.150  30.728   8.853
 7293POPC   GL230998  43.092  30.578   8.853
 7293POPC   C1A30999  43.068  30.656   8.553
 7293POPC   D2A31000  43.125  30.653   8.253
 7293POPC   C3A31001  43.077  30.655   7.953
 7293POPC   C4A31002  43.061  30.669   7.653
 7293POPC   C1B31003  43.051  30.402   8.553
 7293POPC   C2B31004  43.054  30.474   8.253
 7293POPC   C3B31005  43.088  30.411   7.953
 7293POPC   C4B31006  43.043  30.494   7.653
 7294POPC   NC331007  15.907  22.130   9.453
 7294POPC   PO431008  15.925  22.128   9.153
 7294POPC   GL131009  15.928  22.197   8.853
 7294POPC   GL231010  16.079  22.193   8.853
 7294POPC   C1A31011  15.931  22.161   8.553
 7294POPC   D2A31012  15.926  22.162   8.253
 7294POPC   C3A31013  15.929  22.129   7.953
 7294POPC   C4A31014  15.983  22.190   7.653
 7294POPC   C1B31015  16.219  22.194   8.553
 7294POPC   C2B31016  16.244  22.163   8.253
 7294POPC   C3B31017  16.232  22.145   7.953
 7294POPC   C4B31018  16.202  22.177   7.653
 7295POPC   NC331019   8.986  37.631   9.453
 7295POPC   PO431020   8.940  37.663   9.153
 7295POPC   GL131021   9.002  37.666   8.853
 7295POPC   GL231022   9.141  37.663   8.853
 7295POPC   C1A31023   9.000  37.663   8.553
 7295POPC   D2A31024   8.995  37.655   8.253
 7295POPC   C3A31025   8.973  37.682   7.953
 7295POPC   C4A31026   8.982  37.631   7.653
 7295POPC   C1B31027   9.234  37.614   8.553
 7295POPC   C2B31028   9.252  37.616   8.253
 7295POPC   C3B31029   9.226  37.652   7.953
 7295POPC   C4B31030   9.260  37.628   7.653
 7296POPC   NC331031   5.824  10.548   9.453
 7296POPC   PO431032   5.854  10.531   9.153
 7296POPC   GL131033   5.887  10.481   8.853
 7296POPC   GL231034   5.748  10.547   8.853
 7296POPC   C1A31035   5.908  10.536   8.553
 7296POPC   D2A31036   5.845  10.507   8.253
 7296POPC   C3A31037   5.829  10.514   7.953
 7296POPC   C4A31038   5.837  10.520   7.653
 7296POPC   C1B31039   5.621  10.444   8.553
 7296POPC   C2B31040   5.606  10.458   8.253
 7296POPC   C3B31041   5.608  10.464   7.953
 7296POPC   C4B31042   5.608  10.449   7.653
 7297POPC   NC331043  20.586  42.349   9.453
 7297POPC   PO431044  20.605  42.363   9.153
 7297POPC   GL131045  20.607  42.308   8.853
 7297POPC   GL231046  20.719  42.490   8.853
 7297POPC   C1A31047  20.561  42.297   8.553
 7297POPC   D2A31048  20.610  42.340   8.253
 7297POPC   C3A31049  20.617  42.319   7.953
 7297POPC   C4A31050  20.609  42.363   7.653
 7297POPC   C1B31051  20.708  42.579   8.553
 7297POPC   C2B31052  20.710  42.507   8.253
 7297POPC   C3B31053  20.778  42.581   7.953
 7297POPC   C4B31054  20.716  42.575   7.653
 7298POPC   NC331055  24.462   7.431   9.453
 7298POPC   PO431056  24.441   7.393   9.153
 7298POPC   GL131057  24.466   7.376   8.853
 7298POPC   GL231058  24.514   7.294   8.853
 7298POPC   C1A31059  24.519   7.442   8.553
 7298POPC   D2A31060  24.503   7.411   8.253
 7298POPC   C3A31061  24.534   7.405   7.953
 7298POPC   C4A31062  24.499   7.413   7.653
 7298POPC   C1B31063  24.624   7.207   8.553
 7298POPC   C2B31064  24.547   7.154   8.253
 7298POPC   C3B31065  24.543   7.161   7.953
 7298POPC   C4B31066  24.637   7.188   7.653
 7299POPC   NC331067  34.584  39.971   9.453
 7299POPC   PO431068  34.537  39.982   9.153
 7299POPC   GL131069  34.564  39.983   8.853
 7299POPC   GL231070  34.659  39.973   8.853
 7299POPC   C1A31071  34.593  40.051   8.553
 7299POPC   D2A31072  34.533  40.055   8.253
 7299POPC   C3A31073  34.559  39.986   7.953
 7299POPC   C4A31074  34.553  39.985   7.653
 7299POPC   C1B31075  34.833  39.861   8.553
 7299POPC   C2B31076  34.764  39.924   8.253
 7299POPC   C3B31077  34.792  39.914   7.953
 7299POPC   C4B31078  34.801  39.938   7.653
 7300POPC   NC331079  39.196  33.005   9.453
 7300POPC   PO431080  39.193  33.050   9.153
 7300POPC   GL131081  39.257  33.034   8.853
 7300POPC   GL231082  39.319  33.146   8.853
 7300POPC   C1A31083  39.273  33.053   8.553
 7300POPC   D2A31084  39.245  33.040   8.253
 7300POPC   C3A31085  39.183  32.999   7.953
 7300POPC   C4A31086  39.267  33.008   7.653
 7300POPC   C1B31087  39.379  33.274   8.553
 7300POPC   C2B31088  39.357  33.207   8.253
 7300POPC   C3B31089  39.296  33.214   7.953
 7300POPC   C4B31090  39.344  33.274   7.653
 7301POPC   NC331091   1.981   8.197   9.453
 7301POPC   PO431092   1.972   8.174   9.153
 7301POPC   GL131093   2.017   8.210   8.853
 7301POPC   GL231094   2.157   8.118   8.853
 7301POPC   C1A31095   1.941   8.239   8.553
 7301POPC   D2A31096   1.952   8.237   8.253
 7301POPC   C3A31097   2.010   8.216   7.953
 7301POPC   C4A31098   1.979   8.185   7.653
 7301POPC   C1B31099   2.228   8.087   8.553
 7301POPC   C2B31100   2.209   8.150   8.253
 7301POPC   C3B31101   2.227   8.156   7.953
 7301POPC   C4B31102   2.178   8.124   7.653
 7302POPC   NC331103   0.470  22.128   9.453
 7302POPC   PO431104   0.439  22.144   9.153
 7302POPC   GL131105   0.448  22.141   8.853
 7302POPC   GL231106   0.369  22.051   8.853
 7302POPC   C1A31107   0.444  22.143   8.553
 7302POPC   D2A31108   0.457  22.162   8.253
 7302POPC   C3A31109   0.449  22.152   7.953
 7302POPC   C4A31110   0.454  22.137   7.653
 7302POPC   C1B31111   0.182  21.986   8.553
 7302POPC   C2B31112   0.245  21.996   8.253
 7302POPC   C3B31113   0.193  21.993   7.953
 7302POPC   C4B31114   0.214  21.998   7.653
 7303POPC   NC331115   0.472   2.800   9.453
 7303POPC   PO431116   0.451   2.794   9.153
 7303POPC   GL131117   0.454   2.760   8.853
 7303POPC   GL231118   0.598   2.757   8.853
 7303POPC   C1A31119   0.398   2.720   8.553
 7303POPC   D2A31120   0.423   2.750   8.253
 7303POPC   C3A31121   0.472   2.762   7.953
 7303POPC   C4A31122   0.471   2.770   7.653
 7303POPC   C1B31123   0.694   2.871   8.553
 7303POPC   C2B31124   0.664   2.891   8.253
 7303POPC   C3B31125   0.698   2.857   7.953
 7303POPC   C4B31126   0.637   2.804   7.653
 7304POPC   NC331127  10.556  26.867   9.453
 7304POPC   PO431128  10.567  26.774   9.153
 7304POPC   GL131129  10.504  26.794   8.853
 7304POPC   GL231130  10.374  26.842   8.853
 7304POPC   C1A31131  10.495  26.851   8.553
 7304POPC   D2A31132  10.476  26.772   8.253
 7304POPC   C3A31133  10.545  26.863   7.953
 7304POPC   C4A31134  10.518  26.799   7.653
 7304POPC   C1B31135  10.312  26.875   8.553
 7304POPC   C2B31136  10.287  26.854   8.253
 7304POPC   C3B31137  10.259  26.885   7.953
 7304POPC   C4B31138  10.280  26.803   7.653
 7305POPC   NC331139   3.515  16.735   9.453
 7305POPC   PO431140   3.492  16.764   9.153
 7305POPC   GL131141   3.532  16.686   8.853
 7305POPC   GL231142   3.456  16.800   8.853
 7305POPC   C1A31143   3.509  16.749   8.553
 7305POPC   D2A31144   3.550  16.738   8.253
 7305POPC   C3A31145   3.530  16.683   7.953
 7305POPC   C4A31146   3.572  16.698   7.653
 7305POPC   C1B31147   3.270  16.788   8.553
 7305POPC   C2B31148   3.329  16.733   8.253
 7305POPC   C3B31149   3.251  16.736   7.953
 7305POPC   C4B31150   3.325  16.786   7.653
 7306POPC   NC331151  22.912  16.728   9.453
 7306POPC   PO431152  22.932  16.709   9.153
 7306POPC   GL131153  22.944  16.740   8.853
 7306POPC   GL231154  22.794  16.794   8.853
 7306POPC   C1A31155  22.963  16.747   8.553
 7306POPC   D2A31156  22.916  16.748   8.253
 7306POPC   C3A31157  22.983  16.736   7.953
 7306POPC   C4A31158  22.981  16.745   7.653
 7306POPC   C1B31159  22.690  16.857   8.553
 7306POPC   C2B31160  22.684  16.890   8.253
 7306POPC   C3B31161  22.750  16.889   7.953
 7306POPC   C4B31162  22.745  16.892   7.653
 7307POPC   NC331163   3.513  39.196   9.453
 7307POPC   PO431164   3.565  39.187   9.153
 7307POPC   GL131165   3.519  39.231   8.853
 7307POPC   GL231166   3.444  39.193   8.853
 7307POPC   C1A31167   3.505  39.197   8.553
 7307POPC   D2A31168   3.584  39.252   8.253
 7307POPC   C3A31169   3.505  39.188   7.953
 7307POPC   C4A31170   3.578  39.210   7.653
 7307POPC   C1B31171   3.294  39.209   8.553
 7307POPC   C2B31172   3.262  39.265   8.253
 7307POPC   C3B31173   3.274  39.219   7.953
 7307POPC   C4B31174   3.270  39.261   7.653
 7308POPC   NC331175   1.255  19.070   9.453
 7308POPC   PO431176   1.178  19.011   9.153
 7308POPC   GL131177   1.246  19.072   8.853
 7308POPC   GL231178   1.170  19.011   8.853
 7308POPC   C1A31179   1.208  19.047   8.553
 7308POPC   D2A31180   1.245  19.020   8.253
 7308POPC   C3A31181   1.255  19.064   7.953
 7308POPC   C4A31182   1.185  19.053   7.653
 7308POPC   C1B31183   1.092  18.908   8.553
 7308POPC   C2B31184   1.054  18.864   8.253
 7308POPC   C3B31185   1.032  18.864   7.953
 7308POPC   C4B31186   1.017  18.832   7.653
 7309POPC   NC331187  12.822  26.022   9.453
 7309POPC   PO431188  12.806  26.015   9.153
 7309POPC   GL131189  12.844  26.002   8.853
 7309POPC   GL231190  12.778  26.175   8.853
 7309POPC   C1A31191  12.871  26.078   8.553
 7309POPC   D2A31192  12.822  26.069   8.253
 7309POPC   C3A31193  12.865  26.002   7.953
 7309POPC   C4A31194  12.886  26.008   7.653
 7309POPC   C1B31195  12.660  26.238   8.553
 7309POPC   C2B31196  12.725  26.202   8.253
 7309POPC   C3B31197  12.687  26.222   7.953
 7309POPC   C4B31198  12.669  26.187   7.653
 7310POPC   NC331199  42.295  33.813   9.453
 7310POPC   PO431200  42.305  33.845   9.153
 7310POPC   GL131201  42.332  33.843   8.853
 7310POPC   GL231202  42.309  33.937   8.853
 7310POPC   C1A31203  42.363  33.847   8.553
 7310POPC   D2A31204  42.315  33.772   8.253
 7310POPC   C3A31205  42.343  33.829   7.953
 7310POPC   C4A31206  42.317  33.758   7.653
 7310POPC   C1B31207  42.204  34.044   8.553
 7310POPC   C2B31208  42.259  34.059   8.253
 7310POPC   C3B31209  42.282  34.036   7.953
 7310POPC   C4B31210  42.226  34.037   7.653
 7311POPC   NC331211  43.122  29.188   9.453
 7311POPC   PO431212  43.065  29.117   9.153
 7311POPC   GL131213  43.064  29.135   8.853
 7311POPC   GL231214  43.147  29.277   8.853
 7311POPC   C1A31215  43.077  29.164   8.553
 7311POPC   D2A31216  43.115  29.177   8.253
 7311POPC   C3A31217  43.108  29.122   7.953
 7311POPC   C4A31218  43.104  29.183   7.653
 7311POPC   C1B31219  43.260  29.316   8.553
 7311POPC   C2B31220  43.267  29.306   8.253
 7311POPC   C3B31221  43.230  29.354   7.953
 7311POPC   C4B31222  43.227  29.389   7.653
 7312POPC   NC331223   4.286  33.042   9.453
 7312POPC   PO431224   4.348  33.042   9.153
 7312POPC   GL131225   4.310  33.061   8.853
 7312POPC   GL231226   4.369  32.907   8.853
 7312POPC   C1A31227   4.362  33.002   8.553
 7312POPC   D2A31228   4.357  32.978   8.253
 7312POPC   C3A31229   4.303  33.059   7.953
 7312POPC   C4A31230   4.343  33.048   7.653
 7312POPC   C1B31231   4.453  32.896   8.553
 7312POPC   C2B31232   4.487  32.859   8.253
 7312POPC   C3B31233   4.538  32.874   7.953
 7312POPC   C4B31234   4.474  32.802   7.653
 7313POPC   NC331235  13.603  41.546   9.453
 7313POPC   PO431236  13.582  41.578   9.153
 7313POPC   GL131237  13.621  41.541   8.853
 7313POPC   GL231238  13.560  41.662   8.853
 7313POPC   C1A31239  13.621  41.595   8.553
 7313POPC   D2A31240  13.656  41.545   8.253
 7313POPC   C3A31241  13.578  41.571   7.953
 7313POPC   C4A31242  13.662  41.533   7.653
 7313POPC   C1B31243  13.428  41.750   8.553
 7313POPC   C2B31244  13.434  41.728   8.253
 7313POPC   C3B31245  13.491  41.763   7.953
 7313POPC   C4B31246  13.510  41.782   7.653
 7314POPC   NC331247  41.535  22.932   9.453
 7314POPC   PO431248  41.522  22.970   9.153
 7314POPC   GL131249  41.600  22.972   8.853
 7314POPC   GL231250  41.659  23.057   8.853
 7314POPC   C1A31251  41.520  22.904   8.553
 7314POPC   D2A31252  41.577  22.932   8.253
 7314POPC   C3A31253  41.569  22.936   7.953
 7314POPC   C4A31254  41.554  22.907   7.653
 7314POPC   C1B31255  41.746  23.120   8.553
 7314POPC   C2B31256  41.742  23.130   8.253
 7314POPC   C3B31257  41.721  23.069   7.953
 7314POPC   C4B31258  41.714  23.142   7.653
 7315POPC   NC331259  17.492  33.010   9.453
 7315POPC   PO431260  17.554  33.054   9.153
 7315POPC   GL131261  17.482  33.066   8.853
 7315POPC   GL231262  17.436  33.108   8.853
 7315POPC   C1A31263  17.498  33.025   8.553
 7315POPC   D2A31264  17.467  32.982   8.253
 7315POPC   C3A31265  17.489  33.052   7.953
 7315POPC   C4A31266  17.542  33.066   7.653
 7315POPC   C1B31267  17.452  33.267   8.553
 7315POPC   C2B31268  17.509  33.308   8.253
 7315POPC   C3B31269  17.418  33.224   7.953
 7315POPC   C4B31270  17.454  33.234   7.653
 7316POPC   NC331271  32.217   3.571   9.453
 7316POPC   PO431272  32.283   3.567   9.153
 7316POPC   GL131273  32.227   3.504   8.853
 7316POPC   GL231274  32.218   3.483   8.853
 7316POPC   C1A31275  32.294   3.578   8.553
 7316POPC   D2A31276  32.235   3.583   8.253
 7316POPC   C3A31277  32.210   3.574   7.953
 7316POPC   C4A31278  32.233   3.544   7.653
 7316POPC   C1B31279  32.085   3.381   8.553
 7316POPC   C2B31280  32.051   3.324   8.253
 7316POPC   C3B31281  32.134   3.367   7.953
 7316POPC   C4B31282  32.078   3.334   7.653
 7317POPC   NC331283  17.497  23.702   9.453
 7317POPC   PO431284  17.468  23.693   9.153
 7317POPC   GL131285  17.493  23.681   8.853
 7317POPC   GL231286  17.480  23.824   8.853
 7317POPC   C1A31287  17.549  23.736   8.553
 7317POPC   D2A31288  17.509  23.674   8.253
 7317POPC   C3A31289  17.556  23.732   7.953
 7317POPC   C4A31290  17.508  23.666   7.653
 7317POPC   C1B31291  17.431  23.947   8.553
 7317POPC   C2B31292  17.338  23.900   8.253
 7317POPC   C3B31293  17.396  23.962   7.953
 7317POPC   C4B31294  17.393  23.884   7.653
 7318POPC   NC331295  33.809  40.817   9.453
 7318POPC   PO431296  33.848  40.815   9.153
 7318POPC   GL131297  33.759  40.742   8.853
 7318POPC   GL231298  33.678  40.751   8.853
 7318POPC   C1A31299  33.817  40.813   8.553
 7318POPC   D2A31300  33.790  40.737   8.253
 7318POPC   C3A31301  33.832  40.767   7.953
 7318POPC   C4A31302  33.824  40.763   7.653
 7318POPC   C1B31303  33.593  40.765   8.553
 7318POPC   C2B31304  33.518  40.764   8.253
 7318POPC   C3B31305  33.572  40.777   7.953
 7318POPC   C4B31306  33.508  40.773   7.653
 7319POPC   NC331307   1.173  14.441   9.453
 7319POPC   PO431308   1.188  14.359   9.153
 7319POPC   GL131309   1.198  14.390   8.853
 7319POPC   GL231310   1.300  14.338   8.853
 7319POPC   C1A31311   1.199  14.372   8.553
 7319POPC   D2A31312   1.207  14.416   8.253
 7319POPC   C3A31313   1.211  14.444   7.953
 7319POPC   C4A31314   1.232  14.368   7.653
 7319POPC   C1B31315   1.300  14.203   8.553
 7319POPC   C2B31316   1.285  14.212   8.253
 7319POPC   C3B31317   1.334  14.174   7.953
 7319POPC   C4B31318   1.360  14.155   7.653
 7320POPC   NC331319  16.004  21.364   9.453
 7320POPC   PO431320  15.990  21.400   9.153
 7320POPC   GL131321  15.979  21.434   8.853
 7320POPC   GL231322  16.077  21.454   8.853
 7320POPC   C1A31323  15.927  21.385   8.553
 7320POPC   D2A31324  15.982  21.414   8.253
 7320POPC   C3A31325  15.915  21.423   7.953
 7320POPC   C4A31326  15.930  21.363   7.653
 7320POPC   C1B31327  16.177  21.450   8.553
 7320POPC   C2B31328  16.156  21.422   8.253
 7320POPC   C3B31329  16.211  21.412   7.953
 7320POPC   C4B31330  16.186  21.498   7.653
 7321POPC   NC331331   9.759  24.441   9.453
 7321POPC   PO431332   9.723  24.503   9.153
 7321POPC   GL131333   9.722  24.456   8.853
 7321POPC   GL231334   9.862  24.432   8.853
 7321POPC   C1A31335   9.750  24.532   8.553
 7321POPC   D2A31336   9.798  24.459   8.253
 7321POPC   C3A31337   9.711  24.505   7.953
 7321POPC   C4A31338   9.749  24.498   7.653
 7321POPC   C1B31339   9.854  24.315   8.553
 7321POPC   C2B31340   9.863  24.317   8.253
 7321POPC   C3B31341   9.920  24.280   7.953
 7321POPC   C4B31342   9.838  24.262   7.653
 7322POPC   NC331343   8.217   0.437   9.453
 7322POPC   PO431344   8.162   0.446   9.153
 7322POPC   GL131345   8.206   0.456   8.853
 7322POPC   GL231346   8.112   0.515   8.853
 7322POPC   C1A31347   8.172   0.487   8.553
 7322POPC   D2A31348   8.235   0.403   8.253
 7322POPC   C3A31349   8.227   0.464   7.953
 7322POPC   C4A31350   8.190   0.389   7.653
 7322POPC   C1B31351   8.067   0.601   8.553
 7322POPC   C2B31352   8.048   0.612   8.253
 7322POPC   C3B31353   8.014   0.610   7.953
 7322POPC   C4B31354   8.049   0.685   7.653
 7323POPC   NC331355   0.431   1.235   9.453
 7323POPC   PO431356   0.394   1.253   9.153
 7323POPC   GL131357   0.483   1.184   8.853
 7323POPC   GL231358   0.475   1.346   8.853
 7323POPC   C1A31359   0.480   1.187   8.553
 7323POPC   D2A31360   0.474   1.248   8.253
 7323POPC   C3A31361   0.399   1.205   7.953
 7323POPC   C4A31362   0.445   1.195   7.653
 7323POPC   C1B31363   0.651   1.371   8.553
 7323POPC   C2B31364   0.573   1.378   8.253
 7323POPC   C3B31365   0.614   1.435   7.953
 7323POPC   C4B31366   0.607   1.430   7.653
 7324POPC   NC331367  12.075   0.419   9.453
 7324POPC   PO431368  12.049   0.391   9.153
 7324POPC   GL131369  12.031   0.449   8.853
 7324POPC   GL231370  12.097   0.566   8.853
 7324POPC   C1A31371  12.061   0.415   8.553
 7324POPC   D2A31372  12.047   0.436   8.253
 7324POPC   C3A31373  12.126   0.423   7.953
 7324POPC   C4A31374  12.052   0.392   7.653
 7324POPC   C1B31375  12.012   0.725   8.553
 7324POPC   C2B31376  11.989   0.679   8.253
 7324POPC   C3B31377  12.058   0.717   7.953
 7324POPC   C4B31378  12.084   0.706   7.653
 7325POPC   NC331379  26.058  20.616   9.453
 7325POPC   PO431380  26.054  20.607   9.153
 7325POPC   GL131381  26.074  20.634   8.853
 7325POPC   GL231382  26.123  20.709   8.853
 7325POPC   C1A31383  26.039  20.648   8.553
 7325POPC   D2A31384  26.041  20.590   8.253
 7325POPC   C3A31385  26.035  20.621   7.953
 7325POPC   C4A31386  26.066  20.573   7.653
 7325POPC   C1B31387  26.247  20.800   8.553
 7325POPC   C2B31388  26.250  20.806   8.253
 7325POPC   C3B31389  26.175  20.832   7.953
 7325POPC   C4B31390  26.169  20.779   7.653
 7326POPC   NC331391  40.743  44.704   9.453
 7326POPC   PO431392  40.747  44.688   9.153
 7326POPC   GL131393  40.811  44.617   8.853
 7326POPC   GL231394  40.729  44.544   8.853
 7326POPC   C1A31395  40.764  44.640   8.553
 7326POPC   D2A31396  40.820  44.688   8.253
 7326POPC   C3A31397  40.774  44.657   7.953
 7326POPC   C4A31398  40.823  44.676   7.653
 7326POPC   C1B31399  40.581  44.476   8.553
 7326POPC   C2B31400  40.548  44.510   8.253
 7326POPC   C3B31401  40.591  44.509   7.953
 7326POPC   C4B31402  40.554  44.482   7.653
 7327POPC   NC331403  39.196  32.263   9.453
 7327POPC   PO431404  39.258  32.252   9.153
 7327POPC   GL131405  39.248  32.227   8.853
 7327POPC   GL231406  39.205  32.350   8.853
 7327POPC   C1A31407  39.190  32.199   8.553
 7327POPC   D2A31408  39.234  32.254   8.253
 7327POPC   C3A31409  39.220  32.215   7.953
 7327POPC   C4A31410  39.210  32.288   7.653
 7327POPC   C1B31411  39.071  32.461   8.553
 7327POPC   C2B31412  39.058  32.423   8.253
 7327POPC   C3B31413  39.122  32.491   7.953
 7327POPC   C4B31414  39.049  32.471   7.653
 7328POPC   NC331415  27.567  10.567   9.453
 7328POPC   PO431416  27.619  10.542   9.153
 7328POPC   GL131417  27.595  10.493   8.853
 7328POPC   GL231418  27.724  10.575   8.853
 7328POPC   C1A31419  27.566  10.535   8.553
 7328POPC   D2A31420  27.624  10.495   8.253
 7328POPC   C3A31421  27.554  10.572   7.953
 7328POPC   C4A31422  27.603  10.508   7.653
 7328POPC   C1B31423  27.788  10.572   8.553
 7328POPC   C2B31424  27.787  10.583   8.253
 7328POPC   C3B31425  27.822  10.601   7.953
 7328POPC   C4B31426  27.831  10.577   7.653
 7329POPC   NC331427  37.712  11.309   9.453
 7329POPC   PO431428  37.726  11.269   9.153
 7329POPC   GL131429  37.663  11.286   8.853
 7329POPC   GL231430  37.566  11.169   8.853
 7329POPC   C1A31431  37.677  11.338   8.553
 7329POPC   D2A31432  37.722  11.344   8.253
 7329POPC   C3A31433  37.672  11.334   7.953
 7329POPC   C4A31434  37.714  11.342   7.653
 7329POPC   C1B31435  37.507  11.128   8.553
 7329POPC   C2B31436  37.531  11.051   8.253
 7329POPC   C3B31437  37.567  11.099   7.953
 7329POPC   C4B31438  37.561  11.137   7.653
 7330POPC   NC331439   9.742  12.057   9.453
 7330POPC   PO431440   9.710  12.047   9.153
 7330POPC   GL131441   9.733  12.032   8.853
 7330POPC   GL231442   9.619  12.059   8.853
 7330POPC   C1A31443   9.761  12.116   8.553
 7330POPC   D2A31444   9.770  12.034   8.253
 7330POPC   C3A31445   9.708  12.093   7.953
 7330POPC   C4A31446   9.774  12.078   7.653
 7330POPC   C1B31447   9.511  12.052   8.553
 7330POPC   C2B31448   9.451  12.051   8.253
 7330POPC   C3B31449   9.543  12.037   7.953
 7330POPC   C4B31450   9.501  12.048   7.653
 7331POPC   NC331451  16.740   0.443   9.453
 7331POPC   PO431452  16.743   0.484   9.153
 7331POPC   GL131453  16.701   0.418   8.853
 7331POPC   GL231454  16.655   0.429   8.853
 7331POPC   C1A31455  16.741   0.427   8.553
 7331POPC   D2A31456  16.744   0.414   8.253
 7331POPC   C3A31457  16.721   0.408   7.953
 7331POPC   C4A31458  16.767   0.452   7.653
 7331POPC   C1B31459  16.502   0.514   8.553
 7331POPC   C2B31460  16.513   0.557   8.253
 7331POPC   C3B31461  16.471   0.491   7.953
 7331POPC   C4B31462  16.465   0.552   7.653
 7332POPC   NC331463  29.878   9.765   9.453
 7332POPC   PO431464  29.956   9.781   9.153
 7332POPC   GL131465  29.879   9.796   8.853
 7332POPC   GL231466  29.929   9.855   8.853
 7332POPC   C1A31467  29.933   9.702   8.553
 7332POPC   D2A31468  29.905   9.784   8.253
 7332POPC   C3A31469  29.921   9.771   7.953
 7332POPC   C4A31470  29.917   9.792   7.653
 7332POPC   C1B31471  29.905   9.956   8.553
 7332POPC   C2B31472  29.874  10.020   8.253
 7332POPC   C3B31473  29.920  10.037   7.953
 7332POPC   C4B31474  29.906   9.990   7.653
 7333POPC   NC331475  29.878  43.150   9.453
 7333POPC   PO431476  29.948  43.137   9.153
 7333POPC   GL131477  29.947  43.094   8.853
 7333POPC   GL231478  29.899  43.276   8.853
 7333POPC   C1A31479  29.900  43.090   8.553
 7333POPC   D2A31480  29.920  43.130   8.253
 7333POPC   C3A31481  29.901  43.125   7.953
 7333POPC   C4A31482  29.898  43.073   7.653
 7333POPC   C1B31483  29.865  43.374   8.553
 7333POPC   C2B31484  29.868  43.321   8.253
 7333POPC   C3B31485  29.846  43.328   7.953
 7333POPC   C4B31486  29.818  43.357   7.653
 7334POPC   NC331487  12.840  40.805   9.453
 7334POPC   PO431488  12.866  40.756   9.153
 7334POPC   GL131489  12.850  40.813   8.853
 7334POPC   GL231490  12.707  40.772   8.853
 7334POPC   C1A31491  12.878  40.803   8.553
 7334POPC   D2A31492  12.859  40.813   8.253
 7334POPC   C3A31493  12.843  40.736   7.953
 7334POPC   C4A31494  12.814  40.806   7.653
 7334POPC   C1B31495  12.651  40.760   8.553
 7334POPC   C2B31496  12.593  40.776   8.253
 7334POPC   C3B31497  12.584  40.770   7.953
 7334POPC   C4B31498  12.612  40.725   7.653
 7335POPC   NC331499  10.550  22.937   9.453
 7335POPC   PO431500  10.538  22.973   9.153
 7335POPC   GL131501  10.511  22.938   8.853
 7335POPC   GL231502  10.623  23.048   8.853
 7335POPC   C1A31503  10.563  22.920   8.553
 7335POPC   D2A31504  10.542  22.926   8.253
 7335POPC   C3A31505  10.511  22.982   7.953
 7335POPC   C4A31506  10.549  22.958   7.653
 7335POPC   C1B31507  10.719  23.188   8.553
 7335POPC   C2B31508  10.646  23.158   8.253
 7335POPC   C3B31509  10.691  23.176   7.953
 7335POPC   C4B31510  10.655  23.134   7.653
 7336POPC   NC331511   6.631  17.468   9.453
 7336POPC   PO431512   6.691  17.486   9.153
 7336POPC   GL131513   6.682  17.459   8.853
 7336POPC   GL231514   6.722  17.429   8.853
 7336POPC   C1A31515   6.598  17.550   8.553
 7336POPC   D2A31516   6.663  17.473   8.253
 7336POPC   C3A31517   6.624  17.474   7.953
 7336POPC   C4A31518   6.645  17.461   7.653
 7336POPC   C1B31519   6.730  17.315   8.553
 7336POPC   C2B31520   6.813  17.311   8.253
 7336POPC   C3B31521   6.735  17.251   7.953
 7336POPC   C4B31522   6.746  17.276   7.653
 7337POPC   NC331523   5.064  34.558   9.453
 7337POPC   PO431524   5.082  34.546   9.153
 7337POPC   GL131525   5.116  34.530   8.853
 7337POPC   GL231526   5.104  34.477   8.853
 7337POPC   C1A31527   5.065  34.584   8.553
 7337POPC   D2A31528   5.103  34.585   8.253
 7337POPC   C3A31529   5.133  34.616   7.953
 7337POPC   C4A31530   5.073  34.555   7.653
 7337POPC   C1B31531   5.217  34.338   8.553
 7337POPC   C2B31532   5.156  34.317   8.253
 7337POPC   C3B31533   5.134  34.337   7.953
 7337POPC   C4B31534   5.147  34.356   7.653
 7338POPC   NC331535  11.291  22.112   9.453
 7338POPC   PO431536  11.254  22.132   9.153
 7338POPC   GL131537  11.326  22.178   8.853
 7338POPC   GL231538  11.279  22.328   8.853
 7338POPC   C1A31539  11.295  22.115   8.553
 7338POPC   D2A31540  11.305  22.132   8.253
 7338POPC   C3A31541  11.349  22.146   7.953
 7338POPC   C4A31542  11.261  22.120   7.653
 7338POPC   C1B31543  11.210  22.379   8.553
 7338POPC   C2B31544  11.204  22.426   8.253
 7338POPC   C3B31545  11.188  22.412   7.953
 7338POPC   C4B31546  11.220  22.353   7.653
 7339POPC   NC331547  15.916  19.072   9.453
 7339POPC   PO431548  15.990  19.100   9.153
 7339POPC   GL131549  15.967  19.045   8.853
 7339POPC   GL231550  15.878  19.029   8.853
 7339POPC   C1A31551  15.980  19.056   8.553
 7339POPC   D2A31552  15.914  19.089   8.253
 7339POPC   C3A31553  15.956  19.012   7.953
 7339POPC   C4A31554  15.907  19.097   7.653
 7339POPC   C1B31555  15.779  18.888   8.553
 7339POPC   C2B31556  15.790  18.889   8.253
 7339POPC   C3B31557  15.773  18.907   7.953
 7339POPC   C4B31558  15.768  18.922   7.653
 7340POPC   NC331559   8.931  18.302   9.453
 7340POPC   PO431560   9.022  18.268   9.153
 7340POPC   GL131561   8.927  18.262   8.853
 7340POPC   GL231562   9.051  18.305   8.853
 7340POPC   C1A31563   8.989  18.296   8.553
 7340POPC   D2A31564   8.983  18.322   8.253
 7340POPC   C3A31565   9.019  18.293   7.953
 7340POPC   C4A31566   9.001  18.325   7.653
 7340POPC   C1B31567   9.197  18.354   8.553
 7340POPC   C2B31568   9.199  18.370   8.253
 7340POPC   C3B31569   9.176  18.397   7.953
 7340POPC   C4B31570   9.243  18.349   7.653
 7341POPC   NC331571  42.360  44.692   9.453
 7341POPC   PO431572  42.296  44.663   9.153
 7341POPC   GL131573  42.320  44.692   8.853
 7341POPC   GL231574  42.404  44.805   8.853
 7341POPC   C1A31575  42.379  44.704   8.553
 7341POPC   D2A31576  42.315  44.635   8.253
 7341POPC   C3A31577  42.319  44.643   7.953
 7341POPC   C4A31578  42.316  44.617   7.653
 7341POPC   C1B31579  42.410  44.911   8.553
 7341POPC   C2B31580  42.416  44.905   8.253
 7341POPC   C3B31581  42.432  44.896   7.953
 7341POPC   C4B31582  42.416  44.868   7.653
 7342POPC   NC331583   8.162  43.066   9.453
 7342POPC   PO431584   8.238  43.100   9.153
 7342POPC   GL131585   8.218  43.112   8.853
 7342POPC   GL231586   8.321  43.095   8.853
 7342POPC   C1A31587   8.162  43.142   8.553
 7342POPC   D2A31588   8.186  43.111   8.253
 7342POPC   C3A31589   8.173  43.126   7.953
 7342POPC   C4A31590   8.179  43.082   7.653
 7342POPC   C1B31591   8.383  42.987   8.553
 7342POPC   C2B31592   8.468  42.971   8.253
 7342POPC   C3B31593   8.466  43.042   7.953
 7342POPC   C4B31594   8.417  43.045   7.653
 7343POPC   NC331595   8.148   2.767   9.453
 7343POPC   PO431596   8.165   2.759   9.153
 7343POPC   GL131597   8.199   2.812   8.853
 7343POPC   GL231598   8.122   2.806   8.853
 7343POPC   C1A31599   8.207   2.729   8.553
 7343POPC   D2A31600   8.218   2.800   8.253
 7343POPC   C3A31601   8.183   2.808   7.953
 7343POPC   C4A31602   8.233   2.762   7.653
 7343POPC   C1B31603   7.945   2.884   8.553
 7343POPC   C2B31604   7.950   2.897   8.253
 7343POPC   C3B31605   7.950   2.876   7.953
 7343POPC   C4B31606   7.984   2.926   7.653
 7344POPC   NC331607  36.901   2.722   9.453
 7344POPC   PO431608  36.905   2.724   9.153
 7344POPC   GL131609  36.869   2.805   8.853
 7344POPC   GL231610  36.796   2.757   8.853
 7344POPC   C1A31611  36.940   2.720   8.553
 7344POPC   D2A31612  36.927   2.775   8.253
 7344POPC   C3A31613  36.868   2.735   7.953
 7344POPC   C4A31614  36.898   2.734   7.653
 7344POPC   C1B31615  36.620   2.689   8.553
 7344POPC   C2B31616  36.662   2.656   8.253
 7344POPC   C3B31617  36.642   2.667   7.953
 7344POPC   C4B31618  36.689   2.718   7.653
 7345POPC   NC331619  27.615   3.517   9.453
 7345POPC   PO431620  27.631   3.584   9.153
 7345POPC   GL131621  27.565   3.563   8.853
 7345POPC   GL231622  27.701   3.429   8.853
 7345POPC   C1A31623  27.578   3.578   8.553
 7345POPC   D2A31624  27.577   3.531   8.253
 7345POPC   C3A31625  27.639   3.576   7.953
 7345POPC   C4A31626  27.634   3.549   7.653
 7345POPC   C1B31627  27.818   3.356   8.553
 7345POPC   C2B31628  27.751   3.390   8.253
 7345POPC   C3B31629  27.746   3.373   7.953
 7345POPC   C4B31630  27.803   3.386   7.653
 7346POPC   NC331631  12.034  15.977   9.453
 7346POPC   PO431632  12.101  15.962   9.153
 7346POPC   GL131633  12.032  15.912   8.853
 7346POPC   GL231634  11.946  15.995   8.853
 7346POPC   C1A31635  12.111  15.946   8.553
 7346POPC   D2A31636  12.029  15.951   8.253
 7346POPC   C3A31637  12.109  15.928   7.953
 7346POPC   C4A31638  12.026  15.927   7.653
 7346POPC   C1B31639  11.880  16.094   8.553
 7346POPC   C2B31640  11.921  16.073   8.253
 7346POPC   C3B31641  11.904  16.158   7.953
 7346POPC   C4B31642  11.874  16.134   7.653
 7347POPC   NC331643   8.937  27.590   9.453
 7347POPC   PO431644   8.971  27.619   9.153
 7347POPC   GL131645   8.977  27.619   8.853
 7347POPC   GL231646   8.850  27.691   8.853
 7347POPC   C1A31647   8.958  27.547   8.553
 7347POPC   D2A31648   9.017  27.560   8.253
 7347POPC   C3A31649   9.005  27.563   7.953
 7347POPC   C4A31650   8.956  27.587   7.653
 7347POPC   C1B31651   8.811  27.732   8.553
 7347POPC   C2B31652   8.800  27.770   8.253
 7347POPC   C3B31653   8.755  27.731   7.953
 7347POPC   C4B31654   8.774  27.725   7.653
 7348POPC   NC331655   0.483  16.708   9.453
 7348POPC   PO431656   0.399  16.740   9.153
 7348POPC   GL131657   0.417  16.737   8.853
 7348POPC   GL231658   0.269  16.782   8.853
 7348POPC   C1A31659   0.462  16.692   8.553
 7348POPC   D2A31660   0.427  16.709   8.253
 7348POPC   C3A31661   0.435  16.751   7.953
 7348POPC   C4A31662   0.415  16.688   7.653
 7348POPC   C1B31663   0.191  16.758   8.553
 7348POPC   C2B31664   0.157  16.819   8.253
 7348POPC   C3B31665   0.169  16.823   7.953
 7348POPC   C4B31666   0.201  16.807   7.653
 7349POPC   NC331667  26.034  34.609   9.453
 7349POPC   PO431668  26.045  34.531   9.153
 7349POPC   GL131669  26.012  34.570   8.853
 7349POPC   GL231670  25.982  34.516   8.853
 7349POPC   C1A31671  26.087  34.553   8.553
 7349POPC   D2A31672  26.086  34.603   8.253
 7349POPC   C3A31673  26.088  34.544   7.953
 7349POPC   C4A31674  26.005  34.598   7.653
 7349POPC   C1B31675  25.810  34.399   8.553
 7349POPC   C2B31676  25.852  34.370   8.253
 7349POPC   C3B31677  25.855  34.447   7.953
 7349POPC   C4B31678  25.840  34.392   7.653
 7350POPC   NC331679  37.693   0.462   9.453
 7350POPC   PO431680  37.663   0.462   9.153
 7350POPC   GL131681  37.653   0.401   8.853
 7350POPC   GL231682  37.545   0.317   8.853
 7350POPC   C1A31683  37.681   0.480   8.553
 7350POPC   D2A31684  37.696   0.440   8.253
 7350POPC   C3A31685  37.669   0.447   7.953
 7350POPC   C4A31686  37.709   0.460   7.653
 7350POPC   C1B31687  37.459   0.297   8.553
 7350POPC   C2B31688  37.468   0.291   8.253
 7350POPC   C3B31689  37.490   0.261   7.953
 7350POPC   C4B31690  37.490   0.261   7.653
 7351POPC   NC331691  17.510  18.318   9.453
 7351POPC   PO431692  17.470  18.299   9.153
 7351POPC   GL131693  17.475  18.325   8.853
 7351POPC   GL231694  17.429  18.166   8.853
 7351POPC   C1A31695  17.458  18.269   8.553
 7351POPC   D2A31696  17.491  18.304   8.253
 7351POPC   C3A31697  17.484  18.296   7.953
 7351POPC   C4A31698  17.530  18.316   7.653
 7351POPC   C1B31699  17.424  18.037   8.553
 7351POPC   C2B31700  17.361  18.067   8.253
 7351POPC   C3B31701  17.395  18.037   7.953
 7351POPC   C4B31702  17.369  18.044   7.653
 7352POPC   NC331703  38.502  39.970   9.453
 7352POPC   PO431704  38.502  40.047   9.153
 7352POPC   GL131705  38.408  39.988   8.853
 7352POPC   GL231706  38.386  40.067   8.853
 7352POPC   C1A31707  38.447  40.037   8.553
 7352POPC   D2A31708  38.488  39.967   8.253
 7352POPC   C3A31709  38.498  39.972   7.953
 7352POPC   C4A31710  38.469  39.977   7.653
 7352POPC   C1B31711  38.284  40.121   8.553
 7352POPC   C2B31712  38.201  40.179   8.253
 7352POPC   C3B31713  38.267  40.094   7.953
 7352POPC   C4B31714  38.227  40.103   7.653
 7353POPC   NC331715   8.157  18.321   9.453
 7353POPC   PO431716   8.235  18.246   9.153
 7353POPC   GL131717   8.162  18.278   8.853
 7353POPC   GL231718   8.104  18.179   8.853
 7353POPC   C1A31719   8.169  18.284   8.553
 7353POPC   D2A31720   8.211  18.275   8.253
 7353POPC   C3A31721   8.183  18.311   7.953
 7353POPC   C4A31722   8.172  18.319   7.653
 7353POPC   C1B31723   7.983  18.105   8.553
 7353POPC   C2B31724   8.042  18.080   8.253
 7353POPC   C3B31725   7.974  18.159   7.953
 7353POPC   C4B31726   7.957  18.121   7.653
 7354POPC   NC331727  36.940   1.993   9.453
 7354POPC   PO431728  36.934   1.962   9.153
 7354POPC   GL131729  36.912   1.944   8.853
 7354POPC   GL231730  36.769   1.996   8.853
 7354POPC   C1A31731  36.885   1.985   8.553
 7354POPC   D2A31732  36.950   2.018   8.253
 7354POPC   C3A31733  36.953   1.940   7.953
 7354POPC   C4A31734  36.865   2.034   7.653
 7354POPC   C1B31735  36.648   2.075   8.553
 7354POPC   C2B31736  36.707   2.040   8.253
 7354POPC   C3B31737  36.700   2.082   7.953
 7354POPC   C4B31738  36.689   2.116   7.653
 7355POPC   NC331739   3.524  13.673   9.453
 7355POPC   PO431740   3.509  13.596   9.153
 7355POPC   GL131741   3.555  13.666   8.853
 7355POPC   GL231742   3.464  13.599   8.853
 7355POPC   C1A31743   3.554  13.631   8.553
 7355POPC   D2A31744   3.496  13.677   8.253
 7355POPC   C3A31745   3.515  13.668   7.953
 7355POPC   C4A31746   3.536  13.634   7.653
 7355POPC   C1B31747   3.318  13.546   8.553
 7355POPC   C2B31748   3.280  13.518   8.253
 7355POPC   C3B31749   3.280  13.492   7.953
 7355POPC   C4B31750   3.353  13.469   7.653
 7356POPC   NC331751   5.841  18.298   9.453
 7356POPC   PO431752   5.866  18.281   9.153
 7356POPC   GL131753   5.905  18.272   8.853
 7356POPC   GL231754   6.003  18.315   8.853
 7356POPC   C1A31755   5.880  18.294   8.553
 7356POPC   D2A31756   5.819  18.287   8.253
 7356POPC   C3A31757   5.902  18.284   7.953
 7356POPC   C4A31758   5.875  18.261   7.653
 7356POPC   C1B31759   6.116  18.266   8.553
 7356POPC   C2B31760   6.106  18.302   8.253
 7356POPC   C3B31761   6.148  18.303   7.953
 7356POPC   C4B31762   6.157  18.302   7.653
 7357POPC   NC331763   1.989  25.216   9.453
 7357POPC   PO431764   1.995  25.282   9.153
 7357POPC   GL131765   1.985  25.262   8.853
 7357POPC   GL231766   2.121  25.274   8.853
 7357POPC   C1A31767   1.992  25.271   8.553
 7357POPC   D2A31768   2.030  25.300   8.253
 7357POPC   C3A31769   1.960  25.306   7.953
 7357POPC   C4A31770   2.023  25.313   7.653
 7357POPC   C1B31771   2.247  25.305   8.553
 7357POPC   C2B31772   2.218  25.255   8.253
 7357POPC   C3B31773   2.228  25.276   7.953
 7357POPC   C4B31774   2.288  25.335   7.653
 7358POPC   NC331775  32.216  15.995   9.453
 7358POPC   PO431776  32.222  15.933   9.153
 7358POPC   GL131777  32.271  15.934   8.853
 7358POPC   GL231778  32.195  15.818   8.853
 7358POPC   C1A31779  32.252  15.981   8.553
 7358POPC   D2A31780  32.249  15.916   8.253
 7358POPC   C3A31781  32.216  15.976   7.953
 7358POPC   C4A31782  32.256  15.918   7.653
 7358POPC   C1B31783  32.177  15.678   8.553
 7358POPC   C2B31784  32.221  15.734   8.253
 7358POPC   C3B31785  32.149  15.757   7.953
 7358POPC   C4B31786  32.150  15.728   7.653
 7359POPC   NC331787  39.195  11.340   9.453
 7359POPC   PO431788  39.194  11.259   9.153
 7359POPC   GL131789  39.230  11.329   8.853
 7359POPC   GL231790  39.203  11.137   8.853
 7359POPC   C1A31791  39.278  11.265   8.553
 7359POPC   D2A31792  39.268  11.268   8.253
 7359POPC   C3A31793  39.233  11.264   7.953
 7359POPC   C4A31794  39.208  11.324   7.653
 7359POPC   C1B31795  39.166  11.037   8.553
 7359POPC   C2B31796  39.150  11.028   8.253
 7359POPC   C3B31797  39.207  11.038   7.953
 7359POPC   C4B31798  39.213  11.054   7.653
 7360POPC   NC331799  19.040  19.058   9.453
 7360POPC   PO431800  19.010  19.070   9.153
 7360POPC   GL131801  19.065  19.040   8.853
 7360POPC   GL231802  19.000  18.944   8.853
 7360POPC   C1A31803  19.071  19.092   8.553
 7360POPC   D2A31804  19.053  19.032   8.253
 7360POPC   C3A31805  19.055  19.102   7.953
 7360POPC   C4A31806  19.051  19.020   7.653
 7360POPC   C1B31807  18.977  18.849   8.553
 7360POPC   C2B31808  18.996  18.827   8.253
 7360POPC   C3B31809  19.001  18.816   7.953
 7360POPC   C4B31810  18.992  18.850   7.653
 7361POPC   NC331811  29.932   0.399   9.453
 7361POPC   PO431812  29.880   0.447   9.153
 7361POPC   GL131813  29.939   0.398   8.853
 7361POPC   GL231814  29.919   0.339   8.853
 7361POPC   C1A31815  29.941   0.446   8.553
 7361POPC   D2A31816  29.879   0.454   8.253
 7361POPC   C3A31817  29.963   0.394   7.953
 7361POPC   C4A31818  29.872   0.458   7.653
 7361POPC   C1B31819  29.938   0.144   8.553
 7361POPC   C2B31820  29.918   0.151   8.253
 7361POPC   C3B31821  29.973   0.221   7.953
 7361POPC   C4B31822  29.900   0.225   7.653
 7362POPC   NC331823   9.780  18.303   9.453
 7362POPC   PO431824   9.712  18.327   9.153
 7362POPC   GL131825   9.726  18.253   8.853
 7362POPC   GL231826   9.900  18.292   8.853
 7362POPC   C1A31827   9.706  18.264   8.553
 7362POPC   D2A31828   9.758  18.261   8.253
 7362POPC   C3A31829   9.724  18.239   7.953
 7362POPC   C4A31830   9.737  18.242   7.653
 7362POPC   C1B31831   9.995  18.332   8.553
 7362POPC   C2B31832  10.044  18.297   8.253
 7362POPC   C3B31833   9.984  18.313   7.953
 7362POPC   C4B31834  10.003  18.280   7.653
 7363POPC   NC331835  22.961  31.484   9.453
 7363POPC   PO431836  22.956  31.508   9.153
 7363POPC   GL131837  22.920  31.438   8.853
 7363POPC   GL231838  23.104  31.431   8.853
 7363POPC   C1A31839  22.974  31.481   8.553
 7363POPC   D2A31840  22.962  31.445   8.253
 7363POPC   C3A31841  22.916  31.495   7.953
 7363POPC   C4A31842  22.980  31.509   7.653
 7363POPC   C1B31843  23.226  31.491   8.553
 7363POPC   C2B31844  23.196  31.493   8.253
 7363POPC   C3B31845  23.204  31.427   7.953
 7363POPC   C4B31846  23.164  31.427   7.653
 7364POPC   NC331847  30.677   2.016   9.453
 7364POPC   PO431848  30.730   1.992   9.153
 7364POPC   GL131849  30.675   2.015   8.853
 7364POPC   GL231850  30.773   2.056   8.853
 7364POPC   C1A31851  30.729   1.953   8.553
 7364POPC   D2A31852  30.733   1.984   8.253
 7364POPC   C3A31853  30.664   1.980   7.953
 7364POPC   C4A31854  30.686   1.990   7.653
 7364POPC   C1B31855  30.891   2.119   8.553
 7364POPC   C2B31856  30.891   2.132   8.253
 7364POPC   C3B31857  30.876   2.086   7.953
 7364POPC   C4B31858  30.871   2.161   7.653
 7365POPC   NC331859   2.773  37.646   9.453
 7365POPC   PO431860   2.728  37.639   9.153
 7365POPC   GL131861   2.736  37.704   8.853
 7365POPC   GL231862   2.679  37.627   8.853
 7365POPC   C1A31863   2.794  37.712   8.553
 7365POPC   D2A31864   2.806  37.722   8.253
 7365POPC   C3A31865   2.762  37.650   7.953
 7365POPC   C4A31866   2.746  37.674   7.653
 7365POPC   C1B31867   2.567  37.564   8.553
 7365POPC   C2B31868   2.510  37.609   8.253
 7365POPC   C3B31869   2.481  37.576   7.953
 7365POPC   C4B31870   2.548  37.625   7.653
 7366POPC   NC331871  12.901  12.887   9.453
 7366POPC   PO431872  12.867  12.811   9.153
 7366POPC   GL131873  12.807  12.825   8.853
 7366POPC   GL231874  12.725  12.870   8.853
 7366POPC   C1A31875  12.865  12.878   8.553
 7366POPC   D2A31876  12.822  12.863   8.253
 7366POPC   C3A31877  12.837  12.835   7.953
 7366POPC   C4A31878  12.853  12.890   7.653
 7366POPC   C1B31879  12.652  12.911   8.553
 7366POPC   C2B31880  12.621  12.889   8.253
 7366POPC   C3B31881  12.601  12.864   7.953
 7366POPC   C4B31882  12.563  12.834   7.653
 7367POPC   NC331883   2.731  42.356   9.453
 7367POPC   PO431884   2.717  42.294   9.153
 7367POPC   GL131885   2.725  42.370   8.853
 7367POPC   GL231886   2.634  42.302   8.853
 7367POPC   C1A31887   2.783  42.363   8.553
 7367POPC   D2A31888   2.771  42.347   8.253
 7367POPC   C3A31889   2.806  42.372   7.953
 7367POPC   C4A31890   2.800  42.382   7.653
 7367POPC   C1B31891   2.482  42.408   8.553
 7367POPC   C2B31892   2.476  42.338   8.253
 7367POPC   C3B31893   2.519  42.348   7.953
 7367POPC   C4B31894   2.478  42.337   7.653
 7368POPC   NC331895  27.597  30.738   9.453
 7368POPC   PO431896  27.620  30.669   9.153
 7368POPC   GL131897  27.547  30.651   8.853
 7368POPC   GL231898  27.568  30.832   8.853
 7368POPC   C1A31899  27.587  30.745   8.553
 7368POPC   D2A31900  27.560  30.655   8.253
 7368POPC   C3A31901  27.593  30.708   7.953
 7368POPC   C4A31902  27.555  30.650   7.653
 7368POPC   C1B31903  27.565  30.966   8.553
 7368POPC   C2B31904  27.547  30.958   8.253
 7368POPC   C3B31905  27.524  30.959   7.953
 7368POPC   C4B31906  27.545  30.917   7.653
 7369POPC   NC331907   2.008   9.752   9.453
 7369POPC   PO431908   2.030   9.733   9.153
 7369POPC   GL131909   1.990   9.756   8.853
 7369POPC   GL231910   1.864   9.720   8.853
 7369POPC   C1A31911   2.022   9.778   8.553
 7369POPC   D2A31912   1.949   9.733   8.253
 7369POPC   C3A31913   1.957   9.766   7.953
 7369POPC   C4A31914   1.993   9.732   7.653
 7369POPC   C1B31915   1.731   9.726   8.553
 7369POPC   C2B31916   1.713   9.753   8.253
 7369POPC   C3B31917   1.744   9.713   7.953
 7369POPC   C4B31918   1.695   9.745   7.653
 7370POPC   NC331919  32.218  42.298   9.453
 7370POPC   PO431920  32.222  42.374   9.153
 7370POPC   GL131921  32.223  42.317   8.853
 7370POPC   GL231922  32.174  42.413   8.853
 7370POPC   C1A31923  32.249  42.343   8.553
 7370POPC   D2A31924  32.212  42.343   8.253
 7370POPC   C3A31925  32.249  42.319   7.953
 7370POPC   C4A31926  32.206  42.346   7.653
 7370POPC   C1B31927  32.145  42.536   8.553
 7370POPC   C2B31928  32.175  42.543   8.253
 7370POPC   C3B31929  32.126  42.525   7.953
 7370POPC   C4B31930  32.108  42.532   7.653
 7371POPC   NC331931  26.778  19.851   9.453
 7371POPC   PO431932  26.824  19.798   9.153
 7371POPC   GL131933  26.848  19.814   8.853
 7371POPC   GL231934  26.870  19.914   8.853
 7371POPC   C1A31935  26.836  19.831   8.553
 7371POPC   D2A31936  26.774  19.823   8.253
 7371POPC   C3A31937  26.776  19.800   7.953
 7371POPC   C4A31938  26.774  19.841   7.653
 7371POPC   C1B31939  26.984  19.994   8.553
 7371POPC   C2B31940  26.962  20.011   8.253
 7371POPC   C3B31941  27.050  19.993   7.953
 7371POPC   C4B31942  27.026  19.968   7.653
 7372POPC   NC331943  16.768  26.046   9.453
 7372POPC   PO431944  16.711  26.074   9.153
 7372POPC   GL131945  16.769  26.055   8.853
 7372POPC   GL231946  16.846  25.977   8.853
 7372POPC   C1A31947  16.729  26.035   8.553
 7372POPC   D2A31948  16.689  26.058   8.253
 7372POPC   C3A31949  16.682  26.027   7.953
 7372POPC   C4A31950  16.733  26.046   7.653
 7372POPC   C1B31951  17.011  25.943   8.553
 7372POPC   C2B31952  16.973  25.985   8.253
 7372POPC   C3B31953  16.994  25.920   7.953
 7372POPC   C4B31954  16.924  25.905   7.653
 7373POPC   NC331955   6.632   6.633   9.453
 7373POPC   PO431956   6.677   6.689   9.153
 7373POPC   GL131957   6.683   6.627   8.853
 7373POPC   GL231958   6.562   6.787   8.853
 7373POPC   C1A31959   6.651   6.661   8.553
 7373POPC   D2A31960   6.683   6.619   8.253
 7373POPC   C3A31961   6.665   6.665   7.953
 7373POPC   C4A31962   6.688   6.663   7.653
 7373POPC   C1B31963   6.458   6.817   8.553
 7373POPC   C2B31964   6.550   6.896   8.253
 7373POPC   C3B31965   6.504   6.839   7.953
 7373POPC   C4B31966   6.521   6.886   7.653
 7374POPC   NC331967   8.951  33.793   9.453
 7374POPC   PO431968   9.019  33.780   9.153
 7374POPC   GL131969   8.958  33.816   8.853
 7374POPC   GL231970   9.060  33.674   8.853
 7374POPC   C1A31971   8.960  33.826   8.553
 7374POPC   D2A31972   8.924  33.842   8.253
 7374POPC   C3A31973   8.961  33.806   7.953
 7374POPC   C4A31974   8.965  33.802   7.653
 7374POPC   C1B31975   9.157  33.569   8.553
 7374POPC   C2B31976   9.160  33.616   8.253
 7374POPC   C3B31977   9.091  33.610   7.953
 7374POPC   C4B31978   9.097  33.559   7.653
 7375POPC   NC331979  21.430   5.848   9.453
 7375POPC   PO431980  21.376   5.822   9.153
 7375POPC   GL131981  21.416   5.906   8.853
 7375POPC   GL231982  21.442   5.764   8.853
 7375POPC   C1A31983  21.419   5.830   8.553
 7375POPC   D2A31984  21.409   5.905   8.253
 7375POPC   C3A31985  21.365   5.894   7.953
 7375POPC   C4A31986  21.342   5.858   7.653
 7375POPC   C1B31987  21.469   5.625   8.553
 7375POPC   C2B31988  21.457   5.680   8.253
 7375POPC   C3B31989  21.432   5.615   7.953
 7375POPC   C4B31990  21.468   5.641   7.653
 7376POPC   NC331991  21.371  29.149   9.453
 7376POPC   PO431992  21.399  29.159   9.153
 7376POPC   GL131993  21.349  29.132   8.853
 7376POPC   GL231994  21.460  29.075   8.853
 7376POPC   C1A31995  21.435  29.168   8.553
 7376POPC   D2A31996  21.368  29.133   8.253
 7376POPC   C3A31997  21.410  29.114   7.953
 7376POPC   C4A31998  21.339  29.101   7.653
 7376POPC   C1B31999  21.530  28.917   8.553
 7376POPC   C2B32000  21.517  28.938   8.253
 7376POPC   C3B32001  21.481  28.979   7.953
 7376POPC   C4B32002  21.576  28.892   7.653
 7377POPC   NC332003  26.024  12.125   9.453
 7377POPC   PO432004  26.046  12.052   9.153
 7377POPC   GL132005  26.089  12.082   8.853
 7377POPC   GL232006  25.928  12.150   8.853
 7377POPC   C1A32007  26.016  12.120   8.553
 7377POPC   D2A32008  26.027  12.076   8.253
 7377POPC   C3A32009  26.030  12.114   7.953
 7377POPC   C4A32010  26.068  12.086   7.653
 7377POPC   C1B32011  25.794  12.157   8.553
 7377POPC   C2B32012  25.799  12.142   8.253
 7377POPC   C3B32013  25.826  12.185   7.953
 7377POPC   C4B32014  25.850  12.215   7.653
 7378POPC   NC332015  33.006  38.445   9.453
 7378POPC   PO432016  33.064  38.445   9.153
 7378POPC   GL132017  33.073  38.448   8.853
 7378POPC   GL232018  33.048  38.360   8.853
 7378POPC   C1A32019  32.980  38.503   8.553
 7378POPC   D2A32020  33.041  38.421   8.253
 7378POPC   C3A32021  32.979  38.447   7.953
 7378POPC   C4A32022  33.070  38.437   7.653
 7378POPC   C1B32023  33.003  38.229   8.553
 7378POPC   C2B32024  33.078  38.191   8.253
 7378POPC   C3B32025  33.046  38.213   7.953
 7378POPC   C4B32026  33.026  38.169   7.653
 7379POPC   NC332027  26.809  12.848   9.453
 7379POPC   PO432028  26.786  12.887   9.153
 7379POPC   GL132029  26.810  12.872   8.853
 7379POPC   GL232030  26.735  12.873   8.853
 7379POPC   C1A32031  26.794  12.881   8.553
 7379POPC   D2A32032  26.833  12.842   8.253
 7379POPC   C3A32033  26.828  12.836   7.953
 7379POPC   C4A32034  26.796  12.855   7.653
 7379POPC   C1B32035  26.595  12.873   8.553
 7379POPC   C2B32036  26.590  12.845   8.253
 7379POPC   C3B32037  26.582  12.895   7.953
 7379POPC   C4B32038  26.600  12.933   7.653
 7380POPC   NC332039   8.160  20.596   9.453
 7380POPC   PO432040   8.187  20.605   9.153
 7380POPC   GL132041   8.188  20.628   8.853
 7380POPC   GL232042   8.314  20.478   8.853
 7380POPC   C1A32043   8.165  20.574   8.553
 7380POPC   D2A32044   8.207  20.640   8.253
 7380POPC   C3A32045   8.180  20.590   7.953
 7380POPC   C4A32046   8.211  20.576   7.653
 7380POPC   C1B32047   8.321  20.436   8.553
 7380POPC   C2B32048   8.411  20.472   8.253
 7380POPC   C3B32049   8.404  20.464   7.953
 7380POPC   C4B32050   8.347  20.402   7.653
 7381POPC   NC332051   5.893   9.740   9.453
 7381POPC   PO432052   5.909   9.760   9.153
 7381POPC   GL132053   5.835   9.702   8.853
 7381POPC   GL232054   5.846   9.844   8.853
 7381POPC   C1A32055   5.868   9.796   8.553
 7381POPC   D2A32056   5.870   9.723   8.253
 7381POPC   C3A32057   5.839   9.711   7.953
 7381POPC   C4A32058   5.861   9.742   7.653
 7381POPC   C1B32059   5.758   9.941   8.553
 7381POPC   C2B32060   5.774   9.926   8.253
 7381POPC   C3B32061   5.781   9.991   7.953
 7381POPC   C4B32062   5.759   9.988   7.653
 7382POPC   NC332063  43.895   4.282   9.453
 7382POPC   PO432064  43.845   4.296   9.153
 7382POPC   GL132065  43.926   4.366   8.853
 7382POPC   GL232066  43.848   4.488   8.853
 7382POPC   C1A32067  43.860   4.364   8.553
 7382POPC   D2A32068  43.915   4.336   8.253
 7382POPC   C3A32069  43.916   4.318   7.953
 7382POPC   C4A32070  43.853   4.356   7.653
 7382POPC   C1B32071  43.847   4.602   8.553
 7382POPC   C2B32072  43.823   4.545   8.253
 7382POPC   C3B32073  43.872   4.546   7.953
 7382POPC   C4B32074  43.864   4.604   7.653
 7383POPC   NC332075  18.266  19.849   9.453
 7383POPC   PO432076  18.285  19.870   9.153
 7383POPC   GL132077  18.269  19.852   8.853
 7383POPC   GL232078  18.210  19.845   8.853
 7383POPC   C1A32079  18.288  19.787   8.553
 7383POPC   D2A32080  18.233  19.788   8.253
 7383POPC   C3A32081  18.236  19.874   7.953
 7383POPC   C4A32082  18.286  19.873   7.653
 7383POPC   C1B32083  18.022  19.756   8.553
 7383POPC   C2B32084  18.071  19.741   8.253
 7383POPC   C3B32085  18.021  19.771   7.953
 7383POPC   C4B32086  18.009  19.783   7.653
 7384POPC   NC332087  33.803  12.823   9.453
 7384POPC   PO432088  33.804  12.815   9.153
 7384POPC   GL132089  33.846  12.813   8.853
 7384POPC   GL232090  33.876  12.743   8.853
 7384POPC   C1A32091  33.812  12.876   8.553
 7384POPC   D2A32092  33.823  12.854   8.253
 7384POPC   C3A32093  33.827  12.895   7.953
 7384POPC   C4A32094  33.814  12.827   7.653
 7384POPC   C1B32095  34.000  12.710   8.553
 7384POPC   C2B32096  34.050  12.688   8.253
 7384POPC   C3B32097  34.040  12.757   7.953
 7384POPC   C4B32098  33.996  12.747   7.653
 7385POPC   NC332099  41.602   0.467   9.453
 7385POPC   PO432100  41.584   0.405   9.153
 7385POPC   GL132101  41.520   0.454   8.853
 7385POPC   GL232102  41.464   0.314   8.853
 7385POPC   C1A32103  41.512   0.391   8.553
 7385POPC   D2A32104  41.588   0.450   8.253
 7385POPC   C3A32105  41.576   0.456   7.953
 7385POPC   C4A32106  41.516   0.458   7.653
 7385POPC   C1B32107  41.372   0.200   8.553
 7385POPC   C2B32108  41.434   0.220   8.253
 7385POPC   C3B32109  41.392   0.266   7.953
 7385POPC   C4B32110  41.382   0.248   7.653
 7386POPC   NC332111  31.453  40.015   9.453
 7386POPC   PO432112  31.490  39.966   9.153
 7386POPC   GL132113  31.491  39.981   8.853
 7386POPC   GL232114  31.447  39.855   8.853
 7386POPC   C1A32115  31.474  39.993   8.553
 7386POPC   D2A32116  31.446  39.994   8.253
 7386POPC   C3A32117  31.467  40.030   7.953
 7386POPC   C4A32118  31.504  40.034   7.653
 7386POPC   C1B32119  31.430  39.777   8.553
 7386POPC   C2B32120  31.448  39.716   8.253
 7386POPC   C3B32121  31.376  39.788   7.953
 7386POPC   C4B32122  31.429  39.810   7.653
 7387POPC   NC332123   2.032  42.298   9.453
 7387POPC   PO432124   1.948  42.299   9.153
 7387POPC   GL132125   1.950  42.302   8.853
 7387POPC   GL232126   1.945  42.283   8.853
 7387POPC   C1A32127   1.959  42.353   8.553
 7387POPC   D2A32128   1.973  42.358   8.253
 7387POPC   C3A32129   2.040  42.357   7.953
 7387POPC   C4A32130   2.014  42.323   7.653
 7387POPC   C1B32131   1.766  42.125   8.553
 7387POPC   C2B32132   1.834  42.119   8.253
 7387POPC   C3B32133   1.782  42.150   7.953
 7387POPC   C4B32134   1.794  42.139   7.653
 7388POPC   NC332135  38.478  15.976   9.453
 7388POPC   PO432136  38.468  15.920   9.153
 7388POPC   GL132137  38.410  15.941   8.853
 7388POPC   GL232138  38.598  15.897   8.853
 7388POPC   C1A32139  38.418  15.916   8.553
 7388POPC   D2A32140  38.435  15.910   8.253
 7388POPC   C3A32141  38.477  15.949   7.953
 7388POPC   C4A32142  38.482  15.960   7.653
 7388POPC   C1B32143  38.661  15.812   8.553
 7388POPC   C2B32144  38.730  15.890   8.253
 7388POPC   C3B32145  38.712  15.891   7.953
 7388POPC   C4B32146  38.724  15.837   7.653
 7389POPC   NC332147  12.868   2.776   9.453
 7389POPC   PO432148  12.878   2.748   9.153
 7389POPC   GL132149  12.835   2.746   8.853
 7389POPC   GL232150  12.738   2.805   8.853
 7389POPC   C1A32151  12.883   2.794   8.553
 7389POPC   D2A32152  12.887   2.728   8.253
 7389POPC   C3A32153  12.818   2.774   7.953
 7389POPC   C4A32154  12.891   2.721   7.653
 7389POPC   C1B32155  12.603   2.762   8.553
 7389POPC   C2B32156  12.569   2.818   8.253
 7389POPC   C3B32157  12.599   2.771   7.953
 7389POPC   C4B32158  12.632   2.768   7.653
 7390POPC   NC332159  40.027   8.222   9.453
 7390POPC   PO432160  40.053   8.170   9.153
 7390POPC   GL132161  39.992   8.241   8.853
 7390POPC   GL232162  39.974   8.282   8.853
 7390POPC   C1A32163  40.042   8.149   8.553
 7390POPC   D2A32164  39.983   8.171   8.253
 7390POPC   C3A32165  39.966   8.184   7.953
 7390POPC   C4A32166  40.033   8.210   7.653
 7390POPC   C1B32167  39.951   8.484   8.553
 7390POPC   C2B32168  39.935   8.436   8.253
 7390POPC   C3B32169  39.948   8.471   7.953
 7390POPC   C4B32170  40.000   8.428   7.653
 7391POPC   NC332171  39.244   9.011   9.453
 7391POPC   PO432172  39.240   8.950   9.153
 7391POPC   GL132173  39.250   8.941   8.853
 7391POPC   GL232174  39.159   8.932   8.853
 7391POPC   C1A32175  39.188   8.943   8.553
 7391POPC   D2A32176  39.214   8.950   8.253
 7391POPC   C3A32177  39.232   8.988   7.953
 7391POPC   C4A32178  39.190   8.964   7.653
 7391POPC   C1B32179  38.948   8.891   8.553
 7391POPC   C2B32180  38.987   8.903   8.253
 7391POPC   C3B32181  38.967   8.886   7.953
 7391POPC   C4B32182  38.974   8.950   7.653
 7392POPC   NC332183   8.985  22.177   9.453
 7392POPC   PO432184   8.982  22.166   9.153
 7392POPC   GL132185   8.950  22.211   8.853
 7392POPC   GL232186   9.135  22.160   8.853
 7392POPC   C1A32187   8.971  22.158   8.553
 7392POPC   D2A32188   9.011  22.193   8.253
 7392POPC   C3A32189   8.939  22.138   7.953
 7392POPC   C4A32190   9.000  22.131   7.653
 7392POPC   C1B32191   9.263  22.143   8.553
 7392POPC   C2B32192   9.193  22.166   8.253
 7392POPC   C3B32193   9.212  22.192   7.953
 7392POPC   C4B32194   9.214  22.198   7.653
 7393POPC   NC332195  12.105  12.894   9.453
 7393POPC   PO432196  12.077  12.877   9.153
 7393POPC   GL132197  12.040  12.853   8.853
 7393POPC   GL232198  12.023  12.691   8.853
 7393POPC   C1A32199  12.033  12.849   8.553
 7393POPC   D2A32200  12.092  12.839   8.253
 7393POPC   C3A32201  12.048  12.840   7.953
 7393POPC   C4A32202  12.092  12.859   7.653
 7393POPC   C1B32203  11.992  12.608   8.553
 7393POPC   C2B32204  12.039  12.654   8.253
 7393POPC   C3B32205  12.088  12.613   7.953
 7393POPC   C4B32206  11.993  12.612   7.653
 7394POPC   NC332207  19.086  31.501   9.453
 7394POPC   PO432208  19.106  31.467   9.153
 7394POPC   GL132209  19.100  31.505   8.853
 7394POPC   GL232210  18.889  31.542   8.853
 7394POPC   C1A32211  19.014  31.491   8.553
 7394POPC   D2A32212  19.077  31.503   8.253
 7394POPC   C3A32213  19.082  31.462   7.953
 7394POPC   C4A32214  19.037  31.454   7.653
 7394POPC   C1B32215  18.831  31.590   8.553
 7394POPC   C2B32216  18.858  31.500   8.253
 7394POPC   C3B32217  18.834  31.500   7.953
 7394POPC   C4B32218  18.866  31.586   7.653
 7395POPC   NC332219  11.275  23.701   9.453
 7395POPC   PO432220  11.307  23.723   9.153
 7395POPC   GL132221  11.263  23.669   8.853
 7395POPC   GL232222  11.340  23.806   8.853
 7395POPC   C1A32223  11.269  23.716   8.553
 7395POPC   D2A32224  11.313  23.702   8.253
 7395POPC   C3A32225  11.298  23.707   7.953
 7395POPC   C4A32226  11.300  23.732   7.653
 7395POPC   C1B32227  11.424  23.867   8.553
 7395POPC   C2B32228  11.421  23.962   8.253
 7395POPC   C3B32229  11.471  23.896   7.953
 7395POPC   C4B32230  11.495  23.959   7.653
 7396POPC   NC332231  22.150   7.449   9.453
 7396POPC   PO432232  22.152   7.424   9.153
 7396POPC   GL132233  22.153   7.404   8.853
 7396POPC   GL232234  22.148   7.570   8.853
 7396POPC   C1A32235  22.154   7.389   8.553
 7396POPC   D2A32236  22.148   7.405   8.253
 7396POPC   C3A32237  22.194   7.387   7.953
 7396POPC   C4A32238  22.127   7.448   7.653
 7396POPC   C1B32239  22.097   7.678   8.553
 7396POPC   C2B32240  22.040   7.672   8.253
 7396POPC   C3B32241  22.088   7.649   7.953
 7396POPC   C4B32242  22.100   7.656   7.653
 7397POPC   NC332243  26.819  14.365   9.453
 7397POPC   PO432244  26.819  14.399   9.153
 7397POPC   GL132245  26.791  14.420   8.853
 7397POPC   GL232246  26.731  14.348   8.853
 7397POPC   C1A32247  26.828  14.376   8.553
 7397POPC   D2A32248  26.809  14.422   8.253
 7397POPC   C3A32249  26.850  14.376   7.953
 7397POPC   C4A32250  26.810  14.370   7.653
 7397POPC   C1B32251  26.632  14.312   8.553
 7397POPC   C2B32252  26.601  14.293   8.253
 7397POPC   C3B32253  26.590  14.263   7.953
 7397POPC   C4B32254  26.541  14.292   7.653
 7398POPC   NC332255  25.298   0.481   9.453
 7398POPC   PO432256  25.262   0.485   9.153
 7398POPC   GL132257  25.221   0.454   8.853
 7398POPC   GL232258  25.203   0.298   8.853
 7398POPC   C1A32259  25.235   0.404   8.553
 7398POPC   D2A32260  25.267   0.422   8.253
 7398POPC   C3A32261  25.256   0.389   7.953
 7398POPC   C4A32262  25.261   0.433   7.653
 7398POPC   C1B32263  25.100   0.278   8.553
 7398POPC   C2B32264  25.147   0.203   8.253
 7398POPC   C3B32265  25.140   0.217   7.953
 7398POPC   C4B32266  25.063   0.218   7.653
 7399POPC   NC332267   9.007  30.654   9.453
 7399POPC   PO432268   8.942  30.697   9.153
 7399POPC   GL132269   9.008  30.671   8.853
 7399POPC   GL232270   9.071  30.772   8.853
 7399POPC   C1A32271   8.930  30.684   8.553
 7399POPC   D2A32272   8.976  30.674   8.253
 7399POPC   C3A32273   8.929  30.703   7.953
 7399POPC   C4A32274   8.997  30.662   7.653
 7399POPC   C1B32275   9.031  30.937   8.553
 7399POPC   C2B32276   9.109  30.917   8.253
 7399POPC   C3B32277   9.121  30.929   7.953
 7399POPC   C4B32278   9.110  30.953   7.653
 7400POPC   NC332279  40.049  17.536   9.453
 7400POPC   PO432280  40.025  17.483   9.153
 7400POPC   GL132281  40.002  17.490   8.853
 7400POPC   GL232282  40.086  17.527   8.853
 7400POPC   C1A32283  40.015  17.512   8.553
 7400POPC   D2A32284  40.001  17.464   8.253
 7400POPC   C3A32285  40.039  17.489   7.953
 7400POPC   C4A32286  40.008  17.505   7.653
 7400POPC   C1B32287  40.253  17.498   8.553
 7400POPC   C2B32288  40.299  17.479   8.253
 7400POPC   C3B32289  40.289  17.497   7.953
 7400POPC   C4B32290  40.280  17.526   7.653
 7401POPC   NC332291   8.969   5.100   9.453
 7401POPC   PO432292   8.977   5.083   9.153
 7401POPC   GL132293   8.980   5.137   8.853
 7401POPC   GL232294   8.927   5.173   8.853
 7401POPC   C1A32295   9.014   5.072   8.553
 7401POPC   D2A32296   9.005   5.050   8.253
 7401POPC   C3A32297   9.019   5.101   7.953
 7401POPC   C4A32298   8.983   5.066   7.653
 7401POPC   C1B32299   8.889   5.295   8.553
 7401POPC   C2B32300   8.923   5.352   8.253
 7401POPC   C3B32301   8.942   5.370   7.953
 7401POPC   C4B32302   8.950   5.381   7.653
 7402POPC   NC332303  39.268   4.268   9.453
 7402POPC   PO432304  39.253   4.326   9.153
 7402POPC   GL132305  39.252   4.299   8.853
 7402POPC   GL232306  39.339   4.365   8.853
 7402POPC   C1A32307  39.247   4.297   8.553
 7402POPC   D2A32308  39.275   4.344   8.253
 7402POPC   C3A32309  39.215   4.366   7.953
 7402POPC   C4A32310  39.255   4.271   7.653
 7402POPC   C1B32311  39.475   4.500   8.553
 7402POPC   C2B32312  39.392   4.418   8.253
 7402POPC   C3B32313  39.464   4.487   7.953
 7402POPC   C4B32314  39.448   4.498   7.653
 7403POPC   NC332315   2.814   8.175   9.453
 7403POPC   PO432316   2.768   8.247   9.153
 7403POPC   GL132317   2.793   8.196   8.853
 7403POPC   GL232318   2.822   8.083   8.853
 7403POPC   C1A32319   2.730   8.181   8.553
 7403POPC   D2A32320   2.761   8.194   8.253
 7403POPC   C3A32321   2.741   8.225   7.953
 7403POPC   C4A32322   2.803   8.244   7.653
 7403POPC   C1B32323   2.925   7.965   8.553
 7403POPC   C2B32324   2.872   8.024   8.253
 7403POPC   C3B32325   2.891   7.989   7.953
 7403POPC   C4B32326   2.916   7.970   7.653
 7404POPC   NC332327   2.808  44.702   9.453
 7404POPC   PO432328   2.806  44.692   9.153
 7404POPC   GL132329   2.767  44.641   8.853
 7404POPC   GL232330   2.692  44.610   8.853
 7404POPC   C1A32331   2.805  44.643   8.553
 7404POPC   D2A32332   2.758  44.642   8.253
 7404POPC   C3A32333   2.762  44.675   7.953
 7404POPC   C4A32334   2.746  44.662   7.653
 7404POPC   C1B32335   2.524  44.539   8.553
 7404POPC   C2B32336   2.527  44.549   8.253
 7404POPC   C3B32337   2.561  44.634   7.953
 7404POPC   C4B32338   2.570  44.562   7.653
 7405POPC   NC332339  18.237  23.683   9.453
 7405POPC   PO432340  18.251  23.741   9.153
 7405POPC   GL132341  18.258  23.702   8.853
 7405POPC   GL232342  18.259  23.860   8.853
 7405POPC   C1A32343  18.248  23.745   8.553
 7405POPC   D2A32344  18.242  23.680   8.253
 7405POPC   C3A32345  18.237  23.715   7.953
 7405POPC   C4A32346  18.325  23.747   7.653
 7405POPC   C1B32347  18.291  24.000   8.553
 7405POPC   C2B32348  18.201  23.972   8.253
 7405POPC   C3B32349  18.230  23.996   7.953
 7405POPC   C4B32350  18.207  23.979   7.653
 7406POPC   NC332351  18.240  25.238   9.453
 7406POPC   PO432352  18.243  25.283   9.153
 7406POPC   GL132353  18.320  25.271   8.853
 7406POPC   GL232354  18.141  25.231   8.853
 7406POPC   C1A32355  18.254  25.252   8.553
 7406POPC   D2A32356  18.306  25.315   8.253
 7406POPC   C3A32357  18.311  25.217   7.953
 7406POPC   C4A32358  18.321  25.265   7.653
 7406POPC   C1B32359  18.041  25.253   8.553
 7406POPC   C2B32360  17.999  25.205   8.253
 7406POPC   C3B32361  18.049  25.196   7.953
 7406POPC   C4B32362  18.082  25.268   7.653
 7407POPC   NC332363   5.121  19.054   9.453
 7407POPC   PO432364   5.079  19.051   9.153
 7407POPC   GL132365   5.076  19.101   8.853
 7407POPC   GL232366   4.992  19.028   8.853
 7407POPC   C1A32367   5.126  19.039   8.553
 7407POPC   D2A32368   5.079  19.107   8.253
 7407POPC   C3A32369   5.089  19.012   7.953
 7407POPC   C4A32370   5.110  19.058   7.653
 7407POPC   C1B32371   4.884  19.007   8.553
 7407POPC   C2B32372   4.810  18.972   8.253
 7407POPC   C3B32373   4.803  19.048   7.953
 7407POPC   C4B32374   4.867  18.996   7.653
 7408POPC   NC332375  44.657   0.395   9.453
 7408POPC   PO432376  44.698   0.486   9.153
 7408POPC   GL132377  44.614   0.399   8.853
 7408POPC   GL232378  44.761   0.324   8.853
 7408POPC   C1A32379  44.644   0.449   8.553
 7408POPC   D2A32380  44.665   0.427   8.253
 7408POPC   C3A32381  44.659   0.440   7.953
 7408POPC   C4A32382  44.670   0.388   7.653
 7408POPC   C1B32383  44.810   0.249   8.553
 7408POPC   C2B32384  44.812   0.240   8.253
 7408POPC   C3B32385  44.798   0.182   7.953
 7408POPC   C4B32386  44.759   0.255   7.653
 7409POPC   NC332387   8.229  13.627   9.453
 7409POPC   PO432388   8.215  13.618   9.153
 7409POPC   GL132389   8.166  13.610   8.853
 7409POPC   GL232390   8.166  13.560   8.853
 7409POPC   C1A32391   8.237  13.615   8.553
 7409POPC   D2A32392   8.163  13.652   8.253
 7409POPC   C3A32393   8.157  13.579   7.953
 7409POPC   C4A32394   8.200  13.635   7.653
 7409POPC   C1B32395   8.085  13.380   8.553
 7409POPC   C2B32396   8.084  13.390   8.253
 7409POPC   C3B32397   8.093  13.442   7.953
 7409POPC   C4B32398   8.063  13.446   7.653
 7410POPC   NC332399  12.844   5.073   9.453
 7410POPC   PO432400  12.854   5.075   9.153
 7410POPC   GL132401  12.841   5.052   8.853
 7410POPC   GL232402  12.949   5.195   8.853
 7410POPC   C1A32403  12.870   5.124   8.553
 7410POPC   D2A32404  12.810   5.124   8.253
 7410POPC   C3A32405  12.829   5.111   7.953
 7410POPC   C4A32406  12.873   5.093   7.653
 7410POPC   C1B32407  13.026   5.296   8.553
 7410POPC   C2B32408  13.033   5.320   8.253
 7410POPC   C3B32409  12.989   5.242   7.953
 7410POPC   C4B32410  12.979   5.251   7.653
 7411POPC   NC332411   8.223  27.558   9.453
 7411POPC   PO432412   8.197  27.614   9.153
 7411POPC   GL132413   8.174  27.604   8.853
 7411POPC   GL232414   8.070  27.561   8.853
 7411POPC   C1A32415   8.204  27.604   8.553
 7411POPC   D2A32416   8.184  27.586   8.253
 7411POPC   C3A32417   8.220  27.587   7.953
 7411POPC   C4A32418   8.230  27.609   7.653
 7411POPC   C1B32419   7.937  27.557   8.553
 7411POPC   C2B32420   7.934  27.556   8.253
 7411POPC   C3B32421   7.956  27.541   7.953
 7411POPC   C4B32422   7.901  27.630   7.653
 7412POPC   NC332423  30.680  39.269   9.453
 7412POPC   PO432424  30.693  39.215   9.153
 7412POPC   GL132425  30.721  39.249   8.853
 7412POPC   GL232426  30.788  39.139   8.853
 7412POPC   C1A32427  30.744  39.258   8.553
 7412POPC   D2A32428  30.694  39.234   8.253
 7412POPC   C3A32429  30.726  39.265   7.953
 7412POPC   C4A32430  30.648  39.231   7.653
 7412POPC   C1B32431  30.842  39.102   8.553
 7412POPC   C2B32432  30.917  39.052   8.253
 7412POPC   C3B32433  30.882  39.035   7.953
 7412POPC   C4B32434  30.920  39.067   7.653
 7413POPC   NC332435  31.447  36.855   9.453
 7413POPC   PO432436  31.467  36.937   9.153
 7413POPC   GL132437  31.444  36.880   8.853
 7413POPC   GL232438  31.416  36.849   8.853
 7413POPC   C1A32439  31.476  36.905   8.553
 7413POPC   D2A32440  31.464  36.929   8.253
 7413POPC   C3A32441  31.512  36.915   7.953
 7413POPC   C4A32442  31.459  36.919   7.653
 7413POPC   C1B32443  31.231  36.755   8.553
 7413POPC   C2B32444  31.274  36.749   8.253
 7413POPC   C3B32445  31.259  36.710   7.953
 7413POPC   C4B32446  31.247  36.786   7.653
 7414POPC   NC332447  40.801  31.455   9.453
 7414POPC   PO432448  40.772  31.440   9.153
 7414POPC   GL132449  40.752  31.517   8.853
 7414POPC   GL232450  40.741  31.316   8.853
 7414POPC   C1A32451  40.776  31.432   8.553
 7414POPC   D2A32452  40.760  31.482   8.253
 7414POPC   C3A32453  40.745  31.494   7.953
 7414POPC   C4A32454  40.815  31.461   7.653
 7414POPC   C1B32455  40.709  31.232   8.553
 7414POPC   C2B32456  40.722  31.196   8.253
 7414POPC   C3B32457  40.749  31.213   7.953
 7414POPC   C4B32458  40.724  31.249   7.653
 7415POPC   NC332459   5.111  44.657   9.453
 7415POPC   PO432460   5.067  44.710   9.153
 7415POPC   GL132461   5.107  44.621   8.853
 7415POPC   GL232462   5.182  44.621   8.853
 7415POPC   C1A32463   5.108  44.708   8.553
 7415POPC   D2A32464   5.074  44.642   8.253
 7415POPC   C3A32465   5.108  44.696   7.953
 7415POPC   C4A32466   5.084  44.687   7.653
 7415POPC   C1B32467   5.286  44.605   8.553
 7415POPC   C2B32468   5.305  44.605   8.253
 7415POPC   C3B32469   5.285  44.612   7.953
 7415POPC   C4B32470   5.318  44.535   7.653
 7416POPC   NC332471  37.689  39.253   9.453
 7416POPC   PO432472  37.694  39.241   9.153
 7416POPC   GL132473  37.681  39.250   8.853
 7416POPC   GL232474  37.603  39.284   8.853
 7416POPC   C1A32475  37.666  39.215   8.553
 7416POPC   D2A32476  37.630  39.220   8.253
 7416POPC   C3A32477  37.712  39.230   7.953
 7416POPC   C4A32478  37.665  39.255   7.653
 7416POPC   C1B32479  37.531  39.407   8.553
 7416POPC   C2B32480  37.469  39.444   8.253
 7416POPC   C3B32481  37.512  39.361   7.953
 7416POPC   C4B32482  37.503  39.362   7.653
 7417POPC   NC332483   5.863  17.547   9.453
 7417POPC   PO432484   5.846  17.485   9.153
 7417POPC   GL132485   5.917  17.516   8.853
 7417POPC   GL232486   5.930  17.429   8.853
 7417POPC   C1A32487   5.894  17.482   8.553
 7417POPC   D2A32488   5.854  17.506   8.253
 7417POPC   C3A32489   5.828  17.471   7.953
 7417POPC   C4A32490   5.848  17.500   7.653
 7417POPC   C1B32491   6.001  17.275   8.553
 7417POPC   C2B32492   5.979  17.347   8.253
 7417POPC   C3B32493   6.008  17.348   7.953
 7417POPC   C4B32494   6.047  17.274   7.653
 7418POPC   NC332495  43.865  19.053   9.453
 7418POPC   PO432496  43.849  19.039   9.153
 7418POPC   GL132497  43.904  19.100   8.853
 7418POPC   GL232498  43.811  19.181   8.853
 7418POPC   C1A32499  43.847  19.065   8.553
 7418POPC   D2A32500  43.902  19.070   8.253
 7418POPC   C3A32501  43.858  19.050   7.953
 7418POPC   C4A32502  43.914  19.083   7.653
 7418POPC   C1B32503  43.706  19.281   8.553
 7418POPC   C2B32504  43.759  19.240   8.253
 7418POPC   C3B32505  43.764  19.196   7.953
 7418POPC   C4B32506  43.712  19.244   7.653
 7419POPC   NC332507   1.187  34.549   9.453
 7419POPC   PO432508   1.168  34.554   9.153
 7419POPC   GL132509   1.207  34.582   8.853
 7419POPC   GL232510   1.299  34.700   8.853
 7419POPC   C1A32511   1.228  34.577   8.553
 7419POPC   D2A32512   1.257  34.558   8.253
 7419POPC   C3A32513   1.166  34.549   7.953
 7419POPC   C4A32514   1.256  34.622   7.653
 7419POPC   C1B32515   1.355  34.737   8.553
 7419POPC   C2B32516   1.392  34.800   8.253
 7419POPC   C3B32517   1.323  34.743   7.953
 7419POPC   C4B32518   1.359  34.758   7.653
 7420POPC   NC332519  35.374  36.928   9.453
 7420POPC   PO432520  35.318  36.948   9.153
 7420POPC   GL132521  35.344  36.930   8.853
 7420POPC   GL232522  35.418  36.799   8.853
 7420POPC   C1A32523  35.360  36.944   8.553
 7420POPC   D2A32524  35.333  36.891   8.253
 7420POPC   C3A32525  35.325  36.880   7.953
 7420POPC   C4A32526  35.336  36.940   7.653
 7420POPC   C1B32527  35.457  36.696   8.553
 7420POPC   C2B32528  35.419  36.659   8.253
 7420POPC   C3B32529  35.489  36.651   7.953
 7420POPC   C4B32530  35.475  36.669   7.653
 7421POPC   NC332531  21.337  21.375   9.453
 7421POPC   PO432532  21.359  21.373   9.153
 7421POPC   GL132533  21.404  21.395   8.853
 7421POPC   GL232534  21.241  21.390   8.853
 7421POPC   C1A32535  21.397  21.391   8.553
 7421POPC   D2A32536  21.388  21.358   8.253
 7421POPC   C3A32537  21.368  21.423   7.953
 7421POPC   C4A32538  21.369  21.402   7.653
 7421POPC   C1B32539  21.160  21.462   8.553
 7421POPC   C2B32540  21.181  21.466   8.253
 7421POPC   C3B32541  21.133  21.384   7.953
 7421POPC   C4B32542  21.157  21.389   7.653
 7422POPC   NC332543  22.122   5.917   9.453
 7422POPC   PO432544  22.121   5.833   9.153
 7422POPC   GL132545  22.115   5.879   8.853
 7422POPC   GL232546  22.018   5.845   8.853
 7422POPC   C1A32547  22.202   5.855   8.553
 7422POPC   D2A32548  22.115   5.905   8.253
 7422POPC   C3A32549  22.190   5.846   7.953
 7422POPC   C4A32550  22.212   5.878   7.653
 7422POPC   C1B32551  21.959   5.897   8.553
 7422POPC   C2B32552  21.957   5.889   8.253
 7422POPC   C3B32553  21.911   5.875   7.953
 7422POPC   C4B32554  21.941   5.909   7.653
 7423POPC   NC332555  21.422  29.954   9.453
 7423POPC   PO432556  21.414  29.942   9.153
 7423POPC   GL132557  21.434  29.916   8.853
 7423POPC   GL232558  21.490  30.014   8.853
 7423POPC   C1A32559  21.354  29.929   8.553
 7423POPC   D2A32560  21.367  29.933   8.253
 7423POPC   C3A32561  21.341  29.878   7.953
 7423POPC   C4A32562  21.356  29.971   7.653
 7423POPC   C1B32563  21.559  30.119   8.553
 7423POPC   C2B32564  21.573  30.148   8.253
 7423POPC   C3B32565  21.541  30.117   7.953
 7423POPC   C4B32566  21.517  30.067   7.653
 7424POPC   NC332567  27.575  19.838   9.453
 7424POPC   PO432568  27.582  19.785   9.153
 7424POPC   GL132569  27.625  19.823   8.853
 7424POPC   GL232570  27.474  19.728   8.853
 7424POPC   C1A32571  27.567  19.883   8.553
 7424POPC   D2A32572  27.555  19.836   8.253
 7424POPC   C3A32573  27.584  19.843   7.953
 7424POPC   C4A32574  27.632  19.850   7.653
 7424POPC   C1B32575  27.351  19.705   8.553
 7424POPC   C2B32576  27.382  19.753   8.253
 7424POPC   C3B32577  27.358  19.687   7.953
 7424POPC   C4B32578  27.380  19.691   7.653
 7425POPC   NC332579  36.913  15.155   9.453
 7425POPC   PO432580  36.874  15.131   9.153
 7425POPC   GL132581  36.871  15.184   8.853
 7425POPC   GL232582  37.042  15.115   8.853
 7425POPC   C1A32583  36.937  15.221   8.553
 7425POPC   D2A32584  36.864  15.166   8.253
 7425POPC   C3A32585  36.865  15.130   7.953
 7425POPC   C4A32586  36.913  15.149   7.653
 7425POPC   C1B32587  37.128  14.962   8.553
 7425POPC   C2B32588  37.052  15.008   8.253
 7425POPC   C3B32589  37.066  15.030   7.953
 7425POPC   C4B32590  37.079  14.979   7.653
 7426POPC   NC332591  31.462   0.464   9.453
 7426POPC   PO432592  31.489   0.444   9.153
 7426POPC   GL132593  31.456   0.487   8.853
 7426POPC   GL232594  31.492   0.275   8.853
 7426POPC   C1A32595  31.512   0.417   8.553
 7426POPC   D2A32596  31.510   0.482   8.253
 7426POPC   C3A32597  31.431   0.431   7.953
 7426POPC   C4A32598  31.466   0.474   7.653
 7426POPC   C1B32599  31.393   0.208   8.553
 7426POPC   C2B32600  31.459   0.223   8.253
 7426POPC   C3B32601  31.397   0.175   7.953
 7426POPC   C4B32602  31.410   0.179   7.653
 7427POPC   NC332603   1.206  36.090   9.453
 7427POPC   PO432604   1.230  36.170   9.153
 7427POPC   GL132605   1.204  36.155   8.853
 7427POPC   GL232606   1.208  36.266   8.853
 7427POPC   C1A32607   1.260  36.155   8.553
 7427POPC   D2A32608   1.181  36.126   8.253
 7427POPC   C3A32609   1.176  36.110   7.953
 7427POPC   C4A32610   1.263  36.079   7.653
 7427POPC   C1B32611   1.118  36.320   8.553
 7427POPC   C2B32612   1.192  36.418   8.253
 7427POPC   C3B32613   1.129  36.397   7.953
 7427POPC   C4B32614   1.142  36.392   7.653
 7428POPC   NC332615   5.105  33.780   9.453
 7428POPC   PO432616   5.119  33.779   9.153
 7428POPC   GL132617   5.079  33.821   8.853
 7428POPC   GL232618   5.228  33.829   8.853
 7428POPC   C1A32619   5.123  33.816   8.553
 7428POPC   D2A32620   5.058  33.785   8.253
 7428POPC   C3A32621   5.106  33.754   7.953
 7428POPC   C4A32622   5.060  33.764   7.653
 7428POPC   C1B32623   5.328  33.880   8.553
 7428POPC   C2B32624   5.357  33.883   8.253
 7428POPC   C3B32625   5.291  33.893   7.953
 7428POPC   C4B32626   5.282  33.937   7.653
 7429POPC   NC332627  39.202   8.228   9.453
 7429POPC   PO432628  39.272   8.179   9.153
 7429POPC   GL132629  39.264   8.218   8.853
 7429POPC   GL232630  39.248   8.048   8.853
 7429POPC   C1A32631  39.238   8.172   8.553
 7429POPC   D2A32632  39.279   8.235   8.253
 7429POPC   C3A32633  39.189   8.167   7.953
 7429POPC   C4A32634  39.206   8.177   7.653
 7429POPC   C1B32635  39.276   7.943   8.553
 7429POPC   C2B32636  39.241   7.923   8.253
 7429POPC   C3B32637  39.232   7.930   7.953
 7429POPC   C4B32638  39.186   7.916   7.653
 7430POPC   NC332639  29.908  26.006   9.453
 7430POPC   PO432640  29.941  25.999   9.153
 7430POPC   GL132641  29.893  26.044   8.853
 7430POPC   GL232642  29.885  26.151   8.853
 7430POPC   C1A32643  29.947  25.995   8.553
 7430POPC   D2A32644  29.937  26.013   8.253
 7430POPC   C3A32645  29.938  26.051   7.953
 7430POPC   C4A32646  29.966  26.004   7.653
 7430POPC   C1B32647  29.803  26.293   8.553
 7430POPC   C2B32648  29.833  26.256   8.253
 7430POPC   C3B32649  29.877  26.300   7.953
 7430POPC   C4B32650  29.796  26.307   7.653
 7431POPC   NC332651   3.573  36.172   9.453
 7431POPC   PO432652   3.521  36.146   9.153
 7431POPC   GL132653   3.554  36.156   8.853
 7431POPC   GL232654   3.561  36.270   8.853
 7431POPC   C1A32655   3.585  36.079   8.553
 7431POPC   D2A32656   3.529  36.079   8.253
 7431POPC   C3A32657   3.545  36.110   7.953
 7431POPC   C4A32658   3.535  36.148   7.653
 7431POPC   C1B32659   3.612  36.349   8.553
 7431POPC   C2B32660   3.663  36.396   8.253
 7431POPC   C3B32661   3.605  36.396   7.953
 7431POPC   C4B32662   3.682  36.322   7.653
 7432POPC   NC332663   5.076  40.817   9.453
 7432POPC   PO432664   5.073  40.813   9.153
 7432POPC   GL132665   5.046  40.754   8.853
 7432POPC   GL232666   5.048  40.843   8.853
 7432POPC   C1A32667   5.138  40.794   8.553
 7432POPC   D2A32668   5.109  40.769   8.253
 7432POPC   C3A32669   5.071  40.749   7.953
 7432POPC   C4A32670   5.140  40.802   7.653
 7432POPC   C1B32671   4.958  40.928   8.553
 7432POPC   C2B32672   4.953  40.963   8.253
 7432POPC   C3B32673   4.889  40.946   7.953
 7432POPC   C4B32674   4.946  40.994   7.653
 7433POPC   NC332675  21.390  20.569   9.453
 7433POPC   PO432676  21.400  20.631   9.153
 7433POPC   GL132677  21.345  20.561   8.853
 7433POPC   GL232678  21.510  20.559   8.853
 7433POPC   C1A32679  21.373  20.592   8.553
 7433POPC   D2A32680  21.369  20.642   8.253
 7433POPC   C3A32681  21.362  20.592   7.953
 7433POPC   C4A32682  21.419  20.594   7.653
 7433POPC   C1B32683  21.617  20.456   8.553
 7433POPC   C2B32684  21.578  20.492   8.253
 7433POPC   C3B32685  21.602  20.463   7.953
 7433POPC   C4B32686  21.619  20.491   7.653
 7434POPC   NC332687   5.902  31.423   9.453
 7434POPC   PO432688   5.841  31.493   9.153
 7434POPC   GL132689   5.900  31.455   8.853
 7434POPC   GL232690   5.743  31.454   8.853
 7434POPC   C1A32691   5.843  31.447   8.553
 7434POPC   D2A32692   5.894  31.438   8.253
 7434POPC   C3A32693   5.838  31.476   7.953
 7434POPC   C4A32694   5.828  31.441   7.653
 7434POPC   C1B32695   5.667  31.523   8.553
 7434POPC   C2B32696   5.587  31.510   8.253
 7434POPC   C3B32697   5.601  31.511   7.953
 7434POPC   C4B32698   5.667  31.496   7.653
 7435POPC   NC332699  43.130   0.442   9.453
 7435POPC   PO432700  43.070   0.457   9.153
 7435POPC   GL132701  43.124   0.484   8.853
 7435POPC   GL232702  42.960   0.499   8.853
 7435POPC   C1A32703  43.117   0.457   8.553
 7435POPC   D2A32704  43.102   0.458   8.253
 7435POPC   C3A32705  43.101   0.468   7.953
 7435POPC   C4A32706  43.067   0.453   7.653
 7435POPC   C1B32707  42.857   0.519   8.553
 7435POPC   C2B32708  42.851   0.500   8.253
 7435POPC   C3B32709  42.898   0.514   7.953
 7435POPC   C4B32710  42.848   0.516   7.653
 7436POPC   NC332711  11.288   3.503   9.453
 7436POPC   PO432712  11.251   3.555   9.153
 7436POPC   GL132713  11.256   3.590   8.853
 7436POPC   GL232714  11.308   3.641   8.853
 7436POPC   C1A32715  11.258   3.589   8.553
 7436POPC   D2A32716  11.329   3.572   8.253
 7436POPC   C3A32717  11.322   3.559   7.953
 7436POPC   C4A32718  11.320   3.494   7.653
 7436POPC   C1B32719  11.334   3.810   8.553
 7436POPC   C2B32720  11.347   3.825   8.253
 7436POPC   C3B32721  11.339   3.746   7.953
 7436POPC   C4B32722  11.304   3.758   7.653
 7437POPC   NC332723  35.353  23.713   9.453
 7437POPC   PO432724  35.381  23.700   9.153
 7437POPC   GL132725  35.380  23.673   8.853
 7437POPC   GL232726  35.404  23.771   8.853
 7437POPC   C1A32727  35.342  23.741   8.553
 7437POPC   D2A32728  35.385  23.751   8.253
 7437POPC   C3A32729  35.312  23.754   7.953
 7437POPC   C4A32730  35.303  23.746   7.653
 7437POPC   C1B32731  35.483  23.859   8.553
 7437POPC   C2B32732  35.530  23.892   8.253
 7437POPC   C3B32733  35.501  23.863   7.953
 7437POPC   C4B32734  35.552  23.852   7.653
 7438POPC   NC332735  39.242  37.631   9.453
 7438POPC   PO432736  39.181  37.640   9.153
 7438POPC   GL132737  39.209  37.728   8.853
 7438POPC   GL232738  39.271  37.783   8.853
 7438POPC   C1A32739  39.224  37.654   8.553
 7438POPC   D2A32740  39.207  37.652   8.253
 7438POPC   C3A32741  39.202  37.703   7.953
 7438POPC   C4A32742  39.233  37.632   7.653
 7438POPC   C1B32743  39.215  37.964   8.553
 7438POPC   C2B32744  39.211  37.879   8.253
 7438POPC   C3B32745  39.227  37.896   7.953
 7438POPC   C4B32746  39.183  37.957   7.653
 7439POPC   NC332747  29.112  12.821   9.453
 7439POPC   PO432748  29.147  12.841   9.153
 7439POPC   GL132749  29.138  12.818   8.853
 7439POPC   GL232750  29.213  12.893   8.853
 7439POPC   C1A32751  29.107  12.847   8.553
 7439POPC   D2A32752  29.135  12.838   8.253
 7439POPC   C3A32753  29.155  12.811   7.953
 7439POPC   C4A32754  29.123  12.872   7.653
 7439POPC   C1B32755  29.280  13.032   8.553
 7439POPC   C2B32756  29.325  13.024   8.253
 7439POPC   C3B32757  29.328  13.045   7.953
 7439POPC   C4B32758  29.322  13.026   7.653
 7440POPC   NC332759  29.930  27.605   9.453
 7440POPC   PO432760  29.942  27.590   9.153
 7440POPC   GL132761  29.924  27.573   8.853
 7440POPC   GL232762  30.062  27.572   8.853
 7440POPC   C1A32763  29.959  27.616   8.553
 7440POPC   D2A32764  29.895  27.579   8.253
 7440POPC   C3A32765  29.969  27.597   7.953
 7440POPC   C4A32766  29.891  27.560   7.653
 7440POPC   C1B32767  30.093  27.466   8.553
 7440POPC   C2B32768  30.152  27.478   8.253
 7440POPC   C3B32769  30.150  27.429   7.953
 7440POPC   C4B32770  30.092  27.476   7.653
 7441POPC   NC332771  42.329   1.240   9.453
 7441POPC   PO432772  42.362   1.224   9.153
 7441POPC   GL132773  42.331   1.261   8.853
 7441POPC   GL232774  42.474   1.294   8.853
 7441POPC   C1A32775  42.379   1.218   8.553
 7441POPC   D2A32776  42.301   1.225   8.253
 7441POPC   C3A32777  42.351   1.248   7.953
 7441POPC   C4A32778  42.304   1.192   7.653
 7441POPC   C1B32779  42.541   1.418   8.553
 7441POPC   C2B32780  42.540   1.385   8.253
 7441POPC   C3B32781  42.490   1.412   7.953
 7441POPC   C4B32782  42.516   1.371   7.653
 7442POPC   NC332783   2.740  30.676   9.453
 7442POPC   PO432784   2.724  30.705   9.153
 7442POPC   GL132785   2.732  30.666   8.853
 7442POPC   GL232786   2.697  30.859   8.853
 7442POPC   C1A32787   2.718  30.742   8.553
 7442POPC   D2A32788   2.772  30.712   8.253
 7442POPC   C3A32789   2.800  30.742   7.953
 7442POPC   C4A32790   2.748  30.689   7.653
 7442POPC   C1B32791   2.700  30.960   8.553
 7442POPC   C2B32792   2.764  30.894   8.253
 7442POPC   C3B32793   2.744  30.960   7.953
 7442POPC   C4B32794   2.696  30.902   7.653
 7443POPC   NC332795  15.942  40.756   9.453
 7443POPC   PO432796  15.933  40.787   9.153
 7443POPC   GL132797  15.971  40.756   8.853
 7443POPC   GL232798  15.813  40.894   8.853
 7443POPC   C1A32799  15.922  40.785   8.553
 7443POPC   D2A32800  15.937  40.826   8.253
 7443POPC   C3A32801  15.994  40.793   7.953
 7443POPC   C4A32802  16.005  40.811   7.653
 7443POPC   C1B32803  15.769  40.977   8.553
 7443POPC   C2B32804  15.729  40.969   8.253
 7443POPC   C3B32805  15.803  40.962   7.953
 7443POPC   C4B32806  15.769  40.918   7.653
 7444POPC   NC332807   4.308   1.207   9.453
 7444POPC   PO432808   4.282   1.192   9.153
 7444POPC   GL132809   4.335   1.232   8.853
 7444POPC   GL232810   4.431   1.174   8.853
 7444POPC   C1A32811   4.301   1.226   8.553
 7444POPC   D2A32812   4.271   1.249   8.253
 7444POPC   C3A32813   4.320   1.228   7.953
 7444POPC   C4A32814   4.286   1.205   7.653
 7444POPC   C1B32815   4.562   1.106   8.553
 7444POPC   C2B32816   4.553   1.065   8.253
 7444POPC   C3B32817   4.572   1.048   7.953
 7444POPC   C4B32818   4.573   1.134   7.653
 7445POPC   NC332819  12.812  25.231   9.453
 7445POPC   PO432820  12.847  25.221   9.153
 7445POPC   GL132821  12.890  25.251   8.853
 7445POPC   GL232822  12.822  25.342   8.853
 7445POPC   C1A32823  12.819  25.294   8.553
 7445POPC   D2A32824  12.866  25.301   8.253
 7445POPC   C3A32825  12.879  25.261   7.953
 7445POPC   C4A32826  12.824  25.275   7.653
 7445POPC   C1B32827  12.851  25.553   8.553
 7445POPC   C2B32828  12.833  25.528   8.253
 7445POPC   C3B32829  12.829  25.479   7.953
 7445POPC   C4B32830  12.855  25.487   7.653
 7446POPC   NC332831  26.025  19.018   9.453
 7446POPC   PO432832  26.051  19.071   9.153
 7446POPC   GL132833  26.030  19.039   8.853
 7446POPC   GL232834  26.125  19.114   8.853
 7446POPC   C1A32835  26.021  19.059   8.553
 7446POPC   D2A32836  26.001  19.058   8.253
 7446POPC   C3A32837  26.007  19.041   7.953
 7446POPC   C4A32838  26.070  19.067   7.653
 7446POPC   C1B32839  26.265  19.193   8.553
 7446POPC   C2B32840  26.204  19.254   8.253
 7446POPC   C3B32841  26.206  19.213   7.953
 7446POPC   C4B32842  26.266  19.205   7.653
 7447POPC   NC332843  13.649  32.199   9.453
 7447POPC   PO432844  13.619  32.289   9.153
 7447POPC   GL132845  13.618  32.297   8.853
 7447POPC   GL232846  13.688  32.378   8.853
 7447POPC   C1A32847  13.581  32.261   8.553
 7447POPC   D2A32848  13.590  32.204   8.253
 7447POPC   C3A32849  13.663  32.234   7.953
 7447POPC   C4A32850  13.587  32.261   7.653
 7447POPC   C1B32851  13.782  32.448   8.553
 7447POPC   C2B32852  13.774  32.457   8.253
 7447POPC   C3B32853  13.762  32.421   7.953
 7447POPC   C4B32854  13.839  32.421   7.653
 7448POPC   NC332855   3.565  33.777   9.453
 7448POPC   PO432856   3.538  33.848   9.153
 7448POPC   GL132857   3.511  33.806   8.853
 7448POPC   GL232858   3.570  33.648   8.853
 7448POPC   C1A32859   3.554  33.787   8.553
 7448POPC   D2A32860   3.514  33.800   8.253
 7448POPC   C3A32861   3.523  33.849   7.953
 7448POPC   C4A32862   3.539  33.763   7.653
 7448POPC   C1B32863   3.590  33.525   8.553
 7448POPC   C2B32864   3.620  33.509   8.253
 7448POPC   C3B32865   3.607  33.565   7.953
 7448POPC   C4B32866   3.579  33.583   7.653
 7449POPC   NC332867  30.659  43.935   9.453
 7449POPC   PO432868  30.698  43.886   9.153
 7449POPC   GL132869  30.698  43.862   8.853
 7449POPC   GL232870  30.603  43.895   8.853
 7449POPC   C1A32871  30.710  43.874   8.553
 7449POPC   D2A32872  30.690  43.887   8.253
 7449POPC   C3A32873  30.659  43.927   7.953
 7449POPC   C4A32874  30.719  43.904   7.653
 7449POPC   C1B32875  30.406  43.864   8.553
 7449POPC   C2B32876  30.413  43.952   8.253
 7449POPC   C3B32877  30.476  43.876   7.953
 7449POPC   C4B32878  30.485  43.910   7.653
 7450POPC   NC332879  22.899  43.110   9.453
 7450POPC   PO432880  22.929  43.135   9.153
 7450POPC   GL132881  22.900  43.069   8.853
 7450POPC   GL232882  22.880  43.162   8.853
 7450POPC   C1A32883  22.923  43.107   8.553
 7450POPC   D2A32884  22.960  43.148   8.253
 7450POPC   C3A32885  22.897  43.102   7.953
 7450POPC   C4A32886  22.980  43.126   7.653
 7450POPC   C1B32887  22.713  43.326   8.553
 7450POPC   C2B32888  22.766  43.320   8.253
 7450POPC   C3B32889  22.801  43.318   7.953
 7450POPC   C4B32890  22.772  43.299   7.653
 7451POPC   NC332891  17.531   2.018   9.453
 7451POPC   PO432892  17.518   2.025   9.153
 7451POPC   GL132893  17.469   2.023   8.853
 7451POPC   GL232894  17.532   1.885   8.853
 7451POPC   C1A32895  17.527   2.031   8.553
 7451POPC   D2A32896  17.553   2.036   8.253
 7451POPC   C3A32897  17.546   1.982   7.953
 7451POPC   C4A32898  17.481   1.941   7.653
 7451POPC   C1B32899  17.596   1.721   8.553
 7451POPC   C2B32900  17.549   1.777   8.253
 7451POPC   C3B32901  17.589   1.718   7.953
 7451POPC   C4B32902  17.582   1.738   7.653
 7452POPC   NC332903   7.413  22.928   9.453
 7452POPC   PO432904   7.386  22.988   9.153
 7452POPC   GL132905   7.449  22.897   8.853
 7452POPC   GL232906   7.549  23.028   8.853
 7452POPC   C1A32907   7.406  22.923   8.553
 7452POPC   D2A32908   7.448  22.906   8.253
 7452POPC   C3A32909   7.382  22.948   7.953
 7452POPC   C4A32910   7.438  22.929   7.653
 7452POPC   C1B32911   7.591  23.123   8.553
 7452POPC   C2B32912   7.655  23.120   8.253
 7452POPC   C3B32913   7.625  23.111   7.953
 7452POPC   C4B32914   7.647  23.039   7.653
 7453POPC   NC332915  31.514   4.270   9.453
 7453POPC   PO432916  31.478   4.286   9.153
 7453POPC   GL132917  31.500   4.342   8.853
 7453POPC   GL232918  31.520   4.234   8.853
 7453POPC   C1A32919  31.493   4.287   8.553
 7453POPC   D2A32920  31.469   4.363   8.253
 7453POPC   C3A32921  31.452   4.306   7.953
 7453POPC   C4A32922  31.498   4.268   7.653
 7453POPC   C1B32923  31.668   4.090   8.553
 7453POPC   C2B32924  31.677   4.114   8.253
 7453POPC   C3B32925  31.644   4.177   7.953
 7453POPC   C4B32926  31.678   4.138   7.653
 7454POPC   NC332927  39.991  35.313   9.453
 7454POPC   PO432928  39.962  35.311   9.153
 7454POPC   GL132929  40.005  35.360   8.853
 7454POPC   GL232930  40.105  35.415   8.853
 7454POPC   C1A32931  40.040  35.372   8.553
 7454POPC   D2A32932  40.044  35.324   8.253
 7454POPC   C3A32933  40.024  35.338   7.953
 7454POPC   C4A32934  39.987  35.344   7.653
 7454POPC   C1B32935  40.296  35.414   8.553
 7454POPC   C2B32936  40.273  35.381   8.253
 7454POPC   C3B32937  40.295  35.377   7.953
 7454POPC   C4B32938  40.207  35.363   7.653
 7455POPC   NC332939   5.053  43.135   9.453
 7455POPC   PO432940   5.067  43.106   9.153
 7455POPC   GL132941   5.047  43.090   8.853
 7455POPC   GL232942   5.161  43.012   8.853
 7455POPC   C1A32943   5.102  43.126   8.553
 7455POPC   D2A32944   5.100  43.100   8.253
 7455POPC   C3A32945   5.043  43.129   7.953
 7455POPC   C4A32946   5.103  43.108   7.653
 7455POPC   C1B32947   5.234  42.878   8.553
 7455POPC   C2B32948   5.176  42.842   8.253
 7455POPC   C3B32949   5.151  42.844   7.953
 7455POPC   C4B32950   5.200  42.908   7.653
 7456POPC   NC332951  15.215  31.443   9.453
 7456POPC   PO432952  15.175  31.468   9.153
 7456POPC   GL132953  15.144  31.432   8.853
 7456POPC   GL232954  15.229  31.318   8.853
 7456POPC   C1A32955  15.159  31.505   8.553
 7456POPC   D2A32956  15.159  31.503   8.253
 7456POPC   C3A32957  15.180  31.456   7.953
 7456POPC   C4A32958  15.214  31.487   7.653
 7456POPC   C1B32959  15.256  31.194   8.553
 7456POPC   C2B32960  15.216  31.219   8.253
 7456POPC   C3B32961  15.259  31.282   7.953
 7456POPC   C4B32962  15.306  31.226   7.653
 7457POPC   NC332963  13.668  27.572   9.453
 7457POPC   PO432964  13.658  27.576   9.153
 7457POPC   GL132965  13.652  27.622   8.853
 7457POPC   GL232966  13.575  27.706   8.853
 7457POPC   C1A32967  13.622  27.580   8.553
 7457POPC   D2A32968  13.589  27.626   8.253
 7457POPC   C3A32969  13.614  27.581   7.953
 7457POPC   C4A32970  13.597  27.605   7.653
 7457POPC   C1B32971  13.626  27.844   8.553
 7457POPC   C2B32972  13.564  27.867   8.253
 7457POPC   C3B32973  13.585  27.839   7.953
 7457POPC   C4B32974  13.642  27.856   7.653
 7458POPC   NC332975   7.453   6.630   9.453
 7458POPC   PO432976   7.434   6.650   9.153
 7458POPC   GL132977   7.426   6.629   8.853
 7458POPC   GL232978   7.299   6.675   8.853
 7458POPC   C1A32979   7.447   6.634   8.553
 7458POPC   D2A32980   7.421   6.628   8.253
 7458POPC   C3A32981   7.462   6.598   7.953
 7458POPC   C4A32982   7.371   6.684   7.653
 7458POPC   C1B32983   7.140   6.760   8.553
 7458POPC   C2B32984   7.181   6.756   8.253
 7458POPC   C3B32985   7.151   6.728   7.953
 7458POPC   C4B32986   7.151   6.670   7.653
 7459POPC   NC332987   9.726   4.278   9.453
 7459POPC   PO432988   9.773   4.360   9.153
 7459POPC   GL132989   9.764   4.363   8.853
 7459POPC   GL232990   9.784   4.437   8.853
 7459POPC   C1A32991   9.734   4.334   8.553
 7459POPC   D2A32992   9.722   4.271   8.253
 7459POPC   C3A32993   9.775   4.366   7.953
 7459POPC   C4A32994   9.699   4.316   7.653
 7459POPC   C1B32995   9.841   4.570   8.553
 7459POPC   C2B32996   9.797   4.540   8.253
 7459POPC   C3B32997   9.750   4.594   7.953
 7459POPC   C4B32998   9.834   4.552   7.653
 7460POPC   NC332999  31.487   7.408   9.453
 7460POPC   PO433000  31.447   7.379   9.153
 7460POPC   GL133001  31.437   7.424   8.853
 7460POPC   GL233002  31.637   7.454   8.853
 7460POPC   C1A33003  31.432   7.460   8.553
 7460POPC   D2A33004  31.516   7.435   8.253
 7460POPC   C3A33005  31.512   7.441   7.953
 7460POPC   C4A33006  31.488   7.462   7.653
 7460POPC   C1B33007  31.754   7.472   8.553
 7460POPC   C2B33008  31.754   7.486   8.253
 7460POPC   C3B33009  31.674   7.453   7.953
 7460POPC   C4B33010  31.680   7.472   7.653
 7461POPC   NC333011   6.615   1.982   9.453
 7461POPC   PO433012   6.684   1.994   9.153
 7461POPC   GL133013   6.609   1.982   8.853
 7461POPC   GL233014   6.500   2.053   8.853
 7461POPC   C1A33015   6.624   2.021   8.553
 7461POPC   D2A33016   6.621   1.989   8.253
 7461POPC   C3A33017   6.638   2.023   7.953
 7461POPC   C4A33018   6.644   1.944   7.653
 7461POPC   C1B33019   6.455   2.075   8.553
 7461POPC   C2B33020   6.433   2.058   8.253
 7461POPC   C3B33021   6.405   2.106   7.953
 7461POPC   C4B33022   6.430   2.063   7.653
 7462POPC   NC333023  27.543  33.787   9.453
 7462POPC   PO433024  27.615  33.781   9.153
 7462POPC   GL133025  27.590  33.838   8.853
 7462POPC   GL233026  27.533  33.873   8.853
 7462POPC   C1A33027  27.634  33.823   8.553
 7462POPC   D2A33028  27.601  33.822   8.253
 7462POPC   C3A33029  27.551  33.814   7.953
 7462POPC   C4A33030  27.573  33.843   7.653
 7462POPC   C1B33031  27.481  34.040   8.553
 7462POPC   C2B33032  27.506  34.031   8.253
 7462POPC   C3B33033  27.541  34.070   7.953
 7462POPC   C4B33034  27.505  34.050   7.653
 7463POPC   NC333035  39.968  22.137   9.453
 7463POPC   PO433036  39.985  22.131   9.153
 7463POPC   GL133037  40.020  22.131   8.853
 7463POPC   GL233038  39.976  22.056   8.853
 7463POPC   C1A33039  40.006  22.173   8.553
 7463POPC   D2A33040  40.023  22.155   8.253
 7463POPC   C3A33041  40.046  22.129   7.953
 7463POPC   C4A33042  40.035  22.167   7.653
 7463POPC   C1B33043  40.010  21.957   8.553
 7463POPC   C2B33044  39.984  21.915   8.253
 7463POPC   C3B33045  39.984  21.906   7.953
 7463POPC   C4B33046  40.031  21.962   7.653
 7464POPC   NC333047   2.811  10.541   9.453
 7464POPC   PO433048   2.728  10.528   9.153
 7464POPC   GL133049   2.764  10.557   8.853
 7464POPC   GL233050   2.752  10.369   8.853
 7464POPC   C1A33051   2.720  10.558   8.553
 7464POPC   D2A33052   2.738  10.539   8.253
 7464POPC   C3A33053   2.788  10.481   7.953
 7464POPC   C4A33054   2.753  10.500   7.653
 7464POPC   C1B33055   2.686  10.314   8.553
 7464POPC   C2B33056   2.671  10.343   8.253
 7464POPC   C3B33057   2.679  10.282   7.953
 7464POPC   C4B33058   2.638  10.304   7.653
 7465POPC   NC333059  14.429  27.627   9.453
 7465POPC   PO433060  14.447  27.590   9.153
 7465POPC   GL133061  14.446  27.614   8.853
 7465POPC   GL233062  14.301  27.509   8.853
 7465POPC   C1A33063  14.419  27.637   8.553
 7465POPC   D2A33064  14.360  27.572   8.253
 7465POPC   C3A33065  14.440  27.583   7.953
 7465POPC   C4A33066  14.448  27.580   7.653
 7465POPC   C1B33067  14.204  27.368   8.553
 7465POPC   C2B33068  14.243  27.367   8.253
 7465POPC   C3B33069  14.254  27.371   7.953
 7465POPC   C4B33070  14.255  27.369   7.653
 7466POPC   NC333071  10.553  12.884   9.453
 7466POPC   PO433072  10.562  12.840   9.153
 7466POPC   GL133073  10.561  12.901   8.853
 7466POPC   GL233074  10.610  12.964   8.853
 7466POPC   C1A33075  10.483  12.847   8.553
 7466POPC   D2A33076  10.529  12.831   8.253
 7466POPC   C3A33077  10.493  12.862   7.953
 7466POPC   C4A33078  10.537  12.838   7.653
 7466POPC   C1B33079  10.652  13.034   8.553
 7466POPC   C2B33080  10.699  13.058   8.253
 7466POPC   C3B33081  10.706  13.075   7.953
 7466POPC   C4B33082  10.635  13.025   7.653
 7467POPC   NC333083   4.270   3.581   9.453
 7467POPC   PO433084   4.309   3.498   9.153
 7467POPC   GL133085   4.332   3.555   8.853
 7467POPC   GL233086   4.294   3.635   8.853
 7467POPC   C1A33087   4.278   3.531   8.553
 7467POPC   D2A33088   4.329   3.575   8.253
 7467POPC   C3A33089   4.316   3.536   7.953
 7467POPC   C4A33090   4.290   3.575   7.653
 7467POPC   C1B33091   4.299   3.821   8.553
 7467POPC   C2B33092   4.321   3.824   8.253
 7467POPC   C3B33093   4.367   3.837   7.953
 7467POPC   C4B33094   4.308   3.836   7.653
 7468POPC   NC333095  30.710  29.128   9.453
 7468POPC   PO433096  30.723  29.142   9.153
 7468POPC   GL133097  30.669  29.104   8.853
 7468POPC   GL233098  30.728  29.273   8.853
 7468POPC   C1A33099  30.741  29.129   8.553
 7468POPC   D2A33100  30.731  29.172   8.253
 7468POPC   C3A33101  30.712  29.153   7.953
 7468POPC   C4A33102  30.714  29.148   7.653
 7468POPC   C1B33103  30.750  29.393   8.553
 7468POPC   C2B33104  30.758  29.326   8.253
 7468POPC   C3B33105  30.794  29.418   7.953
 7468POPC   C4B33106  30.839  29.384   7.653
 7469POPC   NC333107  32.983  29.892   9.453
 7469POPC   PO433108  33.002  29.949   9.153
 7469POPC   GL133109  33.010  29.875   8.853
 7469POPC   GL233110  32.880  30.043   8.853
 7469POPC   C1A33111  33.069  29.885   8.553
 7469POPC   D2A33112  33.012  29.960   8.253
 7469POPC   C3A33113  32.994  29.967   7.953
 7469POPC   C4A33114  33.004  29.928   7.653
 7469POPC   C1B33115  32.804  30.023   8.553
 7469POPC   C2B33116  32.847  30.027   8.253
 7469POPC   C3B33117  32.860  30.060   7.953
 7469POPC   C4B33118  32.834  30.038   7.653
 7470POPC   NC333119  29.100  28.360   9.453
 7470POPC   PO433120  29.157  28.416   9.153
 7470POPC   GL133121  29.107  28.366   8.853
 7470POPC   GL233122  29.203  28.328   8.853
 7470POPC   C1A33123  29.173  28.376   8.553
 7470POPC   D2A33124  29.113  28.412   8.253
 7470POPC   C3A33125  29.184  28.388   7.953
 7470POPC   C4A33126  29.168  28.398   7.653
 7470POPC   C1B33127  29.352  28.162   8.553
 7470POPC   C2B33128  29.306  28.229   8.253
 7470POPC   C3B33129  29.272  28.165   7.953
 7470POPC   C4B33130  29.365  28.196   7.653
 7471POPC   NC333131   7.375  26.030   9.453
 7471POPC   PO433132   7.395  26.023   9.153
 7471POPC   GL133133   7.448  26.075   8.853
 7471POPC   GL233134   7.449  25.911   8.853
 7471POPC   C1A33135   7.452  26.005   8.553
 7471POPC   D2A33136   7.380  26.052   8.253
 7471POPC   C3A33137   7.469  26.062   7.953
 7471POPC   C4A33138   7.454  26.069   7.653
 7471POPC   C1B33139   7.478  25.850   8.553
 7471POPC   C2B33140   7.500  25.839   8.253
 7471POPC   C3B33141   7.468  25.768   7.953
 7471POPC   C4B33142   7.526  25.756   7.653
 7472POPC   NC333143  29.191  34.532   9.453
 7472POPC   PO433144  29.147  34.623   9.153
 7472POPC   GL133145  29.116  34.532   8.853
 7472POPC   GL233146  29.149  34.486   8.853
 7472POPC   C1A33147  29.186  34.618   8.553
 7472POPC   D2A33148  29.148  34.622   8.253
 7472POPC   C3A33149  29.141  34.602   7.953
 7472POPC   C4A33150  29.123  34.542   7.653
 7472POPC   C1B33151  29.146  34.362   8.553
 7472POPC   C2B33152  29.079  34.288   8.253
 7472POPC   C3B33153  29.120  34.346   7.953
 7472POPC   C4B33154  29.154  34.305   7.653
 7473POPC   NC333155  44.640  29.104   9.453
 7473POPC   PO433156  44.622  29.105   9.153
 7473POPC   GL133157  44.704  29.143   8.853
 7473POPC   GL233158  44.700  29.221   8.853
 7473POPC   C1A33159  44.698  29.193   8.553
 7473POPC   D2A33160  44.708  29.098   8.253
 7473POPC   C3A33161  44.654  29.188   7.953
 7473POPC   C4A33162  44.679  29.163   7.653
 7473POPC   C1B33163  44.621  29.428   8.553
 7473POPC   C2B33164  44.674  29.427   8.253
 7473POPC   C3B33165  44.668  29.392   7.953
 7473POPC   C4B33166  44.616  29.377   7.653
 7474POPC   NC333167  19.817  36.125   9.453
 7474POPC   PO433168  19.805  36.103   9.153
 7474POPC   GL133169  19.810  36.148   8.853
 7474POPC   GL233170  19.763  36.075   8.853
 7474POPC   C1A33171  19.827  36.100   8.553
 7474POPC   D2A33172  19.865  36.131   8.253
 7474POPC   C3A33173  19.786  36.149   7.953
 7474POPC   C4A33174  19.856  36.146   7.653
 7474POPC   C1B33175  19.643  35.927   8.553
 7474POPC   C2B33176  19.693  35.988   8.253
 7474POPC   C3B33177  19.678  35.994   7.953
 7474POPC   C4B33178  19.627  35.964   7.653
 7475POPC   NC333179  43.882  35.372   9.453
 7475POPC   PO433180  43.882  35.364   9.153
 7475POPC   GL133181  43.858  35.313   8.853
 7475POPC   GL233182  43.812  35.372   8.853
 7475POPC   C1A33183  43.909  35.314   8.553
 7475POPC   D2A33184  43.840  35.388   8.253
 7475POPC   C3A33185  43.921  35.346   7.953
 7475POPC   C4A33186  43.919  35.375   7.653
 7475POPC   C1B33187  43.629  35.479   8.553
 7475POPC   C2B33188  43.627  35.475   8.253
 7475POPC   C3B33189  43.613  35.432   7.953
 7475POPC   C4B33190  43.668  35.461   7.653
 7476POPC   NC333191   7.457  40.748   9.453
 7476POPC   PO433192   7.451  40.776   9.153
 7476POPC   GL133193   7.374  40.811   8.853
 7476POPC   GL233194   7.427  40.933   8.853
 7476POPC   C1A33195   7.469  40.812   8.553
 7476POPC   D2A33196   7.433  40.786   8.253
 7476POPC   C3A33197   7.395  40.762   7.953
 7476POPC   C4A33198   7.418  40.823   7.653
 7476POPC   C1B33199   7.474  41.062   8.553
 7476POPC   C2B33200   7.474  40.986   8.253
 7476POPC   C3B33201   7.531  41.052   7.953
 7476POPC   C4B33202   7.497  40.968   7.653
 7477POPC   NC333203   1.218  32.980   9.453
 7477POPC   PO433204   1.225  32.980   9.153
 7477POPC   GL133205   1.248  33.050   8.853
 7477POPC   GL233206   1.155  32.883   8.853
 7477POPC   C1A33207   1.207  33.024   8.553
 7477POPC   D2A33208   1.227  33.032   8.253
 7477POPC   C3A33209   1.259  33.038   7.953
 7477POPC   C4A33210   1.183  33.037   7.653
 7477POPC   C1B33211   1.124  32.791   8.553
 7477POPC   C2B33212   1.168  32.768   8.253
 7477POPC   C3B33213   1.190  32.762   7.953
 7477POPC   C4B33214   1.124  32.797   7.653
 7478POPC   NC333215  43.874  39.266   9.453
 7478POPC   PO433216  43.865  39.234   9.153
 7478POPC   GL133217  43.914  39.261   8.853
 7478POPC   GL233218  43.958  39.155   8.853
 7478POPC   C1A33219  43.847  39.247   8.553
 7478POPC   D2A33220  43.910  39.258   8.253
 7478POPC   C3A33221  43.923  39.230   7.953
 7478POPC   C4A33222  43.869  39.203   7.653
 7478POPC   C1B33223  44.058  38.994   8.553
 7478POPC   C2B33224  44.091  39.034   8.253
 7478POPC   C3B33225  44.087  39.081   7.953
 7478POPC   C4B33226  44.083  39.007   7.653
 7479POPC   NC333227  27.599  36.947   9.453
 7479POPC   PO433228  27.593  36.906   9.153
 7479POPC   GL133229  27.621  36.928   8.853
 7479POPC   GL233230  27.674  37.026   8.853
 7479POPC   C1A33231  27.604  36.950   8.553
 7479POPC   D2A33232  27.632  36.952   8.253
 7479POPC   C3A33233  27.612  36.870   7.953
 7479POPC   C4A33234  27.589  36.947   7.653
 7479POPC   C1B33235  27.827  37.038   8.553
 7479POPC   C2B33236  27.802  37.095   8.253
 7479POPC   C3B33237  27.759  37.095   7.953
 7479POPC   C4B33238  27.770  37.079   7.653
 7480POPC   NC333239  19.794  44.694   9.453
 7480POPC   PO433240  19.806  44.671   9.153
 7480POPC   GL133241  19.847  44.698   8.853
 7480POPC   GL233242  19.978  44.745   8.853
 7480POPC   C1A33243  19.798  44.682   8.553
 7480POPC   D2A33244  19.873  44.709   8.253
 7480POPC   C3A33245  19.803  44.648   7.953
 7480POPC   C4A33246  19.787  44.655   7.653
 7480POPC   C1B33247  20.055  44.755   8.553
 7480POPC   C2B33248  20.046  44.836   8.253
 7480POPC   C3B33249  20.091  44.839   7.953
 7480POPC   C4B33250  20.023  44.795   7.653
 7481POPC   NC333251   2.793  20.600   9.453
 7481POPC   PO433252   2.787  20.562   9.153
 7481POPC   GL133253   2.759  20.589   8.853
 7481POPC   GL233254   2.677  20.650   8.853
 7481POPC   C1A33255   2.768  20.649   8.553
 7481POPC   D2A33256   2.735  20.606   8.253
 7481POPC   C3A33257   2.729  20.598   7.953
 7481POPC   C4A33258   2.741  20.634   7.653
 7481POPC   C1B33259   2.567  20.781   8.553
 7481POPC   C2B33260   2.547  20.787   8.253
 7481POPC   C3B33261   2.521  20.721   7.953
 7481POPC   C4B33262   2.541  20.750   7.653
 7482POPC   NC333263  12.102   5.108   9.453
 7482POPC   PO433264  12.042   5.137   9.153
 7482POPC   GL133265  12.106   5.051   8.853
 7482POPC   GL233266  12.001   5.172   8.853
 7482POPC   C1A33267  12.066   5.088   8.553
 7482POPC   D2A33268  12.068   5.044   8.253
 7482POPC   C3A33269  12.109   5.101   7.953
 7482POPC   C4A33270  12.082   5.119   7.653
 7482POPC   C1B33271  11.946   5.284   8.553
 7482POPC   C2B33272  11.977   5.323   8.253
 7482POPC   C3B33273  11.953   5.318   7.953
 7482POPC   C4B33274  11.960   5.298   7.653
 7483POPC   NC333275  16.756  19.883   9.453
 7483POPC   PO433276  16.730  19.788   9.153
 7483POPC   GL133277  16.717  19.850   8.853
 7483POPC   GL233278  16.884  19.889   8.853
 7483POPC   C1A33279  16.716  19.796   8.553
 7483POPC   D2A33280  16.729  19.836   8.253
 7483POPC   C3A33281  16.746  19.837   7.953
 7483POPC   C4A33282  16.714  19.877   7.653
 7483POPC   C1B33283  16.912  20.010   8.553
 7483POPC   C2B33284  16.906  19.926   8.253
 7483POPC   C3B33285  16.977  19.979   7.953
 7483POPC   C4B33286  16.934  19.943   7.653
 7484POPC   NC333287  15.910   5.905   9.453
 7484POPC   PO433288  15.939   5.909   9.153
 7484POPC   GL133289  15.993   5.864   8.853
 7484POPC   GL233290  15.922   6.028   8.853
 7484POPC   C1A33291  16.005   5.896   8.553
 7484POPC   D2A33292  15.936   5.888   8.253
 7484POPC   C3A33293  15.957   5.867   7.953
 7484POPC   C4A33294  15.916   5.849   7.653
 7484POPC   C1B33295  15.834   6.062   8.553
 7484POPC   C2B33296  15.901   6.088   8.253
 7484POPC   C3B33297  15.815   6.136   7.953
 7484POPC   C4B33298  15.833   6.055   7.653
 7485POPC   NC333299  34.625  29.168   9.453
 7485POPC   PO433300  34.613  29.105   9.153
 7485POPC   GL133301  34.569  29.104   8.853
 7485POPC   GL233302  34.502  29.015   8.853
 7485POPC   C1A33303  34.618  29.165   8.553
 7485POPC   D2A33304  34.548  29.109   8.253
 7485POPC   C3A33305  34.613  29.120   7.953
 7485POPC   C4A33306  34.602  29.169   7.653
 7485POPC   C1B33307  34.400  28.932   8.553
 7485POPC   C2B33308  34.484  28.940   8.253
 7485POPC   C3B33309  34.455  28.890   7.953
 7485POPC   C4B33310  34.451  28.928   7.653
 7486POPC   NC333311  18.310  29.125   9.453
 7486POPC   PO433312  18.272  29.099   9.153
 7486POPC   GL133313  18.239  29.102   8.853
 7486POPC   GL233314  18.405  29.207   8.853
 7486POPC   C1A33315  18.264  29.103   8.553
 7486POPC   D2A33316  18.262  29.171   8.253
 7486POPC   C3A33317  18.281  29.135   7.953
 7486POPC   C4A33318  18.252  29.154   7.653
 7486POPC   C1B33319  18.444  29.260   8.553
 7486POPC   C2B33320  18.464  29.290   8.253
 7486POPC   C3B33321  18.524  29.293   7.953
 7486POPC   C4B33322  18.472  29.249   7.653
 7487POPC   NC333323  30.743  17.477   9.453
 7487POPC   PO433324  30.732  17.499   9.153
 7487POPC   GL133325  30.711  17.484   8.853
 7487POPC   GL233326  30.608  17.398   8.853
 7487POPC   C1A33327  30.658  17.538   8.553
 7487POPC   D2A33328  30.719  17.526   8.253
 7487POPC   C3A33329  30.686  17.523   7.953
 7487POPC   C4A33330  30.681  17.485   7.653
 7487POPC   C1B33331  30.532  17.317   8.553
 7487POPC   C2B33332  30.513  17.374   8.253
 7487POPC   C3B33333  30.471  17.368   7.953
 7487POPC   C4B33334  30.506  17.344   7.653
 7488POPC   NC333335  18.296  19.033   9.453
 7488POPC   PO433336  18.329  19.053   9.153
 7488POPC   GL133337  18.300  19.062   8.853
 7488POPC   GL233338  18.253  19.214   8.853
 7488POPC   C1A33339  18.263  19.087   8.553
 7488POPC   D2A33340  18.251  19.068   8.253
 7488POPC   C3A33341  18.266  19.041   7.953
 7488POPC   C4A33342  18.234  19.052   7.653
 7488POPC   C1B33343  18.187  19.327   8.553
 7488POPC   C2B33344  18.237  19.278   8.253
 7488POPC   C3B33345  18.198  19.258   7.953
 7488POPC   C4B33346  18.254  19.312   7.653
 7489POPC   NC333347  12.112  16.752   9.453
 7489POPC   PO433348  12.059  16.733   9.153
 7489POPC   GL133349  12.103  16.705   8.853
 7489POPC   GL233350  12.162  16.659   8.853
 7489POPC   C1A33351  12.110  16.718   8.553
 7489POPC   D2A33352  12.028  16.764   8.253
 7489POPC   C3A33353  12.078  16.775   7.953
 7489POPC   C4A33354  12.053  16.708   7.653
 7489POPC   C1B33355  12.199  16.499   8.553
 7489POPC   C2B33356  12.264  16.562   8.253
 7489POPC   C3B33357  12.217  16.528   7.953
 7489POPC   C4B33358  12.204  16.522   7.653
 7490POPC   NC333359  19.069  32.279   9.453
 7490POPC   PO433360  19.043  32.238   9.153
 7490POPC   GL133361  19.050  32.280   8.853
 7490POPC   GL233362  18.978  32.275   8.853
 7490POPC   C1A33363  19.026  32.220   8.553
 7490POPC   D2A33364  19.013  32.298   8.253
 7490POPC   C3A33365  19.083  32.205   7.953
 7490POPC   C4A33366  19.063  32.292   7.653
 7490POPC   C1B33367  18.773  32.342   8.553
 7490POPC   C2B33368  18.863  32.347   8.253
 7490POPC   C3B33369  18.796  32.346   7.953
 7490POPC   C4B33370  18.841  32.312   7.653
 7491POPC   NC333371  42.350   1.994   9.453
 7491POPC   PO433372  42.350   2.012   9.153
 7491POPC   GL133373  42.302   2.018   8.853
 7491POPC   GL233374  42.427   2.030   8.853
 7491POPC   C1A33375  42.298   2.030   8.553
 7491POPC   D2A33376  42.353   1.941   8.253
 7491POPC   C3A33377  42.322   2.013   7.953
 7491POPC   C4A33378  42.318   1.997   7.653
 7491POPC   C1B33379  42.582   2.156   8.553
 7491POPC   C2B33380  42.537   2.168   8.253
 7491POPC   C3B33381  42.509   2.105   7.953
 7491POPC   C4B33382  42.582   2.178   7.653
 7492POPC   NC333383  19.842  18.290   9.453
 7492POPC   PO433384  19.803  18.332   9.153
 7492POPC   GL133385  19.880  18.312   8.853
 7492POPC   GL233386  19.756  18.281   8.853
 7492POPC   C1A33387  19.835  18.262   8.553
 7492POPC   D2A33388  19.830  18.258   8.253
 7492POPC   C3A33389  19.882  18.247   7.953
 7492POPC   C4A33390  19.808  18.324   7.653
 7492POPC   C1B33391  19.640  18.174   8.553
 7492POPC   C2B33392  19.639  18.244   8.253
 7492POPC   C3B33393  19.611  18.183   7.953
 7492POPC   C4B33394  19.616  18.195   7.653
 7493POPC   NC333395  15.913  27.544   9.453
 7493POPC   PO433396  15.934  27.547   9.153
 7493POPC   GL133397  15.915  27.570   8.853
 7493POPC   GL233398  16.050  27.549   8.853
 7493POPC   C1A33399  15.948  27.559   8.553
 7493POPC   D2A33400  15.938  27.548   8.253
 7493POPC   C3A33401  15.909  27.585   7.953
 7493POPC   C4A33402  15.919  27.618   7.653
 7493POPC   C1B33403  16.219  27.581   8.553
 7493POPC   C2B33404  16.204  27.602   8.253
 7493POPC   C3B33405  16.239  27.572   7.953
 7493POPC   C4B33406  16.167  27.644   7.653
 7494POPC   NC333407  23.725  33.828   9.453
 7494POPC   PO433408  23.700  33.812   9.153
 7494POPC   GL133409  23.735  33.799   8.853
 7494POPC   GL233410  23.718  33.717   8.853
 7494POPC   C1A33411  23.673  33.797   8.553
 7494POPC   D2A33412  23.685  33.775   8.253
 7494POPC   C3A33413  23.677  33.810   7.953
 7494POPC   C4A33414  23.696  33.804   7.653
 7494POPC   C1B33415  23.633  33.579   8.553
 7494POPC   C2B33416  23.680  33.590   8.253
 7494POPC   C3B33417  23.681  33.507   7.953
 7494POPC   C4B33418  23.705  33.599   7.653
 7495POPC   NC333419  23.677  16.717   9.453
 7495POPC   PO433420  23.747  16.757   9.153
 7495POPC   GL133421  23.742  16.713   8.853
 7495POPC   GL233422  23.544  16.686   8.853
 7495POPC   C1A33423  23.748  16.777   8.553
 7495POPC   D2A33424  23.757  16.707   8.253
 7495POPC   C3A33425  23.752  16.689   7.953
 7495POPC   C4A33426  23.699  16.756   7.653
 7495POPC   C1B33427  23.416  16.740   8.553
 7495POPC   C2B33428  23.467  16.762   8.253
 7495POPC   C3B33429  23.490  16.751   7.953
 7495POPC   C4B33430  23.504  16.707   7.653
 7496POPC   NC333431  19.080  34.548   9.453
 7496POPC   PO433432  19.018  34.552   9.153
 7496POPC   GL133433  19.101  34.539   8.853
 7496POPC   GL233434  18.922  34.649   8.853
 7496POPC   C1A33435  19.083  34.589   8.553
 7496POPC   D2A33436  19.105  34.544   8.253
 7496POPC   C3A33437  19.043  34.573   7.953
 7496POPC   C4A33438  19.090  34.551   7.653
 7496POPC   C1B33439  18.799  34.619   8.553
 7496POPC   C2B33440  18.861  34.624   8.253
 7496POPC   C3B33441  18.810  34.621   7.953
 7496POPC   C4B33442  18.861  34.632   7.653
 7497POPC   NC333443   9.756  27.629   9.453
 7497POPC   PO433444   9.723  27.634   9.153
 7497POPC   GL133445   9.776  27.607   8.853
 7497POPC   GL233446   9.578  27.541   8.853
 7497POPC   C1A33447   9.704  27.587   8.553
 7497POPC   D2A33448   9.758  27.619   8.253
 7497POPC   C3A33449   9.761  27.632   7.953
 7497POPC   C4A33450   9.732  27.577   7.653
 7497POPC   C1B33451   9.547  27.582   8.553
 7497POPC   C2B33452   9.500  27.577   8.253
 7497POPC   C3B33453   9.507  27.526   7.953
 7497POPC   C4B33454   9.483  27.547   7.653
 7498POPC   NC333455  30.742  40.817   9.453
 7498POPC   PO433456  30.746  40.761   9.153
 7498POPC   GL133457  30.665  40.744   8.853
 7498POPC   GL233458  30.706  40.659   8.853
 7498POPC   C1A33459  30.740  40.757   8.553
 7498POPC   D2A33460  30.697  40.786   8.253
 7498POPC   C3A33461  30.711  40.824   7.953
 7498POPC   C4A33462  30.683  40.767   7.653
 7498POPC   C1B33463  30.709  40.509   8.553
 7498POPC   C2B33464  30.697  40.557   8.253
 7498POPC   C3B33465  30.719  40.579   7.953
 7498POPC   C4B33466  30.721  40.544   7.653
 7499POPC   NC333467  28.361  15.141   9.453
 7499POPC   PO433468  28.363  15.190   9.153
 7499POPC   GL133469  28.322  15.145   8.853
 7499POPC   GL233470  28.335  15.309   8.853
 7499POPC   C1A33471  28.393  15.212   8.553
 7499POPC   D2A33472  28.378  15.152   8.253
 7499POPC   C3A33473  28.335  15.176   7.953
 7499POPC   C4A33474  28.374  15.190   7.653
 7499POPC   C1B33475  28.239  15.434   8.553
 7499POPC   C2B33476  28.247  15.388   8.253
 7499POPC   C3B33477  28.277  15.381   7.953
 7499POPC   C4B33478  28.249  15.453   7.653
 7500POPC   NC333479  29.165  10.545   9.453
 7500POPC   PO433480  29.143  10.513   9.153
 7500POPC   GL133481  29.133  10.480   8.853
 7500POPC   GL233482  29.256  10.568   8.853
 7500POPC   C1A33483  29.195  10.497   8.553
 7500POPC   D2A33484  29.119  10.566   8.253
 7500POPC   C3A33485  29.098  10.541   7.953
 7500POPC   C4A33486  29.157  10.556   7.653
 7500POPC   C1B33487  29.338  10.631   8.553
 7500POPC   C2B33488  29.295  10.639   8.253
 7500POPC   C3B33489  29.347  10.674   7.953
 7500POPC   C4B33490  29.351  10.651   7.653
 7501POPC   NC333491  44.647  22.969   9.453
 7501POPC   PO433492  44.658  22.930   9.153
 7501POPC   GL133493  44.692  22.918   8.853
 7501POPC   GL233494  44.778  23.080   8.853
 7501POPC   C1A33495  44.670  22.940   8.553
 7501POPC   D2A33496  44.664  22.920   8.253
 7501POPC   C3A33497  44.690  22.890   7.953
 7501POPC   C4A33498  44.646  22.910   7.653
 7501POPC   C1B33499  44.843  23.092   8.553
 7501POPC   C2B33500  44.839  23.103   8.253
 7501POPC   C3B33501  44.835  23.163   7.953
 7501POPC   C4B33502  44.855  23.167   7.653
 7502POPC   NC333503   7.374  22.116   9.453
 7502POPC   PO433504   7.411  22.207   9.153
 7502POPC   GL133505   7.467  22.127   8.853
 7502POPC   GL233506   7.330  22.031   8.853
 7502POPC   C1A33507   7.446  22.155   8.553
 7502POPC   D2A33508   7.421  22.132   8.253
 7502POPC   C3A33509   7.461  22.180   7.953
 7502POPC   C4A33510   7.436  22.164   7.653
 7502POPC   C1B33511   7.259  22.003   8.553
 7502POPC   C2B33512   7.273  21.992   8.253
 7502POPC   C3B33513   7.227  21.936   7.953
 7502POPC   C4B33514   7.286  21.976   7.653
 7503POPC   NC333515  38.449  11.293   9.453
 7503POPC   PO433516  38.462  11.268   9.153
 7503POPC   GL133517  38.412  11.281   8.853
 7503POPC   GL233518  38.443  11.401   8.853
 7503POPC   C1A33519  38.456  11.333   8.553
 7503POPC   D2A33520  38.412  11.290   8.253
 7503POPC   C3A33521  38.480  11.260   7.953
 7503POPC   C4A33522  38.467  11.318   7.653
 7503POPC   C1B33523  38.347  11.491   8.553
 7503POPC   C2B33524  38.395  11.537   8.253
 7503POPC   C3B33525  38.363  11.564   7.953
 7503POPC   C4B33526  38.345  11.498   7.653
 7504POPC   NC333527  18.260  37.708   9.453
 7504POPC   PO433528  18.251  37.723   9.153
 7504POPC   GL133529  18.263  37.688   8.853
 7504POPC   GL233530  18.158  37.775   8.853
 7504POPC   C1A33531  18.244  37.683   8.553
 7504POPC   D2A33532  18.300  37.639   8.253
 7504POPC   C3A33533  18.326  37.675   7.953
 7504POPC   C4A33534  18.321  37.705   7.653
 7504POPC   C1B33535  18.104  37.837   8.553
 7504POPC   C2B33536  18.132  37.842   8.253
 7504POPC   C3B33537  18.147  37.892   7.953
 7504POPC   C4B33538  18.084  37.849   7.653
 7505POPC   NC333539  33.061  14.437   9.453
 7505POPC   PO433540  33.003  14.384   9.153
 7505POPC   GL133541  32.988  14.424   8.853
 7505POPC   GL233542  33.167  14.319   8.853
 7505POPC   C1A33543  33.010  14.359   8.553
 7505POPC   D2A33544  33.062  14.383   8.253
 7505POPC   C3A33545  33.061  14.361   7.953
 7505POPC   C4A33546  32.984  14.422   7.653
 7505POPC   C1B33547  33.245  14.316   8.553
 7505POPC   C2B33548  33.226  14.315   8.253
 7505POPC   C3B33549  33.186  14.229   7.953
 7505POPC   C4B33550  33.222  14.221   7.653
 7506POPC   NC333551   5.825  11.255   9.453
 7506POPC   PO433552   5.882  11.291   9.153
 7506POPC   GL133553   5.827  11.284   8.853
 7506POPC   GL233554   5.944  11.187   8.853
 7506POPC   C1A33555   5.865  11.266   8.553
 7506POPC   D2A33556   5.851  11.304   8.253
 7506POPC   C3A33557   5.869  11.325   7.953
 7506POPC   C4A33558   5.857  11.347   7.653
 7506POPC   C1B33559   5.978  11.081   8.553
 7506POPC   C2B33560   5.996  11.074   8.253
 7506POPC   C3B33561   5.921  11.069   7.953
 7506POPC   C4B33562   5.983  11.066   7.653
 7507POPC   NC333563  23.704  12.809   9.453
 7507POPC   PO433564  23.667  12.829   9.153
 7507POPC   GL133565  23.706  12.862   8.853
 7507POPC   GL233566  23.771  12.875   8.853
 7507POPC   C1A33567  23.722  12.840   8.553
 7507POPC   D2A33568  23.678  12.809   8.253
 7507POPC   C3A33569  23.671  12.819   7.953
 7507POPC   C4A33570  23.702  12.891   7.653
 7507POPC   C1B33571  23.906  12.975   8.553
 7507POPC   C2B33572  23.931  12.970   8.253
 7507POPC   C3B33573  23.970  12.962   7.953
 7507POPC   C4B33574  23.931  12.954   7.653
 7508POPC   NC333575  10.498  40.737   9.453
 7508POPC   PO433576  10.513  40.828   9.153
 7508POPC   GL133577  10.515  40.750   8.853
 7508POPC   GL233578  10.532  40.663   8.853
 7508POPC   C1A33579  10.573  40.752   8.553
 7508POPC   D2A33580  10.558  40.735   8.253
 7508POPC   C3A33581  10.500  40.745   7.953
 7508POPC   C4A33582  10.488  40.782   7.653
 7508POPC   C1B33583  10.568  40.507   8.553
 7508POPC   C2B33584  10.557  40.512   8.253
 7508POPC   C3B33585  10.596  40.508   7.953
 7508POPC   C4B33586  10.527  40.489   7.653
 7509POPC   NC333587  39.969  43.120   9.453
 7509POPC   PO433588  39.975  43.113   9.153
 7509POPC   GL133589  40.031  43.150   8.853
 7509POPC   GL233590  39.913  43.205   8.853
 7509POPC   C1A33591  40.013  43.139   8.553
 7509POPC   D2A33592  39.969  43.101   8.253
 7509POPC   C3A33593  40.007  43.079   7.953
 7509POPC   C4A33594  40.005  43.146   7.653
 7509POPC   C1B33595  39.816  43.214   8.553
 7509POPC   C2B33596  39.765  43.281   8.253
 7509POPC   C3B33597  39.782  43.270   7.953
 7509POPC   C4B33598  39.801  43.236   7.653
 7510POPC   NC333599  39.232  16.709   9.453
 7510POPC   PO433600  39.208  16.739   9.153
 7510POPC   GL133601  39.189  16.706   8.853
 7510POPC   GL233602  39.335  16.652   8.853
 7510POPC   C1A33603  39.244  16.745   8.553
 7510POPC   D2A33604  39.204  16.695   8.253
 7510POPC   C3A33605  39.213  16.708   7.953
 7510POPC   C4A33606  39.235  16.716   7.653
 7510POPC   C1B33607  39.393  16.509   8.553
 7510POPC   C2B33608  39.392  16.515   8.253
 7510POPC   C3B33609  39.323  16.513   7.953
 7510POPC   C4B33610  39.356  16.486   7.653
 7511POPC   NC333611  10.536  19.044   9.453
 7511POPC   PO433612  10.545  19.100   9.153
 7511POPC   GL133613  10.491  19.060   8.853
 7511POPC   GL233614  10.438  19.154   8.853
 7511POPC   C1A33615  10.525  19.050   8.553
 7511POPC   D2A33616  10.567  19.070   8.253
 7511POPC   C3A33617  10.475  19.083   7.953
 7511POPC   C4A33618  10.544  19.023   7.653
 7511POPC   C1B33619  10.457  19.275   8.553
 7511POPC   C2B33620  10.419  19.257   8.253
 7511POPC   C3B33621  10.466  19.252   7.953
 7511POPC   C4B33622  10.487  19.326   7.653
 7512POPC   NC333623  20.582  33.791   9.453
 7512POPC   PO433624  20.569  33.799   9.153
 7512POPC   GL133625  20.570  33.802   8.853
 7512POPC   GL233626  20.549  33.655   8.853
 7512POPC   C1A33627  20.626  33.819   8.553
 7512POPC   D2A33628  20.584  33.786   8.253
 7512POPC   C3A33629  20.619  33.793   7.953
 7512POPC   C4A33630  20.561  33.802   7.653
 7512POPC   C1B33631  20.526  33.567   8.553
 7512POPC   C2B33632  20.571  33.550   8.253
 7512POPC   C3B33633  20.557  33.536   7.953
 7512POPC   C4B33634  20.574  33.506   7.653
 7513POPC   NC333635  11.272  41.579   9.453
 7513POPC   PO433636  11.312  41.533   9.153
 7513POPC   GL133637  11.340  41.571   8.853
 7513POPC   GL233638  11.435  41.634   8.853
 7513POPC   C1A33639  11.254  41.520   8.553
 7513POPC   D2A33640  11.253  41.513   8.253
 7513POPC   C3A33641  11.308  41.607   7.953
 7513POPC   C4A33642  11.259  41.585   7.653
 7513POPC   C1B33643  11.471  41.690   8.553
 7513POPC   C2B33644  11.489  41.715   8.253
 7513POPC   C3B33645  11.495  41.718   7.953
 7513POPC   C4B33646  11.503  41.705   7.653
 7514POPC   NC333647  19.085  24.447   9.453
 7514POPC   PO433648  19.013  24.443   9.153
 7514POPC   GL133649  19.029  24.466   8.853
 7514POPC   GL233650  19.008  24.565   8.853
 7514POPC   C1A33651  19.061  24.503   8.553
 7514POPC   D2A33652  19.072  24.474   8.253
 7514POPC   C3A33653  19.011  24.457   7.953
 7514POPC   C4A33654  19.024  24.459   7.653
 7514POPC   C1B33655  18.977  24.695   8.553
 7514POPC   C2B33656  18.980  24.690   8.253
 7514POPC   C3B33657  18.933  24.699   7.953
 7514POPC   C4B33658  18.968  24.764   7.653
 7515POPC   NC333659  33.827  38.432   9.453
 7515POPC   PO433660  33.828  38.466   9.153
 7515POPC   GL133661  33.783  38.406   8.853
 7515POPC   GL233662  33.662  38.444   8.853
 7515POPC   C1A33663  33.783  38.481   8.553
 7515POPC   D2A33664  33.771  38.471   8.253
 7515POPC   C3A33665  33.787  38.465   7.953
 7515POPC   C4A33666  33.773  38.486   7.653
 7515POPC   C1B33667  33.559  38.447   8.553
 7515POPC   C2B33668  33.598  38.471   8.253
 7515POPC   C3B33669  33.536  38.540   7.953
 7515POPC   C4B33670  33.543  38.466   7.653
 7516POPC   NC333671  22.121  14.447   9.453
 7516POPC   PO433672  22.199  14.425   9.153
 7516POPC   GL133673  22.175  14.412   8.853
 7516POPC   GL233674  22.096  14.305   8.853
 7516POPC   C1A33675  22.150  14.391   8.553
 7516POPC   D2A33676  22.198  14.453   8.253
 7516POPC   C3A33677  22.193  14.388   7.953
 7516POPC   C4A33678  22.196  14.433   7.653
 7516POPC   C1B33679  22.028  14.189   8.553
 7516POPC   C2B33680  22.024  14.130   8.253
 7516POPC   C3B33681  22.076  14.208   7.953
 7516POPC   C4B33682  22.057  14.130   7.653
 7517POPC   NC333683   4.285  15.203   9.453
 7517POPC   PO433684   4.299  15.223   9.153
 7517POPC   GL133685   4.280  15.130   8.853
 7517POPC   GL233686   4.310  15.274   8.853
 7517POPC   C1A33687   4.310  15.139   8.553
 7517POPC   D2A33688   4.356  15.138   8.253
 7517POPC   C3A33689   4.353  15.195   7.953
 7517POPC   C4A33690   4.359  15.166   7.653
 7517POPC   C1B33691   4.363  15.398   8.553
 7517POPC   C2B33692   4.424  15.464   8.253
 7517POPC   C3B33693   4.438  15.463   7.953
 7517POPC   C4B33694   4.384  15.395   7.653
 7518POPC   NC333695  33.010  40.057   9.453
 7518POPC   PO433696  33.053  39.965   9.153
 7518POPC   GL133697  33.002  39.998   8.853
 7518POPC   GL233698  33.107  40.032   8.853
 7518POPC   C1A33699  33.023  39.963   8.553
 7518POPC   D2A33700  33.035  39.997   8.253
 7518POPC   C3A33701  33.047  39.957   7.953
 7518POPC   C4A33702  33.012  40.046   7.653
 7518POPC   C1B33703  33.231  40.059   8.553
 7518POPC   C2B33704  33.250  40.014   8.253
 7518POPC   C3B33705  33.294  39.996   7.953
 7518POPC   C4B33706  33.319  40.000   7.653
 7519POPC   NC333707   8.967   0.434   9.453
 7519POPC   PO433708   9.004   0.390   9.153
 7519POPC   GL133709   8.946   0.458   8.853
 7519POPC   GL233710   8.976   0.302   8.853
 7519POPC   C1A33711   8.927   0.427   8.553
 7519POPC   D2A33712   9.001   0.471   8.253
 7519POPC   C3A33713   8.939   0.446   7.953
 7519POPC   C4A33714   9.020   0.407   7.653
 7519POPC   C1B33715   9.114   0.178   8.553
 7519POPC   C2B33716   9.066   0.248   8.253
 7519POPC   C3B33717   9.033   0.220   7.953
 7519POPC   C4B33718   9.098   0.190   7.653
 7520POPC   NC333719  44.617  10.551   9.453
 7520POPC   PO433720  44.676  10.549   9.153
 7520POPC   GL133721  44.623  10.532   8.853
 7520POPC   GL233722  44.580  10.440   8.853
 7520POPC   C1A33723  44.652  10.516   8.553
 7520POPC   D2A33724  44.684  10.508   8.253
 7520POPC   C3A33725  44.711  10.570   7.953
 7520POPC   C4A33726  44.683  10.548   7.653
 7520POPC   C1B33727  44.390  10.468   8.553
 7520POPC   C2B33728  44.377  10.492   8.253
 7520POPC   C3B33729  44.433  10.454   7.953
 7520POPC   C4B33730  44.411  10.438   7.653
 7521POPC   NC333731   5.066  32.296   9.453
 7521POPC   PO433732   5.063  32.286   9.153
 7521POPC   GL133733   5.122  32.199   8.853
 7521POPC   GL233734   5.183  32.287   8.853
 7521POPC   C1A33735   5.055  32.263   8.553
 7521POPC   D2A33736   5.106  32.295   8.253
 7521POPC   C3A33737   5.086  32.289   7.953
 7521POPC   C4A33738   5.078  32.236   7.653
 7521POPC   C1B33739   5.344  32.338   8.553
 7521POPC   C2B33740   5.377  32.350   8.253
 7521POPC   C3B33741   5.337  32.301   7.953
 7521POPC   C4B33742   5.360  32.345   7.653
 7522POPC   NC333743  41.572  29.908   9.453
 7522POPC   PO433744  41.598  29.893   9.153
 7522POPC   GL133745  41.596  29.961   8.853
 7522POPC   GL233746  41.405  29.968   8.853
 7522POPC   C1A33747  41.527  29.915   8.553
 7522POPC   D2A33748  41.534  29.918   8.253
 7522POPC   C3A33749  41.554  29.888   7.953
 7522POPC   C4A33750  41.599  29.968   7.653
 7522POPC   C1B33751  41.298  29.992   8.553
 7522POPC   C2B33752  41.366  30.087   8.253
 7522POPC   C3B33753  41.305  29.993   7.953
 7522POPC   C4B33754  41.361  30.044   7.653
 7523POPC   NC333755  36.916  26.013   9.453
 7523POPC   PO433756  36.869  26.021   9.153
 7523POPC   GL133757  36.914  26.081   8.853
 7523POPC   GL233758  36.800  25.970   8.853
 7523POPC   C1A33759  36.904  26.020   8.553
 7523POPC   D2A33760  36.880  26.022   8.253
 7523POPC   C3A33761  36.938  26.004   7.953
 7523POPC   C4A33762  36.909  26.062   7.653
 7523POPC   C1B33763  36.676  25.918   8.553
 7523POPC   C2B33764  36.714  25.911   8.253
 7523POPC   C3B33765  36.687  25.916   7.953
 7523POPC   C4B33766  36.719  25.900   7.653
 7524POPC   NC333767   2.023  37.666   9.453
 7524POPC   PO433768   1.995  37.704   9.153
 7524POPC   GL133769   1.945  37.659   8.853
 7524POPC   GL233770   2.072  37.696   8.853
 7524POPC   C1A33771   1.963  37.674   8.553
 7524POPC   D2A33772   1.944  37.711   8.253
 7524POPC   C3A33773   1.948  37.635   7.953
 7524POPC   C4A33774   2.003  37.726   7.653
 7524POPC   C1B33775   2.253  37.771   8.553
 7524POPC   C2B33776   2.259  37.767   8.253
 7524POPC   C3B33777   2.197  37.802   7.953
 7524POPC   C4B33778   2.265  37.734   7.653
 7525POPC   NC333779   3.529  27.548   9.453
 7525POPC   PO433780   3.550  27.627   9.153
 7525POPC   GL133781   3.539  27.567   8.853
 7525POPC   GL233782   3.590  27.458   8.853
 7525POPC   C1A33783   3.507  27.632   8.553
 7525POPC   D2A33784   3.556  27.626   8.253
 7525POPC   C3A33785   3.575  27.550   7.953
 7525POPC   C4A33786   3.493  27.637   7.653
 7525POPC   C1B33787   3.564  27.324   8.553
 7525POPC   C2B33788   3.550  27.379   8.253
 7525POPC   C3B33789   3.613  27.307   7.953
 7525POPC   C4B33790   3.642  27.305   7.653
 7526POPC   NC333791  19.875  23.696   9.453
 7526POPC   PO433792  19.845  23.686   9.153
 7526POPC   GL133793  19.812  23.686   8.853
 7526POPC   GL233794  19.785  23.546   8.853
 7526POPC   C1A33795  19.833  23.733   8.553
 7526POPC   D2A33796  19.831  23.687   8.253
 7526POPC   C3A33797  19.861  23.761   7.953
 7526POPC   C4A33798  19.828  23.703   7.653
 7526POPC   C1B33799  19.855  23.507   8.553
 7526POPC   C2B33800  19.852  23.481   8.253
 7526POPC   C3B33801  19.857  23.429   7.953
 7526POPC   C4B33802  19.814  23.426   7.653
 7527POPC   NC333803  29.911   1.176   9.453
 7527POPC   PO433804  29.963   1.195   9.153
 7527POPC   GL133805  29.922   1.170   8.853
 7527POPC   GL233806  29.976   1.089   8.853
 7527POPC   C1A33807  29.933   1.176   8.553
 7527POPC   D2A33808  29.905   1.165   8.253
 7527POPC   C3A33809  29.885   1.245   7.953
 7527POPC   C4A33810  29.885   1.196   7.653
 7527POPC   C1B33811  30.160   1.036   8.553
 7527POPC   C2B33812  30.080   1.048   8.253
 7527POPC   C3B33813  30.145   1.077   7.953
 7527POPC   C4B33814  30.143   1.048   7.653
 7528POPC   NC333815  15.136   0.458   9.453
 7528POPC   PO433816  15.150   0.441   9.153
 7528POPC   GL133817  15.213   0.454   8.853
 7528POPC   GL233818  15.046   0.482   8.853
 7528POPC   C1A33819  15.162   0.443   8.553
 7528POPC   D2A33820  15.194   0.433   8.253
 7528POPC   C3A33821  15.227   0.473   7.953
 7528POPC   C4A33822  15.131   0.440   7.653
 7528POPC   C1B33823  15.021   0.573   8.553
 7528POPC   C2B33824  14.932   0.591   8.253
 7528POPC   C3B33825  15.027   0.557   7.953
 7528POPC   C4B33826  14.935   0.601   7.653
 7529POPC   NC333827  13.664  31.490   9.453
 7529POPC   PO433828  13.629  31.491   9.153
 7529POPC   GL133829  13.578  31.492   8.853
 7529POPC   GL233830  13.464  31.548   8.853
 7529POPC   C1A33831  13.668  31.448   8.553
 7529POPC   D2A33832  13.622  31.497   8.253
 7529POPC   C3A33833  13.590  31.487   7.953
 7529POPC   C4A33834  13.622  31.494   7.653
 7529POPC   C1B33835  13.415  31.527   8.553
 7529POPC   C2B33836  13.334  31.492   8.253
 7529POPC   C3B33837  13.344  31.517   7.953
 7529POPC   C4B33838  13.408  31.558   7.653
 7530POPC   NC333839  19.017  27.641   9.453
 7530POPC   PO433840  19.100  27.639   9.153
 7530POPC   GL133841  19.040  27.628   8.853
 7530POPC   GL233842  19.226  27.583   8.853
 7530POPC   C1A33843  19.010  27.609   8.553
 7530POPC   D2A33844  19.101  27.593   8.253
 7530POPC   C3A33845  19.068  27.573   7.953
 7530POPC   C4A33846  19.083  27.601   7.653
 7530POPC   C1B33847  19.302  27.563   8.553
 7530POPC   C2B33848  19.317  27.640   8.253
 7530POPC   C3B33849  19.343  27.557   7.953
 7530POPC   C4B33850  19.294  27.595   7.653
 7531POPC   NC333851  26.834   5.093   9.453
 7531POPC   PO433852  26.813   5.061   9.153
 7531POPC   GL133853  26.796   5.061   8.853
 7531POPC   GL233854  26.820   5.013   8.853
 7531POPC   C1A33855  26.839   5.102   8.553
 7531POPC   D2A33856  26.771   5.049   8.253
 7531POPC   C3A33857  26.820   5.072   7.953
 7531POPC   C4A33858  26.770   5.131   7.653
 7531POPC   C1B33859  26.857   4.898   8.553
 7531POPC   C2B33860  26.867   4.845   8.253
 7531POPC   C3B33861  26.852   4.805   7.953
 7531POPC   C4B33862  26.903   4.812   7.653
 7532POPC   NC333863   1.204  15.930   9.453
 7532POPC   PO433864   1.197  15.929   9.153
 7532POPC   GL133865   1.248  15.920   8.853
 7532POPC   GL233866   1.224  16.107   8.853
 7532POPC   C1A33867   1.213  15.985   8.553
 7532POPC   D2A33868   1.189  15.980   8.253
 7532POPC   C3A33869   1.206  15.981   7.953
 7532POPC   C4A33870   1.172  15.937   7.653
 7532POPC   C1B33871   1.236  16.211   8.553
 7532POPC   C2B33872   1.294  16.214   8.253
 7532POPC   C3B33873   1.277  16.237   7.953
 7532POPC   C4B33874   1.272  16.197   7.653
 7533POPC   NC333875   2.812  15.132   9.453
 7533POPC   PO433876   2.802  15.210   9.153
 7533POPC   GL133877   2.785  15.184   8.853
 7533POPC   GL233878   2.793  15.317   8.853
 7533POPC   C1A33879   2.806  15.165   8.553
 7533POPC   D2A33880   2.752  15.217   8.253
 7533POPC   C3A33881   2.718  15.199   7.953
 7533POPC   C4A33882   2.733  15.164   7.653
 7533POPC   C1B33883   2.815  15.379   8.553
 7533POPC   C2B33884   2.843  15.473   8.253
 7533POPC   C3B33885   2.802  15.410   7.953
 7533POPC   C4B33886   2.866  15.433   7.653
 7534POPC   NC333887   4.339   2.748   9.453
 7534POPC   PO433888   4.326   2.726   9.153
 7534POPC   GL133889   4.309   2.805   8.853
 7534POPC   GL233890   4.208   2.619   8.853
 7534POPC   C1A33891   4.348   2.772   8.553
 7534POPC   D2A33892   4.294   2.805   8.253
 7534POPC   C3A33893   4.323   2.751   7.953
 7534POPC   C4A33894   4.286   2.814   7.653
 7534POPC   C1B33895   4.171   2.584   8.553
 7534POPC   C2B33896   4.236   2.536   8.253
 7534POPC   C3B33897   4.204   2.587   7.953
 7534POPC   C4B33898   4.186   2.527   7.653
 7535POPC   NC333899  33.756  42.349   9.453
 7535POPC   PO433900  33.834  42.348   9.153
 7535POPC   GL133901  33.836  42.310   8.853
 7535POPC   GL233902  33.729  42.256   8.853
 7535POPC   C1A33903  33.848  42.372   8.553
 7535POPC   D2A33904  33.790  42.307   8.253
 7535POPC   C3A33905  33.756  42.342   7.953
 7535POPC   C4A33906  33.818  42.340   7.653
 7535POPC   C1B33907  33.770  42.065   8.553
 7535POPC   C2B33908  33.702  42.045   8.253
 7535POPC   C3B33909  33.750  42.114   7.953
 7535POPC   C4B33910  33.783  42.046   7.653
 7536POPC   NC333911   6.660  39.209   9.453
 7536POPC   PO433912   6.665  39.204   9.153
 7536POPC   GL133913   6.608  39.252   8.853
 7536POPC   GL233914   6.698  39.121   8.853
 7536POPC   C1A33915   6.659  39.189   8.553
 7536POPC   D2A33916   6.631  39.187   8.253
 7536POPC   C3A33917   6.619  39.245   7.953
 7536POPC   C4A33918   6.685  39.274   7.653
 7536POPC   C1B33919   6.709  38.937   8.553
 7536POPC   C2B33920   6.632  39.022   8.253
 7536POPC   C3B33921   6.645  38.945   7.953
 7536POPC   C4B33922   6.723  38.940   7.653
 7537POPC   NC333923  39.973  14.354   9.453
 7537POPC   PO433924  39.966  14.409   9.153
 7537POPC   GL133925  39.966  14.397   8.853
 7537POPC   GL233926  39.992  14.265   8.853
 7537POPC   C1A33927  40.049  14.396   8.553
 7537POPC   D2A33928  40.019  14.422   8.253
 7537POPC   C3A33929  40.026  14.372   7.953
 7537POPC   C4A33930  39.970  14.373   7.653
 7537POPC   C1B33931  39.939  14.174   8.553
 7537POPC   C2B33932  39.912  14.163   8.253
 7537POPC   C3B33933  39.958  14.121   7.953
 7537POPC   C4B33934  39.883  14.134   7.653
 7538POPC   NC333935  26.855  15.136   9.453
 7538POPC   PO433936  26.819  15.200   9.153
 7538POPC   GL133937  26.831  15.211   8.853
 7538POPC   GL233938  26.917  15.109   8.853
 7538POPC   C1A33939  26.847  15.176   8.553
 7538POPC   D2A33940  26.778  15.177   8.253
 7538POPC   C3A33941  26.780  15.187   7.953
 7538POPC   C4A33942  26.792  15.219   7.653
 7538POPC   C1B33943  26.894  14.980   8.553
 7538POPC   C2B33944  26.919  14.964   8.253
 7538POPC   C3B33945  26.917  14.958   7.953
 7538POPC   C4B33946  26.886  14.979   7.653
 7539POPC   NC333947   2.739  24.512   9.453
 7539POPC   PO433948   2.795  24.441   9.153
 7539POPC   GL133949   2.795  24.509   8.853
 7539POPC   GL233950   2.663  24.370   8.853
 7539POPC   C1A33951   2.796  24.538   8.553
 7539POPC   D2A33952   2.758  24.450   8.253
 7539POPC   C3A33953   2.807  24.465   7.953
 7539POPC   C4A33954   2.719  24.504   7.653
 7539POPC   C1B33955   2.648  24.291   8.553
 7539POPC   C2B33956   2.629  24.230   8.253
 7539POPC   C3B33957   2.621  24.217   7.953
 7539POPC   C4B33958   2.627  24.249   7.653
 7540POPC   NC333959  22.139  38.470   9.453
 7540POPC   PO433960  22.176  38.465   9.153
 7540POPC   GL133961  22.170  38.498   8.853
 7540POPC   GL233962  22.247  38.440   8.853
 7540POPC   C1A33963  22.169  38.462   8.553
 7540POPC   D2A33964  22.131  38.500   8.253
 7540POPC   C3A33965  22.112  38.449   7.953
 7540POPC   C4A33966  22.180  38.417   7.653
 7540POPC   C1B33967  22.374  38.373   8.553
 7540POPC   C2B33968  22.380  38.336   8.253
 7540POPC   C3B33969  22.397  38.391   7.953
 7540POPC   C4B33970  22.389  38.297   7.653
 7541POPC   NC333971   8.182  43.877   9.453
 7541POPC   PO433972   8.197  43.928   9.153
 7541POPC   GL133973   8.173  43.876   8.853
 7541POPC   GL233974   8.117  43.950   8.853
 7541POPC   C1A33975   8.233  43.883   8.553
 7541POPC   D2A33976   8.202  43.853   8.253
 7541POPC   C3A33977   8.215  43.878   7.953
 7541POPC   C4A33978   8.230  43.855   7.653
 7541POPC   C1B33979   7.934  43.940   8.553
 7541POPC   C2B33980   7.984  43.987   8.253
 7541POPC   C3B33981   7.992  43.914   7.953
 7541POPC   C4B33982   7.996  43.954   7.653
 7542POPC   NC333983  22.985  30.713   9.453
 7542POPC   PO433984  22.986  30.687   9.153
 7542POPC   GL133985  22.891  30.667   8.853
 7542POPC   GL233986  22.845  30.694   8.853
 7542POPC   C1A33987  22.984  30.716   8.553
 7542POPC   D2A33988  22.960  30.652   8.253
 7542POPC   C3A33989  22.901  30.738   7.953
 7542POPC   C4A33990  22.943  30.736   7.653
 7542POPC   C1B33991  22.707  30.785   8.553
 7542POPC   C2B33992  22.748  30.806   8.253
 7542POPC   C3B33993  22.680  30.803   7.953
 7542POPC   C4B33994  22.719  30.721   7.653
 7543POPC   NC333995  18.277  29.932   9.453
 7543POPC   PO433996  18.309  29.955   9.153
 7543POPC   GL133997  18.301  29.926   8.853
 7543POPC   GL233998  18.169  29.971   8.853
 7543POPC   C1A33999  18.296  29.903   8.553
 7543POPC   D2A34000  18.314  29.916   8.253
 7543POPC   C3A34001  18.308  29.899   7.953
 7543POPC   C4A34002  18.276  29.947   7.653
 7543POPC   C1B34003  18.140  30.090   8.553
 7543POPC   C2B34004  18.138  30.093   8.253
 7543POPC   C3B34005  18.072  30.079   7.953
 7543POPC   C4B34006  18.079  30.077   7.653
 7544POPC   NC334007  32.995  44.658   9.453
 7544POPC   PO434008  33.073  44.676   9.153
 7544POPC   GL134009  33.025  44.682   8.853
 7544POPC   GL234010  33.154  44.662   8.853
 7544POPC   C1A34011  33.036  44.646   8.553
 7544POPC   D2A34012  32.999  44.681   8.253
 7544POPC   C3A34013  33.055  44.647   7.953
 7544POPC   C4A34014  33.072  44.639   7.653
 7544POPC   C1B34015  33.244  44.650   8.553
 7544POPC   C2B34016  33.231  44.618   8.253
 7544POPC   C3B34017  33.259  44.598   7.953
 7544POPC   C4B34018  33.266  44.662   7.653
 7545POPC   NC334019  11.322  29.141   9.453
 7545POPC   PO434020  11.336  29.131   9.153
 7545POPC   GL134021  11.257  29.179   8.853
 7545POPC   GL234022  11.247  29.072   8.853
 7545POPC   C1A34023  11.272  29.152   8.553
 7545POPC   D2A34024  11.308  29.098   8.253
 7545POPC   C3A34025  11.333  29.147   7.953
 7545POPC   C4A34026  11.349  29.126   7.653
 7545POPC   C1B34027  11.131  28.910   8.553
 7545POPC   C2B34028  11.108  28.961   8.253
 7545POPC   C3B34029  11.188  28.952   7.953
 7545POPC   C4B34030  11.162  28.969   7.653
 7546POPC   NC334031  33.832  33.768   9.453
 7546POPC   PO434032  33.812  33.766   9.153
 7546POPC   GL134033  33.784  33.754   8.853
 7546POPC   GL234034  33.892  33.875   8.853
 7546POPC   C1A34035  33.810  33.826   8.553
 7546POPC   D2A34036  33.822  33.819   8.253
 7546POPC   C3A34037  33.763  33.816   7.953
 7546POPC   C4A34038  33.800  33.833   7.653
 7546POPC   C1B34039  33.939  33.992   8.553
 7546POPC   C2B34040  33.927  34.003   8.253
 7546POPC   C3B34041  33.961  34.005   7.953
 7546POPC   C4B34042  33.936  34.010   7.653
 7547POPC   NC334043   0.486  25.229   9.453
 7547POPC   PO434044   0.428  25.279   9.153
 7547POPC   GL134045   0.416  25.234   8.853
 7547POPC   GL234046   0.463  25.112   8.853
 7547POPC   C1A34047   0.389  25.261   8.553
 7547POPC   D2A34048   0.445  25.283   8.253
 7547POPC   C3A34049   0.444  25.296   7.953
 7547POPC   C4A34050   0.419  25.225   7.653
 7547POPC   C1B34051   0.458  25.057   8.553
 7547POPC   C2B34052   0.461  25.048   8.253
 7547POPC   C3B34053   0.505  24.971   7.953
 7547POPC   C4B34054   0.484  25.025   7.653
 7548POPC   NC334055   1.209  32.234   9.453
 7548POPC   PO434056   1.259  32.264   9.153
 7548POPC   GL134057   1.259  32.247   8.853
 7548POPC   GL234058   1.092  32.257   8.853
 7548POPC   C1A34059   1.187  32.210   8.553
 7548POPC   D2A34060   1.253  32.284   8.253
 7548POPC   C3A34061   1.236  32.283   7.953
 7548POPC   C4A34062   1.235  32.203   7.653
 7548POPC   C1B34063   0.967  32.257   8.553
 7548POPC   C2B34064   1.001  32.240   8.253
 7548POPC   C3B34065   1.011  32.252   7.953
 7548POPC   C4B34066   0.950  32.250   7.653
 7549POPC   NC334067  35.365  28.357   9.453
 7549POPC   PO434068  35.304  28.357   9.153
 7549POPC   GL134069  35.347  28.413   8.853
 7549POPC   GL234070  35.371  28.537   8.853
 7549POPC   C1A34071  35.338  28.320   8.553
 7549POPC   D2A34072  35.322  28.389   8.253
 7549POPC   C3A34073  35.336  28.351   7.953
 7549POPC   C4A34074  35.394  28.349   7.653
 7549POPC   C1B34075  35.383  28.564   8.553
 7549POPC   C2B34076  35.422  28.623   8.253
 7549POPC   C3B34077  35.375  28.640   7.953
 7549POPC   C4B34078  35.375  28.609   7.653
 7550POPC   NC334079  39.996   2.020   9.453
 7550POPC   PO434080  40.023   1.946   9.153
 7550POPC   GL134081  39.986   1.945   8.853
 7550POPC   GL234082  40.036   1.895   8.853
 7550POPC   C1A34083  39.977   2.004   8.553
 7550POPC   D2A34084  40.037   1.988   8.253
 7550POPC   C3A34085  40.047   1.950   7.953
 7550POPC   C4A34086  39.999   2.025   7.653
 7550POPC   C1B34087  40.110   1.773   8.553
 7550POPC   C2B34088  40.191   1.827   8.253
 7550POPC   C3B34089  40.132   1.838   7.953
 7550POPC   C4B34090  40.197   1.804   7.653
 7551POPC   NC334091  15.132  20.613   9.453
 7551POPC   PO434092  15.176  20.568   9.153
 7551POPC   GL134093  15.174  20.649   8.853
 7551POPC   GL234094  15.256  20.733   8.853
 7551POPC   C1A34095  15.164  20.605   8.553
 7551POPC   D2A34096  15.141  20.653   8.253
 7551POPC   C3A34097  15.176  20.628   7.953
 7551POPC   C4A34098  15.171  20.640   7.653
 7551POPC   C1B34099  15.344  20.838   8.553
 7551POPC   C2B34100  15.308  20.854   8.253
 7551POPC   C3B34101  15.357  20.805   7.953
 7551POPC   C4B34102  15.299  20.857   7.653
 7552POPC   NC334103   4.351  26.794   9.453
 7552POPC   PO434104   4.318  26.824   9.153
 7552POPC   GL134105   4.321  26.815   8.853
 7552POPC   GL234106   4.464  26.779   8.853
 7552POPC   C1A34107   4.291  26.837   8.553
 7552POPC   D2A34108   4.317  26.833   8.253
 7552POPC   C3A34109   4.285  26.863   7.953
 7552POPC   C4A34110   4.309  26.834   7.653
 7552POPC   C1B34111   4.505  26.715   8.553
 7552POPC   C2B34112   4.523  26.657   8.253
 7552POPC   C3B34113   4.502  26.670   7.953
 7552POPC   C4B34114   4.501  26.677   7.653
 7553POPC   NC334115  15.135  30.674   9.453
 7553POPC   PO434116  15.214  30.703   9.153
 7553POPC   GL134117  15.211  30.657   8.853
 7553POPC   GL234118  15.152  30.551   8.853
 7553POPC   C1A34119  15.176  30.689   8.553
 7553POPC   D2A34120  15.219  30.664   8.253
 7553POPC   C3A34121  15.130  30.701   7.953
 7553POPC   C4A34122  15.131  30.706   7.653
 7553POPC   C1B34123  15.133  30.454   8.553
 7553POPC   C2B34124  15.160  30.410   8.253
 7553POPC   C3B34125  15.149  30.410   7.953
 7553POPC   C4B34126  15.086  30.469   7.653
 7554POPC   NC334127   2.016   4.366   9.453
 7554POPC   PO434128   1.977   4.291   9.153
 7554POPC   GL134129   1.998   4.347   8.853
 7554POPC   GL234130   2.079   4.354   8.853
 7554POPC   C1A34131   2.009   4.332   8.553
 7554POPC   D2A34132   1.960   4.303   8.253
 7554POPC   C3A34133   1.971   4.360   7.953
 7554POPC   C4A34134   1.988   4.358   7.653
 7554POPC   C1B34135   2.204   4.398   8.553
 7554POPC   C2B34136   2.252   4.385   8.253
 7554POPC   C3B34137   2.187   4.444   7.953
 7554POPC   C4B34138   2.190   4.465   7.653
 7555POPC   NC334139  12.048  19.099   9.453
 7555POPC   PO434140  12.079  19.038   9.153
 7555POPC   GL134141  12.071  19.086   8.853
 7555POPC   GL234142  11.941  19.126   8.853
 7555POPC   C1A34143  12.097  19.090   8.553
 7555POPC   D2A34144  12.075  19.036   8.253
 7555POPC   C3A34145  12.074  19.080   7.953
 7555POPC   C4A34146  12.077  19.065   7.653
 7555POPC   C1B34147  11.897  19.246   8.553
 7555POPC   C2B34148  11.826  19.219   8.253
 7555POPC   C3B34149  11.874  19.211   7.953
 7555POPC   C4B34150  11.914  19.171   7.653
 7556POPC   NC334151  29.173  29.959   9.453
 7556POPC   PO434152  29.143  29.906   9.153
 7556POPC   GL134153  29.183  29.934   8.853
 7556POPC   GL234154  29.199  30.082   8.853
 7556POPC   C1A34155  29.137  29.941   8.553
 7556POPC   D2A34156  29.140  29.917   8.253
 7556POPC   C3A34157  29.153  29.908   7.953
 7556POPC   C4A34158  29.168  29.928   7.653
 7556POPC   C1B34159  29.142  30.202   8.553
 7556POPC   C2B34160  29.125  30.130   8.253
 7556POPC   C3B34161  29.192  30.132   7.953
 7556POPC   C4B34162  29.122  30.214   7.653
 7557POPC   NC334163  22.124  35.304   9.453
 7557POPC   PO434164  22.177  35.393   9.153
 7557POPC   GL134165  22.160  35.350   8.853
 7557POPC   GL234166  22.099  35.455   8.853
 7557POPC   C1A34167  22.198  35.321   8.553
 7557POPC   D2A34168  22.126  35.346   8.253
 7557POPC   C3A34169  22.181  35.343   7.953
 7557POPC   C4A34170  22.188  35.336   7.653
 7557POPC   C1B34171  22.093  35.609   8.553
 7557POPC   C2B34172  22.126  35.544   8.253
 7557POPC   C3B34173  22.108  35.612   7.953
 7557POPC   C4B34174  22.026  35.590   7.653
 7558POPC   NC334175  43.130  26.828   9.453
 7558POPC   PO434176  43.141  26.771   9.153
 7558POPC   GL134177  43.122  26.833   8.853
 7558POPC   GL234178  43.167  26.690   8.853
 7558POPC   C1A34179  43.102  26.801   8.553
 7558POPC   D2A34180  43.108  26.860   8.253
 7558POPC   C3A34181  43.108  26.833   7.953
 7558POPC   C4A34182  43.114  26.844   7.653
 7558POPC   C1B34183  43.110  26.602   8.553
 7558POPC   C2B34184  43.090  26.532   8.253
 7558POPC   C3B34185  43.125  26.572   7.953
 7558POPC   C4B34186  43.089  26.564   7.653
 7559POPC   NC334187  43.116  32.240   9.453
 7559POPC   PO434188  43.149  32.208   9.153
 7559POPC   GL134189  43.073  32.215   8.853
 7559POPC   GL234190  43.188  32.333   8.853
 7559POPC   C1A34191  43.092  32.278   8.553
 7559POPC   D2A34192  43.091  32.286   8.253
 7559POPC   C3A34193  43.103  32.287   7.953
 7559POPC   C4A34194  43.154  32.232   7.653
 7559POPC   C1B34195  43.178  32.443   8.553
 7559POPC   C2B34196  43.198  32.523   8.253
 7559POPC   C3B34197  43.183  32.522   7.953
 7559POPC   C4B34198  43.222  32.478   7.653
 7560POPC   NC334199  22.131  22.189   9.453
 7560POPC   PO434200  22.158  22.170   9.153
 7560POPC   GL134201  22.148  22.160   8.853
 7560POPC   GL234202  22.010  22.093   8.853
 7560POPC   C1A34203  22.136  22.164   8.553
 7560POPC   D2A34204  22.124  22.127   8.253
 7560POPC   C3A34205  22.152  22.168   7.953
 7560POPC   C4A34206  22.209  22.199   7.653
 7560POPC   C1B34207  21.948  22.145   8.553
 7560POPC   C2B34208  21.923  22.151   8.253
 7560POPC   C3B34209  21.898  22.134   7.953
 7560POPC   C4B34210  21.932  22.063   7.653
 7561POPC   NC334211  39.239  43.936   9.453
 7561POPC   PO434212  39.238  43.872   9.153
 7561POPC   GL134213  39.196  43.918   8.853
 7561POPC   GL234214  39.127  43.869   8.853
 7561POPC   C1A34215  39.228  43.844   8.553
 7561POPC   D2A34216  39.215  43.924   8.253
 7561POPC   C3A34217  39.223  43.873   7.953
 7561POPC   C4A34218  39.221  43.847   7.653
 7561POPC   C1B34219  39.001  43.840   8.553
 7561POPC   C2B34220  39.027  43.825   8.253
 7561POPC   C3B34221  38.953  43.812   7.953
 7561POPC   C4B34222  38.952  43.822   7.653
 7562POPC   NC334223  17.512  38.428   9.453
 7562POPC   PO434224  17.551  38.411   9.153
 7562POPC   GL134225  17.531  38.416   8.853
 7562POPC   GL234226  17.617  38.501   8.853
 7562POPC   C1A34227  17.490  38.446   8.553
 7562POPC   D2A34228  17.458  38.458   8.253
 7562POPC   C3A34229  17.479  38.473   7.953
 7562POPC   C4A34230  17.458  38.484   7.653
 7562POPC   C1B34231  17.670  38.557   8.553
 7562POPC   C2B34232  17.746  38.637   8.253
 7562POPC   C3B34233  17.724  38.570   7.953
 7562POPC   C4B34234  17.702  38.599   7.653
 7563POPC   NC334235   9.000  39.193   9.453
 7563POPC   PO434236   8.947  39.186   9.153
 7563POPC   GL134237   8.949  39.201   8.853
 7563POPC   GL234238   8.820  39.210   8.853
 7563POPC   C1A34239   8.966  39.221   8.553
 7563POPC   D2A34240   9.018  39.261   8.253
 7563POPC   C3A34241   8.938  39.214   7.953
 7563POPC   C4A34242   8.985  39.196   7.653
 7563POPC   C1B34243   8.709  39.112   8.553
 7563POPC   C2B34244   8.716  39.194   8.253
 7563POPC   C3B34245   8.719  39.161   7.953
 7563POPC   C4B34246   8.716  39.181   7.653
 7564POPC   NC334247  15.185  22.957   9.453
 7564POPC   PO434248  15.182  22.967   9.153
 7564POPC   GL134249  15.196  22.922   8.853
 7564POPC   GL234250  15.262  23.062   8.853
 7564POPC   C1A34251  15.195  22.909   8.553
 7564POPC   D2A34252  15.179  22.917   8.253
 7564POPC   C3A34253  15.164  22.936   7.953
 7564POPC   C4A34254  15.222  22.913   7.653
 7564POPC   C1B34255  15.275  23.116   8.553
 7564POPC   C2B34256  15.298  23.173   8.253
 7564POPC   C3B34257  15.373  23.163   7.953
 7564POPC   C4B34258  15.367  23.150   7.653
 7565POPC   NC334259  12.089  29.107   9.453
 7565POPC   PO434260  12.053  29.170   9.153
 7565POPC   GL134261  12.099  29.150   8.853
 7565POPC   GL234262  12.122  29.204   8.853
 7565POPC   C1A34263  12.080  29.110   8.553
 7565POPC   D2A34264  12.059  29.151   8.253
 7565POPC   C3A34265  12.061  29.149   7.953
 7565POPC   C4A34266  12.090  29.135   7.653
 7565POPC   C1B34267  12.242  29.368   8.553
 7565POPC   C2B34268  12.237  29.374   8.253
 7565POPC   C3B34269  12.205  29.339   7.953
 7565POPC   C4B34270  12.249  29.380   7.653
 7566POPC   NC334271  29.138  36.881   9.453
 7566POPC   PO434272  29.097  36.891   9.153
 7566POPC   GL134273  29.135  36.868   8.853
 7566POPC   GL234274  29.169  37.013   8.853
 7566POPC   C1A34275  29.119  36.929   8.553
 7566POPC   D2A34276  29.184  36.908   8.253
 7566POPC   C3A34277  29.187  36.898   7.953
 7566POPC   C4A34278  29.145  36.872   7.653
 7566POPC   C1B34279  29.231  37.126   8.553
 7566POPC   C2B34280  29.218  37.158   8.253
 7566POPC   C3B34281  29.207  37.147   7.953
 7566POPC   C4B34282  29.178  37.188   7.653
 7567POPC   NC334283  11.340  34.611   9.453
 7567POPC   PO434284  11.337  34.589   9.153
 7567POPC   GL134285  11.253  34.592   8.853
 7567POPC   GL234286  11.398  34.642   8.853
 7567POPC   C1A34287  11.281  34.554   8.553
 7567POPC   D2A34288  11.252  34.586   8.253
 7567POPC   C3A34289  11.314  34.538   7.953
 7567POPC   C4A34290  11.341  34.528   7.653
 7567POPC   C1B34291  11.459  34.778   8.553
 7567POPC   C2B34292  11.510  34.757   8.253
 7567POPC   C3B34293  11.530  34.778   7.953
 7567POPC   C4B34294  11.476  34.745   7.653
 7568POPC   NC334295  37.711  29.189   9.453
 7568POPC   PO434296  37.655  29.095   9.153
 7568POPC   GL134297  37.630  29.189   8.853
 7568POPC   GL234298  37.832  29.105   8.853
 7568POPC   C1A34299  37.661  29.180   8.553
 7568POPC   D2A34300  37.654  29.179   8.253
 7568POPC   C3A34301  37.718  29.146   7.953
 7568POPC   C4A34302  37.650  29.154   7.653
 7568POPC   C1B34303  37.908  29.145   8.553
 7568POPC   C2B34304  37.936  29.189   8.253
 7568POPC   C3B34305  37.910  29.204   7.953
 7568POPC   C4B34306  37.890  29.116   7.653
 7569POPC   NC334307  36.925  33.825   9.453
 7569POPC   PO434308  36.918  33.751   9.153
 7569POPC   GL134309  36.920  33.808   8.853
 7569POPC   GL234310  36.822  33.731   8.853
 7569POPC   C1A34311  36.884  33.847   8.553
 7569POPC   D2A34312  36.902  33.766   8.253
 7569POPC   C3A34313  36.942  33.846   7.953
 7569POPC   C4A34314  36.909  33.833   7.653
 7569POPC   C1B34315  36.789  33.645   8.553
 7569POPC   C2B34316  36.707  33.578   8.253
 7569POPC   C3B34317  36.740  33.647   7.953
 7569POPC   C4B34318  36.776  33.606   7.653
 7570POPC   NC334319  35.332   0.395   9.453
 7570POPC   PO434320  35.382   0.423   9.153
 7570POPC   GL134321  35.319   0.469   8.853
 7570POPC   GL234322  35.385   0.344   8.853
 7570POPC   C1A34323  35.306   0.469   8.553
 7570POPC   D2A34324  35.376   0.426   8.253
 7570POPC   C3A34325  35.333   0.429   7.953
 7570POPC   C4A34326  35.364   0.414   7.653
 7570POPC   C1B34327  35.474   0.268   8.553
 7570POPC   C2B34328  35.458   0.272   8.253
 7570POPC   C3B34329  35.518   0.240   7.953
 7570POPC   C4B34330  35.439   0.244   7.653
 7571POPC   NC334331  22.205  28.407   9.453
 7571POPC   PO434332  22.197  28.374   9.153
 7571POPC   GL134333  22.211  28.323   8.853
 7571POPC   GL234334  22.231  28.236   8.853
 7571POPC   C1A34335  22.175  28.391   8.553
 7571POPC   D2A34336  22.194  28.320   8.253
 7571POPC   C3A34337  22.167  28.397   7.953
 7571POPC   C4A34338  22.195  28.374   7.653
 7571POPC   C1B34339  22.253  28.164   8.553
 7571POPC   C2B34340  22.172  28.116   8.253
 7571POPC   C3B34341  22.208  28.164   7.953
 7571POPC   C4B34342  22.215  28.103   7.653
 7572POPC   NC334343  19.059  19.857   9.453
 7572POPC   PO434344  19.018  19.813   9.153
 7572POPC   GL134345  19.051  19.828   8.853
 7572POPC   GL234346  19.167  19.824   8.853
 7572POPC   C1A34347  19.025  19.869   8.553
 7572POPC   D2A34348  19.047  19.788   8.253
 7572POPC   C3A34349  19.091  19.871   7.953
 7572POPC   C4A34350  19.018  19.835   7.653
 7572POPC   C1B34351  19.321  19.844   8.553
 7572POPC   C2B34352  19.314  19.875   8.253
 7572POPC   C3B34353  19.302  19.856   7.953
 7572POPC   C4B34354  19.258  19.880   7.653
 7573POPC   NC334355   6.620  13.642   9.453
 7573POPC   PO434356   6.629  13.647   9.153
 7573POPC   GL134357   6.669  13.614   8.853
 7573POPC   GL234358   6.558  13.513   8.853
 7573POPC   C1A34359   6.618  13.588   8.553
 7573POPC   D2A34360   6.613  13.634   8.253
 7573POPC   C3A34361   6.642  13.658   7.953
 7573POPC   C4A34362   6.680  13.581   7.653
 7573POPC   C1B34363   6.528  13.416   8.553
 7573POPC   C2B34364   6.612  13.352   8.253
 7573POPC   C3B34365   6.615  13.426   7.953
 7573POPC   C4B34366   6.557  13.369   7.653
 7574POPC   NC334367  37.659  15.997   9.453
 7574POPC   PO434368  37.675  15.938   9.153
 7574POPC   GL134369  37.688  15.985   8.853
 7574POPC   GL234370  37.719  16.130   8.853
 7574POPC   C1A34371  37.652  15.998   8.553
 7574POPC   D2A34372  37.706  15.923   8.253
 7574POPC   C3A34373  37.640  15.956   7.953
 7574POPC   C4A34374  37.666  15.963   7.653
 7574POPC   C1B34375  37.720  16.163   8.553
 7574POPC   C2B34376  37.668  16.218   8.253
 7574POPC   C3B34377  37.663  16.195   7.953
 7574POPC   C4B34378  37.644  16.252   7.653
 7575POPC   NC334379  18.292   8.955   9.453
 7575POPC   PO434380  18.330   8.958   9.153
 7575POPC   GL134381  18.329   8.956   8.853
 7575POPC   GL234382  18.242   8.826   8.853
 7575POPC   C1A34383  18.263   8.974   8.553
 7575POPC   D2A34384  18.242   8.993   8.253
 7575POPC   C3A34385  18.291   8.970   7.953
 7575POPC   C4A34386  18.256   8.990   7.653
 7575POPC   C1B34387  18.163   8.726   8.553
 7575POPC   C2B34388  18.098   8.775   8.253
 7575POPC   C3B34389  18.109   8.757   7.953
 7575POPC   C4B34390  18.151   8.787   7.653
 7576POPC   NC334391  30.686  15.979   9.453
 7576POPC   PO434392  30.736  15.935   9.153
 7576POPC   GL134393  30.656  15.920   8.853
 7576POPC   GL234394  30.762  15.805   8.853
 7576POPC   C1A34395  30.742  15.915   8.553
 7576POPC   D2A34396  30.724  15.935   8.253
 7576POPC   C3A34397  30.719  15.924   7.953
 7576POPC   C4A34398  30.736  15.986   7.653
 7576POPC   C1B34399  30.761  15.726   8.553
 7576POPC   C2B34400  30.765  15.670   8.253
 7576POPC   C3B34401  30.724  15.731   7.953
 7576POPC   C4B34402  30.750  15.665   7.653
 7577POPC   NC334403   3.508  40.767   9.453
 7577POPC   PO434404   3.537  40.807   9.153
 7577POPC   GL134405   3.492  40.811   8.853
 7577POPC   GL234406   3.488  40.611   8.853
 7577POPC   C1A34407   3.563  40.751   8.553
 7577POPC   D2A34408   3.520  40.784   8.253
 7577POPC   C3A34409   3.495  40.821   7.953
 7577POPC   C4A34410   3.587  40.803   7.653
 7577POPC   C1B34411   3.512  40.517   8.553
 7577POPC   C2B34412   3.548  40.528   8.253
 7577POPC   C3B34413   3.472  40.519   7.953
 7577POPC   C4B34414   3.554  40.505   7.653
 7578POPC   NC334415  39.191   5.127   9.453
 7578POPC   PO434416  39.233   5.143   9.153
 7578POPC   GL134417  39.215   5.102   8.853
 7578POPC   GL234418  39.137   5.217   8.853
 7578POPC   C1A34419  39.248   5.137   8.553
 7578POPC   D2A34420  39.263   5.100   8.253
 7578POPC   C3A34421  39.195   5.073   7.953
 7578POPC   C4A34422  39.201   5.122   7.653
 7578POPC   C1B34423  39.154   5.312   8.553
 7578POPC   C2B34424  39.169   5.288   8.253
 7578POPC   C3B34425  39.168   5.330   7.953
 7578POPC   C4B34426  39.115   5.324   7.653
 7579POPC   NC334427  36.125   1.945   9.453
 7579POPC   PO434428  36.094   1.950   9.153
 7579POPC   GL134429  36.117   1.940   8.853
 7579POPC   GL234430  36.053   2.029   8.853
 7579POPC   C1A34431  36.138   1.965   8.553
 7579POPC   D2A34432  36.155   1.974   8.253
 7579POPC   C3A34433  36.083   1.950   7.953
 7579POPC   C4A34434  36.172   1.942   7.653
 7579POPC   C1B34435  35.894   2.093   8.553
 7579POPC   C2B34436  35.910   2.017   8.253
 7579POPC   C3B34437  35.925   2.089   7.953
 7579POPC   C4B34438  35.839   2.014   7.653
 7580POPC   NC334439   0.452  36.943   9.453
 7580POPC   PO434440   0.425  36.868   9.153
 7580POPC   GL134441   0.447  36.912   8.853
 7580POPC   GL234442   0.306  36.950   8.853
 7580POPC   C1A34443   0.485  36.941   8.553
 7580POPC   D2A34444   0.466  36.890   8.253
 7580POPC   C3A34445   0.408  36.892   7.953
 7580POPC   C4A34446   0.440  36.870   7.653
 7580POPC   C1B34447   0.177  36.924   8.553
 7580POPC   C2B34448   0.172  36.990   8.253
 7580POPC   C3B34449   0.200  36.949   7.953
 7580POPC   C4B34450   0.151  36.967   7.653
 7581POPC   NC334451  18.308  32.254   9.453
 7581POPC   PO434452  18.313  32.258   9.153
 7581POPC   GL134453  18.333  32.260   8.853
 7581POPC   GL234454  18.287  32.080   8.853
 7581POPC   C1A34455  18.239  32.218   8.553
 7581POPC   D2A34456  18.307  32.240   8.253
 7581POPC   C3A34457  18.248  32.263   7.953
 7581POPC   C4A34458  18.257  32.225   7.653
 7581POPC   C1B34459  18.206  31.998   8.553
 7581POPC   C2B34460  18.168  32.032   8.253
 7581POPC   C3B34461  18.239  32.008   7.953
 7581POPC   C4B34462  18.251  32.051   7.653
 7582POPC   NC334463  18.303  41.558   9.453
 7582POPC   PO434464  18.239  41.606   9.153
 7582POPC   GL134465  18.298  41.586   8.853
 7582POPC   GL234466  18.350  41.529   8.853
 7582POPC   C1A34467  18.280  41.542   8.553
 7582POPC   D2A34468  18.255  41.602   8.253
 7582POPC   C3A34469  18.315  41.518   7.953
 7582POPC   C4A34470  18.254  41.536   7.653
 7582POPC   C1B34471  18.504  41.465   8.553
 7582POPC   C2B34472  18.465  41.470   8.253
 7582POPC   C3B34473  18.503  41.426   7.953
 7582POPC   C4B34474  18.519  41.389   7.653
 7583POPC   NC334475   0.408   8.167   9.453
 7583POPC   PO434476   0.462   8.169   9.153
 7583POPC   GL134477   0.428   8.211   8.853
 7583POPC   GL234478   0.351   8.112   8.853
 7583POPC   C1A34479   0.461   8.238   8.553
 7583POPC   D2A34480   0.393   8.191   8.253
 7583POPC   C3A34481   0.417   8.228   7.953
 7583POPC   C4A34482   0.397   8.226   7.653
 7583POPC   C1B34483   0.164   8.114   8.553
 7583POPC   C2B34484   0.200   8.116   8.253
 7583POPC   C3B34485   0.161   8.063   7.953
 7583POPC   C4B34486   0.198   8.151   7.653
 7584POPC   NC334487  18.331  43.063   9.453
 7584POPC   PO434488  18.262  43.086   9.153
 7584POPC   GL134489  18.241  43.115   8.853
 7584POPC   GL234490  18.374  43.191   8.853
 7584POPC   C1A34491  18.329  43.098   8.553
 7584POPC   D2A34492  18.322  43.119   8.253
 7584POPC   C3A34493  18.301  43.138   7.953
 7584POPC   C4A34494  18.331  43.145   7.653
 7584POPC   C1B34495  18.532  43.246   8.553
 7584POPC   C2B34496  18.458  43.273   8.253
 7584POPC   C3B34497  18.494  43.211   7.953
 7584POPC   C4B34498  18.537  43.247   7.653
 7585POPC   NC334499  15.975  31.483   9.453
 7585POPC   PO434500  15.971  31.508   9.153
 7585POPC   GL134501  15.989  31.430   8.853
 7585POPC   GL234502  16.043  31.456   8.853
 7585POPC   C1A34503  15.947  31.430   8.553
 7585POPC   D2A34504  15.954  31.463   8.253
 7585POPC   C3A34505  15.916  31.438   7.953
 7585POPC   C4A34506  15.987  31.448   7.653
 7585POPC   C1B34507  16.171  31.405   8.553
 7585POPC   C2B34508  16.237  31.431   8.253
 7585POPC   C3B34509  16.174  31.456   7.953
 7585POPC   C4B34510  16.224  31.388   7.653
 7586POPC   NC334511  28.358  22.131   9.453
 7586POPC   PO434512  28.377  22.151   9.153
 7586POPC   GL134513  28.408  22.185   8.853
 7586POPC   GL234514  28.318  22.248   8.853
 7586POPC   C1A34515  28.400  22.201   8.553
 7586POPC   D2A34516  28.411  22.188   8.253
 7586POPC   C3A34517  28.361  22.197   7.953
 7586POPC   C4A34518  28.377  22.144   7.653
 7586POPC   C1B34519  28.148  22.354   8.553
 7586POPC   C2B34520  28.159  22.306   8.253
 7586POPC   C3B34521  28.187  22.325   7.953
 7586POPC   C4B34522  28.207  22.368   7.653
 7587POPC   NC334523   3.566  36.883   9.453
 7587POPC   PO434524   3.556  36.951   9.153
 7587POPC   GL134525   3.559  36.939   8.853
 7587POPC   GL234526   3.636  36.835   8.853
 7587POPC   C1A34527   3.501  36.933   8.553
 7587POPC   D2A34528   3.551  36.906   8.253
 7587POPC   C3A34529   3.563  36.902   7.953
 7587POPC   C4A34530   3.538  36.878   7.653
 7587POPC   C1B34531   3.697  36.694   8.553
 7587POPC   C2B34532   3.685  36.709   8.253
 7587POPC   C3B34533   3.699  36.752   7.953
 7587POPC   C4B34534   3.707  36.773   7.653
 7588POPC   NC334535  26.068  28.371   9.453
 7588POPC   PO434536  25.995  28.325   9.153
 7588POPC   GL134537  26.059  28.334   8.853
 7588POPC   GL234538  25.985  28.434   8.853
 7588POPC   C1A34539  26.062  28.415   8.553
 7588POPC   D2A34540  26.025  28.331   8.253
 7588POPC   C3A34541  25.993  28.374   7.953
 7588POPC   C4A34542  26.040  28.391   7.653
 7588POPC   C1B34543  25.816  28.520   8.553
 7588POPC   C2B34544  25.821  28.506   8.253
 7588POPC   C3B34545  25.839  28.517   7.953
 7588POPC   C4B34546  25.832  28.482   7.653
 7589POPC   NC334547  12.863  43.086   9.453
 7589POPC   PO434548  12.883  43.133   9.153
 7589POPC   GL134549  12.878  43.123   8.853
 7589POPC   GL234550  12.854  43.026   8.853
 7589POPC   C1A34551  12.868  43.117   8.553
 7589POPC   D2A34552  12.866  43.159   8.253
 7589POPC   C3A34553  12.897  43.155   7.953
 7589POPC   C4A34554  12.810  43.092   7.653
 7589POPC   C1B34555  12.911  42.836   8.553
 7589POPC   C2B34556  12.916  42.841   8.253
 7589POPC   C3B34557  12.924  42.885   7.953
 7589POPC   C4B34558  12.922  42.873   7.653
 7590POPC   NC334559  26.044  22.139   9.453
 7590POPC   PO434560  25.991  22.138   9.153
 7590POPC   GL134561  26.030  22.170   8.853
 7590POPC   GL234562  26.206  22.165   8.853
 7590POPC   C1A34563  26.022  22.179   8.553
 7590POPC   D2A34564  26.086  22.161   8.253
 7590POPC   C3A34565  26.041  22.143   7.953
 7590POPC   C4A34566  26.086  22.177   7.653
 7590POPC   C1B34567  26.259  22.151   8.553
 7590POPC   C2B34568  26.297  22.196   8.253
 7590POPC   C3B34569  26.245  22.133   7.953
 7590POPC   C4B34570  26.300  22.186   7.653
 7591POPC   NC334571   3.500   0.465   9.453
 7591POPC   PO434572   3.545   0.419   9.153
 7591POPC   GL134573   3.506   0.461   8.853
 7591POPC   GL234574   3.676   0.387   8.853
 7591POPC   C1A34575   3.499   0.450   8.553
 7591POPC   D2A34576   3.535   0.448   8.253
 7591POPC   C3A34577   3.524   0.436   7.953
 7591POPC   C4A34578   3.532   0.452   7.653
 7591POPC   C1B34579   3.805   0.387   8.553
 7591POPC   C2B34580   3.741   0.335   8.253
 7591POPC   C3B34581   3.776   0.359   7.953
 7591POPC   C4B34582   3.785   0.311   7.653
 7592POPC   NC334583  27.604  22.170   9.453
 7592POPC   PO434584  27.582  22.161   9.153
 7592POPC   GL134585  27.631  22.192   8.853
 7592POPC   GL234586  27.572  22.276   8.853
 7592POPC   C1A34587  27.629  22.155   8.553
 7592POPC   D2A34588  27.635  22.181   8.253
 7592POPC   C3A34589  27.554  22.161   7.953
 7592POPC   C4A34590  27.629  22.139   7.653
 7592POPC   C1B34591  27.541  22.373   8.553
 7592POPC   C2B34592  27.540  22.394   8.253
 7592POPC   C3B34593  27.492  22.443   7.953
 7592POPC   C4B34594  27.478  22.379   7.653
 7593POPC   NC334595   0.438  37.631   9.453
 7593POPC   PO434596   0.470  37.676   9.153
 7593POPC   GL134597   0.434  37.635   8.853
 7593POPC   GL234598   0.480  37.568   8.853
 7593POPC   C1A34599   0.401  37.641   8.553
 7593POPC   D2A34600   0.406  37.673   8.253
 7593POPC   C3A34601   0.410  37.707   7.953
 7593POPC   C4A34602   0.447  37.648   7.653
 7593POPC   C1B34603   0.416  37.408   8.553
 7593POPC   C2B34604   0.414  37.410   8.253
 7593POPC   C3B34605   0.455  37.424   7.953
 7593POPC   C4B34606   0.405  37.465   7.653
 7594POPC   NC334607   5.883  13.601   9.453
 7594POPC   PO434608   5.870  13.635   9.153
 7594POPC   GL134609   5.887  13.646   8.853
 7594POPC   GL234610   5.897  13.539   8.853
 7594POPC   C1A34611   5.908  13.673   8.553
 7594POPC   D2A34612   5.904  13.606   8.253
 7594POPC   C3A34613   5.851  13.615   7.953
 7594POPC   C4A34614   5.916  13.628   7.653
 7594POPC   C1B34615   5.813  13.423   8.553
 7594POPC   C2B34616   5.828  13.353   8.253
 7594POPC   C3B34617   5.801  13.380   7.953
 7594POPC   C4B34618   5.846  13.352   7.653
 7595POPC   NC334619   2.002  13.586   9.453
 7595POPC   PO434620   2.022  13.599   9.153
 7595POPC   GL134621   2.004  13.635   8.853
 7595POPC   GL234622   1.876  13.709   8.853
 7595POPC   C1A34623   1.988  13.635   8.553
 7595POPC   D2A34624   1.960  13.597   8.253
 7595POPC   C3A34625   1.977  13.629   7.953
 7595POPC   C4A34626   2.036  13.632   7.653
 7595POPC   C1B34627   1.764  13.794   8.553
 7595POPC   C2B34628   1.818  13.737   8.253
 7595POPC   C3B34629   1.817  13.792   7.953
 7595POPC   C4B34630   1.784  13.795   7.653
 7596POPC   NC334631  27.627   7.466   9.453
 7596POPC   PO434632  27.621   7.464   9.153
 7596POPC   GL134633  27.608   7.439   8.853
 7596POPC   GL234634  27.420   7.399   8.853
 7596POPC   C1A34635  27.627   7.469   8.553
 7596POPC   D2A34636  27.602   7.381   8.253
 7596POPC   C3A34637  27.633   7.399   7.953
 7596POPC   C4A34638  27.558   7.429   7.653
 7596POPC   C1B34639  27.354   7.380   8.553
 7596POPC   C2B34640  27.303   7.395   8.253
 7596POPC   C3B34641  27.375   7.449   7.953
 7596POPC   C4B34642  27.368   7.360   7.653
 7597POPC   NC334643  40.000   1.241   9.453
 7597POPC   PO434644  39.962   1.211   9.153
 7597POPC   GL134645  40.030   1.211   8.853
 7597POPC   GL234646  40.114   1.282   8.853
 7597POPC   C1A34647  39.974   1.180   8.553
 7597POPC   D2A34648  40.047   1.191   8.253
 7597POPC   C3A34649  40.056   1.252   7.953
 7597POPC   C4A34650  40.039   1.164   7.653
 7597POPC   C1B34651  40.202   1.418   8.553
 7597POPC   C2B34652  40.183   1.356   8.253
 7597POPC   C3B34653  40.194   1.407   7.953
 7597POPC   C4B34654  40.146   1.420   7.653
 7598POPC   NC334655  31.506  34.576   9.453
 7598POPC   PO434656  31.445  34.564   9.153
 7598POPC   GL134657  31.512  34.606   8.853
 7598POPC   GL234658  31.349  34.513   8.853
 7598POPC   C1A34659  31.423  34.595   8.553
 7598POPC   D2A34660  31.499  34.622   8.253
 7598POPC   C3A34661  31.435  34.580   7.953
 7598POPC   C4A34662  31.437  34.527   7.653
 7598POPC   C1B34663  31.274  34.469   8.553
 7598POPC   C2B34664  31.252  34.523   8.253
 7598POPC   C3B34665  31.249  34.491   7.953
 7598POPC   C4B34666  31.243  34.502   7.653
 7599POPC   NC334667  32.286  44.641   9.453
 7599POPC   PO434668  32.285  44.685   9.153
 7599POPC   GL134669  32.251  44.616   8.853
 7599POPC   GL234670  32.337  44.795   8.853
 7599POPC   C1A34671  32.200  44.622   8.553
 7599POPC   D2A34672  32.199  44.707   8.253
 7599POPC   C3A34673  32.261  44.691   7.953
 7599POPC   C4A34674  32.226  44.618   7.653
 7599POPC   C1B34675  32.363  44.830   8.553
 7599POPC   C2B34676  32.429  44.860   8.253
 7599POPC   C3B34677  32.409  44.910   7.953
 7599POPC   C4B34678  32.423  44.906   7.653
 7600POPC   NC334679  36.903  32.216   9.453
 7600POPC   PO434680  36.876  32.269   9.153
 7600POPC   GL134681  36.894  32.239   8.853
 7600POPC   GL234682  37.013  32.348   8.853
 7600POPC   C1A34683  36.916  32.206   8.553
 7600POPC   D2A34684  36.939  32.227   8.253
 7600POPC   C3A34685  36.874  32.207   7.953
 7600POPC   C4A34686  36.951  32.226   7.653
 7600POPC   C1B34687  37.100  32.361   8.553
 7600POPC   C2B34688  37.150  32.360   8.253
 7600POPC   C3B34689  37.102  32.411   7.953
 7600POPC   C4B34690  37.148  32.358   7.653
 7601POPC   NC334691  35.330  33.053   9.453
 7601POPC   PO434692  35.348  32.995   9.153
 7601POPC   GL134693  35.356  33.045   8.853
 7601POPC   GL234694  35.450  33.099   8.853
 7601POPC   C1A34695  35.331  32.997   8.553
 7601POPC   D2A34696  35.339  33.050   8.253
 7601POPC   C3A34697  35.401  33.021   7.953
 7601POPC   C4A34698  35.326  33.068   7.653
 7601POPC   C1B34699  35.497  33.169   8.553
 7601POPC   C2B34700  35.558  33.139   8.253
 7601POPC   C3B34701  35.541  33.219   7.953
 7601POPC   C4B34702  35.584  33.184   7.653
 7602POPC   NC334703   9.741  36.173   9.453
 7602POPC   PO434704   9.705  36.103   9.153
 7602POPC   GL134705   9.725  36.140   8.853
 7602POPC   GL234706   9.624  36.268   8.853
 7602POPC   C1A34707   9.727  36.121   8.553
 7602POPC   D2A34708   9.788  36.140   8.253
 7602POPC   C3A34709   9.772  36.145   7.953
 7602POPC   C4A34710   9.742  36.112   7.653
 7602POPC   C1B34711   9.548  36.277   8.553
 7602POPC   C2B34712   9.570  36.328   8.253
 7602POPC   C3B34713   9.545  36.346   7.953
 7602POPC   C4B34714   9.637  36.316   7.653
 7603POPC   NC334715  42.300  25.251   9.453
 7603POPC   PO434716  42.294  25.248   9.153
 7603POPC   GL134717  42.305  25.297   8.853
 7603POPC   GL234718  42.376  25.417   8.853
 7603POPC   C1A34719  42.372  25.228   8.553
 7603POPC   D2A34720  42.346  25.303   8.253
 7603POPC   C3A34721  42.319  25.228   7.953
 7603POPC   C4A34722  42.334  25.225   7.653
 7603POPC   C1B34723  42.362  25.472   8.553
 7603POPC   C2B34724  42.349  25.469   8.253
 7603POPC   C3B34725  42.305  25.490   7.953
 7603POPC   C4B34726  42.323  25.544   7.653
 7604POPC   NC334727  29.117   7.372   9.453
 7604POPC   PO434728  29.121   7.431   9.153
 7604POPC   GL134729  29.188   7.449   8.853
 7604POPC   GL234730  29.219   7.377   8.853
 7604POPC   C1A34731  29.121   7.452   8.553
 7604POPC   D2A34732  29.101   7.425   8.253
 7604POPC   C3A34733  29.163   7.449   7.953
 7604POPC   C4A34734  29.184   7.376   7.653
 7604POPC   C1B34735  29.355   7.269   8.553
 7604POPC   C2B34736  29.387   7.310   8.253
 7604POPC   C3B34737  29.369   7.316   7.953
 7604POPC   C4B34738  29.304   7.309   7.653
 7605POPC   NC334739   1.998  39.976   9.453
 7605POPC   PO434740   1.970  39.995   9.153
 7605POPC   GL134741   2.000  40.005   8.853
 7605POPC   GL234742   2.013  40.132   8.853
 7605POPC   C1A34743   1.957  40.019   8.553
 7605POPC   D2A34744   2.019  39.977   8.253
 7605POPC   C3A34745   1.982  40.007   7.953
 7605POPC   C4A34746   2.036  40.052   7.653
 7605POPC   C1B34747   2.116  40.241   8.553
 7605POPC   C2B34748   2.047  40.227   8.253
 7605POPC   C3B34749   2.057  40.284   7.953
 7605POPC   C4B34750   2.078  40.224   7.653
 7606POPC   NC334751  10.522  13.616   9.453
 7606POPC   PO434752  10.504  13.602   9.153
 7606POPC   GL134753  10.517  13.623   8.853
 7606POPC   GL234754  10.489  13.712   8.853
 7606POPC   C1A34755  10.573  13.653   8.553
 7606POPC   D2A34756  10.511  13.620   8.253
 7606POPC   C3A34757  10.525  13.644   7.953
 7606POPC   C4A34758  10.560  13.603   7.653
 7606POPC   C1B34759  10.440  13.888   8.553
 7606POPC   C2B34760  10.436  13.899   8.253
 7606POPC   C3B34761  10.451  13.909   7.953
 7606POPC   C4B34762  10.481  13.898   7.653
 7607POPC   NC334763  43.125  38.458   9.453
 7607POPC   PO434764  43.149  38.414   9.153
 7607POPC   GL134765  43.143  38.458   8.853
 7607POPC   GL234766  43.219  38.403   8.853
 7607POPC   C1A34767  43.123  38.427   8.553
 7607POPC   D2A34768  43.113  38.436   8.253
 7607POPC   C3A34769  43.110  38.500   7.953
 7607POPC   C4A34770  43.088  38.495   7.653
 7607POPC   C1B34771  43.297  38.368   8.553
 7607POPC   C2B34772  43.328  38.336   8.253
 7607POPC   C3B34773  43.338  38.334   7.953
 7607POPC   C4B34774  43.380  38.331   7.653
 7608POPC   NC334775  29.908  16.707   9.453
 7608POPC   PO434776  29.908  16.728   9.153
 7608POPC   GL134777  29.897  16.722   8.853
 7608POPC   GL234778  30.062  16.752   8.853
 7608POPC   C1A34779  29.899  16.705   8.553
 7608POPC   D2A34780  29.951  16.769   8.253
 7608POPC   C3A34781  29.900  16.766   7.953
 7608POPC   C4A34782  29.940  16.700   7.653
 7608POPC   C1B34783  30.201  16.731   8.553
 7608POPC   C2B34784  30.204  16.681   8.253
 7608POPC   C3B34785  30.159  16.679   7.953
 7608POPC   C4B34786  30.177  16.707   7.653
 7609POPC   NC334787  33.848  43.842   9.453
 7609POPC   PO434788  33.762  43.879   9.153
 7609POPC   GL134789  33.806  43.841   8.853
 7609POPC   GL234790  33.851  43.986   8.853
 7609POPC   C1A34791  33.809  43.868   8.553
 7609POPC   D2A34792  33.840  43.923   8.253
 7609POPC   C3A34793  33.770  43.854   7.953
 7609POPC   C4A34794  33.825  43.917   7.653
 7609POPC   C1B34795  34.005  44.073   8.553
 7609POPC   C2B34796  34.036  44.062   8.253
 7609POPC   C3B34797  33.956  44.051   7.953
 7609POPC   C4B34798  33.951  44.028   7.653
 7610POPC   NC334799   7.403  28.411   9.453
 7610POPC   PO434800   7.458  28.379   9.153
 7610POPC   GL134801   7.469  28.355   8.853
 7610POPC   GL234802   7.366  28.424   8.853
 7610POPC   C1A34803   7.405  28.342   8.553
 7610POPC   D2A34804   7.426  28.325   8.253
 7610POPC   C3A34805   7.453  28.387   7.953
 7610POPC   C4A34806   7.374  28.415   7.653
 7610POPC   C1B34807   7.284  28.532   8.553
 7610POPC   C2B34808   7.219  28.555   8.253
 7610POPC   C3B34809   7.234  28.537   7.953
 7610POPC   C4B34810   7.225  28.579   7.653
 7611POPC   NC334811   9.735  31.481   9.453
 7611POPC   PO434812   9.700  31.457   9.153
 7611POPC   GL134813   9.790  31.476   8.853
 7611POPC   GL234814   9.730  31.613   8.853
 7611POPC   C1A34815   9.729  31.516   8.553
 7611POPC   D2A34816   9.756  31.424   8.253
 7611POPC   C3A34817   9.747  31.479   7.953
 7611POPC   C4A34818   9.715  31.426   7.653
 7611POPC   C1B34819   9.795  31.699   8.553
 7611POPC   C2B34820   9.775  31.726   8.253
 7611POPC   C3B34821   9.772  31.701   7.953
 7611POPC   C4B34822   9.777  31.702   7.653
 7612POPC   NC334823  37.707   6.666   9.453
 7612POPC   PO434824  37.705   6.661   9.153
 7612POPC   GL134825  37.711   6.631   8.853
 7612POPC   GL234826  37.650   6.790   8.853
 7612POPC   C1A34827  37.666   6.604   8.553
 7612POPC   D2A34828  37.656   6.622   8.253
 7612POPC   C3A34829  37.634   6.611   7.953
 7612POPC   C4A34830  37.641   6.648   7.653
 7612POPC   C1B34831  37.597   6.899   8.553
 7612POPC   C2B34832  37.598   6.936   8.253
 7612POPC   C3B34833  37.604   6.861   7.953
 7612POPC   C4B34834  37.605   6.870   7.653
 7613POPC   NC334835   8.937  38.471   9.453
 7613POPC   PO434836   8.970  38.478   9.153
 7613POPC   GL134837   8.996  38.441   8.853
 7613POPC   GL234838   8.950  38.603   8.853
 7613POPC   C1A34839   8.997  38.505   8.553
 7613POPC   D2A34840   8.945  38.440   8.253
 7613POPC   C3A34841   8.993  38.464   7.953
 7613POPC   C4A34842   8.938  38.461   7.653
 7613POPC   C1B34843   8.855  38.693   8.553
 7613POPC   C2B34844   8.889  38.649   8.253
 7613POPC   C3B34845   8.886  38.685   7.953
 7613POPC   C4B34846   8.861  38.733   7.653
 7614POPC   NC334847  12.052  32.238   9.453
 7614POPC   PO434848  12.050  32.223   9.153
 7614POPC   GL134849  12.028  32.294   8.853
 7614POPC   GL234850  12.022  32.403   8.853
 7614POPC   C1A34851  12.037  32.271   8.553
 7614POPC   D2A34852  12.062  32.285   8.253
 7614POPC   C3A34853  12.062  32.280   7.953
 7614POPC   C4A34854  12.067  32.253   7.653
 7614POPC   C1B34855  11.982  32.480   8.553
 7614POPC   C2B34856  11.917  32.507   8.253
 7614POPC   C3B34857  11.965  32.434   7.953
 7614POPC   C4B34858  11.993  32.508   7.653
 7615POPC   NC334859  38.438  19.057   9.453
 7615POPC   PO434860  38.413  19.021   9.153
 7615POPC   GL134861  38.416  19.077   8.853
 7615POPC   GL234862  38.598  19.046   8.853
 7615POPC   C1A34863  38.434  19.042   8.553
 7615POPC   D2A34864  38.422  19.097   8.253
 7615POPC   C3A34865  38.485  19.078   7.953
 7615POPC   C4A34866  38.433  19.034   7.653
 7615POPC   C1B34867  38.748  19.026   8.553
 7615POPC   C2B34868  38.667  19.010   8.253
 7615POPC   C3B34869  38.669  18.987   7.953
 7615POPC   C4B34870  38.661  18.996   7.653
 7616POPC   NC334871  23.681  30.658   9.453
 7616POPC   PO434872  23.725  30.716   9.153
 7616POPC   GL134873  23.747  30.691   8.853
 7616POPC   GL234874  23.622  30.630   8.853
 7616POPC   C1A34875  23.676  30.731   8.553
 7616POPC   D2A34876  23.665  30.656   8.253
 7616POPC   C3A34877  23.759  30.728   7.953
 7616POPC   C4A34878  23.749  30.676   7.653
 7616POPC   C1B34879  23.460  30.630   8.553
 7616POPC   C2B34880  23.473  30.604   8.253
 7616POPC   C3B34881  23.463  30.620   7.953
 7616POPC   C4B34882  23.494  30.583   7.653
 7617POPC   NC334883   8.982   1.176   9.453
 7617POPC   PO434884   8.984   1.215   9.153
 7617POPC   GL134885   8.968   1.171   8.853
 7617POPC   GL234886   8.956   1.129   8.853
 7617POPC   C1A34887   9.014   1.189   8.553
 7617POPC   D2A34888   8.930   1.194   8.253
 7617POPC   C3A34889   8.970   1.223   7.953
 7617POPC   C4A34890   8.944   1.230   7.653
 7617POPC   C1B34891   9.016   0.930   8.553
 7617POPC   C2B34892   8.958   0.939   8.253
 7617POPC   C3B34893   9.000   0.917   7.953
 7617POPC   C4B34894   9.013   0.977   7.653
 7618POPC   NC334895  24.508   2.732   9.453
 7618POPC   PO434896  24.475   2.770   9.153
 7618POPC   GL134897  24.529   2.763   8.853
 7618POPC   GL234898  24.350   2.802   8.853
 7618POPC   C1A34899  24.444   2.739   8.553
 7618POPC   D2A34900  24.538   2.741   8.253
 7618POPC   C3A34901  24.506   2.735   7.953
 7618POPC   C4A34902  24.522   2.748   7.653
 7618POPC   C1B34903  24.264   2.910   8.553
 7618POPC   C2B34904  24.305   2.901   8.253
 7618POPC   C3B34905  24.311   2.928   7.953
 7618POPC   C4B34906  24.302   2.877   7.653
 7619POPC   NC334907  30.733  26.845   9.453
 7619POPC   PO434908  30.709  26.812   9.153
 7619POPC   GL134909  30.702  26.781   8.853
 7619POPC   GL234910  30.844  26.830   8.853
 7619POPC   C1A34911  30.746  26.813   8.553
 7619POPC   D2A34912  30.699  26.785   8.253
 7619POPC   C3A34913  30.695  26.771   7.953
 7619POPC   C4A34914  30.650  26.841   7.653
 7619POPC   C1B34915  30.965  26.777   8.553
 7619POPC   C2B34916  30.971  26.829   8.253
 7619POPC   C3B34917  30.927  26.822   7.953
 7619POPC   C4B34918  30.978  26.837   7.653
 7620POPC   NC334919  10.509  40.011   9.453
 7620POPC   PO434920  10.511  40.048   9.153
 7620POPC   GL134921  10.556  39.979   8.853
 7620POPC   GL234922  10.663  39.964   8.853
 7620POPC   C1A34923  10.497  40.046   8.553
 7620POPC   D2A34924  10.552  40.049   8.253
 7620POPC   C3A34925  10.563  40.049   7.953
 7620POPC   C4A34926  10.487  40.042   7.653
 7620POPC   C1B34927  10.798  39.976   8.553
 7620POPC   C2B34928  10.803  39.992   8.253
 7620POPC   C3B34929  10.786  39.990   7.953
 7620POPC   C4B34930  10.796  39.990   7.653
 7621POPC   NC334931  36.088  12.058   9.453
 7621POPC   PO434932  36.084  12.027   9.153
 7621POPC   GL134933  36.093  12.097   8.853
 7621POPC   GL234934  35.984  11.956   8.853
 7621POPC   C1A34935  36.172  12.079   8.553
 7621POPC   D2A34936  36.084  12.112   8.253
 7621POPC   C3A34937  36.117  12.102   7.953
 7621POPC   C4A34938  36.112  12.047   7.653
 7621POPC   C1B34939  35.908  11.963   8.553
 7621POPC   C2B34940  35.971  11.882   8.253
 7621POPC   C3B34941  35.957  11.890   7.953
 7621POPC   C4B34942  35.954  11.974   7.653
 7622POPC   NC334943  25.303  19.035   9.453
 7622POPC   PO434944  25.264  19.060   9.153
 7622POPC   GL134945  25.286  19.086   8.853
 7622POPC   GL234946  25.139  19.030   8.853
 7622POPC   C1A34947  25.314  19.052   8.553
 7622POPC   D2A34948  25.281  19.098   8.253
 7622POPC   C3A34949  25.297  19.057   7.953
 7622POPC   C4A34950  25.274  19.070   7.653
 7622POPC   C1B34951  25.050  18.999   8.553
 7622POPC   C2B34952  25.053  19.022   8.253
 7622POPC   C3B34953  25.036  18.980   7.953
 7622POPC   C4B34954  24.983  19.040   7.653
 7623POPC   NC334955  19.010   4.312   9.453
 7623POPC   PO434956  19.105   4.277   9.153
 7623POPC   GL134957  19.098   4.343   8.853
 7623POPC   GL234958  18.951   4.336   8.853
 7623POPC   C1A34959  19.097   4.320   8.553
 7623POPC   D2A34960  19.106   4.333   8.253
 7623POPC   C3A34961  19.098   4.333   7.953
 7623POPC   C4A34962  19.068   4.332   7.653
 7623POPC   C1B34963  18.764   4.337   8.553
 7623POPC   C2B34964  18.780   4.296   8.253
 7623POPC   C3B34965  18.814   4.267   7.953
 7623POPC   C4B34966  18.797   4.313   7.653
 7624POPC   NC334967  13.623  29.113   9.453
 7624POPC   PO434968  13.594  29.165   9.153
 7624POPC   GL134969  13.672  29.126   8.853
 7624POPC   GL234970  13.704  29.071   8.853
 7624POPC   C1A34971  13.633  29.191   8.553
 7624POPC   D2A34972  13.615  29.122   8.253
 7624POPC   C3A34973  13.649  29.139   7.953
 7624POPC   C4A34974  13.599  29.188   7.653
 7624POPC   C1B34975  13.784  28.957   8.553
 7624POPC   C2B34976  13.811  28.946   8.253
 7624POPC   C3B34977  13.796  29.017   7.953
 7624POPC   C4B34978  13.837  28.980   7.653
 7625POPC   NC334979  22.206  29.117   9.453
 7625POPC   PO434980  22.166  29.131   9.153
 7625POPC   GL134981  22.167  29.123   8.853
 7625POPC   GL234982  22.058  29.008   8.853
 7625POPC   C1A34983  22.168  29.142   8.553
 7625POPC   D2A34984  22.135  29.126   8.253
 7625POPC   C3A34985  22.206  29.181   7.953
 7625POPC   C4A34986  22.205  29.174   7.653
 7625POPC   C1B34987  21.987  28.947   8.553
 7625POPC   C2B34988  22.003  28.971   8.253
 7625POPC   C3B34989  22.039  28.946   7.953
 7625POPC   C4B34990  22.038  28.964   7.653
 7626POPC   NC334991  35.370  17.527   9.453
 7626POPC   PO434992  35.323  17.531   9.153
 7626POPC   GL134993  35.344  17.465   8.853
 7626POPC   GL234994  35.379  17.597   8.853
 7626POPC   C1A34995  35.389  17.539   8.553
 7626POPC   D2A34996  35.384  17.493   8.253
 7626POPC   C3A34997  35.380  17.525   7.953
 7626POPC   C4A34998  35.342  17.487   7.653
 7626POPC   C1B34999  35.289  17.746   8.553
 7626POPC   C2B35000  35.323  17.775   8.253
 7626POPC   C3B35001  35.346  17.788   7.953
 7626POPC   C4B35002  35.345  17.715   7.653
 7627POPC   NC335003  25.279   9.010   9.453
 7627POPC   PO435004  25.293   9.010   9.153
 7627POPC   GL135005  25.252   8.954   8.853
 7627POPC   GL235006  25.127   8.965   8.853
 7627POPC   C1A35007  25.277   9.013   8.553
 7627POPC   D2A35008  25.223   9.006   8.253
 7627POPC   C3A35009  25.274   8.932   7.953
 7627POPC   C4A35010  25.256   8.938   7.653
 7627POPC   C1B35011  25.012   8.988   8.553
 7627POPC   C2B35012  25.034   8.916   8.253
 7627POPC   C3B35013  24.987   8.969   7.953
 7627POPC   C4B35014  24.989   9.006   7.653
 7628POPC   NC335015  43.916  25.240   9.453
 7628POPC   PO435016  43.866  25.220   9.153
 7628POPC   GL135017  43.838  25.304   8.853
 7628POPC   GL235018  43.895  25.154   8.853
 7628POPC   C1A35019  43.894  25.265   8.553
 7628POPC   D2A35020  43.919  25.230   8.253
 7628POPC   C3A35021  43.874  25.280   7.953
 7628POPC   C4A35022  43.884  25.241   7.653
 7628POPC   C1B35023  43.900  25.000   8.553
 7628POPC   C2B35024  43.806  24.976   8.253
 7628POPC   C3B35025  43.819  24.998   7.953
 7628POPC   C4B35026  43.872  25.045   7.653
 7629POPC   NC335027  11.256  33.022   9.453
 7629POPC   PO435028  11.347  33.043   9.153
 7629POPC   GL135029  11.274  32.997   8.853
 7629POPC   GL235030  11.209  33.058   8.853
 7629POPC   C1A35031  11.315  33.008   8.553
 7629POPC   D2A35032  11.347  33.017   8.253
 7629POPC   C3A35033  11.337  33.067   7.953
 7629POPC   C4A35034  11.310  33.011   7.653
 7629POPC   C1B35035  11.108  33.188   8.553
 7629POPC   C2B35036  11.067  33.219   8.253
 7629POPC   C3B35037  11.153  33.206   7.953
 7629POPC   C4B35038  11.116  33.138   7.653
 7630POPC   NC335039  29.146  43.151   9.453
 7630POPC   PO435040  29.114  43.135   9.153
 7630POPC   GL135041  29.113  43.153   8.853
 7630POPC   GL235042  28.996  43.095   8.853
 7630POPC   C1A35043  29.136  43.135   8.553
 7630POPC   D2A35044  29.158  43.143   8.253
 7630POPC   C3A35045  29.150  43.083   7.953
 7630POPC   C4A35046  29.127  43.144   7.653
 7630POPC   C1B35047  28.945  43.092   8.553
 7630POPC   C2B35048  28.922  43.063   8.253
 7630POPC   C3B35049  28.871  43.072   7.953
 7630POPC   C4B35050  28.916  43.086   7.653
 7631POPC   NC335051   6.679  15.926   9.453
 7631POPC   PO435052   6.604  15.914   9.153
 7631POPC   GL135053   6.652  15.928   8.853
 7631POPC   GL235054   6.733  15.875   8.853
 7631POPC   C1A35055   6.625  15.971   8.553
 7631POPC   D2A35056   6.686  15.979   8.253
 7631POPC   C3A35057   6.654  15.955   7.953
 7631POPC   C4A35058   6.612  15.974   7.653
 7631POPC   C1B35059   6.889  15.885   8.553
 7631POPC   C2B35060   6.872  15.905   8.253
 7631POPC   C3B35061   6.898  15.853   7.953
 7631POPC   C4B35062   6.850  15.932   7.653
 7632POPC   NC335063  17.507  40.831   9.453
 7632POPC   PO435064  17.460  40.735   9.153
 7632POPC   GL135065  17.467  40.733   8.853
 7632POPC   GL235066  17.587  40.731   8.853
 7632POPC   C1A35067  17.482  40.825   8.553
 7632POPC   D2A35068  17.468  40.795   8.253
 7632POPC   C3A35069  17.517  40.746   7.953
 7632POPC   C4A35070  17.472  40.784   7.653
 7632POPC   C1B35071  17.721  40.606   8.553
 7632POPC   C2B35072  17.677  40.660   8.253
 7632POPC   C3B35073  17.731  40.639   7.953
 7632POPC   C4B35074  17.673  40.663   7.653
 7633POPC   NC335075  33.816  29.881   9.453
 7633POPC   PO435076  33.833  29.878   9.153
 7633POPC   GL135077  33.752  29.879   8.853
 7633POPC   GL235078  33.813  29.791   8.853
 7633POPC   C1A35079  33.783  29.948   8.553
 7633POPC   D2A35080  33.834  29.922   8.253
 7633POPC   C3A35081  33.764  29.878   7.953
 7633POPC   C4A35082  33.835  29.936   7.653
 7633POPC   C1B35083  33.950  29.684   8.553
 7633POPC   C2B35084  33.857  29.657   8.253
 7633POPC   C3B35085  33.912  29.705   7.953
 7633POPC   C4B35086  33.866  29.661   7.653
 7634POPC   NC335087  29.935  28.325   9.453
 7634POPC   PO435088  29.886  28.347   9.153
 7634POPC   GL135089  29.890  28.413   8.853
 7634POPC   GL235090  29.880  28.438   8.853
 7634POPC   C1A35091  29.882  28.390   8.553
 7634POPC   D2A35092  29.940  28.413   8.253
 7634POPC   C3A35093  29.962  28.405   7.953
 7634POPC   C4A35094  29.879  28.341   7.653
 7634POPC   C1B35095  29.737  28.565   8.553
 7634POPC   C2B35096  29.775  28.569   8.253
 7634POPC   C3B35097  29.778  28.595   7.953
 7634POPC   C4B35098  29.716  28.540   7.653
 7635POPC   NC335099  39.975  29.955   9.453
 7635POPC   PO435100  40.030  29.929   9.153
 7635POPC   GL135101  40.031  29.912   8.853
 7635POPC   GL235102  40.165  29.948   8.853
 7635POPC   C1A35103  40.054  29.926   8.553
 7635POPC   D2A35104  39.987  29.873   8.253
 7635POPC   C3A35105  39.968  29.948   7.953
 7635POPC   C4A35106  40.005  29.885   7.653
 7635POPC   C1B35107  40.260  29.876   8.553
 7635POPC   C2B35108  40.266  29.936   8.253
 7635POPC   C3B35109  40.225  29.968   7.953
 7635POPC   C4B35110  40.249  29.917   7.653
 7636POPC   NC335111  29.884  39.241   9.453
 7636POPC   PO435112  29.901  39.226   9.153
 7636POPC   GL135113  29.892  39.186   8.853
 7636POPC   GL235114  29.949  39.379   8.853
 7636POPC   C1A35115  29.915  39.269   8.553
 7636POPC   D2A35116  29.893  39.205   8.253
 7636POPC   C3A35117  29.916  39.226   7.953
 7636POPC   C4A35118  29.924  39.205   7.653
 7636POPC   C1B35119  30.028  39.487   8.553
 7636POPC   C2B35120  30.043  39.421   8.253
 7636POPC   C3B35121  30.062  39.462   7.953
 7636POPC   C4B35122  30.012  39.487   7.653
 7637POPC   NC335123   3.542  15.212   9.453
 7637POPC   PO435124   3.555  15.150   9.153
 7637POPC   GL135125   3.515  15.228   8.853
 7637POPC   GL235126   3.579  15.335   8.853
 7637POPC   C1A35127   3.573  15.197   8.553
 7637POPC   D2A35128   3.518  15.146   8.253
 7637POPC   C3A35129   3.539  15.129   7.953
 7637POPC   C4A35130   3.493  15.130   7.653
 7637POPC   C1B35131   3.538  15.479   8.553
 7637POPC   C2B35132   3.553  15.387   8.253
 7637POPC   C3B35133   3.505  15.434   7.953
 7637POPC   C4B35134   3.512  15.447   7.653
 7638POPC   NC335135  37.666  25.281   9.453
 7638POPC   PO435136  37.680  25.222   9.153
 7638POPC   GL135137  37.679  25.294   8.853
 7638POPC   GL235138  37.589  25.342   8.853
 7638POPC   C1A35139  37.697  25.281   8.553
 7638POPC   D2A35140  37.638  25.293   8.253
 7638POPC   C3A35141  37.664  25.289   7.953
 7638POPC   C4A35142  37.723  25.272   7.653
 7638POPC   C1B35143  37.483  25.459   8.553
 7638POPC   C2B35144  37.560  25.449   8.253
 7638POPC   C3B35145  37.494  25.461   7.953
 7638POPC   C4B35146  37.560  25.474   7.653
 7639POPC   NC335147   5.918  40.765   9.453
 7639POPC   PO435148   5.905  40.765   9.153
 7639POPC   GL135149   5.872  40.775   8.853
 7639POPC   GL235150   6.017  40.834   8.853
 7639POPC   C1A35151   5.848  40.785   8.553
 7639POPC   D2A35152   5.859  40.750   8.253
 7639POPC   C3A35153   5.878  40.795   7.953
 7639POPC   C4A35154   5.911  40.773   7.653
 7639POPC   C1B35155   6.136  40.916   8.553
 7639POPC   C2B35156   6.107  40.864   8.253
 7639POPC   C3B35157   6.078  40.854   7.953
 7639POPC   C4B35158   6.094  40.918   7.653
 7640POPC   NC335159  22.978  19.799   9.453
 7640POPC   PO435160  22.935  19.884   9.153
 7640POPC   GL135161  22.964  19.812   8.853
 7640POPC   GL235162  23.056  19.910   8.853
 7640POPC   C1A35163  22.898  19.862   8.553
 7640POPC   D2A35164  22.928  19.823   8.253
 7640POPC   C3A35165  22.938  19.808   7.953
 7640POPC   C4A35166  22.974  19.882   7.653
 7640POPC   C1B35167  23.137  19.908   8.553
 7640POPC   C2B35168  23.118  19.970   8.253
 7640POPC   C3B35169  23.144  19.950   7.953
 7640POPC   C4B35170  23.194  19.961   7.653
 7641POPC   NC335171  43.922  36.919   9.453
 7641POPC   PO435172  43.889  36.928   9.153
 7641POPC   GL135173  43.880  36.948   8.853
 7641POPC   GL235174  43.982  36.852   8.853
 7641POPC   C1A35175  43.851  36.924   8.553
 7641POPC   D2A35176  43.897  36.937   8.253
 7641POPC   C3A35177  43.900  36.946   7.953
 7641POPC   C4A35178  43.929  36.873   7.653
 7641POPC   C1B35179  44.033  36.762   8.553
 7641POPC   C2B35180  44.069  36.683   8.253
 7641POPC   C3B35181  44.105  36.706   7.953
 7641POPC   C4B35182  44.073  36.692   7.653
 7642POPC   NC335183  20.651  12.086   9.453
 7642POPC   PO435184  20.649  12.077   9.153
 7642POPC   GL135185  20.603  12.124   8.853
 7642POPC   GL235186  20.465  12.148   8.853
 7642POPC   C1A35187  20.596  12.034   8.553
 7642POPC   D2A35188  20.584  12.060   8.253
 7642POPC   C3A35189  20.621  12.105   7.953
 7642POPC   C4A35190  20.629  12.079   7.653
 7642POPC   C1B35191  20.421  12.156   8.553
 7642POPC   C2B35192  20.338  12.197   8.253
 7642POPC   C3B35193  20.334  12.162   7.953
 7642POPC   C4B35194  20.392  12.169   7.653
 7643POPC   NC335195  39.189  24.469   9.453
 7643POPC   PO435196  39.258  24.513   9.153
 7643POPC   GL135197  39.214  24.500   8.853
 7643POPC   GL235198  39.285  24.378   8.853
 7643POPC   C1A35199  39.210  24.471   8.553
 7643POPC   D2A35200  39.246  24.467   8.253
 7643POPC   C3A35201  39.208  24.519   7.953
 7643POPC   C4A35202  39.238  24.539   7.653
 7643POPC   C1B35203  39.209  24.204   8.553
 7643POPC   C2B35204  39.264  24.225   8.253
 7643POPC   C3B35205  39.290  24.195   7.953
 7643POPC   C4B35206  39.304  24.191   7.653
 7644POPC   NC335207  37.678  36.855   9.453
 7644POPC   PO435208  37.654  36.916   9.153
 7644POPC   GL135209  37.683  36.951   8.853
 7644POPC   GL235210  37.610  37.018   8.853
 7644POPC   C1A35211  37.636  36.898   8.553
 7644POPC   D2A35212  37.673  36.950   8.253
 7644POPC   C3A35213  37.682  36.871   7.953
 7644POPC   C4A35214  37.678  36.886   7.653
 7644POPC   C1B35215  37.656  37.185   8.553
 7644POPC   C2B35216  37.594  37.184   8.253
 7644POPC   C3B35217  37.621  37.157   7.953
 7644POPC   C4B35218  37.601  37.131   7.653
 7645POPC   NC335219  38.412  43.921   9.453
 7645POPC   PO435220  38.413  43.910   9.153
 7645POPC   GL135221  38.440  43.878   8.853
 7645POPC   GL235222  38.601  43.919   8.853
 7645POPC   C1A35223  38.494  43.841   8.553
 7645POPC   D2A35224  38.452  43.882   8.253
 7645POPC   C3A35225  38.457  43.930   7.953
 7645POPC   C4A35226  38.495  43.894   7.653
 7645POPC   C1B35227  38.717  43.950   8.553
 7645POPC   C2B35228  38.659  44.030   8.253
 7645POPC   C3B35229  38.674  44.030   7.953
 7645POPC   C4B35230  38.639  43.946   7.653
 7646POPC   NC335231  39.234  19.089   9.453
 7646POPC   PO435232  39.186  19.017   9.153
 7646POPC   GL135233  39.186  19.103   8.853
 7646POPC   GL235234  39.143  19.055   8.853
 7646POPC   C1A35235  39.271  19.088   8.553
 7646POPC   D2A35236  39.204  19.093   8.253
 7646POPC   C3A35237  39.224  19.063   7.953
 7646POPC   C4A35238  39.243  19.021   7.653
 7646POPC   C1B35239  38.998  19.087   8.553
 7646POPC   C2B35240  39.030  19.066   8.253
 7646POPC   C3B35241  38.938  19.089   7.953
 7646POPC   C4B35242  39.023  19.089   7.653
 7647POPC   NC335243  31.443  30.649   9.453
 7647POPC   PO435244  31.462  30.687   9.153
 7647POPC   GL135245  31.448  30.681   8.853
 7647POPC   GL235246  31.571  30.551   8.853
 7647POPC   C1A35247  31.501  30.702   8.553
 7647POPC   D2A35248  31.461  30.705   8.253
 7647POPC   C3A35249  31.446  30.716   7.953
 7647POPC   C4A35250  31.469  30.663   7.653
 7647POPC   C1B35251  31.645  30.543   8.553
 7647POPC   C2B35252  31.673  30.503   8.253
 7647POPC   C3B35253  31.616  30.493   7.953
 7647POPC   C4B35254  31.606  30.506   7.653
 7648POPC   NC335255  23.739  37.678   9.453
 7648POPC   PO435256  23.729  37.674   9.153
 7648POPC   GL135257  23.675  37.713   8.853
 7648POPC   GL235258  23.585  37.614   8.853
 7648POPC   C1A35259  23.700  37.704   8.553
 7648POPC   D2A35260  23.706  37.629   8.253
 7648POPC   C3A35261  23.731  37.640   7.953
 7648POPC   C4A35262  23.747  37.654   7.653
 7648POPC   C1B35263  23.505  37.684   8.553
 7648POPC   C2B35264  23.478  37.606   8.253
 7648POPC   C3B35265  23.484  37.598   7.953
 7648POPC   C4B35266  23.473  37.663   7.653
 7649POPC   NC335267   1.252  22.951   9.453
 7649POPC   PO435268   1.257  22.916   9.153
 7649POPC   GL135269   1.212  22.932   8.853
 7649POPC   GL235270   1.174  23.021   8.853
 7649POPC   C1A35271   1.247  22.975   8.553
 7649POPC   D2A35272   1.195  22.902   8.253
 7649POPC   C3A35273   1.243  22.912   7.953
 7649POPC   C4A35274   1.222  22.929   7.653
 7649POPC   C1B35275   1.235  23.170   8.553
 7649POPC   C2B35276   1.225  23.181   8.253
 7649POPC   C3B35277   1.196  23.172   7.953
 7649POPC   C4B35278   1.199  23.138   7.653
 7650POPC   NC335279  23.701  28.386   9.453
 7650POPC   PO435280  23.726  28.341   9.153
 7650POPC   GL135281  23.665  28.357   8.853
 7650POPC   GL235282  23.608  28.252   8.853
 7650POPC   C1A35283  23.697  28.355   8.553
 7650POPC   D2A35284  23.757  28.418   8.253
 7650POPC   C3A35285  23.716  28.330   7.953
 7650POPC   C4A35286  23.682  28.384   7.653
 7650POPC   C1B35287  23.566  28.178   8.553
 7650POPC   C2B35288  23.530  28.181   8.253
 7650POPC   C3B35289  23.566  28.136   7.953
 7650POPC   C4B35290  23.620  28.148   7.653
 7651POPC   NC335291  12.823  41.559   9.453
 7651POPC   PO435292  12.882  41.539   9.153
 7651POPC   GL135293  12.889  41.578   8.853
 7651POPC   GL235294  12.997  41.551   8.853
 7651POPC   C1A35295  12.834  41.561   8.553
 7651POPC   D2A35296  12.876  41.531   8.253
 7651POPC   C3A35297  12.830  41.538   7.953
 7651POPC   C4A35298  12.893  41.554   7.653
 7651POPC   C1B35299  13.133  41.621   8.553
 7651POPC   C2B35300  13.077  41.635   8.253
 7651POPC   C3B35301  13.083  41.675   7.953
 7651POPC   C4B35302  13.058  41.674   7.653
 7652POPC   NC335303  40.016  19.860   9.453
 7652POPC   PO435304  39.959  19.845   9.153
 7652POPC   GL135305  39.991  19.832   8.853
 7652POPC   GL235306  40.099  19.918   8.853
 7652POPC   C1A35307  39.976  19.864   8.553
 7652POPC   D2A35308  39.986  19.786   8.253
 7652POPC   C3A35309  39.999  19.838   7.953
 7652POPC   C4A35310  40.033  19.799   7.653
 7652POPC   C1B35311  40.169  19.969   8.553
 7652POPC   C2B35312  40.166  20.012   8.253
 7652POPC   C3B35313  40.209  19.980   7.953
 7652POPC   C4B35314  40.219  20.062   7.653
 7653POPC   NC335315  21.383  44.630   9.453
 7653POPC   PO435316  21.406  44.653   9.153
 7653POPC   GL135317  21.340  44.674   8.853
 7653POPC   GL235318  21.493  44.545   8.853
 7653POPC   C1A35319  21.367  44.627   8.553
 7653POPC   D2A35320  21.363  44.698   8.253
 7653POPC   C3A35321  21.347  44.705   7.953
 7653POPC   C4A35322  21.366  44.648   7.653
 7653POPC   C1B35323  21.610  44.521   8.553
 7653POPC   C2B35324  21.580  44.446   8.253
 7653POPC   C3B35325  21.551  44.467   7.953
 7653POPC   C4B35326  21.591  44.466   7.653
 7654POPC   NC335327  15.992  12.104   9.453
 7654POPC   PO435328  15.948  12.026   9.153
 7654POPC   GL135329  15.955  12.053   8.853
 7654POPC   GL235330  15.931  12.166   8.853
 7654POPC   C1A35331  15.957  12.031   8.553
 7654POPC   D2A35332  15.978  12.111   8.253
 7654POPC   C3A35333  15.993  12.043   7.953
 7654POPC   C4A35334  15.906  12.115   7.653
 7654POPC   C1B35335  15.827  12.266   8.553
 7654POPC   C2B35336  15.834  12.354   8.253
 7654POPC   C3B35337  15.816  12.351   7.953
 7654POPC   C4B35338  15.859  12.264   7.653
 7655POPC   NC335339  36.936  20.634   9.453
 7655POPC   PO435340  36.876  20.646   9.153
 7655POPC   GL135341  36.921  20.580   8.853
 7655POPC   GL235342  36.865  20.748   8.853
 7655POPC   C1A35343  36.918  20.630   8.553
 7655POPC   D2A35344  36.911  20.616   8.253
 7655POPC   C3A35345  36.927  20.573   7.953
 7655POPC   C4A35346  36.881  20.566   7.653
 7655POPC   C1B35347  36.736  20.815   8.553
 7655POPC   C2B35348  36.697  20.805   8.253
 7655POPC   C3B35349  36.767  20.823   7.953
 7655POPC   C4B35350  36.741  20.765   7.653
 7656POPC   NC335351  22.208  26.008   9.453
 7656POPC   PO435352  22.152  26.066   9.153
 7656POPC   GL135353  22.155  26.021   8.853
 7656POPC   GL235354  22.234  25.956   8.853
 7656POPC   C1A35355  22.152  26.025   8.553
 7656POPC   D2A35356  22.117  26.036   8.253
 7656POPC   C3A35357  22.124  26.079   7.953
 7656POPC   C4A35358  22.144  25.998   7.653
 7656POPC   C1B35359  22.344  25.869   8.553
 7656POPC   C2B35360  22.388  25.849   8.253
 7656POPC   C3B35361  22.334  25.909   7.953
 7656POPC   C4B35362  22.343  25.902   7.653
 7657POPC   NC335363  40.023  19.076   9.453
 7657POPC   PO435364  40.053  19.012   9.153
 7657POPC   GL135365  40.005  19.038   8.853
 7657POPC   GL235366  39.899  19.081   8.853
 7657POPC   C1A35367  40.032  19.102   8.553
 7657POPC   D2A35368  40.040  19.095   8.253
 7657POPC   C3A35369  39.974  19.056   7.953
 7657POPC   C4A35370  39.989  19.019   7.653
 7657POPC   C1B35371  39.717  19.137   8.553
 7657POPC   C2B35372  39.812  19.136   8.253
 7657POPC   C3B35373  39.753  19.090   7.953
 7657POPC   C4B35374  39.746  19.169   7.653
 7658POPC   NC335375  18.317  34.531   9.453
 7658POPC   PO435376  18.320  34.547   9.153
 7658POPC   GL135377  18.262  34.625   8.853
 7658POPC   GL235378  18.250  34.650   8.853
 7658POPC   C1A35379  18.322  34.534   8.553
 7658POPC   D2A35380  18.328  34.574   8.253
 7658POPC   C3A35381  18.258  34.619   7.953
 7658POPC   C4A35382  18.332  34.615   7.653
 7658POPC   C1B35383  18.242  34.805   8.553
 7658POPC   C2B35384  18.218  34.861   8.253
 7658POPC   C3B35385  18.277  34.832   7.953
 7658POPC   C4B35386  18.247  34.785   7.653
 7659POPC   NC335387   7.376  23.713   9.453
 7659POPC   PO435388   7.372  23.690   9.153
 7659POPC   GL135389   7.386  23.708   8.853
 7659POPC   GL235390   7.316  23.713   8.853
 7659POPC   C1A35391   7.389  23.734   8.553
 7659POPC   D2A35392   7.465  23.676   8.253
 7659POPC   C3A35393   7.462  23.666   7.953
 7659POPC   C4A35394   7.427  23.734   7.653
 7659POPC   C1B35395   7.163  23.675   8.553
 7659POPC   C2B35396   7.159  23.678   8.253
 7659POPC   C3B35397   7.182  23.729   7.953
 7659POPC   C4B35398   7.215  23.729   7.653
 7660POPC   NC335399  27.605   0.469   9.453
 7660POPC   PO435400  27.585   0.483   9.153
 7660POPC   GL135401  27.632   0.394   8.853
 7660POPC   GL235402  27.732   0.407   8.853
 7660POPC   C1A35403  27.640   0.486   8.553
 7660POPC   D2A35404  27.635   0.453   8.253
 7660POPC   C3A35405  27.576   0.438   7.953
 7660POPC   C4A35406  27.578   0.447   7.653
 7660POPC   C1B35407  27.852   0.313   8.553
 7660POPC   C2B35408  27.850   0.356   8.253
 7660POPC   C3B35409  27.836   0.392   7.953
 7660POPC   C4B35410  27.798   0.359   7.653
 7661POPC   NC335411  29.157  22.903   9.453
 7661POPC   PO435412  29.165  22.982   9.153
 7661POPC   GL135413  29.139  22.958   8.853
 7661POPC   GL235414  29.255  22.825   8.853
 7661POPC   C1A35415  29.140  22.903   8.553
 7661POPC   D2A35416  29.175  22.905   8.253
 7661POPC   C3A35417  29.123  22.933   7.953
 7661POPC   C4A35418  29.105  22.982   7.653
 7661POPC   C1B35419  29.300  22.737   8.553
 7661POPC   C2B35420  29.286  22.814   8.253
 7661POPC   C3B35421  29.290  22.741   7.953
 7661POPC   C4B35422  29.369  22.742   7.653
 7662POPC   NC335423  32.297  36.148   9.453
 7662POPC   PO435424  32.236  36.126   9.153
 7662POPC   GL135425  32.296  36.136   8.853
 7662POPC   GL235426  32.193  36.235   8.853
 7662POPC   C1A35427  32.277  36.149   8.553
 7662POPC   D2A35428  32.207  36.131   8.253
 7662POPC   C3A35429  32.231  36.133   7.953
 7662POPC   C4A35430  32.250  36.141   7.653
 7662POPC   C1B35431  32.254  36.333   8.553
 7662POPC   C2B35432  32.233  36.392   8.253
 7662POPC   C3B35433  32.224  36.377   7.953
 7662POPC   C4B35434  32.211  36.344   7.653
 7663POPC   NC335435   8.204   3.538   9.453
 7663POPC   PO435436   8.152   3.553   9.153
 7663POPC   GL135437   8.200   3.510   8.853
 7663POPC   GL235438   8.298   3.609   8.853
 7663POPC   C1A35439   8.169   3.515   8.553
 7663POPC   D2A35440   8.231   3.564   8.253
 7663POPC   C3A35441   8.198   3.529   7.953
 7663POPC   C4A35442   8.161   3.587   7.653
 7663POPC   C1B35443   8.415   3.660   8.553
 7663POPC   C2B35444   8.450   3.659   8.253
 7663POPC   C3B35445   8.411   3.647   7.953
 7663POPC   C4B35446   8.431   3.624   7.653
 7664POPC   NC335447  36.157  44.665   9.453
 7664POPC   PO435448  36.107  44.627   9.153
 7664POPC   GL135449  36.143  44.642   8.853
 7664POPC   GL235450  36.003  44.578   8.853
 7664POPC   C1A35451  36.124  44.702   8.553
 7664POPC   D2A35452  36.086  44.688   8.253
 7664POPC   C3A35453  36.168  44.691   7.953
 7664POPC   C4A35454  36.156  44.626   7.653
 7664POPC   C1B35455  35.848  44.593   8.553
 7664POPC   C2B35456  35.930  44.552   8.253
 7664POPC   C3B35457  35.888  44.569   7.953
 7664POPC   C4B35458  35.902  44.581   7.653
 7665POPC   NC335459  38.424  29.188   9.453
 7665POPC   PO435460  38.424  29.192   9.153
 7665POPC   GL135461  38.502  29.169   8.853
 7665POPC   GL235462  38.436  29.036   8.853
 7665POPC   C1A35463  38.421  29.104   8.553
 7665POPC   D2A35464  38.467  29.165   8.253
 7665POPC   C3A35465  38.492  29.147   7.953
 7665POPC   C4A35466  38.420  29.188   7.653
 7665POPC   C1B35467  38.407  28.938   8.553
 7665POPC   C2B35468  38.421  28.876   8.253
 7665POPC   C3B35469  38.382  28.902   7.953
 7665POPC   C4B35470  38.382  28.858   7.653
 7666POPC   NC335471  40.740  21.360   9.453
 7666POPC   PO435472  40.778  21.342   9.153
 7666POPC   GL135473  40.788  21.376   8.853
 7666POPC   GL235474  40.872  21.441   8.853
 7666POPC   C1A35475  40.737  21.369   8.553
 7666POPC   D2A35476  40.747  21.392   8.253
 7666POPC   C3A35477  40.774  21.357   7.953
 7666POPC   C4A35478  40.764  21.372   7.653
 7666POPC   C1B35479  40.979  21.434   8.553
 7666POPC   C2B35480  41.009  21.389   8.253
 7666POPC   C3B35481  41.007  21.411   7.953
 7666POPC   C4B35482  41.074  21.393   7.653
 7667POPC   NC335483  11.335  44.638   9.453
 7667POPC   PO435484  11.334  44.655   9.153
 7667POPC   GL135485  11.317  44.677   8.853
 7667POPC   GL235486  11.310  44.505   8.853
 7667POPC   C1A35487  11.251  44.635   8.553
 7667POPC   D2A35488  11.287  44.663   8.253
 7667POPC   C3A35489  11.313  44.622   7.953
 7667POPC   C4A35490  11.333  44.661   7.653
 7667POPC   C1B35491  11.268  44.382   8.553
 7667POPC   C2B35492  11.294  44.399   8.253
 7667POPC   C3B35493  11.288  44.406   7.953
 7667POPC   C4B35494  11.308  44.375   7.653
 7668POPC   NC335495  22.924  22.171   9.453
 7668POPC   PO435496  22.976  22.124   9.153
 7668POPC   GL135497  22.907  22.169   8.853
 7668POPC   GL235498  23.028  22.097   8.853
 7668POPC   C1A35499  22.913  22.195   8.553
 7668POPC   D2A35500  22.937  22.172   8.253
 7668POPC   C3A35501  22.938  22.185   7.953
 7668POPC   C4A35502  22.983  22.159   7.653
 7668POPC   C1B35503  23.216  22.117   8.553
 7668POPC   C2B35504  23.128  22.079   8.253
 7668POPC   C3B35505  23.170  22.079   7.953
 7668POPC   C4B35506  23.208  22.030   7.653
 7669POPC   NC335507   0.477  28.347   9.453
 7669POPC   PO435508   0.405  28.377   9.153
 7669POPC   GL135509   0.480  28.372   8.853
 7669POPC   GL235510   0.533  28.222   8.853
 7669POPC   C1A35511   0.434  28.407   8.553
 7669POPC   D2A35512   0.443  28.403   8.253
 7669POPC   C3A35513   0.458  28.408   7.953
 7669POPC   C4A35514   0.446  28.336   7.653
 7669POPC   C1B35515   0.560  28.121   8.553
 7669POPC   C2B35516   0.596  28.149   8.253
 7669POPC   C3B35517   0.565  28.181   7.953
 7669POPC   C4B35518   0.576  28.152   7.653
 7670POPC   NC335519  14.399  21.346   9.453
 7670POPC   PO435520  14.396  21.409   9.153
 7670POPC   GL135521  14.438  21.346   8.853
 7670POPC   GL235522  14.338  21.459   8.853
 7670POPC   C1A35523  14.394  21.384   8.553
 7670POPC   D2A35524  14.427  21.404   8.253
 7670POPC   C3A35525  14.375  21.419   7.953
 7670POPC   C4A35526  14.411  21.341   7.653
 7670POPC   C1B35527  14.242  21.539   8.553
 7670POPC   C2B35528  14.205  21.527   8.253
 7670POPC   C3B35529  14.222  21.537   7.953
 7670POPC   C4B35530  14.172  21.518   7.653
 7671POPC   NC335531  26.808  15.950   9.453
 7671POPC   PO435532  26.783  15.970   9.153
 7671POPC   GL135533  26.812  15.998   8.853
 7671POPC   GL235534  26.689  16.023   8.853
 7671POPC   C1A35535  26.819  15.907   8.553
 7671POPC   D2A35536  26.778  15.970   8.253
 7671POPC   C3A35537  26.852  15.980   7.953
 7671POPC   C4A35538  26.867  15.989   7.653
 7671POPC   C1B35539  26.539  15.953   8.553
 7671POPC   C2B35540  26.542  15.998   8.253
 7671POPC   C3B35541  26.587  16.045   7.953
 7671POPC   C4B35542  26.558  15.954   7.653
 7672POPC   NC335543  40.807  39.184   9.453
 7672POPC   PO435544  40.791  39.234   9.153
 7672POPC   GL135545  40.827  39.217   8.853
 7672POPC   GL235546  40.845  39.311   8.853
 7672POPC   C1A35547  40.767  39.193   8.553
 7672POPC   D2A35548  40.748  39.267   8.253
 7672POPC   C3A35549  40.825  39.253   7.953
 7672POPC   C4A35550  40.776  39.260   7.653
 7672POPC   C1B35551  40.899  39.446   8.553
 7672POPC   C2B35552  40.898  39.429   8.253
 7672POPC   C3B35553  40.931  39.443   7.953
 7672POPC   C4B35554  40.902  39.419   7.653
 7673POPC   NC335555  34.553  24.465   9.453
 7673POPC   PO435556  34.577  24.500   9.153
 7673POPC   GL135557  34.570  24.487   8.853
 7673POPC   GL235558  34.744  24.503   8.853
 7673POPC   C1A35559  34.583  24.538   8.553
 7673POPC   D2A35560  34.590  24.527   8.253
 7673POPC   C3A35561  34.540  24.506   7.953
 7673POPC   C4A35562  34.619  24.471   7.653
 7673POPC   C1B35563  34.821  24.458   8.553
 7673POPC   C2B35564  34.791  24.509   8.253
 7673POPC   C3B35565  34.844  24.516   7.953
 7673POPC   C4B35566  34.807  24.492   7.653
 7674POPC   NC335567   6.601  35.317   9.453
 7674POPC   PO435568   6.629  35.330   9.153
 7674POPC   GL135569   6.656  35.394   8.853
 7674POPC   GL235570   6.596  35.516   8.853
 7674POPC   C1A35571   6.694  35.398   8.553
 7674POPC   D2A35572   6.638  35.320   8.253
 7674POPC   C3A35573   6.629  35.340   7.953
 7674POPC   C4A35574   6.679  35.355   7.653
 7674POPC   C1B35575   6.641  35.593   8.553
 7674POPC   C2B35576   6.597  35.616   8.253
 7674POPC   C3B35577   6.599  35.636   7.953
 7674POPC   C4B35578   6.633  35.557   7.653
 7675POPC   NC335579  17.498  41.572   9.453
 7675POPC   PO435580  17.465  41.568   9.153
 7675POPC   GL135581  17.530  41.561   8.853
 7675POPC   GL235582  17.517  41.399   8.853
 7675POPC   C1A35583  17.551  41.558   8.553
 7675POPC   D2A35584  17.473  41.522   8.253
 7675POPC   C3A35585  17.486  41.569   7.953
 7675POPC   C4A35586  17.462  41.564   7.653
 7675POPC   C1B35587  17.576  41.273   8.553
 7675POPC   C2B35588  17.538  41.288   8.253
 7675POPC   C3B35589  17.575  41.308   7.953
 7675POPC   C4B35590  17.550  41.313   7.653
 7676POPC   NC335591   8.222  40.023   9.453
 7676POPC   PO435592   8.156  39.983   9.153
 7676POPC   GL135593   8.189  39.960   8.853
 7676POPC   GL235594   8.359  40.086   8.853
 7676POPC   C1A35595   8.162  40.041   8.553
 7676POPC   D2A35596   8.196  40.004   8.253
 7676POPC   C3A35597   8.195  39.970   7.953
 7676POPC   C4A35598   8.238  40.003   7.653
 7676POPC   C1B35599   8.418  40.112   8.553
 7676POPC   C2B35600   8.460  40.122   8.253
 7676POPC   C3B35601   8.423  40.082   7.953
 7676POPC   C4B35602   8.396  40.117   7.653
 7677POPC   NC335603  31.433  15.958   9.453
 7677POPC   PO435604  31.491  15.980   9.153
 7677POPC   GL135605  31.471  15.919   8.853
 7677POPC   GL235606  31.438  16.088   8.853
 7677POPC   C1A35607  31.513  15.924   8.553
 7677POPC   D2A35608  31.518  15.928   8.253
 7677POPC   C3A35609  31.473  15.908   7.953
 7677POPC   C4A35610  31.436  15.991   7.653
 7677POPC   C1B35611  31.342  16.156   8.553
 7677POPC   C2B35612  31.300  16.145   8.253
 7677POPC   C3B35613  31.363  16.110   7.953
 7677POPC   C4B35614  31.302  16.109   7.653
 7678POPC   NC335615  22.144  20.654   9.453
 7678POPC   PO435616  22.126  20.654   9.153
 7678POPC   GL135617  22.117  20.649   8.853
 7678POPC   GL235618  22.255  20.495   8.853
 7678POPC   C1A35619  22.169  20.571   8.553
 7678POPC   D2A35620  22.208  20.617   8.253
 7678POPC   C3A35621  22.158  20.601   7.953
 7678POPC   C4A35622  22.114  20.639   7.653
 7678POPC   C1B35623  22.247  20.388   8.553
 7678POPC   C2B35624  22.237  20.380   8.253
 7678POPC   C3B35625  22.288  20.353   7.953
 7678POPC   C4B35626  22.244  20.420   7.653
 7679POPC   NC335627   1.250  40.753   9.453
 7679POPC   PO435628   1.218  40.776   9.153
 7679POPC   GL135629   1.213  40.765   8.853
 7679POPC   GL235630   1.195  40.613   8.853
 7679POPC   C1A35631   1.243  40.803   8.553
 7679POPC   D2A35632   1.231  40.772   8.253
 7679POPC   C3A35633   1.214  40.796   7.953
 7679POPC   C4A35634   1.186  40.767   7.653
 7679POPC   C1B35635   1.198  40.518   8.553
 7679POPC   C2B35636   1.198  40.528   8.253
 7679POPC   C3B35637   1.231  40.552   7.953
 7679POPC   C4B35638   1.271  40.512   7.653
 7680POPC   NC335639  14.374  29.964   9.453
 7680POPC   PO435640  14.389  29.928   9.153
 7680POPC   GL135641  14.363  29.907   8.853
 7680POPC   GL235642  14.491  29.828   8.853
 7680POPC   C1A35643  14.355  29.907   8.553
 7680POPC   D2A35644  14.356  29.934   8.253
 7680POPC   C3A35645  14.386  29.920   7.953
 7680POPC   C4A35646  14.448  29.921   7.653
 7680POPC   C1B35647  14.562  29.726   8.553
 7680POPC   C2B35648  14.547  29.727   8.253
 7680POPC   C3B35649  14.509  29.652   7.953
 7680POPC   C4B35650  14.510  29.721   7.653
 7681POPC   NC335651  43.894  43.094   9.453
 7681POPC   PO435652  43.851  43.146   9.153
 7681POPC   GL135653  43.848  43.072   8.853
 7681POPC   GL235654  43.764  43.247   8.853
 7681POPC   C1A35655  43.910  43.080   8.553
 7681POPC   D2A35656  43.934  43.149   8.253
 7681POPC   C3A35657  43.908  43.113   7.953
 7681POPC   C4A35658  43.887  43.127   7.653
 7681POPC   C1B35659  43.786  43.285   8.553
 7681POPC   C2B35660  43.691  43.316   8.253
 7681POPC   C3B35661  43.758  43.268   7.953
 7681POPC   C4B35662  43.758  43.273   7.653
 7682POPC   NC335663   6.646  33.036   9.453
 7682POPC   PO435664   6.638  33.074   9.153
 7682POPC   GL135665   6.631  33.017   8.853
 7682POPC   GL235666   6.692  32.892   8.853
 7682POPC   C1A35667   6.620  33.004   8.553
 7682POPC   D2A35668   6.633  32.983   8.253
 7682POPC   C3A35669   6.664  33.008   7.953
 7682POPC   C4A35670   6.644  33.069   7.653
 7682POPC   C1B35671   6.669  32.817   8.553
 7682POPC   C2B35672   6.733  32.790   8.253
 7682POPC   C3B35673   6.719  32.787   7.953
 7682POPC   C4B35674   6.711  32.799   7.653
 7683POPC   NC335675   8.161   5.842   9.453
 7683POPC   PO435676   8.239   5.871   9.153
 7683POPC   GL135677   8.221   5.887   8.853
 7683POPC   GL235678   8.291   5.828   8.853
 7683POPC   C1A35679   8.149   5.887   8.553
 7683POPC   D2A35680   8.171   5.889   8.253
 7683POPC   C3A35681   8.189   5.840   7.953
 7683POPC   C4A35682   8.164   5.864   7.653
 7683POPC   C1B35683   8.435   5.730   8.553
 7683POPC   C2B35684   8.444   5.756   8.253
 7683POPC   C3B35685   8.362   5.701   7.953
 7683POPC   C4B35686   8.417   5.755   7.653
 7684POPC   NC335687   2.796  12.849   9.453
 7684POPC   PO435688   2.733  12.870   9.153
 7684POPC   GL135689   2.789  12.806   8.853
 7684POPC   GL235690   2.660  12.808   8.853
 7684POPC   C1A35691   2.724  12.812   8.553
 7684POPC   D2A35692   2.796  12.805   8.253
 7684POPC   C3A35693   2.796  12.840   7.953
 7684POPC   C4A35694   2.755  12.880   7.653
 7684POPC   C1B35695   2.650  12.645   8.553
 7684POPC   C2B35696   2.612  12.705   8.253
 7684POPC   C3B35697   2.629  12.634   7.953
 7684POPC   C4B35698   2.611  12.656   7.653
 7685POPC   NC335699   6.612  32.244   9.453
 7685POPC   PO435700   6.601  32.257   9.153
 7685POPC   GL135701   6.615  32.281   8.853
 7685POPC   GL235702   6.771  32.271   8.853
 7685POPC   C1A35703   6.596  32.298   8.553
 7685POPC   D2A35704   6.672  32.269   8.253
 7685POPC   C3A35705   6.604  32.273   7.953
 7685POPC   C4A35706   6.617  32.239   7.653
 7685POPC   C1B35707   6.867  32.215   8.553
 7685POPC   C2B35708   6.870  32.245   8.253
 7685POPC   C3B35709   6.843  32.225   7.953
 7685POPC   C4B35710   6.920  32.240   7.653
 7686POPC   NC335711  24.481  44.645   9.453
 7686POPC   PO435712  24.522  44.701   9.153
 7686POPC   GL135713  24.444  44.665   8.853
 7686POPC   GL235714  24.490  44.591   8.853
 7686POPC   C1A35715  24.486  44.712   8.553
 7686POPC   D2A35716  24.507  44.631   8.253
 7686POPC   C3A35717  24.440  44.613   7.953
 7686POPC   C4A35718  24.524  44.653   7.653
 7686POPC   C1B35719  24.583  44.423   8.553
 7686POPC   C2B35720  24.629  44.445   8.253
 7686POPC   C3B35721  24.632  44.477   7.953
 7686POPC   C4B35722  24.542  44.414   7.653
 7687POPC   NC335723  18.290  20.615   9.453
 7687POPC   PO435724  18.257  20.646   9.153
 7687POPC   GL135725  18.265  20.628   8.853
 7687POPC   GL235726  18.152  20.518   8.853
 7687POPC   C1A35727  18.279  20.597   8.553
 7687POPC   D2A35728  18.331  20.653   8.253
 7687POPC   C3A35729  18.318  20.570   7.953
 7687POPC   C4A35730  18.332  20.618   7.653
 7687POPC   C1B35731  18.070  20.499   8.553
 7687POPC   C2B35732  18.054  20.521   8.253
 7687POPC   C3B35733  18.021  20.525   7.953
 7687POPC   C4B35734  18.066  20.488   7.653
 7688POPC   NC335735  42.371  27.639   9.453
 7688POPC   PO435736  42.327  27.635   9.153
 7688POPC   GL135737  42.375  27.591   8.853
 7688POPC   GL235738  42.453  27.648   8.853
 7688POPC   C1A35739  42.321  27.593   8.553
 7688POPC   D2A35740  42.301  27.580   8.253
 7688POPC   C3A35741  42.344  27.614   7.953
 7688POPC   C4A35742  42.381  27.621   7.653
 7688POPC   C1B35743  42.561  27.634   8.553
 7688POPC   C2B35744  42.585  27.666   8.253
 7688POPC   C3B35745  42.550  27.643   7.953
 7688POPC   C4B35746  42.548  27.622   7.653
 7689POPC   NC335747  25.252  33.030   9.453
 7689POPC   PO435748  25.253  33.068   9.153
 7689POPC   GL135749  25.289  32.985   8.853
 7689POPC   GL235750  25.238  33.115   8.853
 7689POPC   C1A35751  25.291  32.983   8.553
 7689POPC   D2A35752  25.252  33.046   8.253
 7689POPC   C3A35753  25.299  33.040   7.953
 7689POPC   C4A35754  25.263  33.063   7.653
 7689POPC   C1B35755  25.235  33.216   8.553
 7689POPC   C2B35756  25.161  33.247   8.253
 7689POPC   C3B35757  25.249  33.235   7.953
 7689POPC   C4B35758  25.154  33.252   7.653
 7690POPC   NC335759  20.628  37.694   9.453
 7690POPC   PO435760  20.600  37.661   9.153
 7690POPC   GL135761  20.596  37.689   8.853
 7690POPC   GL235762  20.500  37.650   8.853
 7690POPC   C1A35763  20.592  37.654   8.553
 7690POPC   D2A35764  20.589  37.727   8.253
 7690POPC   C3A35765  20.609  37.668   7.953
 7690POPC   C4A35766  20.634  37.729   7.653
 7690POPC   C1B35767  20.371  37.682   8.553
 7690POPC   C2B35768  20.355  37.647   8.253
 7690POPC   C3B35769  20.400  37.653   7.953
 7690POPC   C4B35770  20.340  37.693   7.653
 7691POPC   NC335771  32.278  43.069   9.453
 7691POPC   PO435772  32.214  43.112   9.153
 7691POPC   GL135773  32.276  43.147   8.853
 7691POPC   GL235774  32.380  43.089   8.853
 7691POPC   C1A35775  32.270  43.099   8.553
 7691POPC   D2A35776  32.233  43.140   8.253
 7691POPC   C3A35777  32.208  43.079   7.953
 7691POPC   C4A35778  32.260  43.143   7.653
 7691POPC   C1B35779  32.509  43.070   8.553
 7691POPC   C2B35780  32.458  43.101   8.253
 7691POPC   C3B35781  32.457  43.100   7.953
 7691POPC   C4B35782  32.477  43.077   7.653
 7692POPC   NC335783  36.122  34.542   9.453
 7692POPC   PO435784  36.134  34.543   9.153
 7692POPC   GL135785  36.090  34.593   8.853
 7692POPC   GL235786  36.074  34.415   8.853
 7692POPC   C1A35787  36.109  34.558   8.553
 7692POPC   D2A35788  36.096  34.563   8.253
 7692POPC   C3A35789  36.171  34.583   7.953
 7692POPC   C4A35790  36.171  34.609   7.653
 7692POPC   C1B35791  36.047  34.369   8.553
 7692POPC   C2B35792  36.053  34.374   8.253
 7692POPC   C3B35793  36.003  34.318   7.953
 7692POPC   C4B35794  36.009  34.340   7.653
 7693POPC   NC335795   6.648  38.473   9.453
 7693POPC   PO435796   6.682  38.503   9.153
 7693POPC   GL135797   6.657  38.426   8.853
 7693POPC   GL235798   6.605  38.573   8.853
 7693POPC   C1A35799   6.648  38.502   8.553
 7693POPC   D2A35800   6.610  38.478   8.253
 7693POPC   C3A35801   6.624  38.455   7.953
 7693POPC   C4A35802   6.666  38.479   7.653
 7693POPC   C1B35803   6.582  38.676   8.553
 7693POPC   C2B35804   6.615  38.746   8.253
 7693POPC   C3B35805   6.596  38.657   7.953
 7693POPC   C4B35806   6.544  38.725   7.653
 7694POPC   NC335807   2.019  14.418   9.453
 7694POPC   PO435808   1.958  14.453   9.153
 7694POPC   GL135809   2.017  14.429   8.853
 7694POPC   GL235810   2.054  14.341   8.853
 7694POPC   C1A35811   1.964  14.399   8.553
 7694POPC   D2A35812   1.970  14.388   8.253
 7694POPC   C3A35813   1.947  14.409   7.953
 7694POPC   C4A35814   2.028  14.394   7.653
 7694POPC   C1B35815   2.174  14.209   8.553
 7694POPC   C2B35816   2.177  14.235   8.253
 7694POPC   C3B35817   2.141  14.269   7.953
 7694POPC   C4B35818   2.147  14.265   7.653
 7695POPC   NC335819  16.000   8.199   9.453
 7695POPC   PO435820  15.906   8.169   9.153
 7695POPC   GL135821  15.975   8.200   8.853
 7695POPC   GL235822  16.070   8.144   8.853
 7695POPC   C1A35823  15.994   8.236   8.553
 7695POPC   D2A35824  15.978   8.158   8.253
 7695POPC   C3A35825  15.988   8.154   7.953
 7695POPC   C4A35826  15.994   8.154   7.653
 7695POPC   C1B35827  16.239   8.172   8.553
 7695POPC   C2B35828  16.192   8.137   8.253
 7695POPC   C3B35829  16.153   8.155   7.953
 7695POPC   C4B35830  16.222   8.153   7.653
 7696POPC   NC335831  25.291  32.244   9.453
 7696POPC   PO435832  25.301  32.235   9.153
 7696POPC   GL135833  25.239  32.276   8.853
 7696POPC   GL235834  25.429  32.231   8.853
 7696POPC   C1A35835  25.315  32.291   8.553
 7696POPC   D2A35836  25.270  32.238   8.253
 7696POPC   C3A35837  25.219  32.286   7.953
 7696POPC   C4A35838  25.279  32.270   7.653
 7696POPC   C1B35839  25.464  32.267   8.553
 7696POPC   C2B35840  25.562  32.297   8.253
 7696POPC   C3B35841  25.497  32.266   7.953
 7696POPC   C4B35842  25.478  32.290   7.653
 7697POPC   NC335843  41.562  43.921   9.453
 7697POPC   PO435844  41.555  43.846   9.153
 7697POPC   GL135845  41.528  43.843   8.853
 7697POPC   GL235846  41.483  43.750   8.853
 7697POPC   C1A35847  41.514  43.896   8.553
 7697POPC   D2A35848  41.537  43.909   8.253
 7697POPC   C3A35849  41.556  43.899   7.953
 7697POPC   C4A35850  41.566  43.869   7.653
 7697POPC   C1B35851  41.423  43.668   8.553
 7697POPC   C2B35852  41.490  43.653   8.253
 7697POPC   C3B35853  41.391  43.649   7.953
 7697POPC   C4B35854  41.459  43.645   7.653
 7698POPC   NC335855  40.821  18.259   9.453
 7698POPC   PO435856  40.758  18.296   9.153
 7698POPC   GL135857  40.803  18.310   8.853
 7698POPC   GL235858  40.811  18.452   8.853
 7698POPC   C1A35859  40.772  18.289   8.553
 7698POPC   D2A35860  40.759  18.249   8.253
 7698POPC   C3A35861  40.746  18.299   7.953
 7698POPC   C4A35862  40.774  18.275   7.653
 7698POPC   C1B35863  40.779  18.506   8.553
 7698POPC   C2B35864  40.727  18.566   8.253
 7698POPC   C3B35865  40.786  18.578   7.953
 7698POPC   C4B35866  40.699  18.566   7.653
 7699POPC   NC335867  28.390  30.667   9.453
 7699POPC   PO435868  28.346  30.687   9.153
 7699POPC   GL135869  28.383  30.737   8.853
 7699POPC   GL235870  28.277  30.555   8.853
 7699POPC   C1A35871  28.362  30.708   8.553
 7699POPC   D2A35872  28.368  30.649   8.253
 7699POPC   C3A35873  28.406  30.691   7.953
 7699POPC   C4A35874  28.359  30.707   7.653
 7699POPC   C1B35875  28.254  30.478   8.553
 7699POPC   C2B35876  28.268  30.439   8.253
 7699POPC   C3B35877  28.266  30.443   7.953
 7699POPC   C4B35878  28.281  30.514   7.653
 7700POPC   NC335879  14.396  15.179   9.453
 7700POPC   PO435880  14.442  15.207   9.153
 7700POPC   GL135881  14.373  15.170   8.853
 7700POPC   GL235882  14.458  15.088   8.853
 7700POPC   C1A35883  14.390  15.184   8.553
 7700POPC   D2A35884  14.404  15.179   8.253
 7700POPC   C3A35885  14.400  15.206   7.953
 7700POPC   C4A35886  14.421  15.193   7.653
 7700POPC   C1B35887  14.566  14.920   8.553
 7700POPC   C2B35888  14.564  14.987   8.253
 7700POPC   C3B35889  14.508  15.018   7.953
 7700POPC   C4B35890  14.543  14.981   7.653
 7701POPC   NC335891  38.459  27.625   9.453
 7701POPC   PO435892  38.481  27.640   9.153
 7701POPC   GL135893  38.449  27.551   8.853
 7701POPC   GL235894  38.573  27.619   8.853
 7701POPC   C1A35895  38.478  27.602   8.553
 7701POPC   D2A35896  38.482  27.619   8.253
 7701POPC   C3A35897  38.478  27.605   7.953
 7701POPC   C4A35898  38.431  27.600   7.653
 7701POPC   C1B35899  38.734  27.551   8.553
 7701POPC   C2B35900  38.687  27.611   8.253
 7701POPC   C3B35901  38.739  27.548   7.953
 7701POPC   C4B35902  38.698  27.610   7.653
 7702POPC   NC335903  35.376  15.964   9.453
 7702POPC   PO435904  35.323  15.956   9.153
 7702POPC   GL135905  35.394  15.972   8.853
 7702POPC   GL235906  35.319  16.052   8.853
 7702POPC   C1A35907  35.356  15.914   8.553
 7702POPC   D2A35908  35.331  15.996   8.253
 7702POPC   C3A35909  35.375  15.916   7.953
 7702POPC   C4A35910  35.359  15.973   7.653
 7702POPC   C1B35911  35.247  16.154   8.553
 7702POPC   C2B35912  35.265  16.181   8.253
 7702POPC   C3B35913  35.204  16.168   7.953
 7702POPC   C4B35914  35.191  16.169   7.653
 7703POPC   NC335915   3.585  28.341   9.453
 7703POPC   PO435916   3.558  28.329   9.153
 7703POPC   GL135917   3.511  28.356   8.853
 7703POPC   GL235918   3.385  28.359   8.853
 7703POPC   C1A35919   3.535  28.347   8.553
 7703POPC   D2A35920   3.570  28.400   8.253
 7703POPC   C3A35921   3.523  28.327   7.953
 7703POPC   C4A35922   3.541  28.374   7.653
 7703POPC   C1B35923   3.273  28.324   8.553
 7703POPC   C2B35924   3.298  28.266   8.253
 7703POPC   C3B35925   3.257  28.265   7.953
 7703POPC   C4B35926   3.272  28.291   7.653
 7704POPC   NC335927  18.330  11.265   9.453
 7704POPC   PO435928  18.288  11.256   9.153
 7704POPC   GL135929  18.306  11.321   8.853
 7704POPC   GL235930  18.278  11.184   8.853
 7704POPC   C1A35931  18.273  11.262   8.553
 7704POPC   D2A35932  18.311  11.334   8.253
 7704POPC   C3A35933  18.308  11.273   7.953
 7704POPC   C4A35934  18.303  11.256   7.653
 7704POPC   C1B35935  18.135  11.046   8.553
 7704POPC   C2B35936  18.169  11.056   8.253
 7704POPC   C3B35937  18.195  11.112   7.953
 7704POPC   C4B35938  18.177  11.119   7.653
 7705POPC   NC335939   1.233  43.884   9.453
 7705POPC   PO435940   1.252  43.916   9.153
 7705POPC   GL135941   1.169  43.841   8.853
 7705POPC   GL235942   1.346  43.883   8.853
 7705POPC   C1A35943   1.220  43.926   8.553
 7705POPC   D2A35944   1.218  43.929   8.253
 7705POPC   C3A35945   1.210  43.876   7.953
 7705POPC   C4A35946   1.222  43.930   7.653
 7705POPC   C1B35947   1.427  43.824   8.553
 7705POPC   C2B35948   1.499  43.866   8.253
 7705POPC   C3B35949   1.511  43.810   7.953
 7705POPC   C4B35950   1.510  43.880   7.653
 7706POPC   NC335951  19.074  36.908   9.453
 7706POPC   PO435952  19.048  36.904   9.153
 7706POPC   GL135953  19.079  36.912   8.853
 7706POPC   GL235954  19.110  37.042   8.853
 7706POPC   C1A35955  19.049  36.864   8.553
 7706POPC   D2A35956  19.057  36.918   8.253
 7706POPC   C3A35957  19.061  36.952   7.953
 7706POPC   C4A35958  19.075  36.946   7.653
 7706POPC   C1B35959  19.100  37.144   8.553
 7706POPC   C2B35960  19.168  37.180   8.253
 7706POPC   C3B35961  19.167  37.178   7.953
 7706POPC   C4B35962  19.176  37.102   7.653
 7707POPC   NC335963  10.507  29.948   9.453
 7707POPC   PO435964  10.485  29.872   9.153
 7707POPC   GL135965  10.475  29.935   8.853
 7707POPC   GL235966  10.420  29.852   8.853
 7707POPC   C1A35967  10.532  29.910   8.553
 7707POPC   D2A35968  10.568  29.966   8.253
 7707POPC   C3A35969  10.535  29.881   7.953
 7707POPC   C4A35970  10.539  29.926   7.653
 7707POPC   C1B35971  10.262  29.834   8.553
 7707POPC   C2B35972  10.281  29.872   8.253
 7707POPC   C3B35973  10.276  29.882   7.953
 7707POPC   C4B35974  10.322  29.838   7.653
 7708POPC   NC335975  36.898  17.515   9.453
 7708POPC   PO435976  36.877  17.501   9.153
 7708POPC   GL135977  36.868  17.460   8.853
 7708POPC   GL235978  36.871  17.444   8.853
 7708POPC   C1A35979  36.885  17.509   8.553
 7708POPC   D2A35980  36.858  17.495   8.253
 7708POPC   C3A35981  36.912  17.534   7.953
 7708POPC   C4A35982  36.929  17.486   7.653
 7708POPC   C1B35983  36.789  17.279   8.553
 7708POPC   C2B35984  36.733  17.321   8.253
 7708POPC   C3B35985  36.781  17.307   7.953
 7708POPC   C4B35986  36.827  17.296   7.653
 7709POPC   NC335987  29.884  26.795   9.453
 7709POPC   PO435988  29.940  26.792   9.153
 7709POPC   GL135989  29.922  26.787   8.853
 7709POPC   GL235990  29.911  26.955   8.853
 7709POPC   C1A35991  29.934  26.782   8.553
 7709POPC   D2A35992  29.937  26.819   8.253
 7709POPC   C3A35993  29.931  26.864   7.953
 7709POPC   C4A35994  29.953  26.832   7.653
 7709POPC   C1B35995  29.813  27.030   8.553
 7709POPC   C2B35996  29.773  27.018   8.253
 7709POPC   C3B35997  29.756  27.068   7.953
 7709POPC   C4B35998  29.776  27.015   7.653
 7710POPC   NC335999  37.673  23.673   9.453
 7710POPC   PO436000  37.661  23.682   9.153
 7710POPC   GL136001  37.670  23.716   8.853
 7710POPC   GL236002  37.762  23.648   8.853
 7710POPC   C1A36003  37.728  23.664   8.553
 7710POPC   D2A36004  37.651  23.691   8.253
 7710POPC   C3A36005  37.725  23.752   7.953
 7710POPC   C4A36006  37.669  23.720   7.653
 7710POPC   C1B36007  37.857  23.645   8.553
 7710POPC   C2B36008  37.898  23.606   8.253
 7710POPC   C3B36009  37.878  23.625   7.953
 7710POPC   C4B36010  37.892  23.636   7.653
 7711POPC   NC336011  33.012   3.586   9.453
 7711POPC   PO436012  33.006   3.549   9.153
 7711POPC   GL136013  33.024   3.530   8.853
 7711POPC   GL236014  32.984   3.408   8.853
 7711POPC   C1A36015  33.001   3.588   8.553
 7711POPC   D2A36016  33.022   3.499   8.253
 7711POPC   C3A36017  33.073   3.537   7.953
 7711POPC   C4A36018  33.070   3.558   7.653
 7711POPC   C1B36019  32.914   3.327   8.553
 7711POPC   C2B36020  32.907   3.292   8.253
 7711POPC   C3B36021  32.889   3.354   7.953
 7711POPC   C4B36022  32.896   3.336   7.653
 7712POPC   NC336023  42.318  26.067   9.453
 7712POPC   PO436024  42.341  26.019   9.153
 7712POPC   GL136025  42.332  26.063   8.853
 7712POPC   GL236026  42.403  26.111   8.853
 7712POPC   C1A36027  42.294  26.044   8.553
 7712POPC   D2A36028  42.291  26.034   8.253
 7712POPC   C3A36029  42.341  26.068   7.953
 7712POPC   C4A36030  42.360  26.009   7.653
 7712POPC   C1B36031  42.510  26.293   8.553
 7712POPC   C2B36032  42.507  26.235   8.253
 7712POPC   C3B36033  42.481  26.223   7.953
 7712POPC   C4B36034  42.510  26.279   7.653
 7713POPC   NC336035   8.985  42.289   9.453
 7713POPC   PO436036   8.934  42.312   9.153
 7713POPC   GL136037   8.989  42.351   8.853
 7713POPC   GL236038   8.924  42.282   8.853
 7713POPC   C1A36039   8.993  42.376   8.553
 7713POPC   D2A36040   8.960  42.377   8.253
 7713POPC   C3A36041   8.991  42.317   7.953
 7713POPC   C4A36042   8.995  42.350   7.653
 7713POPC   C1B36043   8.769  42.106   8.553
 7713POPC   C2B36044   8.804  42.179   8.253
 7713POPC   C3B36045   8.822  42.152   7.953
 7713POPC   C4B36046   8.827  42.147   7.653
 7714POPC   NC336047  36.953  14.383   9.453
 7714POPC   PO436048  36.952  14.429   9.153
 7714POPC   GL136049  36.887  14.356   8.853
 7714POPC   GL236050  36.983  14.435   8.853
 7714POPC   C1A36051  36.880  14.372   8.553
 7714POPC   D2A36052  36.921  14.379   8.253
 7714POPC   C3A36053  36.909  14.378   7.953
 7714POPC   C4A36054  36.897  14.378   7.653
 7714POPC   C1B36055  37.158  14.492   8.553
 7714POPC   C2B36056  37.071  14.560   8.253
 7714POPC   C3B36057  37.063  14.545   7.953
 7714POPC   C4B36058  37.134  14.510   7.653
 7715POPC   NC336059   1.194   5.883   9.453
 7715POPC   PO436060   1.215   5.873   9.153
 7715POPC   GL136061   1.246   5.876   8.853
 7715POPC   GL236062   1.115   6.004   8.853
 7715POPC   C1A36063   1.185   5.824   8.553
 7715POPC   D2A36064   1.171   5.834   8.253
 7715POPC   C3A36065   1.230   5.906   7.953
 7715POPC   C4A36066   1.207   5.908   7.653
 7715POPC   C1B36067   1.038   6.101   8.553
 7715POPC   C2B36068   1.066   6.093   8.253
 7715POPC   C3B36069   1.073   6.082   7.953
 7715POPC   C4B36070   1.112   6.046   7.653
 7716POPC   NC336071  18.236  33.061   9.453
 7716POPC   PO436072  18.318  33.026   9.153
 7716POPC   GL136073  18.282  32.980   8.853
 7716POPC   GL236074  18.165  33.049   8.853
 7716POPC   C1A36075  18.309  33.027   8.553
 7716POPC   D2A36076  18.296  33.073   8.253
 7716POPC   C3A36077  18.276  33.046   7.953
 7716POPC   C4A36078  18.317  33.033   7.653
 7716POPC   C1B36079  18.065  33.135   8.553
 7716POPC   C2B36080  18.011  33.124   8.253
 7716POPC   C3B36081  18.076  33.071   7.953
 7716POPC   C4B36082  17.998  33.151   7.653
 7717POPC   NC336083  41.517  34.612   9.453
 7717POPC   PO436084  41.595  34.591   9.153
 7717POPC   GL136085  41.557  34.596   8.853
 7717POPC   GL236086  41.529  34.738   8.853
 7717POPC   C1A36087  41.603  34.540   8.553
 7717POPC   D2A36088  41.585  34.543   8.253
 7717POPC   C3A36089  41.531  34.593   7.953
 7717POPC   C4A36090  41.550  34.568   7.653
 7717POPC   C1B36091  41.570  34.861   8.553
 7717POPC   C2B36092  41.588  34.845   8.253
 7717POPC   C3B36093  41.566  34.781   7.953
 7717POPC   C4B36094  41.562  34.806   7.653
 7718POPC   NC336095  15.990  41.550   9.453
 7718POPC   PO436096  15.974  41.531   9.153
 7718POPC   GL136097  16.003  41.566   8.853
 7718POPC   GL236098  15.922  41.673   8.853
 7718POPC   C1A36099  15.932  41.596   8.553
 7718POPC   D2A36100  15.996  41.518   8.253
 7718POPC   C3A36101  15.947  41.551   7.953
 7718POPC   C4A36102  15.951  41.566   7.653
 7718POPC   C1B36103  15.807  41.797   8.553
 7718POPC   C2B36104  15.757  41.775   8.253
 7718POPC   C3B36105  15.786  41.757   7.953
 7718POPC   C4B36106  15.773  41.729   7.653
 7719POPC   NC336107  34.556   2.753   9.453
 7719POPC   PO436108  34.534   2.733   9.153
 7719POPC   GL136109  34.609   2.799   8.853
 7719POPC   GL236110  34.434   2.686   8.853
 7719POPC   C1A36111  34.613   2.776   8.553
 7719POPC   D2A36112  34.565   2.773   8.253
 7719POPC   C3A36113  34.571   2.724   7.953
 7719POPC   C4A36114  34.526   2.756   7.653
 7719POPC   C1B36115  34.354   2.750   8.553
 7719POPC   C2B36116  34.334   2.675   8.253
 7719POPC   C3B36117  34.333   2.660   7.953
 7719POPC   C4B36118  34.308   2.680   7.653
 7720POPC   NC336119  44.672  27.630   9.453
 7720POPC   PO436120  44.706  27.547   9.153
 7720POPC   GL136121  44.698  27.559   8.853
 7720POPC   GL236122  44.708  27.674   8.853
 7720POPC   C1A36123  44.625  27.551   8.553
 7720POPC   D2A36124  44.673  27.590   8.253
 7720POPC   C3A36125  44.652  27.593   7.953
 7720POPC   C4A36126  44.634  27.576   7.653
 7720POPC   C1B36127  44.760  27.792   8.553
 7720POPC   C2B36128  44.765  27.847   8.253
 7720POPC   C3B36129  44.724  27.801   7.953
 7720POPC   C4B36130  44.727  27.794   7.653
 7721POPC   NC336131   3.539  26.854   9.453
 7721POPC   PO436132   3.537  26.862   9.153
 7721POPC   GL136133   3.545  26.821   8.853
 7721POPC   GL236134   3.665  26.782   8.853
 7721POPC   C1A36135   3.538  26.855   8.553
 7721POPC   D2A36136   3.574  26.858   8.253
 7721POPC   C3A36137   3.515  26.785   7.953
 7721POPC   C4A36138   3.538  26.829   7.653
 7721POPC   C1B36139   3.762  26.764   8.553
 7721POPC   C2B36140   3.782  26.701   8.253
 7721POPC   C3B36141   3.771  26.750   7.953
 7721POPC   C4B36142   3.809  26.764   7.653
 7722POPC   NC336143  43.851  24.525   9.453
 7722POPC   PO436144  43.865  24.458   9.153
 7722POPC   GL136145  43.853  24.505   8.853
 7722POPC   GL236146  43.765  24.508   8.853
 7722POPC   C1A36147  43.923  24.482   8.553
 7722POPC   D2A36148  43.930  24.526   8.253
 7722POPC   C3A36149  43.931  24.495   7.953
 7722POPC   C4A36150  43.871  24.512   7.653
 7722POPC   C1B36151  43.671  24.530   8.553
 7722POPC   C2B36152  43.638  24.500   8.253
 7722POPC   C3B36153  43.624  24.495   7.953
 7722POPC   C4B36154  43.631  24.470   7.653
 7723POPC   NC336155  16.743   6.693   9.453
 7723POPC   PO436156  16.703   6.601   9.153
 7723POPC   GL136157  16.704   6.651   8.853
 7723POPC   GL236158  16.790   6.581   8.853
 7723POPC   C1A36159  16.780   6.691   8.553
 7723POPC   D2A36160  16.774   6.639   8.253
 7723POPC   C3A36161  16.742   6.668   7.953
 7723POPC   C4A36162  16.734   6.673   7.653
 7723POPC   C1B36163  16.939   6.478   8.553
 7723POPC   C2B36164  16.909   6.524   8.253
 7723POPC   C3B36165  16.917   6.533   7.953
 7723POPC   C4B36166  16.982   6.497   7.653
 7724POPC   NC336167  11.323  31.454   9.453
 7724POPC   PO436168  11.312  31.497   9.153
 7724POPC   GL136169  11.332  31.508   8.853
 7724POPC   GL236170  11.235  31.524   8.853
 7724POPC   C1A36171  11.282  31.466   8.553
 7724POPC   D2A36172  11.327  31.510   8.253
 7724POPC   C3A36173  11.250  31.445   7.953
 7724POPC   C4A36174  11.283  31.510   7.653
 7724POPC   C1B36175  11.095  31.691   8.553
 7724POPC   C2B36176  11.132  31.654   8.253
 7724POPC   C3B36177  11.152  31.700   7.953
 7724POPC   C4B36178  11.177  31.646   7.653
 7725POPC   NC336179  36.114  15.994   9.453
 7725POPC   PO436180  36.176  15.991   9.153
 7725POPC   GL136181  36.094  16.001   8.853
 7725POPC   GL236182  36.257  16.002   8.853
 7725POPC   C1A36183  36.128  15.914   8.553
 7725POPC   D2A36184  36.105  15.908   8.253
 7725POPC   C3A36185  36.141  15.910   7.953
 7725POPC   C4A36186  36.158  15.969   7.653
 7725POPC   C1B36187  36.360  16.086   8.553
 7725POPC   C2B36188  36.388  16.081   8.253
 7725POPC   C3B36189  36.344  16.015   7.953
 7725POPC   C4B36190  36.348  16.014   7.653
 7726POPC   NC336191  22.167  39.969   9.453
 7726POPC   PO436192  22.125  39.983   9.153
 7726POPC   GL136193  22.199  39.963   8.853
 7726POPC   GL236194  22.278  40.115   8.853
 7726POPC   C1A36195  22.115  40.019   8.553
 7726POPC   D2A36196  22.137  40.028   8.253
 7726POPC   C3A36197  22.161  39.989   7.953
 7726POPC   C4A36198  22.158  39.979   7.653
 7726POPC   C1B36199  22.343  40.187   8.553
 7726POPC   C2B36200  22.352  40.242   8.253
 7726POPC   C3B36201  22.351  40.241   7.953
 7726POPC   C4B36202  22.280  40.211   7.653
 7727POPC   NC336203  11.344   1.960   9.453
 7727POPC   PO436204  11.254   1.948   9.153
 7727POPC   GL136205  11.276   2.004   8.853
 7727POPC   GL236206  11.194   1.952   8.853
 7727POPC   C1A36207  11.312   2.036   8.553
 7727POPC   D2A36208  11.253   1.992   8.253
 7727POPC   C3A36209  11.292   1.990   7.953
 7727POPC   C4A36210  11.341   1.951   7.653
 7727POPC   C1B36211  11.097   1.972   8.553
 7727POPC   C2B36212  11.095   1.949   8.253
 7727POPC   C3B36213  11.023   1.914   7.953
 7727POPC   C4B36214  11.046   1.900   7.653
 7728POPC   NC336215  38.468   5.047   9.453
 7728POPC   PO436216  38.495   5.095   9.153
 7728POPC   GL136217  38.466   5.138   8.853
 7728POPC   GL236218  38.337   5.216   8.853
 7728POPC   C1A36219  38.480   5.108   8.553
 7728POPC   D2A36220  38.465   5.098   8.253
 7728POPC   C3A36221  38.417   5.095   7.953
 7728POPC   C4A36222  38.408   5.075   7.653
 7728POPC   C1B36223  38.276   5.206   8.553
 7728POPC   C2B36224  38.251   5.271   8.253
 7728POPC   C3B36225  38.274   5.226   7.953
 7728POPC   C4B36226  38.234   5.208   7.653
 7729POPC   NC336227  29.933   3.557   9.453
 7729POPC   PO436228  29.903   3.554   9.153
 7729POPC   GL136229  29.925   3.581   8.853
 7729POPC   GL236230  29.835   3.400   8.853
 7729POPC   C1A36231  29.929   3.576   8.553
 7729POPC   D2A36232  29.952   3.499   8.253
 7729POPC   C3A36233  29.895   3.573   7.953
 7729POPC   C4A36234  29.894   3.550   7.653
 7729POPC   C1B36235  29.759   3.318   8.553
 7729POPC   C2B36236  29.789   3.340   8.253
 7729POPC   C3B36237  29.793   3.343   7.953
 7729POPC   C4B36238  29.723   3.313   7.653
 7730POPC   NC336239  39.973  18.316   9.453
 7730POPC   PO436240  39.976  18.273   9.153
 7730POPC   GL136241  39.992  18.305   8.853
 7730POPC   GL236242  40.028  18.189   8.853
 7730POPC   C1A36243  40.001  18.236   8.553
 7730POPC   D2A36244  39.983  18.234   8.253
 7730POPC   C3A36245  39.957  18.331   7.953
 7730POPC   C4A36246  40.025  18.331   7.653
 7730POPC   C1B36247  39.983  18.015   8.553
 7730POPC   C2B36248  39.937  17.990   8.253
 7730POPC   C3B36249  39.925  18.081   7.953
 7730POPC   C4B36250  39.958  18.055   7.653
 7731POPC   NC336251   5.911  19.872   9.453
 7731POPC   PO436252   5.885  19.809   9.153
 7731POPC   GL136253   5.829  19.811   8.853
 7731POPC   GL236254   6.019  19.868   8.853
 7731POPC   C1A36255   5.885  19.857   8.553
 7731POPC   D2A36256   5.845  19.805   8.253
 7731POPC   C3A36257   5.876  19.787   7.953
 7731POPC   C4A36258   5.840  19.821   7.653
 7731POPC   C1B36259   6.036  20.008   8.553
 7731POPC   C2B36260   6.086  20.017   8.253
 7731POPC   C3B36261   6.085  19.948   7.953
 7731POPC   C4B36262   6.041  19.965   7.653
 7732POPC   NC336263  22.198  12.105   9.453
 7732POPC   PO436264  22.164  12.063   9.153
 7732POPC   GL136265  22.203  12.113   8.853
 7732POPC   GL236266  22.198  11.948   8.853
 7732POPC   C1A36267  22.197  12.117   8.553
 7732POPC   D2A36268  22.173  12.111   8.253
 7732POPC   C3A36269  22.210  12.092   7.953
 7732POPC   C4A36270  22.128  12.055   7.653
 7732POPC   C1B36271  22.118  11.795   8.553
 7732POPC   C2B36272  22.206  11.864   8.253
 7732POPC   C3B36273  22.168  11.839   7.953
 7732POPC   C4B36274  22.118  11.795   7.653
 7733POPC   NC336275  36.944  11.314   9.453
 7733POPC   PO436276  36.871  11.328   9.153
 7733POPC   GL136277  36.866  11.342   8.853
 7733POPC   GL236278  36.939  11.175   8.853
 7733POPC   C1A36279  36.936  11.251   8.553
 7733POPC   D2A36280  36.899  11.296   8.253
 7733POPC   C3A36281  36.934  11.258   7.953
 7733POPC   C4A36282  36.918  11.311   7.653
 7733POPC   C1B36283  36.987  11.067   8.553
 7733POPC   C2B36284  36.963  11.016   8.253
 7733POPC   C3B36285  36.902  11.017   7.953
 7733POPC   C4B36286  36.941  11.060   7.653
 7734POPC   NC336287  15.963  33.014   9.453
 7734POPC   PO436288  15.918  33.059   9.153
 7734POPC   GL136289  15.991  33.028   8.853
 7734POPC   GL236290  15.973  33.187   8.853
 7734POPC   C1A36291  15.950  32.995   8.553
 7734POPC   D2A36292  15.910  32.989   8.253
 7734POPC   C3A36293  15.926  33.022   7.953
 7734POPC   C4A36294  15.946  33.044   7.653
 7734POPC   C1B36295  15.956  33.300   8.553
 7734POPC   C2B36296  15.985  33.280   8.253
 7734POPC   C3B36297  15.964  33.323   7.953
 7734POPC   C4B36298  15.995  33.246   7.653
 7735POPC   NC336299  29.178  14.397   9.453
 7735POPC   PO436300  29.165  14.408   9.153
 7735POPC   GL136301  29.179  14.411   8.853
 7735POPC   GL236302  29.073  14.462   8.853
 7735POPC   C1A36303  29.122  14.418   8.553
 7735POPC   D2A36304  29.160  14.373   8.253
 7735POPC   C3A36305  29.121  14.449   7.953
 7735POPC   C4A36306  29.160  14.414   7.653
 7735POPC   C1B36307  28.913  14.453   8.553
 7735POPC   C2B36308  28.920  14.466   8.253
 7735POPC   C3B36309  28.918  14.471   7.953
 7735POPC   C4B36310  28.903  14.457   7.653
 7736POPC   NC336311  32.996  10.536   9.453
 7736POPC   PO436312  33.001  10.501   9.153
 7736POPC   GL136313  33.063  10.537   8.853
 7736POPC   GL236314  33.099  10.406   8.853
 7736POPC   C1A36315  33.012  10.569   8.553
 7736POPC   D2A36316  33.025  10.541   8.253
 7736POPC   C3A36317  33.000  10.535   7.953
 7736POPC   C4A36318  33.037  10.550   7.653
 7736POPC   C1B36319  33.226  10.374   8.553
 7736POPC   C2B36320  33.250  10.394   8.253
 7736POPC   C3B36321  33.248  10.358   7.953
 7736POPC   C4B36322  33.220  10.342   7.653
 7737POPC   NC336323  17.541  10.551   9.453
 7737POPC   PO436324  17.472  10.483   9.153
 7737POPC   GL136325  17.482  10.527   8.853
 7737POPC   GL236326  17.565  10.598   8.853
 7737POPC   C1A36327  17.498  10.530   8.553
 7737POPC   D2A36328  17.509  10.482   8.253
 7737POPC   C3A36329  17.531  10.555   7.953
 7737POPC   C4A36330  17.486  10.512   7.653
 7737POPC   C1B36331  17.560  10.744   8.553
 7737POPC   C2B36332  17.599  10.787   8.253
 7737POPC   C3B36333  17.589  10.797   7.953
 7737POPC   C4B36334  17.566  10.806   7.653
 7738POPC   NC336335   5.127  23.720   9.453
 7738POPC   PO436336   5.101  23.751   9.153
 7738POPC   GL136337   5.106  23.705   8.853
 7738POPC   GL236338   4.977  23.717   8.853
 7738POPC   C1A36339   5.139  23.739   8.553
 7738POPC   D2A36340   5.115  23.753   8.253
 7738POPC   C3A36341   5.074  23.669   7.953
 7738POPC   C4A36342   5.108  23.762   7.653
 7738POPC   C1B36343   4.875  23.733   8.553
 7738POPC   C2B36344   4.796  23.725   8.253
 7738POPC   C3B36345   4.885  23.714   7.953
 7738POPC   C4B36346   4.878  23.773   7.653
 7739POPC   NC336347  10.566  18.326   9.453
 7739POPC   PO436348  10.491  18.292   9.153
 7739POPC   GL136349  10.512  18.303   8.853
 7739POPC   GL236350  10.472  18.126   8.853
 7739POPC   C1A36351  10.545  18.270   8.553
 7739POPC   D2A36352  10.566  18.256   8.253
 7739POPC   C3A36353  10.555  18.301   7.953
 7739POPC   C4A36354  10.505  18.274   7.653
 7739POPC   C1B36355  10.483  18.054   8.553
 7739POPC   C2B36356  10.511  18.043   8.253
 7739POPC   C3B36357  10.543  18.062   7.953
 7739POPC   C4B36358  10.535  18.041   7.653
 7740POPC   NC336359  12.082  18.251   9.453
 7740POPC   PO436360  12.057  18.260   9.153
 7740POPC   GL136361  12.106  18.286   8.853
 7740POPC   GL236362  11.991  18.362   8.853
 7740POPC   C1A36363  12.056  18.238   8.553
 7740POPC   D2A36364  12.087  18.251   8.253
 7740POPC   C3A36365  12.076  18.303   7.953
 7740POPC   C4A36366  12.120  18.278   7.653
 7740POPC   C1B36367  11.837  18.302   8.553
 7740POPC   C2B36368  11.792  18.399   8.253
 7740POPC   C3B36369  11.856  18.367   7.953
 7740POPC   C4B36370  11.836  18.358   7.653
 7741POPC   NC336371  41.532  42.335   9.453
 7741POPC   PO436372  41.590  42.328   9.153
 7741POPC   GL136373  41.579  42.305   8.853
 7741POPC   GL236374  41.524  42.212   8.853
 7741POPC   C1A36375  41.524  42.334   8.553
 7741POPC   D2A36376  41.519  42.372   8.253
 7741POPC   C3A36377  41.522  42.331   7.953
 7741POPC   C4A36378  41.543  42.295   7.653
 7741POPC   C1B36379  41.374  42.161   8.553
 7741POPC   C2B36380  41.411  42.098   8.253
 7741POPC   C3B36381  41.449  42.182   7.953
 7741POPC   C4B36382  41.433  42.125   7.653
 7742POPC   NC336383  30.661  28.349   9.453
 7742POPC   PO436384  30.713  28.372   9.153
 7742POPC   GL136385  30.649  28.380   8.853
 7742POPC   GL236386  30.732  28.421   8.853
 7742POPC   C1A36387  30.648  28.365   8.553
 7742POPC   D2A36388  30.703  28.376   8.253
 7742POPC   C3A36389  30.680  28.383   7.953
 7742POPC   C4A36390  30.696  28.393   7.653
 7742POPC   C1B36391  30.913  28.516   8.553
 7742POPC   C2B36392  30.860  28.542   8.253
 7742POPC   C3B36393  30.833  28.598   7.953
 7742POPC   C4B36394  30.816  28.520   7.653
 7743POPC   NC336395  26.863  20.656   9.453
 7743POPC   PO436396  26.806  20.641   9.153
 7743POPC   GL136397  26.805  20.655   8.853
 7743POPC   GL236398  26.702  20.654   8.853
 7743POPC   C1A36399  26.825  20.629   8.553
 7743POPC   D2A36400  26.791  20.637   8.253
 7743POPC   C3A36401  26.783  20.608   7.953
 7743POPC   C4A36402  26.858  20.617   7.653
 7743POPC   C1B36403  26.617  20.675   8.553
 7743POPC   C2B36404  26.607  20.731   8.253
 7743POPC   C3B36405  26.536  20.705   7.953
 7743POPC   C4B36406  26.574  20.690   7.653
 7744POPC   NC336407   5.103   8.238   9.453
 7744POPC   PO436408   5.082   8.165   9.153
 7744POPC   GL136409   5.139   8.240   8.853
 7744POPC   GL236410   5.199   8.086   8.853
 7744POPC   C1A36411   5.046   8.193   8.553
 7744POPC   D2A36412   5.117   8.195   8.253
 7744POPC   C3A36413   5.142   8.152   7.953
 7744POPC   C4A36414   5.068   8.184   7.653
 7744POPC   C1B36415   5.348   8.008   8.553
 7744POPC   C2B36416   5.300   8.083   8.253
 7744POPC   C3B36417   5.251   8.039   7.953
 7744POPC   C4B36418   5.348   8.063   7.653
 7745POPC   NC336419  35.332  26.077   9.453
 7745POPC   PO436420  35.318  26.020   9.153
 7745POPC   GL136421  35.314  26.049   8.853
 7745POPC   GL236422  35.282  25.918   8.853
 7745POPC   C1A36423  35.305  26.017   8.553
 7745POPC   D2A36424  35.392  25.995   8.253
 7745POPC   C3A36425  35.381  26.039   7.953
 7745POPC   C4A36426  35.311  26.073   7.653
 7745POPC   C1B36427  35.287  25.823   8.553
 7745POPC   C2B36428  35.268  25.835   8.253
 7745POPC   C3B36429  35.276  25.756   7.953
 7745POPC   C4B36430  35.305  25.777   7.653
 7746POPC   NC336431   4.320  34.550   9.453
 7746POPC   PO436432   4.338  34.583   9.153
 7746POPC   GL136433   4.297  34.614   8.853
 7746POPC   GL236434   4.362  34.454   8.853
 7746POPC   C1A36435   4.337  34.606   8.553
 7746POPC   D2A36436   4.340  34.609   8.253
 7746POPC   C3A36437   4.365  34.607   7.953
 7746POPC   C4A36438   4.365  34.608   7.653
 7746POPC   C1B36439   4.383  34.304   8.553
 7746POPC   C2B36440   4.455  34.354   8.253
 7746POPC   C3B36441   4.384  34.296   7.953
 7746POPC   C4B36442   4.410  34.382   7.653
 7747POPC   NC336443  12.033  22.980   9.453
 7747POPC   PO436444  12.063  22.973   9.153
 7747POPC   GL136445  12.103  22.951   8.853
 7747POPC   GL236446  12.112  23.002   8.853
 7747POPC   C1A36447  12.029  22.891   8.553
 7747POPC   D2A36448  12.036  22.896   8.253
 7747POPC   C3A36449  12.056  22.974   7.953
 7747POPC   C4A36450  12.055  22.931   7.653
 7747POPC   C1B36451  12.262  23.114   8.553
 7747POPC   C2B36452  12.225  23.138   8.253
 7747POPC   C3B36453  12.219  23.106   7.953
 7747POPC   C4B36454  12.258  23.181   7.653
 7748POPC   NC336455  26.801  44.706   9.453
 7748POPC   PO436456  26.795  44.653   9.153
 7748POPC   GL136457  26.794  44.679   8.853
 7748POPC   GL236458  26.971  44.655   8.853
 7748POPC   C1A36459  26.803  44.712   8.553
 7748POPC   D2A36460  26.861  44.615   8.253
 7748POPC   C3A36461  26.785  44.668   7.953
 7748POPC   C4A36462  26.854  44.653   7.653
 7748POPC   C1B36463  27.037  44.648   8.553
 7748POPC   C2B36464  27.089  44.660   8.253
 7748POPC   C3B36465  27.049  44.690   7.953
 7748POPC   C4B36466  27.072  44.632   7.653
 7749POPC   NC336467  31.469  44.633   9.453
 7749POPC   PO436468  31.511  44.621   9.153
 7749POPC   GL136469  31.501  44.653   8.853
 7749POPC   GL236470  31.610  44.767   8.853
 7749POPC   C1A36471  31.433  44.691   8.553
 7749POPC   D2A36472  31.437  44.684   8.253
 7749POPC   C3A36473  31.475  44.708   7.953
 7749POPC   C4A36474  31.452  44.663   7.653
 7749POPC   C1B36475  31.620  44.804   8.553
 7749POPC   C2B36476  31.681  44.809   8.253
 7749POPC   C3B36477  31.681  44.805   7.953
 7749POPC   C4B36478  31.699  44.837   7.653
 7750POPC   NC336479  30.658   4.310   9.453
 7750POPC   PO436480  30.683   4.325   9.153
 7750POPC   GL136481  30.661   4.363   8.853
 7750POPC   GL236482  30.652   4.418   8.853
 7750POPC   C1A36483  30.692   4.313   8.553
 7750POPC   D2A36484  30.663   4.309   8.253
 7750POPC   C3A36485  30.721   4.366   7.953
 7750POPC   C4A36486  30.732   4.276   7.653
 7750POPC   C1B36487  30.686   4.533   8.553
 7750POPC   C2B36488  30.751   4.609   8.253
 7750POPC   C3B36489  30.701   4.576   7.953
 7750POPC   C4B36490  30.719   4.609   7.653
 7751POPC   NC336491  26.798   2.783   9.453
 7751POPC   PO436492  26.835   2.769   9.153
 7751POPC   GL136493  26.787   2.802   8.853
 7751POPC   GL236494  26.726   2.873   8.853
 7751POPC   C1A36495  26.850   2.785   8.553
 7751POPC   D2A36496  26.804   2.801   8.253
 7751POPC   C3A36497  26.794   2.784   7.953
 7751POPC   C4A36498  26.804   2.730   7.653
 7751POPC   C1B36499  26.631   2.912   8.553
 7751POPC   C2B36500  26.603   2.835   8.253
 7751POPC   C3B36501  26.553   2.907   7.953
 7751POPC   C4B36502  26.567   2.862   7.653
 7752POPC   NC336503  15.178  26.823   9.453
 7752POPC   PO436504  15.142  26.797   9.153
 7752POPC   GL136505  15.148  26.801   8.853
 7752POPC   GL236506  15.158  26.724   8.853
 7752POPC   C1A36507  15.212  26.853   8.553
 7752POPC   D2A36508  15.229  26.786   8.253
 7752POPC   C3A36509  15.138  26.814   7.953
 7752POPC   C4A36510  15.136  26.796   7.653
 7752POPC   C1B36511  15.203  26.603   8.553
 7752POPC   C2B36512  15.191  26.576   8.253
 7752POPC   C3B36513  15.155  26.552   7.953
 7752POPC   C4B36514  15.172  26.535   7.653
 7753POPC   NC336515  24.450  19.073   9.453
 7753POPC   PO436516  24.490  19.099   9.153
 7753POPC   GL136517  24.469  19.035   8.853
 7753POPC   GL236518  24.588  19.187   8.853
 7753POPC   C1A36519  24.467  19.100   8.553
 7753POPC   D2A36520  24.512  19.056   8.253
 7753POPC   C3A36521  24.460  19.095   7.953
 7753POPC   C4A36522  24.464  19.014   7.653
 7753POPC   C1B36523  24.565  19.336   8.553
 7753POPC   C2B36524  24.543  19.323   8.253
 7753POPC   C3B36525  24.627  19.271   7.953
 7753POPC   C4B36526  24.635  19.292   7.653
 7754POPC   NC336527  40.805  36.934   9.453
 7754POPC   PO436528  40.734  36.929   9.153
 7754POPC   GL136529  40.766  36.869   8.853
 7754POPC   GL236530  40.679  36.982   8.853
 7754POPC   C1A36531  40.799  36.896   8.553
 7754POPC   D2A36532  40.753  36.925   8.253
 7754POPC   C3A36533  40.750  36.885   7.953
 7754POPC   C4A36534  40.815  36.943   7.653
 7754POPC   C1B36535  40.586  36.977   8.553
 7754POPC   C2B36536  40.582  37.044   8.253
 7754POPC   C3B36537  40.540  37.032   7.953
 7754POPC   C4B36538  40.562  36.958   7.653
 7755POPC   NC336539  29.151  29.138   9.453
 7755POPC   PO436540  29.127  29.144   9.153
 7755POPC   GL136541  29.101  29.183   8.853
 7755POPC   GL236542  29.006  29.249   8.853
 7755POPC   C1A36543  29.106  29.133   8.553
 7755POPC   D2A36544  29.145  29.117   8.253
 7755POPC   C3A36545  29.119  29.156   7.953
 7755POPC   C4A36546  29.103  29.166   7.653
 7755POPC   C1B36547  28.900  29.266   8.553
 7755POPC   C2B36548  28.872  29.239   8.253
 7755POPC   C3B36549  28.928  29.269   7.953
 7755POPC   C4B36550  28.950  29.247   7.653
 7756POPC   NC336551  22.915  14.375   9.453
 7756POPC   PO436552  22.911  14.409   9.153
 7756POPC   GL136553  22.950  14.450   8.853
 7756POPC   GL236554  23.039  14.487   8.853
 7756POPC   C1A36555  22.897  14.403   8.553
 7756POPC   D2A36556  22.891  14.380   8.253
 7756POPC   C3A36557  22.931  14.410   7.953
 7756POPC   C4A36558  22.959  14.433   7.653
 7756POPC   C1B36559  23.032  14.611   8.553
 7756POPC   C2B36560  23.058  14.576   8.253
 7756POPC   C3B36561  23.007  14.583   7.953
 7756POPC   C4B36562  23.040  14.587   7.653
 7757POPC   NC336563  19.866  39.210   9.453
 7757POPC   PO436564  19.833  39.232   9.153
 7757POPC   GL136565  19.853  39.270   8.853
 7757POPC   GL236566  19.865  39.129   8.853
 7757POPC   C1A36567  19.789  39.197   8.553
 7757POPC   D2A36568  19.814  39.210   8.253
 7757POPC   C3A36569  19.873  39.258   7.953
 7757POPC   C4A36570  19.879  39.224   7.653
 7757POPC   C1B36571  19.831  38.988   8.553
 7757POPC   C2B36572  19.893  38.941   8.253
 7757POPC   C3B36573  19.871  38.997   7.953
 7757POPC   C4B36574  19.853  39.016   7.653
 7758POPC   NC336575  19.802  43.903   9.453
 7758POPC   PO436576  19.870  43.886   9.153
 7758POPC   GL136577  19.807  43.846   8.853
 7758POPC   GL236578  19.943  43.779   8.853
 7758POPC   C1A36579  19.831  43.843   8.553
 7758POPC   D2A36580  19.866  43.916   8.253
 7758POPC   C3A36581  19.798  43.879   7.953
 7758POPC   C4A36582  19.832  43.844   7.653
 7758POPC   C1B36583  20.103  43.774   8.553
 7758POPC   C2B36584  20.021  43.752   8.253
 7758POPC   C3B36585  20.092  43.779   7.953
 7758POPC   C4B36586  20.083  43.770   7.653
 7759POPC   NC336587  10.545  30.746   9.453
 7759POPC   PO436588  10.526  30.648   9.153
 7759POPC   GL136589  10.538  30.715   8.853
 7759POPC   GL236590  10.385  30.737   8.853
 7759POPC   C1A36591  10.568  30.715   8.553
 7759POPC   D2A36592  10.487  30.728   8.253
 7759POPC   C3A36593  10.489  30.733   7.953
 7759POPC   C4A36594  10.565  30.709   7.653
 7759POPC   C1B36595  10.327  30.791   8.553
 7759POPC   C2B36596  10.287  30.798   8.253
 7759POPC   C3B36597  10.297  30.769   7.953
 7759POPC   C4B36598  10.251  30.756   7.653
 7760POPC   NC336599  16.776  26.848   9.453
 7760POPC   PO436600  16.707  26.850   9.153
 7760POPC   GL136601  16.746  26.843   8.853
 7760POPC   GL236602  16.812  26.802   8.853
 7760POPC   C1A36603  16.752  26.786   8.553
 7760POPC   D2A36604  16.731  26.855   8.253
 7760POPC   C3A36605  16.698  26.783   7.953
 7760POPC   C4A36606  16.755  26.849   7.653
 7760POPC   C1B36607  16.941  26.750   8.553
 7760POPC   C2B36608  17.020  26.783   8.253
 7760POPC   C3B36609  16.965  26.829   7.953
 7760POPC   C4B36610  16.952  26.808   7.653
 7761POPC   NC336611  29.106   8.932   9.453
 7761POPC   PO436612  29.126   8.957   9.153
 7761POPC   GL136613  29.141   8.950   8.853
 7761POPC   GL236614  29.169   9.095   8.853
 7761POPC   C1A36615  29.122   8.984   8.553
 7761POPC   D2A36616  29.117   8.981   8.253
 7761POPC   C3A36617  29.108   8.928   7.953
 7761POPC   C4A36618  29.124   9.019   7.653
 7761POPC   C1B36619  29.089   9.250   8.553
 7761POPC   C2B36620  29.149   9.225   8.253
 7761POPC   C3B36621  29.059   9.174   7.953
 7761POPC   C4B36622  29.077   9.269   7.653
 7762POPC   NC336623  44.664  32.228   9.453
 7762POPC   PO436624  44.682  32.245   9.153
 7762POPC   GL136625  44.640  32.227   8.853
 7762POPC   GL236626  44.506  32.242   8.853
 7762POPC   C1A36627  44.693  32.264   8.553
 7762POPC   D2A36628  44.669  32.257   8.253
 7762POPC   C3A36629  44.678  32.238   7.953
 7762POPC   C4A36630  44.690  32.283   7.653
 7762POPC   C1B36631  44.481  32.140   8.553
 7762POPC   C2B36632  44.448  32.136   8.253
 7762POPC   C3B36633  44.405  32.153   7.953
 7762POPC   C4B36634  44.469  32.183   7.653
 7763POPC   NC336635  19.848   6.682   9.453
 7763POPC   PO436636  19.800   6.684   9.153
 7763POPC   GL136637  19.801   6.595   8.853
 7763POPC   GL236638  19.972   6.524   8.853
 7763POPC   C1A36639  19.796   6.608   8.553
 7763POPC   D2A36640  19.849   6.683   8.253
 7763POPC   C3A36641  19.813   6.635   7.953
 7763POPC   C4A36642  19.850   6.637   7.653
 7763POPC   C1B36643  20.061   6.499   8.553
 7763POPC   C2B36644  19.990   6.526   8.253
 7763POPC   C3B36645  20.003   6.487   7.953
 7763POPC   C4B36646  19.996   6.473   7.653
 7764POPC   NC336647  43.854  29.948   9.453
 7764POPC   PO436648  43.906  29.950   9.153
 7764POPC   GL136649  43.851  29.931   8.853
 7764POPC   GL236650  44.017  29.934   8.853
 7764POPC   C1A36651  43.844  29.954   8.553
 7764POPC   D2A36652  43.901  29.911   8.253
 7764POPC   C3A36653  43.918  29.915   7.953
 7764POPC   C4A36654  43.914  29.960   7.653
 7764POPC   C1B36655  44.127  29.996   8.553
 7764POPC   C2B36656  44.121  29.988   8.253
 7764POPC   C3B36657  44.114  30.038   7.953
 7764POPC   C4B36658  44.159  29.976   7.653
 7765POPC   NC336659  36.892  44.686   9.453
 7765POPC   PO436660  36.896  44.690   9.153
 7765POPC   GL136661  36.893  44.637   8.853
 7765POPC   GL236662  37.038  44.646   8.853
 7765POPC   C1A36663  36.895  44.648   8.553
 7765POPC   D2A36664  36.871  44.646   8.253
 7765POPC   C3A36665  36.855  44.659   7.953
 7765POPC   C4A36666  36.933  44.635   7.653
 7765POPC   C1B36667  37.197  44.666   8.553
 7765POPC   C2B36668  37.154  44.633   8.253
 7765POPC   C3B36669  37.130  44.636   7.953
 7765POPC   C4B36670  37.108  44.686   7.653
 7766POPC   NC336671   9.722  34.616   9.453
 7766POPC   PO436672   9.699  34.533   9.153
 7766POPC   GL136673   9.726  34.528   8.853
 7766POPC   GL236674   9.762  34.475   8.853
 7766POPC   C1A36675   9.797  34.595   8.553
 7766POPC   D2A36676   9.754  34.594   8.253
 7766POPC   C3A36677   9.757  34.582   7.953
 7766POPC   C4A36678   9.745  34.586   7.653
 7766POPC   C1B36679   9.729  34.305   8.553
 7766POPC   C2B36680   9.748  34.328   8.253
 7766POPC   C3B36681   9.822  34.299   7.953
 7766POPC   C4B36682   9.728  34.294   7.653
 7767POPC   NC336683  22.163  18.281   9.453
 7767POPC   PO436684  22.198  18.320   9.153
 7767POPC   GL136685  22.130  18.305   8.853
 7767POPC   GL236686  22.307  18.237   8.853
 7767POPC   C1A36687  22.208  18.252   8.553
 7767POPC   D2A36688  22.114  18.314   8.253
 7767POPC   C3A36689  22.179  18.267   7.953
 7767POPC   C4A36690  22.190  18.254   7.653
 7767POPC   C1B36691  22.353  18.113   8.553
 7767POPC   C2B36692  22.423  18.185   8.253
 7767POPC   C3B36693  22.404  18.193   7.953
 7767POPC   C4B36694  22.368  18.164   7.653
 7768POPC   NC336695  25.244  12.026   9.453
 7768POPC   PO436696  25.294  12.114   9.153
 7768POPC   GL136697  25.310  12.032   8.853
 7768POPC   GL236698  25.392  12.200   8.853
 7768POPC   C1A36699  25.299  12.114   8.553
 7768POPC   D2A36700  25.250  12.050   8.253
 7768POPC   C3A36701  25.262  12.117   7.953
 7768POPC   C4A36702  25.300  12.098   7.653
 7768POPC   C1B36703  25.463  12.221   8.553
 7768POPC   C2B36704  25.403  12.258   8.253
 7768POPC   C3B36705  25.410  12.212   7.953
 7768POPC   C4B36706  25.393  12.213   7.653
 7769POPC   NC336707   7.406  12.814   9.453
 7769POPC   PO436708   7.391  12.853   9.153
 7769POPC   GL136709   7.442  12.811   8.853
 7769POPC   GL236710   7.520  12.886   8.853
 7769POPC   C1A36711   7.432  12.879   8.553
 7769POPC   D2A36712   7.466  12.846   8.253
 7769POPC   C3A36713   7.452  12.863   7.953
 7769POPC   C4A36714   7.428  12.857   7.653
 7769POPC   C1B36715   7.676  12.824   8.553
 7769POPC   C2B36716   7.681  12.794   8.253
 7769POPC   C3B36717   7.709  12.817   7.953
 7769POPC   C4B36718   7.717  12.796   7.653
 7770POPC   NC336719  36.928  38.441   9.453
 7770POPC   PO436720  36.921  38.428   9.153
 7770POPC   GL136721  36.897  38.410   8.853
 7770POPC   GL236722  36.806  38.317   8.853
 7770POPC   C1A36723  36.876  38.481   8.553
 7770POPC   D2A36724  36.913  38.467   8.253
 7770POPC   C3A36725  36.908  38.502   7.953
 7770POPC   C4A36726  36.899  38.444   7.653
 7770POPC   C1B36727  36.765  38.261   8.553
 7770POPC   C2B36728  36.743  38.274   8.253
 7770POPC   C3B36729  36.753  38.229   7.953
 7770POPC   C4B36730  36.816  38.221   7.653
 7771POPC   NC336731  18.259  36.173   9.453
 7771POPC   PO436732  18.330  36.079   9.153
 7771POPC   GL136733  18.259  36.129   8.853
 7771POPC   GL236734  18.243  36.034   8.853
 7771POPC   C1A36735  18.265  36.145   8.553
 7771POPC   D2A36736  18.284  36.154   8.253
 7771POPC   C3A36737  18.246  36.103   7.953
 7771POPC   C4A36738  18.305  36.121   7.653
 7771POPC   C1B36739  18.144  35.896   8.553
 7771POPC   C2B36740  18.127  35.970   8.253
 7771POPC   C3B36741  18.087  35.933   7.953
 7771POPC   C4B36742  18.159  35.890   7.653
 7772POPC   NC336743   3.553  19.017   9.453
 7772POPC   PO436744   3.497  19.097   9.153
 7772POPC   GL136745   3.514  19.030   8.853
 7772POPC   GL236746   3.606  19.110   8.853
 7772POPC   C1A36747   3.495  19.049   8.553
 7772POPC   D2A36748   3.491  19.040   8.253
 7772POPC   C3A36749   3.525  19.050   7.953
 7772POPC   C4A36750   3.562  19.059   7.653
 7772POPC   C1B36751   3.783  19.181   8.553
 7772POPC   C2B36752   3.715  19.251   8.253
 7772POPC   C3B36753   3.711  19.259   7.953
 7772POPC   C4B36754   3.765  19.230   7.653
 7773POPC   NC336755  33.758   9.742   9.453
 7773POPC   PO436756  33.774   9.711   9.153
 7773POPC   GL136757  33.757   9.709   8.853
 7773POPC   GL236758  33.723   9.760   8.853
 7773POPC   C1A36759  33.802   9.708   8.553
 7773POPC   D2A36760  33.767   9.724   8.253
 7773POPC   C3A36761  33.845   9.711   7.953
 7773POPC   C4A36762  33.812   9.793   7.653
 7773POPC   C1B36763  33.543   9.785   8.553
 7773POPC   C2B36764  33.537   9.760   8.253
 7773POPC   C3B36765  33.531   9.740   7.953
 7773POPC   C4B36766  33.571   9.712   7.653
 7774POPC   NC336767  20.615   3.522   9.453
 7774POPC   PO436768  20.598   3.582   9.153
 7774POPC   GL136769  20.629   3.561   8.853
 7774POPC   GL236770  20.555   3.615   8.853
 7774POPC   C1A36771  20.602   3.561   8.553
 7774POPC   D2A36772  20.615   3.530   8.253
 7774POPC   C3A36773  20.586   3.586   7.953
 7774POPC   C4A36774  20.570   3.578   7.653
 7774POPC   C1B36775  20.421   3.718   8.553
 7774POPC   C2B36776  20.414   3.754   8.253
 7774POPC   C3B36777  20.466   3.689   7.953
 7774POPC   C4B36778  20.436   3.724   7.653
 7775POPC   NC336779  29.103  39.185   9.453
 7775POPC   PO436780  29.130  39.202   9.153
 7775POPC   GL136781  29.188  39.257   8.853
 7775POPC   GL236782  29.091  39.306   8.853
 7775POPC   C1A36783  29.185  39.234   8.553
 7775POPC   D2A36784  29.155  39.245   8.253
 7775POPC   C3A36785  29.168  39.256   7.953
 7775POPC   C4A36786  29.165  39.259   7.653
 7775POPC   C1B36787  29.010  39.383   8.553
 7775POPC   C2B36788  28.962  39.454   8.253
 7775POPC   C3B36789  28.996  39.468   7.953
 7775POPC   C4B36790  28.959  39.443   7.653
 7776POPC   NC336791  16.714  32.268   9.453
 7776POPC   PO436792  16.683  32.274   9.153
 7776POPC   GL136793  16.728  32.236   8.853
 7776POPC   GL236794  16.685  32.384   8.853
 7776POPC   C1A36795  16.758  32.222   8.553
 7776POPC   D2A36796  16.692  32.205   8.253
 7776POPC   C3A36797  16.714  32.249   7.953
 7776POPC   C4A36798  16.698  32.278   7.653
 7776POPC   C1B36799  16.704  32.543   8.553
 7776POPC   C2B36800  16.718  32.502   8.253
 7776POPC   C3B36801  16.768  32.456   7.953
 7776POPC   C4B36802  16.751  32.495   7.653
 7777POPC   NC336803  33.038  29.120   9.453
 7777POPC   PO436804  33.004  29.107   9.153
 7777POPC   GL136805  32.990  29.170   8.853
 7777POPC   GL236806  32.863  29.080   8.853
 7777POPC   C1A36807  32.997  29.176   8.553
 7777POPC   D2A36808  33.022  29.102   8.253
 7777POPC   C3A36809  33.025  29.102   7.953
 7777POPC   C4A36810  33.011  29.096   7.653
 7777POPC   C1B36811  32.801  29.067   8.553
 7777POPC   C2B36812  32.774  29.129   8.253
 7777POPC   C3B36813  32.807  29.062   7.953
 7777POPC   C4B36814  32.745  29.113   7.653
 7778POPC   NC336815   8.158  26.068   9.453
 7778POPC   PO436816   8.209  26.063   9.153
 7778POPC   GL136817   8.197  26.048   8.853
 7778POPC   GL236818   8.285  26.114   8.853
 7778POPC   C1A36819   8.149  26.003   8.553
 7778POPC   D2A36820   8.212  26.076   8.253
 7778POPC   C3A36821   8.243  26.019   7.953
 7778POPC   C4A36822   8.160  26.063   7.653
 7778POPC   C1B36823   8.413  26.268   8.553
 7778POPC   C2B36824   8.391  26.261   8.253
 7778POPC   C3B36825   8.330  26.216   7.953
 7778POPC   C4B36826   8.362  26.187   7.653
 7779POPC   NC336827   2.780   3.574   9.453
 7779POPC   PO436828   2.760   3.507   9.153
 7779POPC   GL136829   2.750   3.546   8.853
 7779POPC   GL236830   2.885   3.511   8.853
 7779POPC   C1A36831   2.737   3.587   8.553
 7779POPC   D2A36832   2.767   3.583   8.253
 7779POPC   C3A36833   2.748   3.529   7.953
 7779POPC   C4A36834   2.809   3.526   7.653
 7779POPC   C1B36835   2.974   3.458   8.553
 7779POPC   C2B36836   3.006   3.506   8.253
 7779POPC   C3B36837   3.050   3.504   7.953
 7779POPC   C4B36838   3.025   3.514   7.653
 7780POPC   NC336839   7.438  36.860   9.453
 7780POPC   PO436840   7.394  36.922   9.153
 7780POPC   GL136841   7.470  36.890   8.853
 7780POPC   GL236842   7.569  36.853   8.853
 7780POPC   C1A36843   7.398  36.916   8.553
 7780POPC   D2A36844   7.394  36.923   8.253
 7780POPC   C3A36845   7.376  36.937   7.953
 7780POPC   C4A36846   7.400  36.942   7.653
 7780POPC   C1B36847   7.624  36.805   8.553
 7780POPC   C2B36848   7.649  36.734   8.253
 7780POPC   C3B36849   7.656  36.732   7.953
 7780POPC   C4B36850   7.654  36.731   7.653
 7781POPC   NC336851  32.977  16.721   9.453
 7781POPC   PO436852  33.004  16.766   9.153
 7781POPC   GL136853  33.009  16.739   8.853
 7781POPC   GL236854  33.146  16.623   8.853
 7781POPC   C1A36855  33.031  16.684   8.553
 7781POPC   D2A36856  32.994  16.728   8.253
 7781POPC   C3A36857  33.058  16.749   7.953
 7781POPC   C4A36858  33.045  16.719   7.653
 7781POPC   C1B36859  33.267  16.555   8.553
 7781POPC   C2B36860  33.217  16.569   8.253
 7781POPC   C3B36861  33.179  16.613   7.953
 7781POPC   C4B36862  33.229  16.581   7.653
 7782POPC   NC336863   0.422  35.327   9.453
 7782POPC   PO436864   0.397  35.397   9.153
 7782POPC   GL136865   0.432  35.395   8.853
 7782POPC   GL236866   0.387  35.209   8.853
 7782POPC   C1A36867   0.469  35.318   8.553
 7782POPC   D2A36868   0.417  35.384   8.253
 7782POPC   C3A36869   0.389  35.389   7.953
 7782POPC   C4A36870   0.418  35.372   7.653
 7782POPC   C1B36871   0.271  35.181   8.553
 7782POPC   C2B36872   0.291  35.195   8.253
 7782POPC   C3B36873   0.260  35.194   7.953
 7782POPC   C4B36874   0.295  35.196   7.653
 7783POPC   NC336875  12.060  33.007   9.453
 7783POPC   PO436876  12.106  32.984   9.153
 7783POPC   GL136877  12.055  33.071   8.853
 7783POPC   GL236878  11.967  33.099   8.853
 7783POPC   C1A36879  12.124  32.996   8.553
 7783POPC   D2A36880  12.121  32.985   8.253
 7783POPC   C3A36881  12.080  33.034   7.953
 7783POPC   C4A36882  12.123  33.022   7.653
 7783POPC   C1B36883  11.891  33.179   8.553
 7783POPC   C2B36884  11.936  33.213   8.253
 7783POPC   C3B36885  11.848  33.147   7.953
 7783POPC   C4B36886  11.879  33.209   7.653
 7784POPC   NC336887  42.375   2.738   9.453
 7784POPC   PO436888  42.314   2.794   9.153
 7784POPC   GL136889  42.327   2.772   8.853
 7784POPC   GL236890  42.318   2.859   8.853
 7784POPC   C1A36891  42.335   2.798   8.553
 7784POPC   D2A36892  42.369   2.751   8.253
 7784POPC   C3A36893  42.310   2.753   7.953
 7784POPC   C4A36894  42.334   2.799   7.653
 7784POPC   C1B36895  42.310   3.053   8.553
 7784POPC   C2B36896  42.290   3.041   8.253
 7784POPC   C3B36897  42.293   3.045   7.953
 7784POPC   C4B36898  42.319   2.988   7.653
 7785POPC   NC336899  43.124  26.052   9.453
 7785POPC   PO436900  43.157  26.020   9.153
 7785POPC   GL136901  43.157  26.081   8.853
 7785POPC   GL236902  43.177  25.885   8.853
 7785POPC   C1A36903  43.093  26.044   8.553
 7785POPC   D2A36904  43.065  26.049   8.253
 7785POPC   C3A36905  43.131  26.077   7.953
 7785POPC   C4A36906  43.100  26.081   7.653
 7785POPC   C1B36907  43.202  25.841   8.553
 7785POPC   C2B36908  43.264  25.786   8.253
 7785POPC   C3B36909  43.189  25.791   7.953
 7785POPC   C4B36910  43.209  25.829   7.653
 7786POPC   NC336911  34.602  11.286   9.453
 7786POPC   PO436912  34.613  11.291   9.153
 7786POPC   GL136913  34.559  11.271   8.853
 7786POPC   GL236914  34.525  11.332   8.853
 7786POPC   C1A36915  34.593  11.265   8.553
 7786POPC   D2A36916  34.579  11.313   8.253
 7786POPC   C3A36917  34.586  11.277   7.953
 7786POPC   C4A36918  34.593  11.335   7.653
 7786POPC   C1B36919  34.386  11.444   8.553
 7786POPC   C2B36920  34.419  11.459   8.253
 7786POPC   C3B36921  34.333  11.438   7.953
 7786POPC   C4B36922  34.409  11.490   7.653
 7787POPC   NC336923  30.717  23.736   9.453
 7787POPC   PO436924  30.674  23.722   9.153
 7787POPC   GL136925  30.690  23.698   8.853
 7787POPC   GL236926  30.675  23.552   8.853
 7787POPC   C1A36927  30.744  23.741   8.553
 7787POPC   D2A36928  30.702  23.754   8.253
 7787POPC   C3A36929  30.649  23.759   7.953
 7787POPC   C4A36930  30.739  23.741   7.653
 7787POPC   C1B36931  30.708  23.437   8.553
 7787POPC   C2B36932  30.697  23.447   8.253
 7787POPC   C3B36933  30.710  23.433   7.953
 7787POPC   C4B36934  30.709  23.511   7.653
 7788POPC   NC336935  44.691  44.711   9.453
 7788POPC   PO436936  44.673  44.676   9.153
 7788POPC   GL136937  44.689  44.652   8.853
 7788POPC   GL236938  44.756  44.596   8.853
 7788POPC   C1A36939  44.654  44.649   8.553
 7788POPC   D2A36940  44.659  44.664   8.253
 7788POPC   C3A36941  44.710  44.659   7.953
 7788POPC   C4A36942  44.651  44.654   7.653
 7788POPC   C1B36943  44.842  44.533   8.553
 7788POPC   C2B36944  44.922  44.573   8.253
 7788POPC   C3B36945  44.882  44.493   7.953
 7788POPC   C4B36946  44.870  44.544   7.653
 7789POPC   NC336947  22.936   8.924   9.453
 7789POPC   PO436948  22.947   8.976   9.153
 7789POPC   GL136949  22.911   8.935   8.853
 7789POPC   GL236950  22.821   8.987   8.853
 7789POPC   C1A36951  22.978   8.934   8.553
 7789POPC   D2A36952  22.927   9.004   8.253
 7789POPC   C3A36953  22.970   9.022   7.953
 7789POPC   C4A36954  22.967   8.985   7.653
 7789POPC   C1B36955  22.688   8.954   8.553
 7789POPC   C2B36956  22.723   8.998   8.253
 7789POPC   C3B36957  22.671   8.979   7.953
 7789POPC   C4B36958  22.650   8.969   7.653
 7790POPC   NC336959  15.183  28.414   9.453
 7790POPC   PO436960  15.176  28.407   9.153
 7790POPC   GL136961  15.132  28.343   8.853
 7790POPC   GL236962  15.101  28.487   8.853
 7790POPC   C1A36963  15.216  28.376   8.553
 7790POPC   D2A36964  15.227  28.383   8.253
 7790POPC   C3A36965  15.199  28.369   7.953
 7790POPC   C4A36966  15.159  28.349   7.653
 7790POPC   C1B36967  14.995  28.508   8.553
 7790POPC   C2B36968  14.967  28.569   8.253
 7790POPC   C3B36969  14.981  28.529   7.953
 7790POPC   C4B36970  14.998  28.529   7.653
 7791POPC   NC336971  26.815  25.298   9.453
 7791POPC   PO436972  26.783  25.220   9.153
 7791POPC   GL136973  26.825  25.283   8.853
 7791POPC   GL236974  26.757  25.359   8.853
 7791POPC   C1A36975  26.863  25.276   8.553
 7791POPC   D2A36976  26.866  25.248   8.253
 7791POPC   C3A36977  26.784  25.243   7.953
 7791POPC   C4A36978  26.788  25.225   7.653
 7791POPC   C1B36979  26.773  25.495   8.553
 7791POPC   C2B36980  26.757  25.464   8.253
 7791POPC   C3B36981  26.796  25.479   7.953
 7791POPC   C4B36982  26.817  25.471   7.653
 7792POPC   NC336983   7.433  13.610   9.453
 7792POPC   PO436984   7.397  13.581   9.153
 7792POPC   GL136985   7.460  13.615   8.853
 7792POPC   GL236986   7.527  13.575   8.853
 7792POPC   C1A36987   7.443  13.639   8.553
 7792POPC   D2A36988   7.398  13.601   8.253
 7792POPC   C3A36989   7.445  13.653   7.953
 7792POPC   C4A36990   7.451  13.597   7.653
 7792POPC   C1B36991   7.611  13.506   8.553
 7792POPC   C2B36992   7.692  13.524   8.253
 7792POPC   C3B36993   7.634  13.545   7.953
 7792POPC   C4B36994   7.679  13.509   7.653
 7793POPC   NC336995  16.770  41.531   9.453
 7793POPC   PO436996  16.757  41.526   9.153
 7793POPC   GL136997  16.756  41.539   8.853
 7793POPC   GL236998  16.642  41.636   8.853
 7793POPC   C1A36999  16.724  41.512   8.553
 7793POPC   D2A37000  16.746  41.601   8.253
 7793POPC   C3A37001  16.768  41.524   7.953
 7793POPC   C4A37002  16.703  41.572   7.653
 7793POPC   C1B37003  16.490  41.753   8.553
 7793POPC   C2B37004  16.505  41.749   8.253
 7793POPC   C3B37005  16.487  41.692   7.953
 7793POPC   C4B37006  16.535  41.702   7.653
 7794POPC   NC337007  17.517  32.220   9.453
 7794POPC   PO437008  17.557  32.296   9.153
 7794POPC   GL137009  17.471  32.292   8.853
 7794POPC   GL237010  17.397  32.325   8.853
 7794POPC   C1A37011  17.508  32.269   8.553
 7794POPC   D2A37012  17.512  32.276   8.253
 7794POPC   C3A37013  17.497  32.287   7.953
 7794POPC   C4A37014  17.505  32.256   7.653
 7794POPC   C1B37015  17.262  32.410   8.553
 7794POPC   C2B37016  17.300  32.427   8.253
 7794POPC   C3B37017  17.340  32.346   7.953
 7794POPC   C4B37018  17.318  32.406   7.653
 7795POPC   NC337019  37.667  14.384   9.453
 7795POPC   PO437020  37.640  14.438   9.153
 7795POPC   GL137021  37.686  14.372   8.853
 7795POPC   GL237022  37.584  14.457   8.853
 7795POPC   C1A37023  37.713  14.382   8.553
 7795POPC   D2A37024  37.711  14.364   8.253
 7795POPC   C3A37025  37.679  14.378   7.953
 7795POPC   C4A37026  37.640  14.366   7.653
 7795POPC   C1B37027  37.527  14.620   8.553
 7795POPC   C2B37028  37.503  14.590   8.253
 7795POPC   C3B37029  37.475  14.582   7.953
 7795POPC   C4B37030  37.503  14.606   7.653
 7796POPC   NC337031   2.755  28.394   9.453
 7796POPC   PO437032   2.746  28.364   9.153
 7796POPC   GL137033   2.734  28.412   8.853
 7796POPC   GL237034   2.806  28.478   8.853
 7796POPC   C1A37035   2.756  28.406   8.553
 7796POPC   D2A37036   2.731  28.385   8.253
 7796POPC   C3A37037   2.742  28.339   7.953
 7796POPC   C4A37038   2.744  28.406   7.653
 7796POPC   C1B37039   2.788  28.576   8.553
 7796POPC   C2B37040   2.822  28.581   8.253
 7796POPC   C3B37041   2.785  28.577   7.953
 7796POPC   C4B37042   2.828  28.634   7.653
 7797POPC   NC337043  12.828  20.628   9.453
 7797POPC   PO437044  12.806  20.649   9.153
 7797POPC   GL137045  12.854  20.629   8.853
 7797POPC   GL237046  12.910  20.529   8.853
 7797POPC   C1A37047  12.845  20.610   8.553
 7797POPC   D2A37048  12.812  20.574   8.253
 7797POPC   C3A37049  12.880  20.598   7.953
 7797POPC   C4A37050  12.815  20.574   7.653
 7797POPC   C1B37051  12.938  20.375   8.553
 7797POPC   C2B37052  12.948  20.403   8.253
 7797POPC   C3B37053  13.019  20.361   7.953
 7797POPC   C4B37054  13.022  20.348   7.653
 7798POPC   NC337055   2.732   0.448   9.453
 7798POPC   PO437056   2.776   0.483   9.153
 7798POPC   GL137057   2.747   0.447   8.853
 7798POPC   GL237058   2.612   0.450   8.853
 7798POPC   C1A37059   2.787   0.452   8.553
 7798POPC   D2A37060   2.792   0.488   8.253
 7798POPC   C3A37061   2.763   0.401   7.953
 7798POPC   C4A37062   2.773   0.395   7.653
 7798POPC   C1B37063   2.563   0.581   8.553
 7798POPC   C2B37064   2.582   0.586   8.253
 7798POPC   C3B37065   2.512   0.587   7.953
 7798POPC   C4B37066   2.501   0.560   7.653
 7799POPC   NC337067  28.345   1.993   9.453
 7799POPC   PO437068  28.403   2.013   9.153
 7799POPC   GL137069  28.346   1.988   8.853
 7799POPC   GL237070  28.261   2.039   8.853
 7799POPC   C1A37071  28.371   2.019   8.553
 7799POPC   D2A37072  28.378   1.976   8.253
 7799POPC   C3A37073  28.380   2.034   7.953
 7799POPC   C4A37074  28.383   1.962   7.653
 7799POPC   C1B37075  28.220   2.188   8.553
 7799POPC   C2B37076  28.203   2.175   8.253
 7799POPC   C3B37077  28.177   2.160   7.953
 7799POPC   C4B37078  28.133   2.187   7.653
 7800POPC   NC337079  32.250  13.581   9.453
 7800POPC   PO437080  32.231  13.616   9.153
 7800POPC   GL137081  32.293  13.648   8.853
 7800POPC   GL237082  32.365  13.740   8.853
 7800POPC   C1A37083  32.270  13.650   8.553
 7800POPC   D2A37084  32.203  13.624   8.253
 7800POPC   C3A37085  32.266  13.627   7.953
 7800POPC   C4A37086  32.252  13.642   7.653
 7800POPC   C1B37087  32.474  13.747   8.553
 7800POPC   C2B37088  32.395  13.798   8.253
 7800POPC   C3B37089  32.425  13.815   7.953
 7800POPC   C4B37090  32.398  13.774   7.653
 7801POPC   NC337091  36.094  17.460   9.453
 7801POPC   PO437092  36.112  17.459   9.153
 7801POPC   GL137093  36.159  17.485   8.853
 7801POPC   GL237094  36.071  17.409   8.853
 7801POPC   C1A37095  36.152  17.527   8.553
 7801POPC   D2A37096  36.118  17.501   8.253
 7801POPC   C3A37097  36.168  17.461   7.953
 7801POPC   C4A37098  36.167  17.470   7.653
 7801POPC   C1B37099  36.006  17.275   8.553
 7801POPC   C2B37100  36.057  17.312   8.253
 7801POPC   C3B37101  36.057  17.289   7.953
 7801POPC   C4B37102  36.027  17.264   7.653
 7802POPC   NC337103  40.041  30.719   9.453
 7802POPC   PO437104  40.012  30.689   9.153
 7802POPC   GL137105  39.987  30.728   8.853
 7802POPC   GL237106  40.146  30.623   8.853
 7802POPC   C1A37107  40.053  30.745   8.553
 7802POPC   D2A37108  40.030  30.704   8.253
 7802POPC   C3A37109  40.016  30.729   7.953
 7802POPC   C4A37110  40.010  30.663   7.653
 7802POPC   C1B37111  40.191  30.594   8.553
 7802POPC   C2B37112  40.192  30.597   8.253
 7802POPC   C3B37113  40.176  30.515   7.953
 7802POPC   C4B37114  40.200  30.604   7.653
 7803POPC   NC337115  11.316  26.025   9.453
 7803POPC   PO437116  11.290  26.014   9.153
 7803POPC   GL137117  11.286  26.020   8.853
 7803POPC   GL237118  11.253  26.184   8.853
 7803POPC   C1A37119  11.317  26.014   8.553
 7803POPC   D2A37120  11.304  26.061   8.253
 7803POPC   C3A37121  11.298  26.062   7.953
 7803POPC   C4A37122  11.339  26.070   7.653
 7803POPC   C1B37123  11.177  26.246   8.553
 7803POPC   C2B37124  11.132  26.230   8.253
 7803POPC   C3B37125  11.150  26.195   7.953
 7803POPC   C4B37126  11.117  26.259   7.653
 7804POPC   NC337127   9.011  21.348   9.453
 7804POPC   PO437128   9.012  21.366   9.153
 7804POPC   GL137129   8.975  21.419   8.853
 7804POPC   GL237130   8.972  21.505   8.853
 7804POPC   C1A37131   8.990  21.417   8.553
 7804POPC   D2A37132   8.938  21.371   8.253
 7804POPC   C3A37133   8.930  21.387   7.953
 7804POPC   C4A37134   9.000  21.422   7.653
 7804POPC   C1B37135   8.906  21.646   8.553
 7804POPC   C2B37136   8.930  21.582   8.253
 7804POPC   C3B37137   8.917  21.611   7.953
 7804POPC   C4B37138   8.896  21.660   7.653
 7805POPC   NC337139  37.676  29.925   9.453
 7805POPC   PO437140  37.718  29.952   9.153
 7805POPC   GL137141  37.697  29.913   8.853
 7805POPC   GL237142  37.687  29.762   8.853
 7805POPC   C1A37143  37.711  29.884   8.553
 7805POPC   D2A37144  37.680  29.943   8.253
 7805POPC   C3A37145  37.680  29.874   7.953
 7805POPC   C4A37146  37.704  29.921   7.653
 7805POPC   C1B37147  37.722  29.715   8.553
 7805POPC   C2B37148  37.759  29.650   8.253
 7805POPC   C3B37149  37.739  29.652   7.953
 7805POPC   C4B37150  37.663  29.709   7.653
 7806POPC   NC337151   5.900  37.661   9.453
 7806POPC   PO437152   5.889  37.698   9.153
 7806POPC   GL137153   5.863  37.636   8.853
 7806POPC   GL237154   5.881  37.542   8.853
 7806POPC   C1A37155   5.825  37.684   8.553
 7806POPC   D2A37156   5.900  37.637   8.253
 7806POPC   C3A37157   5.900  37.725   7.953
 7806POPC   C4A37158   5.862  37.667   7.653
 7806POPC   C1B37159   5.817  37.473   8.553
 7806POPC   C2B37160   5.845  37.453   8.253
 7806POPC   C3B37161   5.805  37.482   7.953
 7806POPC   C4B37162   5.821  37.456   7.653
 7807POPC   NC337163  28.345  13.661   9.453
 7807POPC   PO437164  28.400  13.650   9.153
 7807POPC   GL137165  28.415  13.666   8.853
 7807POPC   GL237166  28.269  13.750   8.853
 7807POPC   C1A37167  28.352  13.664   8.553
 7807POPC   D2A37168  28.346  13.658   8.253
 7807POPC   C3A37169  28.342  13.594   7.953
 7807POPC   C4A37170  28.332  13.676   7.653
 7807POPC   C1B37171  28.154  13.786   8.553
 7807POPC   C2B37172  28.197  13.768   8.253
 7807POPC   C3B37173  28.173  13.768   7.953
 7807POPC   C4B37174  28.160  13.838   7.653
 7808POPC   NC337175  12.879  21.381   9.453
 7808POPC   PO437176  12.884  21.383   9.153
 7808POPC   GL137177  12.840  21.402   8.853
 7808POPC   GL237178  12.808  21.532   8.853
 7808POPC   C1A37179  12.876  21.424   8.553
 7808POPC   D2A37180  12.891  21.396   8.253
 7808POPC   C3A37181  12.829  21.420   7.953
 7808POPC   C4A37182  12.833  21.399   7.653
 7808POPC   C1B37183  12.814  21.648   8.553
 7808POPC   C2B37184  12.895  21.642   8.253
 7808POPC   C3B37185  12.868  21.642   7.953
 7808POPC   C4B37186  12.831  21.605   7.653
 7809POPC   NC337187   0.479   0.449   9.453
 7809POPC   PO437188   0.422   0.455   9.153
 7809POPC   GL137189   0.477   0.393   8.853
 7809POPC   GL237190   0.437   0.359   8.853
 7809POPC   C1A37191   0.406   0.430   8.553
 7809POPC   D2A37192   0.390   0.434   8.253
 7809POPC   C3A37193   0.397   0.445   7.953
 7809POPC   C4A37194   0.430   0.398   7.653
 7809POPC   C1B37195   0.441   0.153   8.553
 7809POPC   C2B37196   0.438   0.210   8.253
 7809POPC   C3B37197   0.473   0.152   7.953
 7809POPC   C4B37198   0.497   0.236   7.653
 7810POPC   NC337199  15.138  43.110   9.453
 7810POPC   PO437200  15.190  43.081   9.153
 7810POPC   GL137201  15.194  43.068   8.853
 7810POPC   GL237202  15.217  43.161   8.853
 7810POPC   C1A37203  15.161  43.071   8.553
 7810POPC   D2A37204  15.170  43.128   8.253
 7810POPC   C3A37205  15.207  43.100   7.953
 7810POPC   C4A37206  15.206  43.146   7.653
 7810POPC   C1B37207  15.318  43.297   8.553
 7810POPC   C2B37208  15.374  43.284   8.253
 7810POPC   C3B37209  15.357  43.278   7.953
 7810POPC   C4B37210  15.377  43.262   7.653
 7811POPC   NC337211  41.580   5.884   9.453
 7811POPC   PO437212  41.532   5.819   9.153
 7811POPC   GL137213  41.585   5.879   8.853
 7811POPC   GL237214  41.660   5.955   8.853
 7811POPC   C1A37215  41.555   5.898   8.553
 7811POPC   D2A37216  41.529   5.847   8.253
 7811POPC   C3A37217  41.595   5.881   7.953
 7811POPC   C4A37218  41.590   5.908   7.653
 7811POPC   C1B37219  41.686   6.116   8.553
 7811POPC   C2B37220  41.643   6.058   8.253
 7811POPC   C3B37221  41.671   6.046   7.953
 7811POPC   C4B37222  41.633   6.097   7.653
 7812POPC   NC337223  19.858   5.910   9.453
 7812POPC   PO437224  19.874   5.912   9.153
 7812POPC   GL137225  19.825   5.914   8.853
 7812POPC   GL237226  19.800   5.951   8.853
 7812POPC   C1A37227  19.801   5.823   8.553
 7812POPC   D2A37228  19.787   5.911   8.253
 7812POPC   C3A37229  19.846   5.887   7.953
 7812POPC   C4A37230  19.862   5.835   7.653
 7812POPC   C1B37231  19.691   6.071   8.553
 7812POPC   C2B37232  19.651   6.056   8.253
 7812POPC   C3B37233  19.682   6.035   7.953
 7812POPC   C4B37234  19.731   6.069   7.653
 7813POPC   NC337235  19.022   1.238   9.453
 7813POPC   PO437236  19.018   1.227   9.153
 7813POPC   GL137237  19.070   1.189   8.853
 7813POPC   GL237238  18.900   1.297   8.853
 7813POPC   C1A37239  19.054   1.217   8.553
 7813POPC   D2A37240  19.093   1.187   8.253
 7813POPC   C3A37241  19.105   1.238   7.953
 7813POPC   C4A37242  19.029   1.218   7.653
 7813POPC   C1B37243  18.831   1.283   8.553
 7813POPC   C2B37244  18.839   1.334   8.253
 7813POPC   C3B37245  18.851   1.321   7.953
 7813POPC   C4B37246  18.853   1.285   7.653
 7814POPC   NC337247  33.788  43.132   9.453
 7814POPC   PO437248  33.778  43.076   9.153
 7814POPC   GL137249  33.843  43.154   8.853
 7814POPC   GL237250  33.917  43.021   8.853
 7814POPC   C1A37251  33.816  43.122   8.553
 7814POPC   D2A37252  33.781  43.063   8.253
 7814POPC   C3A37253  33.805  43.126   7.953
 7814POPC   C4A37254  33.795  43.150   7.653
 7814POPC   C1B37255  33.972  42.955   8.553
 7814POPC   C2B37256  33.977  42.907   8.253
 7814POPC   C3B37257  33.978  42.956   7.953
 7814POPC   C4B37258  33.919  42.911   7.653
 7815POPC   NC337259  39.241   3.572   9.453
 7815POPC   PO437260  39.218   3.499   9.153
 7815POPC   GL137261  39.228   3.535   8.853
 7815POPC   GL237262  39.319   3.580   8.853
 7815POPC   C1A37263  39.246   3.545   8.553
 7815POPC   D2A37264  39.232   3.575   8.253
 7815POPC   C3A37265  39.269   3.523   7.953
 7815POPC   C4A37266  39.241   3.514   7.653
 7815POPC   C1B37267  39.464   3.622   8.553
 7815POPC   C2B37268  39.442   3.658   8.253
 7815POPC   C3B37269  39.464   3.650   7.953
 7815POPC   C4B37270  39.436   3.626   7.653
 7816POPC   NC337271  16.718   1.175   9.453
 7816POPC   PO437272  16.770   1.172   9.153
 7816POPC   GL137273  16.687   1.172   8.853
 7816POPC   GL237274  16.798   1.090   8.853
 7816POPC   C1A37275  16.703   1.243   8.553
 7816POPC   D2A37276  16.730   1.221   8.253
 7816POPC   C3A37277  16.737   1.191   7.953
 7816POPC   C4A37278  16.773   1.164   7.653
 7816POPC   C1B37279  16.790   0.935   8.553
 7816POPC   C2B37280  16.816   0.968   8.253
 7816POPC   C3B37281  16.796   0.970   7.953
 7816POPC   C4B37282  16.856   0.954   7.653
 7817POPC   NC337283  25.286  20.641   9.453
 7817POPC   PO437284  25.293  20.561   9.153
 7817POPC   GL137285  25.228  20.581   8.853
 7817POPC   GL237286  25.375  20.653   8.853
 7817POPC   C1A37287  25.315  20.658   8.553
 7817POPC   D2A37288  25.255  20.591   8.253
 7817POPC   C3A37289  25.263  20.592   7.953
 7817POPC   C4A37290  25.301  20.587   7.653
 7817POPC   C1B37291  25.524  20.585   8.553
 7817POPC   C2B37292  25.471  20.602   8.253
 7817POPC   C3B37293  25.511  20.643   7.953
 7817POPC   C4B37294  25.493  20.630   7.653
 7818POPC   NC337295  36.887  24.506   9.453
 7818POPC   PO437296  36.933  24.502   9.153
 7818POPC   GL137297  36.883  24.486   8.853
 7818POPC   GL237298  36.812  24.372   8.853
 7818POPC   C1A37299  36.914  24.539   8.553
 7818POPC   D2A37300  36.933  24.440   8.253
 7818POPC   C3A37301  36.944  24.531   7.953
 7818POPC   C4A37302  36.922  24.475   7.653
 7818POPC   C1B37303  36.811  24.287   8.553
 7818POPC   C2B37304  36.812  24.233   8.253
 7818POPC   C3B37305  36.729  24.299   7.953
 7818POPC   C4B37306  36.757  24.249   7.653
 7819POPC   NC337307   5.099   3.577   9.453
 7819POPC   PO437308   5.085   3.565   9.153
 7819POPC   GL137309   5.095   3.561   8.853
 7819POPC   GL237310   5.193   3.447   8.853
 7819POPC   C1A37311   5.069   3.566   8.553
 7819POPC   D2A37312   5.061   3.528   8.253
 7819POPC   C3A37313   5.087   3.514   7.953
 7819POPC   C4A37314   5.086   3.494   7.653
 7819POPC   C1B37315   5.299   3.418   8.553
 7819POPC   C2B37316   5.260   3.418   8.253
 7819POPC   C3B37317   5.270   3.363   7.953
 7819POPC   C4B37318   5.265   3.425   7.653
 7820POPC   NC337319  19.858  17.515   9.453
 7820POPC   PO437320  19.814  17.473   9.153
 7820POPC   GL137321  19.820  17.516   8.853
 7820POPC   GL237322  19.969  17.559   8.853
 7820POPC   C1A37323  19.861  17.509   8.553
 7820POPC   D2A37324  19.797  17.527   8.253
 7820POPC   C3A37325  19.836  17.480   7.953
 7820POPC   C4A37326  19.867  17.459   7.653
 7820POPC   C1B37327  20.084  17.568   8.553
 7820POPC   C2B37328  20.061  17.564   8.253
 7820POPC   C3B37329  20.079  17.619   7.953
 7820POPC   C4B37330  20.088  17.599   7.653
 7821POPC   NC337331  34.576  37.655   9.453
 7821POPC   PO437332  34.568  37.662   9.153
 7821POPC   GL137333  34.588  37.678   8.853
 7821POPC   GL237334  34.449  37.713   8.853
 7821POPC   C1A37335  34.611  37.674   8.553
 7821POPC   D2A37336  34.605  37.708   8.253
 7821POPC   C3A37337  34.533  37.678   7.953
 7821POPC   C4A37338  34.566  37.666   7.653
 7821POPC   C1B37339  34.331  37.649   8.553
 7821POPC   C2B37340  34.349  37.681   8.253
 7821POPC   C3B37341  34.304  37.651   7.953
 7821POPC   C4B37342  34.300  37.651   7.653
 7822POPC   NC337343   5.870  24.521   9.453
 7822POPC   PO437344   5.918  24.479   9.153
 7822POPC   GL137345   5.909  24.478   8.853
 7822POPC   GL237346   5.862  24.585   8.853
 7822POPC   C1A37347   5.859  24.533   8.553
 7822POPC   D2A37348   5.916  24.448   8.253
 7822POPC   C3A37349   5.851  24.528   7.953
 7822POPC   C4A37350   5.862  24.468   7.653
 7822POPC   C1B37351   5.769  24.685   8.553
 7822POPC   C2B37352   5.815  24.677   8.253
 7822POPC   C3B37353   5.819  24.737   7.953
 7822POPC   C4B37354   5.799  24.741   7.653
 7823POPC   NC337355  36.093  29.933   9.453
 7823POPC   PO437356  36.132  29.910   9.153
 7823POPC   GL137357  36.154  29.912   8.853
 7823POPC   GL237358  36.226  29.805   8.853
 7823POPC   C1A37359  36.132  29.957   8.553
 7823POPC   D2A37360  36.154  29.934   8.253
 7823POPC   C3A37361  36.129  29.905   7.953
 7823POPC   C4A37362  36.167  29.925   7.653
 7823POPC   C1B37363  36.306  29.796   8.553
 7823POPC   C2B37364  36.277  29.777   8.253
 7823POPC   C3B37365  36.277  29.732   7.953
 7823POPC   C4B37366  36.294  29.729   7.653
 7824POPC   NC337367  21.417  12.126   9.453
 7824POPC   PO437368  21.380  12.071   9.153
 7824POPC   GL137369  21.420  12.117   8.853
 7824POPC   GL237370  21.485  12.055   8.853
 7824POPC   C1A37371  21.342  12.065   8.553
 7824POPC   D2A37372  21.410  12.102   8.253
 7824POPC   C3A37373  21.407  12.070   7.953
 7824POPC   C4A37374  21.339  12.099   7.653
 7824POPC   C1B37375  21.599  12.026   8.553
 7824POPC   C2B37376  21.613  11.989   8.253
 7824POPC   C3B37377  21.588  12.046   7.953
 7824POPC   C4B37378  21.619  11.990   7.653
 7825POPC   NC337379   8.962  44.698   9.453
 7825POPC   PO437380   8.982  44.704   9.153
 7825POPC   GL137381   8.966  44.661   8.853
 7825POPC   GL237382   9.026  44.792   8.853
 7825POPC   C1A37383   8.964  44.626   8.553
 7825POPC   D2A37384   8.942  44.703   8.253
 7825POPC   C3A37385   8.983  44.694   7.953
 7825POPC   C4A37386   8.940  44.708   7.653
 7825POPC   C1B37387   9.099  44.917   8.553
 7825POPC   C2B37388   9.077  44.877   8.253
 7825POPC   C3B37389   9.141  44.874   7.953
 7825POPC   C4B37390   9.115  44.844   7.653
 7826POPC   NC337391  26.024  16.727   9.453
 7826POPC   PO437392  26.041  16.700   9.153
 7826POPC   GL137393  26.082  16.744   8.853
 7826POPC   GL237394  26.192  16.753   8.853
 7826POPC   C1A37395  26.006  16.722   8.553
 7826POPC   D2A37396  26.074  16.721   8.253
 7826POPC   C3A37397  26.000  16.685   7.953
 7826POPC   C4A37398  26.040  16.750   7.653
 7826POPC   C1B37399  26.271  16.686   8.553
 7826POPC   C2B37400  26.257  16.670   8.253
 7826POPC   C3B37401  26.275  16.673   7.953
 7826POPC   C4B37402  26.327  16.699   7.653
 7827POPC   NC337403  23.723  15.976   9.453
 7827POPC   PO437404  23.761  15.919   9.153
 7827POPC   GL137405  23.735  15.995   8.853
 7827POPC   GL237406  23.643  16.075   8.853
 7827POPC   C1A37407  23.671  15.909   8.553
 7827POPC   D2A37408  23.717  15.946   8.253
 7827POPC   C3A37409  23.700  15.927   7.953
 7827POPC   C4A37410  23.750  16.005   7.653
 7827POPC   C1B37411  23.516  16.052   8.553
 7827POPC   C2B37412  23.530  16.102   8.253
 7827POPC   C3B37413  23.507  16.090   7.953
 7827POPC   C4B37414  23.525  16.110   7.653
 7828POPC   NC337415  39.987  37.670   9.453
 7828POPC   PO437416  40.022  37.692   9.153
 7828POPC   GL137417  39.981  37.668   8.853
 7828POPC   GL237418  39.965  37.595   8.853
 7828POPC   C1A37419  39.995  37.661   8.553
 7828POPC   D2A37420  39.993  37.649   8.253
 7828POPC   C3A37421  40.010  37.634   7.953
 7828POPC   C4A37422  40.038  37.641   7.653
 7828POPC   C1B37423  39.965  37.478   8.553
 7828POPC   C2B37424  39.963  37.479   8.253
 7828POPC   C3B37425  39.974  37.468   7.953
 7828POPC   C4B37426  39.945  37.452   7.653
 7829POPC   NC337427  42.312  19.087   9.453
 7829POPC   PO437428  42.306  19.075   9.153
 7829POPC   GL137429  42.354  19.105   8.853
 7829POPC   GL237430  42.385  19.189   8.853
 7829POPC   C1A37431  42.312  19.104   8.553
 7829POPC   D2A37432  42.365  19.031   8.253
 7829POPC   C3A37433  42.360  19.078   7.953
 7829POPC   C4A37434  42.293  19.096   7.653
 7829POPC   C1B37435  42.493  19.260   8.553
 7829POPC   C2B37436  42.497  19.205   8.253
 7829POPC   C3B37437  42.522  19.213   7.953
 7829POPC   C4B37438  42.484  19.263   7.653
 7830POPC   NC337439  16.689  20.610   9.453
 7830POPC   PO437440  16.728  20.640   9.153
 7830POPC   GL137441  16.775  20.566   8.853
 7830POPC   GL237442  16.820  20.686   8.853
 7830POPC   C1A37443  16.775  20.601   8.553
 7830POPC   D2A37444  16.709  20.598   8.253
 7830POPC   C3A37445  16.709  20.639   7.953
 7830POPC   C4A37446  16.759  20.619   7.653
 7830POPC   C1B37447  16.811  20.877   8.553
 7830POPC   C2B37448  16.839  20.812   8.253
 7830POPC   C3B37449  16.764  20.807   7.953
 7830POPC   C4B37450  16.845  20.816   7.653
 7831POPC   NC337451  36.921  29.884   9.453
 7831POPC   PO437452  36.950  29.962   9.153
 7831POPC   GL137453  36.914  29.884   8.853
 7831POPC   GL237454  36.952  30.089   8.853
 7831POPC   C1A37455  36.950  29.960   8.553
 7831POPC   D2A37456  36.925  29.881   8.253
 7831POPC   C3A37457  36.951  29.959   7.953
 7831POPC   C4A37458  36.948  29.926   7.653
 7831POPC   C1B37459  37.009  30.206   8.553
 7831POPC   C2B37460  37.020  30.132   8.253
 7831POPC   C3B37461  36.987  30.150   7.953
 7831POPC   C4B37462  36.971  30.161   7.653
 7832POPC   NC337463  26.056  33.821   9.453
 7832POPC   PO437464  26.081  33.778   9.153
 7832POPC   GL137465  26.073  33.787   8.853
 7832POPC   GL237466  26.064  33.641   8.853
 7832POPC   C1A37467  26.035  33.791   8.553
 7832POPC   D2A37468  26.083  33.781   8.253
 7832POPC   C3A37469  26.023  33.833   7.953
 7832POPC   C4A37470  26.087  33.820   7.653
 7832POPC   C1B37471  26.171  33.595   8.553
 7832POPC   C2B37472  26.117  33.570   8.253
 7832POPC   C3B37473  26.102  33.577   7.953
 7832POPC   C4B37474  26.097  33.530   7.653
 7833POPC   NC337475  39.181   1.977   9.453
 7833POPC   PO437476  39.271   1.984   9.153
 7833POPC   GL137477  39.209   1.986   8.853
 7833POPC   GL237478  39.334   1.980   8.853
 7833POPC   C1A37479  39.200   1.973   8.553
 7833POPC   D2A37480  39.253   1.967   8.253
 7833POPC   C3A37481  39.207   1.967   7.953
 7833POPC   C4A37482  39.238   1.975   7.653
 7833POPC   C1B37483  39.493   1.947   8.553
 7833POPC   C2B37484  39.524   1.976   8.253
 7833POPC   C3B37485  39.511   1.948   7.953
 7833POPC   C4B37486  39.515   1.982   7.653
 7834POPC   NC337487   6.652  40.763   9.453
 7834POPC   PO437488   6.679  40.791   9.153
 7834POPC   GL137489   6.689  40.818   8.853
 7834POPC   GL237490   6.790  40.831   8.853
 7834POPC   C1A37491   6.682  40.748   8.553
 7834POPC   D2A37492   6.618  40.740   8.253
 7834POPC   C3A37493   6.651  40.807   7.953
 7834POPC   C4A37494   6.616  40.737   7.653
 7834POPC   C1B37495   6.927  40.852   8.553
 7834POPC   C2B37496   6.882  40.852   8.253
 7834POPC   C3B37497   6.922  40.837   7.953
 7834POPC   C4B37498   6.884  40.884   7.653
 7835POPC   NC337499   6.684  15.161   9.453
 7835POPC   PO437500   6.624  15.151   9.153
 7835POPC   GL137501   6.600  15.157   8.853
 7835POPC   GL237502   6.771  15.216   8.853
 7835POPC   C1A37503   6.605  15.147   8.553
 7835POPC   D2A37504   6.625  15.197   8.253
 7835POPC   C3A37505   6.623  15.148   7.953
 7835POPC   C4A37506   6.630  15.151   7.653
 7835POPC   C1B37507   6.913  15.223   8.553
 7835POPC   C2B37508   6.917  15.146   8.253
 7835POPC   C3B37509   6.910  15.195   7.953
 7835POPC   C4B37510   6.884  15.167   7.653
 7836POPC   NC337511   4.313  16.744   9.453
 7836POPC   PO437512   4.337  16.719   9.153
 7836POPC   GL137513   4.357  16.735   8.853
 7836POPC   GL237514   4.288  16.648   8.853
 7836POPC   C1A37515   4.354  16.726   8.553
 7836POPC   D2A37516   4.280  16.696   8.253
 7836POPC   C3A37517   4.339  16.719   7.953
 7836POPC   C4A37518   4.268  16.692   7.653
 7836POPC   C1B37519   4.301  16.467   8.553
 7836POPC   C2B37520   4.323  16.457   8.253
 7836POPC   C3B37521   4.314  16.473   7.953
 7836POPC   C4B37522   4.351  16.528   7.653
 7837POPC   NC337523   3.558  24.473   9.453
 7837POPC   PO437524   3.570  24.495   9.153
 7837POPC   GL137525   3.571  24.536   8.853
 7837POPC   GL237526   3.431  24.485   8.853
 7837POPC   C1A37527   3.509  24.448   8.553
 7837POPC   D2A37528   3.590  24.488   8.253
 7837POPC   C3A37529   3.517  24.514   7.953
 7837POPC   C4A37530   3.541  24.504   7.653
 7837POPC   C1B37531   3.291  24.464   8.553
 7837POPC   C2B37532   3.290  24.480   8.253
 7837POPC   C3B37533   3.324  24.529   7.953
 7837POPC   C4B37534   3.265  24.538   7.653
 7838POPC   NC337535  32.996   4.324   9.453
 7838POPC   PO437536  33.004   4.292   9.153
 7838POPC   GL137537  33.053   4.353   8.853
 7838POPC   GL237538  33.034   4.431   8.853
 7838POPC   C1A37539  33.029   4.285   8.553
 7838POPC   D2A37540  33.050   4.322   8.253
 7838POPC   C3A37541  32.978   4.279   7.953
 7838POPC   C4A37542  33.022   4.307   7.653
 7838POPC   C1B37543  32.996   4.546   8.553
 7838POPC   C2B37544  33.009   4.571   8.253
 7838POPC   C3B37545  32.990   4.594   7.953
 7838POPC   C4B37546  33.018   4.518   7.653
 7839POPC   NC337547   4.308  17.477   9.453
 7839POPC   PO437548   4.315  17.552   9.153
 7839POPC   GL137549   4.338  17.493   8.853
 7839POPC   GL237550   4.361  17.372   8.853
 7839POPC   C1A37551   4.321  17.511   8.553
 7839POPC   D2A37552   4.361  17.535   8.253
 7839POPC   C3A37553   4.305  17.481   7.953
 7839POPC   C4A37554   4.316  17.472   7.653
 7839POPC   C1B37555   4.466  17.274   8.553
 7839POPC   C2B37556   4.405  17.261   8.253
 7839POPC   C3B37557   4.452  17.283   7.953
 7839POPC   C4B37558   4.486  17.331   7.653
 7840POPC   NC337559  13.659  18.283   9.453
 7840POPC   PO437560  13.665  18.287   9.153
 7840POPC   GL137561  13.613  18.263   8.853
 7840POPC   GL237562  13.566  18.336   8.853
 7840POPC   C1A37563  13.599  18.332   8.553
 7840POPC   D2A37564  13.645  18.255   8.253
 7840POPC   C3A37565  13.607  18.295   7.953
 7840POPC   C4A37566  13.609  18.267   7.653
 7840POPC   C1B37567  13.470  18.431   8.553
 7840POPC   C2B37568  13.452  18.396   8.253
 7840POPC   C3B37569  13.387  18.397   7.953
 7840POPC   C4B37570  13.401  18.451   7.653
 7841POPC   NC337571   5.085   5.047   9.453
 7841POPC   PO437572   5.076   5.141   9.153
 7841POPC   GL137573   5.138   5.103   8.853
 7841POPC   GL237574   4.975   5.067   8.853
 7841POPC   C1A37575   5.057   5.049   8.553
 7841POPC   D2A37576   5.045   5.085   8.253
 7841POPC   C3A37577   5.124   5.133   7.953
 7841POPC   C4A37578   5.085   5.064   7.653
 7841POPC   C1B37579   4.835   4.946   8.553
 7841POPC   C2B37580   4.904   5.009   8.253
 7841POPC   C3B37581   4.854   4.997   7.953
 7841POPC   C4B37582   4.885   4.970   7.653
 7842POPC   NC337583  12.862  22.958   9.453
 7842POPC   PO437584  12.848  22.908   9.153
 7842POPC   GL137585  12.886  22.931   8.853
 7842POPC   GL237586  13.022  22.908   8.853
 7842POPC   C1A37587  12.828  22.918   8.553
 7842POPC   D2A37588  12.803  22.930   8.253
 7842POPC   C3A37589  12.840  22.980   7.953
 7842POPC   C4A37590  12.900  22.946   7.653
 7842POPC   C1B37591  13.135  22.857   8.553
 7842POPC   C2B37592  13.061  22.927   8.253
 7842POPC   C3B37593  13.122  22.904   7.953
 7842POPC   C4B37594  13.148  22.893   7.653
 7843POPC   NC337595  25.289  35.326   9.453
 7843POPC   PO437596  25.286  35.369   9.153
 7843POPC   GL137597  25.270  35.361   8.853
 7843POPC   GL237598  25.384  35.415   8.853
 7843POPC   C1A37599  25.314  35.383   8.553
 7843POPC   D2A37600  25.292  35.326   8.253
 7843POPC   C3A37601  25.311  35.380   7.953
 7843POPC   C4A37602  25.234  35.379   7.653
 7843POPC   C1B37603  25.365  35.584   8.553
 7843POPC   C2B37604  25.447  35.589   8.253
 7843POPC   C3B37605  25.418  35.573   7.953
 7843POPC   C4B37606  25.359  35.538   7.653
 7844POPC   NC337607  13.624  14.443   9.453
 7844POPC   PO437608  13.634  14.442   9.153
 7844POPC   GL137609  13.591  14.441   8.853
 7844POPC   GL237610  13.645  14.495   8.853
 7844POPC   C1A37611  13.614  14.400   8.553
 7844POPC   D2A37612  13.591  14.362   8.253
 7844POPC   C3A37613  13.589  14.370   7.953
 7844POPC   C4A37614  13.669  14.399   7.653
 7844POPC   C1B37615  13.715  14.630   8.553
 7844POPC   C2B37616  13.745  14.669   8.253
 7844POPC   C3B37617  13.722  14.627   7.953
 7844POPC   C4B37618  13.685  14.593   7.653
 7845POPC   NC337619  44.634  38.466   9.453
 7845POPC   PO437620  44.706  38.485   9.153
 7845POPC   GL137621  44.655  38.496   8.853
 7845POPC   GL237622  44.758  38.411   8.853
 7845POPC   C1A37623  44.627  38.454   8.553
 7845POPC   D2A37624  44.678  38.483   8.253
 7845POPC   C3A37625  44.657  38.443   7.953
 7845POPC   C4A37626  44.701  38.445   7.653
 7845POPC   C1B37627  44.934  38.368   8.553
 7845POPC   C2B37628  44.910  38.368   8.253
 7845POPC   C3B37629  44.946  38.383   7.953
 7845POPC   C4B37630  44.914  38.335   7.653
 7846POPC   NC337631   5.053  19.869   9.453
 7846POPC   PO437632   5.047  19.875   9.153
 7846POPC   GL137633   5.089  19.838   8.853
 7846POPC   GL237634   5.212  19.835   8.853
 7846POPC   C1A37635   5.056  19.851   8.553
 7846POPC   D2A37636   5.046  19.855   8.253
 7846POPC   C3A37637   5.063  19.807   7.953
 7846POPC   C4A37638   5.061  19.837   7.653
 7846POPC   C1B37639   5.379  19.763   8.553
 7846POPC   C2B37640   5.287  19.723   8.253
 7846POPC   C3B37641   5.368  19.745   7.953
 7846POPC   C4B37642   5.312  19.789   7.653
 7847POPC   NC337643   3.513   5.056   9.453
 7847POPC   PO437644   3.534   5.109   9.153
 7847POPC   GL137645   3.514   5.076   8.853
 7847POPC   GL237646   3.538   4.998   8.853
 7847POPC   C1A37647   3.539   5.077   8.553
 7847POPC   D2A37648   3.589   5.074   8.253
 7847POPC   C3A37649   3.582   5.088   7.953
 7847POPC   C4A37650   3.554   5.120   7.653
 7847POPC   C1B37651   3.599   4.837   8.553
 7847POPC   C2B37652   3.610   4.839   8.253
 7847POPC   C3B37653   3.547   4.838   7.953
 7847POPC   C4B37654   3.598   4.834   7.653
 7848POPC   NC337655  10.559   2.743   9.453
 7848POPC   PO437656  10.572   2.742   9.153
 7848POPC   GL137657  10.533   2.794   8.853
 7848POPC   GL237658  10.455   2.823   8.853
 7848POPC   C1A37659  10.527   2.792   8.553
 7848POPC   D2A37660  10.523   2.764   8.253
 7848POPC   C3A37661  10.505   2.789   7.953
 7848POPC   C4A37662  10.533   2.809   7.653
 7848POPC   C1B37663  10.313   2.873   8.553
 7848POPC   C2B37664  10.333   2.860   8.253
 7848POPC   C3B37665  10.244   2.868   7.953
 7848POPC   C4B37666  10.320   2.805   7.653
 7849POPC   NC337667   2.811   2.804   9.453
 7849POPC   PO437668   2.808   2.781   9.153
 7849POPC   GL137669   2.810   2.720   8.853
 7849POPC   GL237670   2.654   2.890   8.853
 7849POPC   C1A37671   2.731   2.720   8.553
 7849POPC   D2A37672   2.813   2.786   8.253
 7849POPC   C3A37673   2.746   2.757   7.953
 7849POPC   C4A37674   2.739   2.767   7.653
 7849POPC   C1B37675   2.576   2.969   8.553
 7849POPC   C2B37676   2.583   2.931   8.253
 7849POPC   C3B37677   2.616   2.982   7.953
 7849POPC   C4B37678   2.671   3.009   7.653
 7850POPC   NC337679   1.974  19.106   9.453
 7850POPC   PO437680   1.965  19.071   9.153
 7850POPC   GL137681   2.038  19.009   8.853
 7850POPC   GL237682   2.020  18.973   8.853
 7850POPC   C1A37683   1.968  19.079   8.553
 7850POPC   D2A37684   1.967  19.095   8.253
 7850POPC   C3A37685   1.948  19.087   7.953
 7850POPC   C4A37686   2.009  19.009   7.653
 7850POPC   C1B37687   2.131  18.813   8.553
 7850POPC   C2B37688   2.100  18.821   8.253
 7850POPC   C3B37689   2.133  18.812   7.953
 7850POPC   C4B37690   2.148  18.837   7.653
 7851POPC   NC337691   7.425  39.220   9.453
 7851POPC   PO437692   7.406  39.238   9.153
 7851POPC   GL137693   7.389  39.220   8.853
 7851POPC   GL237694   7.530  39.303   8.853
 7851POPC   C1A37695   7.416  39.267   8.553
 7851POPC   D2A37696   7.430  39.273   8.253
 7851POPC   C3A37697   7.445  39.254   7.953
 7851POPC   C4A37698   7.437  39.184   7.653
 7851POPC   C1B37699   7.646  39.346   8.553
 7851POPC   C2B37700   7.664  39.361   8.253
 7851POPC   C3B37701   7.620  39.393   7.953
 7851POPC   C4B37702   7.653  39.431   7.653
 7852POPC   NC337703  35.356   1.221   9.453
 7852POPC   PO437704  35.309   1.240   9.153
 7852POPC   GL137705  35.347   1.189   8.853
 7852POPC   GL237706  35.221   1.272   8.853
 7852POPC   C1A37707  35.316   1.215   8.553
 7852POPC   D2A37708  35.337   1.173   8.253
 7852POPC   C3A37709  35.311   1.212   7.953
 7852POPC   C4A37710  35.388   1.165   7.653
 7852POPC   C1B37711  35.125   1.252   8.553
 7852POPC   C2B37712  35.078   1.292   8.253
 7852POPC   C3B37713  35.085   1.231   7.953
 7852POPC   C4B37714  35.106   1.280   7.653
 7853POPC   NC337715  30.708  42.301   9.453
 7853POPC   PO437716  30.720  42.320   9.153
 7853POPC   GL137717  30.711  42.308   8.853
 7853POPC   GL237718  30.765  42.457   8.853
 7853POPC   C1A37719  30.723  42.341   8.553
 7853POPC   D2A37720  30.724  42.287   8.253
 7853POPC   C3A37721  30.721  42.303   7.953
 7853POPC   C4A37722  30.703  42.346   7.653
 7853POPC   C1B37723  30.788  42.569   8.553
 7853POPC   C2B37724  30.795  42.565   8.253
 7853POPC   C3B37725  30.819  42.589   7.953
 7853POPC   C4B37726  30.793  42.545   7.653
 7854POPC   NC337727  20.627  29.180   9.453
 7854POPC   PO437728  20.594  29.163   9.153
 7854POPC   GL137729  20.629  29.128   8.853
 7854POPC   GL237730  20.687  29.233   8.853
 7854POPC   C1A37731  20.599  29.190   8.553
 7854POPC   D2A37732  20.599  29.096   8.253
 7854POPC   C3A37733  20.570  29.110   7.953
 7854POPC   C4A37734  20.597  29.131   7.653
 7854POPC   C1B37735  20.867  29.225   8.553
 7854POPC   C2B37736  20.801  29.291   8.253
 7854POPC   C3B37737  20.807  29.301   7.953
 7854POPC   C4B37738  20.787  29.270   7.653
 7855POPC   NC337739   4.322  37.728   9.453
 7855POPC   PO437740   4.276  37.692   9.153
 7855POPC   GL137741   4.318  37.656   8.853
 7855POPC   GL237742   4.182  37.746   8.853
 7855POPC   C1A37743   4.288  37.694   8.553
 7855POPC   D2A37744   4.311  37.652   8.253
 7855POPC   C3A37745   4.331  37.685   7.953
 7855POPC   C4A37746   4.304  37.653   7.653
 7855POPC   C1B37747   4.139  37.759   8.553
 7855POPC   C2B37748   4.051  37.837   8.253
 7855POPC   C3B37749   4.129  37.834   7.953
 7855POPC   C4B37750   4.111  37.841   7.653
 7856POPC   NC337751  30.678  44.667   9.453
 7856POPC   PO437752  30.690  44.623   9.153
 7856POPC   GL137753  30.684  44.707   8.853
 7856POPC   GL237754  30.532  44.698   8.853
 7856POPC   C1A37755  30.727  44.642   8.553
 7856POPC   D2A37756  30.670  44.644   8.253
 7856POPC   C3A37757  30.719  44.633   7.953
 7856POPC   C4A37758  30.666  44.630   7.653
 7856POPC   C1B37759  30.423  44.643   8.553
 7856POPC   C2B37760  30.454  44.686   8.253
 7856POPC   C3B37761  30.411  44.692   7.953
 7856POPC   C4B37762  30.476  44.658   7.653
 7857POPC   NC337763  40.012  12.114   9.453
 7857POPC   PO437764  39.969  12.099   9.153
 7857POPC   GL137765  40.027  12.121   8.853
 7857POPC   GL237766  39.879  12.106   8.853
 7857POPC   C1A37767  39.995  12.051   8.553
 7857POPC   D2A37768  39.962  12.068   8.253
 7857POPC   C3A37769  39.959  12.107   7.953
 7857POPC   C4A37770  40.000  12.099   7.653
 7857POPC   C1B37771  39.752  12.171   8.553
 7857POPC   C2B37772  39.778  12.175   8.253
 7857POPC   C3B37773  39.745  12.177   7.953
 7857POPC   C4B37774  39.768  12.152   7.653
 7858POPC   NC337775   2.730  18.271   9.453
 7858POPC   PO437776   2.758  18.330   9.153
 7858POPC   GL137777   2.782  18.327   8.853
 7858POPC   GL237778   2.645  18.330   8.853
 7858POPC   C1A37779   2.785  18.282   8.553
 7858POPC   D2A37780   2.767  18.296   8.253
 7858POPC   C3A37781   2.794  18.237   7.953
 7858POPC   C4A37782   2.796  18.252   7.653
 7858POPC   C1B37783   2.568  18.429   8.553
 7858POPC   C2B37784   2.559  18.485   8.253
 7858POPC   C3B37785   2.640  18.513   7.953
 7858POPC   C4B37786   2.603  18.499   7.653
 7859POPC   NC337787  37.679  32.255   9.453
 7859POPC   PO437788  37.664  32.220   9.153
 7859POPC   GL137789  37.652  32.232   8.853
 7859POPC   GL237790  37.763  32.125   8.853
 7859POPC   C1A37791  37.694  32.269   8.553
 7859POPC   D2A37792  37.655  32.254   8.253
 7859POPC   C3A37793  37.657  32.287   7.953
 7859POPC   C4A37794  37.674  32.268   7.653
 7859POPC   C1B37795  37.799  32.043   8.553
 7859POPC   C2B37796  37.798  32.050   8.253
 7859POPC   C3B37797  37.880  32.055   7.953
 7859POPC   C4B37798  37.811  32.098   7.653
 7860POPC   NC337799  12.123  37.710   9.453
 7860POPC   PO437800  12.026  37.659   9.153
 7860POPC   GL137801  12.040  37.709   8.853
 7860POPC   GL237802  12.160  37.641   8.853
 7860POPC   C1A37803  12.080  37.643   8.553
 7860POPC   D2A37804  12.037  37.638   8.253
 7860POPC   C3A37805  12.046  37.674   7.953
 7860POPC   C4A37806  12.094  37.679   7.653
 7860POPC   C1B37807  12.312  37.587   8.553
 7860POPC   C2B37808  12.325  37.514   8.253
 7860POPC   C3B37809  12.245  37.535   7.953
 7860POPC   C4B37810  12.310  37.505   7.653
 7861POPC   NC337811  28.368  29.162   9.453
 7861POPC   PO437812  28.396  29.122   9.153
 7861POPC   GL137813  28.406  29.133   8.853
 7861POPC   GL237814  28.478  29.239   8.853
 7861POPC   C1A37815  28.357  29.193   8.553
 7861POPC   D2A37816  28.413  29.187   8.253
 7861POPC   C3A37817  28.387  29.164   7.953
 7861POPC   C4A37818  28.418  29.157   7.653
 7861POPC   C1B37819  28.521  29.308   8.553
 7861POPC   C2B37820  28.505  29.292   8.253
 7861POPC   C3B37821  28.554  29.376   7.953
 7861POPC   C4B37822  28.514  29.369   7.653
 7862POPC   NC337823  11.309  29.898   9.453
 7862POPC   PO437824  11.330  29.921   9.153
 7862POPC   GL137825  11.286  29.892   8.853
 7862POPC   GL237826  11.234  29.866   8.853
 7862POPC   C1A37827  11.325  29.964   8.553
 7862POPC   D2A37828  11.268  29.888   8.253
 7862POPC   C3A37829  11.333  29.935   7.953
 7862POPC   C4A37830  11.260  29.930   7.653
 7862POPC   C1B37831  11.078  29.709   8.553
 7862POPC   C2B37832  11.108  29.750   8.253
 7862POPC   C3B37833  11.113  29.763   7.953
 7862POPC   C4B37834  11.123  29.757   7.653
 7863POPC   NC337835  36.919   4.276   9.453
 7863POPC   PO437836  36.884   4.312   9.153
 7863POPC   GL137837  36.884   4.288   8.853
 7863POPC   GL237838  37.011   4.403   8.853
 7863POPC   C1A37839  36.896   4.277   8.553
 7863POPC   D2A37840  36.921   4.270   8.253
 7863POPC   C3A37841  36.931   4.306   7.953
 7863POPC   C4A37842  36.867   4.358   7.653
 7863POPC   C1B37843  37.186   4.427   8.553
 7863POPC   C2B37844  37.180   4.389   8.253
 7863POPC   C3B37845  37.098   4.384   7.953
 7863POPC   C4B37846  37.157   4.447   7.653
 7864POPC   NC337847  30.661   5.837   9.453
 7864POPC   PO437848  30.661   5.820   9.153
 7864POPC   GL137849  30.680   5.850   8.853
 7864POPC   GL237850  30.782   5.962   8.853
 7864POPC   C1A37851  30.690   5.907   8.553
 7864POPC   D2A37852  30.723   5.840   8.253
 7864POPC   C3A37853  30.689   5.894   7.953
 7864POPC   C4A37854  30.682   5.895   7.653
 7864POPC   C1B37855  30.805   6.129   8.553
 7864POPC   C2B37856  30.836   6.091   8.253
 7864POPC   C3B37857  30.814   6.113   7.953
 7864POPC   C4B37858  30.831   6.122   7.653
 7865POPC   NC337859  38.505  19.855   9.453
 7865POPC   PO437860  38.499  19.804   9.153
 7865POPC   GL137861  38.425  19.820   8.853
 7865POPC   GL237862  38.355  19.866   8.853
 7865POPC   C1A37863  38.416  19.841   8.553
 7865POPC   D2A37864  38.479  19.843   8.253
 7865POPC   C3A37865  38.468  19.843   7.953
 7865POPC   C4A37866  38.464  19.828   7.653
 7865POPC   C1B37867  38.218  19.922   8.553
 7865POPC   C2B37868  38.243  19.906   8.253
 7865POPC   C3B37869  38.205  19.932   7.953
 7865POPC   C4B37870  38.207  19.879   7.653
 7866POPC   NC337871  14.432  12.873   9.453
 7866POPC   PO437872  14.439  12.844   9.153
 7866POPC   GL137873  14.361  12.817   8.853
 7866POPC   GL237874  14.400  12.956   8.853
 7866POPC   C1A37875  14.382  12.847   8.553
 7866POPC   D2A37876  14.388  12.810   8.253
 7866POPC   C3A37877  14.411  12.817   7.953
 7866POPC   C4A37878  14.453  12.895   7.653
 7866POPC   C1B37879  14.518  13.106   8.553
 7866POPC   C2B37880  14.493  13.095   8.253
 7866POPC   C3B37881  14.495  13.056   7.953
 7866POPC   C4B37882  14.491  13.112   7.653
 7867POPC   NC337883  28.355   6.641   9.453
 7867POPC   PO437884  28.401   6.691   9.153
 7867POPC   GL137885  28.361   6.677   8.853
 7867POPC   GL237886  28.348   6.535   8.853
 7867POPC   C1A37887  28.341   6.598   8.553
 7867POPC   D2A37888  28.328   6.678   8.253
 7867POPC   C3A37889  28.351   6.657   7.953
 7867POPC   C4A37890  28.385   6.654   7.653
 7867POPC   C1B37891  28.273   6.442   8.553
 7867POPC   C2B37892  28.275   6.401   8.253
 7867POPC   C3B37893  28.207   6.402   7.953
 7867POPC   C4B37894  28.268   6.402   7.653
 7868POPC   NC337895  11.313  43.868   9.453
 7868POPC   PO437896  11.349  43.865   9.153
 7868POPC   GL137897  11.285  43.914   8.853
 7868POPC   GL237898  11.231  43.720   8.853
 7868POPC   C1A37899  11.322  43.906   8.553
 7868POPC   D2A37900  11.314  43.887   8.253
 7868POPC   C3A37901  11.257  43.848   7.953
 7868POPC   C4A37902  11.317  43.878   7.653
 7868POPC   C1B37903  11.288  43.658   8.553
 7868POPC   C2B37904  11.248  43.597   8.253
 7868POPC   C3B37905  11.257  43.608   7.953
 7868POPC   C4B37906  11.257  43.613   7.653
 7869POPC   NC337907  29.144   2.782   9.453
 7869POPC   PO437908  29.138   2.773   9.153
 7869POPC   GL137909  29.129   2.814   8.853
 7869POPC   GL237910  29.155   2.649   8.853
 7869POPC   C1A37911  29.135   2.789   8.553
 7869POPC   D2A37912  29.172   2.717   8.253
 7869POPC   C3A37913  29.177   2.795   7.953
 7869POPC   C4A37914  29.171   2.757   7.653
 7869POPC   C1B37915  29.213   2.555   8.553
 7869POPC   C2B37916  29.195   2.479   8.253
 7869POPC   C3B37917  29.135   2.534   7.953
 7869POPC   C4B37918  29.179   2.498   7.653
 7870POPC   NC337919  18.295  24.490   9.453
 7870POPC   PO437920  18.250  24.535   9.153
 7870POPC   GL137921  18.313  24.484   8.853
 7870POPC   GL237922  18.145  24.387   8.853
 7870POPC   C1A37923  18.319  24.444   8.553
 7870POPC   D2A37924  18.275  24.489   8.253
 7870POPC   C3A37925  18.308  24.501   7.953
 7870POPC   C4A37926  18.321  24.499   7.653
 7870POPC   C1B37927  18.063  24.398   8.553
 7870POPC   C2B37928  18.072  24.379   8.253
 7870POPC   C3B37929  18.070  24.418   7.953
 7870POPC   C4B37930  18.018  24.416   7.653
 7871POPC   NC337931  22.187  32.204   9.453
 7871POPC   PO437932  22.206  32.210   9.153
 7871POPC   GL137933  22.207  32.210   8.853
 7871POPC   GL237934  22.102  32.350   8.853
 7871POPC   C1A37935  22.192  32.222   8.553
 7871POPC   D2A37936  22.193  32.202   8.253
 7871POPC   C3A37937  22.146  32.226   7.953
 7871POPC   C4A37938  22.133  32.199   7.653
 7871POPC   C1B37939  22.098  32.506   8.553
 7871POPC   C2B37940  22.111  32.493   8.253
 7871POPC   C3B37941  22.068  32.523   7.953
 7871POPC   C4B37942  22.092  32.510   7.653
 7872POPC   NC337943  32.975  34.556   9.453
 7872POPC   PO437944  32.986  34.561   9.153
 7872POPC   GL137945  33.009  34.626   8.853
 7872POPC   GL237946  33.013  34.480   8.853
 7872POPC   C1A37947  33.059  34.583   8.553
 7872POPC   D2A37948  32.985  34.571   8.253
 7872POPC   C3A37949  33.029  34.553   7.953
 7872POPC   C4A37950  33.010  34.612   7.653
 7872POPC   C1B37951  32.866  34.348   8.553
 7872POPC   C2B37952  32.940  34.356   8.253
 7872POPC   C3B37953  32.920  34.325   7.953
 7872POPC   C4B37954  32.862  34.398   7.653
 7873POPC   NC337955  39.208   6.602   9.453
 7873POPC   PO437956  39.206   6.640   9.153
 7873POPC   GL137957  39.239   6.670   8.853
 7873POPC   GL237958  39.265   6.787   8.853
 7873POPC   C1A37959  39.205   6.607   8.553
 7873POPC   D2A37960  39.276   6.604   8.253
 7873POPC   C3A37961  39.277   6.608   7.953
 7873POPC   C4A37962  39.259   6.692   7.653
 7873POPC   C1B37963  39.298   6.849   8.553
 7873POPC   C2B37964  39.284   6.900   8.253
 7873POPC   C3B37965  39.335   6.879   7.953
 7873POPC   C4B37966  39.292   6.865   7.653
 7874POPC   NC337967  14.414  11.279   9.453
 7874POPC   PO437968  14.447  11.264   9.153
 7874POPC   GL137969  14.361  11.312   8.853
 7874POPC   GL237970  14.326  11.152   8.853
 7874POPC   C1A37971  14.441  11.281   8.553
 7874POPC   D2A37972  14.415  11.255   8.253
 7874POPC   C3A37973  14.379  11.253   7.953
 7874POPC   C4A37974  14.385  11.321   7.653
 7874POPC   C1B37975  14.306  11.108   8.553
 7874POPC   C2B37976  14.308  11.101   8.253
 7874POPC   C3B37977  14.337  11.033   7.953
 7874POPC   C4B37978  14.378  11.085   7.653
 7875POPC   NC337979  12.067  21.392   9.453
 7875POPC   PO437980  12.070  21.345   9.153
 7875POPC   GL137981  12.121  21.348   8.853
 7875POPC   GL237982  12.105  21.250   8.853
 7875POPC   C1A37983  12.126  21.426   8.553
 7875POPC   D2A37984  12.065  21.412   8.253
 7875POPC   C3A37985  12.033  21.377   7.953
 7875POPC   C4A37986  12.050  21.347   7.653
 7875POPC   C1B37987  12.008  21.151   8.553
 7875POPC   C2B37988  12.006  21.114   8.253
 7875POPC   C3B37989  12.008  21.164   7.953
 7875POPC   C4B37990  12.054  21.119   7.653
 7876POPC   NC337991  33.774  41.575   9.453
 7876POPC   PO437992  33.775  41.595   9.153
 7876POPC   GL137993  33.832  41.606   8.853
 7876POPC   GL237994  33.965  41.556   8.853
 7876POPC   C1A37995  33.817  41.571   8.553
 7876POPC   D2A37996  33.766  41.546   8.253
 7876POPC   C3A37997  33.811  41.558   7.953
 7876POPC   C4A37998  33.819  41.601   7.653
 7876POPC   C1B37999  34.049  41.501   8.553
 7876POPC   C2B38000  34.066  41.472   8.253
 7876POPC   C3B38001  34.061  41.491   7.953
 7876POPC   C4B38002  34.017  41.482   7.653
 7877POPC   NC338003  41.525  32.208   9.453
 7877POPC   PO438004  41.602  32.225   9.153
 7877POPC   GL138005  41.582  32.204   8.853
 7877POPC   GL238006  41.575  32.125   8.853
 7877POPC   C1A38007  41.577  32.286   8.553
 7877POPC   D2A38008  41.567  32.280   8.253
 7877POPC   C3A38009  41.552  32.226   7.953
 7877POPC   C4A38010  41.528  32.217   7.653
 7877POPC   C1B38011  41.525  31.958   8.553
 7877POPC   C2B38012  41.552  31.976   8.253
 7877POPC   C3B38013  41.593  31.965   7.953
 7877POPC   C4B38014  41.606  31.976   7.653
 7878POPC   NC338015  26.783   3.555   9.453
 7878POPC   PO438016  26.822   3.544   9.153
 7878POPC   GL138017  26.818   3.547   8.853
 7878POPC   GL238018  26.787   3.469   8.853
 7878POPC   C1A38019  26.798   3.574   8.553
 7878POPC   D2A38020  26.777   3.502   8.253
 7878POPC   C3A38021  26.834   3.567   7.953
 7878POPC   C4A38022  26.768   3.564   7.653
 7878POPC   C1B38023  26.707   3.371   8.553
 7878POPC   C2B38024  26.711   3.380   8.253
 7878POPC   C3B38025  26.686   3.310   7.953
 7878POPC   C4B38026  26.697   3.390   7.653
 7879POPC   NC338027   5.099  43.936   9.453
 7879POPC   PO438028   5.139  43.927   9.153
 7879POPC   GL138029   5.102  43.913   8.853
 7879POPC   GL238030   5.252  43.815   8.853
 7879POPC   C1A38031   5.139  43.877   8.553
 7879POPC   D2A38032   5.064  43.842   8.253
 7879POPC   C3A38033   5.112  43.852   7.953
 7879POPC   C4A38034   5.103  43.843   7.653
 7879POPC   C1B38035   5.293  43.753   8.553
 7879POPC   C2B38036   5.344  43.775   8.253
 7879POPC   C3B38037   5.339  43.771   7.953
 7879POPC   C4B38038   5.315  43.772   7.653
 7880POPC   NC338039  27.625  11.348   9.453
 7880POPC   PO438040  27.560  11.319   9.153
 7880POPC   GL138041  27.613  11.309   8.853
 7880POPC   GL238042  27.753  11.376   8.853
 7880POPC   C1A38043  27.633  11.258   8.553
 7880POPC   D2A38044  27.554  11.347   8.253
 7880POPC   C3A38045  27.604  11.306   7.953
 7880POPC   C4A38046  27.625  11.262   7.653
 7880POPC   C1B38047  27.862  11.339   8.553
 7880POPC   C2B38048  27.783  11.385   8.253
 7880POPC   C3B38049  27.822  11.357   7.953
 7880POPC   C4B38050  27.855  11.354   7.653
 7881POPC   NC338051  27.593  15.922   9.453
 7881POPC   PO438052  27.575  15.914   9.153
 7881POPC   GL138053  27.631  15.985   8.853
 7881POPC   GL238054  27.480  15.936   8.853
 7881POPC   C1A38055  27.597  15.995   8.553
 7881POPC   D2A38056  27.581  16.000   8.253
 7881POPC   C3A38057  27.616  15.941   7.953
 7881POPC   C4A38058  27.555  15.998   7.653
 7881POPC   C1B38059  27.355  15.817   8.553
 7881POPC   C2B38060  27.368  15.790   8.253
 7881POPC   C3B38061  27.340  15.840   7.953
 7881POPC   C4B38062  27.367  15.768   7.653
 7882POPC   NC338063  19.795  40.825   9.453
 7882POPC   PO438064  19.873  40.825   9.153
 7882POPC   GL138065  19.836  40.810   8.853
 7882POPC   GL238066  19.729  40.724   8.853
 7882POPC   C1A38067  19.838  40.823   8.553
 7882POPC   D2A38068  19.818  40.785   8.253
 7882POPC   C3A38069  19.859  40.807   7.953
 7882POPC   C4A38070  19.864  40.752   7.653
 7882POPC   C1B38071  19.556  40.759   8.553
 7882POPC   C2B38072  19.623  40.669   8.253
 7882POPC   C3B38073  19.609  40.703   7.953
 7882POPC   C4B38074  19.570  40.744   7.653
 7883POPC   NC338075  27.561  14.372   9.453
 7883POPC   PO438076  27.547  14.354   9.153
 7883POPC   GL138077  27.633  14.374   8.853
 7883POPC   GL238078  27.520  14.440   8.853
 7883POPC   C1A38079  27.578  14.443   8.553
 7883POPC   D2A38080  27.565  14.423   8.253
 7883POPC   C3A38081  27.558  14.401   7.953
 7883POPC   C4A38082  27.551  14.444   7.653
 7883POPC   C1B38083  27.313  14.496   8.553
 7883POPC   C2B38084  27.375  14.467   8.253
 7883POPC   C3B38085  27.332  14.503   7.953
 7883POPC   C4B38086  27.399  14.433   7.653
 7884POPC   NC338087  25.288  36.882   9.453
 7884POPC   PO438088  25.295  36.910   9.153
 7884POPC   GL138089  25.220  36.885   8.853
 7884POPC   GL238090  25.242  37.037   8.853
 7884POPC   C1A38091  25.307  36.934   8.553
 7884POPC   D2A38092  25.240  36.904   8.253
 7884POPC   C3A38093  25.217  36.921   7.953
 7884POPC   C4A38094  25.221  36.945   7.653
 7884POPC   C1B38095  25.267  37.177   8.553
 7884POPC   C2B38096  25.227  37.142   8.253
 7884POPC   C3B38097  25.218  37.152   7.953
 7884POPC   C4B38098  25.202  37.133   7.653
 7885POPC   NC338099  10.563  43.841   9.453
 7885POPC   PO438100  10.546  43.907   9.153
 7885POPC   GL138101  10.518  43.902   8.853
 7885POPC   GL238102  10.490  43.792   8.853
 7885POPC   C1A38103  10.518  43.859   8.553
 7885POPC   D2A38104  10.488  43.919   8.253
 7885POPC   C3A38105  10.541  43.895   7.953
 7885POPC   C4A38106  10.503  43.843   7.653
 7885POPC   C1B38107  10.507  43.646   8.553
 7885POPC   C2B38108  10.491  43.686   8.253
 7885POPC   C3B38109  10.540  43.675   7.953
 7885POPC   C4B38110  10.472  43.646   7.653
 7886POPC   NC338111   4.342  21.431   9.453
 7886POPC   PO438112   4.269  21.384   9.153
 7886POPC   GL138113   4.341  21.432   8.853
 7886POPC   GL238114   4.207  21.370   8.853
 7886POPC   C1A38115   4.359  21.369   8.553
 7886POPC   D2A38116   4.352  21.353   8.253
 7886POPC   C3A38117   4.309  21.363   7.953
 7886POPC   C4A38118   4.282  21.369   7.653
 7886POPC   C1B38119   4.019  21.422   8.553
 7886POPC   C2B38120   4.025  21.378   8.253
 7886POPC   C3B38121   4.110  21.448   7.953
 7886POPC   C4B38122   4.026  21.377   7.653
 7887POPC   NC338123  30.652  10.524   9.453
 7887POPC   PO438124  30.659  10.573   9.153
 7887POPC   GL138125  30.746  10.534   8.853
 7887POPC   GL238126  30.578  10.550   8.853
 7887POPC   C1A38127  30.668  10.480   8.553
 7887POPC   D2A38128  30.737  10.552   8.253
 7887POPC   C3A38129  30.679  10.487   7.953
 7887POPC   C4A38130  30.723  10.573   7.653
 7887POPC   C1B38131  30.484  10.668   8.553
 7887POPC   C2B38132  30.435  10.632   8.253
 7887POPC   C3B38133  30.514  10.690   7.953
 7887POPC   C4B38134  30.519  10.675   7.653
 7888POPC   NC338135   6.685  16.746   9.453
 7888POPC   PO438136   6.656  16.717   9.153
 7888POPC   GL138137   6.614  16.681   8.853
 7888POPC   GL238138   6.775  16.762   8.853
 7888POPC   C1A38139   6.687  16.757   8.553
 7888POPC   D2A38140   6.636  16.716   8.253
 7888POPC   C3A38141   6.629  16.747   7.953
 7888POPC   C4A38142   6.613  16.762   7.653
 7888POPC   C1B38143   6.856  16.790   8.553
 7888POPC   C2B38144   6.858  16.852   8.253
 7888POPC   C3B38145   6.920  16.806   7.953
 7888POPC   C4B38146   6.878  16.842   7.653
 7889POPC   NC338147   4.331  40.738   9.453
 7889POPC   PO438148   4.272  40.757   9.153
 7889POPC   GL138149   4.347  40.763   8.853
 7889POPC   GL238150   4.358  40.937   8.853
 7889POPC   C1A38151   4.360  40.787   8.553
 7889POPC   D2A38152   4.343  40.741   8.253
 7889POPC   C3A38153   4.307  40.777   7.953
 7889POPC   C4A38154   4.366  40.735   7.653
 7889POPC   C1B38155   4.379  41.005   8.553
 7889POPC   C2B38156   4.324  41.024   8.253
 7889POPC   C3B38157   4.322  40.983   7.953
 7889POPC   C4B38158   4.343  41.004   7.653
 7890POPC   NC338159  18.255  38.411   9.453
 7890POPC   PO438160  18.326  38.457   9.153
 7890POPC   GL138161  18.294  38.490   8.853
 7890POPC   GL238162  18.210  38.384   8.853
 7890POPC   C1A38163  18.314  38.418   8.553
 7890POPC   D2A38164  18.296  38.472   8.253
 7890POPC   C3A38165  18.280  38.408   7.953
 7890POPC   C4A38166  18.276  38.478   7.653
 7890POPC   C1B38167  18.128  38.290   8.553
 7890POPC   C2B38168  18.174  38.218   8.253
 7890POPC   C3B38169  18.101  38.217   7.953
 7890POPC   C4B38170  18.167  38.251   7.653
 7891POPC   NC338171  15.970  24.526   9.453
 7891POPC   PO438172  15.966  24.483   9.153
 7891POPC   GL138173  16.004  24.508   8.853
 7891POPC   GL238174  16.072  24.461   8.853
 7891POPC   C1A38175  15.983  24.472   8.553
 7891POPC   D2A38176  15.997  24.523   8.253
 7891POPC   C3A38177  15.930  24.484   7.953
 7891POPC   C4A38178  16.004  24.448   7.653
 7891POPC   C1B38179  16.181  24.465   8.553
 7891POPC   C2B38180  16.207  24.508   8.253
 7891POPC   C3B38181  16.206  24.507   7.953
 7891POPC   C4B38182  16.203  24.438   7.653
 7892POPC   NC338183  22.113  33.827   9.453
 7892POPC   PO438184  22.211  33.792   9.153
 7892POPC   GL138185  22.145  33.788   8.853
 7892POPC   GL238186  22.076  33.704   8.853
 7892POPC   C1A38187  22.151  33.815   8.553
 7892POPC   D2A38188  22.148  33.762   8.253
 7892POPC   C3A38189  22.142  33.830   7.953
 7892POPC   C4A38190  22.136  33.772   7.653
 7892POPC   C1B38191  22.011  33.643   8.553
 7892POPC   C2B38192  22.036  33.648   8.253
 7892POPC   C3B38193  22.005  33.646   7.953
 7892POPC   C4B38194  22.031  33.634   7.653
 7893POPC   NC338195  16.769   4.316   9.453
 7893POPC   PO438196  16.702   4.287   9.153
 7893POPC   GL138197  16.722   4.360   8.853
 7893POPC   GL238198  16.711   4.414   8.853
 7893POPC   C1A38199  16.730   4.281   8.553
 7893POPC   D2A38200  16.721   4.337   8.253
 7893POPC   C3A38201  16.755   4.308   7.953
 7893POPC   C4A38202  16.696   4.277   7.653
 7893POPC   C1B38203  16.758   4.536   8.553
 7893POPC   C2B38204  16.738   4.612   8.253
 7893POPC   C3B38205  16.786   4.561   7.953
 7893POPC   C4B38206  16.708   4.588   7.653
 7894POPC   NC338207  13.616  33.064   9.453
 7894POPC   PO438208  13.637  33.073   9.153
 7894POPC   GL138209  13.667  33.004   8.853
 7894POPC   GL238210  13.538  33.121   8.853
 7894POPC   C1A38211  13.582  32.982   8.553
 7894POPC   D2A38212  13.599  33.032   8.253
 7894POPC   C3A38213  13.642  33.014   7.953
 7894POPC   C4A38214  13.658  33.055   7.653
 7894POPC   C1B38215  13.487  33.266   8.553
 7894POPC   C2B38216  13.473  33.228   8.253
 7894POPC   C3B38217  13.443  33.252   7.953
 7894POPC   C4B38218  13.503  33.255   7.653
 7895POPC   NC338219  19.843  22.907   9.453
 7895POPC   PO438220  19.884  22.973   9.153
 7895POPC   GL138221  19.797  22.918   8.853
 7895POPC   GL238222  19.929  22.814   8.853
 7895POPC   C1A38223  19.808  22.932   8.553
 7895POPC   D2A38224  19.844  22.947   8.253
 7895POPC   C3A38225  19.866  22.960   7.953
 7895POPC   C4A38226  19.858  22.921   7.653
 7895POPC   C1B38227  20.030  22.806   8.553
 7895POPC   C2B38228  20.036  22.760   8.253
 7895POPC   C3B38229  20.048  22.800   7.953
 7895POPC   C4B38230  20.052  22.800   7.653
 7896POPC   NC338231   5.086  30.732   9.453
 7896POPC   PO438232   5.081  30.730   9.153
 7896POPC   GL138233   5.128  30.666   8.853
 7896POPC   GL238234   4.996  30.771   8.853
 7896POPC   C1A38235   5.108  30.673   8.553
 7896POPC   D2A38236   5.097  30.699   8.253
 7896POPC   C3A38237   5.135  30.659   7.953
 7896POPC   C4A38238   5.074  30.704   7.653
 7896POPC   C1B38239   4.908  30.850   8.553
 7896POPC   C2B38240   4.876  30.858   8.253
 7896POPC   C3B38241   4.928  30.805   7.953
 7896POPC   C4B38242   4.947  30.880   7.653
 7897POPC   NC338243  12.118  42.298   9.453
 7897POPC   PO438244  12.094  42.367   9.153
 7897POPC   GL138245  12.041  42.327   8.853
 7897POPC   GL238246  12.139  42.235   8.853
 7897POPC   C1A38247  12.072  42.355   8.553
 7897POPC   D2A38248  12.092  42.355   8.253
 7897POPC   C3A38249  12.034  42.326   7.953
 7897POPC   C4A38250  12.107  42.321   7.653
 7897POPC   C1B38251  12.274  42.114   8.553
 7897POPC   C2B38252  12.255  42.097   8.253
 7897POPC   C3B38253  12.249  42.129   7.953
 7897POPC   C4B38254  12.183  42.117   7.653
 7898POPC   NC338255  36.129  23.743   9.453
 7898POPC   PO438256  36.162  23.709   9.153
 7898POPC   GL138257  36.141  23.723   8.853
 7898POPC   GL238258  36.052  23.574   8.853
 7898POPC   C1A38259  36.157  23.759   8.553
 7898POPC   D2A38260  36.147  23.731   8.253
 7898POPC   C3A38261  36.126  23.699   7.953
 7898POPC   C4A38262  36.094  23.669   7.653
 7898POPC   C1B38263  36.030  23.499   8.553
 7898POPC   C2B38264  36.072  23.483   8.253
 7898POPC   C3B38265  36.080  23.450   7.953
 7898POPC   C4B38266  36.088  23.518   7.653
 7899POPC   NC338267  38.483  24.458   9.453
 7899POPC   PO438268  38.464  24.520   9.153
 7899POPC   GL138269  38.408  24.484   8.853
 7899POPC   GL238270  38.350  24.446   8.853
 7899POPC   C1A38271  38.468  24.481   8.553
 7899POPC   D2A38272  38.434  24.530   8.253
 7899POPC   C3A38273  38.459  24.449   7.953
 7899POPC   C4A38274  38.494  24.502   7.653
 7899POPC   C1B38275  38.262  24.422   8.553
 7899POPC   C2B38276  38.196  24.387   8.253
 7899POPC   C3B38277  38.281  24.388   7.953
 7899POPC   C4B38278  38.191  24.381   7.653
 7900POPC   NC338279  15.939  25.234   9.453
 7900POPC   PO438280  15.998  25.308   9.153
 7900POPC   GL138281  15.931  25.293   8.853
 7900POPC   GL238282  15.865  25.317   8.853
 7900POPC   C1A38283  15.981  25.302   8.553
 7900POPC   D2A38284  15.976  25.272   8.253
 7900POPC   C3A38285  15.993  25.312   7.953
 7900POPC   C4A38286  15.926  25.295   7.653
 7900POPC   C1B38287  15.673  25.377   8.553
 7900POPC   C2B38288  15.736  25.312   8.253
 7900POPC   C3B38289  15.741  25.360   7.953
 7900POPC   C4B38290  15.758  25.354   7.653
 7901POPC   NC338291  12.802  24.472   9.453
 7901POPC   PO438292  12.821  24.501   9.153
 7901POPC   GL138293  12.881  24.455   8.853
 7901POPC   GL238294  12.729  24.545   8.853
 7901POPC   C1A38295  12.819  24.503   8.553
 7901POPC   D2A38296  12.875  24.538   8.253
 7901POPC   C3A38297  12.885  24.455   7.953
 7901POPC   C4A38298  12.875  24.481   7.653
 7901POPC   C1B38299  12.570  24.597   8.553
 7901POPC   C2B38300  12.571  24.589   8.253
 7901POPC   C3B38301  12.588  24.532   7.953
 7901POPC   C4B38302  12.583  24.531   7.653
 7902POPC   NC338303   7.385  43.863   9.453
 7902POPC   PO438304   7.404  43.922   9.153
 7902POPC   GL138305   7.382  43.854   8.853
 7902POPC   GL238306   7.346  43.951   8.853
 7902POPC   C1A38307   7.421  43.841   8.553
 7902POPC   D2A38308   7.413  43.910   8.253
 7902POPC   C3A38309   7.388  43.907   7.953
 7902POPC   C4A38310   7.443  43.855   7.653
 7902POPC   C1B38311   7.194  44.008   8.553
 7902POPC   C2B38312   7.158  43.955   8.253
 7902POPC   C3B38313   7.147  44.025   7.953
 7902POPC   C4B38314   7.142  43.994   7.653
 7903POPC   NC338315  39.957  16.780   9.453
 7903POPC   PO438316  40.050  16.773   9.153
 7903POPC   GL138317  40.033  16.726   8.853
 7903POPC   GL238318  40.061  16.870   8.853
 7903POPC   C1A38319  40.001  16.683   8.553
 7903POPC   D2A38320  40.033  16.695   8.253
 7903POPC   C3A38321  40.048  16.736   7.953
 7903POPC   C4A38322  40.036  16.692   7.653
 7903POPC   C1B38323  40.122  16.907   8.553
 7903POPC   C2B38324  40.162  16.911   8.253
 7903POPC   C3B38325  40.112  16.947   7.953
 7903POPC   C4B38326  40.088  16.963   7.653
 7904POPC   NC338327   5.088  29.128   9.453
 7904POPC   PO438328   5.132  29.115   9.153
 7904POPC   GL138329   5.062  29.109   8.853
 7904POPC   GL238330   5.212  29.154   8.853
 7904POPC   C1A38331   5.112  29.123   8.553
 7904POPC   D2A38332   5.135  29.186   8.253
 7904POPC   C3A38333   5.121  29.183   7.953
 7904POPC   C4A38334   5.087  29.130   7.653
 7904POPC   C1B38335   5.372  29.137   8.553
 7904POPC   C2B38336   5.378  29.180   8.253
 7904POPC   C3B38337   5.344  29.156   7.953
 7904POPC   C4B38338   5.327  29.187   7.653
 7905POPC   NC338339  17.501   9.746   9.453
 7905POPC   PO438340  17.472   9.719   9.153
 7905POPC   GL138341  17.495   9.724   8.853
 7905POPC   GL238342  17.568   9.829   8.853
 7905POPC   C1A38343  17.543   9.755   8.553
 7905POPC   D2A38344  17.524   9.708   8.253
 7905POPC   C3A38345  17.542   9.759   7.953
 7905POPC   C4A38346  17.505   9.783   7.653
 7905POPC   C1B38347  17.543   9.998   8.553
 7905POPC   C2B38348  17.524   9.999   8.253
 7905POPC   C3B38349  17.554   9.996   7.953
 7905POPC   C4B38350  17.581   9.965   7.653
 7906POPC   NC338351   9.796  44.698   9.453
 7906POPC   PO438352   9.791  44.660   9.153
 7906POPC   GL138353   9.725  44.668   8.853
 7906POPC   GL238354   9.589  44.648   8.853
 7906POPC   C1A38355   9.770  44.711   8.553
 7906POPC   D2A38356   9.700  44.704   8.253
 7906POPC   C3A38357   9.712  44.655   7.953
 7906POPC   C4A38358   9.699  44.650   7.653
 7906POPC   C1B38359   9.512  44.578   8.553
 7906POPC   C2B38360   9.547  44.520   8.253
 7906POPC   C3B38361   9.561  44.558   7.953
 7906POPC   C4B38362   9.516  44.573   7.653
 7907POPC   NC338363  40.766  39.972   9.453
 7907POPC   PO438364  40.828  39.960   9.153
 7907POPC   GL138365  40.808  39.990   8.853
 7907POPC   GL238366  40.732  40.073   8.853
 7907POPC   C1A38367  40.784  40.007   8.553
 7907POPC   D2A38368  40.734  40.008   8.253
 7907POPC   C3A38369  40.769  40.055   7.953
 7907POPC   C4A38370  40.736  40.018   7.653
 7907POPC   C1B38371  40.625  40.241   8.553
 7907POPC   C2B38372  40.656  40.208   8.253
 7907POPC   C3B38373  40.630  40.174   7.953
 7907POPC   C4B38374  40.609  40.243   7.653
 7908POPC   NC338375   9.022   2.773   9.453
 7908POPC   PO438376   8.993   2.811   9.153
 7908POPC   GL138377   8.955   2.811   8.853
 7908POPC   GL238378   8.853   2.757   8.853
 7908POPC   C1A38379   8.930   2.724   8.553
 7908POPC   D2A38380   8.953   2.798   8.253
 7908POPC   C3A38381   8.948   2.734   7.953
 7908POPC   C4A38382   8.961   2.805   7.653
 7908POPC   C1B38383   8.736   2.702   8.553
 7908POPC   C2B38384   8.777   2.707   8.253
 7908POPC   C3B38385   8.739   2.662   7.953
 7908POPC   C4B38386   8.739   2.726   7.653
 7909POPC   NC338387  11.293   0.400   9.453
 7909POPC   PO438388  11.322   0.467   9.153
 7909POPC   GL138389  11.339   0.405   8.853
 7909POPC   GL238390  11.182   0.574   8.853
 7909POPC   C1A38391  11.299   0.420   8.553
 7909POPC   D2A38392  11.298   0.403   8.253
 7909POPC   C3A38393  11.314   0.483   7.953
 7909POPC   C4A38394  11.265   0.415   7.653
 7909POPC   C1B38395  11.103   0.590   8.553
 7909POPC   C2B38396  11.157   0.618   8.253
 7909POPC   C3B38397  11.143   0.604   7.953
 7909POPC   C4B38398  11.127   0.629   7.653
 7910POPC   NC338399   1.992  43.073   9.453
 7910POPC   PO438400   1.970  43.151   9.153
 7910POPC   GL138401   1.956  43.145   8.853
 7910POPC   GL238402   1.916  43.079   8.853
 7910POPC   C1A38403   1.997  43.080   8.553
 7910POPC   D2A38404   1.968  43.078   8.253
 7910POPC   C3A38405   1.988  43.130   7.953
 7910POPC   C4A38406   2.013  43.126   7.653
 7910POPC   C1B38407   1.807  43.014   8.553
 7910POPC   C2B38408   1.729  42.968   8.253
 7910POPC   C3B38409   1.807  43.022   7.953
 7910POPC   C4B38410   1.749  42.983   7.653
 7911POPC   NC338411  12.837  16.690   9.453
 7911POPC   PO438412  12.843  16.753   9.153
 7911POPC   GL138413  12.820  16.749   8.853
 7911POPC   GL238414  12.680  16.673   8.853
 7911POPC   C1A38415  12.878  16.779   8.553
 7911POPC   D2A38416  12.806  16.705   8.253
 7911POPC   C3A38417  12.852  16.717   7.953
 7911POPC   C4A38418  12.830  16.729   7.653
 7911POPC   C1B38419  12.597  16.645   8.553
 7911POPC   C2B38420  12.555  16.718   8.253
 7911POPC   C3B38421  12.559  16.661   7.953
 7911POPC   C4B38422  12.625  16.661   7.653
 7912POPC   NC338423  26.797  36.895   9.453
 7912POPC   PO438424  26.802  36.922   9.153
 7912POPC   GL138425  26.806  36.864   8.853
 7912POPC   GL238426  26.925  36.968   8.853
 7912POPC   C1A38427  26.781  36.924   8.553
 7912POPC   D2A38428  26.835  36.888   8.253
 7912POPC   C3A38429  26.815  36.883   7.953
 7912POPC   C4A38430  26.805  36.855   7.653
 7912POPC   C1B38431  27.021  37.025   8.553
 7912POPC   C2B38432  27.061  37.004   8.253
 7912POPC   C3B38433  27.026  37.026   7.953
 7912POPC   C4B38434  27.055  37.000   7.653
 7913POPC   NC338435   1.970  12.094   9.453
 7913POPC   PO438436   1.953  12.062   9.153
 7913POPC   GL138437   1.942  12.120   8.853
 7913POPC   GL238438   1.875  12.126   8.853
 7913POPC   C1A38439   2.001  12.107   8.553
 7913POPC   D2A38440   1.954  12.033   8.253
 7913POPC   C3A38441   1.964  12.114   7.953
 7913POPC   C4A38442   1.952  12.082   7.653
 7913POPC   C1B38443   1.720  12.062   8.553
 7913POPC   C2B38444   1.760  12.149   8.253
 7913POPC   C3B38445   1.728  12.146   7.953
 7913POPC   C4B38446   1.745  12.112   7.653
 7914POPC   NC338447  17.505   1.233   9.453
 7914POPC   PO438448  17.504   1.181   9.153
 7914POPC   GL138449  17.500   1.181   8.853
 7914POPC   GL238450  17.548   1.365   8.853
 7914POPC   C1A38451  17.543   1.175   8.553
 7914POPC   D2A38452  17.479   1.243   8.253
 7914POPC   C3A38453  17.488   1.255   7.953
 7914POPC   C4A38454  17.493   1.239   7.653
 7914POPC   C1B38455  17.557   1.430   8.553
 7914POPC   C2B38456  17.608   1.489   8.253
 7914POPC   C3B38457  17.611   1.421   7.953
 7914POPC   C4B38458  17.543   1.497   7.653
 7915POPC   NC338459   5.092  38.489   9.453
 7915POPC   PO438460   5.085  38.422   9.153
 7915POPC   GL138461   5.082  38.438   8.853
 7915POPC   GL238462   5.015  38.350   8.853
 7915POPC   C1A38463   5.115  38.467   8.553
 7915POPC   D2A38464   5.082  38.421   8.253
 7915POPC   C3A38465   5.118  38.444   7.953
 7915POPC   C4A38466   5.067  38.444   7.653
 7915POPC   C1B38467   4.947  38.247   8.553
 7915POPC   C2B38468   4.915  38.287   8.253
 7915POPC   C3B38469   4.910  38.244   7.953
 7915POPC   C4B38470   4.968  38.308   7.653
 7916POPC   NC338471  42.346   1.998   5.553
 7916POPC   PO438472  42.354   1.964   5.853
 7916POPC   GL138473  42.353   2.019   6.153
 7916POPC   GL238474  42.200   2.033   6.153
 7916POPC   C1A38475  42.304   2.018   6.453
 7916POPC   D2A38476  42.291   1.947   6.753
 7916POPC   C3A38477  42.362   1.955   7.053
 7916POPC   C4A38478  42.331   1.944   7.353
 7916POPC   C1B38479  42.112   2.116   6.453
 7916POPC   C2B38480  42.071   2.041   6.753
 7916POPC   C3B38481  42.118   2.063   7.053
 7916POPC   C4B38482  42.088   2.133   7.353
 7917POPC   NC338483  42.287  42.364   5.553
 7917POPC   PO438484  42.317  42.288   5.853
 7917POPC   GL138485  42.351  42.293   6.153
 7917POPC   GL238486  42.479  42.358   6.153
 7917POPC   C1A38487  42.315  42.300   6.453
 7917POPC   D2A38488  42.317  42.308   6.753
 7917POPC   C3A38489  42.372  42.301   7.053
 7917POPC   C4A38490  42.333  42.347   7.353
 7917POPC   C1B38491  42.568  42.337   6.453
 7917POPC   C2B38492  42.601  42.366   6.753
 7917POPC   C3B38493  42.540  42.385   7.053
 7917POPC   C4B38494  42.567  42.347   7.353
 7918POPC   NC338495   8.169  23.696   5.553
 7918POPC   PO438496   8.233  23.672   5.853
 7918POPC   GL138497   8.187  23.726   6.153
 7918POPC   GL238498   8.342  23.745   6.153
 7918POPC   C1A38499   8.198  23.671   6.453
 7918POPC   D2A38500   8.184  23.697   6.753
 7918POPC   C3A38501   8.220  23.735   7.053
 7918POPC   C4A38502   8.185  23.710   7.353
 7918POPC   C1B38503   8.388  23.803   6.453
 7918POPC   C2B38504   8.395  23.834   6.753
 7918POPC   C3B38505   8.422  23.829   7.053
 7918POPC   C4B38506   8.470  23.806   7.353
 7919POPC   NC338507  25.271  19.032   5.553
 7919POPC   PO438508  25.299  19.054   5.853
 7919POPC   GL138509  25.308  19.012   6.153
 7919POPC   GL238510  25.332  19.021   6.153
 7919POPC   C1A38511  25.218  19.029   6.453
 7919POPC   D2A38512  25.284  19.048   6.753
 7919POPC   C3A38513  25.252  19.047   7.053
 7919POPC   C4A38514  25.259  19.100   7.353
 7919POPC   C1B38515  25.449  18.918   6.453
 7919POPC   C2B38516  25.494  18.930   6.753
 7919POPC   C3B38517  25.471  18.953   7.053
 7919POPC   C4B38518  25.501  18.922   7.353
 7920POPC   NC338519  40.790  14.449   5.553
 7920POPC   PO438520  40.822  14.426   5.853
 7920POPC   GL138521  40.796  14.356   6.153
 7920POPC   GL238522  40.714  14.471   6.153
 7920POPC   C1A38523  40.760  14.453   6.453
 7920POPC   D2A38524  40.761  14.355   6.753
 7920POPC   C3A38525  40.810  14.394   7.053
 7920POPC   C4A38526  40.780  14.453   7.353
 7920POPC   C1B38527  40.519  14.565   6.453
 7920POPC   C2B38528  40.538  14.560   6.753
 7920POPC   C3B38529  40.555  14.510   7.053
 7920POPC   C4B38530  40.603  14.513   7.353
 7921POPC   NC338531  26.837   9.793   5.553
 7921POPC   PO438532  26.823   9.737   5.853
 7921POPC   GL138533  26.834   9.700   6.153
 7921POPC   GL238534  26.777   9.595   6.153
 7921POPC   C1A38535  26.842   9.792   6.453
 7921POPC   D2A38536  26.829   9.711   6.753
 7921POPC   C3A38537  26.781   9.765   7.053
 7921POPC   C4A38538  26.823   9.733   7.353
 7921POPC   C1B38539  26.717   9.482   6.453
 7921POPC   C2B38540  26.742   9.545   6.753
 7921POPC   C3B38541  26.651   9.534   7.053
 7921POPC   C4B38542  26.690   9.566   7.353
 7922POPC   NC338543   0.430  30.653   5.553
 7922POPC   PO438544   0.407  30.656   5.853
 7922POPC   GL138545   0.483  30.678   6.153
 7922POPC   GL238546   0.353  30.675   6.153
 7922POPC   C1A38547   0.423  30.656   6.453
 7922POPC   D2A38548   0.443  30.728   6.753
 7922POPC   C3A38549   0.477  30.707   7.053
 7922POPC   C4A38550   0.476  30.672   7.353
 7922POPC   C1B38551   0.153  30.737   6.453
 7922POPC   C2B38552   0.177  30.733   6.753
 7922POPC   C3B38553   0.188  30.731   7.053
 7922POPC   C4B38554   0.210  30.706   7.353
 7923POPC   NC338555  27.596  36.949   5.553
 7923POPC   PO438556  27.596  36.880   5.853
 7923POPC   GL138557  27.635  36.867   6.153
 7923POPC   GL238558  27.679  36.783   6.153
 7923POPC   C1A38559  27.633  36.883   6.453
 7923POPC   D2A38560  27.555  36.898   6.753
 7923POPC   C3A38561  27.587  36.890   7.053
 7923POPC   C4A38562  27.545  36.915   7.353
 7923POPC   C1B38563  27.747  36.738   6.453
 7923POPC   C2B38564  27.671  36.659   6.753
 7923POPC   C3B38565  27.753  36.667   7.053
 7923POPC   C4B38566  27.732  36.639   7.353
 7924POPC   NC338567  29.188  35.356   5.553
 7924POPC   PO438568  29.108  35.354   5.853
 7924POPC   GL138569  29.165  35.384   6.153
 7924POPC   GL238570  29.073  35.235   6.153
 7924POPC   C1A38571  29.171  35.314   6.453
 7924POPC   D2A38572  29.163  35.327   6.753
 7924POPC   C3A38573  29.182  35.316   7.053
 7924POPC   C4A38574  29.104  35.364   7.353
 7924POPC   C1B38575  28.971  35.209   6.453
 7924POPC   C2B38576  28.946  35.169   6.753
 7924POPC   C3B38577  28.942  35.159   7.053
 7924POPC   C4B38578  28.941  35.234   7.353
 7925POPC   NC338579  29.172  36.136   5.553
 7925POPC   PO438580  29.142  36.156   5.853
 7925POPC   GL138581  29.120  36.154   6.153
 7925POPC   GL238582  29.213  36.218   6.153
 7925POPC   C1A38583  29.172  36.155   6.453
 7925POPC   D2A38584  29.176  36.155   6.753
 7925POPC   C3A38585  29.179  36.129   7.053
 7925POPC   C4A38586  29.171  36.174   7.353
 7925POPC   C1B38587  29.270  36.341   6.453
 7925POPC   C2B38588  29.277  36.260   6.753
 7925POPC   C3B38589  29.304  36.295   7.053
 7925POPC   C4B38590  29.314  36.309   7.353
 7926POPC   NC338591  10.514  42.287   5.553
 7926POPC   PO438592  10.479  42.324   5.853
 7926POPC   GL138593  10.483  42.335   6.153
 7926POPC   GL238594  10.591  42.433   6.153
 7926POPC   C1A38595  10.505  42.376   6.453
 7926POPC   D2A38596  10.553  42.370   6.753
 7926POPC   C3A38597  10.538  42.331   7.053
 7926POPC   C4A38598  10.501  42.362   7.353
 7926POPC   C1B38599  10.743  42.545   6.453
 7926POPC   C2B38600  10.707  42.490   6.753
 7926POPC   C3B38601  10.718  42.509   7.053
 7926POPC   C4B38602  10.689  42.536   7.353
 7927POPC   NC338603  36.890  29.910   5.553
 7927POPC   PO438604  36.909  29.876   5.853
 7927POPC   GL138605  36.901  29.954   6.153
 7927POPC   GL238606  37.027  29.908   6.153
 7927POPC   C1A38607  36.935  29.877   6.453
 7927POPC   D2A38608  36.861  29.917   6.753
 7927POPC   C3A38609  36.924  29.948   7.053
 7927POPC   C4A38610  36.911  29.885   7.353
 7927POPC   C1B38611  37.134  29.759   6.453
 7927POPC   C2B38612  37.127  29.841   6.753
 7927POPC   C3B38613  37.116  29.799   7.053
 7927POPC   C4B38614  37.148  29.840   7.353
 7928POPC   NC338615  23.745  28.401   5.553
 7928POPC   PO438616  23.718  28.343   5.853
 7928POPC   GL138617  23.735  28.389   6.153
 7928POPC   GL238618  23.591  28.442   6.153
 7928POPC   C1A38619  23.739  28.389   6.453
 7928POPC   D2A38620  23.742  28.387   6.753
 7928POPC   C3A38621  23.707  28.384   7.053
 7928POPC   C4A38622  23.686  28.340   7.353
 7928POPC   C1B38623  23.515  28.522   6.453
 7928POPC   C2B38624  23.561  28.580   6.753
 7928POPC   C3B38625  23.489  28.533   7.053
 7928POPC   C4B38626  23.514  28.540   7.353
 7929POPC   NC338627  40.041  21.363   5.553
 7929POPC   PO438628  40.028  21.433   5.853
 7929POPC   GL138629  40.024  21.380   6.153
 7929POPC   GL238630  40.036  21.458   6.153
 7929POPC   C1A38631  40.017  21.336   6.453
 7929POPC   D2A38632  39.970  21.397   6.753
 7929POPC   C3A38633  40.019  21.405   7.053
 7929POPC   C4A38634  39.980  21.369   7.353
 7929POPC   C1B38635  40.069  21.645   6.453
 7929POPC   C2B38636  40.053  21.596   6.753
 7929POPC   C3B38637  40.122  21.647   7.053
 7929POPC   C4B38638  40.050  21.671   7.353
 7930POPC   NC338639   2.030  28.339   5.553
 7930POPC   PO438640   2.015  28.400   5.853
 7930POPC   GL138641   1.960  28.332   6.153
 7930POPC   GL238642   1.899  28.417   6.153
 7930POPC   C1A38643   1.951  28.368   6.453
 7930POPC   D2A38644   2.001  28.356   6.753
 7930POPC   C3A38645   1.955  28.402   7.053
 7930POPC   C4A38646   1.956  28.326   7.353
 7930POPC   C1B38647   1.851  28.548   6.453
 7930POPC   C2B38648   1.772  28.574   6.753
 7930POPC   C3B38649   1.823  28.596   7.053
 7930POPC   C4B38650   1.851  28.523   7.353
 7931POPC   NC338651  19.863  29.901   5.553
 7931POPC   PO438652  19.800  29.886   5.853
 7931POPC   GL138653  19.848  29.888   6.153
 7931POPC   GL238654  19.889  30.007   6.153
 7931POPC   C1A38655  19.868  29.903   6.453
 7931POPC   D2A38656  19.874  29.894   6.753
 7931POPC   C3A38657  19.821  29.959   7.053
 7931POPC   C4A38658  19.801  29.928   7.353
 7931POPC   C1B38659  20.005  30.112   6.453
 7931POPC   C2B38660  19.955  30.087   6.753
 7931POPC   C3B38661  19.982  30.113   7.053
 7931POPC   C4B38662  19.953  30.182   7.353
 7932POPC   NC338663   4.355  29.941   5.553
 7932POPC   PO438664   4.273  29.918   5.853
 7932POPC   GL138665   4.341  29.897   6.153
 7932POPC   GL238666   4.395  29.854   6.153
 7932POPC   C1A38667   4.281  29.970   6.453
 7932POPC   D2A38668   4.303  29.881   6.753
 7932POPC   C3A38669   4.340  29.888   7.053
 7932POPC   C4A38670   4.350  29.908   7.353
 7932POPC   C1B38671   4.481  29.737   6.453
 7932POPC   C2B38672   4.521  29.767   6.753
 7932POPC   C3B38673   4.481  29.741   7.053
 7932POPC   C4B38674   4.464  29.721   7.353
 7933POPC   NC338675  39.213  15.941   5.553
 7933POPC   PO438676  39.226  15.956   5.853
 7933POPC   GL138677  39.230  15.952   6.153
 7933POPC   GL238678  39.154  16.072   6.153
 7933POPC   C1A38679  39.185  15.985   6.453
 7933POPC   D2A38680  39.189  15.999   6.753
 7933POPC   C3A38681  39.260  15.930   7.053
 7933POPC   C4A38682  39.268  15.931   7.353
 7933POPC   C1B38683  39.110  16.208   6.453
 7933POPC   C2B38684  39.133  16.189   6.753
 7933POPC   C3B38685  39.097  16.224   7.053
 7933POPC   C4B38686  39.136  16.230   7.353
 7934POPC   NC338687  19.049   0.435   5.553
 7934POPC   PO438688  19.068   0.427   5.853
 7934POPC   GL138689  19.032   0.390   6.153
 7934POPC   GL238690  19.029   0.519   6.153
 7934POPC   C1A38691  19.079   0.438   6.453
 7934POPC   D2A38692  19.032   0.478   6.753
 7934POPC   C3A38693  19.043   0.472   7.053
 7934POPC   C4A38694  19.083   0.463   7.353
 7934POPC   C1B38695  18.930   0.603   6.453
 7934POPC   C2B38696  18.924   0.593   6.753
 7934POPC   C3B38697  18.936   0.662   7.053
 7934POPC   C4B38698  18.950   0.595   7.353
 7935POPC   NC338699  28.374  14.393   5.553
 7935POPC   PO438700  28.404  14.445   5.853
 7935POPC   GL138701  28.363  14.450   6.153
 7935POPC   GL238702  28.499  14.478   6.153
 7935POPC   C1A38703  28.325  14.420   6.453
 7935POPC   D2A38704  28.319  14.411   6.753
 7935POPC   C3A38705  28.374  14.381   7.053
 7935POPC   C4A38706  28.374  14.435   7.353
 7935POPC   C1B38707  28.599  14.542   6.453
 7935POPC   C2B38708  28.640  14.480   6.753
 7935POPC   C3B38709  28.606  14.522   7.053
 7935POPC   C4B38710  28.554  14.491   7.353
 7936POPC   NC338711  19.078  40.775   5.553
 7936POPC   PO438712  19.030  40.829   5.853
 7936POPC   GL138713  19.098  40.772   6.153
 7936POPC   GL238714  18.992  40.857   6.153
 7936POPC   C1A38715  19.020  40.753   6.453
 7936POPC   D2A38716  19.014  40.809   6.753
 7936POPC   C3A38717  19.097  40.745   7.053
 7936POPC   C4A38718  19.054  40.783   7.353
 7936POPC   C1B38719  18.960  40.982   6.453
 7936POPC   C2B38720  18.970  40.983   6.753
 7936POPC   C3B38721  18.956  40.972   7.053
 7936POPC   C4B38722  18.983  41.006   7.353
 7937POPC   NC338723  42.330   3.530   5.553
 7937POPC   PO438724  42.317   3.583   5.853
 7937POPC   GL138725  42.361   3.524   6.153
 7937POPC   GL238726  42.443   3.470   6.153
 7937POPC   C1A38727  42.370   3.578   6.453
 7937POPC   D2A38728  42.342   3.525   6.753
 7937POPC   C3A38729  42.350   3.543   7.053
 7937POPC   C4A38730  42.372   3.506   7.353
 7937POPC   C1B38731  42.521   3.340   6.453
 7937POPC   C2B38732  42.502   3.387   6.753
 7937POPC   C3B38733  42.496   3.329   7.053
 7937POPC   C4B38734  42.494   3.399   7.353
 7938POPC   NC338735  13.592  12.074   5.553
 7938POPC   PO438736  13.603  12.107   5.853
 7938POPC   GL138737  13.615  12.113   6.153
 7938POPC   GL238738  13.487  12.151   6.153
 7938POPC   C1A38739  13.669  12.035   6.453
 7938POPC   D2A38740  13.639  12.030   6.753
 7938POPC   C3A38741  13.648  12.069   7.053
 7938POPC   C4A38742  13.631  12.115   7.353
 7938POPC   C1B38743  13.402  12.162   6.453
 7938POPC   C2B38744  13.401  12.252   6.753
 7938POPC   C3B38745  13.412  12.211   7.053
 7938POPC   C4B38746  13.411  12.190   7.353
 7939POPC   NC338747  11.318  12.093   5.553
 7939POPC   PO438748  11.300  12.062   5.853
 7939POPC   GL138749  11.328  12.061   6.153
 7939POPC   GL238750  11.368  12.143   6.153
 7939POPC   C1A38751  11.266  12.084   6.453
 7939POPC   D2A38752  11.296  12.124   6.753
 7939POPC   C3A38753  11.261  12.041   7.053
 7939POPC   C4A38754  11.277  12.046   7.353
 7939POPC   C1B38755  11.402  12.257   6.453
 7939POPC   C2B38756  11.446  12.316   6.753
 7939POPC   C3B38757  11.483  12.275   7.053
 7939POPC   C4B38758  11.430  12.263   7.353
 7940POPC   NC338759   7.450  22.125   5.553
 7940POPC   PO438760   7.426  22.194   5.853
 7940POPC   GL138761   7.405  22.131   6.153
 7940POPC   GL238762   7.451  22.077   6.153
 7940POPC   C1A38763   7.444  22.202   6.453
 7940POPC   D2A38764   7.426  22.203   6.753
 7940POPC   C3A38765   7.385  22.127   7.053
 7940POPC   C4A38766   7.424  22.160   7.353
 7940POPC   C1B38767   7.382  21.903   6.453
 7940POPC   C2B38768   7.444  21.903   6.753
 7940POPC   C3B38769   7.438  21.873   7.053
 7940POPC   C4B38770   7.422  21.912   7.353
 7941POPC   NC338771  28.346  12.086   5.553
 7941POPC   PO438772  28.394  12.063   5.853
 7941POPC   GL138773  28.340  12.078   6.153
 7941POPC   GL238774  28.450  11.998   6.153
 7941POPC   C1A38775  28.384  12.113   6.453
 7941POPC   D2A38776  28.351  12.117   6.753
 7941POPC   C3A38777  28.379  12.078   7.053
 7941POPC   C4A38778  28.350  12.067   7.353
 7941POPC   C1B38779  28.511  11.856   6.453
 7941POPC   C2B38780  28.537  11.866   6.753
 7941POPC   C3B38781  28.492  11.874   7.053
 7941POPC   C4B38782  28.495  11.863   7.353
 7942POPC   NC338783   7.465  34.620   5.553
 7942POPC   PO438784   7.419  34.530   5.853
 7942POPC   GL138785   7.452  34.530   6.153
 7942POPC   GL238786   7.387  34.418   6.153
 7942POPC   C1A38787   7.455  34.570   6.453
 7942POPC   D2A38788   7.410  34.585   6.753
 7942POPC   C3A38789   7.375  34.543   7.053
 7942POPC   C4A38790   7.384  34.567   7.353
 7942POPC   C1B38791   7.303  34.321   6.453
 7942POPC   C2B38792   7.326  34.332   6.753
 7942POPC   C3B38793   7.336  34.402   7.053
 7942POPC   C4B38794   7.344  34.401   7.353
 7943POPC   NC338795  36.949  40.805   5.553
 7943POPC   PO438796  36.911  40.737   5.853
 7943POPC   GL138797  36.952  40.794   6.153
 7943POPC   GL238798  36.893  40.629   6.153
 7943POPC   C1A38799  36.864  40.800   6.453
 7943POPC   D2A38800  36.939  40.735   6.753
 7943POPC   C3A38801  36.855  40.785   7.053
 7943POPC   C4A38802  36.936  40.814   7.353
 7943POPC   C1B38803  37.001  40.551   6.453
 7943POPC   C2B38804  36.977  40.574   6.753
 7943POPC   C3B38805  37.000  40.584   7.053
 7943POPC   C4B38806  36.974  40.578   7.353
 7944POPC   NC338807  38.467  12.076   5.553
 7944POPC   PO438808  38.416  12.091   5.853
 7944POPC   GL138809  38.465  12.111   6.153
 7944POPC   GL238810  38.586  11.970   6.153
 7944POPC   C1A38811  38.433  12.051   6.453
 7944POPC   D2A38812  38.431  12.110   6.753
 7944POPC   C3A38813  38.503  12.103   7.053
 7944POPC   C4A38814  38.412  12.120   7.353
 7944POPC   C1B38815  38.607  11.913   6.453
 7944POPC   C2B38816  38.614  11.911   6.753
 7944POPC   C3B38817  38.585  11.868   7.053
 7944POPC   C4B38818  38.601  11.923   7.353
 7945POPC   NC338819  17.546   7.425   5.553
 7945POPC   PO438820  17.511   7.385   5.853
 7945POPC   GL138821  17.545   7.385   6.153
 7945POPC   GL238822  17.584   7.288   6.153
 7945POPC   C1A38823  17.540   7.405   6.453
 7945POPC   D2A38824  17.525   7.393   6.753
 7945POPC   C3A38825  17.476   7.457   7.053
 7945POPC   C4A38826  17.545   7.417   7.353
 7945POPC   C1B38827  17.546   7.216   6.453
 7945POPC   C2B38828  17.610   7.207   6.753
 7945POPC   C3B38829  17.582   7.155   7.053
 7945POPC   C4B38830  17.595   7.188   7.353
 7946POPC   NC338831   7.373   9.792   5.553
 7946POPC   PO438832   7.441   9.789   5.853
 7946POPC   GL138833   7.408   9.757   6.153
 7946POPC   GL238834   7.545   9.849   6.153
 7946POPC   C1A38835   7.372   9.752   6.453
 7946POPC   D2A38836   7.418   9.734   6.753
 7946POPC   C3A38837   7.375   9.793   7.053
 7946POPC   C4A38838   7.373   9.784   7.353
 7946POPC   C1B38839   7.598   9.890   6.453
 7946POPC   C2B38840   7.663   9.896   6.753
 7946POPC   C3B38841   7.667   9.846   7.053
 7946POPC   C4B38842   7.625   9.878   7.353
 7947POPC   NC338843  28.383  22.920   5.553
 7947POPC   PO438844  28.412  22.977   5.853
 7947POPC   GL138845  28.399  22.967   6.153
 7947POPC   GL238846  28.294  22.819   6.153
 7947POPC   C1A38847  28.385  22.974   6.453
 7947POPC   D2A38848  28.378  22.934   6.753
 7947POPC   C3A38849  28.350  22.982   7.053
 7947POPC   C4A38850  28.383  22.973   7.353
 7947POPC   C1B38851  28.232  22.766   6.453
 7947POPC   C2B38852  28.225  22.760   6.753
 7947POPC   C3B38853  28.205  22.766   7.053
 7947POPC   C4B38854  28.242  22.765   7.353
 7948POPC   NC338855   2.023  33.002   5.553
 7948POPC   PO438856   2.037  33.058   5.853
 7948POPC   GL138857   2.037  33.039   6.153
 7948POPC   GL238858   2.040  32.955   6.153
 7948POPC   C1A38859   1.967  33.069   6.453
 7948POPC   D2A38860   1.941  33.054   6.753
 7948POPC   C3A38861   2.035  33.020   7.053
 7948POPC   C4A38862   1.969  33.054   7.353
 7948POPC   C1B38863   2.066  32.791   6.453
 7948POPC   C2B38864   2.148  32.766   6.753
 7948POPC   C3B38865   2.126  32.832   7.053
 7948POPC   C4B38866   2.110  32.759   7.353
 7949POPC   NC338867  23.763  13.598   5.553
 7949POPC   PO438868  23.735  13.583   5.853
 7949POPC   GL138869  23.754  13.580   6.153
 7949POPC   GL238870  23.812  13.745   6.153
 7949POPC   C1A38871  23.670  13.667   6.453
 7949POPC   D2A38872  23.710  13.628   6.753
 7949POPC   C3A38873  23.685  13.623   7.053
 7949POPC   C4A38874  23.701  13.594   7.353
 7949POPC   C1B38875  23.862  13.845   6.453
 7949POPC   C2B38876  23.872  13.832   6.753
 7949POPC   C3B38877  23.849  13.778   7.053
 7949POPC   C4B38878  23.858  13.841   7.353
 7950POPC   NC338879  24.513  11.336   5.553
 7950POPC   PO438880  24.515  11.280   5.853
 7950POPC   GL138881  24.496  11.291   6.153
 7950POPC   GL238882  24.463  11.219   6.153
 7950POPC   C1A38883  24.538  11.253   6.453
 7950POPC   D2A38884  24.489  11.313   6.753
 7950POPC   C3A38885  24.534  11.294   7.053
 7950POPC   C4A38886  24.475  11.286   7.353
 7950POPC   C1B38887  24.412  11.063   6.453
 7950POPC   C2B38888  24.433  11.091   6.753
 7950POPC   C3B38889  24.468  11.010   7.053
 7950POPC   C4B38890  24.412  11.069   7.353
 7951POPC   NC338891  33.826  14.413   5.553
 7951POPC   PO438892  33.776  14.384   5.853
 7951POPC   GL138893  33.786  14.363   6.153
 7951POPC   GL238894  33.899  14.345   6.153
 7951POPC   C1A38895  33.796  14.437   6.453
 7951POPC   D2A38896  33.831  14.359   6.753
 7951POPC   C3A38897  33.827  14.354   7.053
 7951POPC   C4A38898  33.759  14.440   7.353
 7951POPC   C1B38899  33.995  14.272   6.453
 7951POPC   C2B38900  34.064  14.330   6.753
 7951POPC   C3B38901  34.018  14.308   7.053
 7951POPC   C4B38902  34.001  14.330   7.353
 7952POPC   NC338903  35.350  35.342   5.553
 7952POPC   PO438904  35.369  35.360   5.853
 7952POPC   GL138905  35.393  35.361   6.153
 7952POPC   GL238906  35.271  35.282   6.153
 7952POPC   C1A38907  35.378  35.352   6.453
 7952POPC   D2A38908  35.367  35.398   6.753
 7952POPC   C3A38909  35.316  35.383   7.053
 7952POPC   C4A38910  35.331  35.346   7.353
 7952POPC   C1B38911  35.072  35.268   6.453
 7952POPC   C2B38912  35.094  35.329   6.753
 7952POPC   C3B38913  35.112  35.339   7.053
 7952POPC   C4B38914  35.104  35.301   7.353
 7953POPC   NC338915  40.015   5.905   5.553
 7953POPC   PO438916  40.023   5.856   5.853
 7953POPC   GL138917  39.995   5.883   6.153
 7953POPC   GL238918  39.989   5.726   6.153
 7953POPC   C1A38919  40.001   5.819   6.453
 7953POPC   D2A38920  40.041   5.899   6.753
 7953POPC   C3A38921  40.029   5.873   7.053
 7953POPC   C4A38922  39.958   5.903   7.353
 7953POPC   C1B38923  39.957   5.577   6.453
 7953POPC   C2B38924  39.941   5.656   6.753
 7953POPC   C3B38925  40.021   5.632   7.053
 7953POPC   C4B38926  39.932   5.593   7.353
 7954POPC   NC338927   5.851  26.774   5.553
 7954POPC   PO438928   5.887  26.798   5.853
 7954POPC   GL138929   5.880  26.788   6.153
 7954POPC   GL238930   5.839  26.937   6.153
 7954POPC   C1A38931   5.914  26.831   6.453
 7954POPC   D2A38932   5.839  26.800   6.753
 7954POPC   C3A38933   5.899  26.836   7.053
 7954POPC   C4A38934   5.861  26.863   7.353
 7954POPC   C1B38935   5.770  27.024   6.453
 7954POPC   C2B38936   5.715  27.009   6.753
 7954POPC   C3B38937   5.696  27.016   7.053
 7954POPC   C4B38938   5.767  27.049   7.353
 7955POPC   NC338939  36.911  32.988   5.553
 7955POPC   PO438940  36.880  33.053   5.853
 7955POPC   GL138941  36.867  33.000   6.153
 7955POPC   GL238942  36.904  33.139   6.153
 7955POPC   C1A38943  36.912  32.993   6.453
 7955POPC   D2A38944  36.928  33.005   6.753
 7955POPC   C3A38945  36.943  33.035   7.053
 7955POPC   C4A38946  36.934  33.017   7.353
 7955POPC   C1B38947  36.848  33.212   6.453
 7955POPC   C2B38948  36.868  33.228   6.753
 7955POPC   C3B38949  36.846  33.238   7.053
 7955POPC   C4B38950  36.814  33.286   7.353
 7956POPC   NC338951  36.866  36.109   5.553
 7956POPC   PO438952  36.859  36.168   5.853
 7956POPC   GL138953  36.870  36.153   6.153
 7956POPC   GL238954  36.984  36.000   6.153
 7956POPC   C1A38955  36.927  36.165   6.453
 7956POPC   D2A38956  36.914  36.126   6.753
 7956POPC   C3A38957  36.859  36.098   7.053
 7956POPC   C4A38958  36.890  36.159   7.353
 7956POPC   C1B38959  37.013  35.921   6.453
 7956POPC   C2B38960  37.023  35.958   6.753
 7956POPC   C3B38961  36.986  35.909   7.053
 7956POPC   C4B38962  37.016  35.949   7.353
 7957POPC   NC338963  14.425  11.317   5.553
 7957POPC   PO438964  14.432  11.320   5.853
 7957POPC   GL138965  14.368  11.322   6.153
 7957POPC   GL238966  14.551  11.255   6.153
 7957POPC   C1A38967  14.357  11.323   6.453
 7957POPC   D2A38968  14.376  11.295   6.753
 7957POPC   C3A38969  14.375  11.280   7.053
 7957POPC   C4A38970  14.410  11.319   7.353
 7957POPC   C1B38971  14.622  11.336   6.453
 7957POPC   C2B38972  14.663  11.303   6.753
 7957POPC   C3B38973  14.677  11.268   7.053
 7957POPC   C4B38974  14.638  11.312   7.353
 7958POPC   NC338975   5.136  15.155   5.553
 7958POPC   PO438976   5.105  15.153   5.853
 7958POPC   GL138977   5.090  15.169   6.153
 7958POPC   GL238978   5.227  15.097   6.153
 7958POPC   C1A38979   5.128  15.186   6.453
 7958POPC   D2A38980   5.103  15.130   6.753
 7958POPC   C3A38981   5.119  15.227   7.053
 7958POPC   C4A38982   5.128  15.172   7.353
 7958POPC   C1B38983   5.265  15.044   6.453
 7958POPC   C2B38984   5.243  15.001   6.753
 7958POPC   C3B38985   5.232  14.958   7.053
 7958POPC   C4B38986   5.285  14.992   7.353
 7959POPC   NC338987   7.463  39.994   5.553
 7959POPC   PO438988   7.441  40.044   5.853
 7959POPC   GL138989   7.438  40.037   6.153
 7959POPC   GL238990   7.280  39.974   6.153
 7959POPC   C1A38991   7.427  40.027   6.453
 7959POPC   D2A38992   7.426  40.012   6.753
 7959POPC   C3A38993   7.384  39.976   7.053
 7959POPC   C4A38994   7.384  40.049   7.353
 7959POPC   C1B38995   7.159  39.884   6.453
 7959POPC   C2B38996   7.235  39.952   6.753
 7959POPC   C3B38997   7.135  39.946   7.053
 7959POPC   C4B38998   7.136  39.885   7.353
 7960POPC   NC338999  39.220  30.725   5.553
 7960POPC   PO439000  39.238  30.731   5.853
 7960POPC   GL139001  39.238  30.682   6.153
 7960POPC   GL239002  39.117  30.593   6.153
 7960POPC   C1A39003  39.233  30.694   6.453
 7960POPC   D2A39004  39.264  30.667   6.753
 7960POPC   C3A39005  39.280  30.685   7.053
 7960POPC   C4A39006  39.206  30.727   7.353
 7960POPC   C1B39007  39.032  30.591   6.453
 7960POPC   C2B39008  39.075  30.530   6.753
 7960POPC   C3B39009  39.015  30.546   7.053
 7960POPC   C4B39010  39.000  30.587   7.353
 7961POPC   NC339011  13.674  29.886   5.553
 7961POPC   PO439012  13.650  29.965   5.853
 7961POPC   GL139013  13.589  29.911   6.153
 7961POPC   GL239014  13.686  29.855   6.153
 7961POPC   C1A39015  13.598  29.934   6.453
 7961POPC   D2A39016  13.603  29.917   6.753
 7961POPC   C3A39017  13.631  29.923   7.053
 7961POPC   C4A39018  13.659  29.960   7.353
 7961POPC   C1B39019  13.729  29.707   6.453
 7961POPC   C2B39020  13.795  29.665   6.753
 7961POPC   C3B39021  13.782  29.725   7.053
 7961POPC   C4B39022  13.793  29.749   7.353
 7962POPC   NC339023  42.366  25.304   5.553
 7962POPC   PO439024  42.325  25.244   5.853
 7962POPC   GL139025  42.302  25.247   6.153
 7962POPC   GL239026  42.325  25.358   6.153
 7962POPC   C1A39027  42.355  25.233   6.453
 7962POPC   D2A39028  42.370  25.219   6.753
 7962POPC   C3A39029  42.348  25.302   7.053
 7962POPC   C4A39030  42.313  25.258   7.353
 7962POPC   C1B39031  42.228  25.507   6.453
 7962POPC   C2B39032  42.235  25.530   6.753
 7962POPC   C3B39033  42.259  25.451   7.053
 7962POPC   C4B39034  42.258  25.486   7.353
 7963POPC   NC339035  40.787  42.287   5.553
 7963POPC   PO439036  40.826  42.300   5.853
 7963POPC   GL139037  40.816  42.369   6.153
 7963POPC   GL239038  40.648  42.385   6.153
 7963POPC   C1A39039  40.734  42.295   6.453
 7963POPC   D2A39040  40.744  42.296   6.753
 7963POPC   C3A39041  40.808  42.372   7.053
 7963POPC   C4A39042  40.733  42.371   7.353
 7963POPC   C1B39043  40.585  42.357   6.453
 7963POPC   C2B39044  40.526  42.344   6.753
 7963POPC   C3B39045  40.508  42.370   7.053
 7963POPC   C4B39046  40.524  42.383   7.353
 7964POPC   NC339047   8.187  27.611   5.553
 7964POPC   PO439048   8.232  27.612   5.853
 7964POPC   GL139049   8.196  27.626   6.153
 7964POPC   GL239050   8.193  27.424   6.153
 7964POPC   C1A39051   8.192  27.556   6.453
 7964POPC   D2A39052   8.168  27.578   6.753
 7964POPC   C3A39053   8.222  27.612   7.053
 7964POPC   C4A39054   8.206  27.611   7.353
 7964POPC   C1B39055   8.111  27.380   6.453
 7964POPC   C2B39056   8.179  27.389   6.753
 7964POPC   C3B39057   8.108  27.330   7.053
 7964POPC   C4B39058   8.116  27.343   7.353
 7965POPC   NC339059   7.453  38.413   5.553
 7965POPC   PO439060   7.421  38.409   5.853
 7965POPC   GL139061   7.414  38.411   6.153
 7965POPC   GL239062   7.391  38.599   6.153
 7965POPC   C1A39063   7.393  38.495   6.453
 7965POPC   D2A39064   7.458  38.456   6.753
 7965POPC   C3A39065   7.406  38.416   7.053
 7965POPC   C4A39066   7.424  38.475   7.353
 7965POPC   C1B39067   7.481  38.682   6.453
 7965POPC   C2B39068   7.414  38.669   6.753
 7965POPC   C3B39069   7.448  38.746   7.053
 7965POPC   C4B39070   7.396  38.693   7.353
 7966POPC   NC339071  10.485  28.345   5.553
 7966POPC   PO439072  10.536  28.373   5.853
 7966POPC   GL139073  10.514  28.329   6.153
 7966POPC   GL239074  10.426  28.330   6.153
 7966POPC   C1A39075  10.507  28.349   6.453
 7966POPC   D2A39076  10.536  28.321   6.753
 7966POPC   C3A39077  10.538  28.341   7.053
 7966POPC   C4A39078  10.539  28.340   7.353
 7966POPC   C1B39079  10.382  28.204   6.453
 7966POPC   C2B39080  10.336  28.215   6.753
 7966POPC   C3B39081  10.307  28.238   7.053
 7966POPC   C4B39082  10.354  28.217   7.353
 7967POPC   NC339083  17.539   4.329   5.553
 7967POPC   PO439084  17.475   4.294   5.853
 7967POPC   GL139085  17.475   4.329   6.153
 7967POPC   GL239086  17.384   4.323   6.153
 7967POPC   C1A39087  17.542   4.360   6.453
 7967POPC   D2A39088  17.496   4.363   6.753
 7967POPC   C3A39089  17.524   4.322   7.053
 7967POPC   C4A39090  17.458   4.313   7.353
 7967POPC   C1B39091  17.285   4.387   6.453
 7967POPC   C2B39092  17.225   4.414   6.753
 7967POPC   C3B39093  17.307   4.354   7.053
 7967POPC   C4B39094  17.220   4.376   7.353
 7968POPC   NC339095  36.085  11.325   5.553
 7968POPC   PO439096  36.164  11.333   5.853
 7968POPC   GL139097  36.095  11.326   6.153
 7968POPC   GL239098  36.203  11.241   6.153
 7968POPC   C1A39099  36.117  11.251   6.453
 7968POPC   D2A39100  36.132  11.310   6.753
 7968POPC   C3A39101  36.100  11.276   7.053
 7968POPC   C4A39102  36.079  11.323   7.353
 7968POPC   C1B39103  36.356  11.218   6.453
 7968POPC   C2B39104  36.334  11.245   6.753
 7968POPC   C3B39105  36.352  11.211   7.053
 7968POPC   C4B39106  36.306  11.158   7.353
 7969POPC   NC339107  39.964  37.654   5.553
 7969POPC   PO439108  40.041  37.719   5.853
 7969POPC   GL139109  40.028  37.679   6.153
 7969POPC   GL239110  39.965  37.810   6.153
 7969POPC   C1A39111  39.986  37.723   6.453
 7969POPC   D2A39112  39.998  37.683   6.753
 7969POPC   C3A39113  40.045  37.705   7.053
 7969POPC   C4A39114  39.982  37.720   7.353
 7969POPC   C1B39115  39.889  37.957   6.453
 7969POPC   C2B39116  39.905  37.885   6.753
 7969POPC   C3B39117  39.962  37.942   7.053
 7969POPC   C4B39118  39.909  37.960   7.353
 7970POPC   NC339119  20.645   5.044   5.553
 7970POPC   PO439120  20.614   5.048   5.853
 7970POPC   GL139121  20.660   5.136   6.153
 7970POPC   GL239122  20.555   5.013   6.153
 7970POPC   C1A39123  20.626   5.055   6.453
 7970POPC   D2A39124  20.578   5.127   6.753
 7970POPC   C3A39125  20.592   5.082   7.053
 7970POPC   C4A39126  20.575   5.049   7.353
 7970POPC   C1B39127  20.438   4.832   6.453
 7970POPC   C2B39128  20.486   4.862   6.753
 7970POPC   C3B39129  20.467   4.845   7.053
 7970POPC   C4B39130  20.485   4.887   7.353
 7971POPC   NC339131  26.000   8.949   5.553
 7971POPC   PO439132  26.079   8.969   5.853
 7971POPC   GL139133  26.089   8.935   6.153
 7971POPC   GL239134  26.015   9.145   6.153
 7971POPC   C1A39135  26.063   8.976   6.453
 7971POPC   D2A39136  25.995   8.945   6.753
 7971POPC   C3A39137  26.039   8.948   7.053
 7971POPC   C4A39138  25.999   8.948   7.353
 7971POPC   C1B39139  25.959   9.241   6.453
 7971POPC   C2B39140  25.981   9.182   6.753
 7971POPC   C3B39141  26.014   9.218   7.053
 7971POPC   C4B39142  26.045   9.169   7.353
 7972POPC   NC339143   9.763  22.905   5.553
 7972POPC   PO439144   9.770  22.983   5.853
 7972POPC   GL139145   9.783  22.949   6.153
 7972POPC   GL239146   9.760  23.093   6.153
 7972POPC   C1A39147   9.706  22.939   6.453
 7972POPC   D2A39148   9.700  22.904   6.753
 7972POPC   C3A39149   9.794  22.925   7.053
 7972POPC   C4A39150   9.699  22.955   7.353
 7972POPC   C1B39151   9.737  23.194   6.453
 7972POPC   C2B39152   9.732  23.194   6.753
 7972POPC   C3B39153   9.699  23.191   7.053
 7972POPC   C4B39154   9.681  23.134   7.353
 7973POPC   NC339155  43.157   1.235   5.553
 7973POPC   PO439156  43.085   1.244   5.853
 7973POPC   GL139157  43.101   1.209   6.153
 7973POPC   GL239158  42.997   1.193   6.153
 7973POPC   C1A39159  43.086   1.207   6.453
 7973POPC   D2A39160  43.119   1.215   6.753
 7973POPC   C3A39161  43.133   1.236   7.053
 7973POPC   C4A39162  43.100   1.176   7.353
 7973POPC   C1B39163  42.892   1.160   6.453
 7973POPC   C2B39164  42.874   1.117   6.753
 7973POPC   C3B39165  42.821   1.166   7.053
 7973POPC   C4B39166  42.827   1.185   7.353
 7974POPC   NC339167  19.803  17.541   5.553
 7974POPC   PO439168  19.833  17.554   5.853
 7974POPC   GL139169  19.862  17.478   6.153
 7974POPC   GL239170  19.698  17.590   6.153
 7974POPC   C1A39171  19.786  17.495   6.453
 7974POPC   D2A39172  19.865  17.514   6.753
 7974POPC   C3A39173  19.865  17.524   7.053
 7974POPC   C4A39174  19.878  17.458   7.353
 7974POPC   C1B39175  19.622  17.607   6.453
 7974POPC   C2B39176  19.567  17.602   6.753
 7974POPC   C3B39177  19.565  17.591   7.053
 7974POPC   C4B39178  19.593  17.612   7.353
 7975POPC   NC339179  31.429  33.771   5.553
 7975POPC   PO439180  31.425  33.844   5.853
 7975POPC   GL139181  31.470  33.762   6.153
 7975POPC   GL239182  31.538  33.740   6.153
 7975POPC   C1A39183  31.459  33.756   6.453
 7975POPC   D2A39184  31.436  33.823   6.753
 7975POPC   C3A39185  31.432  33.817   7.053
 7975POPC   C4A39186  31.486  33.816   7.353
 7975POPC   C1B39187  31.640  33.662   6.453
 7975POPC   C2B39188  31.641  33.653   6.753
 7975POPC   C3B39189  31.717  33.645   7.053
 7975POPC   C4B39190  31.696  33.633   7.353
 7976POPC   NC339191  37.688  19.857   5.553
 7976POPC   PO439192  37.709  19.800   5.853
 7976POPC   GL139193  37.659  19.859   6.153
 7976POPC   GL239194  37.648  19.951   6.153
 7976POPC   C1A39195  37.630  19.819   6.453
 7976POPC   D2A39196  37.683  19.852   6.753
 7976POPC   C3A39197  37.667  19.878   7.053
 7976POPC   C4A39198  37.705  19.836   7.353
 7976POPC   C1B39199  37.567  20.037   6.453
 7976POPC   C2B39200  37.619  20.035   6.753
 7976POPC   C3B39201  37.583  20.052   7.053
 7976POPC   C4B39202  37.628  20.094   7.353
 7977POPC   NC339203  33.017  40.013   5.553
 7977POPC   PO439204  32.983  39.986   5.853
 7977POPC   GL139205  33.025  40.032   6.153
 7977POPC   GL239206  32.994  40.111   6.153
 7977POPC   C1A39207  32.996  39.973   6.453
 7977POPC   D2A39208  33.034  40.047   6.753
 7977POPC   C3A39209  33.011  40.033   7.053
 7977POPC   C4A39210  33.027  40.001   7.353
 7977POPC   C1B39211  32.997  40.259   6.453
 7977POPC   C2B39212  33.008  40.226   6.753
 7977POPC   C3B39213  33.053  40.234   7.053
 7977POPC   C4B39214  32.992  40.263   7.353
 7978POPC   NC339215   5.076   1.222   5.553
 7978POPC   PO439216   5.117   1.230   5.853
 7978POPC   GL139217   5.115   1.171   6.153
 7978POPC   GL239218   5.007   1.292   6.153
 7978POPC   C1A39219   5.048   1.214   6.453
 7978POPC   D2A39220   5.072   1.231   6.753
 7978POPC   C3A39221   5.080   1.254   7.053
 7978POPC   C4A39222   5.076   1.205   7.353
 7978POPC   C1B39223   4.822   1.299   6.453
 7978POPC   C2B39224   4.848   1.335   6.753
 7978POPC   C3B39225   4.809   1.335   7.053
 7978POPC   C4B39226   4.831   1.293   7.353
 7979POPC   NC339227  12.068  40.739   5.553
 7979POPC   PO439228  12.121  40.820   5.853
 7979POPC   GL139229  12.111  40.736   6.153
 7979POPC   GL239230  11.946  40.748   6.153
 7979POPC   C1A39231  12.044  40.744   6.453
 7979POPC   D2A39232  12.031  40.767   6.753
 7979POPC   C3A39233  12.120  40.785   7.053
 7979POPC   C4A39234  12.050  40.748   7.353
 7979POPC   C1B39235  11.849  40.797   6.453
 7979POPC   C2B39236  11.852  40.702   6.753
 7979POPC   C3B39237  11.869  40.774   7.053
 7979POPC   C4B39238  11.856  40.712   7.353
 7980POPC   NC339239   2.803   9.741   5.553
 7980POPC   PO439240   2.808   9.771   5.853
 7980POPC   GL139241   2.752   9.797   6.153
 7980POPC   GL239242   2.930   9.769   6.153
 7980POPC   C1A39243   2.765   9.748   6.453
 7980POPC   D2A39244   2.765   9.757   6.753
 7980POPC   C3A39245   2.737   9.761   7.053
 7980POPC   C4A39246   2.797   9.762   7.353
 7980POPC   C1B39247   3.005   9.686   6.453
 7980POPC   C2B39248   3.048   9.693   6.753
 7980POPC   C3B39249   3.013   9.741   7.053
 7980POPC   C4B39250   3.048   9.666   7.353
 7981POPC   NC339251  42.329  31.512   5.553
 7981POPC   PO439252  42.346  31.488   5.853
 7981POPC   GL139253  42.376  31.494   6.153
 7981POPC   GL239254  42.445  31.370   6.153
 7981POPC   C1A39255  42.383  31.453   6.453
 7981POPC   D2A39256  42.333  31.455   6.753
 7981POPC   C3A39257  42.356  31.456   7.053
 7981POPC   C4A39258  42.314  31.485   7.353
 7981POPC   C1B39259  42.543  31.344   6.453
 7981POPC   C2B39260  42.581  31.305   6.753
 7981POPC   C3B39261  42.579  31.390   7.053
 7981POPC   C4B39262  42.564  31.311   7.353
 7982POPC   NC339263   4.298  44.695   5.553
 7982POPC   PO439264   4.352  44.696   5.853
 7982POPC   GL139265   4.356  44.682   6.153
 7982POPC   GL239266   4.300  44.826   6.153
 7982POPC   C1A39267   4.351  44.644   6.453
 7982POPC   D2A39268   4.313  44.700   6.753
 7982POPC   C3A39269   4.359  44.685   7.053
 7982POPC   C4A39270   4.323  44.654   7.353
 7982POPC   C1B39271   4.377  44.928   6.453
 7982POPC   C2B39272   4.344  44.875   6.753
 7982POPC   C3B39273   4.325  44.911   7.053
 7982POPC   C4B39274   4.368  44.864   7.353
 7983POPC   NC339275  12.821   3.512   5.553
 7983POPC   PO439276  12.816   3.531   5.853
 7983POPC   GL139277  12.823   3.579   6.153
 7983POPC   GL239278  13.003   3.539   6.153
 7983POPC   C1A39279  12.848   3.517   6.453
 7983POPC   D2A39280  12.893   3.590   6.753
 7983POPC   C3A39281  12.825   3.517   7.053
 7983POPC   C4A39282  12.829   3.580   7.353
 7983POPC   C1B39283  13.057   3.487   6.453
 7983POPC   C2B39284  13.065   3.431   6.753
 7983POPC   C3B39285  13.115   3.477   7.053
 7983POPC   C4B39286  13.051   3.406   7.353
 7984POPC   NC339287  31.453  17.554   5.553
 7984POPC   PO439288  31.456  17.482   5.853
 7984POPC   GL139289  31.480  17.477   6.153
 7984POPC   GL239290  31.537  17.360   6.153
 7984POPC   C1A39291  31.470  17.545   6.453
 7984POPC   D2A39292  31.499  17.506   6.753
 7984POPC   C3A39293  31.465  17.507   7.053
 7984POPC   C4A39294  31.481  17.508   7.353
 7984POPC   C1B39295  31.537  17.259   6.453
 7984POPC   C2B39296  31.464  17.236   6.753
 7984POPC   C3B39297  31.478  17.216   7.053
 7984POPC   C4B39298  31.456  17.240   7.353
 7985POPC   NC339299  42.367  19.021   5.553
 7985POPC   PO439300  42.349  19.085   5.853
 7985POPC   GL139301  42.293  19.031   6.153
 7985POPC   GL239302  42.501  19.077   6.153
 7985POPC   C1A39303  42.353  19.066   6.453
 7985POPC   D2A39304  42.343  19.034   6.753
 7985POPC   C3A39305  42.349  19.076   7.053
 7985POPC   C4A39306  42.323  19.083   7.353
 7985POPC   C1B39307  42.554  19.094   6.453
 7985POPC   C2B39308  42.582  19.055   6.753
 7985POPC   C3B39309  42.623  19.034   7.053
 7985POPC   C4B39310  42.559  19.062   7.353
 7986POPC   NC339311  41.587  32.284   5.553
 7986POPC   PO439312  41.522  32.225   5.853
 7986POPC   GL139313  41.606  32.265   6.153
 7986POPC   GL239314  41.638  32.321   6.153
 7986POPC   C1A39315  41.528  32.291   6.453
 7986POPC   D2A39316  41.527  32.262   6.753
 7986POPC   C3A39317  41.552  32.274   7.053
 7986POPC   C4A39318  41.584  32.230   7.353
 7986POPC   C1B39319  41.732  32.455   6.453
 7986POPC   C2B39320  41.717  32.416   6.753
 7986POPC   C3B39321  41.695  32.480   7.053
 7986POPC   C4B39322  41.674  32.499   7.353
 7987POPC   NC339323  22.912   6.685   5.553
 7987POPC   PO439324  22.959   6.693   5.853
 7987POPC   GL139325  22.961   6.614   6.153
 7987POPC   GL239326  23.030   6.700   6.153
 7987POPC   C1A39327  22.919   6.687   6.453
 7987POPC   D2A39328  22.917   6.675   6.753
 7987POPC   C3A39329  22.895   6.658   7.053
 7987POPC   C4A39330  22.916   6.637   7.353
 7987POPC   C1B39331  23.150   6.818   6.453
 7987POPC   C2B39332  23.099   6.765   6.753
 7987POPC   C3B39333  23.089   6.832   7.053
 7987POPC   C4B39334  23.108   6.778   7.353
 7988POPC   NC339335  36.875   3.585   5.553
 7988POPC   PO439336  36.881   3.496   5.853
 7988POPC   GL139337  36.926   3.550   6.153
 7988POPC   GL239338  36.997   3.454   6.153
 7988POPC   C1A39339  36.872   3.494   6.453
 7988POPC   D2A39340  36.860   3.579   6.753
 7988POPC   C3A39341  36.859   3.589   7.053
 7988POPC   C4A39342  36.867   3.558   7.353
 7988POPC   C1B39343  37.069   3.420   6.453
 7988POPC   C2B39344  37.130   3.408   6.753
 7988POPC   C3B39345  37.144   3.374   7.053
 7988POPC   C4B39346  37.111   3.375   7.353
 7989POPC   NC339347  36.867  15.170   5.553
 7989POPC   PO439348  36.896  15.185   5.853
 7989POPC   GL139349  36.928  15.131   6.153
 7989POPC   GL239350  36.778  15.078   6.153
 7989POPC   C1A39351  36.917  15.152   6.453
 7989POPC   D2A39352  36.855  15.132   6.753
 7989POPC   C3A39353  36.863  15.202   7.053
 7989POPC   C4A39354  36.894  15.178   7.353
 7989POPC   C1B39355  36.671  14.997   6.453
 7989POPC   C2B39356  36.677  15.074   6.753
 7989POPC   C3B39357  36.699  15.007   7.053
 7989POPC   C4B39358  36.680  15.056   7.353
 7990POPC   NC339359  34.535  15.220   5.553
 7990POPC   PO439360  34.592  15.185   5.853
 7990POPC   GL139361  34.564  15.133   6.153
 7990POPC   GL239362  34.538  15.256   6.153
 7990POPC   C1A39363  34.542  15.226   6.453
 7990POPC   D2A39364  34.561  15.159   6.753
 7990POPC   C3A39365  34.612  15.191   7.053
 7990POPC   C4A39366  34.534  15.184   7.353
 7990POPC   C1B39367  34.575  15.430   6.453
 7990POPC   C2B39368  34.585  15.392   6.753
 7990POPC   C3B39369  34.560  15.445   7.053
 7990POPC   C4B39370  34.593  15.428   7.353
 7991POPC   NC339371  20.581  33.016   5.553
 7991POPC   PO439372  20.576  33.025   5.853
 7991POPC   GL139373  20.599  33.003   6.153
 7991POPC   GL239374  20.457  33.004   6.153
 7991POPC   C1A39375  20.655  33.031   6.453
 7991POPC   D2A39376  20.618  33.016   6.753
 7991POPC   C3A39377  20.629  33.061   7.053
 7991POPC   C4A39378  20.615  33.053   7.353
 7991POPC   C1B39379  20.410  32.950   6.453
 7991POPC   C2B39380  20.382  32.876   6.753
 7991POPC   C3B39381  20.431  32.856   7.053
 7991POPC   C4B39382  20.421  32.944   7.353
 7992POPC   NC339383  39.214  15.180   5.553
 7992POPC   PO439384  39.201  15.129   5.853
 7992POPC   GL139385  39.248  15.144   6.153
 7992POPC   GL239386  39.231  15.008   6.153
 7992POPC   C1A39387  39.276  15.224   6.453
 7992POPC   D2A39388  39.251  15.138   6.753
 7992POPC   C3A39389  39.243  15.153   7.053
 7992POPC   C4A39390  39.192  15.136   7.353
 7992POPC   C1B39391  39.245  14.976   6.453
 7992POPC   C2B39392  39.227  14.938   6.753
 7992POPC   C3B39393  39.270  14.891   7.053
 7992POPC   C4B39394  39.218  14.943   7.353
 7993POPC   NC339395   1.219  24.530   5.553
 7993POPC   PO439396   1.231  24.445   5.853
 7993POPC   GL139397   1.218  24.522   6.153
 7993POPC   GL239398   1.126  24.500   6.153
 7993POPC   C1A39399   1.195  24.481   6.453
 7993POPC   D2A39400   1.259  24.495   6.753
 7993POPC   C3A39401   1.227  24.450   7.053
 7993POPC   C4A39402   1.246  24.463   7.353
 7993POPC   C1B39403   1.024  24.633   6.453
 7993POPC   C2B39404   1.004  24.578   6.753
 7993POPC   C3B39405   1.030  24.588   7.053
 7993POPC   C4B39406   1.002  24.581   7.353
 7994POPC   NC339407  17.545  33.020   5.553
 7994POPC   PO439408  17.490  33.017   5.853
 7994POPC   GL139409  17.541  32.998   6.153
 7994POPC   GL239410  17.454  32.887   6.153
 7994POPC   C1A39411  17.492  32.982   6.453
 7994POPC   D2A39412  17.516  32.990   6.753
 7994POPC   C3A39413  17.540  33.050   7.053
 7994POPC   C4A39414  17.499  32.994   7.353
 7994POPC   C1B39415  17.414  32.837   6.453
 7994POPC   C2B39416  17.400  32.788   6.753
 7994POPC   C3B39417  17.368  32.830   7.053
 7994POPC   C4B39418  17.360  32.751   7.353
 7995POPC   NC339419  42.365  21.433   5.553
 7995POPC   PO439420  42.287  21.378   5.853
 7995POPC   GL139421  42.332  21.366   6.153
 7995POPC   GL239422  42.353  21.308   6.153
 7995POPC   C1A39423  42.343  21.408   6.453
 7995POPC   D2A39424  42.346  21.368   6.753
 7995POPC   C3A39425  42.310  21.411   7.053
 7995POPC   C4A39426  42.299  21.341   7.353
 7995POPC   C1B39427  42.306  21.174   6.453
 7995POPC   C2B39428  42.366  21.091   6.753
 7995POPC   C3B39429  42.345  21.110   7.053
 7995POPC   C4B39430  42.371  21.163   7.353
 7996POPC   NC339431  10.541   1.221   5.553
 7996POPC   PO439432  10.490   1.176   5.853
 7996POPC   GL139433  10.481   1.221   6.153
 7996POPC   GL239434  10.442   1.128   6.153
 7996POPC   C1A39435  10.531   1.243   6.453
 7996POPC   D2A39436  10.481   1.174   6.753
 7996POPC   C3A39437  10.507   1.255   7.053
 7996POPC   C4A39438  10.543   1.219   7.353
 7996POPC   C1B39439  10.289   1.113   6.453
 7996POPC   C2B39440  10.335   1.090   6.753
 7996POPC   C3B39441  10.291   1.108   7.053
 7996POPC   C4B39442  10.265   1.156   7.353
 7997POPC   NC339443  19.082  41.572   5.553
 7997POPC   PO439444  19.037  41.560   5.853
 7997POPC   GL139445  19.083  41.525   6.153
 7997POPC   GL239446  19.195  41.525   6.153
 7997POPC   C1A39447  19.063  41.579   6.453
 7997POPC   D2A39448  19.074  41.568   6.753
 7997POPC   C3A39449  19.015  41.590   7.053
 7997POPC   C4A39450  19.079  41.571   7.353
 7997POPC   C1B39451  19.230  41.385   6.453
 7997POPC   C2B39452  19.295  41.363   6.753
 7997POPC   C3B39453  19.209  41.419   7.053
 7997POPC   C4B39454  19.293  41.420   7.353
 7998POPC   NC339455   8.246  33.773   5.553
 7998POPC   PO439456   8.183  33.827   5.853
 7998POPC   GL139457   8.240  33.771   6.153
 7998POPC   GL239458   8.289  33.747   6.153
 7998POPC   C1A39459   8.203  33.839   6.453
 7998POPC   D2A39460   8.151  33.831   6.753
 7998POPC   C3A39461   8.156  33.820   7.053
 7998POPC   C4A39462   8.237  33.837   7.353
 7998POPC   C1B39463   8.406  33.705   6.453
 7998POPC   C2B39464   8.408  33.690   6.753
 7998POPC   C3B39465   8.435  33.717   7.053
 7998POPC   C4B39466   8.400  33.737   7.353
 7999POPC   NC339467  32.998  34.540   5.553
 7999POPC   PO439468  33.062  34.552   5.853
 7999POPC   GL139469  33.010  34.534   6.153
 7999POPC   GL239470  33.119  34.616   6.153
 7999POPC   C1A39471  33.043  34.600   6.453
 7999POPC   D2A39472  33.010  34.533   6.753
 7999POPC   C3A39473  32.999  34.599   7.053
 7999POPC   C4A39474  33.014  34.617   7.353
 7999POPC   C1B39475  33.265  34.649   6.453
 7999POPC   C2B39476  33.222  34.689   6.753
 7999POPC   C3B39477  33.271  34.717   7.053
 7999POPC   C4B39478  33.246  34.703   7.353
 8000POPC   NC339479  12.833  22.196   5.553
 8000POPC   PO439480  12.804  22.132   5.853
 8000POPC   GL139481  12.860  22.193   6.153
 8000POPC   GL239482  12.983  22.076   6.153
 8000POPC   C1A39483  12.829  22.113   6.453
 8000POPC   D2A39484  12.804  22.156   6.753
 8000POPC   C3A39485  12.849  22.141   7.053
 8000POPC   C4A39486  12.844  22.156   7.353
 8000POPC   C1B39487  13.066  22.020   6.453
 8000POPC   C2B39488  13.044  22.070   6.753
 8000POPC   C3B39489  13.105  22.057   7.053
 8000POPC   C4B39490  13.041  22.006   7.353
 8001POPC   NC339491  33.777  29.950   5.553
 8001POPC   PO439492  33.842  29.928   5.853
 8001POPC   GL139493  33.821  29.965   6.153
 8001POPC   GL239494  33.672  29.891   6.153
 8001POPC   C1A39495  33.839  29.940   6.453
 8001POPC   D2A39496  33.819  29.941   6.753
 8001POPC   C3A39497  33.823  29.944   7.053
 8001POPC   C4A39498  33.808  29.967   7.353
 8001POPC   C1B39499  33.503  29.927   6.453
 8001POPC   C2B39500  33.586  29.955   6.753
 8001POPC   C3B39501  33.521  30.005   7.053
 8001POPC   C4B39502  33.514  29.922   7.353
 8002POPC   NC339503  38.431  22.186   5.553
 8002POPC   PO439504  38.416  22.142   5.853
 8002POPC   GL139505  38.427  22.116   6.153
 8002POPC   GL239506  38.310  22.120   6.153
 8002POPC   C1A39507  38.433  22.163   6.453
 8002POPC   D2A39508  38.491  22.187   6.753
 8002POPC   C3A39509  38.491  22.119   7.053
 8002POPC   C4A39510  38.498  22.151   7.353
 8002POPC   C1B39511  38.198  22.198   6.453
 8002POPC   C2B39512  38.252  22.142   6.753
 8002POPC   C3B39513  38.225  22.193   7.053
 8002POPC   C4B39514  38.203  22.160   7.353
 8003POPC   NC339515  31.423   5.851   5.553
 8003POPC   PO439516  31.449   5.853   5.853
 8003POPC   GL139517  31.429   5.825   6.153
 8003POPC   GL239518  31.411   5.959   6.153
 8003POPC   C1A39519  31.513   5.874   6.453
 8003POPC   D2A39520  31.438   5.916   6.753
 8003POPC   C3A39521  31.521   5.918   7.053
 8003POPC   C4A39522  31.518   5.875   7.353
 8003POPC   C1B39523  31.293   6.104   6.453
 8003POPC   C2B39524  31.304   6.095   6.753
 8003POPC   C3B39525  31.349   6.031   7.053
 8003POPC   C4B39526  31.264   6.088   7.353
 8004POPC   NC339527  40.025  24.520   5.553
 8004POPC   PO439528  39.958  24.523   5.853
 8004POPC   GL139529  39.960  24.469   6.153
 8004POPC   GL239530  40.105  24.433   6.153
 8004POPC   C1A39531  40.033  24.502   6.453
 8004POPC   D2A39532  39.964  24.498   6.753
 8004POPC   C3A39533  40.020  24.534   7.053
 8004POPC   C4A39534  40.043  24.512   7.353
 8004POPC   C1B39535  40.201  24.359   6.453
 8004POPC   C2B39536  40.168  24.354   6.753
 8004POPC   C3B39537  40.227  24.364   7.053
 8004POPC   C4B39538  40.229  24.314   7.353
 8005POPC   NC339539   7.379  19.872   5.553
 8005POPC   PO439540   7.452  19.846   5.853
 8005POPC   GL139541   7.426  19.851   6.153
 8005POPC   GL239542   7.488  19.970   6.153
 8005POPC   C1A39543   7.435  19.789   6.453
 8005POPC   D2A39544   7.416  19.792   6.753
 8005POPC   C3A39545   7.424  19.809   7.053
 8005POPC   C4A39546   7.458  19.845   7.353
 8005POPC   C1B39547   7.514  20.081   6.453
 8005POPC   C2B39548   7.526  20.038   6.753
 8005POPC   C3B39549   7.554  20.049   7.053
 8005POPC   C4B39550   7.540  20.054   7.353
 8006POPC   NC339551  11.261  14.388   5.553
 8006POPC   PO439552  11.253  14.443   5.853
 8006POPC   GL139553  11.260  14.391   6.153
 8006POPC   GL239554  11.188  14.359   6.153
 8006POPC   C1A39555  11.322  14.391   6.453
 8006POPC   D2A39556  11.287  14.372   6.753
 8006POPC   C3A39557  11.288  14.414   7.053
 8006POPC   C4A39558  11.304  14.367   7.353
 8006POPC   C1B39559  11.135  14.301   6.453
 8006POPC   C2B39560  11.129  14.239   6.753
 8006POPC   C3B39561  11.144  14.224   7.053
 8006POPC   C4B39562  11.062  14.218   7.353
 8007POPC   NC339563  26.029  11.317   5.553
 8007POPC   PO439564  26.035  11.277   5.853
 8007POPC   GL139565  26.072  11.282   6.153
 8007POPC   GL239566  25.877  11.302   6.153
 8007POPC   C1A39567  26.035  11.325   6.453
 8007POPC   D2A39568  26.064  11.347   6.753
 8007POPC   C3A39569  26.030  11.288   7.053
 8007POPC   C4A39570  25.998  11.275   7.353
 8007POPC   C1B39571  25.837  11.336   6.453
 8007POPC   C2B39572  25.793  11.319   6.753
 8007POPC   C3B39573  25.829  11.380   7.053
 8007POPC   C4B39574  25.769  11.398   7.353
 8008POPC   NC339575   2.761  15.905   5.553
 8008POPC   PO439576   2.792  15.911   5.853
 8008POPC   GL139577   2.755  15.958   6.153
 8008POPC   GL239578   2.810  15.870   6.153
 8008POPC   C1A39579   2.774  15.910   6.453
 8008POPC   D2A39580   2.743  15.943   6.753
 8008POPC   C3A39581   2.797  15.995   7.053
 8008POPC   C4A39582   2.805  15.987   7.353
 8008POPC   C1B39583   2.819  15.691   6.453
 8008POPC   C2B39584   2.853  15.694   6.753
 8008POPC   C3B39585   2.857  15.735   7.053
 8008POPC   C4B39586   2.866  15.703   7.353
 8009POPC   NC339587  15.985  39.191   5.553
 8009POPC   PO439588  15.921  39.235   5.853
 8009POPC   GL139589  15.989  39.209   6.153
 8009POPC   GL239590  16.097  39.279   6.153
 8009POPC   C1A39591  15.988  39.271   6.453
 8009POPC   D2A39592  15.936  39.270   6.753
 8009POPC   C3A39593  15.976  39.212   7.053
 8009POPC   C4A39594  15.983  39.276   7.353
 8009POPC   C1B39595  16.146  39.382   6.453
 8009POPC   C2B39596  16.203  39.352   6.753
 8009POPC   C3B39597  16.205  39.410   7.053
 8009POPC   C4B39598  16.167  39.424   7.353
 8010POPC   NC339599   5.880   9.727   5.553
 8010POPC   PO439600   5.862   9.727   5.853
 8010POPC   GL139601   5.858   9.773   6.153
 8010POPC   GL239602   5.963   9.827   6.153
 8010POPC   C1A39603   5.836   9.704   6.453
 8010POPC   D2A39604   5.834   9.744   6.753
 8010POPC   C3A39605   5.842   9.787   7.053
 8010POPC   C4A39606   5.836   9.735   7.353
 8010POPC   C1B39607   6.001   9.916   6.453
 8010POPC   C2B39608   6.012   9.960   6.753
 8010POPC   C3B39609   5.974   9.974   7.053
 8010POPC   C4B39610   5.995   9.908   7.353
 8011POPC   NC339611  39.250  22.935   5.553
 8011POPC   PO439612  39.195  22.981   5.853
 8011POPC   GL139613  39.207  22.942   6.153
 8011POPC   GL239614  39.207  22.868   6.153
 8011POPC   C1A39615  39.242  22.926   6.453
 8011POPC   D2A39616  39.244  22.891   6.753
 8011POPC   C3A39617  39.252  22.970   7.053
 8011POPC   C4A39618  39.230  22.962   7.353
 8011POPC   C1B39619  39.089  22.717   6.453
 8011POPC   C2B39620  39.076  22.711   6.753
 8011POPC   C3B39621  39.142  22.743   7.053
 8011POPC   C4B39622  39.135  22.753   7.353
 8012POPC   NC339623  15.964  21.382   5.553
 8012POPC   PO439624  15.934  21.390   5.853
 8012POPC   GL139625  16.002  21.424   6.153
 8012POPC   GL239626  16.029  21.459   6.153
 8012POPC   C1A39627  15.980  21.355   6.453
 8012POPC   D2A39628  15.963  21.428   6.753
 8012POPC   C3A39629  15.993  21.378   7.053
 8012POPC   C4A39630  15.906  21.395   7.353
 8012POPC   C1B39631  16.210  21.470   6.453
 8012POPC   C2B39632  16.162  21.506   6.753
 8012POPC   C3B39633  16.185  21.506   7.053
 8012POPC   C4B39634  16.161  21.507   7.353
 8013POPC   NC339635  33.024   3.518   5.553
 8013POPC   PO439636  33.021   3.577   5.853
 8013POPC   GL139637  32.980   3.556   6.153
 8013POPC   GL239638  33.066   3.412   6.153
 8013POPC   C1A39639  33.053   3.540   6.453
 8013POPC   D2A39640  32.975   3.555   6.753
 8013POPC   C3A39641  33.045   3.575   7.053
 8013POPC   C4A39642  33.047   3.574   7.353
 8013POPC   C1B39643  33.080   3.256   6.453
 8013POPC   C2B39644  33.079   3.319   6.753
 8013POPC   C3B39645  33.031   3.315   7.053
 8013POPC   C4B39646  32.990   3.320   7.353
 8014POPC   NC339647   8.176   5.839   5.553
 8014POPC   PO439648   8.235   5.826   5.853
 8014POPC   GL139649   8.219   5.844   6.153
 8014POPC   GL239650   8.034   5.952   6.153
 8014POPC   C1A39651   8.176   5.887   6.453
 8014POPC   D2A39652   8.160   5.867   6.753
 8014POPC   C3A39653   8.192   5.911   7.053
 8014POPC   C4A39654   8.209   5.873   7.353
 8014POPC   C1B39655   7.958   5.982   6.453
 8014POPC   C2B39656   7.927   5.906   6.753
 8014POPC   C3B39657   7.998   5.919   7.053
 8014POPC   C4B39658   7.934   5.970   7.353
 8015POPC   NC339659  44.707  38.472   5.553
 8015POPC   PO439660  44.684  38.477   5.853
 8015POPC   GL139661  44.612  38.502   6.153
 8015POPC   GL239662  44.660  38.541   6.153
 8015POPC   C1A39663  44.659  38.435   6.453
 8015POPC   D2A39664  44.673  38.412   6.753
 8015POPC   C3A39665  44.627  38.494   7.053
 8015POPC   C4A39666  44.685  38.482   7.353
 8015POPC   C1B39667  44.759  38.712   6.453
 8015POPC   C2B39668  44.681  38.702   6.753
 8015POPC   C3B39669  44.710  38.737   7.053
 8015POPC   C4B39670  44.762  38.664   7.353
 8016POPC   NC339671  22.946  34.535   5.553
 8016POPC   PO439672  22.899  34.581   5.853
 8016POPC   GL139673  22.953  34.589   6.153
 8016POPC   GL239674  22.847  34.569   6.153
 8016POPC   C1A39675  22.945  34.573   6.453
 8016POPC   D2A39676  22.980  34.541   6.753
 8016POPC   C3A39677  22.904  34.532   7.053
 8016POPC   C4A39678  22.906  34.545   7.353
 8016POPC   C1B39679  22.661  34.593   6.453
 8016POPC   C2B39680  22.706  34.621   6.753
 8016POPC   C3B39681  22.687  34.541   7.053
 8016POPC   C4B39682  22.646  34.588   7.353
 8017POPC   NC339683   3.501  43.093   5.553
 8017POPC   PO439684   3.569  43.160   5.853
 8017POPC   GL139685   3.566  43.111   6.153
 8017POPC   GL239686   3.492  43.022   6.153
 8017POPC   C1A39687   3.589  43.064   6.453
 8017POPC   D2A39688   3.574  43.144   6.753
 8017POPC   C3A39689   3.553  43.078   7.053
 8017POPC   C4A39690   3.561  43.107   7.353
 8017POPC   C1B39691   3.431  42.847   6.453
 8017POPC   C2B39692   3.488  42.866   6.753
 8017POPC   C3B39693   3.422  42.889   7.053
 8017POPC   C4B39694   3.422  42.840   7.353
 8018POPC   NC339695   1.244  29.121   5.553
 8018POPC   PO439696   1.169  29.108   5.853
 8018POPC   GL139697   1.176  29.159   6.153
 8018POPC   GL239698   1.250  28.984   6.153
 8018POPC   C1A39699   1.193  29.096   6.453
 8018POPC   D2A39700   1.230  29.107   6.753
 8018POPC   C3A39701   1.224  29.143   7.053
 8018POPC   C4A39702   1.260  29.192   7.353
 8018POPC   C1B39703   1.214  28.912   6.453
 8018POPC   C2B39704   1.291  28.847   6.753
 8018POPC   C3B39705   1.231  28.899   7.053
 8018POPC   C4B39706   1.214  28.877   7.353
 8019POPC   NC339707  13.589   2.807   5.553
 8019POPC   PO439708  13.584   2.718   5.853
 8019POPC   GL139709  13.631   2.728   6.153
 8019POPC   GL239710  13.693   2.829   6.153
 8019POPC   C1A39711  13.673   2.718   6.453
 8019POPC   D2A39712  13.618   2.764   6.753
 8019POPC   C3A39713  13.639   2.812   7.053
 8019POPC   C4A39714  13.600   2.729   7.353
 8019POPC   C1B39715  13.781   2.911   6.453
 8019POPC   C2B39716  13.827   2.927   6.753
 8019POPC   C3B39717  13.776   2.928   7.053
 8019POPC   C4B39718  13.771   2.883   7.353
 8020POPC   NC339719   3.553   5.101   5.553
 8020POPC   PO439720   3.561   5.105   5.853
 8020POPC   GL139721   3.532   5.125   6.153
 8020POPC   GL239722   3.710   5.111   6.153
 8020POPC   C1A39723   3.510   5.094   6.453
 8020POPC   D2A39724   3.590   5.107   6.753
 8020POPC   C3A39725   3.565   5.136   7.053
 8020POPC   C4A39726   3.560   5.049   7.353
 8020POPC   C1B39727   3.813   5.120   6.453
 8020POPC   C2B39728   3.780   5.038   6.753
 8020POPC   C3B39729   3.761   5.073   7.053
 8020POPC   C4B39730   3.752   5.106   7.353
 8021POPC   NC339731  15.992  25.245   5.553
 8021POPC   PO439732  15.977  25.242   5.853
 8021POPC   GL139733  15.965  25.312   6.153
 8021POPC   GL239734  16.097  25.255   6.153
 8021POPC   C1A39735  15.907  25.244   6.453
 8021POPC   D2A39736  15.982  25.245   6.753
 8021POPC   C3A39737  15.920  25.307   7.053
 8021POPC   C4A39738  16.002  25.242   7.353
 8021POPC   C1B39739  16.218  25.172   6.453
 8021POPC   C2B39740  16.193  25.118   6.753
 8021POPC   C3B39741  16.228  25.182   7.053
 8021POPC   C4B39742  16.169  25.142   7.353
 8022POPC   NC339743  31.473  33.059   5.553
 8022POPC   PO439744  31.441  33.015   5.853
 8022POPC   GL139745  31.444  33.061   6.153
 8022POPC   GL239746  31.315  33.032   6.153
 8022POPC   C1A39747  31.518  32.994   6.453
 8022POPC   D2A39748  31.511  33.048   6.753
 8022POPC   C3A39749  31.509  33.064   7.053
 8022POPC   C4A39750  31.495  32.987   7.353
 8022POPC   C1B39751  31.275  33.048   6.453
 8022POPC   C2B39752  31.234  33.110   6.753
 8022POPC   C3B39753  31.260  33.112   7.053
 8022POPC   C4B39754  31.200  33.061   7.353
 8023POPC   NC339755  43.107  28.405   5.553
 8023POPC   PO439756  43.139  28.344   5.853
 8023POPC   GL139757  43.109  28.378   6.153
 8023POPC   GL239758  43.219  28.483   6.153
 8023POPC   C1A39759  43.092  28.383   6.453
 8023POPC   D2A39760  43.087  28.385   6.753
 8023POPC   C3A39761  43.105  28.363   7.053
 8023POPC   C4A39762  43.110  28.350   7.353
 8023POPC   C1B39763  43.322  28.567   6.453
 8023POPC   C2B39764  43.309  28.573   6.753
 8023POPC   C3B39765  43.283  28.582   7.053
 8023POPC   C4B39766  43.265  28.510   7.353
 8024POPC   NC339767  33.066  15.202   5.553
 8024POPC   PO439768  32.993  15.209   5.853
 8024POPC   GL139769  33.023  15.228   6.153
 8024POPC   GL239770  32.896  15.074   6.153
 8024POPC   C1A39771  33.055  15.154   6.453
 8024POPC   D2A39772  32.992  15.194   6.753
 8024POPC   C3A39773  33.022  15.204   7.053
 8024POPC   C4A39774  33.024  15.215   7.353
 8024POPC   C1B39775  32.794  14.988   6.453
 8024POPC   C2B39776  32.861  15.038   6.753
 8024POPC   C3B39777  32.801  15.077   7.053
 8024POPC   C4B39778  32.795  15.012   7.353
 8025POPC   NC339779   9.788  32.249   5.553
 8025POPC   PO439780   9.741  32.295   5.853
 8025POPC   GL139781   9.724  32.297   6.153
 8025POPC   GL239782   9.910  32.303   6.153
 8025POPC   C1A39783   9.744  32.209   6.453
 8025POPC   D2A39784   9.774  32.219   6.753
 8025POPC   C3A39785   9.745  32.270   7.053
 8025POPC   C4A39786   9.774  32.222   7.353
 8025POPC   C1B39787  10.011  32.318   6.453
 8025POPC   C2B39788  10.008  32.247   6.753
 8025POPC   C3B39789   9.985  32.309   7.053
 8025POPC   C4B39790   9.971  32.292   7.353
 8026POPC   NC339791  27.570  28.372   5.553
 8026POPC   PO439792  27.615  28.377   5.853
 8026POPC   GL139793  27.599  28.390   6.153
 8026POPC   GL239794  27.512  28.269   6.153
 8026POPC   C1A39795  27.643  28.377   6.453
 8026POPC   D2A39796  27.575  28.396   6.753
 8026POPC   C3A39797  27.629  28.365   7.053
 8026POPC   C4A39798  27.590  28.351   7.353
 8026POPC   C1B39799  27.444  28.115   6.453
 8026POPC   C2B39800  27.470  28.138   6.753
 8026POPC   C3B39801  27.480  28.185   7.053
 8026POPC   C4B39802  27.488  28.123   7.353
 8027POPC   NC339803  10.499  36.937   5.553
 8027POPC   PO439804  10.572  36.879   5.853
 8027POPC   GL139805  10.554  36.858   6.153
 8027POPC   GL239806  10.496  36.738   6.153
 8027POPC   C1A39807  10.544  36.889   6.453
 8027POPC   D2A39808  10.476  36.939   6.753
 8027POPC   C3A39809  10.516  36.864   7.053
 8027POPC   C4A39810  10.486  36.915   7.353
 8027POPC   C1B39811  10.502  36.614   6.453
 8027POPC   C2B39812  10.529  36.690   6.753
 8027POPC   C3B39813  10.547  36.640   7.053
 8027POPC   C4B39814  10.518  36.625   7.353
 8028POPC   NC339815   3.575  40.016   5.553
 8028POPC   PO439816   3.591  40.008   5.853
 8028POPC   GL139817   3.572  40.026   6.153
 8028POPC   GL239818   3.459  39.928   6.153
 8028POPC   C1A39819   3.558  40.013   6.453
 8028POPC   D2A39820   3.560  39.969   6.753
 8028POPC   C3A39821   3.587  40.011   7.053
 8028POPC   C4A39822   3.538  40.037   7.353
 8028POPC   C1B39823   3.458  39.751   6.453
 8028POPC   C2B39824   3.426  39.823   6.753
 8028POPC   C3B39825   3.408  39.788   7.053
 8028POPC   C4B39826   3.398  39.784   7.353
 8029POPC   NC339827   1.240  35.398   5.553
 8029POPC   PO439828   1.184  35.366   5.853
 8029POPC   GL139829   1.171  35.391   6.153
 8029POPC   GL239830   1.109  35.259   6.153
 8029POPC   C1A39831   1.255  35.363   6.453
 8029POPC   D2A39832   1.169  35.319   6.753
 8029POPC   C3A39833   1.236  35.313   7.053
 8029POPC   C4A39834   1.257  35.327   7.353
 8029POPC   C1B39835   0.998  35.181   6.453
 8029POPC   C2B39836   1.013  35.220   6.753
 8029POPC   C3B39837   1.063  35.153   7.053
 8029POPC   C4B39838   1.031  35.231   7.353
 8030POPC   NC339839  22.910  40.780   5.553
 8030POPC   PO439840  22.910  40.827   5.853
 8030POPC   GL139841  22.918  40.782   6.153
 8030POPC   GL239842  23.022  40.737   6.153
 8030POPC   C1A39843  22.888  40.821   6.453
 8030POPC   D2A39844  22.916  40.765   6.753
 8030POPC   C3A39845  22.923  40.743   7.053
 8030POPC   C4A39846  22.964  40.746   7.353
 8030POPC   C1B39847  23.187  40.735   6.453
 8030POPC   C2B39848  23.141  40.757   6.753
 8030POPC   C3B39849  23.178  40.755   7.053
 8030POPC   C4B39850  23.209  40.786   7.353
 8031POPC   NC339851   1.246  25.268   5.553
 8031POPC   PO439852   1.246  25.258   5.853
 8031POPC   GL139853   1.173  25.289   6.153
 8031POPC   GL239854   1.372  25.302   6.153
 8031POPC   C1A39855   1.224  25.269   6.453
 8031POPC   D2A39856   1.217  25.269   6.753
 8031POPC   C3A39857   1.164  25.296   7.053
 8031POPC   C4A39858   1.241  25.255   7.353
 8031POPC   C1B39859   1.424  25.305   6.453
 8031POPC   C2B39860   1.476  25.275   6.753
 8031POPC   C3B39861   1.502  25.283   7.053
 8031POPC   C4B39862   1.447  25.326   7.353
 8032POPC   NC339863   6.632  30.672   5.553
 8032POPC   PO439864   6.616  30.653   5.853
 8032POPC   GL139865   6.670  30.714   6.153
 8032POPC   GL239866   6.620  30.544   6.153
 8032POPC   C1A39867   6.603  30.710   6.453
 8032POPC   D2A39868   6.663  30.704   6.753
 8032POPC   C3A39869   6.647  30.662   7.053
 8032POPC   C4A39870   6.622  30.723   7.353
 8032POPC   C1B39871   6.509  30.505   6.453
 8032POPC   C2B39872   6.587  30.448   6.753
 8032POPC   C3B39873   6.576  30.463   7.053
 8032POPC   C4B39874   6.562  30.499   7.353
 8033POPC   NC339875  15.203  13.584   5.553
 8033POPC   PO439876  15.223  13.615   5.853
 8033POPC   GL139877  15.138  13.644   6.153
 8033POPC   GL239878  15.090  13.567   6.153
 8033POPC   C1A39879  15.218  13.583   6.453
 8033POPC   D2A39880  15.218  13.631   6.753
 8033POPC   C3A39881  15.153  13.603   7.053
 8033POPC   C4A39882  15.160  13.614   7.353
 8033POPC   C1B39883  14.944  13.579   6.453
 8033POPC   C2B39884  14.948  13.540   6.753
 8033POPC   C3B39885  14.953  13.566   7.053
 8033POPC   C4B39886  14.950  13.605   7.353
 8034POPC   NC339887  33.017  43.910   5.553
 8034POPC   PO439888  32.979  43.904   5.853
 8034POPC   GL139889  33.072  43.861   6.153
 8034POPC   GL239890  33.113  43.826   6.153
 8034POPC   C1A39891  33.059  43.934   6.453
 8034POPC   D2A39892  33.063  43.838   6.753
 8034POPC   C3A39893  32.975  43.867   7.053
 8034POPC   C4A39894  33.043  43.861   7.353
 8034POPC   C1B39895  33.283  43.857   6.453
 8034POPC   C2B39896  33.318  43.833   6.753
 8034POPC   C3B39897  33.276  43.889   7.053
 8034POPC   C4B39898  33.300  43.879   7.353
 8035POPC   NC339899   5.085  19.108   5.553
 8035POPC   PO439900   5.079  19.033   5.853
 8035POPC   GL139901   5.083  19.010   6.153
 8035POPC   GL239902   5.034  18.924   6.153
 8035POPC   C1A39903   5.116  19.068   6.453
 8035POPC   D2A39904   5.089  19.010   6.753
 8035POPC   C3A39905   5.057  19.099   7.053
 8035POPC   C4A39906   5.060  19.070   7.353
 8035POPC   C1B39907   4.871  18.870   6.453
 8035POPC   C2B39908   4.930  18.889   6.753
 8035POPC   C3B39909   4.958  18.886   7.053
 8035POPC   C4B39910   4.951  18.870   7.353
 8036POPC   NC339911  44.617  32.277   5.553
 8036POPC   PO439912  44.657  32.247   5.853
 8036POPC   GL139913  44.699  32.285   6.153
 8036POPC   GL239914  44.579  32.227   6.153
 8036POPC   C1A39915  44.635  32.237   6.453
 8036POPC   D2A39916  44.700  32.290   6.753
 8036POPC   C3A39917  44.659  32.295   7.053
 8036POPC   C4A39918  44.696  32.255   7.353
 8036POPC   C1B39919  44.367  32.276   6.453
 8036POPC   C2B39920  44.366  32.264   6.753
 8036POPC   C3B39921  44.395  32.340   7.053
 8036POPC   C4B39922  44.421  32.338   7.353
 8037POPC   NC339923  26.812   6.680   5.553
 8037POPC   PO439924  26.839   6.690   5.853
 8037POPC   GL139925  26.795   6.634   6.153
 8037POPC   GL239926  26.886   6.559   6.153
 8037POPC   C1A39927  26.831   6.619   6.453
 8037POPC   D2A39928  26.849   6.675   6.753
 8037POPC   C3A39929  26.777   6.690   7.053
 8037POPC   C4A39930  26.846   6.661   7.353
 8037POPC   C1B39931  26.963   6.469   6.453
 8037POPC   C2B39932  26.983   6.469   6.753
 8037POPC   C3B39933  26.964   6.418   7.053
 8037POPC   C4B39934  26.905   6.419   7.353
 8038POPC   NC339935  26.027  36.942   5.553
 8038POPC   PO439936  26.014  36.943   5.853
 8038POPC   GL139937  26.055  36.904   6.153
 8038POPC   GL239938  25.999  36.767   6.153
 8038POPC   C1A39939  26.048  36.877   6.453
 8038POPC   D2A39940  26.033  36.923   6.753
 8038POPC   C3A39941  26.091  36.914   7.053
 8038POPC   C4A39942  26.023  36.893   7.353
 8038POPC   C1B39943  25.859  36.735   6.453
 8038POPC   C2B39944  25.835  36.684   6.753
 8038POPC   C3B39945  25.887  36.702   7.053
 8038POPC   C4B39946  25.911  36.697   7.353
 8039POPC   NC339947  35.310   0.469   5.553
 8039POPC   PO439948  35.396   0.433   5.853
 8039POPC   GL139949  35.325   0.396   6.153
 8039POPC   GL239950  35.308   0.319   6.153
 8039POPC   C1A39951  35.341   0.458   6.453
 8039POPC   D2A39952  35.365   0.425   6.753
 8039POPC   C3A39953  35.329   0.479   7.053
 8039POPC   C4A39954  35.327   0.425   7.353
 8039POPC   C1B39955  35.166   0.258   6.453
 8039POPC   C2B39956  35.199   0.221   6.753
 8039POPC   C3B39957  35.155   0.254   7.053
 8039POPC   C4B39958  35.167   0.260   7.353
 8040POPC   NC339959   7.434  32.245   5.553
 8040POPC   PO439960   7.425  32.245   5.853
 8040POPC   GL139961   7.448  32.209   6.153
 8040POPC   GL239962   7.426  32.420   6.153
 8040POPC   C1A39963   7.417  32.276   6.453
 8040POPC   D2A39964   7.403  32.275   6.753
 8040POPC   C3A39965   7.430  32.283   7.053
 8040POPC   C4A39966   7.429  32.286   7.353
 8040POPC   C1B39967   7.475  32.510   6.453
 8040POPC   C2B39968   7.506  32.510   6.753
 8040POPC   C3B39969   7.435  32.447   7.053
 8040POPC   C4B39970   7.511  32.473   7.353
 8041POPC   NC339971  19.069   6.676   5.553
 8041POPC   PO439972  19.070   6.673   5.853
 8041POPC   GL139973  19.031   6.652   6.153
 8041POPC   GL239974  19.051   6.789   6.153
 8041POPC   C1A39975  19.021   6.670   6.453
 8041POPC   D2A39976  19.060   6.621   6.753
 8041POPC   C3A39977  19.060   6.627   7.053
 8041POPC   C4A39978  19.018   6.677   7.353
 8041POPC   C1B39979  19.028   6.941   6.453
 8041POPC   C2B39980  19.056   6.936   6.753
 8041POPC   C3B39981  19.052   6.881   7.053
 8041POPC   C4B39982  19.006   6.910   7.353
 8042POPC   NC339983  14.410  14.439   5.553
 8042POPC   PO439984  14.419  14.403   5.853
 8042POPC   GL139985  14.444  14.419   6.153
 8042POPC   GL239986  14.237  14.370   6.153
 8042POPC   C1A39987  14.392  14.405   6.453
 8042POPC   D2A39988  14.395  14.425   6.753
 8042POPC   C3A39989  14.403  14.402   7.053
 8042POPC   C4A39990  14.448  14.403   7.353
 8042POPC   C1B39991  14.131  14.468   6.453
 8042POPC   C2B39992  14.141  14.434   6.753
 8042POPC   C3B39993  14.160  14.411   7.053
 8042POPC   C4B39994  14.158  14.412   7.353
 8043POPC   NC339995  20.562  29.097   5.553
 8043POPC   PO439996  20.569  29.167   5.853
 8043POPC   GL139997  20.591  29.118   6.153
 8043POPC   GL239998  20.531  29.063   6.153
 8043POPC   C1A39999  20.580  29.175   6.453
 8043POPC   D2A40000  20.565  29.162   6.753
 8043POPC   C3A40001  20.573  29.180   7.053
 8043POPC   C4A40002  20.615  29.102   7.353
 8043POPC   C1B40003  20.419  29.012   6.453
 8043POPC   C2B40004  20.398  29.007   6.753
 8043POPC   C3B40005  20.434  29.010   7.053
 8043POPC   C4B40006  20.366  29.009   7.353
 8044POPC   NC340007  41.575  29.153   5.553
 8044POPC   PO440008  41.597  29.171   5.853
 8044POPC   GL140009  41.536  29.179   6.153
 8044POPC   GL240010  41.640  29.280   6.153
 8044POPC   C1A40011  41.521  29.173   6.453
 8044POPC   D2A40012  41.518  29.179   6.753
 8044POPC   C3A40013  41.585  29.176   7.053
 8044POPC   C4A40014  41.579  29.160   7.353
 8044POPC   C1B40015  41.666  29.345   6.453
 8044POPC   C2B40016  41.728  29.339   6.753
 8044POPC   C3B40017  41.664  29.346   7.053
 8044POPC   C4B40018  41.670  29.372   7.353
 8045POPC   NC340019  12.846  20.630   5.553
 8045POPC   PO440020  12.877  20.618   5.853
 8045POPC   GL140021  12.815  20.575   6.153
 8045POPC   GL240022  12.808  20.464   6.153
 8045POPC   C1A40023  12.834  20.578   6.453
 8045POPC   D2A40024  12.810  20.603   6.753
 8045POPC   C3A40025  12.844  20.612   7.053
 8045POPC   C4A40026  12.883  20.567   7.353
 8045POPC   C1B40027  12.809  20.386   6.453
 8045POPC   C2B40028  12.826  20.366   6.753
 8045POPC   C3B40029  12.816  20.368   7.053
 8045POPC   C4B40030  12.849  20.404   7.353
 8046POPC   NC340031   2.007  27.587   5.553
 8046POPC   PO440032   1.993  27.570   5.853
 8046POPC   GL140033   2.001  27.547   6.153
 8046POPC   GL240034   1.856  27.667   6.153
 8046POPC   C1A40035   2.009  27.625   6.453
 8046POPC   D2A40036   2.021  27.569   6.753
 8046POPC   C3A40037   2.003  27.586   7.053
 8046POPC   C4A40038   1.970  27.577   7.353
 8046POPC   C1B40039   1.785  27.805   6.453
 8046POPC   C2B40040   1.775  27.748   6.753
 8046POPC   C3B40041   1.766  27.715   7.053
 8046POPC   C4B40042   1.773  27.709   7.353
 8047POPC   NC340043  29.170  17.486   5.553
 8047POPC   PO440044  29.118  17.486   5.853
 8047POPC   GL140045  29.161  17.463   6.153
 8047POPC   GL240046  29.002  17.496   6.153
 8047POPC   C1A40047  29.167  17.472   6.453
 8047POPC   D2A40048  29.171  17.549   6.753
 8047POPC   C3A40049  29.122  17.466   7.053
 8047POPC   C4A40050  29.133  17.527   7.353
 8047POPC   C1B40051  28.922  17.447   6.453
 8047POPC   C2B40052  28.870  17.360   6.753
 8047POPC   C3B40053  28.940  17.357   7.053
 8047POPC   C4B40054  28.869  17.424   7.353
 8048POPC   NC340055  16.700   0.462   5.553
 8048POPC   PO440056  16.778   0.411   5.853
 8048POPC   GL140057  16.709   0.485   6.153
 8048POPC   GL240058  16.709   0.555   6.153
 8048POPC   C1A40059  16.706   0.440   6.453
 8048POPC   D2A40060  16.755   0.458   6.753
 8048POPC   C3A40061  16.721   0.446   7.053
 8048POPC   C4A40062  16.705   0.462   7.353
 8048POPC   C1B40063  16.680   0.681   6.453
 8048POPC   C2B40064  16.637   0.632   6.753
 8048POPC   C3B40065  16.689   0.715   7.053
 8048POPC   C4B40066  16.637   0.631   7.353
 8049POPC   NC340067   8.961  26.789   5.553
 8049POPC   PO440068   9.017  26.848   5.853
 8049POPC   GL140069   8.971  26.861   6.153
 8049POPC   GL240070   8.890  26.774   6.153
 8049POPC   C1A40071   9.006  26.847   6.453
 8049POPC   D2A40072   8.937  26.859   6.753
 8049POPC   C3A40073   8.951  26.780   7.053
 8049POPC   C4A40074   9.004  26.794   7.353
 8049POPC   C1B40075   8.807  26.638   6.453
 8049POPC   C2B40076   8.850  26.633   6.753
 8049POPC   C3B40077   8.822  26.674   7.053
 8049POPC   C4B40078   8.798  26.672   7.353
 8050POPC   NC340079  23.692   7.392   5.553
 8050POPC   PO440080  23.672   7.393   5.853
 8050POPC   GL140081  23.689   7.465   6.153
 8050POPC   GL240082  23.643   7.367   6.153
 8050POPC   C1A40083  23.738   7.378   6.453
 8050POPC   D2A40084  23.690   7.461   6.753
 8050POPC   C3A40085  23.719   7.402   7.053
 8050POPC   C4A40086  23.705   7.430   7.353
 8050POPC   C1B40087  23.478   7.273   6.453
 8050POPC   C2B40088  23.490   7.286   6.753
 8050POPC   C3B40089  23.489   7.266   7.053
 8050POPC   C4B40090  23.498   7.310   7.353
 8051POPC   NC340091  20.593  29.960   5.553
 8051POPC   PO440092  20.592  29.881   5.853
 8051POPC   GL140093  20.644  29.885   6.153
 8051POPC   GL240094  20.685  30.024   6.153
 8051POPC   C1A40095  20.627  29.954   6.453
 8051POPC   D2A40096  20.602  29.927   6.753
 8051POPC   C3A40097  20.574  29.895   7.053
 8051POPC   C4A40098  20.627  29.939   7.353
 8051POPC   C1B40099  20.806  30.050   6.453
 8051POPC   C2B40100  20.835  30.054   6.753
 8051POPC   C3B40101  20.841  30.094   7.053
 8051POPC   C4B40102  20.794  30.034   7.353
 8052POPC   NC340103   0.455  35.367   5.553
 8052POPC   PO440104   0.411  35.317   5.853
 8052POPC   GL140105   0.467  35.359   6.153
 8052POPC   GL240106   0.576  35.360   6.153
 8052POPC   C1A40107   0.403  35.363   6.453
 8052POPC   D2A40108   0.402  35.344   6.753
 8052POPC   C3A40109   0.463  35.331   7.053
 8052POPC   C4A40110   0.414  35.334   7.353
 8052POPC   C1B40111   0.632  35.237   6.453
 8052POPC   C2B40112   0.647  35.322   6.753
 8052POPC   C3B40113   0.697  35.302   7.053
 8052POPC   C4B40114   0.662  35.280   7.353
 8053POPC   NC340115  40.803   2.761   5.553
 8053POPC   PO440116  40.749   2.772   5.853
 8053POPC   GL140117  40.742   2.747   6.153
 8053POPC   GL240118  40.745   2.862   6.153
 8053POPC   C1A40119  40.764   2.762   6.453
 8053POPC   D2A40120  40.798   2.737   6.753
 8053POPC   C3A40121  40.777   2.787   7.053
 8053POPC   C4A40122  40.814   2.763   7.353
 8053POPC   C1B40123  40.709   3.037   6.453
 8053POPC   C2B40124  40.727   2.985   6.753
 8053POPC   C3B40125  40.682   3.051   7.053
 8053POPC   C4B40126  40.700   3.038   7.353
 8054POPC   NC340127   4.351   4.304   5.553
 8054POPC   PO440128   4.268   4.281   5.853
 8054POPC   GL140129   4.327   4.335   6.153
 8054POPC   GL240130   4.258   4.180   6.153
 8054POPC   C1A40131   4.352   4.299   6.453
 8054POPC   D2A40132   4.293   4.365   6.753
 8054POPC   C3A40133   4.297   4.366   7.053
 8054POPC   C4A40134   4.301   4.347   7.353
 8054POPC   C1B40135   4.321   4.030   6.453
 8054POPC   C2B40136   4.283   4.109   6.753
 8054POPC   C3B40137   4.321   4.025   7.053
 8054POPC   C4B40138   4.246   4.034   7.353
 8055POPC   NC340139  26.056   2.775   5.553
 8055POPC   PO440140  26.027   2.802   5.853
 8055POPC   GL140141  26.076   2.779   6.153
 8055POPC   GL240142  26.082   2.891   6.153
 8055POPC   C1A40143  26.080   2.780   6.453
 8055POPC   D2A40144  26.076   2.743   6.753
 8055POPC   C3A40145  26.001   2.763   7.053
 8055POPC   C4A40146  26.081   2.726   7.353
 8055POPC   C1B40147  26.093   2.992   6.453
 8055POPC   C2B40148  26.083   2.994   6.753
 8055POPC   C3B40149  26.106   3.014   7.053
 8055POPC   C4B40150  26.105   3.006   7.353
 8056POPC   NC340151  40.028  43.843   5.553
 8056POPC   PO440152  40.051  43.923   5.853
 8056POPC   GL140153  40.036  43.878   6.153
 8056POPC   GL240154  39.979  43.985   6.153
 8056POPC   C1A40155  39.993  43.934   6.453
 8056POPC   D2A40156  39.973  43.919   6.753
 8056POPC   C3A40157  40.016  43.912   7.053
 8056POPC   C4A40158  40.020  43.849   7.353
 8056POPC   C1B40159  40.074  44.116   6.453
 8056POPC   C2B40160  40.058  44.090   6.753
 8056POPC   C3B40161  40.023  44.171   7.053
 8056POPC   C4B40162  40.070  44.173   7.353
 8057POPC   NC340163  29.180  29.161   5.553
 8057POPC   PO440164  29.122  29.187   5.853
 8057POPC   GL140165  29.150  29.161   6.153
 8057POPC   GL240166  29.139  29.042   6.153
 8057POPC   C1A40167  29.146  29.191   6.453
 8057POPC   D2A40168  29.172  29.095   6.753
 8057POPC   C3A40169  29.130  29.132   7.053
 8057POPC   C4A40170  29.124  29.143   7.353
 8057POPC   C1B40171  29.238  28.942   6.453
 8057POPC   C2B40172  29.195  28.893   6.753
 8057POPC   C3B40173  29.177  28.920   7.053
 8057POPC   C4B40174  29.232  28.864   7.353
 8058POPC   NC340175  10.547  35.352   5.553
 8058POPC   PO440176  10.514  35.393   5.853
 8058POPC   GL140177  10.555  35.305   6.153
 8058POPC   GL240178  10.381  35.446   6.153
 8058POPC   C1A40179  10.552  35.377   6.453
 8058POPC   D2A40180  10.502  35.328   6.753
 8058POPC   C3A40181  10.546  35.303   7.053
 8058POPC   C4A40182  10.556  35.367   7.353
 8058POPC   C1B40183  10.293  35.500   6.453
 8058POPC   C2B40184  10.365  35.471   6.753
 8058POPC   C3B40185  10.366  35.541   7.053
 8058POPC   C4B40186  10.297  35.478   7.353
 8059POPC   NC340187   5.831  25.223   5.553
 8059POPC   PO440188   5.858  25.225   5.853
 8059POPC   GL140189   5.881  25.226   6.153
 8059POPC   GL240190   5.853  25.134   6.153
 8059POPC   C1A40191   5.904  25.310   6.453
 8059POPC   D2A40192   5.833  25.282   6.753
 8059POPC   C3A40193   5.914  25.252   7.053
 8059POPC   C4A40194   5.917  25.306   7.353
 8059POPC   C1B40195   5.766  25.033   6.453
 8059POPC   C2B40196   5.718  25.005   6.753
 8059POPC   C3B40197   5.694  25.087   7.053
 8059POPC   C4B40198   5.779  25.022   7.353
 8060POPC   NC340199  31.481  34.547   5.553
 8060POPC   PO440200  31.518  34.606   5.853
 8060POPC   GL140201  31.472  34.564   6.153
 8060POPC   GL240202  31.362  34.583   6.153
 8060POPC   C1A40203  31.497  34.553   6.453
 8060POPC   D2A40204  31.447  34.563   6.753
 8060POPC   C3A40205  31.436  34.546   7.053
 8060POPC   C4A40206  31.519  34.609   7.353
 8060POPC   C1B40207  31.209  34.503   6.453
 8060POPC   C2B40208  31.227  34.506   6.753
 8060POPC   C3B40209  31.249  34.530   7.053
 8060POPC   C4B40210  31.219  34.568   7.353
 8061POPC   NC340211  41.599  25.253   5.553
 8061POPC   PO440212  41.537  25.244   5.853
 8061POPC   GL140213  41.562  25.271   6.153
 8061POPC   GL240214  41.471  25.185   6.153
 8061POPC   C1A40215  41.575  25.240   6.453
 8061POPC   D2A40216  41.557  25.229   6.753
 8061POPC   C3A40217  41.591  25.224   7.053
 8061POPC   C4A40218  41.568  25.257   7.353
 8061POPC   C1B40219  41.411  25.098   6.453
 8061POPC   C2B40220  41.425  25.079   6.753
 8061POPC   C3B40221  41.402  25.109   7.053
 8061POPC   C4B40222  41.355  25.046   7.353
 8062POPC   NC340223  39.268  38.415   5.553
 8062POPC   PO440224  39.242  38.445   5.853
 8062POPC   GL140225  39.188  38.421   6.153
 8062POPC   GL240226  39.220  38.592   6.153
 8062POPC   C1A40227  39.197  38.469   6.453
 8062POPC   D2A40228  39.183  38.463   6.753
 8062POPC   C3A40229  39.265  38.430   7.053
 8062POPC   C4A40230  39.202  38.425   7.353
 8062POPC   C1B40231  39.275  38.655   6.453
 8062POPC   C2B40232  39.255  38.712   6.753
 8062POPC   C3B40233  39.263  38.706   7.053
 8062POPC   C4B40234  39.238  38.684   7.353
 8063POPC   NC340235   9.732  12.844   5.553
 8063POPC   PO440236   9.790  12.825   5.853
 8063POPC   GL140237   9.794  12.874   6.153
 8063POPC   GL240238   9.838  12.916   6.153
 8063POPC   C1A40239   9.747  12.808   6.453
 8063POPC   D2A40240   9.708  12.881   6.753
 8063POPC   C3A40241   9.776  12.847   7.053
 8063POPC   C4A40242   9.722  12.838   7.353
 8063POPC   C1B40243   9.945  12.874   6.453
 8063POPC   C2B40244   9.946  12.950   6.753
 8063POPC   C3B40245  10.019  12.918   7.053
 8063POPC   C4B40246   9.946  12.885   7.353
 8064POPC   NC340247   8.985  23.739   5.553
 8064POPC   PO440248   8.966  23.697   5.853
 8064POPC   GL140249   8.946  23.697   6.153
 8064POPC   GL240250   9.024  23.861   6.153
 8064POPC   C1A40251   8.926  23.688   6.453
 8064POPC   D2A40252   8.986  23.738   6.753
 8064POPC   C3A40253   8.985  23.674   7.053
 8064POPC   C4A40254   9.010  23.683   7.353
 8064POPC   C1B40255   9.045  23.960   6.453
 8064POPC   C2B40256   9.021  23.966   6.753
 8064POPC   C3B40257   9.058  23.983   7.053
 8064POPC   C4B40258   9.060  23.957   7.353
 8065POPC   NC340259   5.135  18.257   5.553
 8065POPC   PO440260   5.122  18.288   5.853
 8065POPC   GL140261   5.102  18.239   6.153
 8065POPC   GL240262   5.089  18.176   6.153
 8065POPC   C1A40263   5.112  18.256   6.453
 8065POPC   D2A40264   5.125  18.243   6.753
 8065POPC   C3A40265   5.055  18.272   7.053
 8065POPC   C4A40266   5.079  18.282   7.353
 8065POPC   C1B40267   5.146  18.047   6.453
 8065POPC   C2B40268   5.075  17.984   6.753
 8065POPC   C3B40269   5.048  18.064   7.053
 8065POPC   C4B40270   5.073  18.079   7.353
 8066POPC   NC340271  12.901  29.940   5.553
 8066POPC   PO440272  12.864  29.928   5.853
 8066POPC   GL140273  12.834  29.952   6.153
 8066POPC   GL240274  12.930  29.828   6.153
 8066POPC   C1A40275  12.868  29.919   6.453
 8066POPC   D2A40276  12.878  29.906   6.753
 8066POPC   C3A40277  12.823  29.960   7.053
 8066POPC   C4A40278  12.802  29.938   7.353
 8066POPC   C1B40279  12.949  29.671   6.453
 8066POPC   C2B40280  12.906  29.719   6.753
 8066POPC   C3B40281  12.869  29.721   7.053
 8066POPC   C4B40282  12.954  29.656   7.353
 8067POPC   NC340283  43.875   5.909   5.553
 8067POPC   PO440284  43.877   5.854   5.853
 8067POPC   GL140285  43.935   5.840   6.153
 8067POPC   GL240286  43.940   5.998   6.153
 8067POPC   C1A40287  43.916   5.904   6.453
 8067POPC   D2A40288  43.904   5.891   6.753
 8067POPC   C3A40289  43.855   5.824   7.053
 8067POPC   C4A40290  43.836   5.848   7.353
 8067POPC   C1B40291  44.046   6.040   6.453
 8067POPC   C2B40292  44.069   6.085   6.753
 8067POPC   C3B40293  44.065   6.017   7.053
 8067POPC   C4B40294  44.099   6.027   7.353
 8068POPC   NC340295  11.327  17.523   5.553
 8068POPC   PO440296  11.340  17.547   5.853
 8068POPC   GL140297  11.334  17.526   6.153
 8068POPC   GL240298  11.228  17.437   6.153
 8068POPC   C1A40299  11.317  17.514   6.453
 8068POPC   D2A40300  11.298  17.474   6.753
 8068POPC   C3A40301  11.297  17.463   7.053
 8068POPC   C4A40302  11.270  17.487   7.353
 8068POPC   C1B40303  11.148  17.357   6.453
 8068POPC   C2B40304  11.145  17.282   6.753
 8068POPC   C3B40305  11.097  17.329   7.053
 8068POPC   C4B40306  11.150  17.369   7.353
 8069POPC   NC340307   0.388  43.089   5.553
 8069POPC   PO440308   0.457  43.062   5.853
 8069POPC   GL140309   0.486  43.099   6.153
 8069POPC   GL240310   0.307  43.000   6.153
 8069POPC   C1A40311   0.417  43.096   6.453
 8069POPC   D2A40312   0.417  43.142   6.753
 8069POPC   C3A40313   0.429  43.061   7.053
 8069POPC   C4A40314   0.403  43.137   7.353
 8069POPC   C1B40315   0.264  42.942   6.453
 8069POPC   C2B40316   0.267  42.949   6.753
 8069POPC   C3B40317   0.226  42.984   7.053
 8069POPC   C4B40318   0.271  42.907   7.353
 8070POPC   NC340319  15.146   8.175   5.553
 8070POPC   PO440320  15.179   8.178   5.853
 8070POPC   GL140321  15.226   8.190   6.153
 8070POPC   GL240322  15.265   8.213   6.153
 8070POPC   C1A40323  15.213   8.221   6.453
 8070POPC   D2A40324  15.150   8.245   6.753
 8070POPC   C3A40325  15.228   8.233   7.053
 8070POPC   C4A40326  15.173   8.202   7.353
 8070POPC   C1B40327  15.454   8.236   6.453
 8070POPC   C2B40328  15.424   8.233   6.753
 8070POPC   C3B40329  15.410   8.195   7.053
 8070POPC   C4B40330  15.434   8.188   7.353
 8071POPC   NC340331   3.561  26.041   5.553
 8071POPC   PO440332   3.519  26.042   5.853
 8071POPC   GL140333   3.562  26.029   6.153
 8071POPC   GL240334   3.599  25.901   6.153
 8071POPC   C1A40335   3.494  26.007   6.453
 8071POPC   D2A40336   3.537  26.062   6.753
 8071POPC   C3A40337   3.560  26.056   7.053
 8071POPC   C4A40338   3.529  26.059   7.353
 8071POPC   C1B40339   3.748  25.830   6.453
 8071POPC   C2B40340   3.749  25.816   6.753
 8071POPC   C3B40341   3.743  25.882   7.053
 8071POPC   C4B40342   3.731  25.837   7.353
 8072POPC   NC340343  18.318  42.357   5.553
 8072POPC   PO440344  18.328  42.334   5.853
 8072POPC   GL140345  18.289  42.303   6.153
 8072POPC   GL240346  18.389  42.285   6.153
 8072POPC   C1A40347  18.277  42.343   6.453
 8072POPC   D2A40348  18.294  42.351   6.753
 8072POPC   C3A40349  18.234  42.310   7.053
 8072POPC   C4A40350  18.322  42.287   7.353
 8072POPC   C1B40351  18.484  42.121   6.453
 8072POPC   C2B40352  18.473  42.151   6.753
 8072POPC   C3B40353  18.414  42.175   7.053
 8072POPC   C4B40354  18.428  42.131   7.353
 8073POPC   NC340355  33.766   2.729   5.553
 8073POPC   PO440356  33.789   2.772   5.853
 8073POPC   GL140357  33.830   2.775   6.153
 8073POPC   GL240358  33.962   2.720   6.153
 8073POPC   C1A40359  33.811   2.798   6.453
 8073POPC   D2A40360  33.802   2.785   6.753
 8073POPC   C3A40361  33.845   2.721   7.053
 8073POPC   C4A40362  33.777   2.773   7.353
 8073POPC   C1B40363  34.073   2.725   6.453
 8073POPC   C2B40364  34.035   2.778   6.753
 8073POPC   C3B40365  34.072   2.771   7.053
 8073POPC   C4B40366  34.041   2.714   7.353
 8074POPC   NC340367   2.023  31.445   5.553
 8074POPC   PO440368   2.038  31.507   5.853
 8074POPC   GL140369   2.033  31.472   6.153
 8074POPC   GL240370   2.018  31.609   6.153
 8074POPC   C1A40371   1.963  31.512   6.453
 8074POPC   D2A40372   1.972  31.461   6.753
 8074POPC   C3A40373   2.034  31.434   7.053
 8074POPC   C4A40374   1.968  31.438   7.353
 8074POPC   C1B40375   2.037  31.728   6.453
 8074POPC   C2B40376   2.019  31.709   6.753
 8074POPC   C3B40377   2.061  31.714   7.053
 8074POPC   C4B40378   2.093  31.760   7.353
 8075POPC   NC340379   4.348  19.861   5.553
 8075POPC   PO440380   4.335  19.870   5.853
 8075POPC   GL140381   4.269  19.881   6.153
 8075POPC   GL240382   4.301  19.961   6.153
 8075POPC   C1A40383   4.292  19.799   6.453
 8075POPC   D2A40384   4.279  19.851   6.753
 8075POPC   C3A40385   4.299  19.797   7.053
 8075POPC   C4A40386   4.358  19.853   7.353
 8075POPC   C1B40387   4.213  20.042   6.453
 8075POPC   C2B40388   4.215  20.089   6.753
 8075POPC   C3B40389   4.193  20.088   7.053
 8075POPC   C4B40390   4.252  20.073   7.353
 8076POPC   NC340391  43.113   2.719   5.553
 8076POPC   PO440392  43.073   2.776   5.853
 8076POPC   GL140393  43.068   2.735   6.153
 8076POPC   GL240394  43.153   2.685   6.153
 8076POPC   C1A40395  43.157   2.762   6.453
 8076POPC   D2A40396  43.065   2.813   6.753
 8076POPC   C3A40397  43.068   2.813   7.053
 8076POPC   C4A40398  43.159   2.806   7.353
 8076POPC   C1B40399  43.197   2.548   6.453
 8076POPC   C2B40400  43.229   2.566   6.753
 8076POPC   C3B40401  43.195   2.593   7.053
 8076POPC   C4B40402  43.223   2.507   7.353
 8077POPC   NC340403  20.569  36.900   5.553
 8077POPC   PO440404  20.597  36.949   5.853
 8077POPC   GL140405  20.646  36.899   6.153
 8077POPC   GL240406  20.529  36.797   6.153
 8077POPC   C1A40407  20.589  36.953   6.453
 8077POPC   D2A40408  20.562  36.855   6.753
 8077POPC   C3A40409  20.632  36.887   7.053
 8077POPC   C4A40410  20.654  36.863   7.353
 8077POPC   C1B40411  20.480  36.721   6.453
 8077POPC   C2B40412  20.472  36.754   6.753
 8077POPC   C3B40413  20.482  36.714   7.053
 8077POPC   C4B40414  20.481  36.687   7.353
 8078POPC   NC340415  25.268   5.877   5.553
 8078POPC   PO440416  25.264   5.914   5.853
 8078POPC   GL140417  25.233   5.879   6.153
 8078POPC   GL240418  25.341   5.984   6.153
 8078POPC   C1A40419  25.296   5.911   6.453
 8078POPC   D2A40420  25.313   5.863   6.753
 8078POPC   C3A40421  25.300   5.876   7.053
 8078POPC   C4A40422  25.246   5.916   7.353
 8078POPC   C1B40423  25.499   6.002   6.453
 8078POPC   C2B40424  25.434   6.012   6.753
 8078POPC   C3B40425  25.430   6.030   7.053
 8078POPC   C4B40426  25.452   6.038   7.353
 8079POPC   NC340427   3.505   6.651   5.553
 8079POPC   PO440428   3.509   6.614   5.853
 8079POPC   GL140429   3.507   6.611   6.153
 8079POPC   GL240430   3.392   6.700   6.153
 8079POPC   C1A40431   3.555   6.668   6.453
 8079POPC   D2A40432   3.587   6.687   6.753
 8079POPC   C3A40433   3.568   6.677   7.053
 8079POPC   C4A40434   3.496   6.614   7.353
 8079POPC   C1B40435   3.333   6.672   6.453
 8079POPC   C2B40436   3.320   6.700   6.753
 8079POPC   C3B40437   3.306   6.687   7.053
 8079POPC   C4B40438   3.269   6.689   7.353
 8080POPC   NC340439  32.289  42.330   5.553
 8080POPC   PO440440  32.287  42.347   5.853
 8080POPC   GL140441  32.275  42.342   6.153
 8080POPC   GL240442  32.185  42.431   6.153
 8080POPC   C1A40443  32.211  42.317   6.453
 8080POPC   D2A40444  32.243  42.315   6.753
 8080POPC   C3A40445  32.222  42.374   7.053
 8080POPC   C4A40446  32.274  42.304   7.353
 8080POPC   C1B40447  32.177  42.551   6.453
 8080POPC   C2B40448  32.187  42.544   6.753
 8080POPC   C3B40449  32.212  42.546   7.053
 8080POPC   C4B40450  32.222  42.612   7.353
 8081POPC   NC340451   5.076  26.059   5.553
 8081POPC   PO440452   5.102  26.028   5.853
 8081POPC   GL140453   5.143  26.059   6.153
 8081POPC   GL240454   5.165  26.213   6.153
 8081POPC   C1A40455   5.062  26.021   6.453
 8081POPC   D2A40456   5.046  26.031   6.753
 8081POPC   C3A40457   5.067  26.073   7.053
 8081POPC   C4A40458   5.099  26.003   7.353
 8081POPC   C1B40459   5.121  26.252   6.453
 8081POPC   C2B40460   5.137  26.275   6.753
 8081POPC   C3B40461   5.116  26.334   7.053
 8081POPC   C4B40462   5.108  26.318   7.353
 8082POPC   NC340463  15.974  42.353   5.553
 8082POPC   PO440464  15.978  42.356   5.853
 8082POPC   GL140465  15.975  42.306   6.153
 8082POPC   GL240466  16.054  42.254   6.153
 8082POPC   C1A40467  15.946  42.340   6.453
 8082POPC   D2A40468  15.935  42.306   6.753
 8082POPC   C3A40469  15.965  42.343   7.053
 8082POPC   C4A40470  15.973  42.343   7.353
 8082POPC   C1B40471  16.068  42.073   6.453
 8082POPC   C2B40472  16.105  42.076   6.753
 8082POPC   C3B40473  16.087  42.115   7.053
 8082POPC   C4B40474  16.066  42.074   7.353
 8083POPC   NC340475  22.942  11.254   5.553
 8083POPC   PO440476  22.898  11.339   5.853
 8083POPC   GL140477  22.938  11.296   6.153
 8083POPC   GL240478  23.007  11.178   6.153
 8083POPC   C1A40479  22.967  11.294   6.453
 8083POPC   D2A40480  22.984  11.258   6.753
 8083POPC   C3A40481  22.897  11.297   7.053
 8083POPC   C4A40482  22.961  11.274   7.353
 8083POPC   C1B40483  23.077  11.111   6.453
 8083POPC   C2B40484  23.093  11.089   6.753
 8083POPC   C3B40485  23.021  11.068   7.053
 8083POPC   C4B40486  23.067  11.047   7.353
 8084POPC   NC340487  25.309  21.388   5.553
 8084POPC   PO440488  25.300  21.405   5.853
 8084POPC   GL140489  25.217  21.416   6.153
 8084POPC   GL240490  25.404  21.366   6.153
 8084POPC   C1A40491  25.225  21.406   6.453
 8084POPC   D2A40492  25.283  21.380   6.753
 8084POPC   C3A40493  25.250  21.394   7.053
 8084POPC   C4A40494  25.245  21.421   7.353
 8084POPC   C1B40495  25.482  21.385   6.453
 8084POPC   C2B40496  25.520  21.352   6.753
 8084POPC   C3B40497  25.508  21.359   7.053
 8084POPC   C4B40498  25.485  21.353   7.353
 8085POPC   NC340499  39.977  36.933   5.553
 8085POPC   PO440500  40.014  36.950   5.853
 8085POPC   GL140501  39.980  36.939   6.153
 8085POPC   GL240502  39.996  36.989   6.153
 8085POPC   C1A40503  40.046  36.860   6.453
 8085POPC   D2A40504  40.023  36.898   6.753
 8085POPC   C3A40505  40.013  36.895   7.053
 8085POPC   C4A40506  39.985  36.927   7.353
 8085POPC   C1B40507  40.016  37.127   6.453
 8085POPC   C2B40508  40.041  37.149   6.753
 8085POPC   C3B40509  40.032  37.175   7.053
 8085POPC   C4B40510  39.999  37.175   7.353
 8086POPC   NC340511  43.930  37.663   5.553
 8086POPC   PO440512  43.888  37.676   5.853
 8086POPC   GL140513  43.837  37.643   6.153
 8086POPC   GL240514  43.776  37.726   6.153
 8086POPC   C1A40515  43.869  37.698   6.453
 8086POPC   D2A40516  43.890  37.718   6.753
 8086POPC   C3A40517  43.918  37.719   7.053
 8086POPC   C4A40518  43.892  37.658   7.353
 8086POPC   C1B40519  43.635  37.776   6.453
 8086POPC   C2B40520  43.634  37.690   6.753
 8086POPC   C3B40521  43.626  37.688   7.053
 8086POPC   C4B40522  43.604  37.743   7.353
 8087POPC   NC340523  39.239  26.083   5.553
 8087POPC   PO440524  39.217  26.070   5.853
 8087POPC   GL140525  39.267  26.000   6.153
 8087POPC   GL240526  39.250  25.924   6.153
 8087POPC   C1A40527  39.190  26.017   6.453
 8087POPC   D2A40528  39.228  26.031   6.753
 8087POPC   C3A40529  39.221  26.039   7.053
 8087POPC   C4A40530  39.278  26.009   7.353
 8087POPC   C1B40531  39.278  25.833   6.453
 8087POPC   C2B40532  39.259  25.773   6.753
 8087POPC   C3B40533  39.266  25.753   7.053
 8087POPC   C4B40534  39.272  25.827   7.353
 8088POPC   NC340535  22.207  33.021   5.553
 8088POPC   PO440536  22.147  33.026   5.853
 8088POPC   GL140537  22.194  33.015   6.153
 8088POPC   GL240538  22.120  33.102   6.153
 8088POPC   C1A40539  22.120  33.058   6.453
 8088POPC   D2A40540  22.203  32.995   6.753
 8088POPC   C3A40541  22.206  33.053   7.053
 8088POPC   C4A40542  22.161  33.012   7.353
 8088POPC   C1B40543  22.051  33.272   6.453
 8088POPC   C2B40544  22.125  33.257   6.753
 8088POPC   C3B40545  22.124  33.215   7.053
 8088POPC   C4B40546  22.045  33.266   7.353
 8089POPC   NC340547  24.490  43.899   5.553
 8089POPC   PO440548  24.483  43.885   5.853
 8089POPC   GL140549  24.517  43.926   6.153
 8089POPC   GL240550  24.431  44.026   6.153
 8089POPC   C1A40551  24.449  43.857   6.453
 8089POPC   D2A40552  24.500  43.924   6.753
 8089POPC   C3A40553  24.444  43.871   7.053
 8089POPC   C4A40554  24.497  43.866   7.353
 8089POPC   C1B40555  24.359  44.087   6.453
 8089POPC   C2B40556  24.334  44.122   6.753
 8089POPC   C3B40557  24.304  44.098   7.053
 8089POPC   C4B40558  24.331  44.112   7.353
 8090POPC   NC340559  24.501   8.962   5.553
 8090POPC   PO440560  24.462   8.924   5.853
 8090POPC   GL140561  24.509   8.973   6.153
 8090POPC   GL240562  24.548   9.076   6.153
 8090POPC   C1A40563  24.447   8.984   6.453
 8090POPC   D2A40564  24.464   9.018   6.753
 8090POPC   C3A40565  24.448   8.933   7.053
 8090POPC   C4A40566  24.496   9.016   7.353
 8090POPC   C1B40567  24.748   9.107   6.453
 8090POPC   C2B40568  24.745   9.071   6.753
 8090POPC   C3B40569  24.734   9.076   7.053
 8090POPC   C4B40570  24.659   9.106   7.353
 8091POPC   NC340571  28.356  32.261   5.553
 8091POPC   PO440572  28.390  32.220   5.853
 8091POPC   GL140573  28.322  32.287   6.153
 8091POPC   GL240574  28.342  32.129   6.153
 8091POPC   C1A40575  28.380  32.268   6.453
 8091POPC   D2A40576  28.414  32.240   6.753
 8091POPC   C3A40577  28.333  32.295   7.053
 8091POPC   C4A40578  28.354  32.214   7.353
 8091POPC   C1B40579  28.235  32.021   6.453
 8091POPC   C2B40580  28.204  32.023   6.753
 8091POPC   C3B40581  28.246  32.063   7.053
 8091POPC   C4B40582  28.268  32.008   7.353
 8092POPC   NC340583  14.437   8.184   5.553
 8092POPC   PO440584  14.436   8.225   5.853
 8092POPC   GL140585  14.429   8.154   6.153
 8092POPC   GL240586  14.259   8.113   6.153
 8092POPC   C1A40587  14.378   8.205   6.453
 8092POPC   D2A40588  14.360   8.147   6.753
 8092POPC   C3A40589  14.380   8.183   7.053
 8092POPC   C4A40590  14.404   8.180   7.353
 8092POPC   C1B40591  14.133   8.141   6.453
 8092POPC   C2B40592  14.194   8.142   6.753
 8092POPC   C3B40593  14.215   8.153   7.053
 8092POPC   C4B40594  14.205   8.091   7.353
 8093POPC   NC340595  36.086  33.035   5.553
 8093POPC   PO440596  36.136  33.052   5.853
 8093POPC   GL140597  36.150  32.979   6.153
 8093POPC   GL240598  36.215  32.993   6.153
 8093POPC   C1A40599  36.103  33.004   6.453
 8093POPC   D2A40600  36.093  33.068   6.753
 8093POPC   C3A40601  36.168  33.056   7.053
 8093POPC   C4A40602  36.149  32.995   7.353
 8093POPC   C1B40603  36.302  32.930   6.453
 8093POPC   C2B40604  36.324  32.916   6.753
 8093POPC   C3B40605  36.375  32.863   7.053
 8093POPC   C4B40606  36.323  32.866   7.353
 8094POPC   NC340607  40.742  24.440   5.553
 8094POPC   PO440608  40.796  24.462   5.853
 8094POPC   GL140609  40.755  24.513   6.153
 8094POPC   GL240610  40.724  24.652   6.153
 8094POPC   C1A40611  40.832  24.444   6.453
 8094POPC   D2A40612  40.766  24.516   6.753
 8094POPC   C3A40613  40.786  24.467   7.053
 8094POPC   C4A40614  40.817  24.469   7.353
 8094POPC   C1B40615  40.745  24.770   6.453
 8094POPC   C2B40616  40.757  24.722   6.753
 8094POPC   C3B40617  40.763  24.746   7.053
 8094POPC   C4B40618  40.712  24.686   7.353
 8095POPC   NC340619   9.746  20.568   5.553
 8095POPC   PO440620   9.776  20.654   5.853
 8095POPC   GL140621   9.795  20.615   6.153
 8095POPC   GL240622   9.618  20.611   6.153
 8095POPC   C1A40623   9.726  20.592   6.453
 8095POPC   D2A40624   9.703  20.577   6.753
 8095POPC   C3A40625   9.716  20.565   7.053
 8095POPC   C4A40626   9.771  20.580   7.353
 8095POPC   C1B40627   9.539  20.574   6.453
 8095POPC   C2B40628   9.522  20.603   6.753
 8095POPC   C3B40629   9.529  20.589   7.053
 8095POPC   C4B40630   9.469  20.557   7.353
 8096POPC   NC340631  29.964   8.245   5.553
 8096POPC   PO440632  29.954   8.226   5.853
 8096POPC   GL140633  29.871   8.231   6.153
 8096POPC   GL240634  29.814   8.204   6.153
 8096POPC   C1A40635  29.914   8.174   6.453
 8096POPC   D2A40636  29.889   8.185   6.753
 8096POPC   C3A40637  29.931   8.233   7.053
 8096POPC   C4A40638  29.949   8.239   7.353
 8096POPC   C1B40639  29.683   8.250   6.453
 8096POPC   C2B40640  29.701   8.277   6.753
 8096POPC   C3B40641  29.640   8.243   7.053
 8096POPC   C4B40642  29.686   8.293   7.353
 8097POPC   NC340643   9.752  43.084   5.553
 8097POPC   PO440644   9.790  43.153   5.853
 8097POPC   GL140645   9.770  43.146   6.153
 8097POPC   GL240646   9.626  43.189   6.153
 8097POPC   C1A40647   9.746  43.068   6.453
 8097POPC   D2A40648   9.705  43.100   6.753
 8097POPC   C3A40649   9.733  43.103   7.053
 8097POPC   C4A40650   9.714  43.100   7.353
 8097POPC   C1B40651   9.532  43.225   6.453
 8097POPC   C2B40652   9.522  43.264   6.753
 8097POPC   C3B40653   9.493  43.173   7.053
 8097POPC   C4B40654   9.502  43.255   7.353
 8098POPC   NC340655  19.078  42.381   5.553
 8098POPC   PO440656  19.106  42.366   5.853
 8098POPC   GL140657  19.086  42.349   6.153
 8098POPC   GL240658  19.020  42.234   6.153
 8098POPC   C1A40659  19.067  42.297   6.453
 8098POPC   D2A40660  19.011  42.300   6.753
 8098POPC   C3A40661  19.031  42.308   7.053
 8098POPC   C4A40662  19.061  42.368   7.353
 8098POPC   C1B40663  19.066  42.071   6.453
 8098POPC   C2B40664  19.056  42.040   6.753
 8098POPC   C3B40665  19.067  42.086   7.053
 8098POPC   C4B40666  19.038  42.133   7.353
 8099POPC   NC340667  43.146  18.292   5.553
 8099POPC   PO440668  43.081  18.264   5.853
 8099POPC   GL140669  43.083  18.240   6.153
 8099POPC   GL240670  43.035  18.316   6.153
 8099POPC   C1A40671  43.130  18.240   6.453
 8099POPC   D2A40672  43.122  18.234   6.753
 8099POPC   C3A40673  43.065  18.234   7.053
 8099POPC   C4A40674  43.064  18.263   7.353
 8099POPC   C1B40675  42.886  18.449   6.453
 8099POPC   C2B40676  42.867  18.384   6.753
 8099POPC   C3B40677  42.867  18.363   7.053
 8099POPC   C4B40678  42.915  18.403   7.353
 8100POPC   NC340679  30.650  12.853   5.553
 8100POPC   PO440680  30.692  12.901   5.853
 8100POPC   GL140681  30.735  12.850   6.153
 8100POPC   GL240682  30.705  12.694   6.153
 8100POPC   C1A40683  30.688  12.806   6.453
 8100POPC   D2A40684  30.703  12.879   6.753
 8100POPC   C3A40685  30.667  12.867   7.053
 8100POPC   C4A40686  30.670  12.826   7.353
 8100POPC   C1B40687  30.790  12.602   6.453
 8100POPC   C2B40688  30.794  12.557   6.753
 8100POPC   C3B40689  30.753  12.628   7.053
 8100POPC   C4B40690  30.745  12.600   7.353
 8101POPC   NC340691  14.421   1.164   5.553
 8101POPC   PO440692  14.392   1.179   5.853
 8101POPC   GL140693  14.380   1.175   6.153
 8101POPC   GL240694  14.547   1.109   6.153
 8101POPC   C1A40695  14.379   1.234   6.453
 8101POPC   D2A40696  14.449   1.174   6.753
 8101POPC   C3A40697  14.416   1.240   7.053
 8101POPC   C4A40698  14.416   1.262   7.353
 8101POPC   C1B40699  14.548   1.004   6.453
 8101POPC   C2B40700  14.636   1.084   6.753
 8101POPC   C3B40701  14.640   1.101   7.053
 8101POPC   C4B40702  14.582   1.007   7.353
 8102POPC   NC340703  19.038  27.577   5.553
 8102POPC   PO440704  19.049  27.560   5.853
 8102POPC   GL140705  19.103  27.555   6.153
 8102POPC   GL240706  19.059  27.749   6.153
 8102POPC   C1A40707  19.035  27.552   6.453
 8102POPC   D2A40708  19.049  27.554   6.753
 8102POPC   C3A40709  19.057  27.614   7.053
 8102POPC   C4A40710  19.066  27.610   7.353
 8102POPC   C1B40711  19.058  27.829   6.453
 8102POPC   C2B40712  19.017  27.846   6.753
 8102POPC   C3B40713  19.079  27.828   7.053
 8102POPC   C4B40714  19.048  27.845   7.353
 8103POPC   NC340715  28.372  31.480   5.553
 8103POPC   PO440716  28.379  31.442   5.853
 8103POPC   GL140717  28.398  31.461   6.153
 8103POPC   GL240718  28.332  31.594   6.153
 8103POPC   C1A40719  28.387  31.444   6.453
 8103POPC   D2A40720  28.401  31.520   6.753
 8103POPC   C3A40721  28.345  31.473   7.053
 8103POPC   C4A40722  28.409  31.486   7.353
 8103POPC   C1B40723  28.308  31.691   6.453
 8103POPC   C2B40724  28.346  31.708   6.753
 8103POPC   C3B40725  28.356  31.765   7.053
 8103POPC   C4B40726  28.370  31.672   7.353
 8104POPC   NC340727   0.461  36.905   5.553
 8104POPC   PO440728   0.468  36.953   5.853
 8104POPC   GL140729   0.398  36.929   6.153
 8104POPC   GL240730   0.416  37.045   6.153
 8104POPC   C1A40731   0.432  36.935   6.453
 8104POPC   D2A40732   0.400  36.894   6.753
 8104POPC   C3A40733   0.480  36.870   7.053
 8104POPC   C4A40734   0.480  36.932   7.353
 8104POPC   C1B40735   0.473  37.161   6.453
 8104POPC   C2B40736   0.407  37.190   6.753
 8104POPC   C3B40737   0.445  37.159   7.053
 8104POPC   C4B40738   0.380  37.110   7.353
 8105POPC   NC340739  43.852  29.943   5.553
 8105POPC   PO440740  43.936  29.893   5.853
 8105POPC   GL140741  43.853  29.954   6.153
 8105POPC   GL240742  43.887  29.752   6.153
 8105POPC   C1A40743  43.900  29.968   6.453
 8105POPC   D2A40744  43.868  29.891   6.753
 8105POPC   C3A40745  43.910  29.914   7.053
 8105POPC   C4A40746  43.928  29.892   7.353
 8105POPC   C1B40747  43.829  29.715   6.453
 8105POPC   C2B40748  43.843  29.637   6.753
 8105POPC   C3B40749  43.835  29.720   7.053
 8105POPC   C4B40750  43.778  29.696   7.353
 8106POPC   NC340751  41.579  38.432   5.553
 8106POPC   PO440752  41.592  38.408   5.853
 8106POPC   GL140753  41.559  38.485   6.153
 8106POPC   GL240754  41.584  38.567   6.153
 8106POPC   C1A40755  41.586  38.467   6.453
 8106POPC   D2A40756  41.524  38.492   6.753
 8106POPC   C3A40757  41.567  38.481   7.053
 8106POPC   C4A40758  41.577  38.482   7.353
 8106POPC   C1B40759  41.576  38.687   6.453
 8106POPC   C2B40760  41.517  38.704   6.753
 8106POPC   C3B40761  41.542  38.702   7.053
 8106POPC   C4B40762  41.533  38.736   7.353
 8107POPC   NC340763  31.514  13.655   5.553
 8107POPC   PO440764  31.507  13.586   5.853
 8107POPC   GL140765  31.441  13.629   6.153
 8107POPC   GL240766  31.524  13.759   6.153
 8107POPC   C1A40767  31.506  13.666   6.453
 8107POPC   D2A40768  31.428  13.655   6.753
 8107POPC   C3A40769  31.518  13.614   7.053
 8107POPC   C4A40770  31.512  13.652   7.353
 8107POPC   C1B40771  31.607  13.816   6.453
 8107POPC   C2B40772  31.607  13.793   6.753
 8107POPC   C3B40773  31.591  13.800   7.053
 8107POPC   C4B40774  31.659  13.855   7.353
 8108POPC   NC340775   0.401  43.840   5.553
 8108POPC   PO440776   0.468  43.855   5.853
 8108POPC   GL140777   0.452  43.845   6.153
 8108POPC   GL240778   0.356  43.943   6.153
 8108POPC   C1A40779   0.420  43.849   6.453
 8108POPC   D2A40780   0.447  43.895   6.753
 8108POPC   C3A40781   0.433  43.924   7.053
 8108POPC   C4A40782   0.465  43.904   7.353
 8108POPC   C1B40783   0.212  43.920   6.453
 8108POPC   C2B40784   0.187  43.923   6.753
 8108POPC   C3B40785   0.159  43.950   7.053
 8108POPC   C4B40786   0.207  43.992   7.353
 8109POPC   NC340787  13.636  19.024   5.553
 8109POPC   PO440788  13.644  19.076   5.853
 8109POPC   GL140789  13.653  19.102   6.153
 8109POPC   GL240790  13.726  18.965   6.153
 8109POPC   C1A40791  13.640  19.070   6.453
 8109POPC   D2A40792  13.641  19.028   6.753
 8109POPC   C3A40793  13.670  19.086   7.053
 8109POPC   C4A40794  13.584  19.053   7.353
 8109POPC   C1B40795  13.708  18.870   6.453
 8109POPC   C2B40796  13.693  18.851   6.753
 8109POPC   C3B40797  13.731  18.813   7.053
 8109POPC   C4B40798  13.765  18.852   7.353
 8110POPC   NC340799  11.343   4.316   5.553
 8110POPC   PO440800  11.281   4.276   5.853
 8110POPC   GL140801  11.326   4.314   6.153
 8110POPC   GL240802  11.383   4.390   6.153
 8110POPC   C1A40803  11.291   4.303   6.453
 8110POPC   D2A40804  11.325   4.326   6.753
 8110POPC   C3A40805  11.332   4.276   7.053
 8110POPC   C4A40806  11.326   4.329   7.353
 8110POPC   C1B40807  11.523   4.427   6.453
 8110POPC   C2B40808  11.555   4.380   6.753
 8110POPC   C3B40809  11.530   4.365   7.053
 8110POPC   C4B40810  11.502   4.434   7.353
 8111POPC   NC340811  36.098   0.415   5.553
 8111POPC   PO440812  36.142   0.415   5.853
 8111POPC   GL140813  36.123   0.392   6.153
 8111POPC   GL240814  36.199   0.283   6.153
 8111POPC   C1A40815  36.153   0.395   6.453
 8111POPC   D2A40816  36.115   0.394   6.753
 8111POPC   C3A40817  36.143   0.454   7.053
 8111POPC   C4A40818  36.127   0.463   7.353
 8111POPC   C1B40819  36.222   0.233   6.453
 8111POPC   C2B40820  36.218   0.212   6.753
 8111POPC   C3B40821  36.231   0.238   7.053
 8111POPC   C4B40822  36.201   0.238   7.353
 8112POPC   NC340823  11.295  40.743   5.553
 8112POPC   PO440824  11.300  40.754   5.853
 8112POPC   GL140825  11.255  40.777   6.153
 8112POPC   GL240826  11.197  40.893   6.153
 8112POPC   C1A40827  11.320  40.758   6.453
 8112POPC   D2A40828  11.282  40.817   6.753
 8112POPC   C3A40829  11.320  40.744   7.053
 8112POPC   C4A40830  11.260  40.779   7.353
 8112POPC   C1B40831  11.137  40.931   6.453
 8112POPC   C2B40832  11.091  40.982   6.753
 8112POPC   C3B40833  11.102  40.922   7.053
 8112POPC   C4B40834  11.073  40.945   7.353
 8113POPC   NC340835  26.804  15.988   5.553
 8113POPC   PO440836  26.790  15.982   5.853
 8113POPC   GL140837  26.839  15.935   6.153
 8113POPC   GL240838  26.691  16.042   6.153
 8113POPC   C1A40839  26.793  15.997   6.453
 8113POPC   D2A40840  26.851  15.958   6.753
 8113POPC   C3A40841  26.812  15.907   7.053
 8113POPC   C4A40842  26.798  15.983   7.353
 8113POPC   C1B40843  26.570  16.070   6.453
 8113POPC   C2B40844  26.583  16.026   6.753
 8113POPC   C3B40845  26.565  16.092   7.053
 8113POPC   C4B40846  26.567  16.046   7.353
 8114POPC   NC340847  12.871  11.285   5.553
 8114POPC   PO440848  12.814  11.270   5.853
 8114POPC   GL140849  12.810  11.295   6.153
 8114POPC   GL240850  12.983  11.363   6.153
 8114POPC   C1A40851  12.894  11.309   6.453
 8114POPC   D2A40852  12.859  11.339   6.753
 8114POPC   C3A40853  12.863  11.285   7.053
 8114POPC   C4A40854  12.834  11.258   7.353
 8114POPC   C1B40855  13.062  11.441   6.453
 8114POPC   C2B40856  13.120  11.458   6.753
 8114POPC   C3B40857  13.113  11.446   7.053
 8114POPC   C4B40858  13.052  11.374   7.353
 8115POPC   NC340859  19.084  43.867   5.553
 8115POPC   PO440860  19.069  43.849   5.853
 8115POPC   GL140861  19.058  43.878   6.153
 8115POPC   GL240862  19.129  43.961   6.153
 8115POPC   C1A40863  19.080  43.880   6.453
 8115POPC   D2A40864  19.107  43.860   6.753
 8115POPC   C3A40865  19.055  43.915   7.053
 8115POPC   C4A40866  19.035  43.846   7.353
 8115POPC   C1B40867  19.155  44.175   6.453
 8115POPC   C2B40868  19.117  44.084   6.753
 8115POPC   C3B40869  19.091  44.118   7.053
 8115POPC   C4B40870  19.137  44.115   7.353
 8116POPC   NC340871  41.597  35.373   5.553
 8116POPC   PO440872  41.513  35.314   5.853
 8116POPC   GL140873  41.514  35.327   6.153
 8116POPC   GL240874  41.712  35.385   6.153
 8116POPC   C1A40875  41.548  35.346   6.453
 8116POPC   D2A40876  41.520  35.346   6.753
 8116POPC   C3A40877  41.588  35.336   7.053
 8116POPC   C4A40878  41.547  35.401   7.353
 8116POPC   C1B40879  41.792  35.462   6.453
 8116POPC   C2B40880  41.748  35.479   6.753
 8116POPC   C3B40881  41.735  35.508   7.053
 8116POPC   C4B40882  41.735  35.484   7.353
 8117POPC   NC340883  38.470  34.575   5.553
 8117POPC   PO440884  38.438  34.554   5.853
 8117POPC   GL140885  38.424  34.560   6.153
 8117POPC   GL240886  38.480  34.645   6.153
 8117POPC   C1A40887  38.417  34.590   6.453
 8117POPC   D2A40888  38.407  34.618   6.753
 8117POPC   C3A40889  38.464  34.606   7.053
 8117POPC   C4A40890  38.426  34.528   7.353
 8117POPC   C1B40891  38.571  34.787   6.453
 8117POPC   C2B40892  38.509  34.840   6.753
 8117POPC   C3B40893  38.538  34.793   7.053
 8117POPC   C4B40894  38.581  34.854   7.353
 8118POPC   NC340895  22.169   5.890   5.553
 8118POPC   PO440896  22.175   5.856   5.853
 8118POPC   GL140897  22.194   5.907   6.153
 8118POPC   GL240898  22.260   5.922   6.153
 8118POPC   C1A40899  22.128   5.824   6.453
 8118POPC   D2A40900  22.195   5.830   6.753
 8118POPC   C3A40901  22.154   5.887   7.053
 8118POPC   C4A40902  22.169   5.884   7.353
 8118POPC   C1B40903  22.344   5.986   6.453
 8118POPC   C2B40904  22.413   5.979   6.753
 8118POPC   C3B40905  22.373   6.042   7.053
 8118POPC   C4B40906  22.342   5.978   7.353
 8119POPC   NC340907  28.387  15.179   5.553
 8119POPC   PO440908  28.370  15.211   5.853
 8119POPC   GL140909  28.342  15.195   6.153
 8119POPC   GL240910  28.470  15.287   6.153
 8119POPC   C1A40911  28.355  15.182   6.453
 8119POPC   D2A40912  28.344  15.209   6.753
 8119POPC   C3A40913  28.354  15.178   7.053
 8119POPC   C4A40914  28.361  15.183   7.353
 8119POPC   C1B40915  28.566  15.350   6.453
 8119POPC   C2B40916  28.551  15.288   6.753
 8119POPC   C3B40917  28.595  15.334   7.053
 8119POPC   C4B40918  28.538  15.274   7.353
 8120POPC   NC340919  34.595  43.839   5.553
 8120POPC   PO440920  34.531  43.915   5.853
 8120POPC   GL140921  34.574  43.851   6.153
 8120POPC   GL240922  34.685  43.826   6.153
 8120POPC   C1A40923  34.610  43.869   6.453
 8120POPC   D2A40924  34.576  43.925   6.753
 8120POPC   C3A40925  34.556  43.888   7.053
 8120POPC   C4A40926  34.558  43.933   7.353
 8120POPC   C1B40927  34.703  43.672   6.453
 8120POPC   C2B40928  34.714  43.673   6.753
 8120POPC   C3B40929  34.753  43.660   7.053
 8120POPC   C4B40930  34.701  43.712   7.353
 8121POPC   NC340931  24.520  36.903   5.553
 8121POPC   PO440932  24.491  36.883   5.853
 8121POPC   GL140933  24.476  36.953   6.153
 8121POPC   GL240934  24.517  36.757   6.153
 8121POPC   C1A40935  24.458  36.903   6.453
 8121POPC   D2A40936  24.465  36.919   6.753
 8121POPC   C3A40937  24.455  36.865   7.053
 8121POPC   C4A40938  24.462  36.878   7.353
 8121POPC   C1B40939  24.624  36.697   6.453
 8121POPC   C2B40940  24.596  36.654   6.753
 8121POPC   C3B40941  24.634  36.713   7.053
 8121POPC   C4B40942  24.638  36.748   7.353
 8122POPC   NC340943  41.587  36.901   5.553
 8122POPC   PO440944  41.604  36.933   5.853
 8122POPC   GL140945  41.582  36.948   6.153
 8122POPC   GL240946  41.687  36.907   6.153
 8122POPC   C1A40947  41.513  36.894   6.453
 8122POPC   D2A40948  41.541  36.855   6.753
 8122POPC   C3A40949  41.546  36.911   7.053
 8122POPC   C4A40950  41.599  36.872   7.353
 8122POPC   C1B40951  41.799  36.836   6.453
 8122POPC   C2B40952  41.823  36.792   6.753
 8122POPC   C3B40953  41.762  36.836   7.053
 8122POPC   C4B40954  41.777  36.840   7.353
 8123POPC   NC340955   4.347  25.221   5.553
 8123POPC   PO440956   4.299  25.299   5.853
 8123POPC   GL140957   4.269  25.236   6.153
 8123POPC   GL240958   4.340  25.384   6.153
 8123POPC   C1A40959   4.361  25.253   6.453
 8123POPC   D2A40960   4.311  25.273   6.753
 8123POPC   C3A40961   4.285  25.303   7.053
 8123POPC   C4A40962   4.365  25.217   7.353
 8123POPC   C1B40963   4.443  25.446   6.453
 8123POPC   C2B40964   4.465  25.455   6.753
 8123POPC   C3B40965   4.481  25.488   7.053
 8123POPC   C4B40966   4.482  25.430   7.353
 8124POPC   NC340967  28.343  11.266   5.553
 8124POPC   PO440968  28.373  11.287   5.853
 8124POPC   GL140969  28.416  11.291   6.153
 8124POPC   GL240970  28.448  11.303   6.153
 8124POPC   C1A40971  28.411  11.341   6.453
 8124POPC   D2A40972  28.338  11.278   6.753
 8124POPC   C3A40973  28.339  11.296   7.053
 8124POPC   C4A40974  28.419  11.303   7.353
 8124POPC   C1B40975  28.628  11.266   6.453
 8124POPC   C2B40976  28.640  11.330   6.753
 8124POPC   C3B40977  28.626  11.335   7.053
 8124POPC   C4B40978  28.600  11.309   7.353
 8125POPC   NC340979   8.961   2.008   5.553
 8125POPC   PO440980   9.021   2.037   5.853
 8125POPC   GL140981   8.955   1.984   6.153
 8125POPC   GL240982   9.051   2.071   6.153
 8125POPC   C1A40983   8.955   2.032   6.453
 8125POPC   D2A40984   8.957   1.944   6.753
 8125POPC   C3A40985   8.981   2.010   7.053
 8125POPC   C4A40986   9.003   2.033   7.353
 8125POPC   C1B40987   9.156   2.122   6.453
 8125POPC   C2B40988   9.204   2.076   6.753
 8125POPC   C3B40989   9.166   2.106   7.053
 8125POPC   C4B40990   9.206   2.145   7.353
 8126POPC   NC340991  12.123  19.081   5.553
 8126POPC   PO440992  12.034  19.009   5.853
 8126POPC   GL140993  12.108  19.102   6.153
 8126POPC   GL240994  12.249  19.035   6.153
 8126POPC   C1A40995  12.071  19.040   6.453
 8126POPC   D2A40996  12.115  19.073   6.753
 8126POPC   C3A40997  12.059  19.037   7.053
 8126POPC   C4A40998  12.045  19.015   7.353
 8126POPC   C1B40999  12.313  19.113   6.453
 8126POPC   C2B41000  12.309  19.112   6.753
 8126POPC   C3B41001  12.324  19.128   7.053
 8126POPC   C4B41002  12.322  19.056   7.353
 8127POPC   NC341003  41.536  43.852   5.553
 8127POPC   PO441004  41.538  43.866   5.853
 8127POPC   GL141005  41.543  43.856   6.153
 8127POPC   GL241006  41.673  43.836   6.153
 8127POPC   C1A41007  41.535  43.867   6.453
 8127POPC   D2A41008  41.543  43.893   6.753
 8127POPC   C3A41009  41.579  43.906   7.053
 8127POPC   C4A41010  41.594  43.904   7.353
 8127POPC   C1B41011  41.718  43.729   6.453
 8127POPC   C2B41012  41.785  43.682   6.753
 8127POPC   C3B41013  41.747  43.750   7.053
 8127POPC   C4B41014  41.757  43.719   7.353
 8128POPC   NC341015  35.376  20.599   5.553
 8128POPC   PO441016  35.371  20.648   5.853
 8128POPC   GL141017  35.328  20.657   6.153
 8128POPC   GL241018  35.369  20.515   6.153
 8128POPC   C1A41019  35.311  20.623   6.453
 8128POPC   D2A41020  35.398  20.632   6.753
 8128POPC   C3A41021  35.362  20.586   7.053
 8128POPC   C4A41022  35.378  20.597   7.353
 8128POPC   C1B41023  35.402  20.342   6.453
 8128POPC   C2B41024  35.451  20.356   6.753
 8128POPC   C3B41025  35.361  20.323   7.053
 8128POPC   C4B41026  35.357  20.411   7.353
 8129POPC   NC341027  11.330  27.587   5.553
 8129POPC   PO441028  11.288  27.598   5.853
 8129POPC   GL141029  11.309  27.575   6.153
 8129POPC   GL241030  11.408  27.487   6.153
 8129POPC   C1A41031  11.329  27.638   6.453
 8129POPC   D2A41032  11.336  27.560   6.753
 8129POPC   C3A41033  11.345  27.633   7.053
 8129POPC   C4A41034  11.327  27.580   7.353
 8129POPC   C1B41035  11.492  27.420   6.453
 8129POPC   C2B41036  11.496  27.424   6.753
 8129POPC   C3B41037  11.532  27.501   7.053
 8129POPC   C4B41038  11.565  27.482   7.353
 8130POPC   NC341039  26.061  36.124   5.553
 8130POPC   PO441040  26.030  36.119   5.853
 8130POPC   GL141041  26.017  36.143   6.153
 8130POPC   GL241042  26.151  36.153   6.153
 8130POPC   C1A41043  26.065  36.114   6.453
 8130POPC   D2A41044  26.026  36.099   6.753
 8130POPC   C3A41045  25.993  36.147   7.053
 8130POPC   C4A41046  26.028  36.083   7.353
 8130POPC   C1B41047  26.267  36.267   6.453
 8130POPC   C2B41048  26.225  36.224   6.753
 8130POPC   C3B41049  26.234  36.269   7.053
 8130POPC   C4B41050  26.254  36.218   7.353
 8131POPC   NC341051  39.274  26.768   5.553
 8131POPC   PO441052  39.251  26.845   5.853
 8131POPC   GL141053  39.231  26.769   6.153
 8131POPC   GL241054  39.128  26.856   6.153
 8131POPC   C1A41055  39.192  26.802   6.453
 8131POPC   D2A41056  39.204  26.830   6.753
 8131POPC   C3A41057  39.226  26.790   7.053
 8131POPC   C4A41058  39.276  26.828   7.353
 8131POPC   C1B41059  39.053  26.980   6.453
 8131POPC   C2B41060  39.034  26.973   6.753
 8131POPC   C3B41061  38.971  26.947   7.053
 8131POPC   C4B41062  39.055  26.948   7.353
 8132POPC   NC341063   0.486   5.100   5.553
 8132POPC   PO441064   0.399   5.094   5.853
 8132POPC   GL141065   0.393   5.063   6.153
 8132POPC   GL241066   0.292   5.004   6.153
 8132POPC   C1A41067   0.458   5.137   6.453
 8132POPC   D2A41068   0.396   5.064   6.753
 8132POPC   C3A41069   0.443   5.092   7.053
 8132POPC   C4A41070   0.440   5.073   7.353
 8132POPC   C1B41071   0.234   4.958   6.453
 8132POPC   C2B41072   0.207   4.980   6.753
 8132POPC   C3B41073   0.235   4.997   7.053
 8132POPC   C4B41074   0.241   4.906   7.353
 8133POPC   NC341075  30.657  26.003   5.553
 8133POPC   PO441076  30.676  26.074   5.853
 8133POPC   GL141077  30.710  26.032   6.153
 8133POPC   GL241078  30.601  26.069   6.153
 8133POPC   C1A41079  30.697  25.999   6.453
 8133POPC   D2A41080  30.693  26.089   6.753
 8133POPC   C3A41081  30.711  26.025   7.053
 8133POPC   C4A41082  30.660  26.073   7.353
 8133POPC   C1B41083  30.439  26.150   6.453
 8133POPC   C2B41084  30.424  26.130   6.753
 8133POPC   C3B41085  30.470  26.098   7.053
 8133POPC   C4B41086  30.453  26.173   7.353
 8134POPC   NC341087   1.254  33.005   5.553
 8134POPC   PO441088   1.174  33.043   5.853
 8134POPC   GL141089   1.183  33.006   6.153
 8134POPC   GL241090   1.195  33.187   6.153
 8134POPC   C1A41091   1.213  33.067   6.453
 8134POPC   D2A41092   1.171  33.072   6.753
 8134POPC   C3A41093   1.253  32.993   7.053
 8134POPC   C4A41094   1.233  32.993   7.353
 8134POPC   C1B41095   1.179  33.305   6.453
 8134POPC   C2B41096   1.207  33.280   6.753
 8134POPC   C3B41097   1.214  33.282   7.053
 8134POPC   C4B41098   1.150  33.235   7.353
 8135POPC   NC341099  19.880  43.852   5.553
 8135POPC   PO441100  19.816  43.868   5.853
 8135POPC   GL141101  19.815  43.862   6.153
 8135POPC   GL241102  19.682  43.928   6.153
 8135POPC   C1A41103  19.839  43.897   6.453
 8135POPC   D2A41104  19.842  43.847   6.753
 8135POPC   C3A41105  19.799  43.886   7.053
 8135POPC   C4A41106  19.811  43.841   7.353
 8135POPC   C1B41107  19.553  43.880   6.453
 8135POPC   C2B41108  19.596  43.959   6.753
 8135POPC   C3B41109  19.555  43.884   7.053
 8135POPC   C4B41110  19.561  43.891   7.353
 8136POPC   NC341111  15.199  29.130   5.553
 8136POPC   PO441112  15.197  29.186   5.853
 8136POPC   GL141113  15.158  29.105   6.153
 8136POPC   GL241114  15.331  29.038   6.153
 8136POPC   C1A41115  15.174  29.099   6.453
 8136POPC   D2A41116  15.186  29.173   6.753
 8136POPC   C3A41117  15.189  29.101   7.053
 8136POPC   C4A41118  15.184  29.138   7.353
 8136POPC   C1B41119  15.421  29.042   6.453
 8136POPC   C2B41120  15.376  29.060   6.753
 8136POPC   C3B41121  15.346  28.999   7.053
 8136POPC   C4B41122  15.359  29.063   7.353
 8137POPC   NC341123  21.420  32.291   5.553
 8137POPC   PO441124  21.340  32.205   5.853
 8137POPC   GL141125  21.423  32.269   6.153
 8137POPC   GL241126  21.559  32.277   6.153
 8137POPC   C1A41127  21.352  32.274   6.453
 8137POPC   D2A41128  21.382  32.255   6.753
 8137POPC   C3A41129  21.409  32.218   7.053
 8137POPC   C4A41130  21.385  32.248   7.353
 8137POPC   C1B41131  21.671  32.247   6.453
 8137POPC   C2B41132  21.624  32.217   6.753
 8137POPC   C3B41133  21.601  32.310   7.053
 8137POPC   C4B41134  21.613  32.241   7.353
 8138POPC   NC341135  40.775   3.577   5.553
 8138POPC   PO441136  40.788   3.549   5.853
 8138POPC   GL141137  40.755   3.531   6.153
 8138POPC   GL241138  40.816   3.711   6.153
 8138POPC   C1A41139  40.815   3.528   6.453
 8138POPC   D2A41140  40.795   3.580   6.753
 8138POPC   C3A41141  40.746   3.565   7.053
 8138POPC   C4A41142  40.786   3.502   7.353
 8138POPC   C1B41143  40.823   3.802   6.453
 8138POPC   C2B41144  40.886   3.744   6.753
 8138POPC   C3B41145  40.853   3.784   7.053
 8138POPC   C4B41146  40.868   3.744   7.353
 8139POPC   NC341147  21.354   8.158   5.553
 8139POPC   PO441148  21.376   8.211   5.853
 8139POPC   GL141149  21.345   8.170   6.153
 8139POPC   GL241150  21.462   8.095   6.153
 8139POPC   C1A41151  21.403   8.213   6.453
 8139POPC   D2A41152  21.354   8.165   6.753
 8139POPC   C3A41153  21.434   8.182   7.053
 8139POPC   C4A41154  21.390   8.211   7.353
 8139POPC   C1B41155  21.565   8.076   6.453
 8139POPC   C2B41156  21.589   8.091   6.753
 8139POPC   C3B41157  21.654   8.091   7.053
 8139POPC   C4B41158  21.606   8.115   7.353
 8140POPC   NC341159   8.166  14.354   5.553
 8140POPC   PO441160   8.187  14.372   5.853
 8140POPC   GL141161   8.220  14.452   6.153
 8140POPC   GL241162   8.043  14.403   6.153
 8140POPC   C1A41163   8.233  14.410   6.453
 8140POPC   D2A41164   8.163  14.432   6.753
 8140POPC   C3A41165   8.191  14.408   7.053
 8140POPC   C4A41166   8.150  14.418   7.353
 8140POPC   C1B41167   7.945  14.341   6.453
 8140POPC   C2B41168   7.921  14.288   6.753
 8140POPC   C3B41169   7.924  14.340   7.053
 8140POPC   C4B41170   7.934  14.291   7.353
 8141POPC   NC341171  38.409  25.297   5.553
 8141POPC   PO441172  38.441  25.244   5.853
 8141POPC   GL141173  38.481  25.218   6.153
 8141POPC   GL241174  38.504  25.401   6.153
 8141POPC   C1A41175  38.427  25.229   6.453
 8141POPC   D2A41176  38.413  25.298   6.753
 8141POPC   C3A41177  38.477  25.219   7.053
 8141POPC   C4A41178  38.458  25.273   7.353
 8141POPC   C1B41179  38.548  25.537   6.453
 8141POPC   C2B41180  38.539  25.486   6.753
 8141POPC   C3B41181  38.582  25.453   7.053
 8141POPC   C4B41182  38.572  25.518   7.353
 8142POPC   NC341183   8.170   0.471   5.553
 8142POPC   PO441184   8.172   0.428   5.853
 8142POPC   GL141185   8.244   0.411   6.153
 8142POPC   GL241186   8.305   0.549   6.153
 8142POPC   C1A41187   8.197   0.448   6.453
 8142POPC   D2A41188   8.233   0.469   6.753
 8142POPC   C3A41189   8.149   0.413   7.053
 8142POPC   C4A41190   8.246   0.402   7.353
 8142POPC   C1B41191   8.454   0.615   6.453
 8142POPC   C2B41192   8.398   0.547   6.753
 8142POPC   C3B41193   8.363   0.538   7.053
 8142POPC   C4B41194   8.411   0.567   7.353
 8143POPC   NC341195  36.903   6.692   5.553
 8143POPC   PO441196  36.870   6.641   5.853
 8143POPC   GL141197  36.855   6.623   6.153
 8143POPC   GL241198  36.767   6.743   6.153
 8143POPC   C1A41199  36.866   6.694   6.453
 8143POPC   D2A41200  36.940   6.674   6.753
 8143POPC   C3A41201  36.949   6.625   7.053
 8143POPC   C4A41202  36.946   6.633   7.353
 8143POPC   C1B41203  36.659   6.782   6.453
 8143POPC   C2B41204  36.696   6.792   6.753
 8143POPC   C3B41205  36.657   6.758   7.053
 8143POPC   C4B41206  36.688   6.753   7.353
 8144POPC   NC341207  19.038  19.064   5.553
 8144POPC   PO441208  19.080  19.041   5.853
 8144POPC   GL141209  19.082  19.092   6.153
 8144POPC   GL241210  19.041  18.898   6.153
 8144POPC   C1A41211  19.042  19.029   6.453
 8144POPC   D2A41212  19.079  19.101   6.753
 8144POPC   C3A41213  19.077  19.064   7.053
 8144POPC   C4A41214  19.077  19.009   7.353
 8144POPC   C1B41215  19.070  18.775   6.453
 8144POPC   C2B41216  19.087  18.825   6.753
 8144POPC   C3B41217  19.013  18.781   7.053
 8144POPC   C4B41218  19.007  18.790   7.353
 8145POPC   NC341219   1.983  34.551   5.553
 8145POPC   PO441220   2.002  34.563   5.853
 8145POPC   GL141221   1.988  34.606   6.153
 8145POPC   GL241222   2.027  34.652   6.153
 8145POPC   C1A41223   1.981  34.557   6.453
 8145POPC   D2A41224   1.985  34.541   6.753
 8145POPC   C3A41225   2.019  34.570   7.053
 8145POPC   C4A41226   1.993  34.568   7.353
 8145POPC   C1B41227   2.100  34.809   6.453
 8145POPC   C2B41228   2.134  34.742   6.753
 8145POPC   C3B41229   2.142  34.815   7.053
 8145POPC   C4B41230   2.137  34.789   7.353
 8146POPC   NC341231  26.798   5.077   5.553
 8146POPC   PO441232  26.837   5.093   5.853
 8146POPC   GL141233  26.851   5.089   6.153
 8146POPC   GL241234  26.908   5.118   6.153
 8146POPC   C1A41235  26.833   5.112   6.453
 8146POPC   D2A41236  26.850   5.054   6.753
 8146POPC   C3A41237  26.837   5.140   7.053
 8146POPC   C4A41238  26.838   5.086   7.353
 8146POPC   C1B41239  27.021   5.070   6.453
 8146POPC   C2B41240  27.057   5.079   6.753
 8146POPC   C3B41241  27.060   5.120   7.053
 8146POPC   C4B41242  27.068   5.081   7.353
 8147POPC   NC341243  15.930  32.256   5.553
 8147POPC   PO441244  15.959  32.255   5.853
 8147POPC   GL141245  15.990  32.282   6.153
 8147POPC   GL241246  15.900  32.300   6.153
 8147POPC   C1A41247  15.927  32.294   6.453
 8147POPC   D2A41248  15.913  32.298   6.753
 8147POPC   C3A41249  15.973  32.202   7.053
 8147POPC   C4A41250  15.957  32.255   7.353
 8147POPC   C1B41251  15.846  32.405   6.453
 8147POPC   C2B41252  15.822  32.481   6.753
 8147POPC   C3B41253  15.776  32.419   7.053
 8147POPC   C4B41254  15.813  32.451   7.353
 8148POPC   NC341255  37.700  43.926   5.553
 8148POPC   PO441256  37.695  43.874   5.853
 8148POPC   GL141257  37.638  43.855   6.153
 8148POPC   GL241258  37.759  43.975   6.153
 8148POPC   C1A41259  37.710  43.880   6.453
 8148POPC   D2A41260  37.653  43.877   6.753
 8148POPC   C3A41261  37.710  43.928   7.053
 8148POPC   C4A41262  37.684  43.894   7.353
 8148POPC   C1B41263  37.768  44.136   6.453
 8148POPC   C2B41264  37.767  44.085   6.753
 8148POPC   C3B41265  37.785  44.070   7.053
 8148POPC   C4B41266  37.746  44.094   7.353
 8149POPC   NC341267   8.991  16.689   5.553
 8149POPC   PO441268   8.956  16.781   5.853
 8149POPC   GL141269   8.946  16.729   6.153
 8149POPC   GL241270   8.814  16.795   6.153
 8149POPC   C1A41271   8.934  16.725   6.453
 8149POPC   D2A41272   8.923  16.685   6.753
 8149POPC   C3A41273   8.963  16.682   7.053
 8149POPC   C4A41274   8.931  16.708   7.353
 8149POPC   C1B41275   8.774  16.863   6.453
 8149POPC   C2B41276   8.746  16.901   6.753
 8149POPC   C3B41277   8.728  16.810   7.053
 8149POPC   C4B41278   8.744  16.852   7.353
 8150POPC   NC341279  26.834  12.828   5.553
 8150POPC   PO441280  26.842  12.887   5.853
 8150POPC   GL141281  26.849  12.838   6.153
 8150POPC   GL241282  26.670  12.808   6.153
 8150POPC   C1A41283  26.802  12.877   6.453
 8150POPC   D2A41284  26.815  12.871   6.753
 8150POPC   C3A41285  26.864  12.823   7.053
 8150POPC   C4A41286  26.806  12.854   7.353
 8150POPC   C1B41287  26.619  12.771   6.453
 8150POPC   C2B41288  26.587  12.746   6.753
 8150POPC   C3B41289  26.589  12.745   7.053
 8150POPC   C4B41290  26.560  12.805   7.353
 8151POPC   NC341291  29.920  27.612   5.553
 8151POPC   PO441292  29.908  27.581   5.853
 8151POPC   GL141293  29.911  27.562   6.153
 8151POPC   GL241294  30.080  27.573   6.153
 8151POPC   C1A41295  29.961  27.549   6.453
 8151POPC   D2A41296  29.951  27.584   6.753
 8151POPC   C3A41297  29.943  27.586   7.053
 8151POPC   C4A41298  29.925  27.617   7.353
 8151POPC   C1B41299  30.173  27.584   6.453
 8151POPC   C2B41300  30.204  27.577   6.753
 8151POPC   C3B41301  30.129  27.589   7.053
 8151POPC   C4B41302  30.204  27.566   7.353
 8152POPC   NC341303  17.508   5.897   5.553
 8152POPC   PO441304  17.459   5.877   5.853
 8152POPC   GL141305  17.512   5.828   6.153
 8152POPC   GL241306  17.416   5.945   6.153
 8152POPC   C1A41307  17.516   5.907   6.453
 8152POPC   D2A41308  17.462   5.905   6.753
 8152POPC   C3A41309  17.556   5.839   7.053
 8152POPC   C4A41310  17.511   5.836   7.353
 8152POPC   C1B41311  17.237   5.962   6.453
 8152POPC   C2B41312  17.271   5.952   6.753
 8152POPC   C3B41313  17.235   5.990   7.053
 8152POPC   C4B41314  17.260   5.917   7.353
 8153POPC   NC341315  19.017   4.349   5.553
 8153POPC   PO441316  19.106   4.340   5.853
 8153POPC   GL141317  19.103   4.357   6.153
 8153POPC   GL241318  19.178   4.294   6.153
 8153POPC   C1A41319  19.032   4.355   6.453
 8153POPC   D2A41320  19.013   4.320   6.753
 8153POPC   C3A41321  19.101   4.271   7.053
 8153POPC   C4A41322  19.085   4.340   7.353
 8153POPC   C1B41323  19.343   4.391   6.453
 8153POPC   C2B41324  19.273   4.386   6.753
 8153POPC   C3B41325  19.339   4.345   7.053
 8153POPC   C4B41326  19.296   4.330   7.353
 8154POPC   NC341327   5.883  34.553   5.553
 8154POPC   PO441328   5.865  34.539   5.853
 8154POPC   GL141329   5.870  34.527   6.153
 8154POPC   GL241330   5.812  34.736   6.153
 8154POPC   C1A41331   5.870  34.618   6.453
 8154POPC   D2A41332   5.820  34.594   6.753
 8154POPC   C3A41333   5.848  34.605   7.053
 8154POPC   C4A41334   5.821  34.536   7.353
 8154POPC   C1B41335   5.823  34.819   6.453
 8154POPC   C2B41336   5.844  34.822   6.753
 8154POPC   C3B41337   5.838  34.826   7.053
 8154POPC   C4B41338   5.859  34.791   7.353
 8155POPC   NC341339  36.084  30.665   5.553
 8155POPC   PO441340  36.164  30.697   5.853
 8155POPC   GL141341  36.137  30.732   6.153
 8155POPC   GL241342  36.033  30.657   6.153
 8155POPC   C1A41343  36.153  30.661   6.453
 8155POPC   D2A41344  36.114  30.722   6.753
 8155POPC   C3A41345  36.143  30.674   7.053
 8155POPC   C4A41346  36.086  30.741   7.353
 8155POPC   C1B41347  35.873  30.638   6.453
 8155POPC   C2B41348  35.856  30.668   6.753
 8155POPC   C3B41349  35.856  30.668   7.053
 8155POPC   C4B41350  35.905  30.677   7.353
 8156POPC   NC341351  30.707  10.527   5.553
 8156POPC   PO441352  30.689  10.542   5.853
 8156POPC   GL141353  30.720  10.550   6.153
 8156POPC   GL241354  30.746  10.400   6.153
 8156POPC   C1A41355  30.718  10.487   6.453
 8156POPC   D2A41356  30.692  10.558   6.753
 8156POPC   C3A41357  30.714  10.481   7.053
 8156POPC   C4A41358  30.721  10.501   7.353
 8156POPC   C1B41359  30.728  10.284   6.453
 8156POPC   C2B41360  30.762  10.247   6.753
 8156POPC   C3B41361  30.804  10.295   7.053
 8156POPC   C4B41362  30.732  10.312   7.353
 8157POPC   NC341363   1.192  39.206   5.553
 8157POPC   PO441364   1.260  39.215   5.853
 8157POPC   GL141365   1.220  39.219   6.153
 8157POPC   GL241366   1.284  39.142   6.153
 8157POPC   C1A41367   1.169  39.256   6.453
 8157POPC   D2A41368   1.256  39.214   6.753
 8157POPC   C3A41369   1.253  39.199   7.053
 8157POPC   C4A41370   1.234  39.185   7.353
 8157POPC   C1B41371   1.369  39.060   6.453
 8157POPC   C2B41372   1.428  39.108   6.753
 8157POPC   C3B41373   1.457  39.078   7.053
 8157POPC   C4B41374   1.401  39.071   7.353
 8158POPC   NC341375  36.871  36.855   5.553
 8158POPC   PO441376  36.863  36.862   5.853
 8158POPC   GL141377  36.881  36.918   6.153
 8158POPC   GL241378  36.870  36.796   6.153
 8158POPC   C1A41379  36.935  36.928   6.453
 8158POPC   D2A41380  36.898  36.933   6.753
 8158POPC   C3A41381  36.867  36.937   7.053
 8158POPC   C4A41382  36.917  36.945   7.353
 8158POPC   C1B41383  36.831  36.655   6.453
 8158POPC   C2B41384  36.840  36.710   6.753
 8158POPC   C3B41385  36.870  36.660   7.053
 8158POPC   C4B41386  36.792  36.658   7.353
 8159POPC   NC341387  29.153  43.158   5.553
 8159POPC   PO441388  29.164  43.097   5.853
 8159POPC   GL141389  29.112  43.146   6.153
 8159POPC   GL241390  29.158  42.959   6.153
 8159POPC   C1A41391  29.154  43.107   6.453
 8159POPC   D2A41392  29.164  43.131   6.753
 8159POPC   C3A41393  29.194  43.077   7.053
 8159POPC   C4A41394  29.155  43.075   7.353
 8159POPC   C1B41395  29.099  42.834   6.453
 8159POPC   C2B41396  29.126  42.833   6.753
 8159POPC   C3B41397  29.164  42.817   7.053
 8159POPC   C4B41398  29.173  42.876   7.353
 8160POPC   NC341399  22.958  21.417   5.553
 8160POPC   PO441400  22.979  21.347   5.853
 8160POPC   GL141401  22.983  21.426   6.153
 8160POPC   GL241402  23.069  21.425   6.153
 8160POPC   C1A41403  22.959  21.412   6.453
 8160POPC   D2A41404  22.963  21.359   6.753
 8160POPC   C3A41405  22.984  21.428   7.053
 8160POPC   C4A41406  22.963  21.412   7.353
 8160POPC   C1B41407  23.212  21.410   6.453
 8160POPC   C2B41408  23.156  21.432   6.753
 8160POPC   C3B41409  23.210  21.422   7.053
 8160POPC   C4B41410  23.226  21.434   7.353
 8161POPC   NC341411  30.722  22.900   5.553
 8161POPC   PO441412  30.675  22.964   5.853
 8161POPC   GL141413  30.661  22.964   6.153
 8161POPC   GL241414  30.757  22.883   6.153
 8161POPC   C1A41415  30.680  22.972   6.453
 8161POPC   D2A41416  30.672  22.913   6.753
 8161POPC   C3A41417  30.729  22.968   7.053
 8161POPC   C4A41418  30.658  22.948   7.353
 8161POPC   C1B41419  30.850  22.757   6.453
 8161POPC   C2B41420  30.859  22.700   6.753
 8161POPC   C3B41421  30.829  22.754   7.053
 8161POPC   C4B41422  30.852  22.741   7.353
 8162POPC   NC341423  19.044  39.231   5.553
 8162POPC   PO441424  19.071  39.185   5.853
 8162POPC   GL141425  19.078  39.182   6.153
 8162POPC   GL241426  18.990  39.117   6.153
 8162POPC   C1A41427  19.081  39.185   6.453
 8162POPC   D2A41428  19.101  39.189   6.753
 8162POPC   C3A41429  19.056  39.203   7.053
 8162POPC   C4A41430  19.040  39.191   7.353
 8162POPC   C1B41431  18.812  39.111   6.453
 8162POPC   C2B41432  18.843  39.061   6.753
 8162POPC   C3B41433  18.807  39.046   7.053
 8162POPC   C4B41434  18.849  39.111   7.353
 8163POPC   NC341435  13.632   4.273   5.553
 8163POPC   PO441436  13.675   4.303   5.853
 8163POPC   GL141437  13.628   4.343   6.153
 8163POPC   GL241438  13.592   4.451   6.153
 8163POPC   C1A41439  13.643   4.272   6.453
 8163POPC   D2A41440  13.598   4.340   6.753
 8163POPC   C3A41441  13.615   4.355   7.053
 8163POPC   C4A41442  13.604   4.324   7.353
 8163POPC   C1B41443  13.498   4.546   6.453
 8163POPC   C2B41444  13.452   4.498   6.753
 8163POPC   C3B41445  13.523   4.511   7.053
 8163POPC   C4B41446  13.488   4.535   7.353
 8164POPC   NC341447   4.274   5.062   5.553
 8164POPC   PO441448   4.302   5.051   5.853
 8164POPC   GL141449   4.276   5.098   6.153
 8164POPC   GL241450   4.433   4.988   6.153
 8164POPC   C1A41451   4.328   5.044   6.453
 8164POPC   D2A41452   4.317   5.111   6.753
 8164POPC   C3A41453   4.295   5.068   7.053
 8164POPC   C4A41454   4.309   5.076   7.353
 8164POPC   C1B41455   4.438   4.901   6.453
 8164POPC   C2B41456   4.451   4.881   6.753
 8164POPC   C3B41457   4.415   4.927   7.053
 8164POPC   C4B41458   4.435   4.894   7.353
 8165POPC   NC341459  44.658  19.859   5.553
 8165POPC   PO441460  44.652  19.817   5.853
 8165POPC   GL141461  44.654  19.847   6.153
 8165POPC   GL241462  44.668  19.978   6.153
 8165POPC   C1A41463  44.660  19.830   6.453
 8165POPC   D2A41464  44.616  19.792   6.753
 8165POPC   C3A41465  44.711  19.865   7.053
 8165POPC   C4A41466  44.655  19.841   7.353
 8165POPC   C1B41467  44.641  20.076   6.453
 8165POPC   C2B41468  44.632  20.042   6.753
 8165POPC   C3B41469  44.666  20.094   7.053
 8165POPC   C4B41470  44.677  20.125   7.353
 8166POPC   NC341471  31.452  30.664   5.553
 8166POPC   PO441472  31.513  30.673   5.853
 8166POPC   GL141473  31.464  30.717   6.153
 8166POPC   GL241474  31.471  30.612   6.153
 8166POPC   C1A41475  31.423  30.700   6.453
 8166POPC   D2A41476  31.493  30.731   6.753
 8166POPC   C3A41477  31.521  30.663   7.053
 8166POPC   C4A41478  31.494  30.647   7.353
 8166POPC   C1B41479  31.476  30.499   6.453
 8166POPC   C2B41480  31.490  30.457   6.753
 8166POPC   C3B41481  31.478  30.497   7.053
 8166POPC   C4B41482  31.511  30.449   7.353
 8167POPC   NC341483  22.899  19.105   5.553
 8167POPC   PO441484  22.984  19.014   5.853
 8167POPC   GL141485  22.953  19.051   6.153
 8167POPC   GL241486  22.781  19.005   6.153
 8167POPC   C1A41487  22.970  19.066   6.453
 8167POPC   D2A41488  22.948  19.035   6.753
 8167POPC   C3A41489  22.973  19.101   7.053
 8167POPC   C4A41490  22.911  19.022   7.353
 8167POPC   C1B41491  22.757  18.917   6.453
 8167POPC   C2B41492  22.741  18.995   6.753
 8167POPC   C3B41493  22.685  18.986   7.053
 8167POPC   C4B41494  22.726  18.995   7.353
 8168POPC   NC341495   6.678  22.897   5.553
 8168POPC   PO441496   6.648  22.948   5.853
 8168POPC   GL141497   6.651  22.904   6.153
 8168POPC   GL241498   6.744  23.016   6.153
 8168POPC   C1A41499   6.670  22.984   6.453
 8168POPC   D2A41500   6.652  22.987   6.753
 8168POPC   C3A41501   6.631  22.896   7.053
 8168POPC   C4A41502   6.627  22.916   7.353
 8168POPC   C1B41503   6.855  23.070   6.453
 8168POPC   C2B41504   6.814  23.096   6.753
 8168POPC   C3B41505   6.804  23.113   7.053
 8168POPC   C4B41506   6.857  23.141   7.353
 8169POPC   NC341507  36.910  42.381   5.553
 8169POPC   PO441508  36.885  42.365   5.853
 8169POPC   GL141509  36.900  42.342   6.153
 8169POPC   GL241510  36.769  42.301   6.153
 8169POPC   C1A41511  36.892  42.353   6.453
 8169POPC   D2A41512  36.885  42.314   6.753
 8169POPC   C3A41513  36.945  42.302   7.053
 8169POPC   C4A41514  36.908  42.314   7.353
 8169POPC   C1B41515  36.686  42.336   6.453
 8169POPC   C2B41516  36.687  42.400   6.753
 8169POPC   C3B41517  36.680  42.338   7.053
 8169POPC   C4B41518  36.654  42.362   7.353
 8170POPC   NC341519   7.415  10.487   5.553
 8170POPC   PO441520   7.433  10.566   5.853
 8170POPC   GL141521   7.385  10.563   6.153
 8170POPC   GL241522   7.273  10.420   6.153
 8170POPC   C1A41523   7.450  10.565   6.453
 8170POPC   D2A41524   7.436  10.525   6.753
 8170POPC   C3A41525   7.467  10.494   7.053
 8170POPC   C4A41526   7.442  10.519   7.353
 8170POPC   C1B41527   7.228  10.404   6.453
 8170POPC   C2B41528   7.237  10.408   6.753
 8170POPC   C3B41529   7.252  10.382   7.053
 8170POPC   C4B41530   7.176  10.386   7.353
 8171POPC   NC341531   5.863  36.109   5.553
 8171POPC   PO441532   5.882  36.106   5.853
 8171POPC   GL141533   5.902  36.158   6.153
 8171POPC   GL241534   5.968  36.176   6.153
 8171POPC   C1A41535   5.868  36.097   6.453
 8171POPC   D2A41536   5.872  36.131   6.753
 8171POPC   C3A41537   5.887  36.081   7.053
 8171POPC   C4A41538   5.853  36.098   7.353
 8171POPC   C1B41539   6.045  36.311   6.453
 8171POPC   C2B41540   6.032  36.286   6.753
 8171POPC   C3B41541   6.046  36.274   7.053
 8171POPC   C4B41542   6.076  36.275   7.353
 8172POPC   NC341543  29.123   5.104   5.553
 8172POPC   PO441544  29.144   5.091   5.853
 8172POPC   GL141545  29.099   5.103   6.153
 8172POPC   GL241546  29.302   5.047   6.153
 8172POPC   C1A41547  29.158   5.085   6.453
 8172POPC   D2A41548  29.128   5.111   6.753
 8172POPC   C3A41549  29.150   5.124   7.053
 8172POPC   C4A41550  29.107   5.123   7.353
 8172POPC   C1B41551  29.381   5.123   6.453
 8172POPC   C2B41552  29.375   5.116   6.753
 8172POPC   C3B41553  29.433   5.102   7.053
 8172POPC   C4B41554  29.438   5.075   7.353
 8173POPC   NC341555   3.512   8.991   5.553
 8173POPC   PO441556   3.523   8.992   5.853
 8173POPC   GL141557   3.531   9.022   6.153
 8173POPC   GL241558   3.438   9.057   6.153
 8173POPC   C1A41559   3.568   8.996   6.453
 8173POPC   D2A41560   3.574   8.984   6.753
 8173POPC   C3A41561   3.520   8.943   7.053
 8173POPC   C4A41562   3.492   9.012   7.353
 8173POPC   C1B41563   3.383   9.124   6.453
 8173POPC   C2B41564   3.350   9.130   6.753
 8173POPC   C3B41565   3.398   9.128   7.053
 8173POPC   C4B41566   3.327   9.109   7.353
 8174POPC   NC341567   3.579  14.436   5.553
 8174POPC   PO441568   3.498  14.377   5.853
 8174POPC   GL141569   3.494  14.409   6.153
 8174POPC   GL241570   3.528  14.257   6.153
 8174POPC   C1A41571   3.523  14.447   6.453
 8174POPC   D2A41572   3.500  14.445   6.753
 8174POPC   C3A41573   3.510  14.448   7.053
 8174POPC   C4A41574   3.534  14.388   7.353
 8174POPC   C1B41575   3.487  14.147   6.453
 8174POPC   C2B41576   3.418  14.182   6.753
 8174POPC   C3B41577   3.433  14.177   7.053
 8174POPC   C4B41578   3.460  14.184   7.353
 8175POPC   NC341579   5.837   0.436   5.553
 8175POPC   PO441580   5.845   0.398   5.853
 8175POPC   GL141581   5.856   0.478   6.153
 8175POPC   GL241582   5.761   0.346   6.153
 8175POPC   C1A41583   5.869   0.389   6.453
 8175POPC   D2A41584   5.900   0.437   6.753
 8175POPC   C3A41585   5.841   0.420   7.053
 8175POPC   C4A41586   5.916   0.423   7.353
 8175POPC   C1B41587   5.719   0.212   6.453
 8175POPC   C2B41588   5.658   0.228   6.753
 8175POPC   C3B41589   5.753   0.240   7.053
 8175POPC   C4B41590   5.757   0.219   7.353
 8176POPC   NC341591  29.943   5.098   5.553
 8176POPC   PO441592  29.931   5.045   5.853
 8176POPC   GL141593  29.908   5.139   6.153
 8176POPC   GL241594  29.831   5.091   6.153
 8176POPC   C1A41595  29.902   5.049   6.453
 8176POPC   D2A41596  29.967   5.124   6.753
 8176POPC   C3A41597  29.874   5.080   7.053
 8176POPC   C4A41598  29.920   5.100   7.353
 8176POPC   C1B41599  29.675   5.088   6.453
 8176POPC   C2B41600  29.630   5.066   6.753
 8176POPC   C3B41601  29.671   5.093   7.053
 8176POPC   C4B41602  29.647   5.108   7.353
 8177POPC   NC341603  10.542  23.698   5.553
 8177POPC   PO441604  10.557  23.759   5.853
 8177POPC   GL141605  10.546  23.668   6.153
 8177POPC   GL241606  10.396  23.812   6.153
 8177POPC   C1A41607  10.519  23.664   6.453
 8177POPC   D2A41608  10.554  23.682   6.753
 8177POPC   C3A41609  10.541  23.689   7.053
 8177POPC   C4A41610  10.559  23.706   7.353
 8177POPC   C1B41611  10.358  23.872   6.453
 8177POPC   C2B41612  10.367  23.860   6.753
 8177POPC   C3B41613  10.309  23.920   7.053
 8177POPC   C4B41614  10.334  23.840   7.353
 8178POPC   NC341615   4.281  12.853   5.553
 8178POPC   PO441616   4.308  12.803   5.853
 8178POPC   GL141617   4.302  12.887   6.153
 8178POPC   GL241618   4.425  12.917   6.153
 8178POPC   C1A41619   4.285  12.844   6.453
 8178POPC   D2A41620   4.342  12.825   6.753
 8178POPC   C3A41621   4.313  12.901   7.053
 8178POPC   C4A41622   4.309  12.875   7.353
 8178POPC   C1B41623   4.448  13.045   6.453
 8178POPC   C2B41624   4.466  13.039   6.753
 8178POPC   C3B41625   4.400  13.119   7.053
 8178POPC   C4B41626   4.464  13.103   7.353
 8179POPC   NC341627  21.356  12.056   5.553
 8179POPC   PO441628  21.357  12.047   5.853
 8179POPC   GL141629  21.356  12.033   6.153
 8179POPC   GL241630  21.462  12.047   6.153
 8179POPC   C1A41631  21.419  12.113   6.453
 8179POPC   D2A41632  21.410  12.035   6.753
 8179POPC   C3A41633  21.399  12.070   7.053
 8179POPC   C4A41634  21.346  12.105   7.353
 8179POPC   C1B41635  21.649  12.019   6.453
 8179POPC   C2B41636  21.679  12.110   6.753
 8179POPC   C3B41637  21.609  12.043   7.053
 8179POPC   C4B41638  21.588  12.088   7.353
 8180POPC   NC341639  19.099  38.474   5.553
 8180POPC   PO441640  19.069  38.430   5.853
 8180POPC   GL141641  19.051  38.409   6.153
 8180POPC   GL241642  19.142  38.497   6.153
 8180POPC   C1A41643  19.098  38.441   6.453
 8180POPC   D2A41644  19.031  38.466   6.753
 8180POPC   C3A41645  19.057  38.484   7.053
 8180POPC   C4A41646  19.091  38.493   7.353
 8180POPC   C1B41647  19.313  38.566   6.453
 8180POPC   C2B41648  19.309  38.558   6.753
 8180POPC   C3B41649  19.322  38.549   7.053
 8180POPC   C4B41650  19.258  38.490   7.353
 8181POPC   NC341651  23.759   9.008   5.553
 8181POPC   PO441652  23.751   9.020   5.853
 8181POPC   GL141653  23.741   8.935   6.153
 8181POPC   GL241654  23.586   8.981   6.153
 8181POPC   C1A41655  23.709   9.012   6.453
 8181POPC   D2A41656  23.760   8.949   6.753
 8181POPC   C3A41657  23.670   9.018   7.053
 8181POPC   C4A41658  23.671   9.013   7.353
 8181POPC   C1B41659  23.454   8.966   6.453
 8181POPC   C2B41660  23.490   8.999   6.753
 8181POPC   C3B41661  23.480   8.988   7.053
 8181POPC   C4B41662  23.457   8.974   7.353
 8182POPC   NC341663  26.828  29.967   5.553
 8182POPC   PO441664  26.805  29.904   5.853
 8182POPC   GL141665  26.832  29.879   6.153
 8182POPC   GL241666  26.688  29.931   6.153
 8182POPC   C1A41667  26.866  29.950   6.453
 8182POPC   D2A41668  26.841  29.932   6.753
 8182POPC   C3A41669  26.838  29.952   7.053
 8182POPC   C4A41670  26.809  29.903   7.353
 8182POPC   C1B41671  26.569  29.990   6.453
 8182POPC   C2B41672  26.606  29.975   6.753
 8182POPC   C3B41673  26.613  29.944   7.053
 8182POPC   C4B41674  26.585  30.037   7.353
 8183POPC   NC341675   0.469  19.813   5.553
 8183POPC   PO441676   0.465  19.877   5.853
 8183POPC   GL141677   0.410  19.877   6.153
 8183POPC   GL241678   0.272  19.888   6.153
 8183POPC   C1A41679   0.459  19.806   6.453
 8183POPC   D2A41680   0.414  19.864   6.753
 8183POPC   C3A41681   0.404  19.863   7.053
 8183POPC   C4A41682   0.453  19.846   7.353
 8183POPC   C1B41683   0.230  19.963   6.453
 8183POPC   C2B41684   0.237  19.899   6.753
 8183POPC   C3B41685   0.159  19.949   7.053
 8183POPC   C4B41686   0.191  19.959   7.353
 8184POPC   NC341687  31.495  40.779   5.553
 8184POPC   PO441688  31.427  40.818   5.853
 8184POPC   GL141689  31.500  40.831   6.153
 8184POPC   GL241690  31.478  40.635   6.153
 8184POPC   C1A41691  31.495  40.797   6.453
 8184POPC   D2A41692  31.442  40.811   6.753
 8184POPC   C3A41693  31.451  40.801   7.053
 8184POPC   C4A41694  31.499  40.774   7.353
 8184POPC   C1B41695  31.568  40.567   6.453
 8184POPC   C2B41696  31.569  40.506   6.753
 8184POPC   C3B41697  31.569  40.533   7.053
 8184POPC   C4B41698  31.564  40.590   7.353
 8185POPC   NC341699  11.270  19.101   5.553
 8185POPC   PO441700  11.274  19.069   5.853
 8185POPC   GL141701  11.334  19.023   6.153
 8185POPC   GL241702  11.404  19.126   6.153
 8185POPC   C1A41703  11.262  19.073   6.453
 8185POPC   D2A41704  11.321  19.034   6.753
 8185POPC   C3A41705  11.276  19.095   7.053
 8185POPC   C4A41706  11.259  19.050   7.353
 8185POPC   C1B41707  11.450  19.234   6.453
 8185POPC   C2B41708  11.531  19.184   6.753
 8185POPC   C3B41709  11.481  19.248   7.053
 8185POPC   C4B41710  11.506  19.191   7.353
 8186POPC   NC341711  25.246   6.662   5.553
 8186POPC   PO441712  25.227   6.687   5.853
 8186POPC   GL141713  25.256   6.640   6.153
 8186POPC   GL241714  25.363   6.578   6.153
 8186POPC   C1A41715  25.281   6.675   6.453
 8186POPC   D2A41716  25.304   6.641   6.753
 8186POPC   C3A41717  25.255   6.695   7.053
 8186POPC   C4A41718  25.251   6.662   7.353
 8186POPC   C1B41719  25.368   6.437   6.453
 8186POPC   C2B41720  25.395   6.455   6.753
 8186POPC   C3B41721  25.442   6.418   7.053
 8186POPC   C4B41722  25.418   6.410   7.353
 8187POPC   NC341723  40.799  26.020   5.553
 8187POPC   PO441724  40.794  26.027   5.853
 8187POPC   GL141725  40.743  26.087   6.153
 8187POPC   GL241726  40.724  26.102   6.153
 8187POPC   C1A41727  40.802  26.004   6.453
 8187POPC   D2A41728  40.793  26.066   6.753
 8187POPC   C3A41729  40.753  26.091   7.053
 8187POPC   C4A41730  40.761  26.050   7.353
 8187POPC   C1B41731  40.685  26.223   6.453
 8187POPC   C2B41732  40.687  26.261   6.753
 8187POPC   C3B41733  40.681  26.207   7.053
 8187POPC   C4B41734  40.680  26.214   7.353
 8188POPC   NC341735  29.891   8.952   5.553
 8188POPC   PO441736  29.958   9.004   5.853
 8188POPC   GL141737  29.879   9.019   6.153
 8188POPC   GL241738  29.870   9.125   6.153
 8188POPC   C1A41739  29.905   8.937   6.453
 8188POPC   D2A41740  29.953   8.939   6.753
 8188POPC   C3A41741  29.915   9.020   7.053
 8188POPC   C4A41742  29.920   8.984   7.353
 8188POPC   C1B41743  29.860   9.219   6.453
 8188POPC   C2B41744  29.910   9.271   6.753
 8188POPC   C3B41745  29.869   9.199   7.053
 8188POPC   C4B41746  29.867   9.207   7.353
 8189POPC   NC341747  37.649  39.209   5.553
 8189POPC   PO441748  37.691  39.191   5.853
 8189POPC   GL141749  37.728  39.273   6.153
 8189POPC   GL241750  37.769  39.143   6.153
 8189POPC   C1A41751  37.650  39.269   6.453
 8189POPC   D2A41752  37.637  39.217   6.753
 8189POPC   C3A41753  37.645  39.200   7.053
 8189POPC   C4A41754  37.641  39.237   7.353
 8189POPC   C1B41755  37.800  39.033   6.453
 8189POPC   C2B41756  37.827  39.076   6.753
 8189POPC   C3B41757  37.792  39.036   7.053
 8189POPC   C4B41758  37.836  39.029   7.353
 8190POPC   NC341759   2.020  37.728   5.553
 8190POPC   PO441760   1.961  37.675   5.853
 8190POPC   GL141761   1.997  37.660   6.153
 8190POPC   GL241762   2.109  37.620   6.153
 8190POPC   C1A41763   1.943  37.710   6.453
 8190POPC   D2A41764   1.966  37.729   6.753
 8190POPC   C3A41765   1.979  37.675   7.053
 8190POPC   C4A41766   1.987  37.673   7.353
 8190POPC   C1B41767   2.181  37.508   6.453
 8190POPC   C2B41768   2.156  37.537   6.753
 8190POPC   C3B41769   2.233  37.518   7.053
 8190POPC   C4B41770   2.184  37.544   7.353
 8191POPC   NC341771   2.746  33.054   5.553
 8191POPC   PO441772   2.741  33.004   5.853
 8191POPC   GL141773   2.743  33.027   6.153
 8191POPC   GL241774   2.664  32.891   6.153
 8191POPC   C1A41775   2.773  32.986   6.453
 8191POPC   D2A41776   2.743  33.009   6.753
 8191POPC   C3A41777   2.791  33.033   7.053
 8191POPC   C4A41778   2.728  33.015   7.353
 8191POPC   C1B41779   2.602  32.854   6.453
 8191POPC   C2B41780   2.595  32.830   6.753
 8191POPC   C3B41781   2.577  32.873   7.053
 8191POPC   C4B41782   2.584  32.779   7.353
 8192POPC   NC341783  22.951  42.346   5.553
 8192POPC   PO441784  22.900  42.308   5.853
 8192POPC   GL141785  22.955  42.297   6.153
 8192POPC   GL241786  22.946  42.223   6.153
 8192POPC   C1A41787  22.919  42.309   6.453
 8192POPC   D2A41788  22.929  42.305   6.753
 8192POPC   C3A41789  22.888  42.311   7.053
 8192POPC   C4A41790  22.941  42.303   7.353
 8192POPC   C1B41791  22.866  42.066   6.453
 8192POPC   C2B41792  22.931  42.122   6.753
 8192POPC   C3B41793  22.922  42.058   7.053
 8192POPC   C4B41794  22.869  42.115   7.353
 8193POPC   NC341795  25.256  33.051   5.553
 8193POPC   PO441796  25.295  33.012   5.853
 8193POPC   GL141797  25.239  32.977   6.153
 8193POPC   GL241798  25.206  32.973   6.153
 8193POPC   C1A41799  25.310  32.980   6.453
 8193POPC   D2A41800  25.244  32.997   6.753
 8193POPC   C3A41801  25.281  33.031   7.053
 8193POPC   C4A41802  25.241  33.043   7.353
 8193POPC   C1B41803  25.077  32.923   6.453
 8193POPC   C2B41804  25.012  32.919   6.753
 8193POPC   C3B41805  25.081  32.942   7.053
 8193POPC   C4B41806  25.095  32.883   7.353
 8194POPC   NC341807   4.319  19.023   5.553
 8194POPC   PO441808   4.313  19.032   5.853
 8194POPC   GL141809   4.360  19.035   6.153
 8194POPC   GL241810   4.432  19.137   6.153
 8194POPC   C1A41811   4.329  19.091   6.453
 8194POPC   D2A41812   4.365  19.075   6.753
 8194POPC   C3A41813   4.289  19.073   7.053
 8194POPC   C4A41814   4.333  19.089   7.353
 8194POPC   C1B41815   4.549  19.169   6.453
 8194POPC   C2B41816   4.578  19.168   6.753
 8194POPC   C3B41817   4.512  19.159   7.053
 8194POPC   C4B41818   4.570  19.127   7.353
 8195POPC   NC341819  29.938  17.496   5.553
 8195POPC   PO441820  29.970  17.460   5.853
 8195POPC   GL141821  29.903  17.470   6.153
 8195POPC   GL241822  30.029  17.514   6.153
 8195POPC   C1A41823  29.925  17.513   6.453
 8195POPC   D2A41824  29.917  17.478   6.753
 8195POPC   C3A41825  29.890  17.552   7.053
 8195POPC   C4A41826  29.912  17.528   7.353
 8195POPC   C1B41827  30.174  17.517   6.453
 8195POPC   C2B41828  30.154  17.524   6.753
 8195POPC   C3B41829  30.139  17.446   7.053
 8195POPC   C4B41830  30.202  17.468   7.353
 8196POPC   NC341831  23.707  29.129   5.553
 8196POPC   PO441832  23.714  29.157   5.853
 8196POPC   GL141833  23.712  29.157   6.153
 8196POPC   GL241834  23.723  29.290   6.153
 8196POPC   C1A41835  23.681  29.160   6.453
 8196POPC   D2A41836  23.700  29.140   6.753
 8196POPC   C3A41837  23.669  29.179   7.053
 8196POPC   C4A41838  23.735  29.120   7.353
 8196POPC   C1B41839  23.691  29.416   6.453
 8196POPC   C2B41840  23.745  29.414   6.753
 8196POPC   C3B41841  23.690  29.410   7.053
 8196POPC   C4B41842  23.661  29.436   7.353
 8197POPC   NC341843  39.203   5.845   5.553
 8197POPC   PO441844  39.194   5.881   5.853
 8197POPC   GL141845  39.237   5.877   6.153
 8197POPC   GL241846  39.093   5.777   6.153
 8197POPC   C1A41847  39.227   5.878   6.453
 8197POPC   D2A41848  39.189   5.886   6.753
 8197POPC   C3A41849  39.251   5.862   7.053
 8197POPC   C4A41850  39.198   5.908   7.353
 8197POPC   C1B41851  38.961   5.820   6.453
 8197POPC   C2B41852  39.017   5.787   6.753
 8197POPC   C3B41853  38.978   5.799   7.053
 8197POPC   C4B41854  39.042   5.775   7.353
 8198POPC   NC341855  31.487  36.089   5.553
 8198POPC   PO441856  31.436  36.140   5.853
 8198POPC   GL141857  31.434  36.172   6.153
 8198POPC   GL241858  31.387  36.241   6.153
 8198POPC   C1A41859  31.475  36.129   6.453
 8198POPC   D2A41860  31.441  36.155   6.753
 8198POPC   C3A41861  31.441  36.115   7.053
 8198POPC   C4A41862  31.487  36.089   7.353
 8198POPC   C1B41863  31.329  36.294   6.453
 8198POPC   C2B41864  31.294  36.316   6.753
 8198POPC   C3B41865  31.287  36.375   7.053
 8198POPC   C4B41866  31.380  36.372   7.353
 8199POPC   NC341867   0.423  26.073   5.553
 8199POPC   PO441868   0.404  26.087   5.853
 8199POPC   GL141869   0.449  26.083   6.153
 8199POPC   GL241870   0.505  25.942   6.153
 8199POPC   C1A41871   0.424  26.028   6.453
 8199POPC   D2A41872   0.473  26.030   6.753
 8199POPC   C3A41873   0.418  26.062   7.053
 8199POPC   C4A41874   0.389  26.050   7.353
 8199POPC   C1B41875   0.536  25.767   6.453
 8199POPC   C2B41876   0.494  25.771   6.753
 8199POPC   C3B41877   0.486  25.858   7.053
 8199POPC   C4B41878   0.510  25.777   7.353
 8200POPC   NC341879  20.569  26.088   5.553
 8200POPC   PO441880  20.611  26.037   5.853
 8200POPC   GL141881  20.655  26.076   6.153
 8200POPC   GL241882  20.474  26.010   6.153
 8200POPC   C1A41883  20.581  26.059   6.453
 8200POPC   D2A41884  20.657  26.009   6.753
 8200POPC   C3A41885  20.564  26.055   7.053
 8200POPC   C4A41886  20.657  26.002   7.353
 8200POPC   C1B41887  20.395  26.006   6.453
 8200POPC   C2B41888  20.385  25.997   6.753
 8200POPC   C3B41889  20.408  25.993   7.053
 8200POPC   C4B41890  20.417  25.992   7.353
 8201POPC   NC341891  36.869  33.815   5.553
 8201POPC   PO441892  36.891  33.830   5.853
 8201POPC   GL141893  36.858  33.816   6.153
 8201POPC   GL241894  36.826  33.918   6.153
 8201POPC   C1A41895  36.948  33.761   6.453
 8201POPC   D2A41896  36.931  33.781   6.753
 8201POPC   C3A41897  36.953  33.845   7.053
 8201POPC   C4A41898  36.866  33.758   7.353
 8201POPC   C1B41899  36.795  33.952   6.453
 8201POPC   C2B41900  36.769  34.039   6.753
 8201POPC   C3B41901  36.724  34.001   7.053
 8201POPC   C4B41902  36.783  33.978   7.353
 8202POPC   NC341903  24.516  18.270   5.553
 8202POPC   PO441904  24.468  18.303   5.853
 8202POPC   GL141905  24.539  18.258   6.153
 8202POPC   GL241906  24.494  18.365   6.153
 8202POPC   C1A41907  24.495  18.244   6.453
 8202POPC   D2A41908  24.484  18.276   6.753
 8202POPC   C3A41909  24.445  18.293   7.053
 8202POPC   C4A41910  24.486  18.256   7.353
 8202POPC   C1B41911  24.586  18.539   6.453
 8202POPC   C2B41912  24.628  18.495   6.753
 8202POPC   C3B41913  24.619  18.507   7.053
 8202POPC   C4B41914  24.589  18.548   7.353
 8203POPC   NC341915  27.616  19.879   5.553
 8203POPC   PO441916  27.620  19.805   5.853
 8203POPC   GL141917  27.625  19.884   6.153
 8203POPC   GL241918  27.641  19.736   6.153
 8203POPC   C1A41919  27.581  19.853   6.453
 8203POPC   D2A41920  27.609  19.796   6.753
 8203POPC   C3A41921  27.572  19.859   7.053
 8203POPC   C4A41922  27.608  19.883   7.353
 8203POPC   C1B41923  27.632  19.567   6.453
 8203POPC   C2B41924  27.620  19.601   6.753
 8203POPC   C3B41925  27.632  19.611   7.053
 8203POPC   C4B41926  27.602  19.614   7.353
 8204POPC   NC341927  43.067  36.926   5.553
 8204POPC   PO441928  43.155  36.915   5.853
 8204POPC   GL141929  43.148  36.896   6.153
 8204POPC   GL241930  43.139  36.734   6.153
 8204POPC   C1A41931  43.068  36.910   6.453
 8204POPC   D2A41932  43.110  36.912   6.753
 8204POPC   C3A41933  43.110  36.934   7.053
 8204POPC   C4A41934  43.112  36.895   7.353
 8204POPC   C1B41935  43.103  36.645   6.453
 8204POPC   C2B41936  43.080  36.685   6.753
 8204POPC   C3B41937  43.127  36.674   7.053
 8204POPC   C4B41938  43.091  36.614   7.353
 8205POPC   NC341939   5.844  43.093   5.553
 8205POPC   PO441940   5.895  43.099   5.853
 8205POPC   GL141941   5.879  43.141   6.153
 8205POPC   GL241942   5.772  42.991   6.153
 8205POPC   C1A41943   5.876  43.076   6.453
 8205POPC   D2A41944   5.860  43.116   6.753
 8205POPC   C3A41945   5.823  43.072   7.053
 8205POPC   C4A41946   5.847  43.098   7.353
 8205POPC   C1B41947   5.693  42.949   6.453
 8205POPC   C2B41948   5.731  42.965   6.753
 8205POPC   C3B41949   5.744  42.876   7.053
 8205POPC   C4B41950   5.748  42.931   7.353
 8206POPC   NC341951  39.228   2.743   5.553
 8206POPC   PO441952  39.268   2.754   5.853
 8206POPC   GL141953  39.246   2.813   6.153
 8206POPC   GL241954  39.186   2.923   6.153
 8206POPC   C1A41955  39.237   2.781   6.453
 8206POPC   D2A41956  39.193   2.735   6.753
 8206POPC   C3A41957  39.228   2.799   7.053
 8206POPC   C4A41958  39.242   2.767   7.353
 8206POPC   C1B41959  39.184   2.962   6.453
 8206POPC   C2B41960  39.148   2.966   6.753
 8206POPC   C3B41961  39.118   3.023   7.053
 8206POPC   C4B41962  39.132   2.955   7.353
 8207POPC   NC341963  31.450  28.407   5.553
 8207POPC   PO441964  31.502  28.385   5.853
 8207POPC   GL141965  31.470  28.343   6.153
 8207POPC   GL241966  31.516  28.470   6.153
 8207POPC   C1A41967  31.483  28.386   6.453
 8207POPC   D2A41968  31.447  28.338   6.753
 8207POPC   C3A41969  31.458  28.351   7.053
 8207POPC   C4A41970  31.468  28.329   7.353
 8207POPC   C1B41971  31.478  28.653   6.453
 8207POPC   C2B41972  31.459  28.639   6.753
 8207POPC   C3B41973  31.461  28.641   7.053
 8207POPC   C4B41974  31.521  28.648   7.353
 8208POPC   NC341975  43.929  26.793   5.553
 8208POPC   PO441976  43.871  26.802   5.853
 8208POPC   GL141977  43.838  26.820   6.153
 8208POPC   GL241978  43.868  26.690   6.153
 8208POPC   C1A41979  43.850  26.860   6.453
 8208POPC   D2A41980  43.866  26.798   6.753
 8208POPC   C3A41981  43.885  26.845   7.053
 8208POPC   C4A41982  43.930  26.843   7.353
 8208POPC   C1B41983  43.800  26.599   6.453
 8208POPC   C2B41984  43.808  26.545   6.753
 8208POPC   C3B41985  43.826  26.592   7.053
 8208POPC   C4B41986  43.854  26.622   7.353
 8209POPC   NC341987   6.678  40.781   5.553
 8209POPC   PO441988   6.623  40.748   5.853
 8209POPC   GL141989   6.612  40.786   6.153
 8209POPC   GL241990   6.715  40.893   6.153
 8209POPC   C1A41991   6.689  40.755   6.453
 8209POPC   D2A41992   6.611  40.734   6.753
 8209POPC   C3A41993   6.648  40.734   7.053
 8209POPC   C4A41994   6.599  40.748   7.353
 8209POPC   C1B41995   6.813  40.948   6.453
 8209POPC   C2B41996   6.825  40.955   6.753
 8209POPC   C3B41997   6.800  41.014   7.053
 8209POPC   C4B41998   6.757  40.979   7.353
 8210POPC   NC341999  17.480  29.932   5.553
 8210POPC   PO442000  17.500  29.900   5.853
 8210POPC   GL142001  17.543  29.958   6.153
 8210POPC   GL242002  17.430  29.881   6.153
 8210POPC   C1A42003  17.514  29.891   6.453
 8210POPC   D2A42004  17.524  29.886   6.753
 8210POPC   C3A42005  17.488  29.899   7.053
 8210POPC   C4A42006  17.472  29.935   7.353
 8210POPC   C1B42007  17.285  29.772   6.453
 8210POPC   C2B42008  17.272  29.738   6.753
 8210POPC   C3B42009  17.315  29.734   7.053
 8210POPC   C4B42010  17.287  29.764   7.353
 8211POPC   NC342011  16.757  21.381   5.553
 8211POPC   PO442012  16.712  21.386   5.853
 8211POPC   GL142013  16.759  21.366   6.153
 8211POPC   GL242014  16.713  21.267   6.153
 8211POPC   C1A42015  16.726  21.373   6.453
 8211POPC   D2A42016  16.727  21.370   6.753
 8211POPC   C3A42017  16.703  21.399   7.053
 8211POPC   C4A42018  16.775  21.419   7.353
 8211POPC   C1B42019  16.649  21.192   6.453
 8211POPC   C2B42020  16.701  21.119   6.753
 8211POPC   C3B42021  16.719  21.117   7.053
 8211POPC   C4B42022  16.684  21.124   7.353
 8212POPC   NC342023   1.215  26.006   5.553
 8212POPC   PO442024   1.211  26.071   5.853
 8212POPC   GL142025   1.253  25.992   6.153
 8212POPC   GL242026   1.311  26.160   6.153
 8212POPC   C1A42027   1.247  26.042   6.453
 8212POPC   D2A42028   1.204  25.999   6.753
 8212POPC   C3A42029   1.259  26.037   7.053
 8212POPC   C4A42030   1.246  26.075   7.353
 8212POPC   C1B42031   1.361  26.259   6.453
 8212POPC   C2B42032   1.363  26.298   6.753
 8212POPC   C3B42033   1.385  26.250   7.053
 8212POPC   C4B42034   1.349  26.242   7.353
 8213POPC   NC342035  29.901  19.024   5.553
 8213POPC   PO442036  29.965  19.093   5.853
 8213POPC   GL142037  29.908  19.043   6.153
 8213POPC   GL242038  29.870  19.198   6.153
 8213POPC   C1A42039  29.898  19.026   6.453
 8213POPC   D2A42040  29.956  19.081   6.753
 8213POPC   C3A42041  29.871  19.010   7.053
 8213POPC   C4A42042  29.936  19.101   7.353
 8213POPC   C1B42043  29.791  19.224   6.453
 8213POPC   C2B42044  29.820  19.287   6.753
 8213POPC   C3B42045  29.803  19.233   7.053
 8213POPC   C4B42046  29.762  19.276   7.353
 8214POPC   NC342047  14.438  25.231   5.553
 8214POPC   PO442048  14.367  25.279   5.853
 8214POPC   GL142049  14.395  25.232   6.153
 8214POPC   GL242050  14.461  25.201   6.153
 8214POPC   C1A42051  14.354  25.294   6.453
 8214POPC   D2A42052  14.381  25.234   6.753
 8214POPC   C3A42053  14.392  25.284   7.053
 8214POPC   C4A42054  14.399  25.261   7.353
 8214POPC   C1B42055  14.553  25.070   6.453
 8214POPC   C2B42056  14.614  25.092   6.753
 8214POPC   C3B42057  14.591  25.122   7.053
 8214POPC   C4B42058  14.606  25.124   7.353
 8215POPC   NC342059  44.628  42.314   5.553
 8215POPC   PO442060  44.658  42.322   5.853
 8215POPC   GL142061  44.711  42.381   6.153
 8215POPC   GL242062  44.799  42.265   6.153
 8215POPC   C1A42063  44.692  42.292   6.453
 8215POPC   D2A42064  44.633  42.374   6.753
 8215POPC   C3A42065  44.640  42.352   7.053
 8215POPC   C4A42066  44.683  42.358   7.353
 8215POPC   C1B42067  44.900  42.233   6.453
 8215POPC   C2B42068  44.895  42.258   6.753
 8215POPC   C3B42069  44.854  42.197   7.053
 8215POPC   C4B42070  44.885  42.291   7.353
 8216POPC   NC342071  31.424   2.761   5.553
 8216POPC   PO442072  31.482   2.721   5.853
 8216POPC   GL142073  31.512   2.750   6.153
 8216POPC   GL242074  31.378   2.789   6.153
 8216POPC   C1A42075  31.474   2.814   6.453
 8216POPC   D2A42076  31.513   2.759   6.753
 8216POPC   C3A42077  31.502   2.796   7.053
 8216POPC   C4A42078  31.481   2.771   7.353
 8216POPC   C1B42079  31.302   2.907   6.453
 8216POPC   C2B42080  31.217   2.946   6.753
 8216POPC   C3B42081  31.294   2.928   7.053
 8216POPC   C4B42082  31.242   2.927   7.353
 8217POPC   NC342083  33.056  44.670   5.553
 8217POPC   PO442084  33.052  44.708   5.853
 8217POPC   GL142085  32.975  44.640   6.153
 8217POPC   GL242086  33.104  44.616   6.153
 8217POPC   C1A42087  32.982  44.674   6.453
 8217POPC   D2A42088  33.025  44.648   6.753
 8217POPC   C3A42089  32.975  44.618   7.053
 8217POPC   C4A42090  33.051  44.671   7.353
 8217POPC   C1B42091  33.198  44.458   6.453
 8217POPC   C2B42092  33.266  44.488   6.753
 8217POPC   C3B42093  33.240  44.475   7.053
 8217POPC   C4B42094  33.205  44.474   7.353
 8218POPC   NC342095  38.494  26.068   5.553
 8218POPC   PO442096  38.470  26.089   5.853
 8218POPC   GL142097  38.411  26.025   6.153
 8218POPC   GL242098  38.488  25.955   6.153
 8218POPC   C1A42099  38.423  26.036   6.453
 8218POPC   D2A42100  38.482  26.064   6.753
 8218POPC   C3A42101  38.447  26.091   7.053
 8218POPC   C4A42102  38.488  26.040   7.353
 8218POPC   C1B42103  38.556  25.838   6.453
 8218POPC   C2B42104  38.516  25.765   6.753
 8218POPC   C3B42105  38.510  25.801   7.053
 8218POPC   C4B42106  38.576  25.823   7.353
 8219POPC   NC342107  40.735  27.614   5.553
 8219POPC   PO442108  40.781  27.642   5.853
 8219POPC   GL142109  40.813  27.612   6.153
 8219POPC   GL242110  40.766  27.691   6.153
 8219POPC   C1A42111  40.824  27.612   6.453
 8219POPC   D2A42112  40.789  27.557   6.753
 8219POPC   C3A42113  40.733  27.633   7.053
 8219POPC   C4A42114  40.776  27.608   7.353
 8219POPC   C1B42115  40.731  27.837   6.453
 8219POPC   C2B42116  40.652  27.871   6.753
 8219POPC   C3B42117  40.721  27.799   7.053
 8219POPC   C4B42118  40.676  27.817   7.353
 8220POPC   NC342119  13.676  43.911   5.553
 8220POPC   PO442120  13.662  43.908   5.853
 8220POPC   GL142121  13.610  43.867   6.153
 8220POPC   GL242122  13.573  43.768   6.153
 8220POPC   C1A42123  13.672  43.905   6.453
 8220POPC   D2A42124  13.664  43.891   6.753
 8220POPC   C3A42125  13.638  43.921   7.053
 8220POPC   C4A42126  13.664  43.886   7.353
 8220POPC   C1B42127  13.465  43.743   6.453
 8220POPC   C2B42128  13.461  43.670   6.753
 8220POPC   C3B42129  13.487  43.682   7.053
 8220POPC   C4B42130  13.395  43.714   7.353
 8221POPC   NC342131  20.587  40.046   5.553
 8221POPC   PO442132  20.644  40.048   5.853
 8221POPC   GL142133  20.629  40.012   6.153
 8221POPC   GL242134  20.589  40.163   6.153
 8221POPC   C1A42135  20.591  40.007   6.453
 8221POPC   D2A42136  20.586  39.981   6.753
 8221POPC   C3A42137  20.633  40.020   7.053
 8221POPC   C4A42138  20.641  39.992   7.353
 8221POPC   C1B42139  20.684  40.211   6.453
 8221POPC   C2B42140  20.657  40.217   6.753
 8221POPC   C3B42141  20.604  40.212   7.053
 8221POPC   C4B42142  20.636  40.260   7.353
 8222POPC   NC342143  40.811   0.487   5.553
 8222POPC   PO442144  40.797   0.472   5.853
 8222POPC   GL142145  40.805   0.432   6.153
 8222POPC   GL242146  40.849   0.356   6.153
 8222POPC   C1A42147  40.807   0.433   6.453
 8222POPC   D2A42148  40.821   0.424   6.753
 8222POPC   C3A42149  40.815   0.394   7.053
 8222POPC   C4A42150  40.798   0.483   7.353
 8222POPC   C1B42151  41.007   0.337   6.453
 8222POPC   C2B42152  40.992   0.338   6.753
 8222POPC   C3B42153  40.970   0.309   7.053
 8222POPC   C4B42154  41.036   0.347   7.353
 8223POPC   NC342155   4.289   8.970   5.553
 8223POPC   PO442156   4.366   8.945   5.853
 8223POPC   GL142157   4.360   8.943   6.153
 8223POPC   GL242158   4.374   8.844   6.153
 8223POPC   C1A42159   4.325   8.972   6.453
 8223POPC   D2A42160   4.350   8.961   6.753
 8223POPC   C3A42161   4.295   8.962   7.053
 8223POPC   C4A42162   4.344   8.978   7.353
 8223POPC   C1B42163   4.407   8.775   6.453
 8223POPC   C2B42164   4.427   8.768   6.753
 8223POPC   C3B42165   4.395   8.749   7.053
 8223POPC   C4B42166   4.352   8.696   7.353
 8224POPC   NC342167  22.129  11.256   5.553
 8224POPC   PO442168  22.187  11.317   5.853
 8224POPC   GL142169  22.142  11.290   6.153
 8224POPC   GL242170  22.195  11.157   6.153
 8224POPC   C1A42171  22.144  11.333   6.453
 8224POPC   D2A42172  22.119  11.260   6.753
 8224POPC   C3A42173  22.170  11.339   7.053
 8224POPC   C4A42174  22.179  11.253   7.353
 8224POPC   C1B42175  22.320  11.126   6.453
 8224POPC   C2B42176  22.273  11.093   6.753
 8224POPC   C3B42177  22.265  11.134   7.053
 8224POPC   C4B42178  22.295  11.103   7.353
 8225POPC   NC342179   1.210  41.549   5.553
 8225POPC   PO442180   1.215  41.547   5.853
 8225POPC   GL142181   1.220  41.598   6.153
 8225POPC   GL242182   1.289  41.529   6.153
 8225POPC   C1A42183   1.252  41.605   6.453
 8225POPC   D2A42184   1.193  41.585   6.753
 8225POPC   C3A42185   1.186  41.559   7.053
 8225POPC   C4A42186   1.195  41.510   7.353
 8225POPC   C1B42187   1.449  41.496   6.453
 8225POPC   C2B42188   1.505  41.563   6.753
 8225POPC   C3B42189   1.438  41.570   7.053
 8225POPC   C4B42190   1.494  41.508   7.353
 8226POPC   NC342191  29.159   6.631   5.553
 8226POPC   PO442192  29.173   6.629   5.853
 8226POPC   GL142193  29.136   6.660   6.153
 8226POPC   GL242194  29.134   6.725   6.153
 8226POPC   C1A42195  29.182   6.648   6.453
 8226POPC   D2A42196  29.175   6.676   6.753
 8226POPC   C3A42197  29.114   6.644   7.053
 8226POPC   C4A42198  29.123   6.599   7.353
 8226POPC   C1B42199  29.101   6.879   6.453
 8226POPC   C2B42200  29.092   6.849   6.753
 8226POPC   C3B42201  29.078   6.887   7.053
 8226POPC   C4B42202  29.140   6.915   7.353
 8227POPC   NC342203  19.105  28.410   5.553
 8227POPC   PO442204  19.082  28.399   5.853
 8227POPC   GL142205  19.104  28.356   6.153
 8227POPC   GL242206  19.090  28.230   6.153
 8227POPC   C1A42207  19.054  28.360   6.453
 8227POPC   D2A42208  19.073  28.349   6.753
 8227POPC   C3A42209  19.078  28.361   7.053
 8227POPC   C4A42210  19.041  28.419   7.353
 8227POPC   C1B42211  19.107  28.165   6.453
 8227POPC   C2B42212  19.189  28.125   6.753
 8227POPC   C3B42213  19.187  28.116   7.053
 8227POPC   C4B42214  19.144  28.183   7.353
 8228POPC   NC342215  38.434  11.309   5.553
 8228POPC   PO442216  38.472  11.317   5.853
 8228POPC   GL142217  38.437  11.316   6.153
 8228POPC   GL242218  38.567  11.171   6.153
 8228POPC   C1A42219  38.430  11.258   6.453
 8228POPC   D2A42220  38.437  11.313   6.753
 8228POPC   C3A42221  38.470  11.277   7.053
 8228POPC   C4A42222  38.419  11.307   7.353
 8228POPC   C1B42223  38.647  11.184   6.453
 8228POPC   C2B42224  38.682  11.122   6.753
 8228POPC   C3B42225  38.601  11.095   7.053
 8228POPC   C4B42226  38.612  11.147   7.353
 8229POPC   NC342227  34.529  15.991   5.553
 8229POPC   PO442228  34.529  15.906   5.853
 8229POPC   GL142229  34.566  15.966   6.153
 8229POPC   GL242230  34.474  16.064   6.153
 8229POPC   C1A42231  34.611  15.910   6.453
 8229POPC   D2A42232  34.538  15.972   6.753
 8229POPC   C3A42233  34.622  15.966   7.053
 8229POPC   C4A42234  34.571  15.934   7.353
 8229POPC   C1B42235  34.451  16.154   6.453
 8229POPC   C2B42236  34.483  16.190   6.753
 8229POPC   C3B42237  34.461  16.170   7.053
 8229POPC   C4B42238  34.475  16.155   7.353
 8230POPC   NC342239   2.735   5.085   5.553
 8230POPC   PO442240   2.741   5.065   5.853
 8230POPC   GL142241   2.796   5.058   6.153
 8230POPC   GL242242   2.885   5.150   6.153
 8230POPC   C1A42243   2.778   5.142   6.453
 8230POPC   D2A42244   2.764   5.094   6.753
 8230POPC   C3A42245   2.782   5.088   7.053
 8230POPC   C4A42246   2.723   5.130   7.353
 8230POPC   C1B42247   3.000   5.178   6.453
 8230POPC   C2B42248   3.017   5.174   6.753
 8230POPC   C3B42249   3.038   5.248   7.053
 8230POPC   C4B42250   3.017   5.169   7.353
 8231POPC   NC342251  19.067  22.935   5.553
 8231POPC   PO442252  19.025  22.920   5.853
 8231POPC   GL142253  19.017  22.949   6.153
 8231POPC   GL242254  19.093  23.026   6.153
 8231POPC   C1A42255  19.098  22.903   6.453
 8231POPC   D2A42256  19.090  22.944   6.753
 8231POPC   C3A42257  19.092  22.950   7.053
 8231POPC   C4A42258  19.028  22.982   7.353
 8231POPC   C1B42259  19.219  23.143   6.453
 8231POPC   C2B42260  19.237  23.108   6.753
 8231POPC   C3B42261  19.194  23.166   7.053
 8231POPC   C4B42262  19.240  23.116   7.353
 8232POPC   NC342263  30.665   5.882   5.553
 8232POPC   PO442264  30.693   5.903   5.853
 8232POPC   GL142265  30.692   5.847   6.153
 8232POPC   GL242266  30.732   5.979   6.153
 8232POPC   C1A42267  30.663   5.880   6.453
 8232POPC   D2A42268  30.745   5.852   6.753
 8232POPC   C3A42269  30.653   5.830   7.053
 8232POPC   C4A42270  30.653   5.889   7.353
 8232POPC   C1B42271  30.828   6.134   6.453
 8232POPC   C2B42272  30.823   6.095   6.753
 8232POPC   C3B42273  30.755   6.049   7.053
 8232POPC   C4B42274  30.798   6.116   7.353
 8233POPC   NC342275  38.496  12.804   5.553
 8233POPC   PO442276  38.488  12.888   5.853
 8233POPC   GL142277  38.489  12.867   6.153
 8233POPC   GL242278  38.480  12.972   6.153
 8233POPC   C1A42279  38.449  12.877   6.453
 8233POPC   D2A42280  38.465  12.862   6.753
 8233POPC   C3A42281  38.482  12.805   7.053
 8233POPC   C4A42282  38.460  12.855   7.353
 8233POPC   C1B42283  38.503  13.069   6.453
 8233POPC   C2B42284  38.484  13.095   6.753
 8233POPC   C3B42285  38.523  13.135   7.053
 8233POPC   C4B42286  38.471  13.060   7.353
 8234POPC   NC342287  40.017  23.746   5.553
 8234POPC   PO442288  40.016  23.698   5.853
 8234POPC   GL142289  39.961  23.745   6.153
 8234POPC   GL242290  39.868  23.744   6.153
 8234POPC   C1A42291  40.035  23.691   6.453
 8234POPC   D2A42292  40.007  23.703   6.753
 8234POPC   C3A42293  40.045  23.682   7.053
 8234POPC   C4A42294  40.028  23.743   7.353
 8234POPC   C1B42295  39.750  23.760   6.453
 8234POPC   C2B42296  39.757  23.804   6.753
 8234POPC   C3B42297  39.781  23.840   7.053
 8234POPC   C4B42298  39.803  23.805   7.353
 8235POPC   NC342299  29.896  11.295   5.553
 8235POPC   PO442300  29.948  11.319   5.853
 8235POPC   GL142301  29.908  11.267   6.153
 8235POPC   GL242302  30.001  11.275   6.153
 8235POPC   C1A42303  29.953  11.287   6.453
 8235POPC   D2A42304  29.908  11.320   6.753
 8235POPC   C3A42305  29.874  11.294   7.053
 8235POPC   C4A42306  29.937  11.276   7.353
 8235POPC   C1B42307  30.151  11.135   6.453
 8235POPC   C2B42308  30.155  11.132   6.753
 8235POPC   C3B42309  30.183  11.145   7.053
 8235POPC   C4B42310  30.161  11.136   7.353
 8236POPC   NC342311  29.106  28.361   5.553
 8236POPC   PO442312  29.121  28.399   5.853
 8236POPC   GL142313  29.163  28.355   6.153
 8236POPC   GL242314  29.129  28.236   6.153
 8236POPC   C1A42315  29.178  28.341   6.453
 8236POPC   D2A42316  29.113  28.342   6.753
 8236POPC   C3A42317  29.146  28.373   7.053
 8236POPC   C4A42318  29.170  28.418   7.353
 8236POPC   C1B42319  29.089  28.151   6.453
 8236POPC   C2B42320  29.086  28.106   6.753
 8236POPC   C3B42321  29.087  28.127   7.053
 8236POPC   C4B42322  29.107  28.110   7.353
 8237POPC   NC342323  20.561  20.641   5.553
 8237POPC   PO442324  20.580  20.639   5.853
 8237POPC   GL142325  20.608  20.640   6.153
 8237POPC   GL242326  20.523  20.650   6.153
 8237POPC   C1A42327  20.580  20.585   6.453
 8237POPC   D2A42328  20.592  20.625   6.753
 8237POPC   C3A42329  20.618  20.576   7.053
 8237POPC   C4A42330  20.588  20.576   7.353
 8237POPC   C1B42331  20.336  20.657   6.453
 8237POPC   C2B42332  20.336  20.660   6.753
 8237POPC   C3B42333  20.404  20.652   7.053
 8237POPC   C4B42334  20.395  20.617   7.353
 8238POPC   NC342335  31.424  26.011   5.553
 8238POPC   PO442336  31.443  25.999   5.853
 8238POPC   GL142337  31.444  26.049   6.153
 8238POPC   GL242338  31.556  25.918   6.153
 8238POPC   C1A42339  31.507  26.046   6.453
 8238POPC   D2A42340  31.430  26.088   6.753
 8238POPC   C3A42341  31.509  26.090   7.053
 8238POPC   C4A42342  31.464  26.076   7.353
 8238POPC   C1B42343  31.580  25.840   6.453
 8238POPC   C2B42344  31.562  25.804   6.753
 8238POPC   C3B42345  31.504  25.779   7.053
 8238POPC   C4B42346  31.579  25.779   7.353
 8239POPC   NC342347  31.513  11.274   5.553
 8239POPC   PO442348  31.431  11.342   5.853
 8239POPC   GL142349  31.515  11.347   6.153
 8239POPC   GL242350  31.496  11.199   6.153
 8239POPC   C1A42351  31.517  11.273   6.453
 8239POPC   D2A42352  31.435  11.306   6.753
 8239POPC   C3A42353  31.494  11.332   7.053
 8239POPC   C4A42354  31.480  11.273   7.353
 8239POPC   C1B42355  31.608  11.049   6.453
 8239POPC   C2B42356  31.628  11.088   6.753
 8239POPC   C3B42357  31.564  11.050   7.053
 8239POPC   C4B42358  31.613  11.136   7.353
 8240POPC   NC342359   9.771  22.131   5.553
 8240POPC   PO442360   9.772  22.172   5.853
 8240POPC   GL142361   9.732  22.198   6.153
 8240POPC   GL242362   9.875  22.112   6.153
 8240POPC   C1A42363   9.763  22.148   6.453
 8240POPC   D2A42364   9.731  22.155   6.753
 8240POPC   C3A42365   9.699  22.205   7.053
 8240POPC   C4A42366   9.761  22.195   7.353
 8240POPC   C1B42367   9.992  22.035   6.453
 8240POPC   C2B42368  10.002  22.053   6.753
 8240POPC   C3B42369   9.953  22.119   7.053
 8240POPC   C4B42370  10.030  22.082   7.353
 8241POPC   NC342371  38.501  10.526   5.553
 8241POPC   PO442372  38.449  10.523   5.853
 8241POPC   GL142373  38.462  10.538   6.153
 8241POPC   GL242374  38.481  10.689   6.153
 8241POPC   C1A42375  38.501  10.530   6.453
 8241POPC   D2A42376  38.487  10.476   6.753
 8241POPC   C3A42377  38.470  10.483   7.053
 8241POPC   C4A42378  38.470  10.527   7.353
 8241POPC   C1B42379  38.434  10.802   6.453
 8241POPC   C2B42380  38.380  10.786   6.753
 8241POPC   C3B42381  38.465  10.774   7.053
 8241POPC   C4B42382  38.466  10.784   7.353
 8242POPC   NC342383   2.003   4.343   5.553
 8242POPC   PO442384   1.983   4.344   5.853
 8242POPC   GL142385   1.972   4.336   6.153
 8242POPC   GL242386   1.953   4.434   6.153
 8242POPC   C1A42387   1.951   4.365   6.453
 8242POPC   D2A42388   1.975   4.343   6.753
 8242POPC   C3A42389   1.985   4.307   7.053
 8242POPC   C4A42390   1.943   4.363   7.353
 8242POPC   C1B42391   1.978   4.565   6.453
 8242POPC   C2B42392   1.947   4.521   6.753
 8242POPC   C3B42393   1.923   4.594   7.053
 8242POPC   C4B42394   1.966   4.592   7.353
 8243POPC   NC342395  41.568  33.013   5.553
 8243POPC   PO442396  41.578  32.997   5.853
 8243POPC   GL142397  41.560  33.050   6.153
 8243POPC   GL242398  41.575  33.120   6.153
 8243POPC   C1A42399  41.539  32.980   6.453
 8243POPC   D2A42400  41.562  33.061   6.753
 8243POPC   C3A42401  41.593  33.058   7.053
 8243POPC   C4A42402  41.546  33.016   7.353
 8243POPC   C1B42403  41.569  33.272   6.453
 8243POPC   C2B42404  41.499  33.280   6.753
 8243POPC   C3B42405  41.497  33.239   7.053
 8243POPC   C4B42406  41.479  33.306   7.353
 8244POPC   NC342407  32.254  16.003   5.553
 8244POPC   PO442408  32.247  15.975   5.853
 8244POPC   GL142409  32.273  15.984   6.153
 8244POPC   GL242410  32.103  16.047   6.153
 8244POPC   C1A42411  32.209  15.978   6.453
 8244POPC   D2A42412  32.245  16.003   6.753
 8244POPC   C3A42413  32.257  15.918   7.053
 8244POPC   C4A42414  32.281  15.989   7.353
 8244POPC   C1B42415  31.996  16.005   6.453
 8244POPC   C2B42416  32.063  16.079   6.753
 8244POPC   C3B42417  32.060  16.008   7.053
 8244POPC   C4B42418  32.061  16.036   7.353
 8245POPC   NC342419   3.551  17.505   5.553
 8245POPC   PO442420   3.523  17.467   5.853
 8245POPC   GL142421   3.589  17.478   6.153
 8245POPC   GL242422   3.441  17.630   6.153
 8245POPC   C1A42423   3.558  17.467   6.453
 8245POPC   D2A42424   3.531  17.554   6.753
 8245POPC   C3A42425   3.543  17.458   7.053
 8245POPC   C4A42426   3.521  17.496   7.353
 8245POPC   C1B42427   3.342  17.620   6.453
 8245POPC   C2B42428   3.348  17.671   6.753
 8245POPC   C3B42429   3.378  17.642   7.053
 8245POPC   C4B42430   3.339  17.691   7.353
 8246POPC   NC342431  27.578   9.005   5.553
 8246POPC   PO442432  27.572   8.992   5.853
 8246POPC   GL142433  27.615   8.944   6.153
 8246POPC   GL242434  27.558   8.831   6.153
 8246POPC   C1A42435  27.622   8.964   6.453
 8246POPC   D2A42436  27.564   8.961   6.753
 8246POPC   C3A42437  27.606   9.002   7.053
 8246POPC   C4A42438  27.584   8.950   7.353
 8246POPC   C1B42439  27.419   8.807   6.453
 8246POPC   C2B42440  27.412   8.722   6.753
 8246POPC   C3B42441  27.430   8.782   7.053
 8246POPC   C4B42442  27.420   8.804   7.353
 8247POPC   NC342443  35.329   1.248   5.553
 8247POPC   PO442444  35.386   1.167   5.853
 8247POPC   GL142445  35.319   1.199   6.153
 8247POPC   GL242446  35.431   1.367   6.153
 8247POPC   C1A42447  35.394   1.253   6.453
 8247POPC   D2A42448  35.360   1.224   6.753
 8247POPC   C3A42449  35.361   1.259   7.053
 8247POPC   C4A42450  35.324   1.169   7.353
 8247POPC   C1B42451  35.452   1.407   6.453
 8247POPC   C2B42452  35.438   1.472   6.753
 8247POPC   C3B42453  35.434   1.451   7.053
 8247POPC   C4B42454  35.475   1.383   7.353
 8248POPC   NC342455  43.115  23.667   5.553
 8248POPC   PO442456  43.099  23.725   5.853
 8248POPC   GL142457  43.114  23.728   6.153
 8248POPC   GL242458  43.171  23.582   6.153
 8248POPC   C1A42459  43.091  23.731   6.453
 8248POPC   D2A42460  43.098  23.727   6.753
 8248POPC   C3A42461  43.125  23.746   7.053
 8248POPC   C4A42462  43.063  23.680   7.353
 8248POPC   C1B42463  43.268  23.531   6.453
 8248POPC   C2B42464  43.289  23.518   6.753
 8248POPC   C3B42465  43.273  23.530   7.053
 8248POPC   C4B42466  43.241  23.502   7.353
 8249POPC   NC342467   3.528  37.698   5.553
 8249POPC   PO442468   3.586  37.659   5.853
 8249POPC   GL142469   3.496  37.701   6.153
 8249POPC   GL242470   3.467  37.793   6.153
 8249POPC   C1A42471   3.579  37.648   6.453
 8249POPC   D2A42472   3.497  37.652   6.753
 8249POPC   C3A42473   3.548  37.707   7.053
 8249POPC   C4A42474   3.562  37.698   7.353
 8249POPC   C1B42475   3.374  37.862   6.453
 8249POPC   C2B42476   3.372  37.928   6.753
 8249POPC   C3B42477   3.391  37.904   7.053
 8249POPC   C4B42478   3.374  37.852   7.353
 8250POPC   NC342479  43.096  32.982   5.553
 8250POPC   PO442480  43.096  32.988   5.853
 8250POPC   GL142481  43.091  33.032   6.153
 8250POPC   GL242482  43.012  32.968   6.153
 8250POPC   C1A42483  43.103  33.057   6.453
 8250POPC   D2A42484  43.117  32.986   6.753
 8250POPC   C3A42485  43.155  33.016   7.053
 8250POPC   C4A42486  43.071  32.987   7.353
 8250POPC   C1B42487  42.891  32.822   6.453
 8250POPC   C2B42488  42.882  32.875   6.753
 8250POPC   C3B42489  42.965  32.812   7.053
 8250POPC   C4B42490  42.898  32.897   7.353
 8251POPC   NC342491  19.826  43.130   5.553
 8251POPC   PO442492  19.868  43.085   5.853
 8251POPC   GL142493  19.868  43.119   6.153
 8251POPC   GL242494  19.853  43.198   6.153
 8251POPC   C1A42495  19.812  43.098   6.453
 8251POPC   D2A42496  19.837  43.133   6.753
 8251POPC   C3A42497  19.876  43.061   7.053
 8251POPC   C4A42498  19.879  43.087   7.353
 8251POPC   C1B42499  19.929  43.357   6.453
 8251POPC   C2B42500  19.915  43.404   6.753
 8251POPC   C3B42501  19.853  43.310   7.053
 8251POPC   C4B42502  19.925  43.366   7.353
 8252POPC   NC342503  34.545  42.348   5.553
 8252POPC   PO442504  34.572  42.288   5.853
 8252POPC   GL142505  34.556  42.300   6.153
 8252POPC   GL242506  34.408  42.310   6.153
 8252POPC   C1A42507  34.544  42.366   6.453
 8252POPC   D2A42508  34.530  42.369   6.753
 8252POPC   C3A42509  34.578  42.302   7.053
 8252POPC   C4A42510  34.534  42.360   7.353
 8252POPC   C1B42511  34.354  42.269   6.453
 8252POPC   C2B42512  34.281  42.345   6.753
 8252POPC   C3B42513  34.333  42.363   7.053
 8252POPC   C4B42514  34.351  42.282   7.353
 8253POPC   NC342515   8.185  28.391   5.553
 8253POPC   PO442516   8.241  28.393   5.853
 8253POPC   GL142517   8.228  28.402   6.153
 8253POPC   GL242518   8.230  28.224   6.153
 8253POPC   C1A42519   8.148  28.377   6.453
 8253POPC   D2A42520   8.186  28.419   6.753
 8253POPC   C3A42521   8.196  28.323   7.053
 8253POPC   C4A42522   8.164  28.344   7.353
 8253POPC   C1B42523   8.254  28.088   6.453
 8253POPC   C2B42524   8.324  28.126   6.753
 8253POPC   C3B42525   8.308  28.115   7.053
 8253POPC   C4B42526   8.309  28.133   7.353
 8254POPC   NC342527  19.858  21.384   5.553
 8254POPC   PO442528  19.856  21.401   5.853
 8254POPC   GL142529  19.811  21.400   6.153
 8254POPC   GL242530  19.994  21.301   6.153
 8254POPC   C1A42531  19.864  21.375   6.453
 8254POPC   D2A42532  19.807  21.414   6.753
 8254POPC   C3A42533  19.877  21.387   7.053
 8254POPC   C4A42534  19.785  21.348   7.353
 8254POPC   C1B42535  20.026  21.263   6.453
 8254POPC   C2B42536  20.107  21.299   6.753
 8254POPC   C3B42537  20.037  21.348   7.053
 8254POPC   C4B42538  20.025  21.326   7.353
 8255POPC   NC342539  16.683   6.647   5.553
 8255POPC   PO442540  16.776   6.639   5.853
 8255POPC   GL142541  16.715   6.639   6.153
 8255POPC   GL242542  16.869   6.580   6.153
 8255POPC   C1A42543  16.713   6.613   6.453
 8255POPC   D2A42544  16.719   6.678   6.753
 8255POPC   C3A42545  16.750   6.604   7.053
 8255POPC   C4A42546  16.774   6.619   7.353
 8255POPC   C1B42547  16.967   6.620   6.453
 8255POPC   C2B42548  16.980   6.566   6.753
 8255POPC   C3B42549  17.017   6.610   7.053
 8255POPC   C4B42550  17.019   6.662   7.353
 8256POPC   NC342551  27.616   8.218   5.553
 8256POPC   PO442552  27.552   8.217   5.853
 8256POPC   GL142553  27.599   8.180   6.153
 8256POPC   GL242554  27.438   8.251   6.153
 8256POPC   C1A42555  27.571   8.213   6.453
 8256POPC   D2A42556  27.621   8.184   6.753
 8256POPC   C3A42557  27.632   8.205   7.053
 8256POPC   C4A42558  27.554   8.186   7.353
 8256POPC   C1B42559  27.319   8.191   6.453
 8256POPC   C2B42560  27.364   8.258   6.753
 8256POPC   C3B42561  27.371   8.215   7.053
 8256POPC   C4B42562  27.308   8.253   7.353
 8257POPC   NC342563  36.939  10.561   5.553
 8257POPC   PO442564  36.939  10.506   5.853
 8257POPC   GL142565  36.855  10.515   6.153
 8257POPC   GL242566  37.069  10.579   6.153
 8257POPC   C1A42567  36.952  10.494   6.453
 8257POPC   D2A42568  36.908  10.477   6.753
 8257POPC   C3A42569  36.922  10.510   7.053
 8257POPC   C4A42570  36.929  10.488   7.353
 8257POPC   C1B42571  37.188  10.527   6.453
 8257POPC   C2B42572  37.198  10.578   6.753
 8257POPC   C3B42573  37.117  10.533   7.053
 8257POPC   C4B42574  37.164  10.522   7.353
 8258POPC   NC342575  26.068  29.133   5.553
 8258POPC   PO442576  26.020  29.105   5.853
 8258POPC   GL142577  26.037  29.187   6.153
 8258POPC   GL242578  25.987  29.193   6.153
 8258POPC   C1A42579  26.068  29.112   6.453
 8258POPC   D2A42580  26.031  29.179   6.753
 8258POPC   C3A42581  26.076  29.135   7.053
 8258POPC   C4A42582  26.002  29.126   7.353
 8258POPC   C1B42583  25.818  29.270   6.453
 8258POPC   C2B42584  25.870  29.243   6.753
 8258POPC   C3B42585  25.809  29.294   7.053
 8258POPC   C4B42586  25.862  29.243   7.353
 8259POPC   NC342587  43.122   3.503   5.553
 8259POPC   PO442588  43.121   3.560   5.853
 8259POPC   GL142589  43.118   3.541   6.153
 8259POPC   GL242590  43.117   3.711   6.153
 8259POPC   C1A42591  43.141   3.586   6.453
 8259POPC   D2A42592  43.101   3.570   6.753
 8259POPC   C3A42593  43.146   3.580   7.053
 8259POPC   C4A42594  43.080   3.569   7.353
 8259POPC   C1B42595  43.141   3.767   6.453
 8259POPC   C2B42596  43.182   3.806   6.753
 8259POPC   C3B42597  43.209   3.813   7.053
 8259POPC   C4B42598  43.145   3.831   7.353
 8260POPC   NC342599  26.789  33.840   5.553
 8260POPC   PO442600  26.805  33.767   5.853
 8260POPC   GL142601  26.806  33.788   6.153
 8260POPC   GL242602  26.755  33.692   6.153
 8260POPC   C1A42603  26.862  33.773   6.453
 8260POPC   D2A42604  26.864  33.762   6.753
 8260POPC   C3A42605  26.767  33.753   7.053
 8260POPC   C4A42606  26.816  33.807   7.353
 8260POPC   C1B42607  26.745  33.552   6.453
 8260POPC   C2B42608  26.825  33.533   6.753
 8260POPC   C3B42609  26.814  33.584   7.053
 8260POPC   C4B42610  26.774  33.506   7.353
 8261POPC   NC342611  33.055  29.960   5.553
 8261POPC   PO442612  33.031  29.882   5.853
 8261POPC   GL142613  33.044  29.963   6.153
 8261POPC   GL242614  32.920  29.833   6.153
 8261POPC   C1A42615  33.052  29.930   6.453
 8261POPC   D2A42616  33.061  29.960   6.753
 8261POPC   C3A42617  33.069  29.935   7.053
 8261POPC   C4A42618  33.018  29.962   7.353
 8261POPC   C1B42619  32.856  29.699   6.453
 8261POPC   C2B42620  32.870  29.715   6.753
 8261POPC   C3B42621  32.889  29.712   7.053
 8261POPC   C4B42622  32.856  29.763   7.353
 8262POPC   NC342623  31.461  38.493   5.553
 8262POPC   PO442624  31.496  38.487   5.853
 8262POPC   GL142625  31.442  38.475   6.153
 8262POPC   GL242626  31.360  38.524   6.153
 8262POPC   C1A42627  31.463  38.471   6.453
 8262POPC   D2A42628  31.430  38.473   6.753
 8262POPC   C3A42629  31.515  38.423   7.053
 8262POPC   C4A42630  31.447  38.418   7.353
 8262POPC   C1B42631  31.256  38.564   6.453
 8262POPC   C2B42632  31.247  38.576   6.753
 8262POPC   C3B42633  31.219  38.632   7.053
 8262POPC   C4B42634  31.243  38.586   7.353
 8263POPC   NC342635   2.778  13.591   5.553
 8263POPC   PO442636   2.745  13.675   5.853
 8263POPC   GL142637   2.757  13.622   6.153
 8263POPC   GL242638   2.768  13.483   6.153
 8263POPC   C1A42639   2.741  13.585   6.453
 8263POPC   D2A42640   2.721  13.655   6.753
 8263POPC   C3A42641   2.738  13.660   7.053
 8263POPC   C4A42642   2.727  13.649   7.353
 8263POPC   C1B42643   2.689  13.405   6.453
 8263POPC   C2B42644   2.683  13.405   6.753
 8263POPC   C3B42645   2.765  13.362   7.053
 8263POPC   C4B42646   2.767  13.416   7.353
 8264POPC   NC342647  23.708  15.214   5.553
 8264POPC   PO442648  23.681  15.204   5.853
 8264POPC   GL142649  23.706  15.148   6.153
 8264POPC   GL242650  23.662  15.306   6.153
 8264POPC   C1A42651  23.762  15.214   6.453
 8264POPC   D2A42652  23.702  15.215   6.753
 8264POPC   C3A42653  23.757  15.224   7.053
 8264POPC   C4A42654  23.748  15.132   7.353
 8264POPC   C1B42655  23.669  15.410   6.453
 8264POPC   C2B42656  23.665  15.408   6.753
 8264POPC   C3B42657  23.645  15.430   7.053
 8264POPC   C4B42658  23.610  15.392   7.353
 8265POPC   NC342659  29.186  30.732   5.553
 8265POPC   PO442660  29.161  30.682   5.853
 8265POPC   GL142661  29.096  30.694   6.153
 8265POPC   GL242662  29.252  30.689   6.153
 8265POPC   C1A42663  29.188  30.695   6.453
 8265POPC   D2A42664  29.149  30.649   6.753
 8265POPC   C3A42665  29.126  30.671   7.053
 8265POPC   C4A42666  29.127  30.703   7.353
 8265POPC   C1B42667  29.398  30.664   6.453
 8265POPC   C2B42668  29.349  30.659   6.753
 8265POPC   C3B42669  29.391  30.670   7.053
 8265POPC   C4B42670  29.356  30.667   7.353
 8266POPC   NC342671   5.131  34.573   5.553
 8266POPC   PO442672   5.119  34.533   5.853
 8266POPC   GL142673   5.055  34.618   6.153
 8266POPC   GL242674   5.035  34.468   6.153
 8266POPC   C1A42675   5.125  34.554   6.453
 8266POPC   D2A42676   5.067  34.619   6.753
 8266POPC   C3A42677   5.142  34.551   7.053
 8266POPC   C4A42678   5.122  34.562   7.353
 8266POPC   C1B42679   4.985  34.340   6.453
 8266POPC   C2B42680   4.930  34.374   6.753
 8266POPC   C3B42681   4.931  34.355   7.053
 8266POPC   C4B42682   4.949  34.341   7.353
 8267POPC   NC342683   0.463  21.390   5.553
 8267POPC   PO442684   0.433  21.379   5.853
 8267POPC   GL142685   0.453  21.412   6.153
 8267POPC   GL242686   0.521  21.425   6.153
 8267POPC   C1A42687   0.456  21.372   6.453
 8267POPC   D2A42688   0.392  21.396   6.753
 8267POPC   C3A42689   0.475  21.377   7.053
 8267POPC   C4A42690   0.439  21.416   7.353
 8267POPC   C1B42691   0.674  21.550   6.453
 8267POPC   C2B42692   0.637  21.544   6.753
 8267POPC   C3B42693   0.658  21.475   7.053
 8267POPC   C4B42694   0.708  21.467   7.353
 8268POPC   NC342695   1.166   5.895   5.553
 8268POPC   PO442696   1.248   5.833   5.853
 8268POPC   GL142697   1.250   5.848   6.153
 8268POPC   GL242698   1.111   6.005   6.153
 8268POPC   C1A42699   1.220   5.881   6.453
 8268POPC   D2A42700   1.222   5.897   6.753
 8268POPC   C3A42701   1.253   5.910   7.053
 8268POPC   C4A42702   1.180   5.894   7.353
 8268POPC   C1B42703   1.023   6.065   6.453
 8268POPC   C2B42704   1.064   6.027   6.753
 8268POPC   C3B42705   1.017   6.045   7.053
 8268POPC   C4B42706   1.079   6.101   7.353
 8269POPC   NC342707  25.222  12.109   5.553
 8269POPC   PO442708  25.233  12.041   5.853
 8269POPC   GL142709  25.306  12.076   6.153
 8269POPC   GL242710  25.344  12.164   6.153
 8269POPC   C1A42711  25.267  12.047   6.453
 8269POPC   D2A42712  25.275  12.028   6.753
 8269POPC   C3A42713  25.300  12.079   7.053
 8269POPC   C4A42714  25.273  12.074   7.353
 8269POPC   C1B42715  25.385  12.286   6.453
 8269POPC   C2B42716  25.426  12.282   6.753
 8269POPC   C3B42717  25.431  12.290   7.053
 8269POPC   C4B42718  25.446  12.264   7.353
 8270POPC   NC342719  43.140  42.305   5.553
 8270POPC   PO442720  43.135  42.287   5.853
 8270POPC   GL142721  43.110  42.338   6.153
 8270POPC   GL242722  43.103  42.502   6.153
 8270POPC   C1A42723  43.075  42.341   6.453
 8270POPC   D2A42724  43.078  42.316   6.753
 8270POPC   C3A42725  43.088  42.322   7.053
 8270POPC   C4A42726  43.160  42.329   7.353
 8270POPC   C1B42727  43.183  42.583   6.453
 8270POPC   C2B42728  43.155  42.585   6.753
 8270POPC   C3B42729  43.135  42.548   7.053
 8270POPC   C4B42730  43.215  42.581   7.353
 8271POPC   NC342731  30.706  34.611   5.553
 8271POPC   PO442732  30.726  34.557   5.853
 8271POPC   GL142733  30.734  34.591   6.153
 8271POPC   GL242734  30.665  34.450   6.153
 8271POPC   C1A42735  30.693  34.568   6.453
 8271POPC   D2A42736  30.706  34.540   6.753
 8271POPC   C3A42737  30.665  34.557   7.053
 8271POPC   C4A42738  30.728  34.620   7.353
 8271POPC   C1B42739  30.571  34.299   6.453
 8271POPC   C2B42740  30.578  34.328   6.753
 8271POPC   C3B42741  30.622  34.300   7.053
 8271POPC   C4B42742  30.641  34.324   7.353
 8272POPC   NC342743  20.655   8.931   5.553
 8272POPC   PO442744  20.567   8.938   5.853
 8272POPC   GL142745  20.567   9.010   6.153
 8272POPC   GL242746  20.540   8.907   6.153
 8272POPC   C1A42747  20.639   8.955   6.453
 8272POPC   D2A42748  20.591   9.000   6.753
 8272POPC   C3A42749  20.585   8.965   7.053
 8272POPC   C4A42750  20.573   9.014   7.353
 8272POPC   C1B42751  20.556   8.755   6.453
 8272POPC   C2B42752  20.509   8.716   6.753
 8272POPC   C3B42753  20.536   8.700   7.053
 8272POPC   C4B42754  20.497   8.758   7.353
 8273POPC   NC342755  14.394  42.378   5.553
 8273POPC   PO442756  14.401  42.294   5.853
 8273POPC   GL142757  14.357  42.362   6.153
 8273POPC   GL242758  14.517  42.375   6.153
 8273POPC   C1A42759  14.449  42.366   6.453
 8273POPC   D2A42760  14.434  42.339   6.753
 8273POPC   C3A42761  14.408  42.372   7.053
 8273POPC   C4A42762  14.448  42.297   7.353
 8273POPC   C1B42763  14.665  42.320   6.453
 8273POPC   C2B42764  14.628  42.379   6.753
 8273POPC   C3B42765  14.615  42.395   7.053
 8273POPC   C4B42766  14.686  42.378   7.353
 8274POPC   NC342767   6.651  28.369   5.553
 8274POPC   PO442768   6.633  28.367   5.853
 8274POPC   GL142769   6.667  28.384   6.153
 8274POPC   GL242770   6.638  28.229   6.153
 8274POPC   C1A42771   6.647  28.320   6.453
 8274POPC   D2A42772   6.687  28.403   6.753
 8274POPC   C3A42773   6.670  28.358   7.053
 8274POPC   C4A42774   6.613  28.413   7.353
 8274POPC   C1B42775   6.673  28.077   6.453
 8274POPC   C2B42776   6.673  28.109   6.753
 8274POPC   C3B42777   6.593  28.100   7.053
 8274POPC   C4B42778   6.623  28.167   7.353
 8275POPC   NC342779  19.072   5.916   5.553
 8275POPC   PO442780  19.102   5.908   5.853
 8275POPC   GL142781  19.038   5.864   6.153
 8275POPC   GL242782  19.119   5.735   6.153
 8275POPC   C1A42783  19.072   5.834   6.453
 8275POPC   D2A42784  19.022   5.886   6.753
 8275POPC   C3A42785  19.053   5.863   7.053
 8275POPC   C4A42786  19.020   5.860   7.353
 8275POPC   C1B42787  19.123   5.583   6.453
 8275POPC   C2B42788  19.155   5.600   6.753
 8275POPC   C3B42789  19.104   5.645   7.053
 8275POPC   C4B42790  19.129   5.643   7.353
 8276POPC   NC342791   0.482   0.415   5.553
 8276POPC   PO442792   0.466   0.412   5.853
 8276POPC   GL142793   0.420   0.464   6.153
 8276POPC   GL242794   0.353   0.448   6.153
 8276POPC   C1A42795   0.464   0.394   6.453
 8276POPC   D2A42796   0.485   0.409   6.753
 8276POPC   C3A42797   0.452   0.402   7.053
 8276POPC   C4A42798   0.464   0.486   7.353
 8276POPC   C1B42799   0.178   0.380   6.453
 8276POPC   C2B42800   0.173   0.408   6.753
 8276POPC   C3B42801   0.234   0.428   7.053
 8276POPC   C4B42802   0.168   0.407   7.353
 8277POPC   NC342803  24.497  42.368   5.553
 8277POPC   PO442804  24.533  42.286   5.853
 8277POPC   GL142805  24.504  42.295   6.153
 8277POPC   GL242806  24.557  42.220   6.153
 8277POPC   C1A42807  24.507  42.380   6.453
 8277POPC   D2A42808  24.527  42.381   6.753
 8277POPC   C3A42809  24.440  42.321   7.053
 8277POPC   C4A42810  24.529  42.358   7.353
 8277POPC   C1B42811  24.706  42.209   6.453
 8277POPC   C2B42812  24.687  42.187   6.753
 8277POPC   C3B42813  24.678  42.207   7.053
 8277POPC   C4B42814  24.628  42.198   7.353
 8278POPC   NC342815   9.747  18.234   5.553
 8278POPC   PO442816   9.704  18.284   5.853
 8278POPC   GL142817   9.717  18.281   6.153
 8278POPC   GL242818   9.693  18.213   6.153
 8278POPC   C1A42819   9.712  18.301   6.453
 8278POPC   D2A42820   9.762  18.301   6.753
 8278POPC   C3A42821   9.701  18.283   7.053
 8278POPC   C4A42822   9.729  18.266   7.353
 8278POPC   C1B42823   9.563  18.123   6.453
 8278POPC   C2B42824   9.584  18.092   6.753
 8278POPC   C3B42825   9.620  18.086   7.053
 8278POPC   C4B42826   9.647  18.119   7.353
 8279POPC   NC342827   4.277  36.095   5.553
 8279POPC   PO442828   4.286  36.166   5.853
 8279POPC   GL142829   4.283  36.151   6.153
 8279POPC   GL242830   4.227  36.231   6.153
 8279POPC   C1A42831   4.317  36.162   6.453
 8279POPC   D2A42832   4.333  36.080   6.753
 8279POPC   C3A42833   4.366  36.147   7.053
 8279POPC   C4A42834   4.315  36.143   7.353
 8279POPC   C1B42835   4.111  36.300   6.453
 8279POPC   C2B42836   4.121  36.257   6.753
 8279POPC   C3B42837   4.106  36.221   7.053
 8279POPC   C4B42838   4.138  36.258   7.353
 8280POPC   NC342839  17.482  43.105   5.553
 8280POPC   PO442840  17.550  43.113   5.853
 8280POPC   GL142841  17.516  43.086   6.153
 8280POPC   GL242842  17.401  42.960   6.153
 8280POPC   C1A42843  17.514  43.065   6.453
 8280POPC   D2A42844  17.502  43.073   6.753
 8280POPC   C3A42845  17.464  43.061   7.053
 8280POPC   C4A42846  17.552  43.125   7.353
 8280POPC   C1B42847  17.373  42.904   6.453
 8280POPC   C2B42848  17.381  42.863   6.753
 8280POPC   C3B42849  17.350  42.932   7.053
 8280POPC   C4B42850  17.324  42.866   7.353
 8281POPC   NC342851  13.660  20.646   5.553
 8281POPC   PO442852  13.646  20.596   5.853
 8281POPC   GL142853  13.676  20.643   6.153
 8281POPC   GL242854  13.774  20.680   6.153
 8281POPC   C1A42855  13.638  20.630   6.453
 8281POPC   D2A42856  13.668  20.574   6.753
 8281POPC   C3A42857  13.627  20.578   7.053
 8281POPC   C4A42858  13.629  20.591   7.353
 8281POPC   C1B42859  13.842  20.696   6.453
 8281POPC   C2B42860  13.812  20.697   6.753
 8281POPC   C3B42861  13.869  20.695   7.053
 8281POPC   C4B42862  13.798  20.776   7.353
 8282POPC   NC342863  25.243  17.498   5.553
 8282POPC   PO442864  25.276  17.507   5.853
 8282POPC   GL142865  25.286  17.545   6.153
 8282POPC   GL242866  25.317  17.585   6.153
 8282POPC   C1A42867  25.262  17.543   6.453
 8282POPC   D2A42868  25.226  17.463   6.753
 8282POPC   C3A42869  25.249  17.523   7.053
 8282POPC   C4A42870  25.257  17.539   7.353
 8282POPC   C1B42871  25.327  17.798   6.453
 8282POPC   C2B42872  25.242  17.805   6.753
 8282POPC   C3B42873  25.241  17.765   7.053
 8282POPC   C4B42874  25.285  17.727   7.353
 8283POPC   NC342875  36.101  29.954   5.553
 8283POPC   PO442876  36.087  29.882   5.853
 8283POPC   GL142877  36.120  29.938   6.153
 8283POPC   GL242878  36.112  29.769   6.153
 8283POPC   C1A42879  36.093  29.929   6.453
 8283POPC   D2A42880  36.088  29.909   6.753
 8283POPC   C3A42881  36.097  29.967   7.053
 8283POPC   C4A42882  36.143  29.969   7.353
 8283POPC   C1B42883  36.143  29.685   6.453
 8283POPC   C2B42884  36.105  29.711   6.753
 8283POPC   C3B42885  36.109  29.698   7.053
 8283POPC   C4B42886  36.197  29.652   7.353
 8284POPC   NC342887  42.328  44.654   5.553
 8284POPC   PO442888  42.286  44.650   5.853
 8284POPC   GL142889  42.324  44.668   6.153
 8284POPC   GL242890  42.415  44.614   6.153
 8284POPC   C1A42891  42.343  44.617   6.453
 8284POPC   D2A42892  42.332  44.649   6.753
 8284POPC   C3A42893  42.325  44.679   7.053
 8284POPC   C4A42894  42.361  44.709   7.353
 8284POPC   C1B42895  42.556  44.539   6.453
 8284POPC   C2B42896  42.549  44.540   6.753
 8284POPC   C3B42897  42.525  44.536   7.053
 8284POPC   C4B42898  42.577  44.543   7.353
 8285POPC   NC342899  13.605  15.178   5.553
 8285POPC   PO442900  13.619  15.209   5.853
 8285POPC   GL142901  13.678  15.141   6.153
 8285POPC   GL242902  13.625  15.029   6.153
 8285POPC   C1A42903  13.673  15.196   6.453
 8285POPC   D2A42904  13.666  15.157   6.753
 8285POPC   C3A42905  13.586  15.146   7.053
 8285POPC   C4A42906  13.631  15.202   7.353
 8285POPC   C1B42907  13.665  14.980   6.453
 8285POPC   C2B42908  13.727  14.951   6.753
 8285POPC   C3B42909  13.752  14.963   7.053
 8285POPC   C4B42910  13.705  14.944   7.353
 8286POPC   NC342911  22.924  10.508   5.553
 8286POPC   PO442912  22.907  10.564   5.853
 8286POPC   GL142913  22.938  10.535   6.153
 8286POPC   GL242914  23.081  10.420   6.153
 8286POPC   C1A42915  22.916  10.480   6.453
 8286POPC   D2A42916  22.977  10.560   6.753
 8286POPC   C3A42917  22.909  10.539   7.053
 8286POPC   C4A42918  22.985  10.483   7.353
 8286POPC   C1B42919  23.086  10.332   6.453
 8286POPC   C2B42920  23.155  10.321   6.753
 8286POPC   C3B42921  23.100  10.356   7.053
 8286POPC   C4B42922  23.140  10.347   7.353
 8287POPC   NC342923   6.670  16.722   5.553
 8287POPC   PO442924   6.634  16.718   5.853
 8287POPC   GL142925   6.664  16.738   6.153
 8287POPC   GL242926   6.644  16.597   6.153
 8287POPC   C1A42927   6.603  16.763   6.453
 8287POPC   D2A42928   6.677  16.772   6.753
 8287POPC   C3A42929   6.638  16.776   7.053
 8287POPC   C4A42930   6.684  16.685   7.353
 8287POPC   C1B42931   6.698  16.489   6.453
 8287POPC   C2B42932   6.712  16.485   6.753
 8287POPC   C3B42933   6.698  16.473   7.053
 8287POPC   C4B42934   6.760  16.465   7.353
 8288POPC   NC342935  15.971  17.529   5.553
 8288POPC   PO442936  15.984  17.481   5.853
 8288POPC   GL142937  15.936  17.511   6.153
 8288POPC   GL242938  16.028  17.388   6.153
 8288POPC   C1A42939  15.915  17.515   6.453
 8288POPC   D2A42940  15.986  17.458   6.753
 8288POPC   C3A42941  15.945  17.475   7.053
 8288POPC   C4A42942  15.999  17.508   7.353
 8288POPC   C1B42943  16.060  17.329   6.453
 8288POPC   C2B42944  16.030  17.317   6.753
 8288POPC   C3B42945  16.108  17.272   7.053
 8288POPC   C4B42946  16.084  17.273   7.353
 8289POPC   NC342947  17.530  31.459   5.553
 8289POPC   PO442948  17.543  31.457   5.853
 8289POPC   GL142949  17.505  31.517   6.153
 8289POPC   GL242950  17.345  31.468   6.153
 8289POPC   C1A42951  17.531  31.453   6.453
 8289POPC   D2A42952  17.548  31.480   6.753
 8289POPC   C3A42953  17.557  31.485   7.053
 8289POPC   C4A42954  17.495  31.426   7.353
 8289POPC   C1B42955  17.307  31.411   6.453
 8289POPC   C2B42956  17.308  31.401   6.753
 8289POPC   C3B42957  17.242  31.382   7.053
 8289POPC   C4B42958  17.245  31.375   7.353
 8290POPC   NC342959  38.422  24.469   5.553
 8290POPC   PO442960  38.435  24.457   5.853
 8290POPC   GL142961  38.435  24.532   6.153
 8290POPC   GL242962  38.398  24.343   6.153
 8290POPC   C1A42963  38.443  24.485   6.453
 8290POPC   D2A42964  38.463  24.505   6.753
 8290POPC   C3A42965  38.450  24.490   7.053
 8290POPC   C4A42966  38.475  24.527   7.353
 8290POPC   C1B42967  38.417  24.231   6.453
 8290POPC   C2B42968  38.446  24.249   6.753
 8290POPC   C3B42969  38.421  24.276   7.053
 8290POPC   C4B42970  38.352  24.292   7.353
 8291POPC   NC342971  32.979  38.466   5.553
 8291POPC   PO442972  33.069  38.406   5.853
 8291POPC   GL142973  32.978  38.480   6.153
 8291POPC   GL242974  32.980  38.328   6.153
 8291POPC   C1A42975  33.065  38.424   6.453
 8291POPC   D2A42976  33.002  38.433   6.753
 8291POPC   C3A42977  33.031  38.468   7.053
 8291POPC   C4A42978  33.009  38.499   7.353
 8291POPC   C1B42979  32.819  38.301   6.453
 8291POPC   C2B42980  32.859  38.262   6.753
 8291POPC   C3B42981  32.851  38.327   7.053
 8291POPC   C4B42982  32.823  38.269   7.353
 8292POPC   NC342983  42.363  25.994   5.553
 8292POPC   PO442984  42.359  26.037   5.853
 8292POPC   GL142985  42.338  25.997   6.153
 8292POPC   GL242986  42.311  25.946   6.153
 8292POPC   C1A42987  42.347  26.060   6.453
 8292POPC   D2A42988  42.353  26.029   6.753
 8292POPC   C3A42989  42.310  26.002   7.053
 8292POPC   C4A42990  42.318  26.001   7.353
 8292POPC   C1B42991  42.238  25.856   6.453
 8292POPC   C2B42992  42.185  25.799   6.753
 8292POPC   C3B42993  42.196  25.835   7.053
 8292POPC   C4B42994  42.255  25.808   7.353
 8293POPC   NC342995  27.567  35.398   5.553
 8293POPC   PO442996  27.580  35.307   5.853
 8293POPC   GL142997  27.554  35.321   6.153
 8293POPC   GL242998  27.453  35.435   6.153
 8293POPC   C1A42999  27.621  35.322   6.453
 8293POPC   D2A43000  27.619  35.334   6.753
 8293POPC   C3A43001  27.621  35.363   7.053
 8293POPC   C4A43002  27.589  35.367   7.353
 8293POPC   C1B43003  27.343  35.424   6.453
 8293POPC   C2B43004  27.329  35.484   6.753
 8293POPC   C3B43005  27.359  35.448   7.053
 8293POPC   C4B43006  27.338  35.451   7.353
 8294POPC   NC343007  29.180  33.051   5.553
 8294POPC   PO443008  29.184  33.014   5.853
 8294POPC   GL143009  29.122  33.040   6.153
 8294POPC   GL243010  29.061  33.138   6.153
 8294POPC   C1A43011  29.166  33.057   6.453
 8294POPC   D2A43012  29.095  33.061   6.753
 8294POPC   C3A43013  29.098  33.015   7.053
 8294POPC   C4A43014  29.115  33.038   7.353
 8294POPC   C1B43015  29.010  33.302   6.453
 8294POPC   C2B43016  29.080  33.273   6.753
 8294POPC   C3B43017  29.070  33.269   7.053
 8294POPC   C4B43018  29.099  33.300   7.353
 8295POPC   NC343019  39.249  10.528   5.553
 8295POPC   PO443020  39.258  10.555   5.853
 8295POPC   GL143021  39.271  10.563   6.153
 8295POPC   GL243022  39.179  10.435   6.153
 8295POPC   C1A43023  39.233  10.554   6.453
 8295POPC   D2A43024  39.250  10.483   6.753
 8295POPC   C3A43025  39.188  10.556   7.053
 8295POPC   C4A43026  39.249  10.509   7.353
 8295POPC   C1B43027  39.032  10.334   6.453
 8295POPC   C2B43028  39.066  10.315   6.753
 8295POPC   C3B43029  39.016  10.320   7.053
 8295POPC   C4B43030  39.067  10.316   7.353
 8296POPC   NC343031  26.088   8.237   5.553
 8296POPC   PO443032  26.046   8.237   5.853
 8296POPC   GL143033  26.016   8.226   6.153
 8296POPC   GL243034  26.161   8.196   6.153
 8296POPC   C1A43035  26.013   8.203   6.453
 8296POPC   D2A43036  26.055   8.173   6.753
 8296POPC   C3A43037  26.038   8.151   7.053
 8296POPC   C4A43038  25.998   8.220   7.353
 8296POPC   C1B43039  26.303   8.150   6.453
 8296POPC   C2B43040  26.282   8.103   6.753
 8296POPC   C3B43041  26.235   8.092   7.053
 8296POPC   C4B43042  26.230   8.074   7.353
 8297POPC   NC343043  37.670   1.193   5.553
 8297POPC   PO443044  37.723   1.188   5.853
 8297POPC   GL143045  37.631   1.249   6.153
 8297POPC   GL243046  37.643   1.056   6.153
 8297POPC   C1A43047  37.657   1.204   6.453
 8297POPC   D2A43048  37.696   1.220   6.753
 8297POPC   C3A43049  37.711   1.215   7.053
 8297POPC   C4A43050  37.647   1.208   7.353
 8297POPC   C1B43051  37.621   0.951   6.453
 8297POPC   C2B43052  37.577   0.983   6.753
 8297POPC   C3B43053  37.613   0.939   7.053
 8297POPC   C4B43054  37.584   1.001   7.353
 8298POPC   NC343055  35.335  25.228   5.553
 8298POPC   PO443056  35.306  25.227   5.853
 8298POPC   GL143057  35.391  25.313   6.153
 8298POPC   GL243058  35.293  25.395   6.153
 8298POPC   C1A43059  35.400  25.257   6.453
 8298POPC   D2A43060  35.379  25.305   6.753
 8298POPC   C3A43061  35.373  25.293   7.053
 8298POPC   C4A43062  35.333  25.226   7.353
 8298POPC   C1B43063  35.290  25.532   6.453
 8298POPC   C2B43064  35.244  25.528   6.753
 8298POPC   C3B43065  35.266  25.482   7.053
 8298POPC   C4B43066  35.263  25.547   7.353
 8299POPC   NC343067  25.261  30.715   5.553
 8299POPC   PO443068  25.233  30.667   5.853
 8299POPC   GL143069  25.251  30.744   6.153
 8299POPC   GL243070  25.333  30.743   6.153
 8299POPC   C1A43071  25.266  30.647   6.453
 8299POPC   D2A43072  25.234  30.745   6.753
 8299POPC   C3A43073  25.232  30.715   7.053
 8299POPC   C4A43074  25.222  30.739   7.353
 8299POPC   C1B43075  25.440  30.934   6.453
 8299POPC   C2B43076  25.391  30.898   6.753
 8299POPC   C3B43077  25.427  30.931   7.053
 8299POPC   C4B43078  25.413  30.899   7.353
 8300POPC   NC343079   9.712  36.099   5.553
 8300POPC   PO443080   9.790  36.112   5.853
 8300POPC   GL143081   9.785  36.176   6.153
 8300POPC   GL243082   9.711  36.035   6.153
 8300POPC   C1A43083   9.767  36.093   6.453
 8300POPC   D2A43084   9.753  36.176   6.753
 8300POPC   C3A43085   9.702  36.147   7.053
 8300POPC   C4A43086   9.721  36.124   7.353
 8300POPC   C1B43087   9.726  35.832   6.453
 8300POPC   C2B43088   9.771  35.915   6.753
 8300POPC   C3B43089   9.718  35.921   7.053
 8300POPC   C4B43090   9.787  35.900   7.353
 8301POPC   NC343091   5.874  33.778   5.553
 8301POPC   PO443092   5.894  33.790   5.853
 8301POPC   GL143093   5.909  33.819   6.153
 8301POPC   GL243094   6.033  33.798   6.153
 8301POPC   C1A43095   5.870  33.825   6.453
 8301POPC   D2A43096   5.875  33.810   6.753
 8301POPC   C3A43097   5.896  33.810   7.053
 8301POPC   C4A43098   5.874  33.797   7.353
 8301POPC   C1B43099   6.087  33.851   6.453
 8301POPC   C2B43100   6.085  33.821   6.753
 8301POPC   C3B43101   6.097  33.826   7.053
 8301POPC   C4B43102   6.102  33.831   7.353
 8302POPC   NC343103  42.287  36.088   5.553
 8302POPC   PO443104  42.380  36.131   5.853
 8302POPC   GL143105  42.314  36.161   6.153
 8302POPC   GL243106  42.277  36.064   6.153
 8302POPC   C1A43107  42.349  36.163   6.453
 8302POPC   D2A43108  42.349  36.136   6.753
 8302POPC   C3A43109  42.331  36.172   7.053
 8302POPC   C4A43110  42.308  36.161   7.353
 8302POPC   C1B43111  42.193  35.882   6.453
 8302POPC   C2B43112  42.189  35.926   6.753
 8302POPC   C3B43113  42.201  35.942   7.053
 8302POPC   C4B43114  42.227  35.916   7.353
 8303POPC   NC343115  12.029  44.635   5.553
 8303POPC   PO443116  12.036  44.704   5.853
 8303POPC   GL143117  12.061  44.700   6.153
 8303POPC   GL243118  11.986  44.619   6.153
 8303POPC   C1A43119  12.041  44.678   6.453
 8303POPC   D2A43120  12.114  44.702   6.753
 8303POPC   C3A43121  12.095  44.640   7.053
 8303POPC   C4A43122  12.075  44.670   7.353
 8303POPC   C1B43123  11.804  44.571   6.453
 8303POPC   C2B43124  11.843  44.667   6.753
 8303POPC   C3B43125  11.870  44.631   7.053
 8303POPC   C4B43126  11.878  44.637   7.353
 8304POPC   NC343127  26.839  11.275   5.553
 8304POPC   PO443128  26.836  11.291   5.853
 8304POPC   GL143129  26.862  11.329   6.153
 8304POPC   GL243130  26.808  11.428   6.153
 8304POPC   C1A43131  26.811  11.294   6.453
 8304POPC   D2A43132  26.794  11.302   6.753
 8304POPC   C3A43133  26.848  11.292   7.053
 8304POPC   C4A43134  26.788  11.335   7.353
 8304POPC   C1B43135  26.693  11.505   6.453
 8304POPC   C2B43136  26.687  11.493   6.753
 8304POPC   C3B43137  26.736  11.512   7.053
 8304POPC   C4B43138  26.709  11.533   7.353
 8305POPC   NC343139  41.519  34.614   5.553
 8305POPC   PO443140  41.517  34.608   5.853
 8305POPC   GL143141  41.541  34.556   6.153
 8305POPC   GL243142  41.637  34.641   6.153
 8305POPC   C1A43143  41.562  34.564   6.453
 8305POPC   D2A43144  41.586  34.581   6.753
 8305POPC   C3A43145  41.527  34.551   7.053
 8305POPC   C4A43146  41.578  34.591   7.353
 8305POPC   C1B43147  41.759  34.580   6.453
 8305POPC   C2B43148  41.833  34.635   6.753
 8305POPC   C3B43149  41.781  34.658   7.053
 8305POPC   C4B43150  41.819  34.567   7.353
 8306POPC   NC343151   6.615  10.565   5.553
 8306POPC   PO443152   6.637  10.476   5.853
 8306POPC   GL143153   6.665  10.542   6.153
 8306POPC   GL243154   6.744  10.503   6.153
 8306POPC   C1A43155   6.678  10.487   6.453
 8306POPC   D2A43156   6.686  10.548   6.753
 8306POPC   C3A43157   6.633  10.547   7.053
 8306POPC   C4A43158   6.598  10.523   7.353
 8306POPC   C1B43159   6.908  10.554   6.453
 8306POPC   C2B43160   6.926  10.560   6.753
 8306POPC   C3B43161   6.861  10.537   7.053
 8306POPC   C4B43162   6.941  10.557   7.353
 8307POPC   NC343163  13.662  24.532   5.553
 8307POPC   PO443164  13.578  24.494   5.853
 8307POPC   GL143165  13.658  24.444   6.153
 8307POPC   GL243166  13.503  24.587   6.153
 8307POPC   C1A43167  13.605  24.539   6.453
 8307POPC   D2A43168  13.653  24.458   6.753
 8307POPC   C3A43169  13.650  24.457   7.053
 8307POPC   C4A43170  13.640  24.453   7.353
 8307POPC   C1B43171  13.411  24.696   6.453
 8307POPC   C2B43172  13.413  24.655   6.753
 8307POPC   C3B43173  13.407  24.642   7.053
 8307POPC   C4B43174  13.468  24.688   7.353
 8308POPC   NC343175  32.993  13.588   5.553
 8308POPC   PO443176  33.020  13.655   5.853
 8308POPC   GL143177  33.067  13.579   6.153
 8308POPC   GL243178  33.134  13.557   6.153
 8308POPC   C1A43179  33.040  13.594   6.453
 8308POPC   D2A43180  33.059  13.648   6.753
 8308POPC   C3A43181  33.017  13.599   7.053
 8308POPC   C4A43182  33.061  13.642   7.353
 8308POPC   C1B43183  33.240  13.529   6.453
 8308POPC   C2B43184  33.261  13.602   6.753
 8308POPC   C3B43185  33.237  13.529   7.053
 8308POPC   C4B43186  33.219  13.567   7.353
 8309POPC   NC343187   6.667   1.204   5.553
 8309POPC   PO443188   6.686   1.183   5.853
 8309POPC   GL143189   6.598   1.200   6.153
 8309POPC   GL243190   6.570   1.224   6.153
 8309POPC   C1A43191   6.620   1.240   6.453
 8309POPC   D2A43192   6.689   1.257   6.753
 8309POPC   C3A43193   6.630   1.202   7.053
 8309POPC   C4A43194   6.612   1.210   7.353
 8309POPC   C1B43195   6.436   1.288   6.453
 8309POPC   C2B43196   6.405   1.225   6.753
 8309POPC   C3B43197   6.351   1.263   7.053
 8309POPC   C4B43198   6.439   1.291   7.353
 8310POPC   NC343199  43.890  29.120   5.553
 8310POPC   PO443200  43.907  29.149   5.853
 8310POPC   GL143201  43.852  29.102   6.153
 8310POPC   GL243202  43.969  29.183   6.153
 8310POPC   C1A43203  43.842  29.163   6.453
 8310POPC   D2A43204  43.924  29.123   6.753
 8310POPC   C3A43205  43.909  29.132   7.053
 8310POPC   C4A43206  43.924  29.176   7.353
 8310POPC   C1B43207  44.146  29.235   6.453
 8310POPC   C2B43208  44.139  29.242   6.753
 8310POPC   C3B43209  44.078  29.206   7.053
 8310POPC   C4B43210  44.154  29.242   7.353
 8311POPC   NC343211  39.271  44.619   5.553
 8311POPC   PO443212  39.196  44.671   5.853
 8311POPC   GL143213  39.219  44.661   6.153
 8311POPC   GL243214  39.202  44.528   6.153
 8311POPC   C1A43215  39.206  44.687   6.453
 8311POPC   D2A43216  39.251  44.631   6.753
 8311POPC   C3A43217  39.233  44.685   7.053
 8311POPC   C4A43218  39.227  44.673   7.353
 8311POPC   C1B43219  39.031  44.491   6.453
 8311POPC   C2B43220  39.032  44.441   6.753
 8311POPC   C3B43221  39.085  44.501   7.053
 8311POPC   C4B43222  39.033  44.494   7.353
 8312POPC   NC343223   0.469  17.493   5.553
 8312POPC   PO443224   0.403  17.516   5.853
 8312POPC   GL143225   0.484  17.461   6.153
 8312POPC   GL243226   0.370  17.398   6.153
 8312POPC   C1A43227   0.432  17.509   6.453
 8312POPC   D2A43228   0.479  17.553   6.753
 8312POPC   C3A43229   0.466  17.459   7.053
 8312POPC   C4A43230   0.406  17.507   7.353
 8312POPC   C1B43231   0.339  17.318   6.453
 8312POPC   C2B43232   0.322  17.319   6.753
 8312POPC   C3B43233   0.338  17.320   7.053
 8312POPC   C4B43234   0.356  17.329   7.353
 8313POPC   NC343235   4.297   7.438   5.553
 8313POPC   PO443236   4.358   7.385   5.853
 8313POPC   GL143237   4.291   7.422   6.153
 8313POPC   GL243238   4.443   7.359   6.153
 8313POPC   C1A43239   4.274   7.403   6.453
 8313POPC   D2A43240   4.323   7.468   6.753
 8313POPC   C3A43241   4.349   7.405   7.053
 8313POPC   C4A43242   4.280   7.469   7.353
 8313POPC   C1B43243   4.560   7.315   6.453
 8313POPC   C2B43244   4.575   7.258   6.753
 8313POPC   C3B43245   4.527   7.303   7.053
 8313POPC   C4B43246   4.505   7.293   7.353
 8314POPC   NC343247  13.652  44.647   5.553
 8314POPC   PO443248  13.628  44.684   5.853
 8314POPC   GL143249  13.639  44.680   6.153
 8314POPC   GL243250  13.538  44.761   6.153
 8314POPC   C1A43251  13.677  44.682   6.453
 8314POPC   D2A43252  13.602  44.651   6.753
 8314POPC   C3A43253  13.596  44.624   7.053
 8314POPC   C4A43254  13.651  44.672   7.353
 8314POPC   C1B43255  13.352  44.815   6.453
 8314POPC   C2B43256  13.393  44.767   6.753
 8314POPC   C3B43257  13.404  44.731   7.053
 8314POPC   C4B43258  13.389  44.729   7.353
 8315POPC   NC343259  37.667  33.062   5.553
 8315POPC   PO443260  37.662  33.008   5.853
 8315POPC   GL143261  37.668  33.007   6.153
 8315POPC   GL243262  37.554  32.991   6.153
 8315POPC   C1A43263  37.641  33.001   6.453
 8315POPC   D2A43264  37.690  32.992   6.753
 8315POPC   C3A43265  37.729  33.012   7.053
 8315POPC   C4A43266  37.695  32.983   7.353
 8315POPC   C1B43267  37.478  32.985   6.453
 8315POPC   C2B43268  37.466  33.010   6.753
 8315POPC   C3B43269  37.477  32.940   7.053
 8315POPC   C4B43270  37.434  32.949   7.353
 8316POPC   NC343271   7.470  19.085   5.553
 8316POPC   PO443272   7.374  19.049   5.853
 8316POPC   GL143273   7.409  19.050   6.153
 8316POPC   GL243274   7.406  19.133   6.153
 8316POPC   C1A43275   7.397  19.092   6.453
 8316POPC   D2A43276   7.466  19.042   6.753
 8316POPC   C3A43277   7.434  19.038   7.053
 8316POPC   C4A43278   7.402  19.040   7.353
 8316POPC   C1B43279   7.301  19.246   6.453
 8316POPC   C2B43280   7.299  19.265   6.753
 8316POPC   C3B43281   7.323  19.321   7.053
 8316POPC   C4B43282   7.292  19.335   7.353
 8317POPC   NC343283   9.783  25.291   5.553
 8317POPC   PO443284   9.759  25.308   5.853
 8317POPC   GL143285   9.762  25.314   6.153
 8317POPC   GL243286   9.835  25.331   6.153
 8317POPC   C1A43287   9.739  25.240   6.453
 8317POPC   D2A43288   9.784  25.223   6.753
 8317POPC   C3A43289   9.725  25.255   7.053
 8317POPC   C4A43290   9.742  25.272   7.353
 8317POPC   C1B43291   9.921  25.386   6.453
 8317POPC   C2B43292   9.910  25.354   6.753
 8317POPC   C3B43293   9.936  25.448   7.053
 8317POPC   C4B43294   9.951  25.372   7.353
 8318POPC   NC343295  33.000  39.208   5.553
 8318POPC   PO443296  33.050  39.207   5.853
 8318POPC   GL143297  33.069  39.184   6.153
 8318POPC   GL243298  32.976  39.145   6.153
 8318POPC   C1A43299  33.038  39.196   6.453
 8318POPC   D2A43300  33.012  39.236   6.753
 8318POPC   C3A43301  32.980  39.184   7.053
 8318POPC   C4A43302  33.060  39.261   7.353
 8318POPC   C1B43303  32.856  39.050   6.453
 8318POPC   C2B43304  32.895  38.995   6.753
 8318POPC   C3B43305  32.942  38.983   7.053
 8318POPC   C4B43306  32.861  39.054   7.353
 8319POPC   NC343307  31.520  26.816   5.553
 8319POPC   PO443308  31.502  26.769   5.853
 8319POPC   GL143309  31.512  26.853   6.153
 8319POPC   GL243310  31.444  26.948   6.153
 8319POPC   C1A43311  31.446  26.813   6.453
 8319POPC   D2A43312  31.461  26.822   6.753
 8319POPC   C3A43313  31.518  26.802   7.053
 8319POPC   C4A43314  31.479  26.832   7.353
 8319POPC   C1B43315  31.475  27.023   6.453
 8319POPC   C2B43316  31.441  27.098   6.753
 8319POPC   C3B43317  31.492  27.076   7.053
 8319POPC   C4B43318  31.505  27.079   7.353
 8320POPC   NC343319  43.862  19.091   5.553
 8320POPC   PO443320  43.839  19.018   5.853
 8320POPC   GL143321  43.883  19.055   6.153
 8320POPC   GL243322  43.999  19.191   6.153
 8320POPC   C1A43323  43.845  19.036   6.453
 8320POPC   D2A43324  43.845  19.031   6.753
 8320POPC   C3A43325  43.861  19.106   7.053
 8320POPC   C4A43326  43.842  19.029   7.353
 8320POPC   C1B43327  44.042  19.271   6.453
 8320POPC   C2B43328  44.048  19.240   6.753
 8320POPC   C3B43329  44.054  19.231   7.053
 8320POPC   C4B43330  44.012  19.274   7.353
 8321POPC   NC343331   8.206  22.906   5.553
 8321POPC   PO443332   8.171  22.899   5.853
 8321POPC   GL143333   8.179  22.935   6.153
 8321POPC   GL243334   8.240  23.012   6.153
 8321POPC   C1A43335   8.153  22.945   6.453
 8321POPC   D2A43336   8.211  22.949   6.753
 8321POPC   C3A43337   8.154  22.893   7.053
 8321POPC   C4A43338   8.204  22.911   7.353
 8321POPC   C1B43339   8.230  23.234   6.453
 8321POPC   C2B43340   8.267  23.162   6.753
 8321POPC   C3B43341   8.218  23.143   7.053
 8321POPC   C4B43342   8.228  23.225   7.353
 8322POPC   NC343343  18.314  32.278   5.553
 8322POPC   PO443344  18.259  32.260   5.853
 8322POPC   GL143345  18.255  32.206   6.153
 8322POPC   GL243346  18.165  32.303   6.153
 8322POPC   C1A43347  18.249  32.294   6.453
 8322POPC   D2A43348  18.309  32.288   6.753
 8322POPC   C3A43349  18.262  32.274   7.053
 8322POPC   C4A43350  18.284  32.283   7.353
 8322POPC   C1B43351  18.077  32.347   6.453
 8322POPC   C2B43352  18.073  32.339   6.753
 8322POPC   C3B43353  18.043  32.343   7.053
 8322POPC   C4B43354  18.049  32.325   7.353
 8323POPC   NC343355   9.736  37.650   5.553
 8323POPC   PO443356   9.705  37.700   5.853
 8323POPC   GL143357   9.711  37.699   6.153
 8323POPC   GL243358   9.811  37.563   6.153
 8323POPC   C1A43359   9.740  37.722   6.453
 8323POPC   D2A43360   9.797  37.678   6.753
 8323POPC   C3A43361   9.702  37.705   7.053
 8323POPC   C4A43362   9.777  37.691   7.353
 8323POPC   C1B43363   9.856  37.488   6.453
 8323POPC   C2B43364   9.837  37.417   6.753
 8323POPC   C3B43365   9.843  37.481   7.053
 8323POPC   C4B43366   9.846  37.485   7.353
 8324POPC   NC343367  36.904  11.299   5.553
 8324POPC   PO443368  36.867  11.292   5.853
 8324POPC   GL143369  36.909  11.339   6.153
 8324POPC   GL243370  36.967  11.452   6.153
 8324POPC   C1A43371  36.949  11.263   6.453
 8324POPC   D2A43372  36.879  11.326   6.753
 8324POPC   C3A43373  36.864  11.323   7.053
 8324POPC   C4A43374  36.907  11.271   7.353
 8324POPC   C1B43375  37.023  11.547   6.453
 8324POPC   C2B43376  37.011  11.543   6.753
 8324POPC   C3B43377  37.054  11.527   7.053
 8324POPC   C4B43378  37.022  11.475   7.353
 8325POPC   NC343379   8.217  30.694   5.553
 8325POPC   PO443380   8.216  30.706   5.853
 8325POPC   GL143381   8.150  30.705   6.153
 8325POPC   GL243382   8.302  30.767   6.153
 8325POPC   C1A43383   8.152  30.710   6.453
 8325POPC   D2A43384   8.157  30.696   6.753
 8325POPC   C3A43385   8.200  30.738   7.053
 8325POPC   C4A43386   8.175  30.708   7.353
 8325POPC   C1B43387   8.381  30.866   6.453
 8325POPC   C2B43388   8.304  30.849   6.753
 8325POPC   C3B43389   8.325  30.943   7.053
 8325POPC   C4B43390   8.384  30.850   7.353
 8326POPC   NC343391  42.369  29.969   5.553
 8326POPC   PO443392  42.380  29.926   5.853
 8326POPC   GL143393  42.369  29.935   6.153
 8326POPC   GL243394  42.441  29.825   6.153
 8326POPC   C1A43395  42.351  29.906   6.453
 8326POPC   D2A43396  42.325  29.920   6.753
 8326POPC   C3A43397  42.289  29.899   7.053
 8326POPC   C4A43398  42.370  29.895   7.353
 8326POPC   C1B43399  42.514  29.750   6.453
 8326POPC   C2B43400  42.540  29.702   6.753
 8326POPC   C3B43401  42.487  29.717   7.053
 8326POPC   C4B43402  42.503  29.718   7.353
 8327POPC   NC343403  27.624  12.122   5.553
 8327POPC   PO443404  27.600  12.124   5.853
 8327POPC   GL143405  27.570  12.063   6.153
 8327POPC   GL243406  27.613  11.912   6.153
 8327POPC   C1A43407  27.583  12.050   6.453
 8327POPC   D2A43408  27.613  12.052   6.753
 8327POPC   C3A43409  27.632  12.046   7.053
 8327POPC   C4A43410  27.638  12.044   7.353
 8327POPC   C1B43411  27.585  11.837   6.453
 8327POPC   C2B43412  27.582  11.818   6.753
 8327POPC   C3B43413  27.620  11.787   7.053
 8327POPC   C4B43414  27.567  11.853   7.353
 8328POPC   NC343415  35.367  43.876   5.553
 8328POPC   PO443416  35.356  43.911   5.853
 8328POPC   GL143417  35.340  43.873   6.153
 8328POPC   GL243418  35.450  43.821   6.153
 8328POPC   C1A43419  35.318  43.879   6.453
 8328POPC   D2A43420  35.354  43.894   6.753
 8328POPC   C3A43421  35.398  43.894   7.053
 8328POPC   C4A43422  35.360  43.857   7.353
 8328POPC   C1B43423  35.557  43.809   6.453
 8328POPC   C2B43424  35.575  43.815   6.753
 8328POPC   C3B43425  35.615  43.787   7.053
 8328POPC   C4B43426  35.619  43.759   7.353
 8329POPC   NC343427  29.106  38.417   5.553
 8329POPC   PO443428  29.121  38.431   5.853
 8329POPC   GL143429  29.113  38.457   6.153
 8329POPC   GL243430  29.241  38.476   6.153
 8329POPC   C1A43431  29.195  38.448   6.453
 8329POPC   D2A43432  29.180  38.450   6.753
 8329POPC   C3A43433  29.132  38.495   7.053
 8329POPC   C4A43434  29.149  38.450   7.353
 8329POPC   C1B43435  29.393  38.492   6.453
 8329POPC   C2B43436  29.422  38.506   6.753
 8329POPC   C3B43437  29.395  38.542   7.053
 8329POPC   C4B43438  29.435  38.446   7.353
 8330POPC   NC343439  36.106   4.330   5.553
 8330POPC   PO443440  36.156   4.354   5.853
 8330POPC   GL143441  36.095   4.366   6.153
 8330POPC   GL243442  36.132   4.438   6.153
 8330POPC   C1A43443  36.155   4.302   6.453
 8330POPC   D2A43444  36.169   4.270   6.753
 8330POPC   C3A43445  36.095   4.300   7.053
 8330POPC   C4A43446  36.147   4.348   7.353
 8330POPC   C1B43447  36.098   4.583   6.453
 8330POPC   C2B43448  36.111   4.573   6.753
 8330POPC   C3B43449  36.122   4.530   7.053
 8330POPC   C4B43450  36.138   4.549   7.353
 8331POPC   NC343451  26.087  21.422   5.553
 8331POPC   PO443452  26.089  21.347   5.853
 8331POPC   GL143453  26.065  21.388   6.153
 8331POPC   GL243454  25.968  21.469   6.153
 8331POPC   C1A43455  25.992  21.366   6.453
 8331POPC   D2A43456  26.039  21.423   6.753
 8331POPC   C3A43457  26.022  21.374   7.053
 8331POPC   C4A43458  26.011  21.374   7.353
 8331POPC   C1B43459  25.779  21.440   6.453
 8331POPC   C2B43460  25.852  21.456   6.753
 8331POPC   C3B43461  25.834  21.415   7.053
 8331POPC   C4B43462  25.754  21.473   7.353
 8332POPC   NC343463  43.148  39.184   5.553
 8332POPC   PO443464  43.062  39.226   5.853
 8332POPC   GL143465  43.136  39.240   6.153
 8332POPC   GL243466  43.038  39.084   6.153
 8332POPC   C1A43467  43.095  39.224   6.453
 8332POPC   D2A43468  43.096  39.218   6.753
 8332POPC   C3A43469  43.137  39.271   7.053
 8332POPC   C4A43470  43.138  39.261   7.353
 8332POPC   C1B43471  42.998  39.083   6.453
 8332POPC   C2B43472  42.962  39.011   6.753
 8332POPC   C3B43473  43.007  39.026   7.053
 8332POPC   C4B43474  42.911  39.031   7.353
 8333POPC   NC343475   9.702  15.194   5.553
 8333POPC   PO443476   9.732  15.212   5.853
 8333POPC   GL143477   9.749  15.171   6.153
 8333POPC   GL243478   9.608  15.132   6.153
 8333POPC   C1A43479   9.797  15.205   6.453
 8333POPC   D2A43480   9.756  15.162   6.753
 8333POPC   C3A43481   9.780  15.195   7.053
 8333POPC   C4A43482   9.778  15.220   7.353
 8333POPC   C1B43483   9.560  15.011   6.453
 8333POPC   C2B43484   9.554  14.979   6.753
 8333POPC   C3B43485   9.593  15.036   7.053
 8333POPC   C4B43486   9.546  15.026   7.353
 8334POPC   NC343487  12.044  21.344   5.553
 8334POPC   PO443488  12.036  21.357   5.853
 8334POPC   GL143489  12.028  21.393   6.153
 8334POPC   GL243490  11.972  21.477   6.153
 8334POPC   C1A43491  12.117  21.373   6.453
 8334POPC   D2A43492  12.032  21.349   6.753
 8334POPC   C3A43493  12.095  21.405   7.053
 8334POPC   C4A43494  12.057  21.388   7.353
 8334POPC   C1B43495  11.886  21.524   6.453
 8334POPC   C2B43496  11.900  21.466   6.753
 8334POPC   C3B43497  11.811  21.471   7.053
 8334POPC   C4B43498  11.825  21.494   7.353
 8335POPC   NC343499  12.104  25.216   5.553
 8335POPC   PO443500  12.083  25.220   5.853
 8335POPC   GL143501  12.050  25.241   6.153
 8335POPC   GL243502  12.136  25.303   6.153
 8335POPC   C1A43503  12.063  25.305   6.453
 8335POPC   D2A43504  12.039  25.260   6.753
 8335POPC   C3A43505  12.082  25.295   7.053
 8335POPC   C4A43506  12.070  25.261   7.353
 8335POPC   C1B43507  12.307  25.433   6.453
 8335POPC   C2B43508  12.258  25.426   6.753
 8335POPC   C3B43509  12.264  25.431   7.053
 8335POPC   C4B43510  12.252  25.357   7.353
 8336POPC   NC343511  27.563   6.595   5.553
 8336POPC   PO443512  27.598   6.672   5.853
 8336POPC   GL143513  27.576   6.669   6.153
 8336POPC   GL243514  27.497   6.576   6.153
 8336POPC   C1A43515  27.589   6.676   6.453
 8336POPC   D2A43516  27.548   6.688   6.753
 8336POPC   C3A43517  27.557   6.678   7.053
 8336POPC   C4A43518  27.625   6.644   7.353
 8336POPC   C1B43519  27.419   6.508   6.453
 8336POPC   C2B43520  27.381   6.511   6.753
 8336POPC   C3B43521  27.385   6.552   7.053
 8336POPC   C4B43522  27.420   6.537   7.353
 8337POPC   NC343523  18.270   7.375   5.553
 8337POPC   PO443524  18.290   7.451   5.853
 8337POPC   GL143525  18.267   7.464   6.153
 8337POPC   GL243526  18.165   7.485   6.153
 8337POPC   C1A43527  18.314   7.462   6.453
 8337POPC   D2A43528  18.233   7.443   6.753
 8337POPC   C3A43529  18.269   7.435   7.053
 8337POPC   C4A43530  18.315   7.469   7.353
 8337POPC   C1B43531  18.065   7.529   6.453
 8337POPC   C2B43532  18.095   7.497   6.753
 8337POPC   C3B43533  18.024   7.540   7.053
 8337POPC   C4B43534  18.098   7.514   7.353
 8338POPC   NC343535  43.928  23.745   5.553
 8338POPC   PO443536  43.897  23.715   5.853
 8338POPC   GL143537  43.921  23.735   6.153
 8338POPC   GL243538  43.962  23.701   6.153
 8338POPC   C1A43539  43.851  23.691   6.453
 8338POPC   D2A43540  43.879  23.720   6.753
 8338POPC   C3A43541  43.860  23.691   7.053
 8338POPC   C4A43542  43.895  23.753   7.353
 8338POPC   C1B43543  44.149  23.708   6.453
 8338POPC   C2B43544  44.164  23.707   6.753
 8338POPC   C3B43545  44.125  23.749   7.053
 8338POPC   C4B43546  44.113  23.697   7.353
 8339POPC   NC343547  33.782  33.820   5.553
 8339POPC   PO443548  33.823  33.799   5.853
 8339POPC   GL143549  33.754  33.812   6.153
 8339POPC   GL243550  33.790  33.872   6.153
 8339POPC   C1A43551  33.773  33.774   6.453
 8339POPC   D2A43552  33.794  33.793   6.753
 8339POPC   C3A43553  33.757  33.758   7.053
 8339POPC   C4A43554  33.764  33.763   7.353
 8339POPC   C1B43555  33.700  34.028   6.453
 8339POPC   C2B43556  33.707  34.060   6.753
 8339POPC   C3B43557  33.732  34.080   7.053
 8339POPC   C4B43558  33.726  34.038   7.353
 8340POPC   NC343559  32.228  23.723   5.553
 8340POPC   PO443560  32.264  23.750   5.853
 8340POPC   GL143561  32.280  23.684   6.153
 8340POPC   GL243562  32.333  23.797   6.153
 8340POPC   C1A43563  32.248  23.671   6.453
 8340POPC   D2A43564  32.221  23.738   6.753
 8340POPC   C3A43565  32.210  23.748   7.053
 8340POPC   C4A43566  32.220  23.695   7.353
 8340POPC   C1B43567  32.506  23.754   6.453
 8340POPC   C2B43568  32.471  23.762   6.753
 8340POPC   C3B43569  32.503  23.786   7.053
 8340POPC   C4B43570  32.448  23.824   7.353
 8341POPC   NC343571  13.674  43.144   5.553
 8341POPC   PO443572  13.664  43.144   5.853
 8341POPC   GL143573  13.633  43.075   6.153
 8341POPC   GL243574  13.536  43.038   6.153
 8341POPC   C1A43575  13.641  43.160   6.453
 8341POPC   D2A43576  13.598  43.094   6.753
 8341POPC   C3A43577  13.657  43.076   7.053
 8341POPC   C4A43578  13.622  43.103   7.353
 8341POPC   C1B43579  13.423  43.050   6.453
 8341POPC   C2B43580  13.422  43.010   6.753
 8341POPC   C3B43581  13.431  43.054   7.053
 8341POPC   C4B43582  13.361  42.983   7.353
 8342POPC   NC343583  30.660  37.670   5.553
 8342POPC   PO443584  30.715  37.675   5.853
 8342POPC   GL143585  30.707  37.659   6.153
 8342POPC   GL243586  30.653  37.581   6.153
 8342POPC   C1A43587  30.678  37.653   6.453
 8342POPC   D2A43588  30.692  37.651   6.753
 8342POPC   C3A43589  30.682  37.677   7.053
 8342POPC   C4A43590  30.659  37.639   7.353
 8342POPC   C1B43591  30.668  37.402   6.453
 8342POPC   C2B43592  30.673  37.435   6.753
 8342POPC   C3B43593  30.715  37.421   7.053
 8342POPC   C4B43594  30.698  37.389   7.353
 8343POPC   NC343595  33.779  33.059   5.553
 8343POPC   PO443596  33.846  33.024   5.853
 8343POPC   GL143597  33.797  33.002   6.153
 8343POPC   GL243598  33.758  32.916   6.153
 8343POPC   C1A43599  33.850  33.040   6.453
 8343POPC   D2A43600  33.821  32.978   6.753
 8343POPC   C3A43601  33.838  32.984   7.053
 8343POPC   C4A43602  33.783  32.983   7.353
 8343POPC   C1B43603  33.605  32.842   6.453
 8343POPC   C2B43604  33.617  32.883   6.753
 8343POPC   C3B43605  33.581  32.829   7.053
 8343POPC   C4B43606  33.662  32.891   7.353
 8344POPC   NC343607  19.861  36.146   5.553
 8344POPC   PO443608  19.785  36.173   5.853
 8344POPC   GL143609  19.809  36.122   6.153
 8344POPC   GL243610  19.934  36.124   6.153
 8344POPC   C1A43611  19.884  36.172   6.453
 8344POPC   D2A43612  19.840  36.098   6.753
 8344POPC   C3A43613  19.845  36.098   7.053
 8344POPC   C4A43614  19.813  36.128   7.353
 8344POPC   C1B43615  20.051  36.123   6.453
 8344POPC   C2B43616  20.070  36.120   6.753
 8344POPC   C3B43617  20.083  36.185   7.053
 8344POPC   C4B43618  20.074  36.134   7.353
 8345POPC   NC343619   2.741  39.232   5.553
 8345POPC   PO443620   2.777  39.237   5.853
 8345POPC   GL143621   2.803  39.238   6.153
 8345POPC   GL243622   2.623  39.258   6.153
 8345POPC   C1A43623   2.758  39.200   6.453
 8345POPC   D2A43624   2.722  39.198   6.753
 8345POPC   C3A43625   2.752  39.208   7.053
 8345POPC   C4A43626   2.779  39.274   7.353
 8345POPC   C1B43627   2.594  39.373   6.453
 8345POPC   C2B43628   2.573  39.344   6.753
 8345POPC   C3B43629   2.523  39.357   7.053
 8345POPC   C4B43630   2.522  39.366   7.353
 8346POPC   NC343631   1.240  19.845   5.553
 8346POPC   PO443632   1.223  19.812   5.853
 8346POPC   GL143633   1.219  19.831   6.153
 8346POPC   GL243634   1.113  19.906   6.153
 8346POPC   C1A43635   1.220  19.826   6.453
 8346POPC   D2A43636   1.170  19.810   6.753
 8346POPC   C3A43637   1.193  19.837   7.053
 8346POPC   C4A43638   1.246  19.785   7.353
 8346POPC   C1B43639   0.980  20.030   6.453
 8346POPC   C2B43640   1.046  19.953   6.753
 8346POPC   C3B43641   1.026  19.953   7.053
 8346POPC   C4B43642   0.999  19.953   7.353
 8347POPC   NC343643   2.021  19.103   5.553
 8347POPC   PO443644   1.942  19.022   5.853
 8347POPC   GL143645   1.998  19.061   6.153
 8347POPC   GL243646   2.103  19.136   6.153
 8347POPC   C1A43647   1.983  19.099   6.453
 8347POPC   D2A43648   1.952  19.044   6.753
 8347POPC   C3A43649   2.008  19.071   7.053
 8347POPC   C4A43650   2.027  19.031   7.353
 8347POPC   C1B43651   2.249  19.157   6.453
 8347POPC   C2B43652   2.192  19.230   6.753
 8347POPC   C3B43653   2.224  19.233   7.053
 8347POPC   C4B43654   2.197  19.153   7.353
 8348POPC   NC343655  32.220   4.313   5.553
 8348POPC   PO443656  32.241   4.322   5.853
 8348POPC   GL143657  32.297   4.269   6.153
 8348POPC   GL243658  32.235   4.211   6.153
 8348POPC   C1A43659  32.292   4.320   6.453
 8348POPC   D2A43660  32.206   4.358   6.753
 8348POPC   C3A43661  32.211   4.296   7.053
 8348POPC   C4A43662  32.273   4.295   7.353
 8348POPC   C1B43663  32.249   4.023   6.453
 8348POPC   C2B43664  32.284   4.105   6.753
 8348POPC   C3B43665  32.274   4.094   7.053
 8348POPC   C4B43666  32.213   4.067   7.353
 8349POPC   NC343667  23.697  30.733   5.553
 8349POPC   PO443668  23.676  30.678   5.853
 8349POPC   GL143669  23.760  30.659   6.153
 8349POPC   GL243670  23.620  30.748   6.153
 8349POPC   C1A43671  23.689  30.690   6.453
 8349POPC   D2A43672  23.746  30.723   6.753
 8349POPC   C3A43673  23.745  30.707   7.053
 8349POPC   C4A43674  23.686  30.690   7.353
 8349POPC   C1B43675  23.512  30.852   6.453
 8349POPC   C2B43676  23.515  30.849   6.753
 8349POPC   C3B43677  23.494  30.770   7.053
 8349POPC   C4B43678  23.500  30.771   7.353
 8350POPC   NC343679  33.810  31.427   5.553
 8350POPC   PO443680  33.775  31.456   5.853
 8350POPC   GL143681  33.846  31.482   6.153
 8350POPC   GL243682  33.944  31.418   6.153
 8350POPC   C1A43683  33.768  31.443   6.453
 8350POPC   D2A43684  33.768  31.512   6.753
 8350POPC   C3A43685  33.754  31.482   7.053
 8350POPC   C4A43686  33.796  31.443   7.353
 8350POPC   C1B43687  33.993  31.433   6.453
 8350POPC   C2B43688  34.082  31.430   6.753
 8350POPC   C3B43689  34.014  31.438   7.053
 8350POPC   C4B43690  34.002  31.413   7.353
 8351POPC   NC343691  33.781   1.168   5.553
 8351POPC   PO443692  33.799   1.208   5.853
 8351POPC   GL143693  33.780   1.243   6.153
 8351POPC   GL243694  33.864   1.351   6.153
 8351POPC   C1A43695  33.768   1.207   6.453
 8351POPC   D2A43696  33.777   1.259   6.753
 8351POPC   C3A43697  33.834   1.257   7.053
 8351POPC   C4A43698  33.834   1.190   7.353
 8351POPC   C1B43699  33.836   1.480   6.453
 8351POPC   C2B43700  33.882   1.411   6.753
 8351POPC   C3B43701  33.864   1.436   7.053
 8351POPC   C4B43702  33.873   1.491   7.353
 8352POPC   NC343703   7.416  14.354   5.553
 8352POPC   PO443704   7.470  14.423   5.853
 8352POPC   GL143705   7.468  14.354   6.153
 8352POPC   GL243706   7.282  14.441   6.153
 8352POPC   C1A43707   7.384  14.452   6.453
 8352POPC   D2A43708   7.418  14.446   6.753
 8352POPC   C3A43709   7.460  14.452   7.053
 8352POPC   C4A43710   7.461  14.387   7.353
 8352POPC   C1B43711   7.123  14.405   6.453
 8352POPC   C2B43712   7.180  14.379   6.753
 8352POPC   C3B43713   7.219  14.464   7.053
 8352POPC   C4B43714   7.151  14.463   7.353
 8353POPC   NC343715  12.824  12.883   5.553
 8353POPC   PO443716  12.843  12.843   5.853
 8353POPC   GL143717  12.835  12.860   6.153
 8353POPC   GL243718  12.931  12.797   6.153
 8353POPC   C1A43719  12.890  12.881   6.453
 8353POPC   D2A43720  12.892  12.824   6.753
 8353POPC   C3A43721  12.826  12.878   7.053
 8353POPC   C4A43722  12.860  12.877   7.353
 8353POPC   C1B43723  13.071  12.746   6.453
 8353POPC   C2B43724  13.064  12.710   6.753
 8353POPC   C3B43725  13.064  12.784   7.053
 8353POPC   C4B43726  13.063  12.733   7.353
 8354POPC   NC343727   5.844  43.899   5.553
 8354POPC   PO443728   5.884  43.839   5.853
 8354POPC   GL143729   5.845  43.876   6.153
 8354POPC   GL243730   5.882  43.998   6.153
 8354POPC   C1A43731   5.884  43.870   6.453
 8354POPC   D2A43732   5.838  43.933   6.753
 8354POPC   C3A43733   5.856  43.925   7.053
 8354POPC   C4A43734   5.841  43.885   7.353
 8354POPC   C1B43735   5.926  44.134   6.453
 8354POPC   C2B43736   5.888  44.106   6.753
 8354POPC   C3B43737   5.834  44.122   7.053
 8354POPC   C4B43738   5.906  44.179   7.353
 8355POPC   NC343739  41.520  30.687   5.553
 8355POPC   PO443740  41.544  30.660   5.853
 8355POPC   GL143741  41.606  30.687   6.153
 8355POPC   GL243742  41.577  30.542   6.153
 8355POPC   C1A43743  41.603  30.705   6.453
 8355POPC   D2A43744  41.531  30.699   6.753
 8355POPC   C3A43745  41.518  30.651   7.053
 8355POPC   C4A43746  41.510  30.693   7.353
 8355POPC   C1B43747  41.586  30.410   6.453
 8355POPC   C2B43748  41.519  30.435   6.753
 8355POPC   C3B43749  41.554  30.454   7.053
 8355POPC   C4B43750  41.525  30.439   7.353
 8356POPC   NC343751  33.062  16.729   5.553
 8356POPC   PO443752  33.036  16.734   5.853
 8356POPC   GL143753  33.069  16.718   6.153
 8356POPC   GL243754  32.913  16.800   6.153
 8356POPC   C1A43755  33.049  16.724   6.453
 8356POPC   D2A43756  33.022  16.731   6.753
 8356POPC   C3A43757  33.064  16.745   7.053
 8356POPC   C4A43758  33.065  16.778   7.353
 8356POPC   C1B43759  32.826  16.886   6.453
 8356POPC   C2B43760  32.822  16.867   6.753
 8356POPC   C3B43761  32.796  16.910   7.053
 8356POPC   C4B43762  32.834  16.937   7.353
 8357POPC   NC343763  29.099  37.720   5.553
 8357POPC   PO443764  29.152  37.693   5.853
 8357POPC   GL143765  29.172  37.663   6.153
 8357POPC   GL243766  29.117  37.525   6.153
 8357POPC   C1A43767  29.137  37.700   6.453
 8357POPC   D2A43768  29.126  37.676   6.753
 8357POPC   C3A43769  29.140  37.715   7.053
 8357POPC   C4A43770  29.178  37.679   7.353
 8357POPC   C1B43771  29.153  37.427   6.453
 8357POPC   C2B43772  29.175  37.402   6.753
 8357POPC   C3B43773  29.182  37.425   7.053
 8357POPC   C4B43774  29.154  37.411   7.353
 8358POPC   NC343775  11.338  35.320   5.553
 8358POPC   PO443776  11.316  35.348   5.853
 8358POPC   GL143777  11.337  35.340   6.153
 8358POPC   GL243778  11.342  35.271   6.153
 8358POPC   C1A43779  11.338  35.368   6.453
 8358POPC   D2A43780  11.308  35.329   6.753
 8358POPC   C3A43781  11.328  35.308   7.053
 8358POPC   C4A43782  11.317  35.388   7.353
 8358POPC   C1B43783  11.430  35.167   6.453
 8358POPC   C2B43784  11.493  35.199   6.753
 8358POPC   C3B43785  11.496  35.158   7.053
 8358POPC   C4B43786  11.483  35.176   7.353
 8359POPC   NC343787   4.278  12.045   5.553
 8359POPC   PO443788   4.354  12.077   5.853
 8359POPC   GL143789   4.273  12.031   6.153
 8359POPC   GL243790   4.188  12.110   6.153
 8359POPC   C1A43791   4.314  12.078   6.453
 8359POPC   D2A43792   4.339  12.088   6.753
 8359POPC   C3A43793   4.324  12.071   7.053
 8359POPC   C4A43794   4.317  12.050   7.353
 8359POPC   C1B43795   4.090  12.022   6.453
 8359POPC   C2B43796   4.093  12.044   6.753
 8359POPC   C3B43797   4.020  12.075   7.053
 8359POPC   C4B43798   4.050  12.054   7.353
 8360POPC   NC343799  44.634  20.621   5.553
 8360POPC   PO443800  44.656  20.597   5.853
 8360POPC   GL143801  44.641  20.612   6.153
 8360POPC   GL243802  44.596  20.495   6.153
 8360POPC   C1A43803  44.657  20.570   6.453
 8360POPC   D2A43804  44.655  20.602   6.753
 8360POPC   C3A43805  44.689  20.632   7.053
 8360POPC   C4A43806  44.697  20.645   7.353
 8360POPC   C1B43807  44.542  20.407   6.453
 8360POPC   C2B43808  44.571  20.413   6.753
 8360POPC   C3B43809  44.571  20.428   7.053
 8360POPC   C4B43810  44.589  20.417   7.353
 8361POPC   NC343811   1.191   4.306   5.553
 8361POPC   PO443812   1.177   4.318   5.853
 8361POPC   GL143813   1.247   4.343   6.153
 8361POPC   GL243814   1.231   4.443   6.153
 8361POPC   C1A43815   1.259   4.331   6.453
 8361POPC   D2A43816   1.245   4.272   6.753
 8361POPC   C3A43817   1.217   4.269   7.053
 8361POPC   C4A43818   1.212   4.280   7.353
 8361POPC   C1B43819   1.351   4.591   6.453
 8361POPC   C2B43820   1.341   4.583   6.753
 8361POPC   C3B43821   1.334   4.498   7.053
 8361POPC   C4B43822   1.321   4.586   7.353
 8362POPC   NC343823  16.004  12.061   5.553
 8362POPC   PO443824  16.002  12.098   5.853
 8362POPC   GL143825  15.957  12.067   6.153
 8362POPC   GL243826  16.024  12.182   6.153
 8362POPC   C1A43827  15.906  12.118   6.453
 8362POPC   D2A43828  15.963  12.076   6.753
 8362POPC   C3A43829  15.907  12.077   7.053
 8362POPC   C4A43830  15.950  12.058   7.353
 8362POPC   C1B43831  16.117  12.220   6.453
 8362POPC   C2B43832  16.137  12.232   6.753
 8362POPC   C3B43833  16.205  12.181   7.053
 8362POPC   C4B43834  16.139  12.231   7.353
 8363POPC   NC343835   4.283  29.173   5.553
 8363POPC   PO443836   4.354  29.118   5.853
 8363POPC   GL143837   4.327  29.190   6.153
 8363POPC   GL243838   4.411  29.181   6.153
 8363POPC   C1A43839   4.344  29.188   6.453
 8363POPC   D2A43840   4.284  29.123   6.753
 8363POPC   C3A43841   4.295  29.187   7.053
 8363POPC   C4A43842   4.319  29.180   7.353
 8363POPC   C1B43843   4.588  29.192   6.453
 8363POPC   C2B43844   4.580  29.202   6.753
 8363POPC   C3B43845   4.577  29.203   7.053
 8363POPC   C4B43846   4.516  29.196   7.353
 8364POPC   NC343847   6.690   0.473   5.553
 8364POPC   PO443848   6.625   0.446   5.853
 8364POPC   GL143849   6.679   0.450   6.153
 8364POPC   GL243850   6.752   0.365   6.153
 8364POPC   C1A43851   6.626   0.402   6.453
 8364POPC   D2A43852   6.675   0.480   6.753
 8364POPC   C3A43853   6.643   0.404   7.053
 8364POPC   C4A43854   6.643   0.468   7.353
 8364POPC   C1B43855   6.852   0.237   6.453
 8364POPC   C2B43856   6.873   0.299   6.753
 8364POPC   C3B43857   6.871   0.323   7.053
 8364POPC   C4B43858   6.865   0.236   7.353
 8365POPC   NC343859  35.389  36.948   5.553
 8365POPC   PO443860  35.376  36.857   5.853
 8365POPC   GL143861  35.310  36.933   6.153
 8365POPC   GL243862  35.196  36.886   6.153
 8365POPC   C1A43863  35.401  36.877   6.453
 8365POPC   D2A43864  35.374  36.887   6.753
 8365POPC   C3A43865  35.355  36.907   7.053
 8365POPC   C4A43866  35.355  36.859   7.353
 8365POPC   C1B43867  35.134  36.867   6.453
 8365POPC   C2B43868  35.160  36.793   6.753
 8365POPC   C3B43869  35.071  36.806   7.053
 8365POPC   C4B43870  35.112  36.820   7.353
 8366POPC   NC343871  33.835  11.329   5.553
 8366POPC   PO443872  33.782  11.290   5.853
 8366POPC   GL143873  33.803  11.348   6.153
 8366POPC   GL243874  33.878  11.388   6.153
 8366POPC   C1A43875  33.768  11.302   6.453
 8366POPC   D2A43876  33.803  11.314   6.753
 8366POPC   C3A43877  33.828  11.277   7.053
 8366POPC   C4A43878  33.829  11.316   7.353
 8366POPC   C1B43879  33.925  11.508   6.453
 8366POPC   C2B43880  33.899  11.543   6.753
 8366POPC   C3B43881  33.893  11.544   7.053
 8366POPC   C4B43882  33.977  11.504   7.353
 8367POPC   NC343883   2.015  14.436   5.553
 8367POPC   PO443884   1.943  14.435   5.853
 8367POPC   GL143885   1.955  14.387   6.153
 8367POPC   GL243886   1.973  14.521   6.153
 8367POPC   C1A43887   2.009  14.444   6.453
 8367POPC   D2A43888   1.975  14.408   6.753
 8367POPC   C3A43889   1.945  14.368   7.053
 8367POPC   C4A43890   1.997  14.404   7.353
 8367POPC   C1B43891   2.033  14.606   6.453
 8367POPC   C2B43892   2.063  14.660   6.753
 8367POPC   C3B43893   2.058  14.622   7.053
 8367POPC   C4B43894   1.967  14.626   7.353
 8368POPC   NC343895  32.240  16.713   5.553
 8368POPC   PO443896  32.217  16.760   5.853
 8368POPC   GL143897  32.263  16.751   6.153
 8368POPC   GL243898  32.240  16.821   6.153
 8368POPC   C1A43899  32.286  16.777   6.453
 8368POPC   D2A43900  32.212  16.747   6.753
 8368POPC   C3A43901  32.221  16.738   7.053
 8368POPC   C4A43902  32.297  16.693   7.353
 8368POPC   C1B43903  32.183  16.964   6.453
 8368POPC   C2B43904  32.172  16.959   6.753
 8368POPC   C3B43905  32.204  16.933   7.053
 8368POPC   C4B43906  32.144  16.982   7.353
 8369POPC   NC343907  29.150   0.475   5.553
 8369POPC   PO443908  29.187   0.433   5.853
 8369POPC   GL143909  29.113   0.430   6.153
 8369POPC   GL243910  29.319   0.392   6.153
 8369POPC   C1A43911  29.193   0.419   6.453
 8369POPC   D2A43912  29.112   0.421   6.753
 8369POPC   C3A43913  29.108   0.408   7.053
 8369POPC   C4A43914  29.141   0.476   7.353
 8369POPC   C1B43915  29.403   0.396   6.453
 8369POPC   C2B43916  29.381   0.378   6.753
 8369POPC   C3B43917  29.421   0.376   7.053
 8369POPC   C4B43918  29.432   0.361   7.353
 8370POPC   NC343919   9.699   1.999   5.553
 8370POPC   PO443920   9.796   2.006   5.853
 8370POPC   GL143921   9.788   1.964   6.153
 8370POPC   GL243922   9.730   1.830   6.153
 8370POPC   C1A43923   9.748   1.988   6.453
 8370POPC   D2A43924   9.734   2.034   6.753
 8370POPC   C3A43925   9.758   1.970   7.053
 8370POPC   C4A43926   9.756   1.980   7.353
 8370POPC   C1B43927   9.773   1.770   6.453
 8370POPC   C2B43928   9.734   1.787   6.753
 8370POPC   C3B43929   9.728   1.736   7.053
 8370POPC   C4B43930   9.710   1.790   7.353
 8371POPC   NC343931  16.736  43.138   5.553
 8371POPC   PO443932  16.735  43.095   5.853
 8371POPC   GL143933  16.705  43.137   6.153
 8371POPC   GL243934  16.644  43.159   6.153
 8371POPC   C1A43935  16.772  43.116   6.453
 8371POPC   D2A43936  16.752  43.158   6.753
 8371POPC   C3A43937  16.744  43.112   7.053
 8371POPC   C4A43938  16.722  43.143   7.353
 8371POPC   C1B43939  16.495  43.216   6.453
 8371POPC   C2B43940  16.566  43.282   6.753
 8371POPC   C3B43941  16.480  43.280   7.053
 8371POPC   C4B43942  16.526  43.239   7.353
 8372POPC   NC343943  27.553  15.228   5.553
 8372POPC   PO443944  27.545  15.139   5.853
 8372POPC   GL143945  27.629  15.157   6.153
 8372POPC   GL243946  27.490  15.143   6.153
 8372POPC   C1A43947  27.586  15.131   6.453
 8372POPC   D2A43948  27.555  15.162   6.753
 8372POPC   C3A43949  27.641  15.136   7.053
 8372POPC   C4A43950  27.625  15.180   7.353
 8372POPC   C1B43951  27.384  15.017   6.453
 8372POPC   C2B43952  27.429  15.024   6.753
 8372POPC   C3B43953  27.409  14.999   7.053
 8372POPC   C4B43954  27.367  15.013   7.353
 8373POPC   NC343955  18.322  37.674   5.553
 8373POPC   PO443956  18.281  37.648   5.853
 8373POPC   GL143957  18.261  37.725   6.153
 8373POPC   GL243958  18.139  37.699   6.153
 8373POPC   C1A43959  18.284  37.658   6.453
 8373POPC   D2A43960  18.275  37.719   6.753
 8373POPC   C3A43961  18.299  37.721   7.053
 8373POPC   C4A43962  18.267  37.676   7.353
 8373POPC   C1B43963  17.998  37.728   6.453
 8373POPC   C2B43964  18.018  37.761   6.753
 8373POPC   C3B43965  18.029  37.725   7.053
 8373POPC   C4B43966  18.000  37.709   7.353
 8374POPC   NC343967  22.912  39.276   5.553
 8374POPC   PO443968  22.912  39.245   5.853
 8374POPC   GL143969  22.925  39.254   6.153
 8374POPC   GL243970  23.021  39.125   6.153
 8374POPC   C1A43971  22.988  39.271   6.453
 8374POPC   D2A43972  22.906  39.211   6.753
 8374POPC   C3A43973  22.921  39.238   7.053
 8374POPC   C4A43974  22.954  39.206   7.353
 8374POPC   C1B43975  23.008  38.958   6.453
 8374POPC   C2B43976  22.977  39.022   6.753
 8374POPC   C3B43977  23.003  38.987   7.053
 8374POPC   C4B43978  22.993  38.982   7.353
 8375POPC   NC343979   7.429  12.120   5.553
 8375POPC   PO443980   7.419  12.059   5.853
 8375POPC   GL143981   7.375  12.112   6.153
 8375POPC   GL243982   7.331  12.125   6.153
 8375POPC   C1A43983   7.424  12.123   6.453
 8375POPC   D2A43984   7.448  12.081   6.753
 8375POPC   C3A43985   7.418  12.045   7.053
 8375POPC   C4A43986   7.421  12.045   7.353
 8375POPC   C1B43987   7.134  12.125   6.453
 8375POPC   C2B43988   7.161  12.121   6.753
 8375POPC   C3B43989   7.136  12.086   7.053
 8375POPC   C4B43990   7.205  12.076   7.353
 8376POPC   NC343991  38.482  23.743   5.553
 8376POPC   PO443992  38.495  23.711   5.853
 8376POPC   GL143993  38.472  23.714   6.153
 8376POPC   GL243994  38.397  23.562   6.153
 8376POPC   C1A43995  38.410  23.692   6.453
 8376POPC   D2A43996  38.455  23.670   6.753
 8376POPC   C3A43997  38.435  23.666   7.053
 8376POPC   C4A43998  38.409  23.764   7.353
 8376POPC   C1B43999  38.368  23.428   6.453
 8376POPC   C2B44000  38.411  23.473   6.753
 8376POPC   C3B44001  38.421  23.479   7.053
 8376POPC   C4B44002  38.407  23.486   7.353
 8377POPC   NC344003  33.768  39.276   5.553
 8377POPC   PO444004  33.772  39.210   5.853
 8377POPC   GL144005  33.809  39.206   6.153
 8377POPC   GL244006  33.753  39.270   6.153
 8377POPC   C1A44007  33.820  39.190   6.453
 8377POPC   D2A44008  33.817  39.209   6.753
 8377POPC   C3A44009  33.831  39.265   7.053
 8377POPC   C4A44010  33.772  39.187   7.353
 8377POPC   C1B44011  33.615  39.378   6.453
 8377POPC   C2B44012  33.643  39.394   6.753
 8377POPC   C3B44013  33.602  39.383   7.053
 8377POPC   C4B44014  33.574  39.385   7.353
 8378POPC   NC344015   8.226  36.100   5.553
 8378POPC   PO444016   8.241  36.148   5.853
 8378POPC   GL144017   8.214  36.103   6.153
 8378POPC   GL244018   8.042  36.084   6.153
 8378POPC   C1A44019   8.199  36.163   6.453
 8378POPC   D2A44020   8.161  36.137   6.753
 8378POPC   C3A44021   8.241  36.099   7.053
 8378POPC   C4A44022   8.231  36.110   7.353
 8378POPC   C1B44023   7.965  36.027   6.453
 8378POPC   C2B44024   7.961  36.049   6.753
 8378POPC   C3B44025   7.976  36.086   7.053
 8378POPC   C4B44026   7.916  36.025   7.353
 8379POPC   NC344027  25.260  20.631   5.553
 8379POPC   PO444028  25.254  20.603   5.853
 8379POPC   GL144029  25.236  20.587   6.153
 8379POPC   GL244030  25.347  20.548   6.153
 8379POPC   C1A44031  25.280  20.617   6.453
 8379POPC   D2A44032  25.234  20.590   6.753
 8379POPC   C3A44033  25.245  20.630   7.053
 8379POPC   C4A44034  25.270  20.592   7.353
 8379POPC   C1B44035  25.497  20.469   6.453
 8379POPC   C2B44036  25.452  20.414   6.753
 8379POPC   C3B44037  25.444  20.459   7.053
 8379POPC   C4B44038  25.472  20.428   7.353
 8380POPC   NC344039  12.858  26.825   5.553
 8380POPC   PO444040  12.856  26.809   5.853
 8380POPC   GL144041  12.896  26.851   6.153
 8380POPC   GL244042  12.739  26.756   6.153
 8380POPC   C1A44043  12.843  26.781   6.453
 8380POPC   D2A44044  12.864  26.815   6.753
 8380POPC   C3A44045  12.803  26.863   7.053
 8380POPC   C4A44046  12.825  26.782   7.353
 8380POPC   C1B44047  12.637  26.758   6.453
 8380POPC   C2B44048  12.619  26.793   6.753
 8380POPC   C3B44049  12.639  26.806   7.053
 8380POPC   C4B44050  12.603  26.779   7.353
 8381POPC   NC344051   3.502  12.056   5.553
 8381POPC   PO444052   3.580  12.107   5.853
 8381POPC   GL144053   3.526  12.113   6.153
 8381POPC   GL244054   3.622  12.223   6.153
 8381POPC   C1A44055   3.562  12.065   6.453
 8381POPC   D2A44056   3.580  12.114   6.753
 8381POPC   C3A44057   3.579  12.062   7.053
 8381POPC   C4A44058   3.570  12.058   7.353
 8381POPC   C1B44059   3.654  12.315   6.453
 8381POPC   C2B44060   3.732  12.331   6.753
 8381POPC   C3B44061   3.709  12.310   7.053
 8381POPC   C4B44062   3.654  12.260   7.353
 8382POPC   NC344063   5.043  43.082   5.553
 8382POPC   PO444064   5.097  43.120   5.853
 8382POPC   GL144065   5.123  43.068   6.153
 8382POPC   GL244066   5.101  42.971   6.153
 8382POPC   C1A44067   5.118  43.130   6.453
 8382POPC   D2A44068   5.085  43.131   6.753
 8382POPC   C3A44069   5.120  43.102   7.053
 8382POPC   C4A44070   5.049  43.077   7.353
 8382POPC   C1B44071   5.174  42.864   6.453
 8382POPC   C2B44072   5.215  42.915   6.753
 8382POPC   C3B44073   5.214  42.848   7.053
 8382POPC   C4B44074   5.196  42.930   7.353
 8383POPC   NC344075  32.232   3.520   5.553
 8383POPC   PO444076  32.260   3.587   5.853
 8383POPC   GL144077  32.263   3.541   6.153
 8383POPC   GL244078  32.209   3.671   6.153
 8383POPC   C1A44079  32.287   3.585   6.453
 8383POPC   D2A44080  32.283   3.535   6.753
 8383POPC   C3A44081  32.282   3.497   7.053
 8383POPC   C4A44082  32.207   3.529   7.353
 8383POPC   C1B44083  32.251   3.796   6.453
 8383POPC   C2B44084  32.281   3.822   6.753
 8383POPC   C3B44085  32.215   3.817   7.053
 8383POPC   C4B44086  32.287   3.793   7.353
 8384POPC   NC344087  43.853  24.460   5.553
 8384POPC   PO444088  43.926  24.456   5.853
 8384POPC   GL144089  43.844  24.525   6.153
 8384POPC   GL244090  43.877  24.324   6.153
 8384POPC   C1A44091  43.916  24.472   6.453
 8384POPC   D2A44092  43.904  24.480   6.753
 8384POPC   C3A44093  43.888  24.522   7.053
 8384POPC   C4A44094  43.923  24.443   7.353
 8384POPC   C1B44095  43.946  24.231   6.453
 8384POPC   C2B44096  43.900  24.218   6.753
 8384POPC   C3B44097  43.931  24.284   7.053
 8384POPC   C4B44098  43.970  24.204   7.353
 8385POPC   NC344099   8.171   2.736   5.553
 8385POPC   PO444100   8.211   2.749   5.853
 8385POPC   GL144101   8.196   2.792   6.153
 8385POPC   GL244102   8.159   2.854   6.153
 8385POPC   C1A44103   8.172   2.759   6.453
 8385POPC   D2A44104   8.172   2.754   6.753
 8385POPC   C3A44105   8.149   2.775   7.053
 8385POPC   C4A44106   8.153   2.774   7.353
 8385POPC   C1B44107   8.206   3.045   6.453
 8385POPC   C2B44108   8.217   3.005   6.753
 8385POPC   C3B44109   8.207   3.005   7.053
 8385POPC   C4B44110   8.189   2.985   7.353
 8386POPC   NC344111  19.829  22.132   5.553
 8386POPC   PO444112  19.833  22.118   5.853
 8386POPC   GL144113  19.857  22.162   6.153
 8386POPC   GL244114  19.795  22.049   6.153
 8386POPC   C1A44115  19.810  22.150   6.453
 8386POPC   D2A44116  19.801  22.167   6.753
 8386POPC   C3A44117  19.874  22.180   7.053
 8386POPC   C4A44118  19.795  22.182   7.353
 8386POPC   C1B44119  19.730  21.932   6.453
 8386POPC   C2B44120  19.723  21.980   6.753
 8386POPC   C3B44121  19.691  21.927   7.053
 8386POPC   C4B44122  19.721  21.930   7.353
 8387POPC   NC344123  19.785  29.134   5.553
 8387POPC   PO444124  19.794  29.148   5.853
 8387POPC   GL144125  19.798  29.136   6.153
 8387POPC   GL244126  19.667  29.141   6.153
 8387POPC   C1A44127  19.818  29.126   6.453
 8387POPC   D2A44128  19.868  29.161   6.753
 8387POPC   C3A44129  19.786  29.169   7.053
 8387POPC   C4A44130  19.800  29.160   7.353
 8387POPC   C1B44131  19.590  29.122   6.453
 8387POPC   C2B44132  19.633  29.120   6.753
 8387POPC   C3B44133  19.615  29.044   7.053
 8387POPC   C4B44134  19.606  29.116   7.353
 8388POPC   NC344135  26.079  30.650   5.553
 8388POPC   PO444136  26.079  30.683   5.853
 8388POPC   GL144137  26.042  30.676   6.153
 8388POPC   GL244138  26.006  30.592   6.153
 8388POPC   C1A44139  26.004  30.711   6.453
 8388POPC   D2A44140  26.032  30.724   6.753
 8388POPC   C3A44141  26.045  30.716   7.053
 8388POPC   C4A44142  25.999  30.675   7.353
 8388POPC   C1B44143  25.833  30.522   6.453
 8388POPC   C2B44144  25.838  30.553   6.753
 8388POPC   C3B44145  25.854  30.554   7.053
 8388POPC   C4B44146  25.911  30.554   7.353
 8389POPC   NC344147   5.122  14.361   5.553
 8389POPC   PO444148   5.125  14.403   5.853
 8389POPC   GL144149   5.080  14.448   6.153
 8389POPC   GL244150   5.182  14.492   6.153
 8389POPC   C1A44151   5.099  14.434   6.453
 8389POPC   D2A44152   5.045  14.408   6.753
 8389POPC   C3A44153   5.141  14.425   7.053
 8389POPC   C4A44154   5.137  14.420   7.353
 8389POPC   C1B44155   5.244  14.596   6.453
 8389POPC   C2B44156   5.293  14.555   6.753
 8389POPC   C3B44157   5.282  14.553   7.053
 8389POPC   C4B44158   5.270  14.586   7.353
 8390POPC   NC344159  38.472  41.608   5.553
 8390POPC   PO444160  38.477  41.568   5.853
 8390POPC   GL144161  38.451  41.515   6.153
 8390POPC   GL244162  38.292  41.557   6.153
 8390POPC   C1A44163  38.468  41.536   6.453
 8390POPC   D2A44164  38.449  41.547   6.753
 8390POPC   C3A44165  38.438  41.595   7.053
 8390POPC   C4A44166  38.482  41.600   7.353
 8390POPC   C1B44167  38.201  41.643   6.453
 8390POPC   C2B44168  38.268  41.603   6.753
 8390POPC   C3B44169  38.273  41.683   7.053
 8390POPC   C4B44170  38.189  41.669   7.353
 8391POPC   NC344171   9.021  40.034   5.553
 8391POPC   PO444172   8.936  40.019   5.853
 8391POPC   GL144173   8.948  39.990   6.153
 8391POPC   GL244174   8.884  40.018   6.153
 8391POPC   C1A44175   9.008  40.038   6.453
 8391POPC   D2A44176   8.949  39.966   6.753
 8391POPC   C3A44177   9.005  39.992   7.053
 8391POPC   C4A44178   8.977  40.013   7.353
 8391POPC   C1B44179   8.759  40.106   6.453
 8391POPC   C2B44180   8.739  40.081   6.753
 8391POPC   C3B44181   8.737  40.100   7.053
 8391POPC   C4B44182   8.692  40.026   7.353
 8392POPC   NC344183  16.762  44.680   5.553
 8392POPC   PO444184  16.706  44.676   5.853
 8392POPC   GL144185  16.774  44.619   6.153
 8392POPC   GL244186  16.729  44.525   6.153
 8392POPC   C1A44187  16.700  44.695   6.453
 8392POPC   D2A44188  16.696  44.673   6.753
 8392POPC   C3A44189  16.683  44.627   7.053
 8392POPC   C4A44190  16.731  44.712   7.353
 8392POPC   C1B44191  16.700  44.459   6.453
 8392POPC   C2B44192  16.678  44.372   6.753
 8392POPC   C3B44193  16.702  44.400   7.053
 8392POPC   C4B44194  16.693  44.389   7.353
 8393POPC   NC344195  36.936  31.483   5.553
 8393POPC   PO444196  36.864  31.455   5.853
 8393POPC   GL144197  36.948  31.467   6.153
 8393POPC   GL244198  36.908  31.639   6.153
 8393POPC   C1A44199  36.871  31.465   6.453
 8393POPC   D2A44200  36.924  31.462   6.753
 8393POPC   C3A44201  36.918  31.499   7.053
 8393POPC   C4A44202  36.927  31.449   7.353
 8393POPC   C1B44203  36.936  31.697   6.453
 8393POPC   C2B44204  36.943  31.727   6.753
 8393POPC   C3B44205  36.910  31.722   7.053
 8393POPC   C4B44206  36.897  31.748   7.353
 8394POPC   NC344207  41.564  39.975   5.553
 8394POPC   PO444208  41.571  40.040   5.853
 8394POPC   GL144209  41.591  40.029   6.153
 8394POPC   GL244210  41.596  40.147   6.153
 8394POPC   C1A44211  41.559  39.959   6.453
 8394POPC   D2A44212  41.575  39.985   6.753
 8394POPC   C3A44213  41.579  40.000   7.053
 8394POPC   C4A44214  41.514  40.020   7.353
 8394POPC   C1B44215  41.621  40.259   6.453
 8394POPC   C2B44216  41.645  40.273   6.753
 8394POPC   C3B44217  41.681  40.222   7.053
 8394POPC   C4B44218  41.675  40.261   7.353
 8395POPC   NC344219  17.545  25.289   5.553
 8395POPC   PO444220  17.508  25.290   5.853
 8395POPC   GL144221  17.542  25.230   6.153
 8395POPC   GL244222  17.496  25.176   6.153
 8395POPC   C1A44223  17.520  25.240   6.453
 8395POPC   D2A44224  17.553  25.296   6.753
 8395POPC   C3A44225  17.533  25.300   7.053
 8395POPC   C4A44226  17.542  25.247   7.353
 8395POPC   C1B44227  17.499  25.062   6.453
 8395POPC   C2B44228  17.512  25.036   6.753
 8395POPC   C3B44229  17.525  25.006   7.053
 8395POPC   C4B44230  17.474  25.018   7.353
 8396POPC   NC344231  38.464  43.100   5.553
 8396POPC   PO444232  38.408  43.128   5.853
 8396POPC   GL144233  38.502  43.132   6.153
 8396POPC   GL244234  38.533  43.055   6.153
 8396POPC   C1A44235  38.472  43.119   6.453
 8396POPC   D2A44236  38.463  43.085   6.753
 8396POPC   C3A44237  38.437  43.124   7.053
 8396POPC   C4A44238  38.452  43.083   7.353
 8396POPC   C1B44239  38.641  42.913   6.453
 8396POPC   C2B44240  38.606  42.914   6.753
 8396POPC   C3B44241  38.666  42.913   7.053
 8396POPC   C4B44242  38.613  42.933   7.353
 8397POPC   NC344243   2.775   9.018   5.553
 8397POPC   PO444244   2.739   9.009   5.853
 8397POPC   GL144245   2.792   8.998   6.153
 8397POPC   GL244246   2.913   9.063   6.153
 8397POPC   C1A44247   2.790   8.937   6.453
 8397POPC   D2A44248   2.780   8.935   6.753
 8397POPC   C3A44249   2.802   9.006   7.053
 8397POPC   C4A44250   2.729   9.010   7.353
 8397POPC   C1B44251   2.973   9.056   6.453
 8397POPC   C2B44252   2.948   9.114   6.753
 8397POPC   C3B44253   2.986   9.056   7.053
 8397POPC   C4B44254   3.032   9.136   7.353
 8398POPC   NC344255   6.658   3.506   5.553
 8398POPC   PO444256   6.627   3.589   5.853
 8398POPC   GL144257   6.622   3.587   6.153
 8398POPC   GL244258   6.701   3.434   6.153
 8398POPC   C1A44259   6.663   3.530   6.453
 8398POPC   D2A44260   6.615   3.562   6.753
 8398POPC   C3A44261   6.612   3.582   7.053
 8398POPC   C4A44262   6.665   3.503   7.353
 8398POPC   C1B44263   6.787   3.322   6.453
 8398POPC   C2B44264   6.786   3.346   6.753
 8398POPC   C3B44265   6.811   3.318   7.053
 8398POPC   C4B44266   6.762   3.332   7.353
 8399POPC   NC344267  32.223  35.323   5.553
 8399POPC   PO444268  32.272  35.392   5.853
 8399POPC   GL144269  32.290  35.329   6.153
 8399POPC   GL244270  32.403  35.455   6.153
 8399POPC   C1A44271  32.245  35.346   6.453
 8399POPC   D2A44272  32.259  35.362   6.753
 8399POPC   C3A44273  32.221  35.398   7.053
 8399POPC   C4A44274  32.223  35.364   7.353
 8399POPC   C1B44275  32.457  35.440   6.453
 8399POPC   C2B44276  32.485  35.436   6.753
 8399POPC   C3B44277  32.495  35.443   7.053
 8399POPC   C4B44278  32.423  35.499   7.353
 8400POPC   NC344279  41.533  23.707   5.553
 8400POPC   PO444280  41.537  23.728   5.853
 8400POPC   GL144281  41.581  23.723   6.153
 8400POPC   GL244282  41.621  23.634   6.153
 8400POPC   C1A44283  41.538  23.685   6.453
 8400POPC   D2A44284  41.570  23.674   6.753
 8400POPC   C3A44285  41.537  23.698   7.053
 8400POPC   C4A44286  41.605  23.733   7.353
 8400POPC   C1B44287  41.744  23.518   6.453
 8400POPC   C2B44288  41.749  23.509   6.753
 8400POPC   C3B44289  41.715  23.592   7.053
 8400POPC   C4B44290  41.794  23.534   7.353
 8401POPC   NC344291  43.101  41.604   5.553
 8401POPC   PO444292  43.070  41.546   5.853
 8401POPC   GL144293  43.114  41.556   6.153
 8401POPC   GL244294  43.156  41.724   6.153
 8401POPC   C1A44295  43.071  41.608   6.453
 8401POPC   D2A44296  43.113  41.540   6.753
 8401POPC   C3A44297  43.137  41.565   7.053
 8401POPC   C4A44298  43.134  41.572   7.353
 8401POPC   C1B44299  43.228  41.810   6.453
 8401POPC   C2B44300  43.216  41.796   6.753
 8401POPC   C3B44301  43.205  41.777   7.053
 8401POPC   C4B44302  43.179  41.771   7.353
 8402POPC   NC344303  12.888  19.832   5.553
 8402POPC   PO444304  12.878  19.881   5.853
 8402POPC   GL144305  12.863  19.820   6.153
 8402POPC   GL244306  12.707  19.710   6.153
 8402POPC   C1A44307  12.878  19.788   6.453
 8402POPC   D2A44308  12.811  19.827   6.753
 8402POPC   C3A44309  12.853  19.790   7.053
 8402POPC   C4A44310  12.870  19.832   7.353
 8402POPC   C1B44311  12.637  19.720   6.453
 8402POPC   C2B44312  12.690  19.643   6.753
 8402POPC   C3B44313  12.663  19.653   7.053
 8402POPC   C4B44314  12.637  19.720   7.353
 8403POPC   NC344315  34.578  36.141   5.553
 8403POPC   PO444316  34.573  36.094   5.853
 8403POPC   GL144317  34.529  36.143   6.153
 8403POPC   GL244318  34.598  36.264   6.153
 8403POPC   C1A44319  34.535  36.097   6.453
 8403POPC   D2A44320  34.604  36.083   6.753
 8403POPC   C3A44321  34.590  36.163   7.053
 8403POPC   C4A44322  34.562  36.137   7.353
 8403POPC   C1B44323  34.496  36.324   6.453
 8403POPC   C2B44324  34.539  36.332   6.753
 8403POPC   C3B44325  34.522  36.379   7.053
 8403POPC   C4B44326  34.565  36.350   7.353
 8404POPC   NC344327  27.569   1.191   5.553
 8404POPC   PO444328  27.641   1.251   5.853
 8404POPC   GL144329  27.642   1.173   6.153
 8404POPC   GL244330  27.646   1.326   6.153
 8404POPC   C1A44331  27.630   1.191   6.453
 8404POPC   D2A44332  27.600   1.251   6.753
 8404POPC   C3A44333  27.557   1.183   7.053
 8404POPC   C4A44334  27.553   1.200   7.353
 8404POPC   C1B44335  27.608   1.454   6.453
 8404POPC   C2B44336  27.625   1.504   6.753
 8404POPC   C3B44337  27.611   1.464   7.053
 8404POPC   C4B44338  27.593   1.438   7.353
 8405POPC   NC344339  11.254  16.755   5.553
 8405POPC   PO444340  11.332  16.745   5.853
 8405POPC   GL144341  11.306  16.683   6.153
 8405POPC   GL244342  11.199  16.841   6.153
 8405POPC   C1A44343  11.291  16.681   6.453
 8405POPC   D2A44344  11.275  16.736   6.753
 8405POPC   C3A44345  11.257  16.693   7.053
 8405POPC   C4A44346  11.343  16.700   7.353
 8405POPC   C1B44347  11.124  16.830   6.453
 8405POPC   C2B44348  11.109  16.856   6.753
 8405POPC   C3B44349  11.104  16.859   7.053
 8405POPC   C4B44350  11.114  16.831   7.353
 8406POPC   NC344351   2.758  43.157   5.553
 8406POPC   PO444352   2.795  43.061   5.853
 8406POPC   GL144353   2.801  43.067   6.153
 8406POPC   GL244354   2.788  43.030   6.153
 8406POPC   C1A44355   2.742  43.149   6.453
 8406POPC   D2A44356   2.741  43.127   6.753
 8406POPC   C3A44357   2.735  43.098   7.053
 8406POPC   C4A44358   2.735  43.070   7.353
 8406POPC   C1B44359   2.783  42.909   6.453
 8406POPC   C2B44360   2.791  42.861   6.753
 8406POPC   C3B44361   2.749  42.826   7.053
 8406POPC   C4B44362   2.767  42.822   7.353
 8407POPC   NC344363  38.451   7.454   5.553
 8407POPC   PO444364  38.482   7.408   5.853
 8407POPC   GL144365  38.463   7.399   6.153
 8407POPC   GL244366  38.487   7.328   6.153
 8407POPC   C1A44367  38.446   7.465   6.453
 8407POPC   D2A44368  38.435   7.375   6.753
 8407POPC   C3A44369  38.410   7.469   7.053
 8407POPC   C4A44370  38.446   7.402   7.353
 8407POPC   C1B44371  38.534   7.123   6.453
 8407POPC   C2B44372  38.530   7.146   6.753
 8407POPC   C3B44373  38.468   7.217   7.053
 8407POPC   C4B44374  38.498   7.133   7.353
 8408POPC   NC344375  43.865  22.964   5.553
 8408POPC   PO444376  43.842  22.934   5.853
 8408POPC   GL144377  43.922  22.893   6.153
 8408POPC   GL244378  43.823  22.825   6.153
 8408POPC   C1A44379  43.903  22.975   6.453
 8408POPC   D2A44380  43.872  22.952   6.753
 8408POPC   C3A44381  43.873  22.935   7.053
 8408POPC   C4A44382  43.889  22.897   7.353
 8408POPC   C1B44383  43.797  22.714   6.453
 8408POPC   C2B44384  43.789  22.702   6.753
 8408POPC   C3B44385  43.788  22.694   7.053
 8408POPC   C4B44386  43.733  22.766   7.353
 8409POPC   NC344387  43.868  41.551   5.553
 8409POPC   PO444388  43.922  41.559   5.853
 8409POPC   GL144389  43.837  41.542   6.153
 8409POPC   GL244390  44.044  41.559   6.153
 8409POPC   C1A44391  43.904  41.549   6.453
 8409POPC   D2A44392  43.927  41.609   6.753
 8409POPC   C3A44393  43.887  41.559   7.053
 8409POPC   C4A44394  43.874  41.532   7.353
 8409POPC   C1B44395  44.085  41.643   6.453
 8409POPC   C2B44396  44.155  41.587   6.753
 8409POPC   C3B44397  44.141  41.678   7.053
 8409POPC   C4B44398  44.088  41.592   7.353
 8410POPC   NC344399  11.345  23.672   5.553
 8410POPC   PO444400  11.337  23.753   5.853
 8410POPC   GL144401  11.290  23.693   6.153
 8410POPC   GL244402  11.229  23.593   6.153
 8410POPC   C1A44403  11.318  23.761   6.453
 8410POPC   D2A44404  11.345  23.728   6.753
 8410POPC   C3A44405  11.281  23.691   7.053
 8410POPC   C4A44406  11.335  23.725   7.353
 8410POPC   C1B44407  11.092  23.516   6.453
 8410POPC   C2B44408  11.097  23.519   6.753
 8410POPC   C3B44409  11.122  23.523   7.053
 8410POPC   C4B44410  11.080  23.558   7.353
 8411POPC   NC344411  38.436   4.350   5.553
 8411POPC   PO444412  38.474   4.329   5.853
 8411POPC   GL144413  38.410   4.301   6.153
 8411POPC   GL244414  38.545   4.355   6.153
 8411POPC   C1A44415  38.493   4.304   6.453
 8411POPC   D2A44416  38.427   4.296   6.753
 8411POPC   C3A44417  38.476   4.330   7.053
 8411POPC   C4A44418  38.433   4.363   7.353
 8411POPC   C1B44419  38.682   4.470   6.453
 8411POPC   C2B44420  38.628   4.508   6.753
 8411POPC   C3B44421  38.662   4.439   7.053
 8411POPC   C4B44422  38.640   4.442   7.353
 8412POPC   NC344423  18.314  35.315   5.553
 8412POPC   PO444424  18.251  35.311   5.853
 8412POPC   GL144425  18.331  35.335   6.153
 8412POPC   GL244426  18.311  35.225   6.153
 8412POPC   C1A44427  18.246  35.389   6.453
 8412POPC   D2A44428  18.278  35.312   6.753
 8412POPC   C3A44429  18.315  35.321   7.053
 8412POPC   C4A44430  18.298  35.376   7.353
 8412POPC   C1B44431  18.268  35.056   6.453
 8412POPC   C2B44432  18.247  35.061   6.753
 8412POPC   C3B44433  18.241  35.133   7.053
 8412POPC   C4B44434  18.200  35.083   7.353
 8413POPC   NC344435  18.283   2.009   5.553
 8413POPC   PO444436  18.284   1.990   5.853
 8413POPC   GL144437  18.332   2.036   6.153
 8413POPC   GL244438  18.217   1.977   6.153
 8413POPC   C1A44439  18.235   2.037   6.453
 8413POPC   D2A44440  18.312   2.022   6.753
 8413POPC   C3A44441  18.246   1.943   7.053
 8413POPC   C4A44442  18.323   2.038   7.353
 8413POPC   C1B44443  18.110   1.862   6.453
 8413POPC   C2B44444  18.079   1.831   6.753
 8413POPC   C3B44445  18.106   1.832   7.053
 8413POPC   C4B44446  18.082   1.878   7.353
 8414POPC   NC344447  17.546  26.026   5.553
 8414POPC   PO444448  17.502  25.994   5.853
 8414POPC   GL144449  17.482  25.994   6.153
 8414POPC   GL244450  17.591  25.905   6.153
 8414POPC   C1A44451  17.457  25.993   6.453
 8414POPC   D2A44452  17.482  26.018   6.753
 8414POPC   C3A44453  17.540  26.052   7.053
 8414POPC   C4A44454  17.503  26.003   7.353
 8414POPC   C1B44455  17.549  25.771   6.453
 8414POPC   C2B44456  17.637  25.821   6.753
 8414POPC   C3B44457  17.591  25.828   7.053
 8414POPC   C4B44458  17.611  25.819   7.353
 8415POPC   NC344459   3.557  18.311   5.553
 8415POPC   PO444460   3.540  18.240   5.853
 8415POPC   GL144461   3.510  18.311   6.153
 8415POPC   GL244462   3.642  18.314   6.153
 8415POPC   C1A44463   3.514  18.316   6.453
 8415POPC   D2A44464   3.516  18.312   6.753
 8415POPC   C3A44465   3.577  18.322   7.053
 8415POPC   C4A44466   3.545  18.317   7.353
 8415POPC   C1B44467   3.779  18.381   6.453
 8415POPC   C2B44468   3.728  18.401   6.753
 8415POPC   C3B44469   3.725  18.357   7.053
 8415POPC   C4B44470   3.730  18.423   7.353
 8416POPC   NC344471   7.415  15.993   5.553
 8416POPC   PO444472   7.411  15.915   5.853
 8416POPC   GL144473   7.466  15.909   6.153
 8416POPC   GL244474   7.303  16.041   6.153
 8416POPC   C1A44475   7.452  15.991   6.453
 8416POPC   D2A44476   7.455  15.982   6.753
 8416POPC   C3A44477   7.456  15.929   7.053
 8416POPC   C4A44478   7.385  16.004   7.353
 8416POPC   C1B44479   7.237  16.049   6.453
 8416POPC   C2B44480   7.181  16.068   6.753
 8416POPC   C3B44481   7.224  16.025   7.053
 8416POPC   C4B44482   7.195  16.046   7.353
 8417POPC   NC344483  34.619  31.436   5.553
 8417POPC   PO444484  34.553  31.522   5.853
 8417POPC   GL144485  34.603  31.504   6.153
 8417POPC   GL244486  34.688  31.597   6.153
 8417POPC   C1A44487  34.618  31.506   6.453
 8417POPC   D2A44488  34.596  31.496   6.753
 8417POPC   C3A44489  34.606  31.468   7.053
 8417POPC   C4A44490  34.577  31.516   7.353
 8417POPC   C1B44491  34.803  31.676   6.453
 8417POPC   C2B44492  34.771  31.590   6.753
 8417POPC   C3B44493  34.782  31.620   7.053
 8417POPC   C4B44494  34.764  31.676   7.353
 8418POPC   NC344495  36.176  36.914   5.553
 8418POPC   PO444496  36.102  36.906   5.853
 8418POPC   GL144497  36.130  36.895   6.153
 8418POPC   GL244498  36.047  36.842   6.153
 8418POPC   C1A44499  36.131  36.929   6.453
 8418POPC   D2A44500  36.082  36.925   6.753
 8418POPC   C3A44501  36.168  36.931   7.053
 8418POPC   C4A44502  36.154  36.878   7.353
 8418POPC   C1B44503  35.900  36.783   6.453
 8418POPC   C2B44504  35.905  36.797   6.753
 8418POPC   C3B44505  35.929  36.842   7.053
 8418POPC   C4B44506  35.937  36.782   7.353
 8419POPC   NC344507  36.112  33.826   5.553
 8419POPC   PO444508  36.081  33.807   5.853
 8419POPC   GL144509  36.158  33.756   6.153
 8419POPC   GL244510  36.225  33.870   6.153
 8419POPC   C1A44511  36.132  33.825   6.453
 8419POPC   D2A44512  36.116  33.848   6.753
 8419POPC   C3A44513  36.156  33.842   7.053
 8419POPC   C4A44514  36.141  33.784   7.353
 8419POPC   C1B44515  36.388  33.819   6.453
 8419POPC   C2B44516  36.331  33.821   6.753
 8419POPC   C3B44517  36.367  33.812   7.053
 8419POPC   C4B44518  36.387  33.847   7.353
 8420POPC   NC344519  19.102   8.233   5.553
 8420POPC   PO444520  19.071   8.231   5.853
 8420POPC   GL144521  19.014   8.220   6.153
 8420POPC   GL244522  19.093   8.353   6.153
 8420POPC   C1A44523  19.013   8.213   6.453
 8420POPC   D2A44524  19.091   8.177   6.753
 8420POPC   C3A44525  19.037   8.229   7.053
 8420POPC   C4A44526  19.053   8.173   7.353
 8420POPC   C1B44527  19.043   8.395   6.453
 8420POPC   C2B44528  19.013   8.402   6.753
 8420POPC   C3B44529  19.043   8.478   7.053
 8420POPC   C4B44530  19.044   8.424   7.353
 8421POPC   NC344531  25.311  29.879   5.553
 8421POPC   PO444532  25.278  29.944   5.853
 8421POPC   GL144533  25.297  29.928   6.153
 8421POPC   GL244534  25.228  29.786   6.153
 8421POPC   C1A44535  25.265  29.893   6.453
 8421POPC   D2A44536  25.263  29.896   6.753
 8421POPC   C3A44537  25.217  29.954   7.053
 8421POPC   C4A44538  25.307  29.909   7.353
 8421POPC   C1B44539  25.135  29.754   6.453
 8421POPC   C2B44540  25.092  29.727   6.753
 8421POPC   C3B44541  25.103  29.703   7.053
 8421POPC   C4B44542  25.108  29.758   7.353
 8422POPC   NC344543   1.230  19.051   5.553
 8422POPC   PO444544   1.219  19.016   5.853
 8422POPC   GL144545   1.229  19.046   6.153
 8422POPC   GL244546   1.191  19.158   6.153
 8422POPC   C1A44547   1.212  19.021   6.453
 8422POPC   D2A44548   1.215  19.049   6.753
 8422POPC   C3A44549   1.180  19.046   7.053
 8422POPC   C4A44550   1.253  19.078   7.353
 8422POPC   C1B44551   1.205  19.319   6.453
 8422POPC   C2B44552   1.225  19.351   6.753
 8422POPC   C3B44553   1.209  19.313   7.053
 8422POPC   C4B44554   1.236  19.274   7.353
 8423POPC   NC344555  36.895  20.619   5.553
 8423POPC   PO444556  36.883  20.622   5.853
 8423POPC   GL144557  36.881  20.578   6.153
 8423POPC   GL244558  37.000  20.619   6.153
 8423POPC   C1A44559  36.902  20.649   6.453
 8423POPC   D2A44560  36.930  20.572   6.753
 8423POPC   C3A44561  36.859  20.567   7.053
 8423POPC   C4A44562  36.890  20.573   7.353
 8423POPC   C1B44563  37.148  20.579   6.453
 8423POPC   C2B44564  37.186  20.583   6.753
 8423POPC   C3B44565  37.166  20.563   7.053
 8423POPC   C4B44566  37.192  20.590   7.353
 8424POPC   NC344567  10.548  12.823   5.553
 8424POPC   PO444568  10.498  12.817   5.853
 8424POPC   GL144569  10.507  12.875   6.153
 8424POPC   GL244570  10.553  13.017   6.153
 8424POPC   C1A44571  10.484  12.832   6.453
 8424POPC   D2A44572  10.509  12.861   6.753
 8424POPC   C3A44573  10.489  12.844   7.053
 8424POPC   C4A44574  10.563  12.818   7.353
 8424POPC   C1B44575  10.640  13.089   6.453
 8424POPC   C2B44576  10.623  13.125   6.753
 8424POPC   C3B44577  10.574  13.117   7.053
 8424POPC   C4B44578  10.569  13.080   7.353
 8425POPC   NC344579  41.540  40.763   5.553
 8425POPC   PO444580  41.571  40.741   5.853
 8425POPC   GL144581  41.538  40.824   6.153
 8425POPC   GL244582  41.642  40.707   6.153
 8425POPC   C1A44583  41.596  40.801   6.453
 8425POPC   D2A44584  41.519  40.793   6.753
 8425POPC   C3A44585  41.554  40.804   7.053
 8425POPC   C4A44586  41.604  40.772   7.353
 8425POPC   C1B44587  41.699  40.646   6.453
 8425POPC   C2B44588  41.761  40.646   6.753
 8425POPC   C3B44589  41.760  40.612   7.053
 8425POPC   C4B44590  41.730  40.641   7.353
 8426POPC   NC344591   2.716   7.372   5.553
 8426POPC   PO444592   2.812   7.458   5.853
 8426POPC   GL144593   2.803   7.376   6.153
 8426POPC   GL244594   2.696   7.335   6.153
 8426POPC   C1A44595   2.814   7.451   6.453
 8426POPC   D2A44596   2.762   7.429   6.753
 8426POPC   C3A44597   2.732   7.378   7.053
 8426POPC   C4A44598   2.717   7.403   7.353
 8426POPC   C1B44599   2.692   7.134   6.453
 8426POPC   C2B44600   2.738   7.177   6.753
 8426POPC   C3B44601   2.714   7.186   7.053
 8426POPC   C4B44602   2.661   7.134   7.353
 8427POPC   NC344603  18.320  44.633   5.553
 8427POPC   PO444604  18.274  44.681   5.853
 8427POPC   GL144605  18.244  44.690   6.153
 8427POPC   GL244606  18.309  44.738   6.153
 8427POPC   C1A44607  18.255  44.701   6.453
 8427POPC   D2A44608  18.329  44.680   6.753
 8427POPC   C3A44609  18.271  44.656   7.053
 8427POPC   C4A44610  18.288  44.681   7.353
 8427POPC   C1B44611  18.265  44.918   6.453
 8427POPC   C2B44612  18.355  44.893   6.753
 8427POPC   C3B44613  18.298  44.926   7.053
 8427POPC   C4B44614  18.349  44.955   7.353
 8428POPC   NC344615  15.195  28.352   5.553
 8428POPC   PO444616  15.140  28.330   5.853
 8428POPC   GL144617  15.161  28.391   6.153
 8428POPC   GL244618  15.189  28.491   6.153
 8428POPC   C1A44619  15.172  28.332   6.453
 8428POPC   D2A44620  15.155  28.402   6.753
 8428POPC   C3A44621  15.207  28.370   7.053
 8428POPC   C4A44622  15.132  28.345   7.353
 8428POPC   C1B44623  15.156  28.620   6.453
 8428POPC   C2B44624  15.125  28.569   6.753
 8428POPC   C3B44625  15.081  28.616   7.053
 8428POPC   C4B44626  15.085  28.575   7.353
 8429POPC   NC344627  15.195   1.233   5.553
 8429POPC   PO444628  15.204   1.226   5.853
 8429POPC   GL144629  15.172   1.259   6.153
 8429POPC   GL244630  15.175   1.129   6.153
 8429POPC   C1A44631  15.184   1.207   6.453
 8429POPC   D2A44632  15.151   1.259   6.753
 8429POPC   C3A44633  15.185   1.189   7.053
 8429POPC   C4A44634  15.157   1.218   7.353
 8429POPC   C1B44635  15.091   0.969   6.453
 8429POPC   C2B44636  15.112   0.944   6.753
 8429POPC   C3B44637  15.146   0.992   7.053
 8429POPC   C4B44638  15.103   1.020   7.353
 8430POPC   NC344639  44.683  18.277   5.553
 8430POPC   PO444640  44.690  18.302   5.853
 8430POPC   GL144641  44.621  18.233   6.153
 8430POPC   GL244642  44.804  18.347   6.153
 8430POPC   C1A44643  44.616  18.306   6.453
 8430POPC   D2A44644  44.688  18.303   6.753
 8430POPC   C3A44645  44.618  18.279   7.053
 8430POPC   C4A44646  44.613  18.303   7.353
 8430POPC   C1B44647  44.857  18.399   6.453
 8430POPC   C2B44648  44.948  18.357   6.753
 8430POPC   C3B44649  44.935  18.377   7.053
 8430POPC   C4B44650  44.930  18.392   7.353
 8431POPC   NC344651  22.117  42.351   5.553
 8431POPC   PO444652  22.196  42.325   5.853
 8431POPC   GL144653  22.130  42.380   6.153
 8431POPC   GL244654  22.085  42.302   6.153
 8431POPC   C1A44655  22.130  42.366   6.453
 8431POPC   D2A44656  22.115  42.324   6.753
 8431POPC   C3A44657  22.197  42.380   7.053
 8431POPC   C4A44658  22.112  42.304   7.353
 8431POPC   C1B44659  21.909  42.244   6.453
 8431POPC   C2B44660  21.932  42.236   6.753
 8431POPC   C3B44661  21.910  42.182   7.053
 8431POPC   C4B44662  21.922  42.169   7.353
 8432POPC   NC344663  32.220  33.824   5.553
 8432POPC   PO444664  32.201  33.764   5.853
 8432POPC   GL144665  32.210  33.828   6.153
 8432POPC   GL244666  32.387  33.723   6.153
 8432POPC   C1A44667  32.275  33.847   6.453
 8432POPC   D2A44668  32.215  33.799   6.753
 8432POPC   C3A44669  32.284  33.788   7.053
 8432POPC   C4A44670  32.234  33.763   7.353
 8432POPC   C1B44671  32.457  33.769   6.453
 8432POPC   C2B44672  32.509  33.678   6.753
 8432POPC   C3B44673  32.518  33.677   7.053
 8432POPC   C4B44674  32.510  33.743   7.353
 8433POPC   NC344675   1.950   8.950   5.553
 8433POPC   PO444676   1.979   9.009   5.853
 8433POPC   GL144677   1.969   8.927   6.153
 8433POPC   GL244678   1.939   8.854   6.153
 8433POPC   C1A44679   2.035   8.986   6.453
 8433POPC   D2A44680   2.033   9.009   6.753
 8433POPC   C3A44681   2.001   9.011   7.053
 8433POPC   C4A44682   1.940   9.002   7.353
 8433POPC   C1B44683   1.932   8.763   6.453
 8433POPC   C2B44684   1.915   8.716   6.753
 8433POPC   C3B44685   1.903   8.762   7.053
 8433POPC   C4B44686   1.858   8.703   7.353
 8434POPC   NC344687   8.185  15.156   5.553
 8434POPC   PO444688   8.232  15.141   5.853
 8434POPC   GL144689   8.215  15.135   6.153
 8434POPC   GL244690   8.150  15.085   6.153
 8434POPC   C1A44691   8.193  15.201   6.453
 8434POPC   D2A44692   8.163  15.203   6.753
 8434POPC   C3A44693   8.175  15.130   7.053
 8434POPC   C4A44694   8.157  15.192   7.353
 8434POPC   C1B44695   7.980  14.984   6.453
 8434POPC   C2B44696   8.045  15.054   6.753
 8434POPC   C3B44697   7.984  15.023   7.053
 8434POPC   C4B44698   8.026  15.012   7.353
 8435POPC   NC344699  12.115   3.505   5.553
 8435POPC   PO444700  12.107   3.563   5.853
 8435POPC   GL144701  12.119   3.533   6.153
 8435POPC   GL244702  11.975   3.602   6.153
 8435POPC   C1A44703  12.083   3.581   6.453
 8435POPC   D2A44704  12.075   3.535   6.753
 8435POPC   C3A44705  12.123   3.563   7.053
 8435POPC   C4A44706  12.107   3.500   7.353
 8435POPC   C1B44707  11.892   3.629   6.453
 8435POPC   C2B44708  11.899   3.686   6.753
 8435POPC   C3B44709  11.831   3.646   7.053
 8435POPC   C4B44710  11.880   3.670   7.353
 8436POPC   NC344711  44.650  37.674   5.553
 8436POPC   PO444712  44.647  37.672   5.853
 8436POPC   GL144713  44.631  37.701   6.153
 8436POPC   GL244714  44.749  37.646   6.153
 8436POPC   C1A44715  44.710  37.680   6.453
 8436POPC   D2A44716  44.650  37.683   6.753
 8436POPC   C3A44717  44.631  37.635   7.053
 8436POPC   C4A44718  44.624  37.651   7.353
 8436POPC   C1B44719  44.809  37.492   6.453
 8436POPC   C2B44720  44.862  37.559   6.753
 8436POPC   C3B44721  44.847  37.530   7.053
 8436POPC   C4B44722  44.860  37.488   7.353
 8437POPC   NC344723  41.571   5.051   5.553
 8437POPC   PO444724  41.547   5.113   5.853
 8437POPC   GL144725  41.576   5.088   6.153
 8437POPC   GL244726  41.662   5.104   6.153
 8437POPC   C1A44727  41.515   5.129   6.453
 8437POPC   D2A44728  41.568   5.076   6.753
 8437POPC   C3A44729  41.555   5.117   7.053
 8437POPC   C4A44730  41.509   5.049   7.353
 8437POPC   C1B44731  41.834   5.140   6.453
 8437POPC   C2B44732  41.837   5.193   6.753
 8437POPC   C3B44733  41.789   5.165   7.053
 8437POPC   C4B44734  41.793   5.217   7.353
 8438POPC   NC344735  31.449  43.913   5.553
 8438POPC   PO444736  31.499  43.858   5.853
 8438POPC   GL144737  31.507  43.858   6.153
 8438POPC   GL244738  31.614  43.948   6.153
 8438POPC   C1A44739  31.468  43.923   6.453
 8438POPC   D2A44740  31.427  43.856   6.753
 8438POPC   C3A44741  31.479  43.861   7.053
 8438POPC   C4A44742  31.427  43.855   7.353
 8438POPC   C1B44743  31.662  44.029   6.453
 8438POPC   C2B44744  31.681  43.961   6.753
 8438POPC   C3B44745  31.736  44.027   7.053
 8438POPC   C4B44746  31.734  44.003   7.353
 8439POPC   NC344747  36.122  16.744   5.553
 8439POPC   PO444748  36.107  16.732   5.853
 8439POPC   GL144749  36.113  16.721   6.153
 8439POPC   GL244750  36.000  16.678   6.153
 8439POPC   C1A44751  36.124  16.724   6.453
 8439POPC   D2A44752  36.117  16.751   6.753
 8439POPC   C3A44753  36.151  16.711   7.053
 8439POPC   C4A44754  36.155  16.769   7.353
 8439POPC   C1B44755  35.985  16.516   6.453
 8439POPC   C2B44756  35.965  16.555   6.753
 8439POPC   C3B44757  35.947  16.517   7.053
 8439POPC   C4B44758  35.906  16.536   7.353
 8440POPC   NC344759  18.276  28.366   5.553
 8440POPC   PO444760  18.324  28.355   5.853
 8440POPC   GL144761  18.288  28.364   6.153
 8440POPC   GL244762  18.395  28.319   6.153
 8440POPC   C1A44763  18.274  28.369   6.453
 8440POPC   D2A44764  18.312  28.380   6.753
 8440POPC   C3A44765  18.298  28.373   7.053
 8440POPC   C4A44766  18.262  28.367   7.353
 8440POPC   C1B44767  18.569  28.341   6.453
 8440POPC   C2B44768  18.498  28.297   6.753
 8440POPC   C3B44769  18.478  28.351   7.053
 8440POPC   C4B44770  18.574  28.359   7.353
 8441POPC   NC344771  14.362  24.450   5.553
 8441POPC   PO444772  14.396  24.477   5.853
 8441POPC   GL144773  14.409  24.512   6.153
 8441POPC   GL244774  14.453  24.536   6.153
 8441POPC   C1A44775  14.405  24.440   6.453
 8441POPC   D2A44776  14.433  24.506   6.753
 8441POPC   C3A44777  14.441  24.459   7.053
 8441POPC   C4A44778  14.446  24.472   7.353
 8441POPC   C1B44779  14.516  24.659   6.453
 8441POPC   C2B44780  14.532  24.651   6.753
 8441POPC   C3B44781  14.583  24.699   7.053
 8441POPC   C4B44782  14.599  24.640   7.353
 8442POPC   NC344783  17.491  42.322   5.553
 8442POPC   PO444784  17.515  42.354   5.853
 8442POPC   GL144785  17.517  42.373   6.153
 8442POPC   GL244786  17.643  42.232   6.153
 8442POPC   C1A44787  17.547  42.325   6.453
 8442POPC   D2A44788  17.552  42.336   6.753
 8442POPC   C3A44789  17.540  42.297   7.053
 8442POPC   C4A44790  17.535  42.292   7.353
 8442POPC   C1B44791  17.769  42.206   6.453
 8442POPC   C2B44792  17.677  42.194   6.753
 8442POPC   C3B44793  17.686  42.251   7.053
 8442POPC   C4B44794  17.734  42.182   7.353
 8443POPC   NC344795  19.852  42.311   5.553
 8443POPC   PO444796  19.823  42.307   5.853
 8443POPC   GL144797  19.832  42.292   6.153
 8443POPC   GL244798  19.926  42.364   6.153
 8443POPC   C1A44799  19.827  42.311   6.453
 8443POPC   D2A44800  19.811  42.288   6.753
 8443POPC   C3A44801  19.816  42.297   7.053
 8443POPC   C4A44802  19.827  42.371   7.353
 8443POPC   C1B44803  20.034  42.435   6.453
 8443POPC   C2B44804  20.093  42.450   6.753
 8443POPC   C3B44805  20.027  42.439   7.053
 8443POPC   C4B44806  20.025  42.458   7.353
 8444POPC   NC344807   3.515  20.574   5.553
 8444POPC   PO444808   3.574  20.660   5.853
 8444POPC   GL144809   3.542  20.613   6.153
 8444POPC   GL244810   3.472  20.720   6.153
 8444POPC   C1A44811   3.500  20.601   6.453
 8444POPC   D2A44812   3.505  20.599   6.753
 8444POPC   C3A44813   3.527  20.583   7.053
 8444POPC   C4A44814   3.539  20.660   7.353
 8444POPC   C1B44815   3.461  20.840   6.453
 8444POPC   C2B44816   3.481  20.847   6.753
 8444POPC   C3B44817   3.511  20.859   7.053
 8444POPC   C4B44818   3.482  20.868   7.353
 8445POPC   NC344819  10.482  44.693   5.553
 8445POPC   PO444820  10.550  44.686   5.853
 8445POPC   GL144821  10.564  44.668   6.153
 8445POPC   GL244822  10.609  44.583   6.153
 8445POPC   C1A44823  10.509  44.692   6.453
 8445POPC   D2A44824  10.506  44.693   6.753
 8445POPC   C3A44825  10.477  44.707   7.053
 8445POPC   C4A44826  10.504  44.703   7.353
 8445POPC   C1B44827  10.596  44.390   6.453
 8445POPC   C2B44828  10.613  44.471   6.753
 8445POPC   C3B44829  10.578  44.407   7.053
 8445POPC   C4B44830  10.662  44.468   7.353
 8446POPC   NC344831  11.344  42.340   5.553
 8446POPC   PO444832  11.324  42.290   5.853
 8446POPC   GL144833  11.328  42.302   6.153
 8446POPC   GL244834  11.274  42.392   6.153
 8446POPC   C1A44835  11.284  42.341   6.453
 8446POPC   D2A44836  11.325  42.368   6.753
 8446POPC   C3A44837  11.350  42.324   7.053
 8446POPC   C4A44838  11.288  42.378   7.353
 8446POPC   C1B44839  11.119  42.558   6.453
 8446POPC   C2B44840  11.202  42.595   6.753
 8446POPC   C3B44841  11.144  42.561   7.053
 8446POPC   C4B44842  11.125  42.505   7.353
 8447POPC   NC344843  15.135  16.719   5.553
 8447POPC   PO444844  15.182  16.771   5.853
 8447POPC   GL144845  15.192  16.693   6.153
 8447POPC   GL244846  15.262  16.871   6.153
 8447POPC   C1A44847  15.214  16.702   6.453
 8447POPC   D2A44848  15.204  16.708   6.753
 8447POPC   C3A44849  15.211  16.688   7.053
 8447POPC   C4A44850  15.167  16.707   7.353
 8447POPC   C1B44851  15.280  17.005   6.453
 8447POPC   C2B44852  15.291  16.930   6.753
 8447POPC   C3B44853  15.299  16.953   7.053
 8447POPC   C4B44854  15.332  16.973   7.353
 8448POPC   NC344855  19.106  24.474   5.553
 8448POPC   PO444856  19.083  24.450   5.853
 8448POPC   GL144857  19.108  24.515   6.153
 8448POPC   GL244858  19.113  24.566   6.153
 8448POPC   C1A44859  19.075  24.517   6.453
 8448POPC   D2A44860  19.026  24.480   6.753
 8448POPC   C3A44861  19.041  24.457   7.053
 8448POPC   C4A44862  19.059  24.461   7.353
 8448POPC   C1B44863  19.156  24.704   6.453
 8448POPC   C2B44864  19.126  24.704   6.753
 8448POPC   C3B44865  19.128  24.745   7.053
 8448POPC   C4B44866  19.130  24.698   7.353
 8449POPC   NC344867  12.049  33.017   5.553
 8449POPC   PO444868  12.100  32.980   5.853
 8449POPC   GL144869  12.089  32.985   6.153
 8449POPC   GL244870  12.204  32.983   6.153
 8449POPC   C1A44871  12.094  33.054   6.453
 8449POPC   D2A44872  12.031  33.048   6.753
 8449POPC   C3A44873  12.100  33.033   7.053
 8449POPC   C4A44874  12.094  32.983   7.353
 8449POPC   C1B44875  12.320  33.031   6.453
 8449POPC   C2B44876  12.306  32.970   6.753
 8449POPC   C3B44877  12.354  33.004   7.053
 8449POPC   C4B44878  12.309  32.982   7.353
 8450POPC   NC344879  17.481  38.447   5.553
 8450POPC   PO444880  17.503  38.413   5.853
 8450POPC   GL144881  17.502  38.465   6.153
 8450POPC   GL244882  17.389  38.395   6.153
 8450POPC   C1A44883  17.465  38.437   6.453
 8450POPC   D2A44884  17.545  38.504   6.753
 8450POPC   C3A44885  17.551  38.428   7.053
 8450POPC   C4A44886  17.469  38.480   7.353
 8450POPC   C1B44887  17.281  38.257   6.453
 8450POPC   C2B44888  17.269  38.279   6.753
 8450POPC   C3B44889  17.304  38.260   7.053
 8450POPC   C4B44890  17.333  38.249   7.353
 8451POPC   NC344891   1.192  33.840   5.553
 8451POPC   PO444892   1.169  33.801   5.853
 8451POPC   GL144893   1.212  33.830   6.153
 8451POPC   GL244894   1.307  33.833   6.153
 8451POPC   C1A44895   1.247  33.833   6.453
 8451POPC   D2A44896   1.202  33.785   6.753
 8451POPC   C3A44897   1.173  33.844   7.053
 8451POPC   C4A44898   1.246  33.790   7.353
 8451POPC   C1B44899   1.494  33.886   6.453
 8451POPC   C2B44900   1.500  33.811   6.753
 8451POPC   C3B44901   1.443  33.839   7.053
 8451POPC   C4B44902   1.478  33.891   7.353
 8452POPC   NC344903  40.757   7.458   5.553
 8452POPC   PO444904  40.778   7.379   5.853
 8452POPC   GL144905  40.744   7.420   6.153
 8452POPC   GL244906  40.710   7.527   6.153
 8452POPC   C1A44907  40.792   7.450   6.453
 8452POPC   D2A44908  40.804   7.416   6.753
 8452POPC   C3A44909  40.748   7.417   7.053
 8452POPC   C4A44910  40.777   7.398   7.353
 8452POPC   C1B44911  40.582   7.599   6.453
 8452POPC   C2B44912  40.611   7.614   6.753
 8452POPC   C3B44913  40.621   7.519   7.053
 8452POPC   C4B44914  40.544   7.612   7.353
 8453POPC   NC344915  41.548  41.509   5.553
 8453POPC   PO444916  41.530  41.601   5.853
 8453POPC   GL144917  41.602  41.558   6.153
 8453POPC   GL244918  41.563  41.478   6.153
 8453POPC   C1A44919  41.541  41.544   6.453
 8453POPC   D2A44920  41.573  41.559   6.753
 8453POPC   C3A44921  41.543  41.578   7.053
 8453POPC   C4A44922  41.535  41.542   7.353
 8453POPC   C1B44923  41.574  41.331   6.453
 8453POPC   C2B44924  41.532  41.309   6.753
 8453POPC   C3B44925  41.543  41.275   7.053
 8453POPC   C4B44926  41.563  41.282   7.353
 8454POPC   NC344927  16.754  33.045   5.553
 8454POPC   PO444928  16.769  33.043   5.853
 8454POPC   GL144929  16.733  33.063   6.153
 8454POPC   GL244930  16.716  32.939   6.153
 8454POPC   C1A44931  16.771  33.060   6.453
 8454POPC   D2A44932  16.760  33.027   6.753
 8454POPC   C3A44933  16.730  33.047   7.053
 8454POPC   C4A44934  16.694  33.050   7.353
 8454POPC   C1B44935  16.740  32.766   6.453
 8454POPC   C2B44936  16.736  32.742   6.753
 8454POPC   C3B44937  16.752  32.810   7.053
 8454POPC   C4B44938  16.681  32.758   7.353
 8455POPC   NC344939  30.678   4.269   5.553
 8455POPC   PO444940  30.745   4.360   5.853
 8455POPC   GL144941  30.713   4.332   6.153
 8455POPC   GL244942  30.642   4.394   6.153
 8455POPC   C1A44943  30.683   4.352   6.453
 8455POPC   D2A44944  30.701   4.365   6.753
 8455POPC   C3A44945  30.657   4.317   7.053
 8455POPC   C4A44946  30.692   4.323   7.353
 8455POPC   C1B44947  30.538   4.548   6.453
 8455POPC   C2B44948  30.557   4.478   6.753
 8455POPC   C3B44949  30.507   4.547   7.053
 8455POPC   C4B44950  30.516   4.503   7.353
 8456POPC   NC344951  24.525  36.099   5.553
 8456POPC   PO444952  24.445  36.126   5.853
 8456POPC   GL144953  24.526  36.083   6.153
 8456POPC   GL244954  24.389  36.010   6.153
 8456POPC   C1A44955  24.539  36.118   6.453
 8456POPC   D2A44956  24.502  36.123   6.753
 8456POPC   C3A44957  24.496  36.167   7.053
 8456POPC   C4A44958  24.507  36.091   7.353
 8456POPC   C1B44959  24.342  35.887   6.453
 8456POPC   C2B44960  24.308  35.963   6.753
 8456POPC   C3B44961  24.288  35.942   7.053
 8456POPC   C4B44962  24.343  35.943   7.353
 8457POPC   NC344963   6.683   1.971   5.553
 8457POPC   PO444964   6.692   1.984   5.853
 8457POPC   GL144965   6.689   1.995   6.153
 8457POPC   GL244966   6.488   1.953   6.153
 8457POPC   C1A44967   6.651   2.033   6.453
 8457POPC   D2A44968   6.597   1.963   6.753
 8457POPC   C3A44969   6.606   1.987   7.053
 8457POPC   C4A44970   6.633   1.980   7.353
 8457POPC   C1B44971   6.384   1.976   6.453
 8457POPC   C2B44972   6.431   1.975   6.753
 8457POPC   C3B44973   6.367   1.918   7.053
 8457POPC   C4B44974   6.381   1.948   7.353
 8458POPC   NC344975  11.350  21.378   5.553
 8458POPC   PO444976  11.274  21.371   5.853
 8458POPC   GL144977  11.326  21.357   6.153
 8458POPC   GL244978  11.388  21.342   6.153
 8458POPC   C1A44979  11.318  21.388   6.453
 8458POPC   D2A44980  11.301  21.340   6.753
 8458POPC   C3A44981  11.276  21.345   7.053
 8458POPC   C4A44982  11.343  21.404   7.353
 8458POPC   C1B44983  11.459  21.155   6.453
 8458POPC   C2B44984  11.432  21.167   6.753
 8458POPC   C3B44985  11.427  21.158   7.053
 8458POPC   C4B44986  11.459  21.177   7.353
 8459POPC   NC344987  31.473   1.255   5.553
 8459POPC   PO444988  31.509   1.203   5.853
 8459POPC   GL144989  31.452   1.194   6.153
 8459POPC   GL244990  31.594   1.287   6.153
 8459POPC   C1A44991  31.459   1.188   6.453
 8459POPC   D2A44992  31.423   1.239   6.753
 8459POPC   C3A44993  31.466   1.246   7.053
 8459POPC   C4A44994  31.424   1.192   7.353
 8459POPC   C1B44995  31.715   1.366   6.453
 8459POPC   C2B44996  31.740   1.316   6.753
 8459POPC   C3B44997  31.739   1.289   7.053
 8459POPC   C4B44998  31.682   1.335   7.353
 8460POPC   NC344999  31.435  12.893   5.553
 8460POPC   PO445000  31.522  12.836   5.853
 8460POPC   GL145001  31.509  12.838   6.153
 8460POPC   GL245002  31.405  12.721   6.153
 8460POPC   C1A45003  31.472  12.892   6.453
 8460POPC   D2A45004  31.434  12.901   6.753
 8460POPC   C3A45005  31.509  12.804   7.053
 8460POPC   C4A45006  31.508  12.896   7.353
 8460POPC   C1B45007  31.252  12.697   6.453
 8460POPC   C2B45008  31.314  12.731   6.753
 8460POPC   C3B45009  31.306  12.678   7.053
 8460POPC   C4B45010  31.268  12.640   7.353
 8461POPC   NC345011  43.087  36.078   5.553
 8461POPC   PO445012  43.147  36.108   5.853
 8461POPC   GL145013  43.076  36.111   6.153
 8461POPC   GL245014  43.202  36.098   6.153
 8461POPC   C1A45015  43.098  36.138   6.453
 8461POPC   D2A45016  43.085  36.154   6.753
 8461POPC   C3A45017  43.070  36.082   7.053
 8461POPC   C4A45018  43.128  36.112   7.353
 8461POPC   C1B45019  43.316  36.144   6.453
 8461POPC   C2B45020  43.368  36.144   6.753
 8461POPC   C3B45021  43.315  36.205   7.053
 8461POPC   C4B45022  43.337  36.192   7.353
 8462POPC   NC345023  26.852  36.140   5.553
 8462POPC   PO445024  26.769  36.152   5.853
 8462POPC   GL145025  26.849  36.091   6.153
 8462POPC   GL245026  26.718  36.088   6.153
 8462POPC   C1A45027  26.797  36.168   6.453
 8462POPC   D2A45028  26.796  36.108   6.753
 8462POPC   C3A45029  26.771  36.173   7.053
 8462POPC   C4A45030  26.822  36.148   7.353
 8462POPC   C1B45031  26.558  36.070   6.453
 8462POPC   C2B45032  26.519  36.086   6.753
 8462POPC   C3B45033  26.546  36.135   7.053
 8462POPC   C4B45034  26.523  36.156   7.353
 8463POPC   NC345035  22.132  15.191   5.553
 8463POPC   PO445036  22.124  15.211   5.853
 8463POPC   GL145037  22.139  15.157   6.153
 8463POPC   GL245038  22.116  15.252   6.153
 8463POPC   C1A45039  22.137  15.132   6.453
 8463POPC   D2A45040  22.194  15.132   6.753
 8463POPC   C3A45041  22.182  15.197   7.053
 8463POPC   C4A45042  22.163  15.203   7.353
 8463POPC   C1B45043  22.070  15.431   6.453
 8463POPC   C2B45044  22.013  15.372   6.753
 8463POPC   C3B45045  22.066  15.369   7.053
 8463POPC   C4B45046  22.004  15.421   7.353
 8464POPC   NC345047   6.668  15.151   5.553
 8464POPC   PO445048   6.613  15.188   5.853
 8464POPC   GL145049   6.637  15.169   6.153
 8464POPC   GL245050   6.684  15.068   6.153
 8464POPC   C1A45051   6.602  15.205   6.453
 8464POPC   D2A45052   6.602  15.205   6.753
 8464POPC   C3A45053   6.597  15.199   7.053
 8464POPC   C4A45054   6.597  15.150   7.353
 8464POPC   C1B45055   6.740  14.965   6.453
 8464POPC   C2B45056   6.780  14.924   6.753
 8464POPC   C3B45057   6.822  14.932   7.053
 8464POPC   C4B45058   6.817  14.921   7.353
 8465POPC   NC345059  23.713  18.305   5.553
 8465POPC   PO445060  23.731  18.286   5.853
 8465POPC   GL145061  23.720  18.286   6.153
 8465POPC   GL245062  23.618  18.328   6.153
 8465POPC   C1A45063  23.711  18.328   6.453
 8465POPC   D2A45064  23.716  18.270   6.753
 8465POPC   C3A45065  23.741  18.313   7.053
 8465POPC   C4A45066  23.673  18.280   7.353
 8465POPC   C1B45067  23.492  18.264   6.453
 8465POPC   C2B45068  23.488  18.288   6.753
 8465POPC   C3B45069  23.439  18.257   7.053
 8465POPC   C4B45070  23.479  18.238   7.353
 8466POPC   NC345071  15.959  10.475   5.553
 8466POPC   PO445072  15.935  10.541   5.853
 8466POPC   GL145073  15.990  10.507   6.153
 8466POPC   GL245074  15.899  10.627   6.153
 8466POPC   C1A45075  15.986  10.557   6.453
 8466POPC   D2A45076  15.990  10.540   6.753
 8466POPC   C3A45077  15.911  10.486   7.053
 8466POPC   C4A45078  15.950  10.562   7.353
 8466POPC   C1B45079  15.902  10.782   6.453
 8466POPC   C2B45080  15.838  10.748   6.753
 8466POPC   C3B45081  15.816  10.738   7.053
 8466POPC   C4B45082  15.839  10.802   7.353
 8467POPC   NC345083  21.411  12.850   5.553
 8467POPC   PO445084  21.421  12.804   5.853
 8467POPC   GL145085  21.370  12.854   6.153
 8467POPC   GL245086  21.341  12.681   6.153
 8467POPC   C1A45087  21.370  12.888   6.453
 8467POPC   D2A45088  21.411  12.806   6.753
 8467POPC   C3A45089  21.345  12.874   7.053
 8467POPC   C4A45090  21.428  12.850   7.353
 8467POPC   C1B45091  21.409  12.648   6.453
 8467POPC   C2B45092  21.335  12.560   6.753
 8467POPC   C3B45093  21.361  12.621   7.053
 8467POPC   C4B45094  21.377  12.633   7.353
 8468POPC   NC345095  28.362  33.762   5.553
 8468POPC   PO445096  28.362  33.831   5.853
 8468POPC   GL145097  28.324  33.751   6.153
 8468POPC   GL245098  28.293  33.727   6.153
 8468POPC   C1A45099  28.402  33.793   6.453
 8468POPC   D2A45100  28.351  33.834   6.753
 8468POPC   C3A45101  28.397  33.841   7.053
 8468POPC   C4A45102  28.376  33.752   7.353
 8468POPC   C1B45103  28.194  33.629   6.453
 8468POPC   C2B45104  28.142  33.673   6.753
 8468POPC   C3B45105  28.216  33.647   7.053
 8468POPC   C4B45106  28.157  33.621   7.353
 8469POPC   NC345107  29.912  15.175   5.553
 8469POPC   PO445108  29.894  15.229   5.853
 8469POPC   GL145109  29.877  15.198   6.153
 8469POPC   GL245110  29.810  15.292   6.153
 8469POPC   C1A45111  29.904  15.198   6.453
 8469POPC   D2A45112  29.941  15.157   6.753
 8469POPC   C3A45113  29.875  15.207   7.053
 8469POPC   C4A45114  29.898  15.215   7.353
 8469POPC   C1B45115  29.745  15.374   6.453
 8469POPC   C2B45116  29.731  15.354   6.753
 8469POPC   C3B45117  29.691  15.362   7.053
 8469POPC   C4B45118  29.714  15.383   7.353
 8470POPC   NC345119   9.794  26.860   5.553
 8470POPC   PO445120   9.739  26.806   5.853
 8470POPC   GL145121   9.750  26.853   6.153
 8470POPC   GL245122   9.736  26.677   6.153
 8470POPC   C1A45123   9.786  26.862   6.453
 8470POPC   D2A45124   9.774  26.856   6.753
 8470POPC   C3A45125   9.763  26.838   7.053
 8470POPC   C4A45126   9.763  26.823   7.353
 8470POPC   C1B45127   9.717  26.605   6.453
 8470POPC   C2B45128   9.786  26.540   6.753
 8470POPC   C3B45129   9.796  26.558   7.053
 8470POPC   C4B45130   9.724  26.535   7.353
 8471POPC   NC345131   5.875  23.664   5.553
 8471POPC   PO445132   5.898  23.698   5.853
 8471POPC   GL145133   5.891  23.723   6.153
 8471POPC   GL245134   5.943  23.688   6.153
 8471POPC   C1A45135   5.904  23.731   6.453
 8471POPC   D2A45136   5.852  23.749   6.753
 8471POPC   C3A45137   5.852  23.673   7.053
 8471POPC   C4A45138   5.918  23.695   7.353
 8471POPC   C1B45139   6.081  23.663   6.453
 8471POPC   C2B45140   6.107  23.611   6.753
 8471POPC   C3B45141   6.098  23.686   7.053
 8471POPC   C4B45142   6.112  23.644   7.353
 8472POPC   NC345143   0.444   5.857   5.553
 8472POPC   PO445144   0.487   5.918   5.853
 8472POPC   GL145145   0.442   5.871   6.153
 8472POPC   GL245146   0.520   5.757   6.153
 8472POPC   C1A45147   0.423   5.867   6.453
 8472POPC   D2A45148   0.420   5.848   6.753
 8472POPC   C3A45149   0.467   5.834   7.053
 8472POPC   C4A45150   0.417   5.902   7.353
 8472POPC   C1B45151   0.552   5.691   6.453
 8472POPC   C2B45152   0.564   5.645   6.753
 8472POPC   C3B45153   0.594   5.685   7.053
 8472POPC   C4B45154   0.537   5.626   7.353
 8473POPC   NC345155  19.086   9.757   5.553
 8473POPC   PO445156  19.060   9.711   5.853
 8473POPC   GL145157  19.071   9.797   6.153
 8473POPC   GL245158  19.144   9.684   6.153
 8473POPC   C1A45159  19.039   9.768   6.453
 8473POPC   D2A45160  19.045   9.772   6.753
 8473POPC   C3A45161  19.037   9.770   7.053
 8473POPC   C4A45162  19.014   9.798   7.353
 8473POPC   C1B45163  19.145   9.501   6.453
 8473POPC   C2B45164  19.128   9.508   6.753
 8473POPC   C3B45165  19.191   9.493   7.053
 8473POPC   C4B45166  19.186   9.492   7.353
 8474POPC   NC345167  25.292  16.707   5.553
 8474POPC   PO445168  25.261  16.764   5.853
 8474POPC   GL145169  25.251  16.750   6.153
 8474POPC   GL245170  25.178  16.811   6.153
 8474POPC   C1A45171  25.297  16.781   6.453
 8474POPC   D2A45172  25.218  16.705   6.753
 8474POPC   C3A45173  25.300  16.745   7.053
 8474POPC   C4A45174  25.293  16.723   7.353
 8474POPC   C1B45175  25.201  16.933   6.453
 8474POPC   C2B45176  25.165  16.933   6.753
 8474POPC   C3B45177  25.135  16.971   7.053
 8474POPC   C4B45178  25.194  16.983   7.353
 8475POPC   NC345179  19.017  23.689   5.553
 8475POPC   PO445180  19.084  23.706   5.853
 8475POPC   GL145181  19.092  23.672   6.153
 8475POPC   GL245182  19.079  23.838   6.153
 8475POPC   C1A45183  19.089  23.726   6.453
 8475POPC   D2A45184  19.026  23.667   6.753
 8475POPC   C3A45185  19.056  23.743   7.053
 8475POPC   C4A45186  19.057  23.738   7.353
 8475POPC   C1B45187  19.017  24.003   6.453
 8475POPC   C2B45188  19.058  23.994   6.753
 8475POPC   C3B45189  19.078  23.963   7.053
 8475POPC   C4B45190  19.027  24.002   7.353
 8476POPC   NC345191   8.175  42.311   5.553
 8476POPC   PO445192   8.212  42.297   5.853
 8476POPC   GL145193   8.193  42.320   6.153
 8476POPC   GL245194   8.325  42.341   6.153
 8476POPC   C1A45195   8.147  42.373   6.453
 8476POPC   D2A45196   8.204  42.371   6.753
 8476POPC   C3A45197   8.214  42.288   7.053
 8476POPC   C4A45198   8.232  42.305   7.353
 8476POPC   C1B45199   8.426  42.402   6.453
 8476POPC   C2B45200   8.491  42.333   6.753
 8476POPC   C3B45201   8.481  42.362   7.053
 8476POPC   C4B45202   8.461  42.408   7.353
 8477POPC   NC345203   3.577  31.522   5.553
 8477POPC   PO445204   3.502  31.521   5.853
 8477POPC   GL145205   3.521  31.445   6.153
 8477POPC   GL245206   3.483  31.339   6.153
 8477POPC   C1A45207   3.555  31.492   6.453
 8477POPC   D2A45208   3.499  31.467   6.753
 8477POPC   C3A45209   3.522  31.492   7.053
 8477POPC   C4A45210   3.497  31.486   7.353
 8477POPC   C1B45211   3.387  31.308   6.453
 8477POPC   C2B45212   3.386  31.225   6.753
 8477POPC   C3B45213   3.443  31.236   7.053
 8477POPC   C4B45214   3.375  31.308   7.353
 8478POPC   NC345215  15.957  25.993   5.553
 8478POPC   PO445216  15.924  26.018   5.853
 8478POPC   GL145217  15.982  26.086   6.153
 8478POPC   GL245218  15.897  26.215   6.153
 8478POPC   C1A45219  15.969  25.994   6.453
 8478POPC   D2A45220  15.970  25.998   6.753
 8478POPC   C3A45221  15.958  26.036   7.053
 8478POPC   C4A45222  15.962  26.027   7.353
 8478POPC   C1B45223  15.925  26.306   6.453
 8478POPC   C2B45224  15.961  26.338   6.753
 8478POPC   C3B45225  15.915  26.339   7.053
 8478POPC   C4B45226  15.893  26.246   7.353
 8479POPC   NC345227  16.718  22.960   5.553
 8479POPC   PO445228  16.730  22.952   5.853
 8479POPC   GL145229  16.705  22.972   6.153
 8479POPC   GL245230  16.729  22.858   6.153
 8479POPC   C1A45231  16.687  22.932   6.453
 8479POPC   D2A45232  16.754  22.917   6.753
 8479POPC   C3A45233  16.718  22.942   7.053
 8479POPC   C4A45234  16.749  22.967   7.353
 8479POPC   C1B45235  16.633  22.705   6.453
 8479POPC   C2B45236  16.652  22.678   6.753
 8479POPC   C3B45237  16.680  22.677   7.053
 8479POPC   C4B45238  16.651  22.722   7.353
 8480POPC   NC345239  39.191  33.835   5.553
 8480POPC   PO445240  39.249  33.769   5.853
 8480POPC   GL145241  39.280  33.802   6.153
 8480POPC   GL245242  39.167  33.751   6.153
 8480POPC   C1A45243  39.215  33.781   6.453
 8480POPC   D2A45244  39.261  33.777   6.753
 8480POPC   C3A45245  39.258  33.756   7.053
 8480POPC   C4A45246  39.221  33.795   7.353
 8480POPC   C1B45247  39.112  33.601   6.453
 8480POPC   C2B45248  39.051  33.571   6.753
 8480POPC   C3B45249  39.038  33.579   7.053
 8480POPC   C4B45250  39.054  33.635   7.353
 8481POPC   NC345251   2.737  11.338   5.553
 8481POPC   PO445252   2.764  11.301   5.853
 8481POPC   GL145253   2.756  11.285   6.153
 8481POPC   GL245254   2.875  11.229   6.153
 8481POPC   C1A45255   2.815  11.307   6.453
 8481POPC   D2A45256   2.718  11.293   6.753
 8481POPC   C3A45257   2.783  11.286   7.053
 8481POPC   C4A45258   2.755  11.299   7.353
 8481POPC   C1B45259   3.020  11.202   6.453
 8481POPC   C2B45260   2.958  11.215   6.753
 8481POPC   C3B45261   3.053  11.240   7.053
 8481POPC   C4B45262   3.042  11.251   7.353
 8482POPC   NC345263  41.566  25.998   5.553
 8482POPC   PO445264  41.554  26.071   5.853
 8482POPC   GL145265  41.533  26.011   6.153
 8482POPC   GL245266  41.504  25.925   6.153
 8482POPC   C1A45267  41.606  25.996   6.453
 8482POPC   D2A45268  41.564  26.062   6.753
 8482POPC   C3A45269  41.531  26.004   7.053
 8482POPC   C4A45270  41.556  26.034   7.353
 8482POPC   C1B45271  41.528  25.786   6.453
 8482POPC   C2B45272  41.466  25.812   6.753
 8482POPC   C3B45273  41.491  25.828   7.053
 8482POPC   C4B45274  41.526  25.776   7.353
 8483POPC   NC345275  26.090  28.355   5.553
 8483POPC   PO445276  26.042  28.335   5.853
 8483POPC   GL145277  26.002  28.380   6.153
 8483POPC   GL245278  25.911  28.322   6.153
 8483POPC   C1A45279  26.091  28.353   6.453
 8483POPC   D2A45280  26.073  28.382   6.753
 8483POPC   C3A45281  26.070  28.332   7.053
 8483POPC   C4A45282  26.066  28.370   7.353
 8483POPC   C1B45283  25.821  28.318   6.453
 8483POPC   C2B45284  25.754  28.347   6.753
 8483POPC   C3B45285  25.843  28.361   7.053
 8483POPC   C4B45286  25.791  28.289   7.353
 8484POPC   NC345287  16.750  20.614   5.553
 8484POPC   PO445288  16.686  20.585   5.853
 8484POPC   GL145289  16.781  20.660   6.153
 8484POPC   GL245290  16.652  20.689   6.153
 8484POPC   C1A45291  16.738  20.573   6.453
 8484POPC   D2A45292  16.692  20.658   6.753
 8484POPC   C3A45293  16.706  20.635   7.053
 8484POPC   C4A45294  16.746  20.591   7.353
 8484POPC   C1B45295  16.571  20.844   6.453
 8484POPC   C2B45296  16.611  20.765   6.753
 8484POPC   C3B45297  16.580  20.778   7.053
 8484POPC   C4B45298  16.596  20.830   7.353
 8485POPC   NC345299   3.544   3.569   5.553
 8485POPC   PO445300   3.492   3.526   5.853
 8485POPC   GL145301   3.570   3.549   6.153
 8485POPC   GL245302   3.519   3.387   6.153
 8485POPC   C1A45303   3.584   3.579   6.453
 8485POPC   D2A45304   3.507   3.567   6.753
 8485POPC   C3A45305   3.534   3.537   7.053
 8485POPC   C4A45306   3.579   3.570   7.353
 8485POPC   C1B45307   3.535   3.300   6.453
 8485POPC   C2B45308   3.518   3.316   6.753
 8485POPC   C3B45309   3.483   3.252   7.053
 8485POPC   C4B45310   3.547   3.282   7.353
 8486POPC   NC345311  35.387  14.355   5.553
 8486POPC   PO445312  35.340  14.442   5.853
 8486POPC   GL145313  35.307  14.393   6.153
 8486POPC   GL245314  35.229  14.350   6.153
 8486POPC   C1A45315  35.373  14.423   6.453
 8486POPC   D2A45316  35.341  14.402   6.753
 8486POPC   C3A45317  35.376  14.399   7.053
 8486POPC   C4A45318  35.386  14.420   7.353
 8486POPC   C1B45319  35.083  14.376   6.453
 8486POPC   C2B45320  35.115  14.341   6.753
 8486POPC   C3B45321  35.092  14.352   7.053
 8486POPC   C4B45322  35.106  14.357   7.353
 8487POPC   NC345323   0.417  29.893   5.553
 8487POPC   PO445324   0.418  29.883   5.853
 8487POPC   GL145325   0.472  29.947   6.153
 8487POPC   GL245326   0.346  30.064   6.153
 8487POPC   C1A45327   0.394  29.910   6.453
 8487POPC   D2A45328   0.420  29.943   6.753
 8487POPC   C3A45329   0.462  29.920   7.053
 8487POPC   C4A45330   0.450  29.950   7.353
 8487POPC   C1B45331   0.309  30.177   6.453
 8487POPC   C2B45332   0.343  30.109   6.753
 8487POPC   C3B45333   0.269  30.163   7.053
 8487POPC   C4B45334   0.276  30.168   7.353
 8488POPC   NC345335   5.143  19.787   5.553
 8488POPC   PO445336   5.107  19.818   5.853
 8488POPC   GL145337   5.133  19.832   6.153
 8488POPC   GL245338   5.172  19.938   6.153
 8488POPC   C1A45339   5.117  19.856   6.453
 8488POPC   D2A45340   5.080  19.793   6.753
 8488POPC   C3A45341   5.106  19.865   7.053
 8488POPC   C4A45342   5.047  19.876   7.353
 8488POPC   C1B45343   5.157  20.111   6.453
 8488POPC   C2B45344   5.163  20.115   6.753
 8488POPC   C3B45345   5.208  20.068   7.053
 8488POPC   C4B45346   5.162  20.113   7.353
 8489POPC   NC345347  17.555   2.805   5.553
 8489POPC   PO445348  17.469   2.813   5.853
 8489POPC   GL145349  17.492   2.808   6.153
 8489POPC   GL245350  17.456   2.626   6.153
 8489POPC   C1A45351  17.473   2.786   6.453
 8489POPC   D2A45352  17.476   2.784   6.753
 8489POPC   C3A45353  17.472   2.802   7.053
 8489POPC   C4A45354  17.519   2.784   7.353
 8489POPC   C1B45355  17.391   2.576   6.453
 8489POPC   C2B45356  17.324   2.548   6.753
 8489POPC   C3B45357  17.306   2.572   7.053
 8489POPC   C4B45358  17.362   2.602   7.353
 8490POPC   NC345359  43.899  18.329   5.553
 8490POPC   PO445360  43.909  18.315   5.853
 8490POPC   GL145361  43.862  18.318   6.153
 8490POPC   GL245362  43.801  18.372   6.153
 8490POPC   C1A45363  43.889  18.296   6.453
 8490POPC   D2A45364  43.906  18.275   6.753
 8490POPC   C3A45365  43.916  18.254   7.053
 8490POPC   C4A45366  43.902  18.272   7.353
 8490POPC   C1B45367  43.642  18.385   6.453
 8490POPC   C2B45368  43.624  18.401   6.753
 8490POPC   C3B45369  43.634  18.327   7.053
 8490POPC   C4B45370  43.662  18.394   7.353
 8491POPC   NC345371   5.075  43.906   5.553
 8491POPC   PO445372   5.070  43.924   5.853
 8491POPC   GL145373   5.125  43.879   6.153
 8491POPC   GL245374   4.977  43.929   6.153
 8491POPC   C1A45375   5.131  43.929   6.453
 8491POPC   D2A45376   5.102  43.843   6.753
 8491POPC   C3A45377   5.102  43.870   7.053
 8491POPC   C4A45378   5.093  43.931   7.353
 8491POPC   C1B45379   4.840  43.939   6.453
 8491POPC   C2B45380   4.887  43.969   6.753
 8491POPC   C3B45381   4.805  43.948   7.053
 8491POPC   C4B45382   4.900  43.900   7.353
 8492POPC   NC345383  19.103  33.042   5.553
 8492POPC   PO445384  19.101  32.984   5.853
 8492POPC   GL145385  19.038  33.056   6.153
 8492POPC   GL245386  19.216  33.005   6.153
 8492POPC   C1A45387  19.014  33.001   6.453
 8492POPC   D2A45388  19.055  32.983   6.753
 8492POPC   C3A45389  19.064  33.064   7.053
 8492POPC   C4A45390  19.041  33.049   7.353
 8492POPC   C1B45391  19.326  32.943   6.453
 8492POPC   C2B45392  19.270  32.954   6.753
 8492POPC   C3B45393  19.305  32.985   7.053
 8492POPC   C4B45394  19.275  32.967   7.353
 8493POPC   NC345395  15.988  23.687   5.553
 8493POPC   PO445396  15.908  23.670   5.853
 8493POPC   GL145397  15.914  23.735   6.153
 8493POPC   GL245398  16.075  23.654   6.153
 8493POPC   C1A45399  15.911  23.695   6.453
 8493POPC   D2A45400  15.995  23.729   6.753
 8493POPC   C3A45401  15.935  23.669   7.053
 8493POPC   C4A45402  15.918  23.693   7.353
 8493POPC   C1B45403  16.081  23.550   6.453
 8493POPC   C2B45404  16.062  23.473   6.753
 8493POPC   C3B45405  16.124  23.503   7.053
 8493POPC   C4B45406  16.105  23.514   7.353
 8494POPC   NC345407  43.909  40.014   5.553
 8494POPC   PO445408  43.843  40.054   5.853
 8494POPC   GL145409  43.916  40.046   6.153
 8494POPC   GL245410  43.935  39.914   6.153
 8494POPC   C1A45411  43.849  40.041   6.453
 8494POPC   D2A45412  43.851  40.030   6.753
 8494POPC   C3A45413  43.843  40.043   7.053
 8494POPC   C4A45414  43.903  39.980   7.353
 8494POPC   C1B45415  43.920  39.728   6.453
 8494POPC   C2B45416  43.941  39.757   6.753
 8494POPC   C3B45417  43.997  39.736   7.053
 8494POPC   C4B45418  43.982  39.788   7.353
 8495POPC   NC345419  32.270  30.680   5.553
 8495POPC   PO445420  32.251  30.697   5.853
 8495POPC   GL145421  32.227  30.703   6.153
 8495POPC   GL245422  32.321  30.622   6.153
 8495POPC   C1A45423  32.236  30.649   6.453
 8495POPC   D2A45424  32.261  30.738   6.753
 8495POPC   C3A45425  32.224  30.684   7.053
 8495POPC   C4A45426  32.250  30.655   7.353
 8495POPC   C1B45427  32.461  30.520   6.453
 8495POPC   C2B45428  32.447  30.560   6.753
 8495POPC   C3B45429  32.439  30.538   7.053
 8495POPC   C4B45430  32.401  30.545   7.353
 8496POPC   NC345431  43.158  19.045   5.553
 8496POPC   PO445432  43.096  19.084   5.853
 8496POPC   GL145433  43.142  19.034   6.153
 8496POPC   GL245434  43.196  19.209   6.153
 8496POPC   C1A45435  43.066  19.051   6.453
 8496POPC   D2A45436  43.119  19.037   6.753
 8496POPC   C3A45437  43.069  19.049   7.053
 8496POPC   C4A45438  43.152  19.058   7.353
 8496POPC   C1B45439  43.258  19.238   6.453
 8496POPC   C2B45440  43.181  19.238   6.753
 8496POPC   C3B45441  43.213  19.263   7.053
 8496POPC   C4B45442  43.221  19.273   7.353
 8497POPC   NC345443  26.789  32.202   5.553
 8497POPC   PO445444  26.780  32.243   5.853
 8497POPC   GL145445  26.846  32.267   6.153
 8497POPC   GL245446  26.930  32.360   6.153
 8497POPC   C1A45447  26.846  32.241   6.453
 8497POPC   D2A45448  26.865  32.200   6.753
 8497POPC   C3A45449  26.820  32.219   7.053
 8497POPC   C4A45450  26.853  32.246   7.353
 8497POPC   C1B45451  27.006  32.365   6.453
 8497POPC   C2B45452  27.016  32.443   6.753
 8497POPC   C3B45453  26.985  32.367   7.053
 8497POPC   C4B45454  27.069  32.386   7.353
 8498POPC   NC345455  11.269  33.004   5.553
 8498POPC   PO445456  11.301  32.977   5.853
 8498POPC   GL145457  11.305  32.997   6.153
 8498POPC   GL245458  11.271  33.137   6.153
 8498POPC   C1A45459  11.318  33.024   6.453
 8498POPC   D2A45460  11.285  32.981   6.753
 8498POPC   C3A45461  11.266  33.028   7.053
 8498POPC   C4A45462  11.322  33.032   7.353
 8498POPC   C1B45463  11.249  33.229   6.453
 8498POPC   C2B45464  11.284  33.311   6.753
 8498POPC   C3B45465  11.250  33.310   7.053
 8498POPC   C4B45466  11.262  33.234   7.353
 8499POPC   NC345467  43.160  30.679   5.553
 8499POPC   PO445468  43.148  30.711   5.853
 8499POPC   GL145469  43.101  30.672   6.153
 8499POPC   GL245470  43.025  30.799   6.153
 8499POPC   C1A45471  43.068  30.676   6.453
 8499POPC   D2A45472  43.063  30.687   6.753
 8499POPC   C3A45473  43.096  30.740   7.053
 8499POPC   C4A45474  43.131  30.705   7.353
 8499POPC   C1B45475  42.865  30.802   6.453
 8499POPC   C2B45476  42.878  30.821   6.753
 8499POPC   C3B45477  42.937  30.813   7.053
 8499POPC   C4B45478  42.901  30.866   7.353
 8500POPC   NC345479  15.974  43.883   5.553
 8500POPC   PO445480  15.988  43.903   5.853
 8500POPC   GL145481  15.966  43.875   6.153
 8500POPC   GL245482  16.075  43.869   6.153
 8500POPC   C1A45483  15.996  43.896   6.453
 8500POPC   D2A45484  16.002  43.860   6.753
 8500POPC   C3A45485  15.921  43.926   7.053
 8500POPC   C4A45486  16.001  43.867   7.353
 8500POPC   C1B45487  16.197  43.892   6.453
 8500POPC   C2B45488  16.239  43.847   6.753
 8500POPC   C3B45489  16.218  43.880   7.053
 8500POPC   C4B45490  16.177  43.910   7.353
 8501POPC   NC345491   5.819  20.659   5.553
 8501POPC   PO445492   5.831  20.642   5.853
 8501POPC   GL145493   5.880  20.604   6.153
 8501POPC   GL245494   5.960  20.697   6.153
 8501POPC   C1A45495   5.893  20.658   6.453
 8501POPC   D2A45496   5.901  20.564   6.753
 8501POPC   C3A45497   5.859  20.563   7.053
 8501POPC   C4A45498   5.893  20.620   7.353
 8501POPC   C1B45499   6.060  20.775   6.453
 8501POPC   C2B45500   6.081  20.791   6.753
 8501POPC   C3B45501   6.049  20.785   7.053
 8501POPC   C4B45502   6.024  20.797   7.353
 8502POPC   NC345503  19.075  36.167   5.553
 8502POPC   PO445504  19.020  36.136   5.853
 8502POPC   GL145505  19.049  36.126   6.153
 8502POPC   GL245506  18.965  36.242   6.153
 8502POPC   C1A45507  19.091  36.133   6.453
 8502POPC   D2A45508  19.017  36.107   6.753
 8502POPC   C3A45509  19.076  36.147   7.053
 8502POPC   C4A45510  19.015  36.166   7.353
 8502POPC   C1B45511  18.919  36.305   6.453
 8502POPC   C2B45512  18.915  36.306   6.753
 8502POPC   C3B45513  18.923  36.330   7.053
 8502POPC   C4B45514  18.914  36.378   7.353
 8503POPC   NC345515  16.754  41.598   5.553
 8503POPC   PO445516  16.692  41.518   5.853
 8503POPC   GL145517  16.778  41.532   6.153
 8503POPC   GL245518  16.881  41.604   6.153
 8503POPC   C1A45519  16.739  41.572   6.453
 8503POPC   D2A45520  16.748  41.531   6.753
 8503POPC   C3A45521  16.707  41.553   7.053
 8503POPC   C4A45522  16.751  41.593   7.353
 8503POPC   C1B45523  16.979  41.657   6.453
 8503POPC   C2B45524  16.936  41.666   6.753
 8503POPC   C3B45525  17.008  41.600   7.053
 8503POPC   C4B45526  16.951  41.599   7.353
 8504POPC   NC345527  22.164  43.119   5.553
 8504POPC   PO445528  22.188  43.142   5.853
 8504POPC   GL145529  22.191  43.066   6.153
 8504POPC   GL245530  22.282  43.197   6.153
 8504POPC   C1A45531  22.177  43.115   6.453
 8504POPC   D2A45532  22.210  43.066   6.753
 8504POPC   C3A45533  22.203  43.086   7.053
 8504POPC   C4A45534  22.206  43.065   7.353
 8504POPC   C1B45535  22.401  43.210   6.453
 8504POPC   C2B45536  22.410  43.157   6.753
 8504POPC   C3B45537  22.358  43.171   7.053
 8504POPC   C4B45538  22.396  43.233   7.353
 8505POPC   NC345539  28.352  26.032   5.553
 8505POPC   PO445540  28.417  26.051   5.853
 8505POPC   GL145541  28.333  26.025   6.153
 8505POPC   GL245542  28.351  26.159   6.153
 8505POPC   C1A45543  28.377  26.077   6.453
 8505POPC   D2A45544  28.416  26.048   6.753
 8505POPC   C3A45545  28.334  26.052   7.053
 8505POPC   C4A45546  28.402  26.069   7.353
 8505POPC   C1B45547  28.212  26.257   6.453
 8505POPC   C2B45548  28.212  26.306   6.753
 8505POPC   C3B45549  28.254  26.259   7.053
 8505POPC   C4B45550  28.298  26.270   7.353
 8506POPC   NC345551  17.478  18.250   5.553
 8506POPC   PO445552  17.505  18.296   5.853
 8506POPC   GL145553  17.490  18.295   6.153
 8506POPC   GL245554  17.442  18.317   6.153
 8506POPC   C1A45555  17.479  18.242   6.453
 8506POPC   D2A45556  17.472  18.277   6.753
 8506POPC   C3A45557  17.545  18.253   7.053
 8506POPC   C4A45558  17.482  18.303   7.353
 8506POPC   C1B45559  17.262  18.435   6.453
 8506POPC   C2B45560  17.329  18.393   6.753
 8506POPC   C3B45561  17.280  18.417   7.053
 8506POPC   C4B45562  17.246  18.449   7.353
 8507POPC   NC345563  31.517  36.860   5.553
 8507POPC   PO445564  31.443  36.879   5.853
 8507POPC   GL145565  31.492  36.884   6.153
 8507POPC   GL245566  31.354  36.954   6.153
 8507POPC   C1A45567  31.477  36.909   6.453
 8507POPC   D2A45568  31.456  36.888   6.753
 8507POPC   C3A45569  31.468  36.921   7.053
 8507POPC   C4A45570  31.496  36.945   7.353
 8507POPC   C1B45571  31.271  36.954   6.453
 8507POPC   C2B45572  31.207  36.966   6.753
 8507POPC   C3B45573  31.247  36.976   7.053
 8507POPC   C4B45574  31.244  36.989   7.353
 8508POPC   NC345575   6.607  20.574   5.553
 8508POPC   PO445576   6.688  20.617   5.853
 8508POPC   GL145577   6.618  20.619   6.153
 8508POPC   GL245578   6.480  20.567   6.153
 8508POPC   C1A45579   6.643  20.640   6.453
 8508POPC   D2A45580   6.646  20.649   6.753
 8508POPC   C3A45581   6.692  20.577   7.053
 8508POPC   C4A45582   6.648  20.600   7.353
 8508POPC   C1B45583   6.379  20.577   6.453
 8508POPC   C2B45584   6.419  20.620   6.753
 8508POPC   C3B45585   6.435  20.568   7.053
 8508POPC   C4B45586   6.351  20.622   7.353
 8509POPC   NC345587  24.486   5.858   5.553
 8509POPC   PO445588  24.516   5.868   5.853
 8509POPC   GL145589  24.508   5.863   6.153
 8509POPC   GL245590  24.559   5.935   6.153
 8509POPC   C1A45591  24.479   5.846   6.453
 8509POPC   D2A45592  24.475   5.835   6.753
 8509POPC   C3A45593  24.498   5.828   7.053
 8509POPC   C4A45594  24.447   5.891   7.353
 8509POPC   C1B45595  24.595   6.114   6.453
 8509POPC   C2B45596  24.586   6.128   6.753
 8509POPC   C3B45597  24.597   6.100   7.053
 8509POPC   C4B45598  24.641   6.075   7.353
 8510POPC   NC345599   9.012  29.179   5.553
 8510POPC   PO445600   8.974  29.153   5.853
 8510POPC   GL145601   8.955  29.181   6.153
 8510POPC   GL245602   8.984  28.990   6.153
 8510POPC   C1A45603   8.978  29.179   6.453
 8510POPC   D2A45604   9.021  29.122   6.753
 8510POPC   C3A45605   9.021  29.100   7.053
 8510POPC   C4A45606   9.004  29.117   7.353
 8510POPC   C1B45607   8.956  28.906   6.453
 8510POPC   C2B45608   8.956  28.876   6.753
 8510POPC   C3B45609   8.950  28.940   7.053
 8510POPC   C4B45610   8.998  28.898   7.353
 8511POPC   NC345611  36.137  15.138   5.553
 8511POPC   PO445612  36.085  15.227   5.853
 8511POPC   GL145613  36.148  15.181   6.153
 8511POPC   GL245614  36.285  15.212   6.153
 8511POPC   C1A45615  36.083  15.184   6.453
 8511POPC   D2A45616  36.172  15.192   6.753
 8511POPC   C3A45617  36.137  15.161   7.053
 8511POPC   C4A45618  36.149  15.139   7.353
 8511POPC   C1B45619  36.403  15.235   6.453
 8511POPC   C2B45620  36.355  15.261   6.753
 8511POPC   C3B45621  36.361  15.210   7.053
 8511POPC   C4B45622  36.330  15.270   7.353
 8512POPC   NC345623  10.516  40.753   5.553
 8512POPC   PO445624  10.518  40.750   5.853
 8512POPC   GL145625  10.497  40.749   6.153
 8512POPC   GL245626  10.537  40.939   6.153
 8512POPC   C1A45627  10.506  40.797   6.453
 8512POPC   D2A45628  10.484  40.797   6.753
 8512POPC   C3A45629  10.529  40.809   7.053
 8512POPC   C4A45630  10.506  40.735   7.353
 8512POPC   C1B45631  10.542  41.016   6.453
 8512POPC   C2B45632  10.576  41.052   6.753
 8512POPC   C3B45633  10.616  41.033   7.053
 8512POPC   C4B45634  10.591  41.006   7.353
 8513POPC   NC345635  19.070  26.024   5.553
 8513POPC   PO445636  19.082  26.041   5.853
 8513POPC   GL145637  19.091  26.064   6.153
 8513POPC   GL245638  18.966  26.018   6.153
 8513POPC   C1A45639  19.066  26.050   6.453
 8513POPC   D2A45640  19.033  26.039   6.753
 8513POPC   C3A45641  19.100  25.995   7.053
 8513POPC   C4A45642  19.030  26.044   7.353
 8513POPC   C1B45643  18.783  26.031   6.453
 8513POPC   C2B45644  18.854  25.936   6.753
 8513POPC   C3B45645  18.826  25.953   7.053
 8513POPC   C4B45646  18.780  25.947   7.353
 8514POPC   NC345647  15.930  33.775   5.553
 8514POPC   PO445648  15.921  33.826   5.853
 8514POPC   GL145649  15.971  33.828   6.153
 8514POPC   GL245650  15.983  33.961   6.153
 8514POPC   C1A45651  15.982  33.831   6.453
 8514POPC   D2A45652  15.917  33.843   6.753
 8514POPC   C3A45653  15.909  33.833   7.053
 8514POPC   C4A45654  15.913  33.848   7.353
 8514POPC   C1B45655  16.032  34.059   6.453
 8514POPC   C2B45656  16.051  34.022   6.753
 8514POPC   C3B45657  16.100  34.064   7.053
 8514POPC   C4B45658  16.079  34.069   7.353
 8515POPC   NC345659  30.679  42.364   5.553
 8515POPC   PO445660  30.725  42.329   5.853
 8515POPC   GL145661  30.741  42.336   6.153
 8515POPC   GL245662  30.776  42.264   6.153
 8515POPC   C1A45663  30.733  42.288   6.453
 8515POPC   D2A45664  30.675  42.356   6.753
 8515POPC   C3A45665  30.746  42.308   7.053
 8515POPC   C4A45666  30.698  42.327   7.353
 8515POPC   C1B45667  30.873  42.192   6.453
 8515POPC   C2B45668  30.934  42.208   6.753
 8515POPC   C3B45669  30.942  42.193   7.053
 8515POPC   C4B45670  30.924  42.180   7.353
 8516POPC   NC345671   0.430  15.968   5.553
 8516POPC   PO445672   0.473  15.943   5.853
 8516POPC   GL145673   0.474  16.002   6.153
 8516POPC   GL245674   0.556  15.996   6.153
 8516POPC   C1A45675   0.475  15.936   6.453
 8516POPC   D2A45676   0.466  15.963   6.753
 8516POPC   C3A45677   0.427  15.922   7.053
 8516POPC   C4A45678   0.436  15.933   7.353
 8516POPC   C1B45679   0.692  16.008   6.453
 8516POPC   C2B45680   0.635  15.999   6.753
 8516POPC   C3B45681   0.722  16.019   7.053
 8516POPC   C4B45682   0.650  16.029   7.353
 8517POPC   NC345683   6.674   6.650   5.553
 8517POPC   PO445684   6.670   6.682   5.853
 8517POPC   GL145685   6.641   6.613   6.153
 8517POPC   GL245686   6.814   6.662   6.153
 8517POPC   C1A45687   6.630   6.685   6.453
 8517POPC   D2A45688   6.607   6.673   6.753
 8517POPC   C3A45689   6.658   6.637   7.053
 8517POPC   C4A45690   6.684   6.610   7.353
 8517POPC   C1B45691   6.846   6.682   6.453
 8517POPC   C2B45692   6.851   6.672   6.753
 8517POPC   C3B45693   6.935   6.654   7.053
 8517POPC   C4B45694   6.867   6.622   7.353
 8518POPC   NC345695  29.101  44.650   5.553
 8518POPC   PO445696  29.163  44.646   5.853
 8518POPC   GL145697  29.137  44.684   6.153
 8518POPC   GL245698  28.991  44.666   6.153
 8518POPC   C1A45699  29.180  44.683   6.453
 8518POPC   D2A45700  29.126  44.641   6.753
 8518POPC   C3A45701  29.185  44.695   7.053
 8518POPC   C4A45702  29.135  44.693   7.353
 8518POPC   C1B45703  28.868  44.540   6.453
 8518POPC   C2B45704  28.859  44.572   6.753
 8518POPC   C3B45705  28.875  44.583   7.053
 8518POPC   C4B45706  28.931  44.578   7.353
 8519POPC   NC345707  21.370  19.041   5.553
 8519POPC   PO445708  21.374  19.030   5.853
 8519POPC   GL145709  21.354  19.030   6.153
 8519POPC   GL245710  21.498  19.140   6.153
 8519POPC   C1A45711  21.400  19.104   6.453
 8519POPC   D2A45712  21.378  19.095   6.753
 8519POPC   C3A45713  21.407  19.024   7.053
 8519POPC   C4A45714  21.397  19.088   7.353
 8519POPC   C1B45715  21.566  19.269   6.453
 8519POPC   C2B45716  21.556  19.254   6.753
 8519POPC   C3B45717  21.537  19.241   7.053
 8519POPC   C4B45718  21.567  19.216   7.353
 8520POPC   NC345719  29.193   2.798   5.553
 8520POPC   PO445720  29.173   2.782   5.853
 8520POPC   GL145721  29.115   2.799   6.153
 8520POPC   GL245722  29.059   2.812   6.153
 8520POPC   C1A45723  29.118   2.811   6.453
 8520POPC   D2A45724  29.187   2.779   6.753
 8520POPC   C3A45725  29.194   2.739   7.053
 8520POPC   C4A45726  29.192   2.730   7.353
 8520POPC   C1B45727  28.926   2.927   6.453
 8520POPC   C2B45728  28.904   2.915   6.753
 8520POPC   C3B45729  28.961   2.958   7.053
 8520POPC   C4B45730  28.947   2.897   7.353
 8521POPC   NC345731   8.228   9.730   5.553
 8521POPC   PO445732   8.243   9.746   5.853
 8521POPC   GL145733   8.189   9.775   6.153
 8521POPC   GL245734   8.277   9.787   6.153
 8521POPC   C1A45735   8.178   9.725   6.453
 8521POPC   D2A45736   8.162   9.746   6.753
 8521POPC   C3A45737   8.164   9.785   7.053
 8521POPC   C4A45738   8.158   9.732   7.353
 8521POPC   C1B45739   8.380   9.862   6.453
 8521POPC   C2B45740   8.452   9.858   6.753
 8521POPC   C3B45741   8.399   9.830   7.053
 8521POPC   C4B45742   8.438   9.795   7.353
 8522POPC   NC345743   3.579   8.237   5.553
 8522POPC   PO445744   3.529   8.161   5.853
 8522POPC   GL145745   3.581   8.199   6.153
 8522POPC   GL245746   3.458   8.048   6.153
 8522POPC   C1A45747   3.553   8.184   6.453
 8522POPC   D2A45748   3.566   8.236   6.753
 8522POPC   C3A45749   3.539   8.165   7.053
 8522POPC   C4A45750   3.590   8.187   7.353
 8522POPC   C1B45751   3.468   7.985   6.453
 8522POPC   C2B45752   3.500   7.998   6.753
 8522POPC   C3B45753   3.438   7.935   7.053
 8522POPC   C4B45754   3.420   7.956   7.353
 8523POPC   NC345755   7.419  33.805   5.553
 8523POPC   PO445756   7.452  33.829   5.853
 8523POPC   GL145757   7.426  33.752   6.153
 8523POPC   GL245758   7.528  33.899   6.153
 8523POPC   C1A45759   7.428  33.802   6.453
 8523POPC   D2A45760   7.449  33.797   6.753
 8523POPC   C3A45761   7.426  33.770   7.053
 8523POPC   C4A45762   7.380  33.781   7.353
 8523POPC   C1B45763   7.679  33.874   6.453
 8523POPC   C2B45764   7.592  33.878   6.753
 8523POPC   C3B45765   7.634  33.880   7.053
 8523POPC   C4B45766   7.686  33.933   7.353
 8524POPC   NC345767   3.573  30.707   5.553
 8524POPC   PO445768   3.527  30.736   5.853
 8524POPC   GL145769   3.527  30.693   6.153
 8524POPC   GL245770   3.501  30.832   6.153
 8524POPC   C1A45771   3.506  30.660   6.453
 8524POPC   D2A45772   3.579  30.733   6.753
 8524POPC   C3A45773   3.547  30.707   7.053
 8524POPC   C4A45774   3.560  30.699   7.353
 8524POPC   C1B45775   3.377  30.933   6.453
 8524POPC   C2B45776   3.411  30.875   6.753
 8524POPC   C3B45777   3.400  30.903   7.053
 8524POPC   C4B45778   3.441  30.880   7.353
 8525POPC   NC345779   4.269  42.322   5.553
 8525POPC   PO445780   4.362  42.335   5.853
 8525POPC   GL145781   4.367  42.329   6.153
 8525POPC   GL245782   4.375  42.413   6.153
 8525POPC   C1A45783   4.326  42.373   6.453
 8525POPC   D2A45784   4.326  42.304   6.753
 8525POPC   C3A45785   4.314  42.357   7.053
 8525POPC   C4A45786   4.326  42.374   7.353
 8525POPC   C1B45787   4.493  42.547   6.453
 8525POPC   C2B45788   4.475  42.506   6.753
 8525POPC   C3B45789   4.499  42.501   7.053
 8525POPC   C4B45790   4.478  42.522   7.353
 8526POPC   NC345791  40.738  40.757   5.553
 8526POPC   PO445792  40.799  40.774   5.853
 8526POPC   GL145793  40.794  40.778   6.153
 8526POPC   GL245794  40.747  40.622   6.153
 8526POPC   C1A45795  40.770  40.815   6.453
 8526POPC   D2A45796  40.740  40.754   6.753
 8526POPC   C3A45797  40.791  40.829   7.053
 8526POPC   C4A45798  40.787  40.754   7.353
 8526POPC   C1B45799  40.725  40.581   6.453
 8526POPC   C2B45800  40.762  40.578   6.753
 8526POPC   C3B45801  40.770  40.529   7.053
 8526POPC   C4B45802  40.724  40.579   7.353
 8527POPC   NC345803  22.984  36.122   5.553
 8527POPC   PO445804  22.932  36.135   5.853
 8527POPC   GL145805  22.948  36.100   6.153
 8527POPC   GL245806  23.097  36.227   6.153
 8527POPC   C1A45807  22.918  36.155   6.453
 8527POPC   D2A45808  22.894  36.127   6.753
 8527POPC   C3A45809  22.925  36.098   7.053
 8527POPC   C4A45810  22.972  36.115   7.353
 8527POPC   C1B45811  23.188  36.226   6.453
 8527POPC   C2B45812  23.115  36.289   6.753
 8527POPC   C3B45813  23.191  36.283   7.053
 8527POPC   C4B45814  23.209  36.193   7.353
 8528POPC   NC345815  24.459  33.784   5.553
 8528POPC   PO445816  24.440  33.805   5.853
 8528POPC   GL145817  24.514  33.815   6.153
 8528POPC   GL245818  24.356  33.900   6.153
 8528POPC   C1A45819  24.496  33.845   6.453
 8528POPC   D2A45820  24.485  33.791   6.753
 8528POPC   C3A45821  24.515  33.838   7.053
 8528POPC   C4A45822  24.533  33.825   7.353
 8528POPC   C1B45823  24.261  33.893   6.453
 8528POPC   C2B45824  24.276  33.873   6.753
 8528POPC   C3B45825  24.259  33.916   7.053
 8528POPC   C4B45826  24.307  33.930   7.353
 8529POPC   NC345827  44.622   1.999   5.553
 8529POPC   PO445828  44.655   1.977   5.853
 8529POPC   GL145829  44.641   1.991   6.153
 8529POPC   GL245830  44.667   1.846   6.153
 8529POPC   C1A45831  44.643   1.952   6.453
 8529POPC   D2A45832  44.679   2.033   6.753
 8529POPC   C3A45833  44.643   1.941   7.053
 8529POPC   C4A45834  44.679   1.945   7.353
 8529POPC   C1B45835  44.801   1.779   6.453
 8529POPC   C2B45836  44.745   1.803   6.753
 8529POPC   C3B45837  44.749   1.728   7.053
 8529POPC   C4B45838  44.757   1.724   7.353
 8530POPC   NC345839  33.040   1.942   5.553
 8530POPC   PO445840  33.049   1.993   5.853
 8530POPC   GL145841  33.047   1.984   6.153
 8530POPC   GL245842  33.157   1.967   6.153
 8530POPC   C1A45843  33.038   1.950   6.453
 8530POPC   D2A45844  32.983   1.946   6.753
 8530POPC   C3A45845  33.052   1.974   7.053
 8530POPC   C4A45846  33.056   1.993   7.353
 8530POPC   C1B45847  33.243   1.900   6.453
 8530POPC   C2B45848  33.217   1.834   6.753
 8530POPC   C3B45849  33.234   1.834   7.053
 8530POPC   C4B45850  33.251   1.819   7.353
 8531POPC   NC345851  33.000  32.977   5.553
 8531POPC   PO445852  33.060  33.010   5.853
 8531POPC   GL145853  33.018  32.989   6.153
 8531POPC   GL245854  33.122  32.950   6.153
 8531POPC   C1A45855  32.986  32.988   6.453
 8531POPC   D2A45856  33.070  32.990   6.753
 8531POPC   C3A45857  33.069  33.006   7.053
 8531POPC   C4A45858  33.038  33.002   7.353
 8531POPC   C1B45859  33.251  32.925   6.453
 8531POPC   C2B45860  33.271  32.966   6.753
 8531POPC   C3B45861  33.230  32.995   7.053
 8531POPC   C4B45862  33.267  33.012   7.353
 8532POPC   NC345863  41.546  22.180   5.553
 8532POPC   PO445864  41.558  22.202   5.853
 8532POPC   GL145865  41.560  22.125   6.153
 8532POPC   GL245866  41.702  22.074   6.153
 8532POPC   C1A45867  41.512  22.200   6.453
 8532POPC   D2A45868  41.523  22.113   6.753
 8532POPC   C3A45869  41.540  22.186   7.053
 8532POPC   C4A45870  41.522  22.160   7.353
 8532POPC   C1B45871  41.749  21.970   6.453
 8532POPC   C2B45872  41.756  21.974   6.753
 8532POPC   C3B45873  41.741  22.028   7.053
 8532POPC   C4B45874  41.710  22.037   7.353
 8533POPC   NC345875   6.638  36.165   5.553
 8533POPC   PO445876   6.641  36.132   5.853
 8533POPC   GL145877   6.665  36.132   6.153
 8533POPC   GL245878   6.740  36.256   6.153
 8533POPC   C1A45879   6.660  36.151   6.453
 8533POPC   D2A45880   6.628  36.091   6.753
 8533POPC   C3A45881   6.600  36.140   7.053
 8533POPC   C4A45882   6.670  36.107   7.353
 8533POPC   C1B45883   6.769  36.340   6.453
 8533POPC   C2B45884   6.753  36.340   6.753
 8533POPC   C3B45885   6.705  36.330   7.053
 8533POPC   C4B45886   6.752  36.336   7.353
 8534POPC   NC345887   9.705  26.052   5.553
 8534POPC   PO445888   9.762  26.057   5.853
 8534POPC   GL145889   9.788  26.074   6.153
 8534POPC   GL245890   9.826  26.155   6.153
 8534POPC   C1A45891   9.774  26.038   6.453
 8534POPC   D2A45892   9.763  26.064   6.753
 8534POPC   C3A45893   9.701  26.016   7.053
 8534POPC   C4A45894   9.702  26.036   7.353
 8534POPC   C1B45895   9.944  26.264   6.453
 8534POPC   C2B45896   9.877  26.251   6.753
 8534POPC   C3B45897   9.858  26.283   7.053
 8534POPC   C4B45898   9.870  26.204   7.353
 8535POPC   NC345899   5.840  11.278   5.553
 8535POPC   PO445900   5.851  11.339   5.853
 8535POPC   GL145901   5.861  11.331   6.153
 8535POPC   GL245902   5.968  11.396   6.153
 8535POPC   C1A45903   5.838  11.262   6.453
 8535POPC   D2A45904   5.834  11.302   6.753
 8535POPC   C3A45905   5.824  11.334   7.053
 8535POPC   C4A45906   5.845  11.305   7.353
 8535POPC   C1B45907   6.058  11.481   6.453
 8535POPC   C2B45908   6.084  11.458   6.753
 8535POPC   C3B45909   6.073  11.484   7.053
 8535POPC   C4B45910   6.002  11.478   7.353
 8536POPC   NC345911  44.619  26.775   5.553
 8536POPC   PO445912  44.619  26.857   5.853
 8536POPC   GL145913  44.656  26.844   6.153
 8536POPC   GL245914  44.633  26.667   6.153
 8536POPC   C1A45915  44.613  26.828   6.453
 8536POPC   D2A45916  44.616  26.834   6.753
 8536POPC   C3A45917  44.668  26.825   7.053
 8536POPC   C4A45918  44.614  26.865   7.353
 8536POPC   C1B45919  44.671  26.610   6.453
 8536POPC   C2B45920  44.703  26.539   6.753
 8536POPC   C3B45921  44.667  26.617   7.053
 8536POPC   C4B45922  44.676  26.601   7.353
 8537POPC   NC345923  41.546  11.326   5.553
 8537POPC   PO445924  41.554  11.272   5.853
 8537POPC   GL145925  41.595  11.319   6.153
 8537POPC   GL245926  41.483  11.425   6.153
 8537POPC   C1A45927  41.563  11.285   6.453
 8537POPC   D2A45928  41.577  11.294   6.753
 8537POPC   C3A45929  41.607  11.288   7.053
 8537POPC   C4A45930  41.532  11.271   7.353
 8537POPC   C1B45931  41.502  11.503   6.453
 8537POPC   C2B45932  41.511  11.553   6.753
 8537POPC   C3B45933  41.467  11.512   7.053
 8537POPC   C4B45934  41.494  11.553   7.353
 8538POPC   NC345935  17.485   5.061   5.553
 8538POPC   PO445936  17.540   5.125   5.853
 8538POPC   GL145937  17.477   5.044   6.153
 8538POPC   GL245938  17.461   5.179   6.153
 8538POPC   C1A45939  17.545   5.091   6.453
 8538POPC   D2A45940  17.544   5.126   6.753
 8538POPC   C3A45941  17.522   5.133   7.053
 8538POPC   C4A45942  17.486   5.046   7.353
 8538POPC   C1B45943  17.457   5.345   6.453
 8538POPC   C2B45944  17.397   5.368   6.753
 8538POPC   C3B45945  17.400   5.306   7.053
 8538POPC   C4B45946  17.397   5.315   7.353
 8539POPC   NC345947  40.008  31.522   5.553
 8539POPC   PO445948  40.034  31.510   5.853
 8539POPC   GL145949  40.054  31.488   6.153
 8539POPC   GL245950  39.935  31.383   6.153
 8539POPC   C1A45951  40.005  31.492   6.453
 8539POPC   D2A45952  40.009  31.468   6.753
 8539POPC   C3A45953  40.043  31.443   7.053
 8539POPC   C4A45954  40.015  31.462   7.353
 8539POPC   C1B45955  39.808  31.379   6.453
 8539POPC   C2B45956  39.816  31.350   6.753
 8539POPC   C3B45957  39.775  31.352   7.053
 8539POPC   C4B45958  39.747  31.378   7.353
 8540POPC   NC345959   6.602   5.879   5.553
 8540POPC   PO445960   6.638   5.853   5.853
 8540POPC   GL145961   6.630   5.915   6.153
 8540POPC   GL245962   6.664   6.004   6.153
 8540POPC   C1A45963   6.657   5.919   6.453
 8540POPC   D2A45964   6.605   5.865   6.753
 8540POPC   C3A45965   6.659   5.878   7.053
 8540POPC   C4A45966   6.690   5.904   7.353
 8540POPC   C1B45967   6.774   6.120   6.453
 8540POPC   C2B45968   6.742   6.113   6.753
 8540POPC   C3B45969   6.779   6.064   7.053
 8540POPC   C4B45970   6.769   6.077   7.353
 8541POPC   NC345971  34.564   3.519   5.553
 8541POPC   PO445972  34.599   3.575   5.853
 8541POPC   GL145973  34.603   3.553   6.153
 8541POPC   GL245974  34.519   3.386   6.153
 8541POPC   C1A45975  34.550   3.590   6.453
 8541POPC   D2A45976  34.559   3.508   6.753
 8541POPC   C3A45977  34.592   3.559   7.053
 8541POPC   C4A45978  34.589   3.559   7.353
 8541POPC   C1B45979  34.558   3.329   6.453
 8541POPC   C2B45980  34.526   3.309   6.753
 8541POPC   C3B45981  34.512   3.310   7.053
 8541POPC   C4B45982  34.576   3.271   7.353
 8542POPC   NC345983   7.375   8.186   5.553
 8542POPC   PO445984   7.443   8.177   5.853
 8542POPC   GL145985   7.448   8.149   6.153
 8542POPC   GL245986   7.480   8.060   6.153
 8542POPC   C1A45987   7.461   8.218   6.453
 8542POPC   D2A45988   7.399   8.193   6.753
 8542POPC   C3A45989   7.418   8.234   7.053
 8542POPC   C4A45990   7.377   8.157   7.353
 8542POPC   C1B45991   7.458   7.985   6.453
 8542POPC   C2B45992   7.480   7.953   6.753
 8542POPC   C3B45993   7.467   7.907   7.053
 8542POPC   C4B45994   7.493   7.988   7.353
 8543POPC   NC345995  44.618  28.330   5.553
 8543POPC   PO445996  44.646  28.397   5.853
 8543POPC   GL145997  44.633  28.342   6.153
 8543POPC   GL245998  44.550  28.411   6.153
 8543POPC   C1A45999  44.619  28.344   6.453
 8543POPC   D2A46000  44.646  28.412   6.753
 8543POPC   C3A46001  44.623  28.406   7.053
 8543POPC   C4A46002  44.616  28.354   7.353
 8543POPC   C1B46003  44.504  28.490   6.453
 8543POPC   C2B46004  44.422  28.537   6.753
 8543POPC   C3B46005  44.462  28.519   7.053
 8543POPC   C4B46006  44.474  28.512   7.353
 8544POPC   NC346007  38.464  44.680   5.553
 8544POPC   PO446008  38.410  44.695   5.853
 8544POPC   GL146009  38.418  44.664   6.153
 8544POPC   GL246010  38.539  44.607   6.153
 8544POPC   C1A46011  38.443  44.669   6.453
 8544POPC   D2A46012  38.426  44.639   6.753
 8544POPC   C3A46013  38.464  44.656   7.053
 8544POPC   C4A46014  38.475  44.675   7.353
 8544POPC   C1B46015  38.669  44.522   6.453
 8544POPC   C2B46016  38.640  44.532   6.753
 8544POPC   C3B46017  38.680  44.535   7.053
 8544POPC   C4B46018  38.617  44.472   7.353
 8545POPC   NC346019  29.882  37.679   5.553
 8545POPC   PO446020  29.948  37.721   5.853
 8545POPC   GL146021  29.949  37.634   6.153
 8545POPC   GL246022  29.789  37.747   6.153
 8545POPC   C1A46023  29.897  37.703   6.453
 8545POPC   D2A46024  29.913  37.717   6.753
 8545POPC   C3A46025  29.917  37.677   7.053
 8545POPC   C4A46026  29.904  37.682   7.353
 8545POPC   C1B46027  29.666  37.775   6.453
 8545POPC   C2B46028  29.719  37.845   6.753
 8545POPC   C3B46029  29.706  37.816   7.053
 8545POPC   C4B46030  29.672  37.800   7.353
 8546POPC   NC346031   5.047  24.525   5.553
 8546POPC   PO446032   5.058  24.446   5.853
 8546POPC   GL146033   5.051  24.444   6.153
 8546POPC   GL246034   4.990  24.387   6.153
 8546POPC   C1A46035   5.109  24.441   6.453
 8546POPC   D2A46036   5.127  24.516   6.753
 8546POPC   C3A46037   5.053  24.470   7.053
 8546POPC   C4A46038   5.082  24.486   7.353
 8546POPC   C1B46039   4.861  24.312   6.453
 8546POPC   C2B46040   4.905  24.324   6.753
 8546POPC   C3B46041   4.865  24.330   7.053
 8546POPC   C4B46042   4.835  24.409   7.353
 8547POPC   NC346043  20.583  19.862   5.553
 8547POPC   PO446044  20.587  19.883   5.853
 8547POPC   GL146045  20.611  19.880   6.153
 8547POPC   GL246046  20.539  19.825   6.153
 8547POPC   C1A46047  20.619  19.872   6.453
 8547POPC   D2A46048  20.563  19.818   6.753
 8547POPC   C3A46049  20.654  19.820   7.053
 8547POPC   C4A46050  20.569  19.789   7.353
 8547POPC   C1B46051  20.422  19.705   6.453
 8547POPC   C2B46052  20.343  19.776   6.753
 8547POPC   C3B46053  20.371  19.714   7.053
 8547POPC   C4B46054  20.369  19.761   7.353
 8548POPC   NC346055  15.212  33.020   5.553
 8548POPC   PO446056  15.208  33.040   5.853
 8548POPC   GL146057  15.151  33.039   6.153
 8548POPC   GL246058  15.030  33.032   6.153
 8548POPC   C1A46059  15.209  32.976   6.453
 8548POPC   D2A46060  15.132  32.984   6.753
 8548POPC   C3A46061  15.223  33.043   7.053
 8548POPC   C4A46062  15.182  32.982   7.353
 8548POPC   C1B46063  14.931  32.971   6.453
 8548POPC   C2B46064  14.939  32.910   6.753
 8548POPC   C3B46065  14.981  32.949   7.053
 8548POPC   C4B46066  14.967  32.916   7.353
 8549POPC   NC346067  40.779  17.502   5.553
 8549POPC   PO446068  40.759  17.539   5.853
 8549POPC   GL146069  40.821  17.545   6.153
 8549POPC   GL246070  40.865  17.410   6.153
 8549POPC   C1A46071  40.810  17.460   6.453
 8549POPC   D2A46072  40.830  17.539   6.753
 8549POPC   C3A46073  40.771  17.510   7.053
 8549POPC   C4A46074  40.745  17.482   7.353
 8549POPC   C1B46075  40.989  17.374   6.453
 8549POPC   C2B46076  41.047  17.363   6.753
 8549POPC   C3B46077  41.032  17.378   7.053
 8549POPC   C4B46078  41.002  17.386   7.353
 8550POPC   NC346079  35.320  16.697   5.553
 8550POPC   PO446080  35.393  16.741   5.853
 8550POPC   GL146081  35.391  16.715   6.153
 8550POPC   GL246082  35.323  16.891   6.153
 8550POPC   C1A46083  35.315  16.777   6.453
 8550POPC   D2A46084  35.320  16.691   6.753
 8550POPC   C3A46085  35.304  16.762   7.053
 8550POPC   C4A46086  35.342  16.773   7.353
 8550POPC   C1B46087  35.339  16.954   6.453
 8550POPC   C2B46088  35.349  17.001   6.753
 8550POPC   C3B46089  35.330  16.943   7.053
 8550POPC   C4B46090  35.292  17.000   7.353
 8551POPC   NC346091  43.866  28.380   5.553
 8551POPC   PO446092  43.887  28.364   5.853
 8551POPC   GL146093  43.878  28.364   6.153
 8551POPC   GL246094  44.031  28.431   6.153
 8551POPC   C1A46095  43.929  28.330   6.453
 8551POPC   D2A46096  43.842  28.406   6.753
 8551POPC   C3A46097  43.906  28.390   7.053
 8551POPC   C4A46098  43.848  28.371   7.353
 8551POPC   C1B46099  44.112  28.436   6.453
 8551POPC   C2B46100  44.174  28.399   6.753
 8551POPC   C3B46101  44.114  28.452   7.053
 8551POPC   C4B46102  44.168  28.425   7.353
 8552POPC   NC346103  40.765  32.227   5.553
 8552POPC   PO446104  40.754  32.293   5.853
 8552POPC   GL146105  40.784  32.237   6.153
 8552POPC   GL246106  40.784  32.130   6.153
 8552POPC   C1A46107  40.829  32.290   6.453
 8552POPC   D2A46108  40.821  32.214   6.753
 8552POPC   C3A46109  40.735  32.252   7.053
 8552POPC   C4A46110  40.779  32.291   7.353
 8552POPC   C1B46111  40.785  32.017   6.453
 8552POPC   C2B46112  40.821  31.963   6.753
 8552POPC   C3B46113  40.836  31.989   7.053
 8552POPC   C4B46114  40.762  31.998   7.353
 8553POPC   NC346115  20.586   7.414   5.553
 8553POPC   PO446116  20.575   7.459   5.853
 8553POPC   GL146117  20.659   7.381   6.153
 8553POPC   GL246118  20.756   7.484   6.153
 8553POPC   C1A46119  20.634   7.407   6.453
 8553POPC   D2A46120  20.590   7.403   6.753
 8553POPC   C3A46121  20.575   7.410   7.053
 8553POPC   C4A46122  20.596   7.464   7.353
 8553POPC   C1B46123  20.859   7.527   6.453
 8553POPC   C2B46124  20.848   7.550   6.753
 8553POPC   C3B46125  20.834   7.544   7.053
 8553POPC   C4B46126  20.837   7.519   7.353
 8554POPC   NC346127  36.943  37.646   5.553
 8554POPC   PO446128  36.942  37.660   5.853
 8554POPC   GL146129  36.932  37.704   6.153
 8554POPC   GL246130  37.009  37.797   6.153
 8554POPC   C1A46131  36.948  37.685   6.453
 8554POPC   D2A46132  36.944  37.729   6.753
 8554POPC   C3A46133  36.908  37.633   7.053
 8554POPC   C4A46134  36.864  37.630   7.353
 8554POPC   C1B46135  37.025  37.879   6.453
 8554POPC   C2B46136  37.089  37.886   6.753
 8554POPC   C3B46137  37.055  37.840   7.053
 8554POPC   C4B46138  37.090  37.831   7.353
 8555POPC   NC346139  28.390   3.537   5.553
 8555POPC   PO446140  28.408   3.504   5.853
 8555POPC   GL146141  28.320   3.519   6.153
 8555POPC   GL246142  28.265   3.420   6.153
 8555POPC   C1A46143  28.346   3.509   6.453
 8555POPC   D2A46144  28.368   3.544   6.753
 8555POPC   C3A46145  28.413   3.502   7.053
 8555POPC   C4A46146  28.390   3.520   7.353
 8555POPC   C1B46147  28.232   3.371   6.453
 8555POPC   C2B46148  28.167   3.311   6.753
 8555POPC   C3B46149  28.170   3.314   7.053
 8555POPC   C4B46150  28.173   3.396   7.353
 8556POPC   NC346151  35.378   5.124   5.553
 8556POPC   PO446152  35.389   5.058   5.853
 8556POPC   GL146153  35.303   5.083   6.153
 8556POPC   GL246154  35.289   5.179   6.153
 8556POPC   C1A46155  35.330   5.127   6.453
 8556POPC   D2A46156  35.399   5.072   6.753
 8556POPC   C3A46157  35.372   5.115   7.053
 8556POPC   C4A46158  35.330   5.055   7.353
 8556POPC   C1B46159  35.188   5.272   6.453
 8556POPC   C2B46160  35.214   5.280   6.753
 8556POPC   C3B46161  35.171   5.298   7.053
 8556POPC   C4B46162  35.150   5.334   7.353
 8557POPC   NC346163  29.180   4.278   5.553
 8557POPC   PO446164  29.103   4.287   5.853
 8557POPC   GL146165  29.123   4.283   6.153
 8557POPC   GL246166  29.028   4.286   6.153
 8557POPC   C1A46167  29.115   4.344   6.453
 8557POPC   D2A46168  29.188   4.287   6.753
 8557POPC   C3A46169  29.177   4.332   7.053
 8557POPC   C4A46170  29.111   4.325   7.353
 8557POPC   C1B46171  28.942   4.230   6.453
 8557POPC   C2B46172  28.930   4.218   6.753
 8557POPC   C3B46173  28.943   4.246   7.053
 8557POPC   C4B46174  28.897   4.282   7.353
 8558POPC   NC346175  38.472  28.414   5.553
 8558POPC   PO446176  38.472  28.387   5.853
 8558POPC   GL146177  38.495  28.333   6.153
 8558POPC   GL246178  38.577  28.260   6.153
 8558POPC   C1A46179  38.475  28.350   6.453
 8558POPC   D2A46180  38.430  28.343   6.753
 8558POPC   C3A46181  38.493  28.343   7.053
 8558POPC   C4A46182  38.472  28.359   7.353
 8558POPC   C1B46183  38.698  28.242   6.453
 8558POPC   C2B46184  38.668  28.197   6.753
 8558POPC   C3B46185  38.703  28.202   7.053
 8558POPC   C4B46186  38.638  28.183   7.353
 8559POPC   NC346187   6.669  24.463   5.553
 8559POPC   PO446188   6.664  24.520   5.853
 8559POPC   GL146189   6.602  24.468   6.153
 8559POPC   GL246190   6.683  24.608   6.153
 8559POPC   C1A46191   6.658  24.472   6.453
 8559POPC   D2A46192   6.622  24.458   6.753
 8559POPC   C3A46193   6.631  24.501   7.053
 8559POPC   C4A46194   6.600  24.489   7.353
 8559POPC   C1B46195   6.748  24.702   6.453
 8559POPC   C2B46196   6.803  24.717   6.753
 8559POPC   C3B46197   6.784  24.665   7.053
 8559POPC   C4B46198   6.803  24.708   7.353
 8560POPC   NC346199   5.878   7.453   5.553
 8560POPC   PO446200   5.829   7.398   5.853
 8560POPC   GL146201   5.821   7.406   6.153
 8560POPC   GL246202   5.755   7.367   6.153
 8560POPC   C1A46203   5.841   7.391   6.453
 8560POPC   D2A46204   5.916   7.464   6.753
 8560POPC   C3A46205   5.838   7.434   7.053
 8560POPC   C4A46206   5.867   7.425   7.353
 8560POPC   C1B46207   5.712   7.243   6.453
 8560POPC   C2B46208   5.739   7.259   6.753
 8560POPC   C3B46209   5.744   7.265   7.053
 8560POPC   C4B46210   5.680   7.290   7.353
 8561POPC   NC346211  22.972  35.373   5.553
 8561POPC   PO446212  22.983  35.340   5.853
 8561POPC   GL146213  22.935  35.335   6.153
 8561POPC   GL246214  22.857  35.403   6.153
 8561POPC   C1A46215  22.908  35.331   6.453
 8561POPC   D2A46216  22.930  35.359   6.753
 8561POPC   C3A46217  22.915  35.342   7.053
 8561POPC   C4A46218  22.943  35.349   7.353
 8561POPC   C1B46219  22.738  35.556   6.453
 8561POPC   C2B46220  22.745  35.562   6.753
 8561POPC   C3B46221  22.776  35.591   7.053
 8561POPC   C4B46222  22.755  35.595   7.353
 8562POPC   NC346223  23.690  36.143   5.553
 8562POPC   PO446224  23.748  36.167   5.853
 8562POPC   GL146225  23.719  36.111   6.153
 8562POPC   GL246226  23.751  36.292   6.153
 8562POPC   C1A46227  23.732  36.142   6.453
 8562POPC   D2A46228  23.715  36.150   6.753
 8562POPC   C3A46229  23.732  36.114   7.053
 8562POPC   C4A46230  23.685  36.133   7.353
 8562POPC   C1B46231  23.771  36.349   6.453
 8562POPC   C2B46232  23.819  36.337   6.753
 8562POPC   C3B46233  23.844  36.330   7.053
 8562POPC   C4B46234  23.756  36.364   7.353
 8563POPC   NC346235  37.722  37.675   5.553
 8563POPC   PO446236  37.674  37.663   5.853
 8563POPC   GL146237  37.723  37.725   6.153
 8563POPC   GL246238  37.735  37.800   6.153
 8563POPC   C1A46239  37.664  37.632   6.453
 8563POPC   D2A46240  37.727  37.636   6.753
 8563POPC   C3A46241  37.704  37.697   7.053
 8563POPC   C4A46242  37.664  37.644   7.353
 8563POPC   C1B46243  37.805  37.939   6.453
 8563POPC   C2B46244  37.803  37.847   6.753
 8563POPC   C3B46245  37.852  37.900   7.053
 8563POPC   C4B46246  37.768  37.898   7.353
 8564POPC   NC346247  31.457   5.105   5.553
 8564POPC   PO446248  31.506   5.060   5.853
 8564POPC   GL146249  31.509   5.141   6.153
 8564POPC   GL246250  31.396   4.949   6.153
 8564POPC   C1A46251  31.436   5.115   6.453
 8564POPC   D2A46252  31.499   5.073   6.753
 8564POPC   C3A46253  31.471   5.083   7.053
 8564POPC   C4A46254  31.474   5.072   7.353
 8564POPC   C1B46255  31.375   4.820   6.453
 8564POPC   C2B46256  31.359   4.837   6.753
 8564POPC   C3B46257  31.356   4.858   7.053
 8564POPC   C4B46258  31.411   4.912   7.353
 8565POPC   NC346259  35.381  16.004   5.553
 8565POPC   PO446260  35.354  16.000   5.853
 8565POPC   GL146261  35.342  15.972   6.153
 8565POPC   GL246262  35.270  15.837   6.153
 8565POPC   C1A46263  35.385  15.951   6.453
 8565POPC   D2A46264  35.311  15.944   6.753
 8565POPC   C3A46265  35.402  15.985   7.053
 8565POPC   C4A46266  35.306  15.978   7.353
 8565POPC   C1B46267  35.255  15.790   6.453
 8565POPC   C2B46268  35.238  15.766   6.753
 8565POPC   C3B46269  35.241  15.759   7.053
 8565POPC   C4B46270  35.195  15.753   7.353
 8566POPC   NC346271  36.160   2.770   5.553
 8566POPC   PO446272  36.107   2.728   5.853
 8566POPC   GL146273  36.171   2.741   6.153
 8566POPC   GL246274  36.032   2.695   6.153
 8566POPC   C1A46275  36.144   2.765   6.453
 8566POPC   D2A46276  36.117   2.754   6.753
 8566POPC   C3A46277  36.127   2.730   7.053
 8566POPC   C4A46278  36.129   2.801   7.353
 8566POPC   C1B46279  36.000   2.564   6.453
 8566POPC   C2B46280  35.964   2.545   6.753
 8566POPC   C3B46281  36.035   2.563   7.053
 8566POPC   C4B46282  36.022   2.580   7.353
 8567POPC   NC346283  36.887  13.626   5.553
 8567POPC   PO446284  36.942  13.643   5.853
 8567POPC   GL146285  36.880  13.607   6.153
 8567POPC   GL246286  36.826  13.640   6.153
 8567POPC   C1A46287  36.900  13.657   6.453
 8567POPC   D2A46288  36.929  13.658   6.753
 8567POPC   C3A46289  36.920  13.620   7.053
 8567POPC   C4A46290  36.891  13.654   7.353
 8567POPC   C1B46291  36.650  13.754   6.453
 8567POPC   C2B46292  36.672  13.739   6.753
 8567POPC   C3B46293  36.674  13.748   7.053
 8567POPC   C4B46294  36.720  13.734   7.353
 8568POPC   NC346295  10.511  39.197   5.553
 8568POPC   PO446296  10.560  39.203   5.853
 8568POPC   GL146297  10.533  39.269   6.153
 8568POPC   GL246298  10.672  39.265   6.153
 8568POPC   C1A46299  10.535  39.197   6.453
 8568POPC   D2A46300  10.559  39.220   6.753
 8568POPC   C3A46301  10.561  39.188   7.053
 8568POPC   C4A46302  10.526  39.215   7.353
 8568POPC   C1B46303  10.766  39.296   6.453
 8568POPC   C2B46304  10.800  39.331   6.753
 8568POPC   C3B46305  10.729  39.296   7.053
 8568POPC   C4B46306  10.795  39.301   7.353
 8569POPC   NC346307  26.807   2.809   5.553
 8569POPC   PO446308  26.816   2.746   5.853
 8569POPC   GL146309  26.790   2.801   6.153
 8569POPC   GL246310  26.933   2.749   6.153
 8569POPC   C1A46311  26.845   2.764   6.453
 8569POPC   D2A46312  26.831   2.765   6.753
 8569POPC   C3A46313  26.833   2.731   7.053
 8569POPC   C4A46314  26.772   2.793   7.353
 8569POPC   C1B46315  27.052   2.748   6.453
 8569POPC   C2B46316  27.040   2.716   6.753
 8569POPC   C3B46317  27.062   2.733   7.053
 8569POPC   C4B46318  27.104   2.758   7.353
 8570POPC   NC346319  32.237  39.227   5.553
 8570POPC   PO446320  32.219  39.242   5.853
 8570POPC   GL146321  32.262  39.231   6.153
 8570POPC   GL246322  32.286  39.073   6.153
 8570POPC   C1A46323  32.236  39.275   6.453
 8570POPC   D2A46324  32.212  39.254   6.753
 8570POPC   C3A46325  32.288  39.218   7.053
 8570POPC   C4A46326  32.216  39.276   7.353
 8570POPC   C1B46327  32.319  38.976   6.453
 8570POPC   C2B46328  32.305  38.946   6.753
 8570POPC   C3B46329  32.259  38.995   7.053
 8570POPC   C4B46330  32.254  38.950   7.353
 8571POPC   NC346331  44.696  10.521   5.553
 8571POPC   PO446332  44.699  10.550   5.853
 8571POPC   GL146333  44.648  10.574   6.153
 8571POPC   GL246334  44.732  10.616   6.153
 8571POPC   C1A46335  44.674  10.509   6.453
 8571POPC   D2A46336  44.649  10.490   6.753
 8571POPC   C3A46337  44.690  10.512   7.053
 8571POPC   C4A46338  44.675  10.560   7.353
 8571POPC   C1B46339  44.893  10.648   6.453
 8571POPC   C2B46340  44.845  10.721   6.753
 8571POPC   C3B46341  44.880  10.684   7.053
 8571POPC   C4B46342  44.811  10.672   7.353
 8572POPC   NC346343  44.629  41.533   5.553
 8572POPC   PO446344  44.653  41.603   5.853
 8572POPC   GL146345  44.689  41.559   6.153
 8572POPC   GL246346  44.822  41.579   6.153
 8572POPC   C1A46347  44.649  41.605   6.453
 8572POPC   D2A46348  44.661  41.509   6.753
 8572POPC   C3A46349  44.632  41.558   7.053
 8572POPC   C4A46350  44.693  41.514   7.353
 8572POPC   C1B46351  44.912  41.492   6.453
 8572POPC   C2B46352  44.938  41.490   6.753
 8572POPC   C3B46353  44.922  41.586   7.053
 8572POPC   C4B46354  44.896  41.555   7.353
 8573POPC   NC346355  18.279  43.873   5.553
 8573POPC   PO446356  18.315  43.932   5.853
 8573POPC   GL146357  18.287  43.919   6.153
 8573POPC   GL246358  18.288  43.725   6.153
 8573POPC   C1A46359  18.278  43.883   6.453
 8573POPC   D2A46360  18.281  43.912   6.753
 8573POPC   C3A46361  18.244  43.935   7.053
 8573POPC   C4A46362  18.328  43.885   7.353
 8573POPC   C1B46363  18.213  43.633   6.453
 8573POPC   C2B46364  18.258  43.654   6.753
 8573POPC   C3B46365  18.252  43.607   7.053
 8573POPC   C4B46366  18.232  43.622   7.353
 8574POPC   NC346367   8.983  36.156   5.553
 8574POPC   PO446368   9.008  36.128   5.853
 8574POPC   GL146369   8.937  36.117   6.153
 8574POPC   GL246370   9.021  36.259   6.153
 8574POPC   C1A46371   9.017  36.105   6.453
 8574POPC   D2A46372   9.001  36.177   6.753
 8574POPC   C3A46373   8.975  36.090   7.053
 8574POPC   C4A46374   8.965  36.098   7.353
 8574POPC   C1B46375   9.137  36.299   6.453
 8574POPC   C2B46376   9.140  36.328   6.753
 8574POPC   C3B46377   9.090  36.354   7.053
 8574POPC   C4B46378   9.129  36.298   7.353
 8575POPC   NC346379  43.851   4.327   5.553
 8575POPC   PO446380  43.905   4.353   5.853
 8575POPC   GL146381  43.873   4.326   6.153
 8575POPC   GL246382  43.917   4.191   6.153
 8575POPC   C1A46383  43.897   4.301   6.453
 8575POPC   D2A46384  43.855   4.273   6.753
 8575POPC   C3A46385  43.892   4.273   7.053
 8575POPC   C4A46386  43.921   4.282   7.353
 8575POPC   C1B46387  44.022   4.151   6.453
 8575POPC   C2B46388  44.036   4.123   6.753
 8575POPC   C3B46389  44.036   4.092   7.053
 8575POPC   C4B46390  44.035   4.102   7.353
 8576POPC   NC346391  26.084   5.114   5.553
 8576POPC   PO446392  26.060   5.096   5.853
 8576POPC   GL146393  26.014   5.116   6.153
 8576POPC   GL246394  25.957   5.164   6.153
 8576POPC   C1A46395  26.034   5.068   6.453
 8576POPC   D2A46396  26.004   5.094   6.753
 8576POPC   C3A46397  26.046   5.045   7.053
 8576POPC   C4A46398  26.054   5.139   7.353
 8576POPC   C1B46399  25.783   5.212   6.453
 8576POPC   C2B46400  25.793   5.189   6.753
 8576POPC   C3B46401  25.827   5.176   7.053
 8576POPC   C4B46402  25.798   5.194   7.353
 8577POPC   NC346403  18.299  33.791   5.553
 8577POPC   PO446404  18.300  33.803   5.853
 8577POPC   GL146405  18.252  33.789   6.153
 8577POPC   GL246406  18.134  33.835   6.153
 8577POPC   C1A46407  18.236  33.753   6.453
 8577POPC   D2A46408  18.263  33.753   6.753
 8577POPC   C3A46409  18.307  33.844   7.053
 8577POPC   C4A46410  18.235  33.845   7.353
 8577POPC   C1B46411  18.058  33.779   6.453
 8577POPC   C2B46412  18.010  33.855   6.753
 8577POPC   C3B46413  18.063  33.791   7.053
 8577POPC   C4B46414  18.023  33.830   7.353
 8578POPC   NC346415  40.789  37.721   5.553
 8578POPC   PO446416  40.795  37.652   5.853
 8578POPC   GL146417  40.763  37.669   6.153
 8578POPC   GL246418  40.904  37.574   6.153
 8578POPC   C1A46419  40.794  37.643   6.453
 8578POPC   D2A46420  40.787  37.635   6.753
 8578POPC   C3A46421  40.827  37.696   7.053
 8578POPC   C4A46422  40.797  37.688   7.353
 8578POPC   C1B46423  40.968  37.467   6.453
 8578POPC   C2B46424  40.905  37.495   6.753
 8578POPC   C3B46425  40.991  37.481   7.053
 8578POPC   C4B46426  40.987  37.481   7.353
 8579POPC   NC346427   1.222  10.562   5.553
 8579POPC   PO446428   1.220  10.524   5.853
 8579POPC   GL146429   1.196  10.526   6.153
 8579POPC   GL246430   1.257  10.613   6.153
 8579POPC   C1A46431   1.196  10.493   6.453
 8579POPC   D2A46432   1.231  10.563   6.753
 8579POPC   C3A46433   1.195  10.487   7.053
 8579POPC   C4A46434   1.175  10.518   7.353
 8579POPC   C1B46435   1.286  10.821   6.453
 8579POPC   C2B46436   1.234  10.802   6.753
 8579POPC   C3B46437   1.255  10.813   7.053
 8579POPC   C4B46438   1.236  10.767   7.353
 8580POPC   NC346439   4.270  30.715   5.553
 8580POPC   PO446440   4.319  30.743   5.853
 8580POPC   GL146441   4.323  30.697   6.153
 8580POPC   GL246442   4.467  30.630   6.153
 8580POPC   C1A46443   4.344  30.703   6.453
 8580POPC   D2A46444   4.365  30.652   6.753
 8580POPC   C3A46445   4.310  30.701   7.053
 8580POPC   C4A46446   4.329  30.693   7.353
 8580POPC   C1B46447   4.561  30.562   6.453
 8580POPC   C2B46448   4.518  30.621   6.753
 8580POPC   C3B46449   4.549  30.569   7.053
 8580POPC   C4B46450   4.582  30.587   7.353
 8581POPC   NC346451  32.235  36.128   5.553
 8581POPC   PO446452  32.249  36.121   5.853
 8581POPC   GL146453  32.207  36.120   6.153
 8581POPC   GL246454  32.185  36.005   6.153
 8581POPC   C1A46455  32.244  36.163   6.453
 8581POPC   D2A46456  32.245  36.092   6.753
 8581POPC   C3A46457  32.270  36.119   7.053
 8581POPC   C4A46458  32.265  36.108   7.353
 8581POPC   C1B46459  32.175  35.904   6.453
 8581POPC   C2B46460  32.148  35.885   6.753
 8581POPC   C3B46461  32.184  35.886   7.053
 8581POPC   C4B46462  32.150  35.841   7.353
 8582POPC   NC346463  22.899   8.935   5.553
 8582POPC   PO446464  22.947   9.019   5.853
 8582POPC   GL146465  22.947   9.019   6.153
 8582POPC   GL246466  22.882   9.097   6.153
 8582POPC   C1A46467  22.943   8.945   6.453
 8582POPC   D2A46468  22.946   9.001   6.753
 8582POPC   C3A46469  22.919   9.017   7.053
 8582POPC   C4A46470  22.965   9.005   7.353
 8582POPC   C1B46471  22.893   9.188   6.453
 8582POPC   C2B46472  22.962   9.177   6.753
 8582POPC   C3B46473  22.917   9.210   7.053
 8582POPC   C4B46474  22.962   9.198   7.353
 8583POPC   NC346475  18.313  30.662   5.553
 8583POPC   PO446476  18.330  30.649   5.853
 8583POPC   GL146477  18.265  30.698   6.153
 8583POPC   GL246478  18.368  30.620   6.153
 8583POPC   C1A46479  18.282  30.657   6.453
 8583POPC   D2A46480  18.314  30.667   6.753
 8583POPC   C3A46481  18.304  30.674   7.053
 8583POPC   C4A46482  18.240  30.723   7.353
 8583POPC   C1B46483  18.528  30.659   6.453
 8583POPC   C2B46484  18.483  30.636   6.753
 8583POPC   C3B46485  18.553  30.612   7.053
 8583POPC   C4B46486  18.500  30.634   7.353
 8584POPC   NC346487  11.330  19.794   5.553
 8584POPC   PO446488  11.298  19.793   5.853
 8584POPC   GL146489  11.274  19.861   6.153
 8584POPC   GL246490  11.420  19.816   6.153
 8584POPC   C1A46491  11.267  19.876   6.453
 8584POPC   D2A46492  11.279  19.866   6.753
 8584POPC   C3A46493  11.290  19.874   7.053
 8584POPC   C4A46494  11.262  19.804   7.353
 8584POPC   C1B46495  11.571  19.813   6.453
 8584POPC   C2B46496  11.523  19.801   6.753
 8584POPC   C3B46497  11.532  19.774   7.053
 8584POPC   C4B46498  11.512  19.761   7.353
 8585POPC   NC346499  37.632  15.148   5.553
 8585POPC   PO446500  37.643  15.184   5.853
 8585POPC   GL146501  37.639  15.180   6.153
 8585POPC   GL246502  37.628  15.242   6.153
 8585POPC   C1A46503  37.688  15.218   6.453
 8585POPC   D2A46504  37.712  15.213   6.753
 8585POPC   C3A46505  37.639  15.166   7.053
 8585POPC   C4A46506  37.632  15.180   7.353
 8585POPC   C1B46507  37.452  15.347   6.453
 8585POPC   C2B46508  37.456  15.336   6.753
 8585POPC   C3B46509  37.505  15.355   7.053
 8585POPC   C4B46510  37.546  15.322   7.353
 8586POPC   NC346511   4.332   1.180   5.553
 8586POPC   PO446512   4.353   1.231   5.853
 8586POPC   GL146513   4.285   1.199   6.153
 8586POPC   GL246514   4.357   1.360   6.153
 8586POPC   C1A46515   4.303   1.181   6.453
 8586POPC   D2A46516   4.361   1.197   6.753
 8586POPC   C3A46517   4.329   1.260   7.053
 8586POPC   C4A46518   4.281   1.232   7.353
 8586POPC   C1B46519   4.314   1.494   6.453
 8586POPC   C2B46520   4.366   1.454   6.753
 8586POPC   C3B46521   4.350   1.419   7.053
 8586POPC   C4B46522   4.300   1.483   7.353
 8587POPC   NC346523  24.517  29.920   5.553
 8587POPC   PO446524  24.499  29.880   5.853
 8587POPC   GL146525  24.476  29.970   6.153
 8587POPC   GL246526  24.397  30.050   6.153
 8587POPC   C1A46527  24.525  29.910   6.453
 8587POPC   D2A46528  24.449  29.889   6.753
 8587POPC   C3A46529  24.488  29.928   7.053
 8587POPC   C4A46530  24.518  29.965   7.353
 8587POPC   C1B46531  24.271  30.089   6.453
 8587POPC   C2B46532  24.298  30.154   6.753
 8587POPC   C3B46533  24.283  30.153   7.053
 8587POPC   C4B46534  24.308  30.087   7.353
 8588POPC   NC346535  22.933  29.953   5.553
 8588POPC   PO446536  22.925  29.892   5.853
 8588POPC   GL146537  22.947  29.914   6.153
 8588POPC   GL246538  22.914  30.010   6.153
 8588POPC   C1A46539  22.933  29.917   6.453
 8588POPC   D2A46540  22.951  29.937   6.753
 8588POPC   C3A46541  22.950  29.920   7.053
 8588POPC   C4A46542  22.961  29.916   7.353
 8588POPC   C1B46543  22.957  30.218   6.453
 8588POPC   C2B46544  22.943  30.158   6.753
 8588POPC   C3B46545  22.999  30.212   7.053
 8588POPC   C4B46546  22.980  30.182   7.353
 8589POPC   NC346547   5.903  36.950   5.553
 8589POPC   PO446548   5.836  36.880   5.853
 8589POPC   GL146549   5.839  36.917   6.153
 8589POPC   GL246550   5.925  36.945   6.153
 8589POPC   C1A46551   5.844  36.862   6.453
 8589POPC   D2A46552   5.854  36.932   6.753
 8589POPC   C3A46553   5.902  36.905   7.053
 8589POPC   C4A46554   5.844  36.935   7.353
 8589POPC   C1B46555   6.088  37.119   6.453
 8589POPC   C2B46556   6.039  37.028   6.753
 8589POPC   C3B46557   6.049  37.038   7.053
 8589POPC   C4B46558   6.048  37.049   7.353
 8590POPC   NC346559  39.260   7.404   5.553
 8590POPC   PO446560  39.280   7.418   5.853
 8590POPC   GL146561  39.212   7.449   6.153
 8590POPC   GL246562  39.185   7.511   6.153
 8590POPC   C1A46563  39.213   7.427   6.453
 8590POPC   D2A46564  39.228   7.399   6.753
 8590POPC   C3A46565  39.239   7.437   7.053
 8590POPC   C4A46566  39.187   7.381   7.353
 8590POPC   C1B46567  39.232   7.714   6.453
 8590POPC   C2B46568  39.217   7.624   6.753
 8590POPC   C3B46569  39.183   7.640   7.053
 8590POPC   C4B46570  39.260   7.694   7.353
 8591POPC   NC346571  33.068  25.222   5.553
 8591POPC   PO446572  32.985  25.303   5.853
 8591POPC   GL146573  33.061  25.259   6.153
 8591POPC   GL246574  32.988  25.196   6.153
 8591POPC   C1A46575  33.027  25.239   6.453
 8591POPC   D2A46576  33.040  25.257   6.753
 8591POPC   C3A46577  32.995  25.306   7.053
 8591POPC   C4A46578  33.042  25.267   7.353
 8591POPC   C1B46579  32.829  25.053   6.453
 8591POPC   C2B46580  32.873  25.042   6.753
 8591POPC   C3B46581  32.813  25.052   7.053
 8591POPC   C4B46582  32.812  25.073   7.353
 8592POPC   NC346583   5.086  28.322   5.553
 8592POPC   PO446584   5.105  28.352   5.853
 8592POPC   GL146585   5.044  28.394   6.153
 8592POPC   GL246586   4.979  28.404   6.153
 8592POPC   C1A46587   5.066  28.336   6.453
 8592POPC   D2A46588   5.088  28.370   6.753
 8592POPC   C3A46589   5.068  28.407   7.053
 8592POPC   C4A46590   5.130  28.348   7.353
 8592POPC   C1B46591   4.822  28.401   6.453
 8592POPC   C2B46592   4.832  28.442   6.753
 8592POPC   C3B46593   4.866  28.397   7.053
 8592POPC   C4B46594   4.870  28.480   7.353
 8593POPC   NC346595   7.374  20.606   5.553
 8593POPC   PO446596   7.452  20.586   5.853
 8593POPC   GL146597   7.397  20.582   6.153
 8593POPC   GL246598   7.425  20.491   6.153
 8593POPC   C1A46599   7.462  20.628   6.453
 8593POPC   D2A46600   7.438  20.644   6.753
 8593POPC   C3A46601   7.413  20.601   7.053
 8593POPC   C4A46602   7.422  20.613   7.353
 8593POPC   C1B46603   7.452  20.363   6.453
 8593POPC   C2B46604   7.433  20.392   6.753
 8593POPC   C3B46605   7.382  20.382   7.053
 8593POPC   C4B46606   7.401  20.317   7.353
 8594POPC   NC346607   4.365  35.381   5.553
 8594POPC   PO446608   4.345  35.400   5.853
 8594POPC   GL146609   4.288  35.313   6.153
 8594POPC   GL246610   4.183  35.416   6.153
 8594POPC   C1A46611   4.353  35.359   6.453
 8594POPC   D2A46612   4.314  35.318   6.753
 8594POPC   C3A46613   4.307  35.379   7.053
 8594POPC   C4A46614   4.306  35.394   7.353
 8594POPC   C1B46615   4.124  35.530   6.453
 8594POPC   C2B46616   4.099  35.485   6.753
 8594POPC   C3B46617   4.138  35.451   7.053
 8594POPC   C4B46618   4.101  35.480   7.353
 8595POPC   NC346619  34.606  22.893   5.553
 8595POPC   PO446620  34.567  22.892   5.853
 8595POPC   GL146621  34.557  22.908   6.153
 8595POPC   GL246622  34.500  23.071   6.153
 8595POPC   C1A46623  34.578  22.895   6.453
 8595POPC   D2A46624  34.599  22.922   6.753
 8595POPC   C3A46625  34.600  22.979   7.053
 8595POPC   C4A46626  34.596  22.902   7.353
 8595POPC   C1B46627  34.483  23.193   6.453
 8595POPC   C2B46628  34.429  23.169   6.753
 8595POPC   C3B46629  34.426  23.182   7.053
 8595POPC   C4B46630  34.442  23.129   7.353
 8596POPC   NC346631   5.062   2.803   5.553
 8596POPC   PO446632   5.056   2.754   5.853
 8596POPC   GL146633   5.055   2.738   6.153
 8596POPC   GL246634   5.218   2.665   6.153
 8596POPC   C1A46635   5.052   2.752   6.453
 8596POPC   D2A46636   5.126   2.791   6.753
 8596POPC   C3A46637   5.045   2.771   7.053
 8596POPC   C4A46638   5.074   2.747   7.353
 8596POPC   C1B46639   5.324   2.607   6.453
 8596POPC   C2B46640   5.336   2.649   6.753
 8596POPC   C3B46641   5.300   2.642   7.053
 8596POPC   C4B46642   5.319   2.617   7.353
 8597POPC   NC346643   1.234  21.391   5.553
 8597POPC   PO446644   1.253  21.364   5.853
 8597POPC   GL146645   1.180  21.417   6.153
 8597POPC   GL246646   1.249  21.214   6.153
 8597POPC   C1A46647   1.182  21.385   6.453
 8597POPC   D2A46648   1.218  21.352   6.753
 8597POPC   C3A46649   1.197  21.411   7.053
 8597POPC   C4A46650   1.176  21.339   7.353
 8597POPC   C1B46651   1.216  21.161   6.453
 8597POPC   C2B46652   1.259  21.138   6.753
 8597POPC   C3B46653   1.210  21.092   7.053
 8597POPC   C4B46654   1.263  21.181   7.353
 8598POPC   NC346655  29.177   5.861   5.553
 8598POPC   PO446656  29.154   5.835   5.853
 8598POPC   GL146657  29.126   5.913   6.153
 8598POPC   GL246658  29.268   5.825   6.153
 8598POPC   C1A46659  29.113   5.852   6.453
 8598POPC   D2A46660  29.195   5.909   6.753
 8598POPC   C3A46661  29.180   5.845   7.053
 8598POPC   C4A46662  29.132   5.830   7.353
 8598POPC   C1B46663  29.368   5.804   6.453
 8598POPC   C2B46664  29.333   5.781   6.753
 8598POPC   C3B46665  29.333   5.799   7.053
 8598POPC   C4B46666  29.325   5.749   7.353
 8599POPC   NC346667  22.891  43.115   5.553
 8599POPC   PO446668  22.929  43.128   5.853
 8599POPC   GL146669  22.965  43.081   6.153
 8599POPC   GL246670  22.807  43.160   6.153
 8599POPC   C1A46671  22.958  43.094   6.453
 8599POPC   D2A46672  22.926  43.074   6.753
 8599POPC   C3A46673  22.902  43.076   7.053
 8599POPC   C4A46674  22.897  43.128   7.353
 8599POPC   C1B46675  22.747  43.314   6.453
 8599POPC   C2B46676  22.798  43.296   6.753
 8599POPC   C3B46677  22.808  43.286   7.053
 8599POPC   C4B46678  22.779  43.299   7.353
 8600POPC   NC346679   6.684  21.337   5.553
 8600POPC   PO446680   6.630  21.355   5.853
 8600POPC   GL146681   6.681  21.391   6.153
 8600POPC   GL246682   6.630  21.513   6.153
 8600POPC   C1A46683   6.676  21.410   6.453
 8600POPC   D2A46684   6.613  21.428   6.753
 8600POPC   C3A46685   6.607  21.395   7.053
 8600POPC   C4A46686   6.608  21.374   7.353
 8600POPC   C1B46687   6.552  21.646   6.453
 8600POPC   C2B46688   6.587  21.581   6.753
 8600POPC   C3B46689   6.568  21.647   7.053
 8600POPC   C4B46690   6.497  21.647   7.353
 8601POPC   NC346691  36.932  27.601   5.553
 8601POPC   PO446692  36.871  27.642   5.853
 8601POPC   GL146693  36.880  27.584   6.153
 8601POPC   GL246694  36.792  27.689   6.153
 8601POPC   C1A46695  36.895  27.598   6.453
 8601POPC   D2A46696  36.914  27.620   6.753
 8601POPC   C3A46697  36.876  27.587   7.053
 8601POPC   C4A46698  36.869  27.617   7.353
 8601POPC   C1B46699  36.629  27.682   6.453
 8601POPC   C2B46700  36.654  27.703   6.753
 8601POPC   C3B46701  36.641  27.667   7.053
 8601POPC   C4B46702  36.703  27.735   7.353
 8602POPC   NC346703  24.472   6.608   5.553
 8602POPC   PO446704  24.493   6.684   5.853
 8602POPC   GL146705  24.444   6.659   6.153
 8602POPC   GL246706  24.549   6.806   6.153
 8602POPC   C1A46707  24.464   6.671   6.453
 8602POPC   D2A46708  24.527   6.693   6.753
 8602POPC   C3A46709  24.504   6.676   7.053
 8602POPC   C4A46710  24.440   6.660   7.353
 8602POPC   C1B46711  24.535   6.895   6.453
 8602POPC   C2B46712  24.498   6.849   6.753
 8602POPC   C3B46713  24.571   6.903   7.053
 8602POPC   C4B46714  24.537   6.891   7.353
 8603POPC   NC346715  39.217  25.312   5.553
 8603POPC   PO446716  39.218  25.307   5.853
 8603POPC   GL146717  39.262  25.225   6.153
 8603POPC   GL246718  39.343  25.232   6.153
 8603POPC   C1A46719  39.204  25.220   6.453
 8603POPC   D2A46720  39.208  25.271   6.753
 8603POPC   C3A46721  39.197  25.217   7.053
 8603POPC   C4A46722  39.203  25.293   7.353
 8603POPC   C1B46723  39.424  25.162   6.453
 8603POPC   C2B46724  39.396  25.135   6.753
 8603POPC   C3B46725  39.470  25.179   7.053
 8603POPC   C4B46726  39.417  25.153   7.353
 8604POPC   NC346727  36.138  14.357   5.553
 8604POPC   PO446728  36.163  14.361   5.853
 8604POPC   GL146729  36.103  14.367   6.153
 8604POPC   GL246730  35.981  14.374   6.153
 8604POPC   C1A46731  36.168  14.414   6.453
 8604POPC   D2A46732  36.174  14.414   6.753
 8604POPC   C3A46733  36.118  14.433   7.053
 8604POPC   C4A46734  36.148  14.388   7.353
 8604POPC   C1B46735  35.943  14.311   6.453
 8604POPC   C2B46736  35.953  14.269   6.753
 8604POPC   C3B46737  35.866  14.287   7.053
 8604POPC   C4B46738  35.910  14.236   7.353
 8605POPC   NC346739   5.888  35.389   5.553
 8605POPC   PO446740   5.891  35.309   5.853
 8605POPC   GL146741   5.881  35.326   6.153
 8605POPC   GL246742   5.895  35.511   6.153
 8605POPC   C1A46743   5.877  35.380   6.453
 8605POPC   D2A46744   5.864  35.353   6.753
 8605POPC   C3A46745   5.895  35.342   7.053
 8605POPC   C4A46746   5.863  35.398   7.353
 8605POPC   C1B46747   5.907  35.609   6.453
 8605POPC   C2B46748   5.904  35.601   6.753
 8605POPC   C3B46749   5.929  35.639   7.053
 8605POPC   C4B46750   5.926  35.559   7.353
 8606POPC   NC346751  10.543  27.548   5.553
 8606POPC   PO446752  10.520  27.613   5.853
 8606POPC   GL146753  10.541  27.635   6.153
 8606POPC   GL246754  10.484  27.680   6.153
 8606POPC   C1A46755  10.484  27.563   6.453
 8606POPC   D2A46756  10.486  27.605   6.753
 8606POPC   C3A46757  10.524  27.563   7.053
 8606POPC   C4A46758  10.479  27.597   7.353
 8606POPC   C1B46759  10.426  27.837   6.453
 8606POPC   C2B46760  10.390  27.853   6.753
 8606POPC   C3B46761  10.384  27.846   7.053
 8606POPC   C4B46762  10.436  27.759   7.353
 8607POPC   NC346763  11.253  44.692   5.553
 8607POPC   PO446764  11.257  44.675   5.853
 8607POPC   GL146765  11.327  44.623   6.153
 8607POPC   GL246766  11.266  44.570   6.153
 8607POPC   C1A46767  11.286  44.621   6.453
 8607POPC   D2A46768  11.267  44.694   6.753
 8607POPC   C3A46769  11.324  44.667   7.053
 8607POPC   C4A46770  11.254  44.654   7.353
 8607POPC   C1B46771  11.253  44.404   6.453
 8607POPC   C2B46772  11.282  44.400   6.753
 8607POPC   C3B46773  11.295  44.427   7.053
 8607POPC   C4B46774  11.238  44.389   7.353
 8608POPC   NC346775  33.754  37.700   5.553
 8608POPC   PO446776  33.817  37.659   5.853
 8608POPC   GL146777  33.813  37.654   6.153
 8608POPC   GL246778  33.872  37.768   6.153
 8608POPC   C1A46779  33.780  37.713   6.453
 8608POPC   D2A46780  33.842  37.667   6.753
 8608POPC   C3A46781  33.847  37.657   7.053
 8608POPC   C4A46782  33.809  37.638   7.353
 8608POPC   C1B46783  33.986  37.830   6.453
 8608POPC   C2B46784  34.063  37.799   6.753
 8608POPC   C3B46785  33.992  37.741   7.053
 8608POPC   C4B46786  34.043  37.816   7.353
 8609POPC   NC346787   8.239   1.974   5.553
 8609POPC   PO446788   8.229   1.989   5.853
 8609POPC   GL146789   8.215   1.943   6.153
 8609POPC   GL246790   8.094   1.983   6.153
 8609POPC   C1A46791   8.211   2.034   6.453
 8609POPC   D2A46792   8.226   2.020   6.753
 8609POPC   C3A46793   8.199   1.958   7.053
 8609POPC   C4A46794   8.183   2.023   7.353
 8609POPC   C1B46795   7.993   1.936   6.453
 8609POPC   C2B46796   7.925   1.943   6.753
 8609POPC   C3B46797   7.919   1.950   7.053
 8609POPC   C4B46798   7.963   1.954   7.353
 8610POPC   NC346799   4.302  15.928   5.553
 8610POPC   PO446800   4.298  15.908   5.853
 8610POPC   GL146801   4.295  15.952   6.153
 8610POPC   GL246802   4.226  16.035   6.153
 8610POPC   C1A46803   4.318  15.943   6.453
 8610POPC   D2A46804   4.289  16.003   6.753
 8610POPC   C3A46805   4.336  15.956   7.053
 8610POPC   C4A46806   4.280  15.969   7.353
 8610POPC   C1B46807   4.175  16.164   6.453
 8610POPC   C2B46808   4.150  16.089   6.753
 8610POPC   C3B46809   4.117  16.148   7.053
 8610POPC   C4B46810   4.180  16.142   7.353
 8611POPC   NC346811  26.023  33.799   5.553
 8611POPC   PO446812  26.036  33.772   5.853
 8611POPC   GL146813  26.081  33.835   6.153
 8611POPC   GL246814  25.976  33.696   6.153
 8611POPC   C1A46815  26.035  33.827   6.453
 8611POPC   D2A46816  25.996  33.770   6.753
 8611POPC   C3A46817  26.085  33.773   7.053
 8611POPC   C4A46818  26.063  33.834   7.353
 8611POPC   C1B46819  25.892  33.607   6.453
 8611POPC   C2B46820  25.850  33.580   6.753
 8611POPC   C3B46821  25.921  33.614   7.053
 8611POPC   C4B46822  25.859  33.639   7.353
 8612POPC   NC346823  39.249   3.560   5.553
 8612POPC   PO446824  39.262   3.548   5.853
 8612POPC   GL146825  39.184   3.561   6.153
 8612POPC   GL246826  39.279   3.617   6.153
 8612POPC   C1A46827  39.251   3.549   6.453
 8612POPC   D2A46828  39.207   3.504   6.753
 8612POPC   C3A46829  39.252   3.504   7.053
 8612POPC   C4A46830  39.240   3.559   7.353
 8612POPC   C1B46831  39.419   3.680   6.453
 8612POPC   C2B46832  39.440   3.668   6.753
 8612POPC   C3B46833  39.393   3.656   7.053
 8612POPC   C4B46834  39.408   3.713   7.353
 8613POPC   NC346835  11.346  41.558   5.553
 8613POPC   PO446836  11.308  41.541   5.853
 8613POPC   GL146837  11.276  41.606   6.153
 8613POPC   GL246838  11.425  41.536   6.153
 8613POPC   C1A46839  11.329  41.531   6.453
 8613POPC   D2A46840  11.276  41.564   6.753
 8613POPC   C3A46841  11.294  41.537   7.053
 8613POPC   C4A46842  11.294  41.570   7.353
 8613POPC   C1B46843  11.509  41.571   6.453
 8613POPC   C2B46844  11.569  41.563   6.753
 8613POPC   C3B46845  11.591  41.601   7.053
 8613POPC   C4B46846  11.517  41.596   7.353
 8614POPC   NC346847  39.225  28.371   5.553
 8614POPC   PO446848  39.194  28.380   5.853
 8614POPC   GL146849  39.208  28.374   6.153
 8614POPC   GL246850  39.373  28.419   6.153
 8614POPC   C1A46851  39.194  28.383   6.453
 8614POPC   D2A46852  39.214  28.362   6.753
 8614POPC   C3A46853  39.190  28.382   7.053
 8614POPC   C4A46854  39.200  28.382   7.353
 8614POPC   C1B46855  39.482  28.411   6.453
 8614POPC   C2B46856  39.506  28.418   6.753
 8614POPC   C3B46857  39.441  28.393   7.053
 8614POPC   C4B46858  39.518  28.408   7.353
 8615POPC   NC346859  29.871  30.677   5.553
 8615POPC   PO446860  29.914  30.655   5.853
 8615POPC   GL146861  29.871  30.709   6.153
 8615POPC   GL246862  30.018  30.613   6.153
 8615POPC   C1A46863  29.904  30.709   6.453
 8615POPC   D2A46864  29.903  30.692   6.753
 8615POPC   C3A46865  29.890  30.689   7.053
 8615POPC   C4A46866  29.947  30.728   7.353
 8615POPC   C1B46867  30.028  30.458   6.453
 8615POPC   C2B46868  30.007  30.518   6.753
 8615POPC   C3B46869  30.045  30.428   7.053
 8615POPC   C4B46870  30.078  30.525   7.353
 8616POPC   NC346871   2.717  12.048   5.553
 8616POPC   PO446872   2.794  12.065   5.853
 8616POPC   GL146873   2.763  12.083   6.153
 8616POPC   GL246874   2.736  11.929   6.153
 8616POPC   C1A46875   2.745  12.101   6.453
 8616POPC   D2A46876   2.794  12.049   6.753
 8616POPC   C3A46877   2.753  12.050   7.053
 8616POPC   C4A46878   2.811  12.096   7.353
 8616POPC   C1B46879   2.768  11.860   6.453
 8616POPC   C2B46880   2.778  11.837   6.753
 8616POPC   C3B46881   2.711  11.861   7.053
 8616POPC   C4B46882   2.782  11.862   7.353
 8617POPC   NC346883  18.250   0.396   5.553
 8617POPC   PO446884  18.292   0.397   5.853
 8617POPC   GL146885  18.328   0.417   6.153
 8617POPC   GL246886  18.218   0.284   6.153
 8617POPC   C1A46887  18.296   0.486   6.453
 8617POPC   D2A46888  18.277   0.471   6.753
 8617POPC   C3A46889  18.239   0.444   7.053
 8617POPC   C4A46890  18.291   0.408   7.353
 8617POPC   C1B46891  18.193   0.215   6.453
 8617POPC   C2B46892  18.153   0.221   6.753
 8617POPC   C3B46893  18.186   0.263   7.053
 8617POPC   C4B46894  18.130   0.180   7.353
 8618POPC   NC346895   7.388  29.955   5.553
 8618POPC   PO446896   7.434  29.918   5.853
 8618POPC   GL146897   7.423  29.947   6.153
 8618POPC   GL246898   7.506  29.958   6.153
 8618POPC   C1A46899   7.384  29.874   6.453
 8618POPC   D2A46900   7.398  29.930   6.753
 8618POPC   C3A46901   7.371  29.895   7.053
 8618POPC   C4A46902   7.460  29.951   7.353
 8618POPC   C1B46903   7.626  29.996   6.453
 8618POPC   C2B46904   7.674  29.953   6.753
 8618POPC   C3B46905   7.700  29.969   7.053
 8618POPC   C4B46906   7.699  29.947   7.353
 8619POPC   NC346907  19.846   8.237   5.553
 8619POPC   PO446908  19.813   8.164   5.853
 8619POPC   GL146909  19.846   8.229   6.153
 8619POPC   GL246910  19.857   8.356   6.153
 8619POPC   C1A46911  19.802   8.196   6.453
 8619POPC   D2A46912  19.786   8.200   6.753
 8619POPC   C3A46913  19.874   8.201   7.053
 8619POPC   C4A46914  19.797   8.151   7.353
 8619POPC   C1B46915  19.935   8.463   6.453
 8619POPC   C2B46916  19.880   8.452   6.753
 8619POPC   C3B46917  19.917   8.392   7.053
 8619POPC   C4B46918  19.934   8.416   7.353
 8620POPC   NC346919  26.067   4.366   5.553
 8620POPC   PO446920  26.057   4.361   5.853
 8620POPC   GL146921  26.051   4.321   6.153
 8620POPC   GL246922  26.076   4.449   6.153
 8620POPC   C1A46923  26.090   4.321   6.453
 8620POPC   D2A46924  26.064   4.325   6.753
 8620POPC   C3A46925  26.036   4.268   7.053
 8620POPC   C4A46926  26.051   4.307   7.353
 8620POPC   C1B46927  26.202   4.534   6.453
 8620POPC   C2B46928  26.160   4.494   6.753
 8620POPC   C3B46929  26.193   4.573   7.053
 8620POPC   C4B46930  26.168   4.528   7.353
 8621POPC   NC346931  30.702  17.519   5.553
 8621POPC   PO446932  30.715  17.518   5.853
 8621POPC   GL146933  30.671  17.514   6.153
 8621POPC   GL246934  30.828  17.556   6.153
 8621POPC   C1A46935  30.691  17.528   6.453
 8621POPC   D2A46936  30.702  17.547   6.753
 8621POPC   C3A46937  30.700  17.467   7.053
 8621POPC   C4A46938  30.700  17.526   7.353
 8621POPC   C1B46939  30.916  17.599   6.453
 8621POPC   C2B46940  30.878  17.624   6.753
 8621POPC   C3B46941  30.924  17.586   7.053
 8621POPC   C4B46942  30.876  17.576   7.353
 8622POPC   NC346943  37.693   9.744   5.553
 8622POPC   PO446944  37.647   9.796   5.853
 8622POPC   GL146945  37.690   9.796   6.153
 8622POPC   GL246946  37.798   9.802   6.153
 8622POPC   C1A46947  37.708   9.764   6.453
 8622POPC   D2A46948  37.662   9.772   6.753
 8622POPC   C3A46949  37.631   9.742   7.053
 8622POPC   C4A46950  37.698   9.744   7.353
 8622POPC   C1B46951  37.908   9.828   6.453
 8622POPC   C2B46952  37.952   9.869   6.753
 8622POPC   C3B46953  37.948   9.824   7.053
 8622POPC   C4B46954  37.890   9.885   7.353
 8623POPC   NC346955  37.648   8.246   5.553
 8623POPC   PO446956  37.695   8.158   5.853
 8623POPC   GL146957  37.693   8.224   6.153
 8623POPC   GL246958  37.582   8.120   6.153
 8623POPC   C1A46959  37.706   8.174   6.453
 8623POPC   D2A46960  37.634   8.154   6.753
 8623POPC   C3A46961  37.722   8.165   7.053
 8623POPC   C4A46962  37.707   8.197   7.353
 8623POPC   C1B46963  37.426   8.021   6.453
 8623POPC   C2B46964  37.431   8.023   6.753
 8623POPC   C3B46965  37.482   8.093   7.053
 8623POPC   C4B46966  37.492   8.095   7.353
 8624POPC   NC346967   3.558   7.449   5.553
 8624POPC   PO446968   3.510   7.384   5.853
 8624POPC   GL146969   3.515   7.462   6.153
 8624POPC   GL246970   3.431   7.404   6.153
 8624POPC   C1A46971   3.571   7.379   6.453
 8624POPC   D2A46972   3.526   7.453   6.753
 8624POPC   C3A46973   3.538   7.386   7.053
 8624POPC   C4A46974   3.526   7.382   7.353
 8624POPC   C1B46975   3.300   7.427   6.453
 8624POPC   C2B46976   3.276   7.411   6.753
 8624POPC   C3B46977   3.259   7.425   7.053
 8624POPC   C4B46978   3.270   7.466   7.353
 8625POPC   NC346979  36.120  38.456   5.553
 8625POPC   PO446980  36.092  38.412   5.853
 8625POPC   GL146981  36.079  38.479   6.153
 8625POPC   GL246982  36.166  38.343   6.153
 8625POPC   C1A46983  36.085  38.455   6.453
 8625POPC   D2A46984  36.158  38.488   6.753
 8625POPC   C3A46985  36.163  38.410   7.053
 8625POPC   C4A46986  36.126  38.469   7.353
 8625POPC   C1B46987  36.283  38.232   6.453
 8625POPC   C2B46988  36.299  38.235   6.753
 8625POPC   C3B46989  36.306  38.203   7.053
 8625POPC   C4B46990  36.263  38.290   7.353
 8626POPC   NC346991   7.394   1.179   5.553
 8626POPC   PO446992   7.445   1.219   5.853
 8626POPC   GL146993   7.450   1.164   6.153
 8626POPC   GL246994   7.349   1.274   6.153
 8626POPC   C1A46995   7.433   1.182   6.453
 8626POPC   D2A46996   7.416   1.167   6.753
 8626POPC   C3A46997   7.470   1.192   7.053
 8626POPC   C4A46998   7.422   1.231   7.353
 8626POPC   C1B46999   7.310   1.454   6.453
 8626POPC   C2B47000   7.315   1.383   6.753
 8626POPC   C3B47001   7.295   1.393   7.053
 8626POPC   C4B47002   7.311   1.424   7.353
 8627POPC   NC347003  34.566  39.228   5.553
 8627POPC   PO447004  34.624  39.257   5.853
 8627POPC   GL147005  34.585  39.270   6.153
 8627POPC   GL247006  34.615  39.109   6.153
 8627POPC   C1A47007  34.575  39.203   6.453
 8627POPC   D2A47008  34.593  39.254   6.753
 8627POPC   C3A47009  34.589  39.233   7.053
 8627POPC   C4A47010  34.575  39.214   7.353
 8627POPC   C1B47011  34.742  39.032   6.453
 8627POPC   C2B47012  34.677  38.997   6.753
 8627POPC   C3B47013  34.737  38.971   7.053
 8627POPC   C4B47014  34.735  39.007   7.353
 8628POPC   NC347015  19.880   7.431   5.553
 8628POPC   PO447016  19.851   7.396   5.853
 8628POPC   GL147017  19.808   7.428   6.153
 8628POPC   GL247018  19.958   7.450   6.153
 8628POPC   C1A47019  19.834   7.443   6.453
 8628POPC   D2A47020  19.873   7.386   6.753
 8628POPC   C3A47021  19.803   7.387   7.053
 8628POPC   C4A47022  19.877   7.451   7.353
 8628POPC   C1B47023  20.053   7.481   6.453
 8628POPC   C2B47024  20.026   7.571   6.753
 8628POPC   C3B47025  20.029   7.543   7.053
 8628POPC   C4B47026  20.018   7.550   7.353
 8629POPC   NC347027  40.770  35.349   5.553
 8629POPC   PO447028  40.768  35.322   5.853
 8629POPC   GL147029  40.821  35.323   6.153
 8629POPC   GL247030  40.840  35.444   6.153
 8629POPC   C1A47031  40.794  35.374   6.453
 8629POPC   D2A47032  40.806  35.307   6.753
 8629POPC   C3A47033  40.810  35.326   7.053
 8629POPC   C4A47034  40.780  35.312   7.353
 8629POPC   C1B47035  40.898  35.576   6.453
 8629POPC   C2B47036  40.889  35.577   6.753
 8629POPC   C3B47037  40.908  35.564   7.053
 8629POPC   C4B47038  40.940  35.612   7.353
 8630POPC   NC347039  23.754  43.887   5.553
 8630POPC   PO447040  23.739  43.863   5.853
 8630POPC   GL147041  23.714  43.916   6.153
 8630POPC   GL247042  23.730  44.006   6.153
 8630POPC   C1A47043  23.665  43.852   6.453
 8630POPC   D2A47044  23.677  43.872   6.753
 8630POPC   C3A47045  23.696  43.876   7.053
 8630POPC   C4A47046  23.722  43.895   7.353
 8630POPC   C1B47047  23.860  44.079   6.453
 8630POPC   C2B47048  23.884  44.061   6.753
 8630POPC   C3B47049  23.820  44.107   7.053
 8630POPC   C4B47050  23.835  44.147   7.353
 8631POPC   NC347051  10.490  18.262   5.553
 8631POPC   PO447052  10.490  18.269   5.853
 8631POPC   GL147053  10.499  18.293   6.153
 8631POPC   GL247054  10.460  18.381   6.153
 8631POPC   C1A47055  10.490  18.285   6.453
 8631POPC   D2A47056  10.544  18.235   6.753
 8631POPC   C3A47057  10.552  18.290   7.053
 8631POPC   C4A47058  10.485  18.253   7.353
 8631POPC   C1B47059  10.327  18.392   6.453
 8631POPC   C2B47060  10.264  18.387   6.753
 8631POPC   C3B47061  10.285  18.413   7.053
 8631POPC   C4B47062  10.265  18.386   7.353
 8632POPC   NC347063   5.840  27.555   5.553
 8632POPC   PO447064   5.866  27.562   5.853
 8632POPC   GL147065   5.917  27.587   6.153
 8632POPC   GL247066   5.790  27.497   6.153
 8632POPC   C1A47067   5.894  27.586   6.453
 8632POPC   D2A47068   5.832  27.608   6.753
 8632POPC   C3A47069   5.904  27.571   7.053
 8632POPC   C4A47070   5.885  27.617   7.353
 8632POPC   C1B47071   5.808  27.371   6.453
 8632POPC   C2B47072   5.812  27.388   6.753
 8632POPC   C3B47073   5.779  27.326   7.053
 8632POPC   C4B47074   5.756  27.380   7.353
 8633POPC   NC347075  12.111  17.459   5.553
 8633POPC   PO447076  12.089  17.462   5.853
 8633POPC   GL147077  12.099  17.491   6.153
 8633POPC   GL247078  12.141  17.381   6.153
 8633POPC   C1A47079  12.045  17.467   6.453
 8633POPC   D2A47080  12.049  17.487   6.753
 8633POPC   C3A47081  12.070  17.508   7.053
 8633POPC   C4A47082  12.060  17.511   7.353
 8633POPC   C1B47083  12.126  17.250   6.453
 8633POPC   C2B47084  12.118  17.231   6.753
 8633POPC   C3B47085  12.144  17.227   7.053
 8633POPC   C4B47086  12.167  17.213   7.353
 8634POPC   NC347087   0.474  22.968   5.553
 8634POPC   PO447088   0.448  22.924   5.853
 8634POPC   GL147089   0.401  22.924   6.153
 8634POPC   GL247090   0.396  23.052   6.153
 8634POPC   C1A47091   0.400  22.972   6.453
 8634POPC   D2A47092   0.430  22.950   6.753
 8634POPC   C3A47093   0.435  22.904   7.053
 8634POPC   C4A47094   0.465  22.982   7.353
 8634POPC   C1B47095   0.360  23.113   6.453
 8634POPC   C2B47096   0.271  23.177   6.753
 8634POPC   C3B47097   0.346  23.151   7.053
 8634POPC   C4B47098   0.323  23.163   7.353
 8635POPC   NC347099   8.991  26.089   5.553
 8635POPC   PO447100   9.010  26.001   5.853
 8635POPC   GL147101   8.992  26.070   6.153
 8635POPC   GL247102   9.005  26.132   6.153
 8635POPC   C1A47103   8.946  26.082   6.453
 8635POPC   D2A47104   8.945  26.050   6.753
 8635POPC   C3A47105   9.021  26.078   7.053
 8635POPC   C4A47106   8.992  26.026   7.353
 8635POPC   C1B47107   9.028  26.300   6.453
 8635POPC   C2B47108   9.088  26.249   6.753
 8635POPC   C3B47109   9.004  26.262   7.053
 8635POPC   C4B47110   9.009  26.252   7.353
 8636POPC   NC347111  19.031  26.860   5.553
 8636POPC   PO447112  19.093  26.768   5.853
 8636POPC   GL147113  19.057  26.849   6.153
 8636POPC   GL247114  18.946  26.712   6.153
 8636POPC   C1A47115  19.098  26.773   6.453
 8636POPC   D2A47116  19.040  26.773   6.753
 8636POPC   C3A47117  19.014  26.858   7.053
 8636POPC   C4A47118  19.045  26.844   7.353
 8636POPC   C1B47119  18.891  26.587   6.453
 8636POPC   C2B47120  18.915  26.630   6.753
 8636POPC   C3B47121  18.858  26.619   7.053
 8636POPC   C4B47122  18.915  26.667   7.353
 8637POPC   NC347123  25.252   0.458   5.553
 8637POPC   PO447124  25.285   0.483   5.853
 8637POPC   GL147125  25.225   0.422   6.153
 8637POPC   GL247126  25.389   0.496   6.153
 8637POPC   C1A47127  25.222   0.464   6.453
 8637POPC   D2A47128  25.231   0.417   6.753
 8637POPC   C3A47129  25.216   0.473   7.053
 8637POPC   C4A47130  25.315   0.398   7.353
 8637POPC   C1B47131  25.424   0.547   6.453
 8637POPC   C2B47132  25.462   0.555   6.753
 8637POPC   C3B47133  25.502   0.580   7.053
 8637POPC   C4B47134  25.483   0.611   7.353
 8638POPC   NC347135  42.370  43.073   5.553
 8638POPC   PO447136  42.355  43.108   5.853
 8638POPC   GL147137  42.371  43.062   6.153
 8638POPC   GL247138  42.218  43.235   6.153
 8638POPC   C1A47139  42.371  43.147   6.453
 8638POPC   D2A47140  42.320  43.093   6.753
 8638POPC   C3A47141  42.311  43.087   7.053
 8638POPC   C4A47142  42.324  43.154   7.353
 8638POPC   C1B47143  42.117  43.239   6.453
 8638POPC   C2B47144  42.175  43.234   6.753
 8638POPC   C3B47145  42.180  43.234   7.053
 8638POPC   C4B47146  42.175  43.283   7.353
 8639POPC   NC347147   5.116   9.753   5.553
 8639POPC   PO447148   5.096   9.704   5.853
 8639POPC   GL147149   5.122   9.717   6.153
 8639POPC   GL247150   5.052   9.805   6.153
 8639POPC   C1A47151   5.059   9.741   6.453
 8639POPC   D2A47152   5.130   9.768   6.753
 8639POPC   C3A47153   5.053   9.764   7.053
 8639POPC   C4A47154   5.064   9.753   7.353
 8639POPC   C1B47155   4.952   9.964   6.453
 8639POPC   C2B47156   4.988   9.994   6.753
 8639POPC   C3B47157   4.931   9.988   7.053
 8639POPC   C4B47158   4.962   9.915   7.353
 8640POPC   NC347159  30.664   7.401   5.553
 8640POPC   PO447160  30.706   7.377   5.853
 8640POPC   GL147161  30.710   7.464   6.153
 8640POPC   GL247162  30.731   7.268   6.153
 8640POPC   C1A47163  30.734   7.410   6.453
 8640POPC   D2A47164  30.649   7.419   6.753
 8640POPC   C3A47165  30.725   7.417   7.053
 8640POPC   C4A47166  30.697   7.462   7.353
 8640POPC   C1B47167  30.832   7.213   6.453
 8640POPC   C2B47168  30.772   7.164   6.753
 8640POPC   C3B47169  30.773   7.163   7.053
 8640POPC   C4B47170  30.805   7.146   7.353
 8641POPC   NC347171  18.262  11.271   5.553
 8641POPC   PO447172  18.308  11.333   5.853
 8641POPC   GL147173  18.263  11.281   6.153
 8641POPC   GL247174  18.438  11.344   6.153
 8641POPC   C1A47175  18.296  11.343   6.453
 8641POPC   D2A47176  18.260  11.346   6.753
 8641POPC   C3A47177  18.318  11.275   7.053
 8641POPC   C4A47178  18.256  11.302   7.353
 8641POPC   C1B47179  18.495  11.317   6.453
 8641POPC   C2B47180  18.537  11.354   6.753
 8641POPC   C3B47181  18.562  11.375   7.053
 8641POPC   C4B47182  18.503  11.347   7.353
 8642POPC   NC347183  39.979  33.773   5.553
 8642POPC   PO447184  40.015  33.808   5.853
 8642POPC   GL147185  39.981  33.824   6.153
 8642POPC   GL247186  39.878  33.815   6.153
 8642POPC   C1A47187  40.046  33.753   6.453
 8642POPC   D2A47188  39.970  33.821   6.753
 8642POPC   C3A47189  40.010  33.840   7.053
 8642POPC   C4A47190  39.970  33.763   7.353
 8642POPC   C1B47191  39.787  33.921   6.453
 8642POPC   C2B47192  39.754  33.919   6.753
 8642POPC   C3B47193  39.755  33.918   7.053
 8642POPC   C4B47194  39.801  33.899   7.353
 8643POPC   NC347195   2.730   0.419   5.553
 8643POPC   PO447196   2.756   0.417   5.853
 8643POPC   GL147197   2.796   0.478   6.153
 8643POPC   GL247198   2.780   0.374   6.153
 8643POPC   C1A47199   2.793   0.426   6.453
 8643POPC   D2A47200   2.764   0.482   6.753
 8643POPC   C3A47201   2.806   0.446   7.053
 8643POPC   C4A47202   2.738   0.416   7.353
 8643POPC   C1B47203   2.863   0.249   6.453
 8643POPC   C2B47204   2.875   0.250   6.753
 8643POPC   C3B47205   2.935   0.197   7.053
 8643POPC   C4B47206   2.865   0.174   7.353
 8644POPC   NC347207   2.786  34.586   5.553
 8644POPC   PO447208   2.730  34.538   5.853
 8644POPC   GL147209   2.804  34.586   6.153
 8644POPC   GL247210   2.764  34.740   6.153
 8644POPC   C1A47211   2.815  34.530   6.453
 8644POPC   D2A47212   2.780  34.537   6.753
 8644POPC   C3A47213   2.723  34.579   7.053
 8644POPC   C4A47214   2.761  34.567   7.353
 8644POPC   C1B47215   2.687  34.808   6.453
 8644POPC   C2B47216   2.747  34.857   6.753
 8644POPC   C3B47217   2.675  34.796   7.053
 8644POPC   C4B47218   2.734  34.782   7.353
 8645POPC   NC347219   2.030  17.546   5.553
 8645POPC   PO447220   2.007  17.471   5.853
 8645POPC   GL147221   1.951  17.554   6.153
 8645POPC   GL247222   1.872  17.630   6.153
 8645POPC   C1A47223   2.034  17.501   6.453
 8645POPC   D2A47224   1.970  17.519   6.753
 8645POPC   C3A47225   1.961  17.513   7.053
 8645POPC   C4A47226   1.961  17.523   7.353
 8645POPC   C1B47227   1.756  17.627   6.453
 8645POPC   C2B47228   1.847  17.624   6.753
 8645POPC   C3B47229   1.765  17.652   7.053
 8645POPC   C4B47230   1.827  17.622   7.353
 8646POPC   NC347231  17.484  21.381   5.553
 8646POPC   PO447232  17.517  21.359   5.853
 8646POPC   GL147233  17.465  21.377   6.153
 8646POPC   GL247234  17.658  21.387   6.153
 8646POPC   C1A47235  17.478  21.338   6.453
 8646POPC   D2A47236  17.487  21.370   6.753
 8646POPC   C3A47237  17.543  21.419   7.053
 8646POPC   C4A47238  17.485  21.405   7.353
 8646POPC   C1B47239  17.790  21.296   6.453
 8646POPC   C2B47240  17.754  21.390   6.753
 8646POPC   C3B47241  17.730  21.358   7.053
 8646POPC   C4B47242  17.726  21.370   7.353
 8647POPC   NC347243   8.240  37.659   5.553
 8647POPC   PO447244   8.160  37.706   5.853
 8647POPC   GL147245   8.239  37.690   6.153
 8647POPC   GL247246   8.072  37.654   6.153
 8647POPC   C1A47247   8.209  37.633   6.453
 8647POPC   D2A47248   8.203  37.671   6.753
 8647POPC   C3A47249   8.195  37.682   7.053
 8647POPC   C4A47250   8.209  37.684   7.353
 8647POPC   C1B47251   7.916  37.742   6.453
 8647POPC   C2B47252   7.980  37.737   6.753
 8647POPC   C3B47253   7.945  37.729   7.053
 8647POPC   C4B47254   7.925  37.726   7.353
 8648POPC   NC347255  28.359  19.842   5.553
 8648POPC   PO447256  28.407  19.875   5.853
 8648POPC   GL147257  28.403  19.859   6.153
 8648POPC   GL247258  28.400  19.929   6.153
 8648POPC   C1A47259  28.349  19.861   6.453
 8648POPC   D2A47260  28.395  19.868   6.753
 8648POPC   C3A47261  28.400  19.845   7.053
 8648POPC   C4A47262  28.326  19.789   7.353
 8648POPC   C1B47263  28.486  20.108   6.453
 8648POPC   C2B47264  28.461  20.100   6.753
 8648POPC   C3B47265  28.431  20.049   7.053
 8648POPC   C4B47266  28.487  20.023   7.353
 8649POPC   NC347267  35.326  11.269   5.553
 8649POPC   PO447268  35.354  11.347   5.853
 8649POPC   GL147269  35.332  11.286   6.153
 8649POPC   GL247270  35.455  11.334   6.153
 8649POPC   C1A47271  35.310  11.307   6.453
 8649POPC   D2A47272  35.362  11.252   6.753
 8649POPC   C3A47273  35.351  11.325   7.053
 8649POPC   C4A47274  35.387  11.262   7.353
 8649POPC   C1B47275  35.577  11.364   6.453
 8649POPC   C2B47276  35.623  11.421   6.753
 8649POPC   C3B47277  35.593  11.342   7.053
 8649POPC   C4B47278  35.633  11.424   7.353
 8650POPC   NC347279  35.344  43.087   5.553
 8650POPC   PO447280  35.339  43.062   5.853
 8650POPC   GL147281  35.343  43.082   6.153
 8650POPC   GL247282  35.498  43.131   6.153
 8650POPC   C1A47283  35.378  43.067   6.453
 8650POPC   D2A47284  35.345  43.090   6.753
 8650POPC   C3A47285  35.398  43.130   7.053
 8650POPC   C4A47286  35.333  43.066   7.353
 8650POPC   C1B47287  35.617  43.136   6.453
 8650POPC   C2B47288  35.594  43.103   6.753
 8650POPC   C3B47289  35.554  43.058   7.053
 8650POPC   C4B47290  35.620  43.071   7.353
 8651POPC   NC347291  42.353  38.409   5.553
 8651POPC   PO447292  42.291  38.412   5.853
 8651POPC   GL147293  42.356  38.483   6.153
 8651POPC   GL247294  42.169  38.480   6.153
 8651POPC   C1A47295  42.377  38.500   6.453
 8651POPC   D2A47296  42.306  38.439   6.753
 8651POPC   C3A47297  42.319  38.493   7.053
 8651POPC   C4A47298  42.346  38.454   7.353
 8651POPC   C1B47299  42.048  38.429   6.453
 8651POPC   C2B47300  42.080  38.454   6.753
 8651POPC   C3B47301  42.104  38.478   7.053
 8651POPC   C4B47302  42.117  38.429   7.353
 8652POPC   NC347303  15.193  43.888   5.553
 8652POPC   PO447304  15.140  43.906   5.853
 8652POPC   GL147305  15.187  43.845   6.153
 8652POPC   GL247306  15.113  43.981   6.153
 8652POPC   C1A47307  15.183  43.913   6.453
 8652POPC   D2A47308  15.170  43.850   6.753
 8652POPC   C3A47309  15.211  43.895   7.053
 8652POPC   C4A47310  15.148  43.874   7.353
 8652POPC   C1B47311  15.119  44.098   6.453
 8652POPC   C2B47312  15.170  44.100   6.753
 8652POPC   C3B47313  15.133  44.137   7.053
 8652POPC   C4B47314  15.106  44.163   7.353
 8653POPC   NC347315   1.983  12.832   5.553
 8653POPC   PO447316   2.036  12.873   5.853
 8653POPC   GL147317   1.959  12.851   6.153
 8653POPC   GL247318   1.963  12.746   6.153
 8653POPC   C1A47319   1.961  12.835   6.453
 8653POPC   D2A47320   1.985  12.805   6.753
 8653POPC   C3A47321   2.015  12.883   7.053
 8653POPC   C4A47322   2.009  12.818   7.353
 8653POPC   C1B47323   1.862  12.603   6.453
 8653POPC   C2B47324   1.939  12.584   6.753
 8653POPC   C3B47325   1.896  12.591   7.053
 8653POPC   C4B47326   1.918  12.667   7.353
 8654POPC   NC347327  38.496   1.943   5.553
 8654POPC   PO447328  38.500   1.969   5.853
 8654POPC   GL147329  38.420   1.989   6.153
 8654POPC   GL247330  38.453   2.144   6.153
 8654POPC   C1A47331  38.449   1.962   6.453
 8654POPC   D2A47332  38.502   2.039   6.753
 8654POPC   C3A47333  38.407   1.989   7.053
 8654POPC   C4A47334  38.426   1.994   7.353
 8654POPC   C1B47335  38.461   2.197   6.453
 8654POPC   C2B47336  38.533   2.224   6.753
 8654POPC   C3B47337  38.480   2.189   7.053
 8654POPC   C4B47338  38.503   2.210   7.353
 8655POPC   NC347339   7.469  28.409   5.553
 8655POPC   PO447340   7.435  28.333   5.853
 8655POPC   GL147341   7.377  28.392   6.153
 8655POPC   GL247342   7.319  28.484   6.153
 8655POPC   C1A47343   7.464  28.394   6.453
 8655POPC   D2A47344   7.410  28.417   6.753
 8655POPC   C3A47345   7.443  28.320   7.053
 8655POPC   C4A47346   7.403  28.357   7.353
 8655POPC   C1B47347   7.222  28.546   6.453
 8655POPC   C2B47348   7.254  28.521   6.753
 8655POPC   C3B47349   7.225  28.496   7.053
 8655POPC   C4B47350   7.244  28.576   7.353
 8656POPC   NC347351  17.526  39.242   5.553
 8656POPC   PO447352  17.461  39.276   5.853
 8656POPC   GL147353  17.471  39.193   6.153
 8656POPC   GL247354  17.496  39.376   6.153
 8656POPC   C1A47355  17.553  39.256   6.453
 8656POPC   D2A47356  17.556  39.206   6.753
 8656POPC   C3A47357  17.499  39.241   7.053
 8656POPC   C4A47358  17.458  39.199   7.353
 8656POPC   C1B47359  17.424  39.409   6.453
 8656POPC   C2B47360  17.404  39.417   6.753
 8656POPC   C3B47361  17.432  39.491   7.053
 8656POPC   C4B47362  17.384  39.491   7.353
 8657POPC   NC347363  35.382  33.816   5.553
 8657POPC   PO447364  35.386  33.764   5.853
 8657POPC   GL147365  35.339  33.773   6.153
 8657POPC   GL247366  35.394  33.673   6.153
 8657POPC   C1A47367  35.400  33.821   6.453
 8657POPC   D2A47368  35.386  33.761   6.753
 8657POPC   C3A47369  35.396  33.827   7.053
 8657POPC   C4A47370  35.384  33.822   7.353
 8657POPC   C1B47371  35.448  33.542   6.453
 8657POPC   C2B47372  35.478  33.573   6.753
 8657POPC   C3B47373  35.447  33.601   7.053
 8657POPC   C4B47374  35.427  33.608   7.353
 8658POPC   NC347375  43.124  29.965   5.553
 8658POPC   PO447376  43.150  29.964   5.853
 8658POPC   GL147377  43.144  29.899   6.153
 8658POPC   GL247378  43.161  29.814   6.153
 8658POPC   C1A47379  43.062  29.902   6.453
 8658POPC   D2A47380  43.115  29.960   6.753
 8658POPC   C3A47381  43.088  29.878   7.053
 8658POPC   C4A47382  43.149  29.913   7.353
 8658POPC   C1B47383  43.170  29.658   6.453
 8658POPC   C2B47384  43.187  29.678   6.753
 8658POPC   C3B47385  43.226  29.738   7.053
 8658POPC   C4B47386  43.157  29.706   7.353
 8659POPC   NC347387   0.459  33.034   5.553
 8659POPC   PO447388   0.470  33.056   5.853
 8659POPC   GL147389   0.397  32.976   6.153
 8659POPC   GL247390   0.336  33.060   6.153
 8659POPC   C1A47391   0.463  33.011   6.453
 8659POPC   D2A47392   0.397  33.048   6.753
 8659POPC   C3A47393   0.420  33.072   7.053
 8659POPC   C4A47394   0.466  32.978   7.353
 8659POPC   C1B47395   0.176  32.989   6.453
 8659POPC   C2B47396   0.183  32.987   6.753
 8659POPC   C3B47397   0.163  33.041   7.053
 8659POPC   C4B47398   0.142  33.038   7.353
 8660POPC   NC347399  26.867  13.584   5.553
 8660POPC   PO447400  26.810  13.645   5.853
 8660POPC   GL147401  26.833  13.658   6.153
 8660POPC   GL247402  26.912  13.669   6.153
 8660POPC   C1A47403  26.839  13.622   6.453
 8660POPC   D2A47404  26.815  13.651   6.753
 8660POPC   C3A47405  26.857  13.578   7.053
 8660POPC   C4A47406  26.787  13.630   7.353
 8660POPC   C1B47407  27.028  13.814   6.453
 8660POPC   C2B47408  26.997  13.839   6.753
 8660POPC   C3B47409  27.014  13.826   7.053
 8660POPC   C4B47410  27.042  13.775   7.353
 8661POPC   NC347411  28.325  24.503   5.553
 8661POPC   PO447412  28.337  24.453   5.853
 8661POPC   GL147413  28.364  24.513   6.153
 8661POPC   GL247414  28.211  24.486   6.153
 8661POPC   C1A47415  28.391  24.507   6.453
 8661POPC   D2A47416  28.369  24.443   6.753
 8661POPC   C3A47417  28.329  24.501   7.053
 8661POPC   C4A47418  28.345  24.468   7.353
 8661POPC   C1B47419  28.131  24.420   6.453
 8661POPC   C2B47420  28.152  24.460   6.753
 8661POPC   C3B47421  28.099  24.426   7.053
 8661POPC   C4B47422  28.113  24.477   7.353
 8662POPC   NC347423  20.571  24.460   5.553
 8662POPC   PO447424  20.605  24.442   5.853
 8662POPC   GL147425  20.618  24.474   6.153
 8662POPC   GL247426  20.640  24.573   6.153
 8662POPC   C1A47427  20.623  24.530   6.453
 8662POPC   D2A47428  20.614  24.535   6.753
 8662POPC   C3A47429  20.594  24.520   7.053
 8662POPC   C4A47430  20.577  24.526   7.353
 8662POPC   C1B47431  20.667  24.767   6.453
 8662POPC   C2B47432  20.758  24.751   6.753
 8662POPC   C3B47433  20.725  24.764   7.053
 8662POPC   C4B47434  20.704  24.712   7.353
 8663POPC   NC347435  31.464  39.969   5.553
 8663POPC   PO447436  31.456  40.008   5.853
 8663POPC   GL147437  31.468  40.028   6.153
 8663POPC   GL247438  31.308  39.964   6.153
 8663POPC   C1A47439  31.486  40.032   6.453
 8663POPC   D2A47440  31.475  39.971   6.753
 8663POPC   C3A47441  31.486  39.992   7.053
 8663POPC   C4A47442  31.440  40.047   7.353
 8663POPC   C1B47443  31.207  39.942   6.453
 8663POPC   C2B47444  31.242  39.891   6.753
 8663POPC   C3B47445  31.250  39.884   7.053
 8663POPC   C4B47446  31.195  39.946   7.353
 8664POPC   NC347447  10.521  43.892   5.553
 8664POPC   PO447448  10.533  43.858   5.853
 8664POPC   GL147449  10.558  43.887   6.153
 8664POPC   GL247450  10.564  43.779   6.153
 8664POPC   C1A47451  10.541  43.911   6.453
 8664POPC   D2A47452  10.555  43.856   6.753
 8664POPC   C3A47453  10.486  43.867   7.053
 8664POPC   C4A47454  10.480  43.887   7.353
 8664POPC   C1B47455  10.721  43.667   6.453
 8664POPC   C2B47456  10.656  43.701   6.753
 8664POPC   C3B47457  10.691  43.731   7.053
 8664POPC   C4B47458  10.706  43.678   7.353
 8665POPC   NC347459  31.472  32.265   5.553
 8665POPC   PO447460  31.487  32.209   5.853
 8665POPC   GL147461  31.496  32.272   6.153
 8665POPC   GL247462  31.348  32.147   6.153
 8665POPC   C1A47463  31.424  32.220   6.453
 8665POPC   D2A47464  31.471  32.295   6.753
 8665POPC   C3A47465  31.518  32.215   7.053
 8665POPC   C4A47466  31.476  32.261   7.353
 8665POPC   C1B47467  31.323  32.023   6.453
 8665POPC   C2B47468  31.294  32.018   6.753
 8665POPC   C3B47469  31.325  32.011   7.053
 8665POPC   C4B47470  31.342  32.034   7.353
 8666POPC   NC347471   5.117   8.234   5.553
 8666POPC   PO447472   5.067   8.198   5.853
 8666POPC   GL147473   5.061   8.180   6.153
 8666POPC   GL247474   5.107   8.288   6.153
 8666POPC   C1A47475   5.051   8.239   6.453
 8666POPC   D2A47476   5.088   8.213   6.753
 8666POPC   C3A47477   5.083   8.236   7.053
 8666POPC   C4A47478   5.080   8.222   7.353
 8666POPC   C1B47479   4.994   8.443   6.453
 8666POPC   C2B47480   4.995   8.414   6.753
 8666POPC   C3B47481   4.990   8.389   7.053
 8666POPC   C4B47482   5.031   8.464   7.353
 8667POPC   NC347483  29.895  31.481   5.553
 8667POPC   PO447484  29.894  31.497   5.853
 8667POPC   GL147485  29.897  31.485   6.153
 8667POPC   GL247486  29.885  31.614   6.153
 8667POPC   C1A47487  29.875  31.478   6.453
 8667POPC   D2A47488  29.877  31.510   6.753
 8667POPC   C3A47489  29.951  31.469   7.053
 8667POPC   C4A47490  29.930  31.428   7.353
 8667POPC   C1B47491  29.855  31.728   6.453
 8667POPC   C2B47492  29.864  31.684   6.753
 8667POPC   C3B47493  29.864  31.740   7.053
 8667POPC   C4B47494  29.817  31.757   7.353
 8668POPC   NC347495  11.297  22.914   5.553
 8668POPC   PO447496  11.274  22.935   5.853
 8668POPC   GL147497  11.350  22.948   6.153
 8668POPC   GL247498  11.217  22.865   6.153
 8668POPC   C1A47499  11.277  22.917   6.453
 8668POPC   D2A47500  11.281  22.894   6.753
 8668POPC   C3A47501  11.312  22.938   7.053
 8668POPC   C4A47502  11.275  22.942   7.353
 8668POPC   C1B47503  11.126  22.755   6.453
 8668POPC   C2B47504  11.100  22.767   6.753
 8668POPC   C3B47505  11.079  22.750   7.053
 8668POPC   C4B47506  11.075  22.792   7.353
 8669POPC   NC347507  17.470  11.301   5.553
 8669POPC   PO447508  17.548  11.326   5.853
 8669POPC   GL147509  17.502  11.323   6.153
 8669POPC   GL247510  17.633  11.353   6.153
 8669POPC   C1A47511  17.528  11.278   6.453
 8669POPC   D2A47512  17.546  11.286   6.753
 8669POPC   C3A47513  17.510  11.315   7.053
 8669POPC   C4A47514  17.526  11.349   7.353
 8669POPC   C1B47515  17.745  11.394   6.453
 8669POPC   C2B47516  17.769  11.368   6.753
 8669POPC   C3B47517  17.772  11.373   7.053
 8669POPC   C4B47518  17.759  11.368   7.353
 8670POPC   NC347519  15.132  44.661   5.553
 8670POPC   PO447520  15.144  44.660   5.853
 8670POPC   GL147521  15.191  44.658   6.153
 8670POPC   GL247522  15.124  44.737   6.153
 8670POPC   C1A47523  15.149  44.688   6.453
 8670POPC   D2A47524  15.201  44.637   6.753
 8670POPC   C3A47525  15.153  44.700   7.053
 8670POPC   C4A47526  15.222  44.658   7.353
 8670POPC   C1B47527  15.165  44.909   6.453
 8670POPC   C2B47528  15.115  44.950   6.753
 8670POPC   C3B47529  15.167  44.861   7.053
 8670POPC   C4B47530  15.178  44.938   7.353
 8671POPC   NC347531   5.054  41.558   5.553
 8671POPC   PO447532   5.110  41.542   5.853
 8671POPC   GL147533   5.102  41.534   6.153
 8671POPC   GL247534   4.965  41.538   6.153
 8671POPC   C1A47535   5.089  41.591   6.453
 8671POPC   D2A47536   5.068  41.573   6.753
 8671POPC   C3A47537   5.112  41.531   7.053
 8671POPC   C4A47538   5.125  41.535   7.353
 8671POPC   C1B47539   4.836  41.507   6.453
 8671POPC   C2B47540   4.794  41.493   6.753
 8671POPC   C3B47541   4.856  41.509   7.053
 8671POPC   C4B47542   4.872  41.576   7.353
 8672POPC   NC347543  29.895  12.093   5.553
 8672POPC   PO447544  29.920  12.059   5.853
 8672POPC   GL147545  29.877  12.058   6.153
 8672POPC   GL247546  29.806  12.043   6.153
 8672POPC   C1A47547  29.899  12.028   6.453
 8672POPC   D2A47548  29.905  12.035   6.753
 8672POPC   C3A47549  29.923  12.048   7.053
 8672POPC   C4A47550  29.929  12.035   7.353
 8672POPC   C1B47551  29.710  12.098   6.453
 8672POPC   C2B47552  29.672  11.999   6.753
 8672POPC   C3B47553  29.652  12.096   7.053
 8672POPC   C4B47554  29.633  12.066   7.353
 8673POPC   NC347555  36.144   9.765   5.553
 8673POPC   PO447556  36.156   9.773   5.853
 8673POPC   GL147557  36.145   9.700   6.153
 8673POPC   GL247558  36.050   9.688   6.153
 8673POPC   C1A47559  36.088   9.795   6.453
 8673POPC   D2A47560  36.123   9.742   6.753
 8673POPC   C3A47561  36.090   9.734   7.053
 8673POPC   C4A47562  36.144   9.745   7.353
 8673POPC   C1B47563  35.977   9.518   6.453
 8673POPC   C2B47564  35.986   9.556   6.753
 8673POPC   C3B47565  35.987   9.583   7.053
 8673POPC   C4B47566  36.009   9.599   7.353
 8674POPC   NC347567  37.710  17.485   5.553
 8674POPC   PO447568  37.699  17.529   5.853
 8674POPC   GL147569  37.694  17.498   6.153
 8674POPC   GL247570  37.569  17.540   6.153
 8674POPC   C1A47571  37.667  17.532   6.453
 8674POPC   D2A47572  37.729  17.528   6.753
 8674POPC   C3A47573  37.685  17.490   7.053
 8674POPC   C4A47574  37.645  17.473   7.353
 8674POPC   C1B47575  37.429  17.641   6.453
 8674POPC   C2B47576  37.441  17.620   6.753
 8674POPC   C3B47577  37.430  17.657   7.053
 8674POPC   C4B47578  37.521  17.682   7.353
 8675POPC   NC347579  32.976  17.510   5.553
 8675POPC   PO447580  32.981  17.493   5.853
 8675POPC   GL147581  32.989  17.498   6.153
 8675POPC   GL247582  33.046  17.402   6.153
 8675POPC   C1A47583  32.984  17.506   6.453
 8675POPC   D2A47584  33.073  17.475   6.753
 8675POPC   C3A47585  33.048  17.511   7.053
 8675POPC   C4A47586  33.030  17.518   7.353
 8675POPC   C1B47587  33.134  17.289   6.453
 8675POPC   C2B47588  33.165  17.260   6.753
 8675POPC   C3B47589  33.127  17.306   7.053
 8675POPC   C4B47590  33.135  17.266   7.353
 8676POPC   NC347591  34.578  23.713   5.553
 8676POPC   PO447592  34.527  23.675   5.853
 8676POPC   GL147593  34.613  23.710   6.153
 8676POPC   GL247594  34.463  23.666   6.153
 8676POPC   C1A47595  34.599  23.696   6.453
 8676POPC   D2A47596  34.590  23.684   6.753
 8676POPC   C3A47597  34.532  23.758   7.053
 8676POPC   C4A47598  34.552  23.704   7.353
 8676POPC   C1B47599  34.365  23.673   6.453
 8676POPC   C2B47600  34.291  23.633   6.753
 8676POPC   C3B47601  34.369  23.646   7.053
 8676POPC   C4B47602  34.385  23.588   7.353
 8677POPC   NC347603   5.854  18.309   5.553
 8677POPC   PO447604   5.849  18.278   5.853
 8677POPC   GL147605   5.825  18.269   6.153
 8677POPC   GL247606   5.743  18.313   6.153
 8677POPC   C1A47607   5.880  18.246   6.453
 8677POPC   D2A47608   5.900  18.257   6.753
 8677POPC   C3A47609   5.913  18.279   7.053
 8677POPC   C4A47610   5.861  18.332   7.353
 8677POPC   C1B47611   5.611  18.332   6.453
 8677POPC   C2B47612   5.645  18.297   6.753
 8677POPC   C3B47613   5.655  18.288   7.053
 8677POPC   C4B47614   5.669  18.311   7.353
 8678POPC   NC347615  10.513  39.984   5.553
 8678POPC   PO447616  10.534  39.990   5.853
 8678POPC   GL147617  10.492  40.002   6.153
 8678POPC   GL247618  10.453  40.130   6.153
 8678POPC   C1A47619  10.509  40.033   6.453
 8678POPC   D2A47620  10.542  40.036   6.753
 8678POPC   C3A47621  10.536  39.976   7.053
 8678POPC   C4A47622  10.511  39.967   7.353
 8678POPC   C1B47623  10.296  40.160   6.453
 8678POPC   C2B47624  10.319  40.193   6.753
 8678POPC   C3B47625  10.349  40.115   7.053
 8678POPC   C4B47626  10.371  40.138   7.353
 8679POPC   NC347627  28.330   1.997   5.553
 8679POPC   PO447628  28.414   1.981   5.853
 8679POPC   GL147629  28.402   2.013   6.153
 8679POPC   GL247630  28.431   2.028   6.153
 8679POPC   C1A47631  28.406   2.008   6.453
 8679POPC   D2A47632  28.329   1.957   6.753
 8679POPC   C3A47633  28.325   2.025   7.053
 8679POPC   C4A47634  28.373   2.029   7.353
 8679POPC   C1B47635  28.597   2.172   6.453
 8679POPC   C2B47636  28.596   2.182   6.753
 8679POPC   C3B47637  28.563   2.182   7.053
 8679POPC   C4B47638  28.560   2.193   7.353
 8680POPC   NC347639  38.426  14.381   5.553
 8680POPC   PO447640  38.467  14.439   5.853
 8680POPC   GL147641  38.428  14.358   6.153
 8680POPC   GL247642  38.558  14.399   6.153
 8680POPC   C1A47643  38.474  14.417   6.453
 8680POPC   D2A47644  38.446  14.379   6.753
 8680POPC   C3A47645  38.501  14.363   7.053
 8680POPC   C4A47646  38.422  14.407   7.353
 8680POPC   C1B47647  38.668  14.417   6.453
 8680POPC   C2B47648  38.659  14.478   6.753
 8680POPC   C3B47649  38.699  14.433   7.053
 8680POPC   C4B47650  38.673  14.460   7.353
 8681POPC   NC347651   3.558   2.723   5.553
 8681POPC   PO447652   3.515   2.764   5.853
 8681POPC   GL147653   3.590   2.767   6.153
 8681POPC   GL247654   3.458   2.679   6.153
 8681POPC   C1A47655   3.536   2.798   6.453
 8681POPC   D2A47656   3.517   2.761   6.753
 8681POPC   C3A47657   3.528   2.762   7.053
 8681POPC   C4A47658   3.540   2.731   7.353
 8681POPC   C1B47659   3.346   2.632   6.453
 8681POPC   C2B47660   3.398   2.626   6.753
 8681POPC   C3B47661   3.378   2.603   7.053
 8681POPC   C4B47662   3.350   2.617   7.353
 8682POPC   NC347663  39.254  24.507   5.553
 8682POPC   PO447664  39.255  24.507   5.853
 8682POPC   GL147665  39.221  24.493   6.153
 8682POPC   GL247666  39.199  24.330   6.153
 8682POPC   C1A47667  39.229  24.474   6.453
 8682POPC   D2A47668  39.257  24.508   6.753
 8682POPC   C3A47669  39.254  24.507   7.053
 8682POPC   C4A47670  39.251  24.525   7.353
 8682POPC   C1B47671  39.183  24.232   6.453
 8682POPC   C2B47672  39.228  24.249   6.753
 8682POPC   C3B47673  39.183  24.262   7.053
 8682POPC   C4B47674  39.198  24.226   7.353
 8683POPC   NC347675  36.170  27.635   5.553
 8683POPC   PO447676  36.089  27.609   5.853
 8683POPC   GL147677  36.111  27.580   6.153
 8683POPC   GL247678  36.200  27.676   6.153
 8683POPC   C1A47679  36.177  27.633   6.453
 8683POPC   D2A47680  36.171  27.620   6.753
 8683POPC   C3A47681  36.103  27.625   7.053
 8683POPC   C4A47682  36.132  27.549   7.353
 8683POPC   C1B47683  36.361  27.708   6.453
 8683POPC   C2B47684  36.332  27.652   6.753
 8683POPC   C3B47685  36.384  27.683   7.053
 8683POPC   C4B47686  36.322  27.711   7.353
 8684POPC   NC347687  10.532  17.555   5.553
 8684POPC   PO447688  10.536  17.529   5.853
 8684POPC   GL147689  10.533  17.539   6.153
 8684POPC   GL247690  10.371  17.413   6.153
 8684POPC   C1A47691  10.501  17.520   6.453
 8684POPC   D2A47692  10.498  17.540   6.753
 8684POPC   C3A47693  10.501  17.475   7.053
 8684POPC   C4A47694  10.500  17.462   7.353
 8684POPC   C1B47695  10.327  17.443   6.453
 8684POPC   C2B47696  10.288  17.401   6.753
 8684POPC   C3B47697  10.257  17.437   7.053
 8684POPC   C4B47698  10.259  17.380   7.353
 8685POPC   NC347699  36.930  19.025   5.553
 8685POPC   PO447700  36.936  19.079   5.853
 8685POPC   GL147701  36.945  19.039   6.153
 8685POPC   GL247702  36.898  19.155   6.153
 8685POPC   C1A47703  36.904  19.026   6.453
 8685POPC   D2A47704  36.948  19.037   6.753
 8685POPC   C3A47705  36.883  19.011   7.053
 8685POPC   C4A47706  36.947  19.073   7.353
 8685POPC   C1B47707  36.800  19.268   6.453
 8685POPC   C2B47708  36.836  19.269   6.753
 8685POPC   C3B47709  36.853  19.261   7.053
 8685POPC   C4B47710  36.854  19.330   7.353
 8686POPC   NC347711  15.975  33.019   5.553
 8686POPC   PO447712  15.961  33.065   5.853
 8686POPC   GL147713  16.001  33.047   6.153
 8686POPC   GL247714  15.969  33.127   6.153
 8686POPC   C1A47715  15.990  32.985   6.453
 8686POPC   D2A47716  15.944  33.058   6.753
 8686POPC   C3A47717  15.945  33.056   7.053
 8686POPC   C4A47718  15.980  32.999   7.353
 8686POPC   C1B47719  15.958  33.277   6.453
 8686POPC   C2B47720  15.963  33.269   6.753
 8686POPC   C3B47721  16.003  33.236   7.053
 8686POPC   C4B47722  15.944  33.305   7.353
 8687POPC   NC347723  35.350  29.133   5.553
 8687POPC   PO447724  35.395  29.126   5.853
 8687POPC   GL147725  35.310  29.099   6.153
 8687POPC   GL247726  35.246  29.067   6.153
 8687POPC   C1A47727  35.363  29.180   6.453
 8687POPC   D2A47728  35.323  29.131   6.753
 8687POPC   C3A47729  35.342  29.135   7.053
 8687POPC   C4A47730  35.401  29.185   7.353
 8687POPC   C1B47731  35.160  28.979   6.453
 8687POPC   C2B47732  35.222  28.928   6.753
 8687POPC   C3B47733  35.133  29.005   7.053
 8687POPC   C4B47734  35.165  28.983   7.353
 8688POPC   NC347735  32.986  15.999   5.553
 8688POPC   PO447736  33.067  15.933   5.853
 8688POPC   GL147737  32.989  15.948   6.153
 8688POPC   GL247738  33.105  16.041   6.153
 8688POPC   C1A47739  33.051  15.990   6.453
 8688POPC   D2A47740  33.041  15.999   6.753
 8688POPC   C3A47741  32.987  15.911   7.053
 8688POPC   C4A47742  33.060  15.953   7.353
 8688POPC   C1B47743  33.279  16.111   6.453
 8688POPC   C2B47744  33.249  16.026   6.753
 8688POPC   C3B47745  33.212  16.086   7.053
 8688POPC   C4B47746  33.236  16.103   7.353
 8689POPC   NC347747  29.180   2.024   5.553
 8689POPC   PO447748  29.118   1.961   5.853
 8689POPC   GL147749  29.140   1.962   6.153
 8689POPC   GL247750  29.230   2.122   6.153
 8689POPC   C1A47751  29.187   1.964   6.453
 8689POPC   D2A47752  29.148   2.034   6.753
 8689POPC   C3A47753  29.174   1.952   7.053
 8689POPC   C4A47754  29.167   1.993   7.353
 8689POPC   C1B47755  29.234   2.245   6.453
 8689POPC   C2B47756  29.210   2.216   6.753
 8689POPC   C3B47757  29.198   2.221   7.053
 8689POPC   C4B47758  29.194   2.208   7.353
 8690POPC   NC347759  42.308  23.696   5.553
 8690POPC   PO447760  42.340  23.747   5.853
 8690POPC   GL147761  42.295  23.740   6.153
 8690POPC   GL247762  42.206  23.632   6.153
 8690POPC   C1A47763  42.309  23.755   6.453
 8690POPC   D2A47764  42.344  23.741   6.753
 8690POPC   C3A47765  42.306  23.673   7.053
 8690POPC   C4A47766  42.371  23.692   7.353
 8690POPC   C1B47767  42.093  23.622   6.453
 8690POPC   C2B47768  42.073  23.618   6.753
 8690POPC   C3B47769  42.095  23.601   7.053
 8690POPC   C4B47770  42.060  23.597   7.353
 8691POPC   NC347771  19.070  21.399   5.553
 8691POPC   PO447772  19.087  21.400   5.853
 8691POPC   GL147773  19.072  21.384   6.153
 8691POPC   GL247774  19.138  21.471   6.153
 8691POPC   C1A47775  19.014  21.345   6.453
 8691POPC   D2A47776  19.078  21.348   6.753
 8691POPC   C3A47777  19.097  21.394   7.053
 8691POPC   C4A47778  19.045  21.388   7.353
 8691POPC   C1B47779  19.257  21.461   6.453
 8691POPC   C2B47780  19.252  21.491   6.753
 8691POPC   C3B47781  19.344  21.477   7.053
 8691POPC   C4B47782  19.318  21.498   7.353
 8692POPC   NC347783  27.556   4.365   5.553
 8692POPC   PO447784  27.588   4.339   5.853
 8692POPC   GL147785  27.567   4.366   6.153
 8692POPC   GL247786  27.548   4.238   6.153
 8692POPC   C1A47787  27.603   4.357   6.453
 8692POPC   D2A47788  27.612   4.310   6.753
 8692POPC   C3A47789  27.553   4.346   7.053
 8692POPC   C4A47790  27.578   4.268   7.353
 8692POPC   C1B47791  27.582   4.031   6.453
 8692POPC   C2B47792  27.508   4.032   6.753
 8692POPC   C3B47793  27.524   4.035   7.053
 8692POPC   C4B47794  27.536   4.080   7.353
 8693POPC   NC347795  36.880  41.599   5.553
 8693POPC   PO447796  36.870  41.586   5.853
 8693POPC   GL147797  36.875  41.537   6.153
 8693POPC   GL247798  37.028  41.507   6.153
 8693POPC   C1A47799  36.942  41.516   6.453
 8693POPC   D2A47800  36.920  41.532   6.753
 8693POPC   C3A47801  36.903  41.587   7.053
 8693POPC   C4A47802  36.908  41.582   7.353
 8693POPC   C1B47803  37.105  41.409   6.453
 8693POPC   C2B47804  37.132  41.459   6.753
 8693POPC   C3B47805  37.151  41.369   7.053
 8693POPC   C4B47806  37.078  41.403   7.353
 8694POPC   NC347807  38.436   1.235   5.553
 8694POPC   PO447808  38.497   1.240   5.853
 8694POPC   GL147809  38.420   1.183   6.153
 8694POPC   GL247810  38.485   1.067   6.153
 8694POPC   C1A47811  38.467   1.208   6.453
 8694POPC   D2A47812  38.469   1.193   6.753
 8694POPC   C3A47813  38.462   1.188   7.053
 8694POPC   C4A47814  38.492   1.182   7.353
 8694POPC   C1B47815  38.535   0.979   6.453
 8694POPC   C2B47816  38.513   0.982   6.753
 8694POPC   C3B47817  38.523   1.016   7.053
 8694POPC   C4B47818  38.530   0.997   7.353
 8695POPC   NC347819  40.050  12.850   5.553
 8695POPC   PO447820  40.028  12.885   5.853
 8695POPC   GL147821  40.016  12.807   6.153
 8695POPC   GL247822  40.022  12.772   6.153
 8695POPC   C1A47823  40.004  12.832   6.453
 8695POPC   D2A47824  39.968  12.895   6.753
 8695POPC   C3A47825  40.014  12.866   7.053
 8695POPC   C4A47826  40.026  12.844   7.353
 8695POPC   C1B47827  39.998  12.590   6.453
 8695POPC   C2B47828  39.918  12.624   6.753
 8695POPC   C3B47829  39.994  12.572   7.053
 8695POPC   C4B47830  39.970  12.594   7.353
 8696POPC   NC347831   7.443  36.130   5.553
 8696POPC   PO447832   7.427  36.104   5.853
 8696POPC   GL147833   7.438  36.140   6.153
 8696POPC   GL247834   7.518  36.133   6.153
 8696POPC   C1A47835   7.459  36.123   6.453
 8696POPC   D2A47836   7.400  36.137   6.753
 8696POPC   C3A47837   7.377  36.114   7.053
 8696POPC   C4A47838   7.420  36.173   7.353
 8696POPC   C1B47839   7.629  36.173   6.453
 8696POPC   C2B47840   7.660  36.172   6.753
 8696POPC   C3B47841   7.661  36.250   7.053
 8696POPC   C4B47842   7.671  36.215   7.353
 8697POPC   NC347843  27.631  43.104   5.553
 8697POPC   PO447844  27.597  43.149   5.853
 8697POPC   GL147845  27.622  43.151   6.153
 8697POPC   GL247846  27.677  43.199   6.153
 8697POPC   C1A47847  27.548  43.118   6.453
 8697POPC   D2A47848  27.623  43.098   6.753
 8697POPC   C3A47849  27.562  43.082   7.053
 8697POPC   C4A47850  27.597  43.139   7.353
 8697POPC   C1B47851  27.663  43.311   6.453
 8697POPC   C2B47852  27.694  43.313   6.753
 8697POPC   C3B47853  27.660  43.380   7.053
 8697POPC   C4B47854  27.667  43.345   7.353
 8698POPC   NC347855  11.277  29.141   5.553
 8698POPC   PO447856  11.257  29.116   5.853
 8698POPC   GL147857  11.348  29.192   6.153
 8698POPC   GL247858  11.198  29.111   6.153
 8698POPC   C1A47859  11.335  29.174   6.453
 8698POPC   D2A47860  11.298  29.102   6.753
 8698POPC   C3A47861  11.290  29.141   7.053
 8698POPC   C4A47862  11.256  29.157   7.353
 8698POPC   C1B47863  11.105  29.033   6.453
 8698POPC   C2B47864  11.053  29.029   6.753
 8698POPC   C3B47865  11.072  29.068   7.053
 8698POPC   C4B47866  11.021  29.085   7.353
 8699POPC   NC347867  15.934   8.187   5.553
 8699POPC   PO447868  15.923   8.206   5.853
 8699POPC   GL147869  15.979   8.232   6.153
 8699POPC   GL247870  15.834   8.251   6.153
 8699POPC   C1A47871  15.950   8.241   6.453
 8699POPC   D2A47872  15.916   8.164   6.753
 8699POPC   C3A47873  15.962   8.197   7.053
 8699POPC   C4A47874  15.929   8.147   7.353
 8699POPC   C1B47875  15.811   8.393   6.453
 8699POPC   C2B47876  15.735   8.403   6.753
 8699POPC   C3B47877  15.827   8.381   7.053
 8699POPC   C4B47878  15.799   8.360   7.353
 8700POPC   NC347879  43.070  24.496   5.553
 8700POPC   PO447880  43.098  24.441   5.853
 8700POPC   GL147881  43.156  24.476   6.153
 8700POPC   GL247882  43.096  24.619   6.153
 8700POPC   C1A47883  43.115  24.446   6.453
 8700POPC   D2A47884  43.062  24.452   6.753
 8700POPC   C3A47885  43.084  24.519   7.053
 8700POPC   C4A47886  43.147  24.498   7.353
 8700POPC   C1B47887  42.963  24.727   6.453
 8700POPC   C2B47888  42.992  24.742   6.753
 8700POPC   C3B47889  43.033  24.660   7.053
 8700POPC   C4B47890  42.944  24.701   7.353
 8701POPC   NC347891  18.250  34.547   5.553
 8701POPC   PO447892  18.265  34.572   5.853
 8701POPC   GL147893  18.247  34.540   6.153
 8701POPC   GL247894  18.320  34.720   6.153
 8701POPC   C1A47895  18.262  34.527   6.453
 8701POPC   D2A47896  18.274  34.537   6.753
 8701POPC   C3A47897  18.324  34.529   7.053
 8701POPC   C4A47898  18.290  34.543   7.353
 8701POPC   C1B47899  18.452  34.766   6.453
 8701POPC   C2B47900  18.461  34.737   6.753
 8701POPC   C3B47901  18.431  34.749   7.053
 8701POPC   C4B47902  18.465  34.803   7.353
 8702POPC   NC347903  11.310  33.797   5.553
 8702POPC   PO447904  11.267  33.752   5.853
 8702POPC   GL147905  11.307  33.840   6.153
 8702POPC   GL247906  11.331  33.884   6.153
 8702POPC   C1A47907  11.299  33.751   6.453
 8702POPC   D2A47908  11.288  33.846   6.753
 8702POPC   C3A47909  11.347  33.800   7.053
 8702POPC   C4A47910  11.272  33.841   7.353
 8702POPC   C1B47911  11.343  34.001   6.453
 8702POPC   C2B47912  11.346  34.088   6.753
 8702POPC   C3B47913  11.347  34.038   7.053
 8702POPC   C4B47914  11.350  34.091   7.353
 8703POPC   NC347915  26.019  12.895   5.553
 8703POPC   PO447916  26.076  12.816   5.853
 8703POPC   GL147917  25.994  12.859   6.153
 8703POPC   GL247918  26.177  12.815   6.153
 8703POPC   C1A47919  26.038  12.860   6.453
 8703POPC   D2A47920  25.999  12.843   6.753
 8703POPC   C3A47921  26.061  12.895   7.053
 8703POPC   C4A47922  26.025  12.883   7.353
 8703POPC   C1B47923  26.265  12.733   6.453
 8703POPC   C2B47924  26.318  12.807   6.753
 8703POPC   C3B47925  26.324  12.758   7.053
 8703POPC   C4B47926  26.265  12.775   7.353
 8704POPC   NC347927  26.828  16.738   5.553
 8704POPC   PO447928  26.833  16.700   5.853
 8704POPC   GL147929  26.857  16.707   6.153
 8704POPC   GL247930  26.824  16.810   6.153
 8704POPC   C1A47931  26.824  16.728   6.453
 8704POPC   D2A47932  26.840  16.713   6.753
 8704POPC   C3A47933  26.830  16.720   7.053
 8704POPC   C4A47934  26.773  16.683   7.353
 8704POPC   C1B47935  26.888  16.932   6.453
 8704POPC   C2B47936  26.822  16.996   6.753
 8704POPC   C3B47937  26.847  17.020   7.053
 8704POPC   C4B47938  26.832  16.964   7.353
 8705POPC   NC347939  36.932  26.771   5.553
 8705POPC   PO447940  36.885  26.851   5.853
 8705POPC   GL147941  36.878  26.790   6.153
 8705POPC   GL247942  36.833  26.712   6.153
 8705POPC   C1A47943  36.931  26.770   6.453
 8705POPC   D2A47944  36.915  26.837   6.753
 8705POPC   C3A47945  36.904  26.787   7.053
 8705POPC   C4A47946  36.883  26.786   7.353
 8705POPC   C1B47947  36.700  26.686   6.453
 8705POPC   C2B47948  36.707  26.667   6.753
 8705POPC   C3B47949  36.762  26.619   7.053
 8705POPC   C4B47950  36.731  26.633   7.353
 8706POPC   NC347951  30.731  28.401   5.553
 8706POPC   PO447952  30.733  28.352   5.853
 8706POPC   GL147953  30.654  28.330   6.153
 8706POPC   GL247954  30.738  28.294   6.153
 8706POPC   C1A47955  30.732  28.408   6.453
 8706POPC   D2A47956  30.664  28.374   6.753
 8706POPC   C3A47957  30.678  28.382   7.053
 8706POPC   C4A47958  30.720  28.380   7.353
 8706POPC   C1B47959  30.908  28.163   6.453
 8706POPC   C2B47960  30.864  28.231   6.753
 8706POPC   C3B47961  30.921  28.176   7.053
 8706POPC   C4B47962  30.914  28.163   7.353
 8707POPC   NC347963  14.407  12.039   5.553
 8707POPC   PO447964  14.401  12.037   5.853
 8707POPC   GL147965  14.407  12.085   6.153
 8707POPC   GL247966  14.448  11.943   6.153
 8707POPC   C1A47967  14.396  12.051   6.453
 8707POPC   D2A47968  14.438  12.123   6.753
 8707POPC   C3A47969  14.381  12.048   7.053
 8707POPC   C4A47970  14.386  12.097   7.353
 8707POPC   C1B47971  14.414  11.807   6.453
 8707POPC   C2B47972  14.404  11.856   6.753
 8707POPC   C3B47973  14.484  11.876   7.053
 8707POPC   C4B47974  14.432  11.829   7.353
 8708POPC   NC347975   1.209  44.679   5.553
 8708POPC   PO447976   1.189  44.612   5.853
 8708POPC   GL147977   1.167  44.670   6.153
 8708POPC   GL247978   1.278  44.784   6.153
 8708POPC   C1A47979   1.213  44.696   6.453
 8708POPC   D2A47980   1.195  44.641   6.753
 8708POPC   C3A47981   1.167  44.633   7.053
 8708POPC   C4A47982   1.207  44.631   7.353
 8708POPC   C1B47983   1.300  44.943   6.453
 8708POPC   C2B47984   1.282  44.871   6.753
 8708POPC   C3B47985   1.322  44.921   7.053
 8708POPC   C4B47986   1.312  44.908   7.353
 8709POPC   NC347987  13.646  42.381   5.553
 8709POPC   PO447988  13.634  42.335   5.853
 8709POPC   GL147989  13.630  42.370   6.153
 8709POPC   GL247990  13.541  42.397   6.153
 8709POPC   C1A47991  13.664  42.341   6.453
 8709POPC   D2A47992  13.669  42.347   6.753
 8709POPC   C3A47993  13.620  42.318   7.053
 8709POPC   C4A47994  13.619  42.358   7.353
 8709POPC   C1B47995  13.406  42.464   6.453
 8709POPC   C2B47996  13.438  42.558   6.753
 8709POPC   C3B47997  13.490  42.480   7.053
 8709POPC   C4B47998  13.410  42.504   7.353
 8710POPC   NC347999  26.848  35.351   5.553
 8710POPC   PO448000  26.859  35.338   5.853
 8710POPC   GL148001  26.865  35.340   6.153
 8710POPC   GL248002  26.664  35.341   6.153
 8710POPC   C1A48003  26.792  35.322   6.453
 8710POPC   D2A48004  26.817  35.341   6.753
 8710POPC   C3A48005  26.822  35.352   7.053
 8710POPC   C4A48006  26.772  35.385   7.353
 8710POPC   C1B48007  26.616  35.223   6.453
 8710POPC   C2B48008  26.600  35.215   6.753
 8710POPC   C3B48009  26.636  35.228   7.053
 8710POPC   C4B48010  26.574  35.206   7.353
 8711POPC   NC348011  12.108  31.483   5.553
 8711POPC   PO448012  12.110  31.495   5.853
 8711POPC   GL148013  12.065  31.518   6.153
 8711POPC   GL248014  12.035  31.401   6.153
 8711POPC   C1A48015  12.083  31.476   6.453
 8711POPC   D2A48016  12.123  31.430   6.753
 8711POPC   C3A48017  12.059  31.424   7.053
 8711POPC   C4A48018  12.060  31.452   7.353
 8711POPC   C1B48019  11.994  31.225   6.453
 8711POPC   C2B48020  11.966  31.187   6.753
 8711POPC   C3B48021  12.014  31.213   7.053
 8711POPC   C4B48022  11.996  31.209   7.353
 8712POPC   NC348023  26.773  21.351   5.553
 8712POPC   PO448024  26.812  21.364   5.853
 8712POPC   GL148025  26.866  21.369   6.153
 8712POPC   GL248026  26.908  21.313   6.153
 8712POPC   C1A48027  26.820  21.345   6.453
 8712POPC   D2A48028  26.862  21.393   6.753
 8712POPC   C3A48029  26.823  21.349   7.053
 8712POPC   C4A48030  26.778  21.399   7.353
 8712POPC   C1B48031  26.981  21.230   6.453
 8712POPC   C2B48032  27.037  21.275   6.753
 8712POPC   C3B48033  26.995  21.215   7.053
 8712POPC   C4B48034  26.979  21.216   7.353
 8713POPC   NC348035   6.625  29.143   5.553
 8713POPC   PO448036   6.680  29.171   5.853
 8713POPC   GL148037   6.622  29.103   6.153
 8713POPC   GL248038   6.759  29.233   6.153
 8713POPC   C1A48039   6.668  29.122   6.453
 8713POPC   D2A48040   6.672  29.107   6.753
 8713POPC   C3A48041   6.605  29.183   7.053
 8713POPC   C4A48042   6.670  29.116   7.353
 8713POPC   C1B48043   6.801  29.371   6.453
 8713POPC   C2B48044   6.833  29.364   6.753
 8713POPC   C3B48045   6.777  29.362   7.053
 8713POPC   C4B48046   6.837  29.321   7.353
 8714POPC   NC348047  29.926  39.229   5.553
 8714POPC   PO448048  29.907  39.189   5.853
 8714POPC   GL148049  29.957  39.195   6.153
 8714POPC   GL248050  29.896  39.061   6.153
 8714POPC   C1A48051  29.901  39.216   6.453
 8714POPC   D2A48052  29.880  39.216   6.753
 8714POPC   C3A48053  29.960  39.242   7.053
 8714POPC   C4A48054  29.876  39.255   7.353
 8714POPC   C1B48055  29.833  38.942   6.453
 8714POPC   C2B48056  29.850  39.009   6.753
 8714POPC   C3B48057  29.882  38.991   7.053
 8714POPC   C4B48058  29.888  38.952   7.353
 8715POPC   NC348059  22.198  29.899   5.553
 8715POPC   PO448060  22.157  29.896   5.853
 8715POPC   GL148061  22.117  29.874   6.153
 8715POPC   GL248062  22.105  29.827   6.153
 8715POPC   C1A48063  22.140  29.887   6.453
 8715POPC   D2A48064  22.191  29.918   6.753
 8715POPC   C3A48065  22.187  29.959   7.053
 8715POPC   C4A48066  22.158  29.941   7.353
 8715POPC   C1B48067  21.926  29.781   6.453
 8715POPC   C2B48068  21.962  29.752   6.753
 8715POPC   C3B48069  22.001  29.788   7.053
 8715POPC   C4B48070  21.962  29.807   7.353
 8716POPC   NC348071   3.524  27.614   5.553
 8716POPC   PO448072   3.554  27.560   5.853
 8716POPC   GL148073   3.539  27.568   6.153
 8716POPC   GL248074   3.699  27.531   6.153
 8716POPC   C1A48075   3.572  27.555   6.453
 8716POPC   D2A48076   3.511  27.622   6.753
 8716POPC   C3A48077   3.589  27.594   7.053
 8716POPC   C4A48078   3.552  27.610   7.353
 8716POPC   C1B48079   3.789  27.500   6.453
 8716POPC   C2B48080   3.773  27.471   6.753
 8716POPC   C3B48081   3.826  27.517   7.053
 8716POPC   C4B48082   3.790  27.545   7.353
 8717POPC   NC348083  43.888  33.844   5.553
 8717POPC   PO448084  43.915  33.780   5.853
 8717POPC   GL148085  43.838  33.844   6.153
 8717POPC   GL248086  43.821  33.736   6.153
 8717POPC   C1A48087  43.867  33.811   6.453
 8717POPC   D2A48088  43.869  33.788   6.753
 8717POPC   C3A48089  43.866  33.755   7.053
 8717POPC   C4A48090  43.879  33.793   7.353
 8717POPC   C1B48091  43.760  33.631   6.453
 8717POPC   C2B48092  43.745  33.590   6.753
 8717POPC   C3B48093  43.707  33.653   7.053
 8717POPC   C4B48094  43.741  33.600   7.353
 8718POPC   NC348095  22.968  38.430   5.553
 8718POPC   PO448096  22.944  38.444   5.853
 8718POPC   GL148097  22.915  38.468   6.153
 8718POPC   GL248098  22.910  38.363   6.153
 8718POPC   C1A48099  22.911  38.430   6.453
 8718POPC   D2A48100  22.889  38.483   6.753
 8718POPC   C3A48101  22.953  38.427   7.053
 8718POPC   C4A48102  22.983  38.491   7.353
 8718POPC   C1B48103  22.933  38.180   6.453
 8718POPC   C2B48104  22.973  38.225   6.753
 8718POPC   C3B48105  22.983  38.252   7.053
 8718POPC   C4B48106  22.928  38.157   7.353
 8719POPC   NC348107  35.325  12.892   5.553
 8719POPC   PO448108  35.343  12.815   5.853
 8719POPC   GL148109  35.371  12.836   6.153
 8719POPC   GL248110  35.462  12.779   6.153
 8719POPC   C1A48111  35.310  12.885   6.453
 8719POPC   D2A48112  35.315  12.849   6.753
 8719POPC   C3A48113  35.333  12.842   7.053
 8719POPC   C4A48114  35.313  12.860   7.353
 8719POPC   C1B48115  35.593  12.829   6.453
 8719POPC   C2B48116  35.642  12.777   6.753
 8719POPC   C3B48117  35.603  12.791   7.053
 8719POPC   C4B48118  35.608  12.792   7.353
 8720POPC   NC348119  36.174  12.887   5.553
 8720POPC   PO448120  36.145  12.806   5.853
 8720POPC   GL148121  36.090  12.839   6.153
 8720POPC   GL248122  36.160  12.704   6.153
 8720POPC   C1A48123  36.153  12.828   6.453
 8720POPC   D2A48124  36.136  12.842   6.753
 8720POPC   C3A48125  36.083  12.843   7.053
 8720POPC   C4A48126  36.154  12.863   7.353
 8720POPC   C1B48127  36.265  12.625   6.453
 8720POPC   C2B48128  36.196  12.602   6.753
 8720POPC   C3B48129  36.205  12.644   7.053
 8720POPC   C4B48130  36.190  12.652   7.353
 8721POPC   NC348131  17.497   1.228   5.553
 8721POPC   PO448132  17.550   1.220   5.853
 8721POPC   GL148133  17.500   1.179   6.153
 8721POPC   GL248134  17.558   1.068   6.153
 8721POPC   C1A48135  17.459   1.225   6.453
 8721POPC   D2A48136  17.492   1.239   6.753
 8721POPC   C3A48137  17.467   1.256   7.053
 8721POPC   C4A48138  17.503   1.210   7.353
 8721POPC   C1B48139  17.691   0.991   6.453
 8721POPC   C2B48140  17.709   1.048   6.753
 8721POPC   C3B48141  17.697   0.995   7.053
 8721POPC   C4B48142  17.676   0.982   7.353
 8722POPC   NC348143   5.840  42.310   5.553
 8722POPC   PO448144   5.884  42.325   5.853
 8722POPC   GL148145   5.859  42.332   6.153
 8722POPC   GL248146   5.713  42.363   6.153
 8722POPC   C1A48147   5.865  42.344   6.453
 8722POPC   D2A48148   5.910  42.370   6.753
 8722POPC   C3A48149   5.837  42.322   7.053
 8722POPC   C4A48150   5.910  42.375   7.353
 8722POPC   C1B48151   5.641  42.340   6.453
 8722POPC   C2B48152   5.598  42.384   6.753
 8722POPC   C3B48153   5.576  42.420   7.053
 8722POPC   C4B48154   5.663  42.338   7.353
 8723POPC   NC348155  12.035   1.979   5.553
 8723POPC   PO448156  12.120   1.982   5.853
 8723POPC   GL148157  12.045   1.967   6.153
 8723POPC   GL248158  12.107   2.091   6.153
 8723POPC   C1A48159  12.077   2.009   6.453
 8723POPC   D2A48160  12.104   2.021   6.753
 8723POPC   C3A48161  12.097   1.963   7.053
 8723POPC   C4A48162  12.088   1.979   7.353
 8723POPC   C1B48163  12.273   2.211   6.453
 8723POPC   C2B48164  12.201   2.224   6.753
 8723POPC   C3B48165  12.225   2.171   7.053
 8723POPC   C4B48166  12.194   2.154   7.353
 8724POPC   NC348167  11.318  30.667   5.553
 8724POPC   PO448168  11.329  30.739   5.853
 8724POPC   GL148169  11.254  30.710   6.153
 8724POPC   GL248170  11.188  30.578   6.153
 8724POPC   C1A48171  11.270  30.736   6.453
 8724POPC   D2A48172  11.321  30.737   6.753
 8724POPC   C3A48173  11.319  30.691   7.053
 8724POPC   C4A48174  11.346  30.671   7.353
 8724POPC   C1B48175  11.081  30.473   6.453
 8724POPC   C2B48176  11.152  30.525   6.753
 8724POPC   C3B48177  11.174  30.559   7.053
 8724POPC   C4B48178  11.181  30.532   7.353
 8725POPC   NC348179   5.071   4.366   5.553
 8725POPC   PO448180   5.140   4.309   5.853
 8725POPC   GL148181   5.113   4.338   6.153
 8725POPC   GL248182   5.155   4.405   6.153
 8725POPC   C1A48183   5.106   4.325   6.453
 8725POPC   D2A48184   5.106   4.345   6.753
 8725POPC   C3A48185   5.140   4.298   7.053
 8725POPC   C4A48186   5.081   4.268   7.353
 8725POPC   C1B48187   5.251   4.529   6.453
 8725POPC   C2B48188   5.249   4.511   6.753
 8725POPC   C3B48189   5.296   4.443   7.053
 8725POPC   C4B48190   5.283   4.484   7.353
 8726POPC   NC348191  33.759  40.764   5.553
 8726POPC   PO448192  33.818  40.744   5.853
 8726POPC   GL148193  33.764  40.807   6.153
 8726POPC   GL248194  33.696  40.694   6.153
 8726POPC   C1A48195  33.783  40.770   6.453
 8726POPC   D2A48196  33.837  40.743   6.753
 8726POPC   C3A48197  33.797  40.808   7.053
 8726POPC   C4A48198  33.773  40.799   7.353
 8726POPC   C1B48199  33.554  40.678   6.453
 8726POPC   C2B48200  33.606  40.712   6.753
 8726POPC   C3B48201  33.589  40.643   7.053
 8726POPC   C4B48202  33.534  40.623   7.353
 8727POPC   NC348203  27.545  12.848   5.553
 8727POPC   PO448204  27.588  12.870   5.853
 8727POPC   GL148205  27.580  12.898   6.153
 8727POPC   GL248206  27.677  12.888   6.153
 8727POPC   C1A48207  27.558  12.860   6.453
 8727POPC   D2A48208  27.578  12.853   6.753
 8727POPC   C3A48209  27.585  12.831   7.053
 8727POPC   C4A48210  27.585  12.835   7.353
 8727POPC   C1B48211  27.750  12.983   6.453
 8727POPC   C2B48212  27.755  12.991   6.753
 8727POPC   C3B48213  27.800  12.971   7.053
 8727POPC   C4B48214  27.769  12.980   7.353
 8728POPC   NC348215  22.941  15.910   5.553
 8728POPC   PO448216  22.957  15.906   5.853
 8728POPC   GL148217  22.937  15.990   6.153
 8728POPC   GL248218  23.058  15.942   6.153
 8728POPC   C1A48219  22.947  15.937   6.453
 8728POPC   D2A48220  22.933  15.949   6.753
 8728POPC   C3A48221  22.948  15.910   7.053
 8728POPC   C4A48222  22.972  15.936   7.353
 8728POPC   C1B48223  23.141  15.905   6.453
 8728POPC   C2B48224  23.151  15.893   6.753
 8728POPC   C3B48225  23.162  15.869   7.053
 8728POPC   C4B48226  23.204  15.927   7.353
 8729POPC   NC348227  16.746  27.627   5.553
 8729POPC   PO448228  16.774  27.619   5.853
 8729POPC   GL148229  16.706  27.625   6.153
 8729POPC   GL248230  16.814  27.663   6.153
 8729POPC   C1A48231  16.751  27.641   6.453
 8729POPC   D2A48232  16.750  27.548   6.753
 8729POPC   C3A48233  16.692  27.595   7.053
 8729POPC   C4A48234  16.684  27.570   7.353
 8729POPC   C1B48235  16.987  27.724   6.453
 8729POPC   C2B48236  16.914  27.703   6.753
 8729POPC   C3B48237  16.973  27.694   7.053
 8729POPC   C4B48238  16.979  27.728   7.353
 8730POPC   NC348239  18.297  19.798   5.553
 8730POPC   PO448240  18.290  19.871   5.853
 8730POPC   GL148241  18.301  19.814   6.153
 8730POPC   GL248242  18.230  19.689   6.153
 8730POPC   C1A48243  18.246  19.880   6.453
 8730POPC   D2A48244  18.271  19.790   6.753
 8730POPC   C3A48245  18.280  19.791   7.053
 8730POPC   C4A48246  18.261  19.873   7.353
 8730POPC   C1B48247  18.226  19.631   6.453
 8730POPC   C2B48248  18.198  19.612   6.753
 8730POPC   C3B48249  18.205  19.592   7.053
 8730POPC   C4B48250  18.199  19.634   7.353
 8731POPC   NC348251   4.340   0.438   5.553
 8731POPC   PO448252   4.275   0.472   5.853
 8731POPC   GL148253   4.305   0.474   6.153
 8731POPC   GL248254   4.185   0.493   6.153
 8731POPC   C1A48255   4.270   0.432   6.453
 8731POPC   D2A48256   4.267   0.448   6.753
 8731POPC   C3A48257   4.304   0.398   7.053
 8731POPC   C4A48258   4.279   0.401   7.353
 8731POPC   C1B48259   4.059   0.402   6.453
 8731POPC   C2B48260   4.084   0.410   6.753
 8731POPC   C3B48261   4.085   0.430   7.053
 8731POPC   C4B48262   4.053   0.426   7.353
 8732POPC   NC348263  18.256  29.927   5.553
 8732POPC   PO448264  18.299  29.898   5.853
 8732POPC   GL148265  18.324  29.892   6.153
 8732POPC   GL248266  18.285  30.045   6.153
 8732POPC   C1A48267  18.298  29.924   6.453
 8732POPC   D2A48268  18.288  29.943   6.753
 8732POPC   C3A48269  18.235  29.894   7.053
 8732POPC   C4A48270  18.313  29.934   7.353
 8732POPC   C1B48271  18.308  30.168   6.453
 8732POPC   C2B48272  18.252  30.170   6.753
 8732POPC   C3B48273  18.242  30.209   7.053
 8732POPC   C4B48274  18.306  30.162   7.353
 8733POPC   NC348275  37.650  13.658   5.553
 8733POPC   PO448276  37.710  13.647   5.853
 8733POPC   GL148277  37.636  13.601   6.153
 8733POPC   GL248278  37.572  13.503   6.153
 8733POPC   C1A48279  37.685  13.598   6.453
 8733POPC   D2A48280  37.722  13.603   6.753
 8733POPC   C3A48281  37.641  13.621   7.053
 8733POPC   C4A48282  37.697  13.653   7.353
 8733POPC   C1B48283  37.481  13.447   6.453
 8733POPC   C2B48284  37.503  13.468   6.753
 8733POPC   C3B48285  37.482  13.424   7.053
 8733POPC   C4B48286  37.538  13.386   7.353
 8734POPC   NC348287  43.918  36.123   5.553
 8734POPC   PO448288  43.858  36.113   5.853
 8734POPC   GL148289  43.908  36.083   6.153
 8734POPC   GL248290  44.001  36.119   6.153
 8734POPC   C1A48291  43.863  36.122   6.453
 8734POPC   D2A48292  43.905  36.127   6.753
 8734POPC   C3A48293  43.860  36.121   7.053
 8734POPC   C4A48294  43.859  36.128   7.353
 8734POPC   C1B48295  44.180  36.152   6.453
 8734POPC   C2B48296  44.101  36.186   6.753
 8734POPC   C3B48297  44.106  36.209   7.053
 8734POPC   C4B48298  44.101  36.146   7.353
 8735POPC   NC348299  40.789  22.177   5.553
 8735POPC   PO448300  40.746  22.133   5.853
 8735POPC   GL148301  40.746  22.132   6.153
 8735POPC   GL248302  40.886  22.305   6.153
 8735POPC   C1A48303  40.790  22.146   6.453
 8735POPC   D2A48304  40.799  22.146   6.753
 8735POPC   C3A48305  40.800  22.113   7.053
 8735POPC   C4A48306  40.800  22.143   7.353
 8735POPC   C1B48307  40.864  22.389   6.453
 8735POPC   C2B48308  40.907  22.356   6.753
 8735POPC   C3B48309  40.916  22.342   7.053
 8735POPC   C4B48310  40.858  22.412   7.353
 8736POPC   NC348311  14.422  18.321   5.553
 8736POPC   PO448312  14.398  18.329   5.853
 8736POPC   GL148313  14.396  18.238   6.153
 8736POPC   GL248314  14.574  18.225   6.153
 8736POPC   C1A48315  14.452  18.260   6.453
 8736POPC   D2A48316  14.433  18.262   6.753
 8736POPC   C3A48317  14.374  18.301   7.053
 8736POPC   C4A48318  14.367  18.286   7.353
 8736POPC   C1B48319  14.632  18.220   6.453
 8736POPC   C2B48320  14.615  18.215   6.753
 8736POPC   C3B48321  14.665  18.261   7.053
 8736POPC   C4B48322  14.692  18.213   7.353
 8737POPC   NC348323  22.177  22.980   5.553
 8737POPC   PO448324  22.158  22.965   5.853
 8737POPC   GL148325  22.176  22.949   6.153
 8737POPC   GL248326  22.221  23.000   6.153
 8737POPC   C1A48327  22.205  22.958   6.453
 8737POPC   D2A48328  22.155  22.973   6.753
 8737POPC   C3A48329  22.180  22.958   7.053
 8737POPC   C4A48330  22.150  22.900   7.353
 8737POPC   C1B48331  22.416  23.032   6.453
 8737POPC   C2B48332  22.367  23.047   6.753
 8737POPC   C3B48333  22.395  23.043   7.053
 8737POPC   C4B48334  22.374  23.043   7.353
 8738POPC   NC348335   5.047  37.669   5.553
 8738POPC   PO448336   5.051  37.695   5.853
 8738POPC   GL148337   5.098  37.644   6.153
 8738POPC   GL248338   5.195  37.548   6.153
 8738POPC   C1A48339   5.100  37.721   6.453
 8738POPC   D2A48340   5.083  37.662   6.753
 8738POPC   C3A48341   5.076  37.712   7.053
 8738POPC   C4A48342   5.069  37.698   7.353
 8738POPC   C1B48343   5.219  37.457   6.453
 8738POPC   C2B48344   5.232  37.521   6.753
 8738POPC   C3B48345   5.254  37.487   7.053
 8738POPC   C4B48346   5.254  37.425   7.353
 8739POPC   NC348347  22.143  32.244   5.553
 8739POPC   PO448348  22.211  32.266   5.853
 8739POPC   GL148349  22.147  32.237   6.153
 8739POPC   GL248350  22.198  32.369   6.153
 8739POPC   C1A48351  22.137  32.269   6.453
 8739POPC   D2A48352  22.207  32.227   6.753
 8739POPC   C3A48353  22.167  32.258   7.053
 8739POPC   C4A48354  22.153  32.287   7.353
 8739POPC   C1B48355  22.323  32.472   6.453
 8739POPC   C2B48356  22.361  32.408   6.753
 8739POPC   C3B48357  22.317  32.430   7.053
 8739POPC   C4B48358  22.295  32.473   7.353
 8740POPC   NC348359   8.952   1.231   5.553
 8740POPC   PO448360   9.019   1.185   5.853
 8740POPC   GL148361   8.931   1.177   6.153
 8740POPC   GL248362   9.055   1.112   6.153
 8740POPC   C1A48363   9.016   1.166   6.453
 8740POPC   D2A48364   8.972   1.208   6.753
 8740POPC   C3A48365   8.976   1.167   7.053
 8740POPC   C4A48366   9.014   1.192   7.353
 8740POPC   C1B48367   9.004   0.931   6.453
 8740POPC   C2B48368   9.037   1.023   6.753
 8740POPC   C3B48369   9.065   0.992   7.053
 8740POPC   C4B48370   9.056   0.932   7.353
 8741POPC   NC348371  36.091  29.177   5.553
 8741POPC   PO448372  36.102  29.108   5.853
 8741POPC   GL148373  36.078  29.152   6.153
 8741POPC   GL248374  36.083  29.251   6.153
 8741POPC   C1A48375  36.168  29.190   6.453
 8741POPC   D2A48376  36.150  29.137   6.753
 8741POPC   C3A48377  36.098  29.166   7.053
 8741POPC   C4A48378  36.101  29.127   7.353
 8741POPC   C1B48379  35.987  29.356   6.453
 8741POPC   C2B48380  36.012  29.372   6.753
 8741POPC   C3B48381  35.950  29.382   7.053
 8741POPC   C4B48382  35.992  29.316   7.353
 8742POPC   NC348383  25.232  10.483   5.553
 8742POPC   PO448384  25.248  10.521   5.853
 8742POPC   GL148385  25.282  10.505   6.153
 8742POPC   GL248386  25.100  10.495   6.153
 8742POPC   C1A48387  25.222  10.526   6.453
 8742POPC   D2A48388  25.276  10.524   6.753
 8742POPC   C3A48389  25.288  10.511   7.053
 8742POPC   C4A48390  25.281  10.526   7.353
 8742POPC   C1B48391  25.059  10.519   6.453
 8742POPC   C2B48392  24.983  10.452   6.753
 8742POPC   C3B48393  25.038  10.472   7.053
 8742POPC   C4B48394  24.993  10.522   7.353
 8743POPC   NC348395  22.123  28.346   5.553
 8743POPC   PO448396  22.144  28.357   5.853
 8743POPC   GL148397  22.201  28.324   6.153
 8743POPC   GL248398  22.168  28.247   6.153
 8743POPC   C1A48399  22.135  28.369   6.453
 8743POPC   D2A48400  22.181  28.361   6.753
 8743POPC   C3A48401  22.168  28.358   7.053
 8743POPC   C4A48402  22.157  28.325   7.353
 8743POPC   C1B48403  22.168  28.090   6.453
 8743POPC   C2B48404  22.105  28.138   6.753
 8743POPC   C3B48405  22.154  28.143   7.053
 8743POPC   C4B48406  22.135  28.081   7.353
 8744POPC   NC348407  12.035  41.553   5.553
 8744POPC   PO448408  12.094  41.595   5.853
 8744POPC   GL148409  12.106  41.597   6.153
 8744POPC   GL248410  12.212  41.556   6.153
 8744POPC   C1A48411  12.060  41.608   6.453
 8744POPC   D2A48412  12.087  41.556   6.753
 8744POPC   C3A48413  12.037  41.520   7.053
 8744POPC   C4A48414  12.080  41.514   7.353
 8744POPC   C1B48415  12.319  41.483   6.453
 8744POPC   C2B48416  12.346  41.566   6.753
 8744POPC   C3B48417  12.346  41.534   7.053
 8744POPC   C4B48418  12.325  41.515   7.353
 8745POPC   NC348419  35.378  24.461   5.553
 8745POPC   PO448420  35.338  24.525   5.853
 8745POPC   GL148421  35.326  24.479   6.153
 8745POPC   GL248422  35.287  24.589   6.153
 8745POPC   C1A48423  35.389  24.451   6.453
 8745POPC   D2A48424  35.366  24.498   6.753
 8745POPC   C3A48425  35.336  24.513   7.053
 8745POPC   C4A48426  35.384  24.512   7.353
 8745POPC   C1B48427  35.361  24.698   6.453
 8745POPC   C2B48428  35.275  24.734   6.753
 8745POPC   C3B48429  35.336  24.725   7.053
 8745POPC   C4B48430  35.282  24.714   7.353
 8746POPC   NC348431  32.248  11.294   5.553
 8746POPC   PO448432  32.215  11.313   5.853
 8746POPC   GL148433  32.251  11.300   6.153
 8746POPC   GL248434  32.386  11.284   6.153
 8746POPC   C1A48435  32.293  11.317   6.453
 8746POPC   D2A48436  32.298  11.268   6.753
 8746POPC   C3A48437  32.207  11.321   7.053
 8746POPC   C4A48438  32.243  11.280   7.353
 8746POPC   C1B48439  32.500  11.268   6.453
 8746POPC   C2B48440  32.490  11.291   6.753
 8746POPC   C3B48441  32.469  11.344   7.053
 8746POPC   C4B48442  32.488  11.317   7.353
 8747POPC   NC348443   5.863  21.386   5.553
 8747POPC   PO448444   5.878  21.349   5.853
 8747POPC   GL148445   5.854  21.421   6.153
 8747POPC   GL248446   5.887  21.547   6.153
 8747POPC   C1A48447   5.858  21.360   6.453
 8747POPC   D2A48448   5.871  21.355   6.753
 8747POPC   C3A48449   5.823  21.410   7.053
 8747POPC   C4A48450   5.867  21.369   7.353
 8747POPC   C1B48451   5.912  21.653   6.453
 8747POPC   C2B48452   5.892  21.626   6.753
 8747POPC   C3B48453   5.858  21.599   7.053
 8747POPC   C4B48454   5.908  21.599   7.353
 8748POPC   NC348455  12.802  25.305   5.553
 8748POPC   PO448456  12.849  25.298   5.853
 8748POPC   GL148457  12.874  25.268   6.153
 8748POPC   GL248458  12.800  25.149   6.153
 8748POPC   C1A48459  12.803  25.314   6.453
 8748POPC   D2A48460  12.835  25.272   6.753
 8748POPC   C3A48461  12.863  25.233   7.053
 8748POPC   C4A48462  12.892  25.301   7.353
 8748POPC   C1B48463  12.650  25.081   6.453
 8748POPC   C2B48464  12.728  25.033   6.753
 8748POPC   C3B48465  12.694  25.036   7.053
 8748POPC   C4B48466  12.691  25.106   7.353
 8749POPC   NC348467  19.024   2.804   5.553
 8749POPC   PO448468  19.067   2.717   5.853
 8749POPC   GL148469  19.086   2.720   6.153
 8749POPC   GL248470  18.938   2.727   6.153
 8749POPC   C1A48471  19.086   2.812   6.453
 8749POPC   D2A48472  19.061   2.725   6.753
 8749POPC   C3A48473  19.079   2.769   7.053
 8749POPC   C4A48474  19.102   2.742   7.353
 8749POPC   C1B48475  18.808   2.690   6.453
 8749POPC   C2B48476  18.848   2.707   6.753
 8749POPC   C3B48477  18.783   2.676   7.053
 8749POPC   C4B48478  18.854   2.759   7.353
 8750POPC   NC348479  23.763  37.712   5.553
 8750POPC   PO448480  23.740  37.641   5.853
 8750POPC   GL148481  23.732  37.638   6.153
 8750POPC   GL248482  23.636  37.613   6.153
 8750POPC   C1A48483  23.679  37.688   6.453
 8750POPC   D2A48484  23.713  37.660   6.753
 8750POPC   C3A48485  23.759  37.705   7.053
 8750POPC   C4A48486  23.754  37.630   7.353
 8750POPC   C1B48487  23.502  37.457   6.453
 8750POPC   C2B48488  23.577  37.498   6.753
 8750POPC   C3B48489  23.576  37.501   7.053
 8750POPC   C4B48490  23.587  37.508   7.353
 8751POPC   NC348491   5.844  10.526   5.553
 8751POPC   PO448492   5.913  10.501   5.853
 8751POPC   GL148493   5.888  10.544   6.153
 8751POPC   GL248494   5.781  10.441   6.153
 8751POPC   C1A48495   5.904  10.557   6.453
 8751POPC   D2A48496   5.919  10.480   6.753
 8751POPC   C3A48497   5.881  10.510   7.053
 8751POPC   C4A48498   5.822  10.540   7.353
 8751POPC   C1B48499   5.795  10.317   6.453
 8751POPC   C2B48500   5.767  10.274   6.753
 8751POPC   C3B48501   5.779  10.254   7.053
 8751POPC   C4B48502   5.774  10.343   7.353
 8752POPC   NC348503  34.530   0.465   5.553
 8752POPC   PO448504  34.570   0.416   5.853
 8752POPC   GL148505  34.562   0.452   6.153
 8752POPC   GL248506  34.700   0.375   6.153
 8752POPC   C1A48507  34.564   0.390   6.453
 8752POPC   D2A48508  34.625   0.435   6.753
 8752POPC   C3A48509  34.584   0.481   7.053
 8752POPC   C4A48510  34.580   0.486   7.353
 8752POPC   C1B48511  34.829   0.390   6.453
 8752POPC   C2B48512  34.810   0.360   6.753
 8752POPC   C3B48513  34.788   0.329   7.053
 8752POPC   C4B48514  34.785   0.362   7.353
 8753POPC   NC348515  35.337  30.664   5.553
 8753POPC   PO448516  35.368  30.694   5.853
 8753POPC   GL148517  35.337  30.709   6.153
 8753POPC   GL248518  35.375  30.577   6.153
 8753POPC   C1A48519  35.323  30.732   6.453
 8753POPC   D2A48520  35.378  30.664   6.753
 8753POPC   C3A48521  35.328  30.720   7.053
 8753POPC   C4A48522  35.397  30.666   7.353
 8753POPC   C1B48523  35.416  30.408   6.453
 8753POPC   C2B48524  35.437  30.494   6.753
 8753POPC   C3B48525  35.426  30.447   7.053
 8753POPC   C4B48526  35.408  30.476   7.353
 8754POPC   NC348527   9.796  38.462   5.553
 8754POPC   PO448528   9.794  38.449   5.853
 8754POPC   GL148529   9.710  38.424   6.153
 8754POPC   GL248530   9.813  38.558   6.153
 8754POPC   C1A48531   9.744  38.428   6.453
 8754POPC   D2A48532   9.719  38.504   6.753
 8754POPC   C3A48533   9.779  38.503   7.053
 8754POPC   C4A48534   9.795  38.501   7.353
 8754POPC   C1B48535   9.967  38.558   6.453
 8754POPC   C2B48536   9.938  38.612   6.753
 8754POPC   C3B48537   9.990  38.624   7.053
 8754POPC   C4B48538   9.966  38.562   7.353
 8755POPC   NC348539  29.178   7.385   5.553
 8755POPC   PO448540  29.123   7.436   5.853
 8755POPC   GL148541  29.139   7.390   6.153
 8755POPC   GL248542  29.063   7.294   6.153
 8755POPC   C1A48543  29.136   7.406   6.453
 8755POPC   D2A48544  29.185   7.427   6.753
 8755POPC   C3A48545  29.147   7.406   7.053
 8755POPC   C4A48546  29.118   7.380   7.353
 8755POPC   C1B48547  28.942   7.242   6.453
 8755POPC   C2B48548  28.995   7.299   6.753
 8755POPC   C3B48549  29.000   7.270   7.053
 8755POPC   C4B48550  28.988   7.236   7.353
 8756POPC   NC348551  40.031  16.763   5.553
 8756POPC   PO448552  39.976  16.694   5.853
 8756POPC   GL148553  39.982  16.691   6.153
 8756POPC   GL248554  39.932  16.706   6.153
 8756POPC   C1A48555  39.981  16.692   6.453
 8756POPC   D2A48556  40.013  16.687   6.753
 8756POPC   C3A48557  39.994  16.735   7.053
 8756POPC   C4A48558  40.003  16.717   7.353
 8756POPC   C1B48559  39.710  16.668   6.453
 8756POPC   C2B48560  39.776  16.709   6.753
 8756POPC   C3B48561  39.789  16.658   7.053
 8756POPC   C4B48562  39.728  16.751   7.353
 8757POPC   NC348563  28.400   5.067   5.553
 8757POPC   PO448564  28.342   5.055   5.853
 8757POPC   GL148565  28.393   5.121   6.153
 8757POPC   GL248566  28.258   5.149   6.153
 8757POPC   C1A48567  28.397   5.055   6.453
 8757POPC   D2A48568  28.364   5.054   6.753
 8757POPC   C3A48569  28.398   5.046   7.053
 8757POPC   C4A48570  28.416   5.107   7.353
 8757POPC   C1B48571  28.093   5.177   6.453
 8757POPC   C2B48572  28.147   5.154   6.753
 8757POPC   C3B48573  28.121   5.171   7.053
 8757POPC   C4B48574  28.138   5.119   7.353
 8758POPC   NC348575  20.624  22.910   5.553
 8758POPC   PO448576  20.618  22.915   5.853
 8758POPC   GL148577  20.637  22.953   6.153
 8758POPC   GL248578  20.524  22.919   6.153
 8758POPC   C1A48579  20.619  22.982   6.453
 8758POPC   D2A48580  20.657  22.987   6.753
 8758POPC   C3A48581  20.646  22.957   7.053
 8758POPC   C4A48582  20.650  22.973   7.353
 8758POPC   C1B48583  20.331  22.887   6.453
 8758POPC   C2B48584  20.381  22.901   6.753
 8758POPC   C3B48585  20.338  22.822   7.053
 8758POPC   C4B48586  20.355  22.887   7.353
 8759POPC   NC348587  40.003   8.175   5.553
 8759POPC   PO448588  40.056   8.214   5.853
 8759POPC   GL148589  40.029   8.229   6.153
 8759POPC   GL248590  40.130   8.099   6.153
 8759POPC   C1A48591  40.053   8.173   6.453
 8759POPC   D2A48592  40.002   8.216   6.753
 8759POPC   C3A48593  39.973   8.147   7.053
 8759POPC   C4A48594  39.974   8.208   7.353
 8759POPC   C1B48595  40.170   8.101   6.453
 8759POPC   C2B48596  40.240   8.013   6.753
 8759POPC   C3B48597  40.225   8.084   7.053
 8759POPC   C4B48598  40.212   8.078   7.353
 8760POPC   NC348599  18.296  39.272   5.553
 8760POPC   PO448600  18.320  39.198   5.853
 8760POPC   GL148601  18.238  39.224   6.153
 8760POPC   GL248602  18.124  39.223   6.153
 8760POPC   C1A48603  18.249  39.274   6.453
 8760POPC   D2A48604  18.313  39.241   6.753
 8760POPC   C3A48605  18.237  39.208   7.053
 8760POPC   C4A48606  18.329  39.188   7.353
 8760POPC   C1B48607  18.009  39.268   6.453
 8760POPC   C2B48608  18.045  39.274   6.753
 8760POPC   C3B48609  18.007  39.312   7.053
 8760POPC   C4B48610  18.000  39.287   7.353
 8761POPC   NC348611  12.895  12.071   5.553
 8761POPC   PO448612  12.898  12.113   5.853
 8761POPC   GL148613  12.898  12.051   6.153
 8761POPC   GL248614  12.717  12.025   6.153
 8761POPC   C1A48615  12.844  12.113   6.453
 8761POPC   D2A48616  12.824  12.061   6.753
 8761POPC   C3A48617  12.843  12.097   7.053
 8761POPC   C4A48618  12.878  12.030   7.353
 8761POPC   C1B48619  12.597  12.067   6.453
 8761POPC   C2B48620  12.646  12.074   6.753
 8761POPC   C3B48621  12.571  12.064   7.053
 8761POPC   C4B48622  12.591  12.085   7.353
 8762POPC   NC348623   1.972  10.556   5.553
 8762POPC   PO448624   1.994  10.551   5.853
 8762POPC   GL148625   2.001  10.571   6.153
 8762POPC   GL248626   2.067  10.514   6.153
 8762POPC   C1A48627   1.955  10.491   6.453
 8762POPC   D2A48628   1.950  10.568   6.753
 8762POPC   C3A48629   1.961  10.512   7.053
 8762POPC   C4A48630   1.976  10.507   7.353
 8762POPC   C1B48631   2.252  10.484   6.453
 8762POPC   C2B48632   2.239  10.521   6.753
 8762POPC   C3B48633   2.191  10.503   7.053
 8762POPC   C4B48634   2.278  10.512   7.353
 8763POPC   NC348635  29.945  24.458   5.553
 8763POPC   PO448636  29.963  24.513   5.853
 8763POPC   GL148637  29.891  24.529   6.153
 8763POPC   GL248638  29.947  24.368   6.153
 8763POPC   C1A48639  29.938  24.480   6.453
 8763POPC   D2A48640  29.876  24.512   6.753
 8763POPC   C3A48641  29.944  24.481   7.053
 8763POPC   C4A48642  29.962  24.498   7.353
 8763POPC   C1B48643  30.082  24.320   6.453
 8763POPC   C2B48644  30.037  24.287   6.753
 8763POPC   C3B48645  30.025  24.249   7.053
 8763POPC   C4B48646  30.068  24.245   7.353
 8764POPC   NC348647   9.013  36.868   5.553
 8764POPC   PO448648   9.018  36.921   5.853
 8764POPC   GL148649   9.005  36.860   6.153
 8764POPC   GL248650   8.952  36.783   6.153
 8764POPC   C1A48651   8.964  36.874   6.453
 8764POPC   D2A48652   9.014  36.855   6.753
 8764POPC   C3A48653   8.968  36.864   7.053
 8764POPC   C4A48654   8.988  36.883   7.353
 8764POPC   C1B48655   8.950  36.611   6.453
 8764POPC   C2B48656   8.887  36.676   6.753
 8764POPC   C3B48657   8.915  36.646   7.053
 8764POPC   C4B48658   8.925  36.675   7.353
 8765POPC   NC348659  40.042  30.650   5.553
 8765POPC   PO448660  40.040  30.741   5.853
 8765POPC   GL148661  40.019  30.648   6.153
 8765POPC   GL248662  39.881  30.588   6.153
 8765POPC   C1A48663  39.963  30.676   6.453
 8765POPC   D2A48664  40.025  30.655   6.753
 8765POPC   C3A48665  39.977  30.732   7.053
 8765POPC   C4A48666  40.035  30.678   7.353
 8765POPC   C1B48667  39.841  30.558   6.453
 8765POPC   C2B48668  39.846  30.501   6.753
 8765POPC   C3B48669  39.879  30.539   7.053
 8765POPC   C4B48670  39.800  30.546   7.353
 8766POPC   NC348671   6.631  17.470   5.553
 8766POPC   PO448672   6.632  17.486   5.853
 8766POPC   GL148673   6.640  17.550   6.153
 8766POPC   GL248674   6.665  17.377   6.153
 8766POPC   C1A48675   6.634  17.461   6.453
 8766POPC   D2A48676   6.648  17.543   6.753
 8766POPC   C3A48677   6.658  17.550   7.053
 8766POPC   C4A48678   6.666  17.477   7.353
 8766POPC   C1B48679   6.612  17.252   6.453
 8766POPC   C2B48680   6.640  17.263   6.753
 8766POPC   C3B48681   6.624  17.241   7.053
 8766POPC   C4B48682   6.618  17.254   7.353
 8767POPC   NC348683   1.946  40.790   5.553
 8767POPC   PO448684   2.028  40.768   5.853
 8767POPC   GL148685   2.029  40.771   6.153
 8767POPC   GL248686   1.967  40.692   6.153
 8767POPC   C1A48687   1.975  40.790   6.453
 8767POPC   D2A48688   1.999  40.750   6.753
 8767POPC   C3A48689   2.031  40.810   7.053
 8767POPC   C4A48690   1.977  40.770   7.353
 8767POPC   C1B48691   1.983  40.501   6.453
 8767POPC   C2B48692   1.968  40.545   6.753
 8767POPC   C3B48693   2.001  40.506   7.053
 8767POPC   C4B48694   1.921  40.495   7.353
 8768POPC   NC348695   8.995  19.022   5.553
 8768POPC   PO448696   8.980  19.037   5.853
 8768POPC   GL148697   9.013  19.100   6.153
 8768POPC   GL248698   9.124  19.120   6.153
 8768POPC   C1A48699   9.017  19.029   6.453
 8768POPC   D2A48700   8.949  19.086   6.753
 8768POPC   C3A48701   8.984  19.021   7.053
 8768POPC   C4A48702   9.005  19.094   7.353
 8768POPC   C1B48703   9.202  19.235   6.453
 8768POPC   C2B48704   9.202  19.185   6.753
 8768POPC   C3B48705   9.218  19.242   7.053
 8768POPC   C4B48706   9.164  19.192   7.353
 8769POPC   NC348707  37.639  36.120   5.553
 8769POPC   PO448708  37.729  36.112   5.853
 8769POPC   GL148709  37.659  36.157   6.153
 8769POPC   GL248710  37.829  36.157   6.153
 8769POPC   C1A48711  37.715  36.118   6.453
 8769POPC   D2A48712  37.667  36.122   6.753
 8769POPC   C3A48713  37.686  36.089   7.053
 8769POPC   C4A48714  37.715  36.119   7.353
 8769POPC   C1B48715  37.880  36.174   6.453
 8769POPC   C2B48716  37.966  36.229   6.753
 8769POPC   C3B48717  37.946  36.216   7.053
 8769POPC   C4B48718  37.879  36.218   7.353
 8770POPC   NC348719  18.276  20.590   5.553
 8770POPC   PO448720  18.271  20.572   5.853
 8770POPC   GL148721  18.313  20.648   6.153
 8770POPC   GL248722  18.213  20.551   6.153
 8770POPC   C1A48723  18.267  20.605   6.453
 8770POPC   D2A48724  18.286  20.595   6.753
 8770POPC   C3A48725  18.260  20.568   7.053
 8770POPC   C4A48726  18.260  20.637   7.353
 8770POPC   C1B48727  18.048  20.567   6.453
 8770POPC   C2B48728  18.069  20.550   6.753
 8770POPC   C3B48729  18.042  20.572   7.053
 8770POPC   C4B48730  18.022  20.530   7.353
 8771POPC   NC348731   1.258  11.316   5.553
 8771POPC   PO448732   1.176  11.281   5.853
 8771POPC   GL148733   1.190  11.350   6.153
 8771POPC   GL248734   1.129  11.145   6.153
 8771POPC   C1A48735   1.207  11.262   6.453
 8771POPC   D2A48736   1.256  11.323   6.753
 8771POPC   C3A48737   1.208  11.338   7.053
 8771POPC   C4A48738   1.226  11.337   7.353
 8771POPC   C1B48739   1.127  11.028   6.453
 8771POPC   C2B48740   1.152  11.030   6.753
 8771POPC   C3B48741   1.133  11.041   7.053
 8771POPC   C4B48742   1.095  11.100   7.353
 8772POPC   NC348743  32.979  10.567   5.553
 8772POPC   PO448744  33.041  10.506   5.853
 8772POPC   GL148745  33.016  10.548   6.153
 8772POPC   GL248746  32.906  10.481   6.153
 8772POPC   C1A48747  33.051  10.541   6.453
 8772POPC   D2A48748  33.058  10.512   6.753
 8772POPC   C3A48749  33.040  10.549   7.053
 8772POPC   C4A48750  32.995  10.545   7.353
 8772POPC   C1B48751  32.736  10.517   6.453
 8772POPC   C2B48752  32.734  10.497   6.753
 8772POPC   C3B48753  32.762  10.526   7.053
 8772POPC   C4B48754  32.791  10.538   7.353
 8773POPC   NC348755  32.222  10.529   5.553
 8773POPC   PO448756  32.241  10.527   5.853
 8773POPC   GL148757  32.221  10.517   6.153
 8773POPC   GL248758  32.277  10.659   6.153
 8773POPC   C1A48759  32.227  10.569   6.453
 8773POPC   D2A48760  32.294  10.506   6.753
 8773POPC   C3A48761  32.244  10.529   7.053
 8773POPC   C4A48762  32.203  10.525   7.353
 8773POPC   C1B48763  32.263  10.804   6.453
 8773POPC   C2B48764  32.250  10.802   6.753
 8773POPC   C3B48765  32.232  10.790   7.053
 8773POPC   C4B48766  32.288  10.737   7.353
 8774POPC   NC348767   2.741  40.750   5.553
 8774POPC   PO448768   2.735  40.768   5.853
 8774POPC   GL148769   2.717  40.819   6.153
 8774POPC   GL248770   2.768  40.863   6.153
 8774POPC   C1A48771   2.719  40.806   6.453
 8774POPC   D2A48772   2.790  40.778   6.753
 8774POPC   C3A48773   2.795  40.762   7.053
 8774POPC   C4A48774   2.717  40.807   7.353
 8774POPC   C1B48775   2.806  41.069   6.453
 8774POPC   C2B48776   2.821  41.038   6.753
 8774POPC   C3B48777   2.841  41.006   7.053
 8774POPC   C4B48778   2.846  41.032   7.353
 8775POPC   NC348779  37.675  28.374   5.553
 8775POPC   PO448780  37.682  28.413   5.853
 8775POPC   GL148781  37.651  28.407   6.153
 8775POPC   GL248782  37.581  28.436   6.153
 8775POPC   C1A48783  37.693  28.397   6.453
 8775POPC   D2A48784  37.702  28.381   6.753
 8775POPC   C3A48785  37.687  28.362   7.053
 8775POPC   C4A48786  37.687  28.394   7.353
 8775POPC   C1B48787  37.439  28.452   6.453
 8775POPC   C2B48788  37.415  28.458   6.753
 8775POPC   C3B48789  37.415  28.479   7.053
 8775POPC   C4B48790  37.483  28.457   7.353
 8776POPC   NC348791   1.960   0.423   5.553
 8776POPC   PO448792   1.993   0.448   5.853
 8776POPC   GL148793   1.967   0.454   6.153
 8776POPC   GL248794   2.014   0.316   6.153
 8776POPC   C1A48795   1.946   0.472   6.453
 8776POPC   D2A48796   2.020   0.452   6.753
 8776POPC   C3A48797   1.949   0.402   7.053
 8776POPC   C4A48798   1.955   0.466   7.353
 8776POPC   C1B48799   2.041   0.247   6.453
 8776POPC   C2B48800   2.052   0.221   6.753
 8776POPC   C3B48801   2.061   0.214   7.053
 8776POPC   C4B48802   2.097   0.254   7.353
 8777POPC   NC348803  19.800   1.202   5.553
 8777POPC   PO448804  19.821   1.176   5.853
 8777POPC   GL148805  19.816   1.183   6.153
 8777POPC   GL248806  19.806   1.288   6.153
 8777POPC   C1A48807  19.859   1.234   6.453
 8777POPC   D2A48808  19.786   1.211   6.753
 8777POPC   C3A48809  19.793   1.261   7.053
 8777POPC   C4A48810  19.872   1.253   7.353
 8777POPC   C1B48811  19.750   1.403   6.453
 8777POPC   C2B48812  19.704   1.424   6.753
 8777POPC   C3B48813  19.781   1.445   7.053
 8777POPC   C4B48814  19.784   1.440   7.353
 8778POPC   NC348815   5.085  12.893   5.553
 8778POPC   PO448816   5.112  12.857   5.853
 8778POPC   GL148817   5.122  12.826   6.153
 8778POPC   GL248818   5.016  12.910   6.153
 8778POPC   C1A48819   5.079  12.810   6.453
 8778POPC   D2A48820   5.123  12.867   6.753
 8778POPC   C3A48821   5.099  12.817   7.053
 8778POPC   C4A48822   5.047  12.895   7.353
 8778POPC   C1B48823   4.837  12.879   6.453
 8778POPC   C2B48824   4.813  12.831   6.753
 8778POPC   C3B48825   4.820  12.835   7.053
 8778POPC   C4B48826   4.894  12.855   7.353
 8779POPC   NC348827  40.755   5.081   5.553
 8779POPC   PO448828  40.822   5.118   5.853
 8779POPC   GL148829  40.746   5.131   6.153
 8779POPC   GL248830  40.855   4.951   6.153
 8779POPC   C1A48831  40.752   5.134   6.453
 8779POPC   D2A48832  40.786   5.065   6.753
 8779POPC   C3A48833  40.754   5.064   7.053
 8779POPC   C4A48834  40.773   5.077   7.353
 8779POPC   C1B48835  40.921   4.832   6.453
 8779POPC   C2B48836  40.870   4.884   6.753
 8779POPC   C3B48837  40.889   4.885   7.053
 8779POPC   C4B48838  40.863   4.861   7.353
 8780POPC   NC348839  41.602  18.244   5.553
 8780POPC   PO448840  41.561  18.322   5.853
 8780POPC   GL148841  41.544  18.244   6.153
 8780POPC   GL248842  41.486  18.295   6.153
 8780POPC   C1A48843  41.585  18.239   6.453
 8780POPC   D2A48844  41.532  18.241   6.753
 8780POPC   C3A48845  41.573  18.254   7.053
 8780POPC   C4A48846  41.550  18.286   7.353
 8780POPC   C1B48847  41.315  18.390   6.453
 8780POPC   C2B48848  41.295  18.426   6.753
 8780POPC   C3B48849  41.291  18.398   7.053
 8780POPC   C4B48850  41.313  18.330   7.353
 8781POPC   NC348851  14.453  44.621   5.553
 8781POPC   PO448852  14.361  44.681   5.853
 8781POPC   GL148853  14.412  44.639   6.153
 8781POPC   GL248854  14.472  44.730   6.153
 8781POPC   C1A48855  14.387  44.659   6.453
 8781POPC   D2A48856  14.369  44.631   6.753
 8781POPC   C3A48857  14.404  44.668   7.053
 8781POPC   C4A48858  14.356  44.618   7.353
 8781POPC   C1B48859  14.619  44.755   6.453
 8781POPC   C2B48860  14.613  44.710   6.753
 8781POPC   C3B48861  14.659  44.769   7.053
 8781POPC   C4B48862  14.592  44.788   7.353
 8782POPC   NC348863  19.009  36.918   5.553
 8782POPC   PO448864  19.011  36.948   5.853
 8782POPC   GL148865  19.108  36.944   6.153
 8782POPC   GL248866  18.964  36.943   6.153
 8782POPC   C1A48867  19.095  36.941   6.453
 8782POPC   D2A48868  19.057  36.942   6.753
 8782POPC   C3A48869  19.103  36.889   7.053
 8782POPC   C4A48870  19.083  36.904   7.353
 8782POPC   C1B48871  18.821  36.920   6.453
 8782POPC   C2B48872  18.823  36.880   6.753
 8782POPC   C3B48873  18.810  36.922   7.053
 8782POPC   C4B48874  18.823  36.944   7.353
 8783POPC   NC348875   2.010  43.845   5.553
 8783POPC   PO448876   2.016  43.848   5.853
 8783POPC   GL148877   1.982  43.918   6.153
 8783POPC   GL248878   2.057  44.004   6.153
 8783POPC   C1A48879   2.018  43.873   6.453
 8783POPC   D2A48880   2.010  43.845   6.753
 8783POPC   C3A48881   1.968  43.886   7.053
 8783POPC   C4A48882   1.984  43.934   7.353
 8783POPC   C1B48883   2.010  44.172   6.453
 8783POPC   C2B48884   2.057  44.145   6.753
 8783POPC   C3B48885   2.087  44.153   7.053
 8783POPC   C4B48886   2.026  44.176   7.353
 8784POPC   NC348887  37.699   2.806   5.553
 8784POPC   PO448888  37.721   2.755   5.853
 8784POPC   GL148889  37.715   2.784   6.153
 8784POPC   GL248890  37.550   2.754   6.153
 8784POPC   C1A48891  37.726   2.742   6.453
 8784POPC   D2A48892  37.708   2.732   6.753
 8784POPC   C3A48893  37.673   2.738   7.053
 8784POPC   C4A48894  37.649   2.812   7.353
 8784POPC   C1B48895  37.407   2.699   6.453
 8784POPC   C2B48896  37.438   2.767   6.753
 8784POPC   C3B48897  37.462   2.688   7.053
 8784POPC   C4B48898  37.454   2.736   7.353
 8785POPC   NC348899  18.292  10.512   5.553
 8785POPC   PO448900  18.275  10.500   5.853
 8785POPC   GL148901  18.260  10.549   6.153
 8785POPC   GL248902  18.210  10.604   6.153
 8785POPC   C1A48903  18.314  10.475   6.453
 8785POPC   D2A48904  18.265  10.540   6.753
 8785POPC   C3A48905  18.250  10.544   7.053
 8785POPC   C4A48906  18.249  10.544   7.353
 8785POPC   C1B48907  18.163  10.751   6.453
 8785POPC   C2B48908  18.190  10.778   6.753
 8785POPC   C3B48909  18.219  10.779   7.053
 8785POPC   C4B48910  18.150  10.770   7.353
 8786POPC   NC348911  37.694  12.074   5.553
 8786POPC   PO448912  37.681  12.077   5.853
 8786POPC   GL148913  37.719  12.075   6.153
 8786POPC   GL248914  37.689  11.951   6.153
 8786POPC   C1A48915  37.666  12.102   6.453
 8786POPC   D2A48916  37.675  12.099   6.753
 8786POPC   C3A48917  37.679  12.068   7.053
 8786POPC   C4A48918  37.660  12.109   7.353
 8786POPC   C1B48919  37.661  11.832   6.453
 8786POPC   C2B48920  37.655  11.857   6.753
 8786POPC   C3B48921  37.675  11.809   7.053
 8786POPC   C4B48922  37.651  11.844   7.353
 8787POPC   NC348923  30.694  41.542   5.553
 8787POPC   PO448924  30.683  41.594   5.853
 8787POPC   GL148925  30.678  41.583   6.153
 8787POPC   GL248926  30.590  41.603   6.153
 8787POPC   C1A48927  30.676  41.552   6.453
 8787POPC   D2A48928  30.651  41.601   6.753
 8787POPC   C3A48929  30.706  41.536   7.053
 8787POPC   C4A48930  30.718  41.589   7.353
 8787POPC   C1B48931  30.405  41.527   6.453
 8787POPC   C2B48932  30.436  41.582   6.753
 8787POPC   C3B48933  30.431  41.597   7.053
 8787POPC   C4B48934  30.496  41.562   7.353
 8788POPC   NC348935   8.234  18.255   5.553
 8788POPC   PO448936   8.166  18.325   5.853
 8788POPC   GL148937   8.163  18.276   6.153
 8788POPC   GL248938   8.182  18.417   6.153
 8788POPC   C1A48939   8.153  18.327   6.453
 8788POPC   D2A48940   8.234  18.246   6.753
 8788POPC   C3A48941   8.150  18.311   7.053
 8788POPC   C4A48942   8.243  18.253   7.353
 8788POPC   C1B48943   8.264  18.507   6.453
 8788POPC   C2B48944   8.303  18.550   6.753
 8788POPC   C3B48945   8.262  18.531   7.053
 8788POPC   C4B48946   8.300  18.489   7.353
 8789POPC   NC348947  16.698  24.502   5.553
 8789POPC   PO448948  16.750  24.466   5.853
 8789POPC   GL148949  16.683  24.497   6.153
 8789POPC   GL248950  16.836  24.342   6.153
 8789POPC   C1A48951  16.719  24.448   6.453
 8789POPC   D2A48952  16.757  24.520   6.753
 8789POPC   C3A48953  16.751  24.458   7.053
 8789POPC   C4A48954  16.775  24.496   7.353
 8789POPC   C1B48955  16.849  24.303   6.453
 8789POPC   C2B48956  16.914  24.271   6.753
 8789POPC   C3B48957  16.913  24.286   7.053
 8789POPC   C4B48958  16.894  24.235   7.353
 8790POPC   NC348959  15.150   1.998   5.553
 8790POPC   PO448960  15.176   2.009   5.853
 8790POPC   GL148961  15.135   1.973   6.153
 8790POPC   GL248962  15.251   1.891   6.153
 8790POPC   C1A48963  15.141   2.039   6.453
 8790POPC   D2A48964  15.202   1.955   6.753
 8790POPC   C3A48965  15.154   2.003   7.053
 8790POPC   C4A48966  15.217   1.953   7.353
 8790POPC   C1B48967  15.269   1.705   6.453
 8790POPC   C2B48968  15.269   1.728   6.753
 8790POPC   C3B48969  15.298   1.768   7.053
 8790POPC   C4B48970  15.289   1.734   7.353
 8791POPC   NC348971  26.855  33.016   5.553
 8791POPC   PO448972  26.840  33.032   5.853
 8791POPC   GL148973  26.805  32.994   6.153
 8791POPC   GL248974  26.862  33.179   6.153
 8791POPC   C1A48975  26.806  33.023   6.453
 8791POPC   D2A48976  26.816  33.062   6.753
 8791POPC   C3A48977  26.781  33.022   7.053
 8791POPC   C4A48978  26.859  33.025   7.353
 8791POPC   C1B48979  26.884  33.245   6.453
 8791POPC   C2B48980  26.922  33.247   6.753
 8791POPC   C3B48981  26.882  33.259   7.053
 8791POPC   C4B48982  26.880  33.233   7.353
 8792POPC   NC348983  30.697  40.828   5.553
 8792POPC   PO448984  30.667  40.770   5.853
 8792POPC   GL148985  30.704  40.798   6.153
 8792POPC   GL248986  30.609  40.667   6.153
 8792POPC   C1A48987  30.715  40.747   6.453
 8792POPC   D2A48988  30.735  40.796   6.753
 8792POPC   C3A48989  30.647  40.816   7.053
 8792POPC   C4A48990  30.704  40.797   7.353
 8792POPC   C1B48991  30.530  40.686   6.453
 8792POPC   C2B48992  30.473  40.629   6.753
 8792POPC   C3B48993  30.535  40.626   7.053
 8792POPC   C4B48994  30.453  40.686   7.353
 8793POPC   NC348995   8.152  12.070   5.553
 8793POPC   PO448996   8.204  12.118   5.853
 8793POPC   GL148997   8.185  12.073   6.153
 8793POPC   GL248998   8.046  12.007   6.153
 8793POPC   C1A48999   8.170  12.082   6.453
 8793POPC   D2A49000   8.233  12.090   6.753
 8793POPC   C3A49001   8.171  12.068   7.053
 8793POPC   C4A49002   8.183  12.076   7.353
 8793POPC   C1B49003   8.001  11.915   6.453
 8793POPC   C2B49004   8.017  11.923   6.753
 8793POPC   C3B49005   7.937  11.922   7.053
 8793POPC   C4B49006   7.979  11.995   7.353
 8794POPC   NC349007  39.206  37.637   5.553
 8794POPC   PO449008  39.207  37.649   5.853
 8794POPC   GL149009  39.230  37.672   6.153
 8794POPC   GL249010  39.101  37.728   6.153
 8794POPC   C1A49011  39.260  37.720   6.453
 8794POPC   D2A49012  39.192  37.720   6.753
 8794POPC   C3A49013  39.269  37.652   7.053
 8794POPC   C4A49014  39.237  37.706   7.353
 8794POPC   C1B49015  39.017  37.712   6.453
 8794POPC   C2B49016  38.964  37.711   6.753
 8794POPC   C3B49017  38.963  37.757   7.053
 8794POPC   C4B49018  38.982  37.746   7.353
 8795POPC   NC349019  15.215   8.979   5.553
 8795POPC   PO449020  15.197   8.991   5.853
 8795POPC   GL149021  15.222   8.987   6.153
 8795POPC   GL249022  15.106   8.914   6.153
 8795POPC   C1A49023  15.212   9.009   6.453
 8795POPC   D2A49024  15.196   8.955   6.753
 8795POPC   C3A49025  15.149   9.020   7.053
 8795POPC   C4A49026  15.156   8.954   7.353
 8795POPC   C1B49027  15.023   8.767   6.453
 8795POPC   C2B49028  15.056   8.796   6.753
 8795POPC   C3B49029  14.985   8.760   7.053
 8795POPC   C4B49030  15.035   8.734   7.353
 8796POPC   NC349031  32.284  43.936   5.553
 8796POPC   PO449032  32.228  43.896   5.853
 8796POPC   GL149033  32.274  43.932   6.153
 8796POPC   GL249034  32.139  43.867   6.153
 8796POPC   C1A49035  32.253  43.856   6.453
 8796POPC   D2A49036  32.266  43.921   6.753
 8796POPC   C3A49037  32.213  43.883   7.053
 8796POPC   C4A49038  32.288  43.935   7.353
 8796POPC   C1B49039  32.044  43.945   6.453
 8796POPC   C2B49040  32.033  43.942   6.753
 8796POPC   C3B49041  31.953  43.938   7.053
 8796POPC   C4B49042  31.977  43.920   7.353
 8797POPC   NC349043  26.002  17.501   5.553
 8797POPC   PO449044  26.066  17.508   5.853
 8797POPC   GL149045  26.035  17.520   6.153
 8797POPC   GL249046  25.955  17.514   6.153
 8797POPC   C1A49047  26.081  17.556   6.453
 8797POPC   D2A49048  26.038  17.544   6.753
 8797POPC   C3A49049  26.070  17.534   7.053
 8797POPC   C4A49050  26.078  17.506   7.353
 8797POPC   C1B49051  25.755  17.492   6.453
 8797POPC   C2B49052  25.745  17.580   6.753
 8797POPC   C3B49053  25.782  17.569   7.053
 8797POPC   C4B49054  25.770  17.523   7.353
 8798POPC   NC349055  13.593  33.056   5.553
 8798POPC   PO449056  13.617  33.072   5.853
 8798POPC   GL149057  13.635  33.027   6.153
 8798POPC   GL249058  13.730  32.966   6.153
 8798POPC   C1A49059  13.584  33.032   6.453
 8798POPC   D2A49060  13.664  33.028   6.753
 8798POPC   C3A49061  13.643  33.009   7.053
 8798POPC   C4A49062  13.598  32.980   7.353
 8798POPC   C1B49063  13.795  32.805   6.453
 8798POPC   C2B49064  13.808  32.875   6.753
 8798POPC   C3B49065  13.798  32.830   7.053
 8798POPC   C4B49066  13.782  32.794   7.353
 8799POPC   NC349067  19.031  10.528   5.553
 8799POPC   PO449068  19.047  10.534   5.853
 8799POPC   GL149069  19.065  10.547   6.153
 8799POPC   GL249070  18.910  10.557   6.153
 8799POPC   C1A49071  19.030  10.506   6.453
 8799POPC   D2A49072  19.030  10.489   6.753
 8799POPC   C3A49073  19.030  10.501   7.053
 8799POPC   C4A49074  19.081  10.485   7.353
 8799POPC   C1B49075  18.869  10.689   6.453
 8799POPC   C2B49076  18.854  10.661   6.753
 8799POPC   C3B49077  18.857  10.668   7.053
 8799POPC   C4B49078  18.807  10.703   7.353
 8800POPC   NC349079  40.809  44.630   5.553
 8800POPC   PO449080  40.744  44.622   5.853
 8800POPC   GL149081  40.758  44.673   6.153
 8800POPC   GL249082  40.639  44.634   6.153
 8800POPC   C1A49083  40.761  44.676   6.453
 8800POPC   D2A49084  40.750  44.683   6.753
 8800POPC   C3A49085  40.803  44.675   7.053
 8800POPC   C4A49086  40.797  44.666   7.353
 8800POPC   C1B49087  40.518  44.633   6.453
 8800POPC   C2B49088  40.549  44.577   6.753
 8800POPC   C3B49089  40.495  44.607   7.053
 8800POPC   C4B49090  40.502  44.652   7.353
 8801POPC   NC349091   4.360  40.006   5.553
 8801POPC   PO449092   4.274  40.046   5.853
 8801POPC   GL149093   4.298  40.047   6.153
 8801POPC   GL249094   4.218  39.903   6.153
 8801POPC   C1A49095   4.309  40.030   6.453
 8801POPC   D2A49096   4.360  39.957   6.753
 8801POPC   C3A49097   4.295  39.980   7.053
 8801POPC   C4A49098   4.333  40.032   7.353
 8801POPC   C1B49099   4.160  39.833   6.453
 8801POPC   C2B49100   4.184  39.788   6.753
 8801POPC   C3B49101   4.190  39.782   7.053
 8801POPC   C4B49102   4.182  39.850   7.353
 8802POPC   NC349103   3.525  32.215   5.553
 8802POPC   PO449104   3.544  32.250   5.853
 8802POPC   GL149105   3.540  32.215   6.153
 8802POPC   GL249106   3.687  32.282   6.153
 8802POPC   C1A49107   3.537  32.278   6.453
 8802POPC   D2A49108   3.520  32.279   6.753
 8802POPC   C3A49109   3.580  32.234   7.053
 8802POPC   C4A49110   3.575  32.242   7.353
 8802POPC   C1B49111   3.704  32.363   6.453
 8802POPC   C2B49112   3.730  32.354   6.753
 8802POPC   C3B49113   3.720  32.413   7.053
 8802POPC   C4B49114   3.800  32.416   7.353
 8803POPC   NC349115  30.737  33.808   5.553
 8803POPC   PO449116  30.657  33.790   5.853
 8803POPC   GL149117  30.648  33.782   6.153
 8803POPC   GL249118  30.817  33.750   6.153
 8803POPC   C1A49119  30.662  33.770   6.453
 8803POPC   D2A49120  30.697  33.836   6.753
 8803POPC   C3A49121  30.729  33.842   7.053
 8803POPC   C4A49122  30.741  33.773   7.353
 8803POPC   C1B49123  30.940  33.669   6.453
 8803POPC   C2B49124  30.924  33.756   6.753
 8803POPC   C3B49125  30.975  33.753   7.053
 8803POPC   C4B49126  30.971  33.709   7.353
 8804POPC   NC349127   1.232  29.951   5.553
 8804POPC   PO449128   1.257  29.944   5.853
 8804POPC   GL149129   1.231  29.902   6.153
 8804POPC   GL249130   1.165  30.049   6.153
 8804POPC   C1A49131   1.199  29.875   6.453
 8804POPC   D2A49132   1.201  29.935   6.753
 8804POPC   C3A49133   1.195  29.951   7.053
 8804POPC   C4A49134   1.185  29.919   7.353
 8804POPC   C1B49135   1.087  30.096   6.453
 8804POPC   C2B49136   1.069  30.180   6.753
 8804POPC   C3B49137   1.094  30.134   7.053
 8804POPC   C4B49138   1.120  30.172   7.353
 8805POPC   NC349139  44.705   1.179   5.553
 8805POPC   PO449140  44.680   1.259   5.853
 8805POPC   GL149141  44.700   1.205   6.153
 8805POPC   GL249142  44.655   1.106   6.153
 8805POPC   C1A49143  44.617   1.258   6.453
 8805POPC   D2A49144  44.636   1.250   6.753
 8805POPC   C3A49145  44.632   1.198   7.053
 8805POPC   C4A49146  44.627   1.164   7.353
 8805POPC   C1B49147  44.644   1.004   6.453
 8805POPC   C2B49148  44.655   1.016   6.753
 8805POPC   C3B49149  44.585   0.975   7.053
 8805POPC   C4B49150  44.623   0.919   7.353
 8806POPC   NC349151  43.895  42.287   5.553
 8806POPC   PO449152  43.907  42.323   5.853
 8806POPC   GL149153  43.892  42.327   6.153
 8806POPC   GL249154  43.721  42.351   6.153
 8806POPC   C1A49155  43.873  42.311   6.453
 8806POPC   D2A49156  43.891  42.328   6.753
 8806POPC   C3A49157  43.920  42.346   7.053
 8806POPC   C4A49158  43.902  42.379   7.353
 8806POPC   C1B49159  43.673  42.267   6.453
 8806POPC   C2B49160  43.604  42.292   6.753
 8806POPC   C3B49161  43.600  42.341   7.053
 8806POPC   C4B49162  43.673  42.281   7.353
 8807POPC   NC349163  11.286  25.248   5.553
 8807POPC   PO449164  11.331  25.257   5.853
 8807POPC   GL149165  11.330  25.251   6.153
 8807POPC   GL249166  11.444  25.155   6.153
 8807POPC   C1A49167  11.280  25.278   6.453
 8807POPC   D2A49168  11.280  25.279   6.753
 8807POPC   C3A49169  11.322  25.266   7.053
 8807POPC   C4A49170  11.258  25.288   7.353
 8807POPC   C1B49171  11.530  25.116   6.453
 8807POPC   C2B49172  11.521  25.121   6.753
 8807POPC   C3B49173  11.462  25.131   7.053
 8807POPC   C4B49174  11.519  25.131   7.353
 8808POPC   NC349175  26.800  44.656   5.553
 8808POPC   PO449176  26.838  44.678   5.853
 8808POPC   GL149177  26.787  44.617   6.153
 8808POPC   GL249178  26.740  44.668   6.153
 8808POPC   C1A49179  26.792  44.668   6.453
 8808POPC   D2A49180  26.811  44.663   6.753
 8808POPC   C3A49181  26.856  44.699   7.053
 8808POPC   C4A49182  26.855  44.692   7.353
 8808POPC   C1B49183  26.617  44.628   6.453
 8808POPC   C2B49184  26.526  44.680   6.753
 8808POPC   C3B49185  26.559  44.677   7.053
 8808POPC   C4B49186  26.543  44.653   7.353
 8809POPC   NC349187   0.458  27.548   5.553
 8809POPC   PO449188   0.429  27.582   5.853
 8809POPC   GL149189   0.410  27.615   6.153
 8809POPC   GL249190   0.516  27.617   6.153
 8809POPC   C1A49191   0.485  27.585   6.453
 8809POPC   D2A49192   0.392  27.584   6.753
 8809POPC   C3A49193   0.397  27.549   7.053
 8809POPC   C4A49194   0.444  27.614   7.353
 8809POPC   C1B49195   0.664  27.783   6.453
 8809POPC   C2B49196   0.642  27.728   6.753
 8809POPC   C3B49197   0.664  27.780   7.053
 8809POPC   C4B49198   0.687  27.692   7.353
 8810POPC   NC349199   3.528  22.891   5.553
 8810POPC   PO449200   3.510  22.983   5.853
 8810POPC   GL149201   3.495  22.909   6.153
 8810POPC   GL249202   3.466  23.029   6.153
 8810POPC   C1A49203   3.529  22.956   6.453
 8810POPC   D2A49204   3.496  22.960   6.753
 8810POPC   C3A49205   3.573  22.902   7.053
 8810POPC   C4A49206   3.516  22.891   7.353
 8810POPC   C1B49207   3.477  23.174   6.453
 8810POPC   C2B49208   3.388  23.119   6.753
 8810POPC   C3B49209   3.441  23.204   7.053
 8810POPC   C4B49210   3.411  23.179   7.353
 8811POPC   NC349211  36.868   1.235   5.553
 8811POPC   PO449212  36.891   1.216   5.853
 8811POPC   GL149213  36.916   1.255   6.153
 8811POPC   GL249214  36.759   1.157   6.153
 8811POPC   C1A49215  36.866   1.195   6.453
 8811POPC   D2A49216  36.888   1.235   6.753
 8811POPC   C3A49217  36.872   1.238   7.053
 8811POPC   C4A49218  36.886   1.206   7.353
 8811POPC   C1B49219  36.611   1.157   6.453
 8811POPC   C2B49220  36.654   1.130   6.753
 8811POPC   C3B49221  36.673   1.189   7.053
 8811POPC   C4B49222  36.630   1.125   7.353
 8812POPC   NC349223  31.474   4.330   5.553
 8812POPC   PO449224  31.494   4.279   5.853
 8812POPC   GL149225  31.458   4.334   6.153
 8812POPC   GL249226  31.452   4.166   6.153
 8812POPC   C1A49227  31.440   4.296   6.453
 8812POPC   D2A49228  31.512   4.300   6.753
 8812POPC   C3A49229  31.432   4.279   7.053
 8812POPC   C4A49230  31.503   4.365   7.353
 8812POPC   C1B49231  31.478   4.109   6.453
 8812POPC   C2B49232  31.524   4.051   6.753
 8812POPC   C3B49233  31.448   4.071   7.053
 8812POPC   C4B49234  31.529   4.076   7.353
 8813POPC   NC349235   4.324  13.632   5.553
 8813POPC   PO449236   4.287  13.656   5.853
 8813POPC   GL149237   4.366  13.603   6.153
 8813POPC   GL249238   4.223  13.553   6.153
 8813POPC   C1A49239   4.343  13.666   6.453
 8813POPC   D2A49240   4.297  13.626   6.753
 8813POPC   C3A49241   4.307  13.642   7.053
 8813POPC   C4A49242   4.309  13.622   7.353
 8813POPC   C1B49243   4.083  13.472   6.453
 8813POPC   C2B49244   4.139  13.461   6.753
 8813POPC   C3B49245   4.136  13.512   7.053
 8813POPC   C4B49246   4.100  13.492   7.353
 8814POPC   NC349247   2.034  26.836   5.553
 8814POPC   PO449248   1.992  26.843   5.853
 8814POPC   GL149249   1.941  26.774   6.153
 8814POPC   GL249250   1.839  26.847   6.153
 8814POPC   C1A49251   1.956  26.797   6.453
 8814POPC   D2A49252   1.983  26.841   6.753
 8814POPC   C3A49253   1.994  26.811   7.053
 8814POPC   C4A49254   2.011  26.811   7.353
 8814POPC   C1B49255   1.783  26.798   6.453
 8814POPC   C2B49256   1.763  26.821   6.753
 8814POPC   C3B49257   1.734  26.861   7.053
 8814POPC   C4B49258   1.735  26.832   7.353
 8815POPC   NC349259   1.252   6.604   5.553
 8815POPC   PO449260   1.205   6.661   5.853
 8815POPC   GL149261   1.181   6.634   6.153
 8815POPC   GL249262   1.126   6.716   6.153
 8815POPC   C1A49263   1.171   6.598   6.453
 8815POPC   D2A49264   1.249   6.661   6.753
 8815POPC   C3A49265   1.212   6.603   7.053
 8815POPC   C4A49266   1.229   6.647   7.353
 8815POPC   C1B49267   1.069   6.876   6.453
 8815POPC   C2B49268   1.095   6.892   6.753
 8815POPC   C3B49269   1.075   6.884   7.053
 8815POPC   C4B49270   1.058   6.895   7.353
 8816POPC   NC349271  19.814  25.223   5.553
 8816POPC   PO449272  19.855  25.230   5.853
 8816POPC   GL149273  19.817  25.243   6.153
 8816POPC   GL249274  19.858  25.190   6.153
 8816POPC   C1A49275  19.814  25.285   6.453
 8816POPC   D2A49276  19.863  25.294   6.753
 8816POPC   C3A49277  19.879  25.271   7.053
 8816POPC   C4A49278  19.834  25.229   7.353
 8816POPC   C1B49279  19.947  25.056   6.453
 8816POPC   C2B49280  19.966  25.082   6.753
 8816POPC   C3B49281  19.921  25.023   7.053
 8816POPC   C4B49282  19.954  25.036   7.353
 8817POPC   NC349283  39.239  17.489   5.553
 8817POPC   PO449284  39.242  17.494   5.853
 8817POPC   GL149285  39.231  17.493   6.153
 8817POPC   GL249286  39.220  17.592   6.153
 8817POPC   C1A49287  39.243  17.473   6.453
 8817POPC   D2A49288  39.263  17.505   6.753
 8817POPC   C3A49289  39.207  17.482   7.053
 8817POPC   C4A49290  39.249  17.484   7.353
 8817POPC   C1B49291  39.244  17.753   6.453
 8817POPC   C2B49292  39.282  17.726   6.753
 8817POPC   C3B49293  39.291  17.704   7.053
 8817POPC   C4B49294  39.247  17.789   7.353
 8818POPC   NC349295  15.995  28.401   5.553
 8818POPC   PO449296  15.942  28.378   5.853
 8818POPC   GL149297  15.994  28.327   6.153
 8818POPC   GL249298  15.801  28.379   6.153
 8818POPC   C1A49299  15.998  28.409   6.453
 8818POPC   D2A49300  15.944  28.403   6.753
 8818POPC   C3A49301  15.990  28.377   7.053
 8818POPC   C4A49302  15.922  28.417   7.353
 8818POPC   C1B49303  15.707  28.355   6.453
 8818POPC   C2B49304  15.738  28.332   6.753
 8818POPC   C3B49305  15.742  28.336   7.053
 8818POPC   C4B49306  15.708  28.348   7.353
 8819POPC   NC349307  12.097  28.342   5.553
 8819POPC   PO449308  12.086  28.341   5.853
 8819POPC   GL149309  12.099  28.393   6.153
 8819POPC   GL249310  12.154  28.309   6.153
 8819POPC   C1A49311  12.109  28.410   6.453
 8819POPC   D2A49312  12.055  28.365   6.753
 8819POPC   C3A49313  12.055  28.387   7.053
 8819POPC   C4A49314  12.111  28.395   7.353
 8819POPC   C1B49315  12.304  28.218   6.453
 8819POPC   C2B49316  12.341  28.244   6.753
 8819POPC   C3B49317  12.285  28.253   7.053
 8819POPC   C4B49318  12.339  28.268   7.353
 8820POPC   NC349319   5.857  24.475   5.553
 8820POPC   PO449320   5.877  24.511   5.853
 8820POPC   GL149321   5.865  24.525   6.153
 8820POPC   GL249322   5.823  24.397   6.153
 8820POPC   C1A49323   5.893  24.455   6.453
 8820POPC   D2A49324   5.828  24.513   6.753
 8820POPC   C3A49325   5.832  24.502   7.053
 8820POPC   C4A49326   5.838  24.477   7.353
 8820POPC   C1B49327   5.842  24.201   6.453
 8820POPC   C2B49328   5.805  24.227   6.753
 8820POPC   C3B49329   5.786  24.283   7.053
 8820POPC   C4B49330   5.803  24.234   7.353
 8821POPC   NC349331  37.654  18.264   5.553
 8821POPC   PO449332  37.704  18.250   5.853
 8821POPC   GL149333  37.725  18.241   6.153
 8821POPC   GL249334  37.580  18.301   6.153
 8821POPC   C1A49335  37.680  18.300   6.453
 8821POPC   D2A49336  37.658  18.241   6.753
 8821POPC   C3A49337  37.686  18.246   7.053
 8821POPC   C4A49338  37.656  18.243   7.353
 8821POPC   C1B49339  37.481  18.264   6.453
 8821POPC   C2B49340  37.391  18.199   6.753
 8821POPC   C3B49341  37.462  18.227   7.053
 8821POPC   C4B49342  37.419  18.219   7.353
 8822POPC   NC349343  34.563  18.301   5.553
 8822POPC   PO449344  34.565  18.312   5.853
 8822POPC   GL149345  34.624  18.266   6.153
 8822POPC   GL249346  34.584  18.419   6.153
 8822POPC   C1A49347  34.534  18.272   6.453
 8822POPC   D2A49348  34.578  18.304   6.753
 8822POPC   C3A49349  34.577  18.312   7.053
 8822POPC   C4A49350  34.540  18.237   7.353
 8822POPC   C1B49351  34.643  18.526   6.453
 8822POPC   C2B49352  34.729  18.463   6.753
 8822POPC   C3B49353  34.724  18.489   7.053
 8822POPC   C4B49354  34.704  18.531   7.353
 8823POPC   NC349355  20.630  28.371   5.553
 8823POPC   PO449356  20.638  28.366   5.853
 8823POPC   GL149357  20.599  28.376   6.153
 8823POPC   GL249358  20.657  28.230   6.153
 8823POPC   C1A49359  20.625  28.370   6.453
 8823POPC   D2A49360  20.623  28.319   6.753
 8823POPC   C3A49361  20.649  28.360   7.053
 8823POPC   C4A49362  20.651  28.362   7.353
 8823POPC   C1B49363  20.749  28.199   6.453
 8823POPC   C2B49364  20.799  28.220   6.753
 8823POPC   C3B49365  20.801  28.172   7.053
 8823POPC   C4B49366  20.782  28.137   7.353
 8824POPC   NC349367  21.388  29.176   5.553
 8824POPC   PO449368  21.430  29.128   5.853
 8824POPC   GL149369  21.397  29.184   6.153
 8824POPC   GL249370  21.484  29.250   6.153
 8824POPC   C1A49371  21.366  29.101   6.453
 8824POPC   D2A49372  21.419  29.189   6.753
 8824POPC   C3A49373  21.401  29.130   7.053
 8824POPC   C4A49374  21.397  29.108   7.353
 8824POPC   C1B49375  21.507  29.309   6.453
 8824POPC   C2B49376  21.494  29.314   6.753
 8824POPC   C3B49377  21.526  29.370   7.053
 8824POPC   C4B49378  21.561  29.297   7.353
 8825POPC   NC349379   3.575  34.598   5.553
 8825POPC   PO449380   3.568  34.538   5.853
 8825POPC   GL149381   3.547  34.540   6.153
 8825POPC   GL249382   3.471  34.640   6.153
 8825POPC   C1A49383   3.528  34.602   6.453
 8825POPC   D2A49384   3.531  34.571   6.753
 8825POPC   C3A49385   3.548  34.617   7.053
 8825POPC   C4A49386   3.528  34.543   7.353
 8825POPC   C1B49387   3.452  34.809   6.453
 8825POPC   C2B49388   3.375  34.839   6.753
 8825POPC   C3B49389   3.370  34.768   7.053
 8825POPC   C4B49390   3.396  34.783   7.353
 8826POPC   NC349391  26.003  13.651   5.553
 8826POPC   PO449392  26.052  13.671   5.853
 8826POPC   GL149393  26.072  13.628   6.153
 8826POPC   GL249394  26.070  13.542   6.153
 8826POPC   C1A49395  26.029  13.636   6.453
 8826POPC   D2A49396  26.002  13.581   6.753
 8826POPC   C3A49397  25.996  13.655   7.053
 8826POPC   C4A49398  26.052  13.606   7.353
 8826POPC   C1B49399  26.193  13.454   6.453
 8826POPC   C2B49400  26.225  13.371   6.753
 8826POPC   C3B49401  26.147  13.369   7.053
 8826POPC   C4B49402  26.151  13.398   7.353
 8827POPC   NC349403  28.386  35.353   5.553
 8827POPC   PO449404  28.405  35.315   5.853
 8827POPC   GL149405  28.340  35.383   6.153
 8827POPC   GL249406  28.263  35.410   6.153
 8827POPC   C1A49407  28.406  35.317   6.453
 8827POPC   D2A49408  28.374  35.366   6.753
 8827POPC   C3A49409  28.376  35.321   7.053
 8827POPC   C4A49410  28.327  35.309   7.353
 8827POPC   C1B49411  28.140  35.468   6.453
 8827POPC   C2B49412  28.191  35.423   6.753
 8827POPC   C3B49413  28.176  35.465   7.053
 8827POPC   C4B49414  28.170  35.439   7.353
 8828POPC   NC349415   6.627  13.619   5.553
 8828POPC   PO449416   6.630  13.612   5.853
 8828POPC   GL149417   6.595  13.634   6.153
 8828POPC   GL249418   6.800  13.613   6.153
 8828POPC   C1A49419   6.617  13.592   6.453
 8828POPC   D2A49420   6.612  13.652   6.753
 8828POPC   C3A49421   6.595  13.654   7.053
 8828POPC   C4A49422   6.642  13.650   7.353
 8828POPC   C1B49423   6.870  13.497   6.453
 8828POPC   C2B49424   6.833  13.483   6.753
 8828POPC   C3B49425   6.898  13.521   7.053
 8828POPC   C4B49426   6.889  13.537   7.353
 8829POPC   NC349427  40.016  38.486   5.553
 8829POPC   PO449428  40.030  38.495   5.853
 8829POPC   GL149429  40.016  38.440   6.153
 8829POPC   GL249430  40.147  38.567   6.153
 8829POPC   C1A49431  40.015  38.493   6.453
 8829POPC   D2A49432  40.057  38.409   6.753
 8829POPC   C3A49433  39.967  38.426   7.053
 8829POPC   C4A49434  40.053  38.444   7.353
 8829POPC   C1B49435  40.240  38.641   6.453
 8829POPC   C2B49436  40.155  38.590   6.753
 8829POPC   C3B49437  40.238  38.602   7.053
 8829POPC   C4B49438  40.164  38.566   7.353
 8830POPC   NC349439  42.357  24.450   5.553
 8830POPC   PO449440  42.355  24.474   5.853
 8830POPC   GL149441  42.321  24.460   6.153
 8830POPC   GL249442  42.271  24.429   6.153
 8830POPC   C1A49443  42.317  24.534   6.453
 8830POPC   D2A49444  42.333  24.526   6.753
 8830POPC   C3A49445  42.329  24.465   7.053
 8830POPC   C4A49446  42.321  24.454   7.353
 8830POPC   C1B49447  42.107  24.355   6.453
 8830POPC   C2B49448  42.152  24.343   6.753
 8830POPC   C3B49449  42.111  24.359   7.053
 8830POPC   C4B49450  42.172  24.304   7.353
 8831POPC   NC349451  43.093  35.359   5.553
 8831POPC   PO449452  43.131  35.357   5.853
 8831POPC   GL149453  43.094  35.341   6.153
 8831POPC   GL249454  43.184  35.389   6.153
 8831POPC   C1A49455  43.067  35.374   6.453
 8831POPC   D2A49456  43.150  35.350   6.753
 8831POPC   C3A49457  43.116  35.304   7.053
 8831POPC   C4A49458  43.137  35.377   7.353
 8831POPC   C1B49459  43.279  35.513   6.453
 8831POPC   C2B49460  43.358  35.507   6.753
 8831POPC   C3B49461  43.291  35.468   7.053
 8831POPC   C4B49462  43.353  35.452   7.353
 8832POPC   NC349463  38.445  33.760   5.553
 8832POPC   PO449464  38.459  33.819   5.853
 8832POPC   GL149465  38.429  33.777   6.153
 8832POPC   GL249466  38.435  33.966   6.153
 8832POPC   C1A49467  38.461  33.805   6.453
 8832POPC   D2A49468  38.447  33.768   6.753
 8832POPC   C3A49469  38.448  33.819   7.053
 8832POPC   C4A49470  38.486  33.789   7.353
 8832POPC   C1B49471  38.357  34.032   6.453
 8832POPC   C2B49472  38.415  34.040   6.753
 8832POPC   C3B49473  38.432  34.012   7.053
 8832POPC   C4B49474  38.385  34.023   7.353
 8833POPC   NC349475  16.688  22.152   5.553
 8833POPC   PO449476  16.773  22.187   5.853
 8833POPC   GL149477  16.700  22.139   6.153
 8833POPC   GL249478  16.611  22.021   6.153
 8833POPC   C1A49479  16.714  22.124   6.453
 8833POPC   D2A49480  16.708  22.208   6.753
 8833POPC   C3A49481  16.744  22.172   7.053
 8833POPC   C4A49482  16.706  22.136   7.353
 8833POPC   C1B49483  16.525  21.942   6.453
 8833POPC   C2B49484  16.537  21.931   6.753
 8833POPC   C3B49485  16.551  21.930   7.053
 8833POPC   C4B49486  16.583  21.972   7.353
 8834POPC   NC349487   5.088   8.974   5.553
 8834POPC   PO449488   5.118   8.976   5.853
 8834POPC   GL149489   5.108   8.930   6.153
 8834POPC   GL249490   5.096   8.854   6.153
 8834POPC   C1A49491   5.077   8.997   6.453
 8834POPC   D2A49492   5.117   8.965   6.753
 8834POPC   C3A49493   5.077   8.948   7.053
 8834POPC   C4A49494   5.070   8.972   7.353
 8834POPC   C1B49495   5.092   8.771   6.453
 8834POPC   C2B49496   5.038   8.751   6.753
 8834POPC   C3B49497   5.093   8.713   7.053
 8834POPC   C4B49498   5.079   8.680   7.353
 8835POPC   NC349499   2.756  36.904   5.553
 8835POPC   PO449500   2.748  36.870   5.853
 8835POPC   GL149501   2.730  36.859   6.153
 8835POPC   GL249502   2.619  36.878   6.153
 8835POPC   C1A49503   2.803  36.874   6.453
 8835POPC   D2A49504   2.743  36.855   6.753
 8835POPC   C3A49505   2.725  36.865   7.053
 8835POPC   C4A49506   2.776  36.886   7.353
 8835POPC   C1B49507   2.468  36.908   6.453
 8835POPC   C2B49508   2.505  36.920   6.753
 8835POPC   C3B49509   2.497  36.866   7.053
 8835POPC   C4B49510   2.523  36.920   7.353
 8836POPC   NC349511  27.636   1.967   5.553
 8836POPC   PO449512  27.574   2.021   5.853
 8836POPC   GL149513  27.600   1.964   6.153
 8836POPC   GL249514  27.498   2.043   6.153
 8836POPC   C1A49515  27.624   1.956   6.453
 8836POPC   D2A49516  27.611   1.965   6.753
 8836POPC   C3A49517  27.562   1.952   7.053
 8836POPC   C4A49518  27.597   2.023   7.353
 8836POPC   C1B49519  27.306   2.020   6.453
 8836POPC   C2B49520  27.334   1.986   6.753
 8836POPC   C3B49521  27.370   1.994   7.053
 8836POPC   C4B49522  27.327   2.015   7.353
 8837POPC   NC349523  15.173   4.289   5.553
 8837POPC   PO449524  15.159   4.293   5.853
 8837POPC   GL149525  15.184   4.302   6.153
 8837POPC   GL249526  15.194   4.478   6.153
 8837POPC   C1A49527  15.181   4.314   6.453
 8837POPC   D2A49528  15.205   4.268   6.753
 8837POPC   C3A49529  15.180   4.306   7.053
 8837POPC   C4A49530  15.198   4.361   7.353
 8837POPC   C1B49531  15.095   4.547   6.453
 8837POPC   C2B49532  15.165   4.528   6.753
 8837POPC   C3B49533  15.117   4.519   7.053
 8837POPC   C4B49534  15.104   4.568   7.353
 8838POPC   NC349535  36.163  34.559   5.553
 8838POPC   PO449536  36.175  34.557   5.853
 8838POPC   GL149537  36.128  34.583   6.153
 8838POPC   GL249538  36.034  34.498   6.153
 8838POPC   C1A49539  36.087  34.536   6.453
 8838POPC   D2A49540  36.164  34.609   6.753
 8838POPC   C3A49541  36.165  34.611   7.053
 8838POPC   C4A49542  36.162  34.553   7.353
 8838POPC   C1B49543  35.924  34.479   6.453
 8838POPC   C2B49544  35.901  34.532   6.753
 8838POPC   C3B49545  35.894  34.533   7.053
 8838POPC   C4B49546  35.892  34.540   7.353
 8839POPC   NC349547  35.373  41.592   5.553
 8839POPC   PO449548  35.366  41.573   5.853
 8839POPC   GL149549  35.332  41.515   6.153
 8839POPC   GL249550  35.467  41.534   6.153
 8839POPC   C1A49551  35.369  41.596   6.453
 8839POPC   D2A49552  35.359  41.589   6.753
 8839POPC   C3A49553  35.399  41.530   7.053
 8839POPC   C4A49554  35.346  41.534   7.353
 8839POPC   C1B49555  35.595  41.595   6.453
 8839POPC   C2B49556  35.579  41.556   6.753
 8839POPC   C3B49557  35.591  41.533   7.053
 8839POPC   C4B49558  35.556  41.575   7.353
 8840POPC   NC349559   1.987  43.158   5.553
 8840POPC   PO449560   1.967  43.095   5.853
 8840POPC   GL149561   1.941  43.144   6.153
 8840POPC   GL249562   2.045  42.978   6.153
 8840POPC   C1A49563   1.998  43.088   6.453
 8840POPC   D2A49564   1.993  43.146   6.753
 8840POPC   C3A49565   2.037  43.144   7.053
 8840POPC   C4A49566   1.995  43.069   7.353
 8840POPC   C1B49567   2.057  42.854   6.453
 8840POPC   C2B49568   2.088  42.847   6.753
 8840POPC   C3B49569   2.019  42.864   7.053
 8840POPC   C4B49570   2.061  42.868   7.353
 8841POPC   NC349571   8.165  13.581   5.553
 8841POPC   PO449572   8.198  13.617   5.853
 8841POPC   GL149573   8.225  13.578   6.153
 8841POPC   GL249574   8.301  13.613   6.153
 8841POPC   C1A49575   8.233  13.659   6.453
 8841POPC   D2A49576   8.211  13.677   6.753
 8841POPC   C3A49577   8.160  13.666   7.053
 8841POPC   C4A49578   8.168  13.639   7.353
 8841POPC   C1B49579   8.461  13.618   6.453
 8841POPC   C2B49580   8.400  13.713   6.753
 8841POPC   C3B49581   8.478  13.633   7.053
 8841POPC   C4B49582   8.424  13.636   7.353
 8842POPC   NC349583  24.453  15.976   5.553
 8842POPC   PO449584  24.508  15.993   5.853
 8842POPC   GL149585  24.442  15.929   6.153
 8842POPC   GL249586  24.604  15.842   6.153
 8842POPC   C1A49587  24.440  16.004   6.453
 8842POPC   D2A49588  24.506  15.997   6.753
 8842POPC   C3A49589  24.490  15.947   7.053
 8842POPC   C4A49590  24.481  15.947   7.353
 8842POPC   C1B49591  24.671  15.772   6.453
 8842POPC   C2B49592  24.646  15.795   6.753
 8842POPC   C3B49593  24.657  15.828   7.053
 8842POPC   C4B49594  24.697  15.769   7.353
 8843POPC   NC349595  29.193  15.205   5.553
 8843POPC   PO449596  29.176  15.143   5.853
 8843POPC   GL149597  29.132  15.157   6.153
 8843POPC   GL249598  29.081  15.240   6.153
 8843POPC   C1A49599  29.100  15.136   6.453
 8843POPC   D2A49600  29.177  15.165   6.753
 8843POPC   C3A49601  29.100  15.201   7.053
 8843POPC   C4A49602  29.099  15.212   7.353
 8843POPC   C1B49603  28.980  15.404   6.453
 8843POPC   C2B49604  28.989  15.409   6.753
 8843POPC   C3B49605  29.031  15.443   7.053
 8843POPC   C4B49606  29.046  15.389   7.353
 8844POPC   NC349607   8.217  38.504   5.553
 8844POPC   PO449608   8.208  38.485   5.853
 8844POPC   GL149609   8.206  38.417   6.153
 8844POPC   GL249610   8.360  38.451   6.153
 8844POPC   C1A49611   8.224  38.430   6.453
 8844POPC   D2A49612   8.191  38.493   6.753
 8844POPC   C3A49613   8.223  38.481   7.053
 8844POPC   C4A49614   8.239  38.482   7.353
 8844POPC   C1B49615   8.474  38.355   6.453
 8844POPC   C2B49616   8.473  38.392   6.753
 8844POPC   C3B49617   8.489  38.379   7.053
 8844POPC   C4B49618   8.467  38.352   7.353
 8845POPC   NC349619  36.944  18.306   5.553
 8845POPC   PO449620  36.916  18.330   5.853
 8845POPC   GL149621  36.951  18.314   6.153
 8845POPC   GL249622  36.826  18.171   6.153
 8845POPC   C1A49623  36.945  18.272   6.453
 8845POPC   D2A49624  36.871  18.304   6.753
 8845POPC   C3A49625  36.938  18.279   7.053
 8845POPC   C4A49626  36.870  18.249   7.353
 8845POPC   C1B49627  36.758  18.058   6.453
 8845POPC   C2B49628  36.789  18.107   6.753
 8845POPC   C3B49629  36.723  18.072   7.053
 8845POPC   C4B49630  36.797  18.050   7.353
 8846POPC   NC349631  43.133   4.289   5.553
 8846POPC   PO449632  43.139   4.332   5.853
 8846POPC   GL149633  43.101   4.319   6.153
 8846POPC   GL249634  43.021   4.418   6.153
 8846POPC   C1A49635  43.063   4.276   6.453
 8846POPC   D2A49636  43.105   4.355   6.753
 8846POPC   C3A49637  43.121   4.300   7.053
 8846POPC   C4A49638  43.069   4.325   7.353
 8846POPC   C1B49639  42.875   4.472   6.453
 8846POPC   C2B49640  42.937   4.465   6.753
 8846POPC   C3B49641  42.939   4.505   7.053
 8846POPC   C4B49642  42.954   4.512   7.353
 8847POPC   NC349643  12.816  27.632   5.553
 8847POPC   PO449644  12.901  27.604   5.853
 8847POPC   GL149645  12.889  27.629   6.153
 8847POPC   GL249646  12.983  27.669   6.153
 8847POPC   C1A49647  12.815  27.595   6.453
 8847POPC   D2A49648  12.871  27.619   6.753
 8847POPC   C3A49649  12.817  27.611   7.053
 8847POPC   C4A49650  12.834  27.555   7.353
 8847POPC   C1B49651  13.003  27.801   6.453
 8847POPC   C2B49652  12.979  27.802   6.753
 8847POPC   C3B49653  12.999  27.814   7.053
 8847POPC   C4B49654  12.977  27.821   7.353
 8848POPC   NC349655  30.673  29.165   5.553
 8848POPC   PO449656  30.700  29.138   5.853
 8848POPC   GL149657  30.678  29.127   6.153
 8848POPC   GL249658  30.635  29.075   6.153
 8848POPC   C1A49659  30.727  29.123   6.453
 8848POPC   D2A49660  30.697  29.182   6.753
 8848POPC   C3A49661  30.714  29.104   7.053
 8848POPC   C4A49662  30.719  29.152   7.353
 8848POPC   C1B49663  30.597  28.951   6.453
 8848POPC   C2B49664  30.617  28.896   6.753
 8848POPC   C3B49665  30.591  28.906   7.053
 8848POPC   C4B49666  30.598  28.955   7.353
 8849POPC   NC349667   8.934  11.296   5.553
 8849POPC   PO449668   8.986  11.344   5.853
 8849POPC   GL149669   8.949  11.280   6.153
 8849POPC   GL249670   8.909  11.426   6.153
 8849POPC   C1A49671   8.985  11.337   6.453
 8849POPC   D2A49672   8.992  11.336   6.753
 8849POPC   C3A49673   8.954  11.286   7.053
 8849POPC   C4A49674   8.978  11.331   7.353
 8849POPC   C1B49675   8.865  11.570   6.453
 8849POPC   C2B49676   8.877  11.541   6.753
 8849POPC   C3B49677   8.837  11.493   7.053
 8849POPC   C4B49678   8.831  11.532   7.353
 8850POPC   NC349679  15.150  18.295   5.553
 8850POPC   PO449680  15.200  18.279   5.853
 8850POPC   GL149681  15.162  18.244   6.153
 8850POPC   GL249682  15.201  18.398   6.153
 8850POPC   C1A49683  15.143  18.263   6.453
 8850POPC   D2A49684  15.168  18.332   6.753
 8850POPC   C3A49685  15.152  18.255   7.053
 8850POPC   C4A49686  15.189  18.281   7.353
 8850POPC   C1B49687  15.289  18.489   6.453
 8850POPC   C2B49688  15.346  18.518   6.753
 8850POPC   C3B49689  15.298  18.488   7.053
 8850POPC   C4B49690  15.326  18.480   7.353
 8851POPC   NC349691  28.332  17.540   5.553
 8851POPC   PO449692  28.327  17.525   5.853
 8851POPC   GL149693  28.405  17.528   6.153
 8851POPC   GL249694  28.294  17.529   6.153
 8851POPC   C1A49695  28.384  17.547   6.453
 8851POPC   D2A49696  28.414  17.546   6.753
 8851POPC   C3A49697  28.390  17.472   7.053
 8851POPC   C4A49698  28.387  17.465   7.353
 8851POPC   C1B49699  28.117  17.473   6.453
 8851POPC   C2B49700  28.160  17.471   6.753
 8851POPC   C3B49701  28.114  17.450   7.053
 8851POPC   C4B49702  28.088  17.469   7.353
 8852POPC   NC349703   7.448  11.258   5.553
 8852POPC   PO449704   7.427  11.312   5.853
 8852POPC   GL149705   7.393  11.284   6.153
 8852POPC   GL249706   7.256  11.264   6.153
 8852POPC   C1A49707   7.375  11.326   6.453
 8852POPC   D2A49708   7.451  11.265   6.753
 8852POPC   C3A49709   7.457  11.297   7.053
 8852POPC   C4A49710   7.375  11.337   7.353
 8852POPC   C1B49711   7.179  11.217   6.453
 8852POPC   C2B49712   7.174  11.245   6.753
 8852POPC   C3B49713   7.148  11.257   7.053
 8852POPC   C4B49714   7.158  11.177   7.353
 8853POPC   NC349715  13.635  15.972   5.553
 8853POPC   PO449716  13.628  15.975   5.853
 8853POPC   GL149717  13.634  15.919   6.153
 8853POPC   GL249718  13.715  15.985   6.153
 8853POPC   C1A49719  13.642  15.937   6.453
 8853POPC   D2A49720  13.614  15.929   6.753
 8853POPC   C3A49721  13.638  15.940   7.053
 8853POPC   C4A49722  13.578  15.940   7.353
 8853POPC   C1B49723  13.829  15.937   6.453
 8853POPC   C2B49724  13.873  15.940   6.753
 8853POPC   C3B49725  13.875  15.924   7.053
 8853POPC   C4B49726  13.884  16.001   7.353
 8854POPC   NC349727  12.834  23.703   5.553
 8854POPC   PO449728  12.867  23.699   5.853
 8854POPC   GL149729  12.850  23.712   6.153
 8854POPC   GL249730  12.782  23.572   6.153
 8854POPC   C1A49731  12.859  23.742   6.453
 8854POPC   D2A49732  12.816  23.757   6.753
 8854POPC   C3A49733  12.809  23.682   7.053
 8854POPC   C4A49734  12.900  23.761   7.353
 8854POPC   C1B49735  12.674  23.477   6.453
 8854POPC   C2B49736  12.715  23.539   6.753
 8854POPC   C3B49737  12.725  23.518   7.053
 8854POPC   C4B49738  12.734  23.548   7.353
 8855POPC   NC349739   6.646  32.237   5.553
 8855POPC   PO449740   6.672  32.287   5.853
 8855POPC   GL149741   6.604  32.245   6.153
 8855POPC   GL249742   6.558  32.207   6.153
 8855POPC   C1A49743   6.646  32.266   6.453
 8855POPC   D2A49744   6.649  32.274   6.753
 8855POPC   C3A49745   6.623  32.220   7.053
 8855POPC   C4A49746   6.605  32.239   7.353
 8855POPC   C1B49747   6.443  32.057   6.453
 8855POPC   C2B49748   6.461  32.076   6.753
 8855POPC   C3B49749   6.424  32.139   7.053
 8855POPC   C4B49750   6.416  32.134   7.353
 8856POPC   NC349751  32.250  36.912   5.553
 8856POPC   PO449752  32.293  36.951   5.853
 8856POPC   GL149753  32.253  36.927   6.153
 8856POPC   GL249754  32.141  36.889   6.153
 8856POPC   C1A49755  32.200  36.893   6.453
 8856POPC   D2A49756  32.263  36.923   6.753
 8856POPC   C3A49757  32.282  36.953   7.053
 8856POPC   C4A49758  32.244  36.889   7.353
 8856POPC   C1B49759  31.991  36.913   6.453
 8856POPC   C2B49760  31.987  36.945   6.753
 8856POPC   C3B49761  31.954  36.891   7.053
 8856POPC   C4B49762  32.033  36.905   7.353
 8857POPC   NC349763   4.314  40.800   5.553
 8857POPC   PO449764   4.267  40.751   5.853
 8857POPC   GL149765   4.285  40.824   6.153
 8857POPC   GL249766   4.183  40.717   6.153
 8857POPC   C1A49767   4.340  40.797   6.453
 8857POPC   D2A49768   4.295  40.804   6.753
 8857POPC   C3A49769   4.328  40.821   7.053
 8857POPC   C4A49770   4.328  40.793   7.353
 8857POPC   C1B49771   4.110  40.637   6.453
 8857POPC   C2B49772   4.078  40.619   6.753
 8857POPC   C3B49773   4.134  40.664   7.053
 8857POPC   C4B49774   4.093  40.717   7.353
 8858POPC   NC349775  28.384  29.879   5.553
 8858POPC   PO449776  28.412  29.941   5.853
 8858POPC   GL149777  28.394  29.952   6.153
 8858POPC   GL249778  28.406  29.772   6.153
 8858POPC   C1A49779  28.366  29.899   6.453
 8858POPC   D2A49780  28.334  29.908   6.753
 8858POPC   C3A49781  28.382  29.906   7.053
 8858POPC   C4A49782  28.358  29.925   7.353
 8858POPC   C1B49783  28.409  29.714   6.453
 8858POPC   C2B49784  28.424  29.715   6.753
 8858POPC   C3B49785  28.423  29.691   7.053
 8858POPC   C4B49786  28.449  29.675   7.353
 8859POPC   NC349787  15.163  19.877   5.553
 8859POPC   PO449788  15.157  19.826   5.853
 8859POPC   GL149789  15.191  19.847   6.153
 8859POPC   GL249790  15.253  19.966   6.153
 8859POPC   C1A49791  15.188  19.877   6.453
 8859POPC   D2A49792  15.213  19.836   6.753
 8859POPC   C3A49793  15.143  19.832   7.053
 8859POPC   C4A49794  15.217  19.831   7.353
 8859POPC   C1B49795  15.221  20.048   6.453
 8859POPC   C2B49796  15.253  20.085   6.753
 8859POPC   C3B49797  15.217  20.071   7.053
 8859POPC   C4B49798  15.249  20.036   7.353
 8860POPC   NC349799  40.734  22.947   5.553
 8860POPC   PO449800  40.815  22.924   5.853
 8860POPC   GL149801  40.747  22.927   6.153
 8860POPC   GL249802  40.866  22.928   6.153
 8860POPC   C1A49803  40.775  22.903   6.453
 8860POPC   D2A49804  40.774  22.977   6.753
 8860POPC   C3A49805  40.761  22.921   7.053
 8860POPC   C4A49806  40.808  22.960   7.353
 8860POPC   C1B49807  41.033  23.042   6.453
 8860POPC   C2B49808  40.985  23.035   6.753
 8860POPC   C3B49809  41.041  23.021   7.053
 8860POPC   C4B49810  40.990  23.055   7.353
 8861POPC   NC349811  20.636  31.516   5.553
 8861POPC   PO449812  20.610  31.428   5.853
 8861POPC   GL149813  20.594  31.489   6.153
 8861POPC   GL249814  20.710  31.585   6.153
 8861POPC   C1A49815  20.580  31.486   6.453
 8861POPC   D2A49816  20.607  31.496   6.753
 8861POPC   C3A49817  20.636  31.469   7.053
 8861POPC   C4A49818  20.612  31.497   7.353
 8861POPC   C1B49819  20.735  31.648   6.453
 8861POPC   C2B49820  20.674  31.729   6.753
 8861POPC   C3B49821  20.765  31.726   7.053
 8861POPC   C4B49822  20.696  31.704   7.353
 8862POPC   NC349823  14.406  28.411   5.553
 8862POPC   PO449824  14.411  28.370   5.853
 8862POPC   GL149825  14.381  28.327   6.153
 8862POPC   GL249826  14.322  28.325   6.153
 8862POPC   C1A49827  14.424  28.403   6.453
 8862POPC   D2A49828  14.405  28.348   6.753
 8862POPC   C3A49829  14.408  28.331   7.053
 8862POPC   C4A49830  14.443  28.384   7.353
 8862POPC   C1B49831  14.126  28.307   6.453
 8862POPC   C2B49832  14.176  28.272   6.753
 8862POPC   C3B49833  14.194  28.300   7.053
 8862POPC   C4B49834  14.140  28.296   7.353
 8863POPC   NC349835   2.723  35.391   5.553
 8863POPC   PO449836   2.744  35.341   5.853
 8863POPC   GL149837   2.760  35.337   6.153
 8863POPC   GL249838   2.845  35.445   6.153
 8863POPC   C1A49839   2.762  35.390   6.453
 8863POPC   D2A49840   2.780  35.369   6.753
 8863POPC   C3A49841   2.766  35.318   7.053
 8863POPC   C4A49842   2.795  35.395   7.353
 8863POPC   C1B49843   2.928  35.578   6.453
 8863POPC   C2B49844   2.984  35.504   6.753
 8863POPC   C3B49845   2.954  35.540   7.053
 8863POPC   C4B49846   2.978  35.519   7.353
 8864POPC   NC349847   9.019  22.910   5.553
 8864POPC   PO449848   8.969  22.908   5.853
 8864POPC   GL149849   8.926  22.935   6.153
 8864POPC   GL249850   8.886  22.939   6.153
 8864POPC   C1A49851   9.000  22.971   6.453
 8864POPC   D2A49852   8.929  22.944   6.753
 8864POPC   C3A49853   8.924  22.928   7.053
 8864POPC   C4A49854   8.993  22.903   7.353
 8864POPC   C1B49855   8.773  22.934   6.453
 8864POPC   C2B49856   8.771  22.978   6.753
 8864POPC   C3B49857   8.691  22.964   7.053
 8864POPC   C4B49858   8.721  22.917   7.353
 8865POPC   NC349859  43.859  30.726   5.553
 8865POPC   PO449860  43.902  30.712   5.853
 8865POPC   GL149861  43.908  30.712   6.153
 8865POPC   GL249862  43.842  30.617   6.153
 8865POPC   C1A49863  43.844  30.648   6.453
 8865POPC   D2A49864  43.921  30.726   6.753
 8865POPC   C3A49865  43.847  30.667   7.053
 8865POPC   C4A49866  43.908  30.735   7.353
 8865POPC   C1B49867  43.722  30.562   6.453
 8865POPC   C2B49868  43.684  30.558   6.753
 8865POPC   C3B49869  43.737  30.544   7.053
 8865POPC   C4B49870  43.738  30.502   7.353
 8866POPC   NC349871  12.816  24.535   5.553
 8866POPC   PO449872  12.834  24.486   5.853
 8866POPC   GL149873  12.831  24.491   6.153
 8866POPC   GL249874  12.706  24.539   6.153
 8866POPC   C1A49875  12.836  24.452   6.453
 8866POPC   D2A49876  12.812  24.474   6.753
 8866POPC   C3A49877  12.840  24.509   7.053
 8866POPC   C4A49878  12.878  24.512   7.353
 8866POPC   C1B49879  12.631  24.674   6.453
 8866POPC   C2B49880  12.663  24.661   6.753
 8866POPC   C3B49881  12.689  24.678   7.053
 8866POPC   C4B49882  12.685  24.638   7.353
 8867POPC   NC349883  25.298  33.770   5.553
 8867POPC   PO449884  25.232  33.835   5.853
 8867POPC   GL149885  25.240  33.846   6.153
 8867POPC   GL249886  25.354  33.727   6.153
 8867POPC   C1A49887  25.269  33.751   6.453
 8867POPC   D2A49888  25.279  33.829   6.753
 8867POPC   C3A49889  25.230  33.763   7.053
 8867POPC   C4A49890  25.267  33.751   7.353
 8867POPC   C1B49891  25.463  33.731   6.453
 8867POPC   C2B49892  25.547  33.694   6.753
 8867POPC   C3B49893  25.526  33.731   7.053
 8867POPC   C4B49894  25.545  33.705   7.353
 8868POPC   NC349895   5.115   1.955   5.553
 8868POPC   PO449896   5.080   2.030   5.853
 8868POPC   GL149897   5.064   2.020   6.153
 8868POPC   GL249898   5.162   2.125   6.153
 8868POPC   C1A49899   5.140   1.976   6.453
 8868POPC   D2A49900   5.051   2.010   6.753
 8868POPC   C3A49901   5.078   2.036   7.053
 8868POPC   C4A49902   5.141   2.010   7.353
 8868POPC   C1B49903   5.165   2.192   6.453
 8868POPC   C2B49904   5.250   2.188   6.753
 8868POPC   C3B49905   5.232   2.168   7.053
 8868POPC   C4B49906   5.169   2.180   7.353
 8869POPC   NC349907  20.576  44.685   5.553
 8869POPC   PO449908  20.624  44.661   5.853
 8869POPC   GL149909  20.602  44.710   6.153
 8869POPC   GL249910  20.564  44.766   6.153
 8869POPC   C1A49911  20.630  44.637   6.453
 8869POPC   D2A49912  20.599  44.681   6.753
 8869POPC   C3A49913  20.622  44.651   7.053
 8869POPC   C4A49914  20.608  44.659   7.353
 8869POPC   C1B49915  20.422  44.874   6.453
 8869POPC   C2B49916  20.413  44.897   6.753
 8869POPC   C3B49917  20.452  44.885   7.053
 8869POPC   C4B49918  20.488  44.873   7.353
 8870POPC   NC349919  15.936   5.053   5.553
 8870POPC   PO449920  15.942   5.074   5.853
 8870POPC   GL149921  15.969   5.074   6.153
 8870POPC   GL249922  15.950   4.995   6.153
 8870POPC   C1A49923  15.964   5.067   6.453
 8870POPC   D2A49924  15.928   5.098   6.753
 8870POPC   C3A49925  15.942   5.135   7.053
 8870POPC   C4A49926  15.994   5.056   7.353
 8870POPC   C1B49927  15.884   4.853   6.453
 8870POPC   C2B49928  15.860   4.883   6.753
 8870POPC   C3B49929  15.921   4.834   7.053
 8870POPC   C4B49930  15.867   4.862   7.353
 8871POPC   NC349931  43.135  40.044   5.553
 8871POPC   PO449932  43.111  40.025   5.853
 8871POPC   GL149933  43.096  40.053   6.153
 8871POPC   GL249934  43.186  40.004   6.153
 8871POPC   C1A49935  43.128  39.990   6.453
 8871POPC   D2A49936  43.064  39.989   6.753
 8871POPC   C3A49937  43.076  39.982   7.053
 8871POPC   C4A49938  43.108  39.985   7.353
 8871POPC   C1B49939  43.382  40.046   6.453
 8871POPC   C2B49940  43.373  40.133   6.753
 8871POPC   C3B49941  43.326  40.082   7.053
 8871POPC   C4B49942  43.376  40.115   7.353
 8872POPC   NC349943  29.164  25.992   5.553
 8872POPC   PO449944  29.177  26.030   5.853
 8872POPC   GL149945  29.170  25.998   6.153
 8872POPC   GL249946  29.178  25.908   6.153
 8872POPC   C1A49947  29.107  26.068   6.453
 8872POPC   D2A49948  29.108  26.032   6.753
 8872POPC   C3A49949  29.118  26.085   7.053
 8872POPC   C4A49950  29.112  26.005   7.353
 8872POPC   C1B49951  29.185  25.791   6.453
 8872POPC   C2B49952  29.161  25.785   6.753
 8872POPC   C3B49953  29.148  25.802   7.053
 8872POPC   C4B49954  29.155  25.747   7.353
 8873POPC   NC349955   2.033  18.279   5.553
 8873POPC   PO449956   1.984  18.245   5.853
 8873POPC   GL149957   1.965  18.290   6.153
 8873POPC   GL249958   1.912  18.169   6.153
 8873POPC   C1A49959   2.010  18.293   6.453
 8873POPC   D2A49960   1.998  18.291   6.753
 8873POPC   C3A49961   1.992  18.301   7.053
 8873POPC   C4A49962   2.036  18.238   7.353
 8873POPC   C1B49963   1.871  18.113   6.453
 8873POPC   C2B49964   1.799  18.130   6.753
 8873POPC   C3B49965   1.835  18.078   7.053
 8873POPC   C4B49966   1.819  18.066   7.353
 8874POPC   NC349967  32.211   1.214   5.553
 8874POPC   PO449968  32.201   1.251   5.853
 8874POPC   GL149969  32.291   1.178   6.153
 8874POPC   GL249970  32.332   1.109   6.153
 8874POPC   C1A49971  32.231   1.214   6.453
 8874POPC   D2A49972  32.233   1.173   6.753
 8874POPC   C3A49973  32.254   1.230   7.053
 8874POPC   C4A49974  32.295   1.194   7.353
 8874POPC   C1B49975  32.401   1.070   6.453
 8874POPC   C2B49976  32.388   1.053   6.753
 8874POPC   C3B49977  32.409   1.018   7.053
 8874POPC   C4B49978  32.396   1.036   7.353
 8875POPC   NC349979   8.985   7.423   5.553
 8875POPC   PO449980   8.981   7.404   5.853
 8875POPC   GL149981   8.993   7.447   6.153
 8875POPC   GL249982   9.069   7.374   6.153
 8875POPC   C1A49983   9.013   7.451   6.453
 8875POPC   D2A49984   8.990   7.446   6.753
 8875POPC   C3A49985   8.997   7.386   7.053
 8875POPC   C4A49986   8.997   7.467   7.353
 8875POPC   C1B49987   9.186   7.284   6.453
 8875POPC   C2B49988   9.207   7.332   6.753
 8875POPC   C3B49989   9.148   7.346   7.053
 8875POPC   C4B49990   9.183   7.288   7.353
 8876POPC   NC349991  23.693   8.157   5.553
 8876POPC   PO449992  23.753   8.220   5.853
 8876POPC   GL149993  23.760   8.203   6.153
 8876POPC   GL249994  23.631   8.130   6.153
 8876POPC   C1A49995  23.699   8.200   6.453
 8876POPC   D2A49996  23.717   8.225   6.753
 8876POPC   C3A49997  23.690   8.169   7.053
 8876POPC   C4A49998  23.756   8.206   7.353
 8876POPC   C1B49999  23.464   8.091   6.453
 8876POPC   C2B50000  23.519   8.105   6.753
 8876POPC   C3B50001  23.512   8.089   7.053
 8876POPC   C4B50002  23.429   8.093   7.353
 8877POPC   NC350003  15.198  22.910   5.553
 8877POPC   PO450004  15.150  22.936   5.853
 8877POPC   GL150005  15.152  22.944   6.153
 8877POPC   GL250006  15.263  23.017   6.153
 8877POPC   C1A50007  15.149  22.913   6.453
 8877POPC   D2A50008  15.168  22.890   6.753
 8877POPC   C3A50009  15.175  22.953   7.053
 8877POPC   C4A50010  15.181  22.909   7.353
 8877POPC   C1B50011  15.389  23.083   6.453
 8877POPC   C2B50012  15.347  23.129   6.753
 8877POPC   C3B50013  15.357  23.131   7.053
 8877POPC   C4B50014  15.398  23.126   7.353
 8878POPC   NC350015  22.135  19.879   5.553
 8878POPC   PO450016  22.203  19.872   5.853
 8878POPC   GL150017  22.145  19.817   6.153
 8878POPC   GL250018  22.198  19.723   6.153
 8878POPC   C1A50019  22.190  19.809   6.453
 8878POPC   D2A50020  22.185  19.846   6.753
 8878POPC   C3A50021  22.132  19.797   7.053
 8878POPC   C4A50022  22.147  19.865   7.353
 8878POPC   C1B50023  22.216  19.542   6.453
 8878POPC   C2B50024  22.122  19.624   6.753
 8878POPC   C3B50025  22.129  19.538   7.053
 8878POPC   C4B50026  22.218  19.543   7.353
 8879POPC   NC350027  28.397  27.594   5.553
 8879POPC   PO450028  28.397  27.571   5.853
 8879POPC   GL150029  28.346  27.543   6.153
 8879POPC   GL250030  28.353  27.511   6.153
 8879POPC   C1A50031  28.405  27.594   6.453
 8879POPC   D2A50032  28.417  27.556   6.753
 8879POPC   C3A50033  28.324  27.633   7.053
 8879POPC   C4A50034  28.329  27.554   7.353
 8879POPC   C1B50035  28.419  27.300   6.453
 8879POPC   C2B50036  28.375  27.358   6.753
 8879POPC   C3B50037  28.345  27.393   7.053
 8879POPC   C4B50038  28.397  27.361   7.353
 8880POPC   NC350039  31.496  43.130   5.553
 8880POPC   PO450040  31.439  43.087   5.853
 8880POPC   GL150041  31.442  43.140   6.153
 8880POPC   GL250042  31.365  43.181   6.153
 8880POPC   C1A50043  31.487  43.153   6.453
 8880POPC   D2A50044  31.445  43.125   6.753
 8880POPC   C3A50045  31.453  43.061   7.053
 8880POPC   C4A50046  31.490  43.132   7.353
 8880POPC   C1B50047  31.309  43.254   6.453
 8880POPC   C2B50048  31.318  43.290   6.753
 8880POPC   C3B50049  31.260  43.328   7.053
 8880POPC   C4B50050  31.242  43.233   7.353
 8881POPC   NC350051   3.529  10.533   5.553
 8881POPC   PO450052   3.565  10.540   5.853
 8881POPC   GL150053   3.585  10.569   6.153
 8881POPC   GL250054   3.470  10.613   6.153
 8881POPC   C1A50055   3.544  10.489   6.453
 8881POPC   D2A50056   3.577  10.500   6.753
 8881POPC   C3A50057   3.584  10.482   7.053
 8881POPC   C4A50058   3.591  10.521   7.353
 8881POPC   C1B50059   3.283  10.674   6.453
 8881POPC   C2B50060   3.273  10.610   6.753
 8881POPC   C3B50061   3.356  10.590   7.053
 8881POPC   C4B50062   3.265  10.635   7.353
 8882POPC   NC350063  24.518  21.404   5.553
 8882POPC   PO450064  24.530  21.358   5.853
 8882POPC   GL150065  24.523  21.376   6.153
 8882POPC   GL250066  24.458  21.497   6.153
 8882POPC   C1A50067  24.511  21.406   6.453
 8882POPC   D2A50068  24.443  21.367   6.753
 8882POPC   C3A50069  24.487  21.354   7.053
 8882POPC   C4A50070  24.530  21.434   7.353
 8882POPC   C1B50071  24.316  21.618   6.453
 8882POPC   C2B50072  24.366  21.614   6.753
 8882POPC   C3B50073  24.328  21.572   7.053
 8882POPC   C4B50074  24.333  21.598   7.353
 8883POPC   NC350075  35.348   1.941   5.553
 8883POPC   PO450076  35.313   2.032   5.853
 8883POPC   GL150077  35.377   1.948   6.153
 8883POPC   GL250078  35.337   1.886   6.153
 8883POPC   C1A50079  35.338   2.029   6.453
 8883POPC   D2A50080  35.317   2.014   6.753
 8883POPC   C3A50081  35.321   2.018   7.053
 8883POPC   C4A50082  35.350   2.039   7.353
 8883POPC   C1B50083  35.343   1.778   6.453
 8883POPC   C2B50084  35.302   1.707   6.753
 8883POPC   C3B50085  35.347   1.715   7.053
 8883POPC   C4B50086  35.293   1.712   7.353
 8884POPC   NC350087   7.467   6.634   5.553
 8884POPC   PO450088   7.425   6.636   5.853
 8884POPC   GL150089   7.466   6.682   6.153
 8884POPC   GL250090   7.350   6.523   6.153
 8884POPC   C1A50091   7.466   6.608   6.453
 8884POPC   D2A50092   7.451   6.677   6.753
 8884POPC   C3A50093   7.442   6.661   7.053
 8884POPC   C4A50094   7.463   6.649   7.353
 8884POPC   C1B50095   7.271   6.460   6.453
 8884POPC   C2B50096   7.220   6.490   6.753
 8884POPC   C3B50097   7.230   6.477   7.053
 8884POPC   C4B50098   7.298   6.473   7.353
 8885POPC   NC350099  43.922  22.189   5.553
 8885POPC   PO450100  43.847  22.150   5.853
 8885POPC   GL150101  43.936  22.200   6.153
 8885POPC   GL250102  43.926  22.273   6.153
 8885POPC   C1A50103  43.852  22.118   6.453
 8885POPC   D2A50104  43.887  22.204   6.753
 8885POPC   C3A50105  43.869  22.147   7.053
 8885POPC   C4A50106  43.851  22.139   7.353
 8885POPC   C1B50107  44.025  22.350   6.453
 8885POPC   C2B50108  44.016  22.321   6.753
 8885POPC   C3B50109  44.007  22.388   7.053
 8885POPC   C4B50110  44.045  22.364   7.353
 8886POPC   NC350111  39.276   0.422   5.553
 8886POPC   PO450112  39.226   0.475   5.853
 8886POPC   GL150113  39.201   0.443   6.153
 8886POPC   GL250114  39.173   0.559   6.153
 8886POPC   C1A50115  39.267   0.442   6.453
 8886POPC   D2A50116  39.207   0.430   6.753
 8886POPC   C3A50117  39.238   0.430   7.053
 8886POPC   C4A50118  39.204   0.409   7.353
 8886POPC   C1B50119  39.089   0.631   6.453
 8886POPC   C2B50120  39.066   0.616   6.753
 8886POPC   C3B50121  39.005   0.623   7.053
 8886POPC   C4B50122  39.073   0.655   7.353
 8887POPC   NC350123  36.100  31.459   5.553
 8887POPC   PO450124  36.124  31.513   5.853
 8887POPC   GL150125  36.163  31.484   6.153
 8887POPC   GL250126  36.007  31.346   6.153
 8887POPC   C1A50127  36.149  31.439   6.453
 8887POPC   D2A50128  36.166  31.428   6.753
 8887POPC   C3A50129  36.117  31.480   7.053
 8887POPC   C4A50130  36.099  31.469   7.353
 8887POPC   C1B50131  36.014  31.277   6.453
 8887POPC   C2B50132  35.939  31.254   6.753
 8887POPC   C3B50133  36.016  31.276   7.053
 8887POPC   C4B50134  35.963  31.221   7.353
 8888POPC   NC350135  11.336  34.600   5.553
 8888POPC   PO450136  11.294  34.579   5.853
 8888POPC   GL150137  11.307  34.581   6.153
 8888POPC   GL250138  11.425  34.558   6.153
 8888POPC   C1A50139  11.342  34.609   6.453
 8888POPC   D2A50140  11.309  34.575   6.753
 8888POPC   C3A50141  11.274  34.606   7.053
 8888POPC   C4A50142  11.318  34.624   7.353
 8888POPC   C1B50143  11.516  34.593   6.453
 8888POPC   C2B50144  11.529  34.577   6.753
 8888POPC   C3B50145  11.582  34.649   7.053
 8888POPC   C4B50146  11.499  34.576   7.353
 8889POPC   NC350147  21.370  38.500   5.553
 8889POPC   PO450148  21.364  38.500   5.853
 8889POPC   GL150149  21.405  38.482   6.153
 8889POPC   GL250150  21.245  38.502   6.153
 8889POPC   C1A50151  21.368  38.445   6.453
 8889POPC   D2A50152  21.378  38.457   6.753
 8889POPC   C3A50153  21.341  38.444   7.053
 8889POPC   C4A50154  21.367  38.502   7.353
 8889POPC   C1B50155  21.148  38.639   6.453
 8889POPC   C2B50156  21.233  38.627   6.753
 8889POPC   C3B50157  21.166  38.586   7.053
 8889POPC   C4B50158  21.234  38.610   7.353
 8890POPC   NC350159   1.209  39.965   5.553
 8890POPC   PO450160   1.199  40.038   5.853
 8890POPC   GL150161   1.230  39.961   6.153
 8890POPC   GL250162   1.186  39.921   6.153
 8890POPC   C1A50163   1.211  39.996   6.453
 8890POPC   D2A50164   1.236  40.022   6.753
 8890POPC   C3A50165   1.178  40.001   7.053
 8890POPC   C4A50166   1.206  40.055   7.353
 8890POPC   C1B50167   1.155  39.766   6.453
 8890POPC   C2B50168   1.173  39.760   6.753
 8890POPC   C3B50169   1.154  39.807   7.053
 8890POPC   C4B50170   1.119  39.774   7.353
 8891POPC   NC350171  36.157  22.927   5.553
 8891POPC   PO450172  36.147  22.921   5.853
 8891POPC   GL150173  36.106  22.895   6.153
 8891POPC   GL250174  36.043  22.996   6.153
 8891POPC   C1A50175  36.169  22.959   6.453
 8891POPC   D2A50176  36.091  22.937   6.753
 8891POPC   C3A50177  36.121  22.927   7.053
 8891POPC   C4A50178  36.167  22.940   7.353
 8891POPC   C1B50179  35.930  23.027   6.453
 8891POPC   C2B50180  35.872  22.942   6.753
 8891POPC   C3B50181  35.843  22.966   7.053
 8891POPC   C4B50182  35.864  23.019   7.353
 8892POPC   NC350183  17.496  22.178   5.553
 8892POPC   PO450184  17.518  22.198   5.853
 8892POPC   GL150185  17.459  22.123   6.153
 8892POPC   GL250186  17.588  22.199   6.153
 8892POPC   C1A50187  17.527  22.126   6.453
 8892POPC   D2A50188  17.464  22.177   6.753
 8892POPC   C3A50189  17.498  22.119   7.053
 8892POPC   C4A50190  17.540  22.178   7.353
 8892POPC   C1B50191  17.732  22.361   6.453
 8892POPC   C2B50192  17.663  22.334   6.753
 8892POPC   C3B50193  17.740  22.289   7.053
 8892POPC   C4B50194  17.728  22.361   7.353
 8893POPC   NC350195  42.317  33.006   5.553
 8893POPC   PO450196  42.311  32.984   5.853
 8893POPC   GL150197  42.299  32.977   6.153
 8893POPC   GL250198  42.492  33.019   6.153
 8893POPC   C1A50199  42.303  33.006   6.453
 8893POPC   D2A50200  42.358  33.009   6.753
 8893POPC   C3A50201  42.295  33.026   7.053
 8893POPC   C4A50202  42.315  32.988   7.353
 8893POPC   C1B50203  42.591  32.950   6.453
 8893POPC   C2B50204  42.530  32.977   6.753
 8893POPC   C3B50205  42.603  32.979   7.053
 8893POPC   C4B50206  42.585  32.963   7.353
 8894POPC   NC350207  11.272  26.788   5.553
 8894POPC   PO450208  11.257  26.781   5.853
 8894POPC   GL150209  11.256  26.851   6.153
 8894POPC   GL250210  11.236  26.700   6.153
 8894POPC   C1A50211  11.265  26.843   6.453
 8894POPC   D2A50212  11.288  26.775   6.753
 8894POPC   C3A50213  11.323  26.835   7.053
 8894POPC   C4A50214  11.334  26.767   7.353
 8894POPC   C1B50215  11.272  26.579   6.453
 8894POPC   C2B50216  11.250  26.584   6.753
 8894POPC   C3B50217  11.211  26.610   7.053
 8894POPC   C4B50218  11.196  26.581   7.353
 8895POPC   NC350219  26.817   1.201   5.553
 8895POPC   PO450220  26.796   1.260   5.853
 8895POPC   GL150221  26.788   1.213   6.153
 8895POPC   GL250222  26.834   1.089   6.153
 8895POPC   C1A50223  26.863   1.235   6.453
 8895POPC   D2A50224  26.772   1.262   6.753
 8895POPC   C3A50225  26.822   1.195   7.053
 8895POPC   C4A50226  26.823   1.215   7.353
 8895POPC   C1B50227  26.916   0.959   6.453
 8895POPC   C2B50228  26.902   0.955   6.753
 8895POPC   C3B50229  26.949   1.039   7.053
 8895POPC   C4B50230  26.978   1.016   7.353
 8896POPC   NC350231  38.432  40.831   5.553
 8896POPC   PO450232  38.453  40.832   5.853
 8896POPC   GL150233  38.481  40.815   6.153
 8896POPC   GL250234  38.461  40.953   6.153
 8896POPC   C1A50235  38.416  40.826   6.453
 8896POPC   D2A50236  38.477  40.822   6.753
 8896POPC   C3A50237  38.451  40.750   7.053
 8896POPC   C4A50238  38.484  40.811   7.353
 8896POPC   C1B50239  38.366  41.003   6.453
 8896POPC   C2B50240  38.361  41.026   6.753
 8896POPC   C3B50241  38.376  41.038   7.053
 8896POPC   C4B50242  38.422  41.074   7.353
 8897POPC   NC350243  21.355  39.243   5.553
 8897POPC   PO450244  21.375  39.273   5.853
 8897POPC   GL150245  21.366  39.219   6.153
 8897POPC   GL250246  21.426  39.373   6.153
 8897POPC   C1A50247  21.423  39.206   6.453
 8897POPC   D2A50248  21.374  39.233   6.753
 8897POPC   C3A50249  21.371  39.231   7.053
 8897POPC   C4A50250  21.410  39.209   7.353
 8897POPC   C1B50251  21.464  39.519   6.453
 8897POPC   C2B50252  21.473  39.472   6.753
 8897POPC   C3B50253  21.449  39.456   7.053
 8897POPC   C4B50254  21.417  39.447   7.353
 8898POPC   NC350255  20.604  19.029   5.553
 8898POPC   PO450256  20.565  19.011   5.853
 8898POPC   GL150257  20.569  19.038   6.153
 8898POPC   GL250258  20.531  19.108   6.153
 8898POPC   C1A50259  20.650  19.078   6.453
 8898POPC   D2A50260  20.639  19.022   6.753
 8898POPC   C3A50261  20.648  19.090   7.053
 8898POPC   C4A50262  20.594  19.070   7.353
 8898POPC   C1B50263  20.405  19.123   6.453
 8898POPC   C2B50264  20.365  19.142   6.753
 8898POPC   C3B50265  20.395  19.080   7.053
 8898POPC   C4B50266  20.321  19.157   7.353
 8899POPC   NC350267   6.603  19.868   5.553
 8899POPC   PO450268   6.673  19.847   5.853
 8899POPC   GL150269   6.621  19.791   6.153
 8899POPC   GL250270   6.759  19.854   6.153
 8899POPC   C1A50271   6.681  19.805   6.453
 8899POPC   D2A50272   6.688  19.842   6.753
 8899POPC   C3A50273   6.659  19.799   7.053
 8899POPC   C4A50274   6.655  19.846   7.353
 8899POPC   C1B50275   6.896  19.847   6.453
 8899POPC   C2B50276   6.928  19.869   6.753
 8899POPC   C3B50277   6.891  19.908   7.053
 8899POPC   C4B50278   6.908  19.868   7.353
 8900POPC   NC350279  42.377  34.565   5.553
 8900POPC   PO450280  42.376  34.610   5.853
 8900POPC   GL150281  42.285  34.579   6.153
 8900POPC   GL250282  42.269  34.650   6.153
 8900POPC   C1A50283  42.361  34.580   6.453
 8900POPC   D2A50284  42.299  34.543   6.753
 8900POPC   C3A50285  42.293  34.537   7.053
 8900POPC   C4A50286  42.346  34.611   7.353
 8900POPC   C1B50287  42.173  34.791   6.453
 8900POPC   C2B50288  42.177  34.777   6.753
 8900POPC   C3B50289  42.265  34.795   7.053
 8900POPC   C4B50290  42.259  34.812   7.353
 8901POPC   NC350291  41.582   2.756   5.553
 8901POPC   PO450292  41.513   2.755   5.853
 8901POPC   GL150293  41.524   2.790   6.153
 8901POPC   GL250294  41.531   2.848   6.153
 8901POPC   C1A50295  41.561   2.741   6.453
 8901POPC   D2A50296  41.608   2.740   6.753
 8901POPC   C3A50297  41.550   2.752   7.053
 8901POPC   C4A50298  41.598   2.767   7.353
 8901POPC   C1B50299  41.580   2.990   6.453
 8901POPC   C2B50300  41.542   3.051   6.753
 8901POPC   C3B50301  41.550   3.057   7.053
 8901POPC   C4B50302  41.602   2.975   7.353
 8902POPC   NC350303  25.232   2.765   5.553
 8902POPC   PO450304  25.266   2.732   5.853
 8902POPC   GL150305  25.229   2.716   6.153
 8902POPC   GL250306  25.270   2.679   6.153
 8902POPC   C1A50307  25.275   2.795   6.453
 8902POPC   D2A50308  25.307   2.752   6.753
 8902POPC   C3A50309  25.267   2.751   7.053
 8902POPC   C4A50310  25.314   2.765   7.353
 8902POPC   C1B50311  25.225   2.562   6.453
 8902POPC   C2B50312  25.184   2.567   6.753
 8902POPC   C3B50313  25.267   2.470   7.053
 8902POPC   C4B50314  25.234   2.482   7.353
 8903POPC   NC350315  17.493  35.348   5.553
 8903POPC   PO450316  17.458  35.321   5.853
 8903POPC   GL150317  17.506  35.390   6.153
 8903POPC   GL250318  17.574  35.514   6.153
 8903POPC   C1A50319  17.535  35.374   6.453
 8903POPC   D2A50320  17.467  35.309   6.753
 8903POPC   C3A50321  17.550  35.337   7.053
 8903POPC   C4A50322  17.544  35.386   7.353
 8903POPC   C1B50323  17.566  35.613   6.453
 8903POPC   C2B50324  17.536  35.592   6.753
 8903POPC   C3B50325  17.582  35.577   7.053
 8903POPC   C4B50326  17.572  35.575   7.353
 8904POPC   NC350327  25.294  15.934   5.553
 8904POPC   PO450328  25.283  15.976   5.853
 8904POPC   GL150329  25.228  16.000   6.153
 8904POPC   GL250330  25.182  15.977   6.153
 8904POPC   C1A50331  25.282  15.998   6.453
 8904POPC   D2A50332  25.287  16.001   6.753
 8904POPC   C3A50333  25.291  15.976   7.053
 8904POPC   C4A50334  25.232  15.958   7.353
 8904POPC   C1B50335  25.041  15.961   6.453
 8904POPC   C2B50336  25.022  16.019   6.753
 8904POPC   C3B50337  25.031  15.962   7.053
 8904POPC   C4B50338  25.023  15.996   7.353
 8905POPC   NC350339  23.733  10.487   5.553
 8905POPC   PO450340  23.728  10.512   5.853
 8905POPC   GL150341  23.753  10.488   6.153
 8905POPC   GL250342  23.858  10.546   6.153
 8905POPC   C1A50343  23.681  10.563   6.453
 8905POPC   D2A50344  23.728  10.554   6.753
 8905POPC   C3A50345  23.749  10.523   7.053
 8905POPC   C4A50346  23.687  10.478   7.353
 8905POPC   C1B50347  23.955  10.686   6.453
 8905POPC   C2B50348  23.910  10.621   6.753
 8905POPC   C3B50349  23.905  10.639   7.053
 8905POPC   C4B50350  23.952  10.672   7.353
 8906POPC   NC350351   4.299  26.795   5.553
 8906POPC   PO450352   4.313  26.772   5.853
 8906POPC   GL150353   4.300  26.768   6.153
 8906POPC   GL250354   4.469  26.862   6.153
 8906POPC   C1A50355   4.286  26.801   6.453
 8906POPC   D2A50356   4.308  26.857   6.753
 8906POPC   C3A50357   4.308  26.828   7.053
 8906POPC   C4A50358   4.296  26.813   7.353
 8906POPC   C1B50359   4.563  26.903   6.453
 8906POPC   C2B50360   4.546  26.886   6.753
 8906POPC   C3B50361   4.555  26.874   7.053
 8906POPC   C4B50362   4.545  26.875   7.353
 8907POPC   NC350363  13.590  18.238   5.553
 8907POPC   PO450364  13.626  18.277   5.853
 8907POPC   GL150365  13.643  18.275   6.153
 8907POPC   GL250366  13.501  18.333   6.153
 8907POPC   C1A50367  13.676  18.266   6.453
 8907POPC   D2A50368  13.595  18.316   6.753
 8907POPC   C3A50369  13.657  18.326   7.053
 8907POPC   C4A50370  13.656  18.299   7.353
 8907POPC   C1B50371  13.479  18.482   6.453
 8907POPC   C2B50372  13.405  18.425   6.753
 8907POPC   C3B50373  13.439  18.483   7.053
 8907POPC   C4B50374  13.448  18.489   7.353
 8908POPC   NC350375  33.033  29.100   5.553
 8908POPC   PO450376  33.035  29.130   5.853
 8908POPC   GL150377  33.046  29.113   6.153
 8908POPC   GL250378  33.038  28.999   6.153
 8908POPC   C1A50379  33.054  29.108   6.453
 8908POPC   D2A50380  33.031  29.112   6.753
 8908POPC   C3A50381  33.057  29.172   7.053
 8908POPC   C4A50382  33.057  29.150   7.353
 8908POPC   C1B50383  33.105  28.901   6.453
 8908POPC   C2B50384  33.133  28.884   6.753
 8908POPC   C3B50385  33.134  28.925   7.053
 8908POPC   C4B50386  33.064  28.931   7.353
 8909POPC   NC350387  10.547  43.064   5.553
 8909POPC   PO450388  10.529  43.100   5.853
 8909POPC   GL150389  10.566  43.081   6.153
 8909POPC   GL250390  10.580  43.176   6.153
 8909POPC   C1A50391  10.509  43.068   6.453
 8909POPC   D2A50392  10.573  43.158   6.753
 8909POPC   C3A50393  10.526  43.151   7.053
 8909POPC   C4A50394  10.512  43.064   7.353
 8909POPC   C1B50395  10.733  43.252   6.453
 8909POPC   C2B50396  10.647  43.266   6.753
 8909POPC   C3B50397  10.691  43.313   7.053
 8909POPC   C4B50398  10.709  43.327   7.353
 8910POPC   NC350399   6.682  43.075   5.553
 8910POPC   PO450400   6.655  43.080   5.853
 8910POPC   GL150401   6.626  43.136   6.153
 8910POPC   GL250402   6.727  43.132   6.153
 8910POPC   C1A50403   6.667  43.098   6.453
 8910POPC   D2A50404   6.599  43.068   6.753
 8910POPC   C3A50405   6.614  43.134   7.053
 8910POPC   C4A50406   6.680  43.160   7.353
 8910POPC   C1B50407   6.843  43.184   6.453
 8910POPC   C2B50408   6.905  43.206   6.753
 8910POPC   C3B50409   6.843  43.185   7.053
 8910POPC   C4B50410   6.922  43.149   7.353
 8911POPC   NC350411  33.837  13.626   5.553
 8911POPC   PO450412  33.796  13.665   5.853
 8911POPC   GL150413  33.780  13.612   6.153
 8911POPC   GL250414  33.770  13.794   6.153
 8911POPC   C1A50415  33.760  13.639   6.453
 8911POPC   D2A50416  33.758  13.655   6.753
 8911POPC   C3A50417  33.819  13.632   7.053
 8911POPC   C4A50418  33.796  13.597   7.353
 8911POPC   C1B50419  33.748  13.868   6.453
 8911POPC   C2B50420  33.711  13.829   6.753
 8911POPC   C3B50421  33.691  13.864   7.053
 8911POPC   C4B50422  33.734  13.892   7.353
 8912POPC   NC350423   5.102  33.002   5.553
 8912POPC   PO450424   5.140  33.055   5.853
 8912POPC   GL150425   5.143  33.048   6.153
 8912POPC   GL250426   5.159  32.907   6.153
 8912POPC   C1A50427   5.093  33.064   6.453
 8912POPC   D2A50428   5.124  32.988   6.753
 8912POPC   C3A50429   5.127  33.049   7.053
 8912POPC   C4A50430   5.075  33.046   7.353
 8912POPC   C1B50431   5.225  32.819   6.453
 8912POPC   C2B50432   5.265  32.798   6.753
 8912POPC   C3B50433   5.284  32.775   7.053
 8912POPC   C4B50434   5.247  32.851   7.353
 8913POPC   NC350435  41.596  31.438   5.553
 8913POPC   PO450436  41.548  31.434   5.853
 8913POPC   GL150437  41.585  31.512   6.153
 8913POPC   GL250438  41.661  31.539   6.153
 8913POPC   C1A50439  41.525  31.480   6.453
 8913POPC   D2A50440  41.553  31.426   6.753
 8913POPC   C3A50441  41.566  31.462   7.053
 8913POPC   C4A50442  41.524  31.472   7.353
 8913POPC   C1B50443  41.799  31.604   6.453
 8913POPC   C2B50444  41.752  31.678   6.753
 8913POPC   C3B50445  41.756  31.655   7.053
 8913POPC   C4B50446  41.763  31.644   7.353
 8914POPC   NC350447   1.997  39.979   5.553
 8914POPC   PO450448   1.968  40.039   5.853
 8914POPC   GL150449   1.998  39.995   6.153
 8914POPC   GL250450   2.100  40.033   6.153
 8914POPC   C1A50451   2.019  39.958   6.453
 8914POPC   D2A50452   2.038  39.976   6.753
 8914POPC   C3A50453   2.003  40.013   7.053
 8914POPC   C4A50454   1.991  39.959   7.353
 8914POPC   C1B50455   2.193  40.050   6.453
 8914POPC   C2B50456   2.214  40.040   6.753
 8914POPC   C3B50457   2.255  40.093   7.053
 8914POPC   C4B50458   2.277  40.073   7.353
 8915POPC   NC350459  34.537  25.240   5.553
 8915POPC   PO450460  34.616  25.282   5.853
 8915POPC   GL150461  34.547  25.287   6.153
 8915POPC   GL250462  34.491  25.345   6.153
 8915POPC   C1A50463  34.527  25.250   6.453
 8915POPC   D2A50464  34.540  25.293   6.753
 8915POPC   C3A50465  34.592  25.277   7.053
 8915POPC   C4A50466  34.532  25.310   7.353
 8915POPC   C1B50467  34.348  25.360   6.453
 8915POPC   C2B50468  34.329  25.365   6.753
 8915POPC   C3B50469  34.367  25.377   7.053
 8915POPC   C4B50470  34.381  25.384   7.353
 8916POPC   NC350471  39.229  43.098   5.553
 8916POPC   PO450472  39.281  43.149   5.853
 8916POPC   GL150473  39.186  43.111   6.153
 8916POPC   GL250474  39.302  43.019   6.153
 8916POPC   C1A50475  39.257  43.150   6.453
 8916POPC   D2A50476  39.192  43.147   6.753
 8916POPC   C3A50477  39.236  43.117   7.053
 8916POPC   C4A50478  39.213  43.143   7.353
 8916POPC   C1B50479  39.447  42.998   6.453
 8916POPC   C2B50480  39.497  42.999   6.753
 8916POPC   C3B50481  39.487  42.972   7.053
 8916POPC   C4B50482  39.426  43.034   7.353
 8917POPC   NC350483   4.325   2.734   5.553
 8917POPC   PO450484   4.356   2.761   5.853
 8917POPC   GL150485   4.364   2.754   6.153
 8917POPC   GL250486   4.385   2.631   6.153
 8917POPC   C1A50487   4.269   2.724   6.453
 8917POPC   D2A50488   4.358   2.808   6.753
 8917POPC   C3A50489   4.356   2.725   7.053
 8917POPC   C4A50490   4.279   2.737   7.353
 8917POPC   C1B50491   4.432   2.509   6.453
 8917POPC   C2B50492   4.447   2.506   6.753
 8917POPC   C3B50493   4.372   2.487   7.053
 8917POPC   C4B50494   4.396   2.547   7.353
 8918POPC   NC350495  31.474  37.721   5.553
 8918POPC   PO450496  31.492  37.630   5.853
 8918POPC   GL150497  31.442  37.706   6.153
 8918POPC   GL250498  31.589  37.798   6.153
 8918POPC   C1A50499  31.469  37.663   6.453
 8918POPC   D2A50500  31.429  37.690   6.753
 8918POPC   C3A50501  31.439  37.643   7.053
 8918POPC   C4A50502  31.455  37.631   7.353
 8918POPC   C1B50503  31.682  37.859   6.453
 8918POPC   C2B50504  31.673  37.819   6.753
 8918POPC   C3B50505  31.676  37.886   7.053
 8918POPC   C4B50506  31.632  37.855   7.353
 8919POPC   NC350507   2.022  21.415   5.553
 8919POPC   PO450508   1.955  21.365   5.853
 8919POPC   GL150509   1.975  21.387   6.153
 8919POPC   GL250510   2.008  21.464   6.153
 8919POPC   C1A50511   1.983  21.338   6.453
 8919POPC   D2A50512   2.021  21.392   6.753
 8919POPC   C3A50513   2.012  21.418   7.053
 8919POPC   C4A50514   2.013  21.370   7.353
 8919POPC   C1B50515   2.110  21.657   6.453
 8919POPC   C2B50516   2.118  21.567   6.753
 8919POPC   C3B50517   2.055  21.575   7.053
 8919POPC   C4B50518   2.095  21.601   7.353
 8920POPC   NC350519   6.644  23.752   5.553
 8920POPC   PO450520   6.660  23.709   5.853
 8920POPC   GL150521   6.620  23.690   6.153
 8920POPC   GL250522   6.492  23.709   6.153
 8920POPC   C1A50523   6.661  23.701   6.453
 8920POPC   D2A50524   6.609  23.751   6.753
 8920POPC   C3A50525   6.665  23.745   7.053
 8920POPC   C4A50526   6.601  23.752   7.353
 8920POPC   C1B50527   6.441  23.719   6.453
 8920POPC   C2B50528   6.440  23.704   6.753
 8920POPC   C3B50529   6.436  23.746   7.053
 8920POPC   C4B50530   6.400  23.686   7.353
 8921POPC   NC350531  35.371  38.494   5.553
 8921POPC   PO450532  35.334  38.413   5.853
 8921POPC   GL150533  35.339  38.486   6.153
 8921POPC   GL250534  35.488  38.405   6.153
 8921POPC   C1A50535  35.323  38.505   6.453
 8921POPC   D2A50536  35.370  38.427   6.753
 8921POPC   C3A50537  35.354  38.493   7.053
 8921POPC   C4A50538  35.324  38.448   7.353
 8921POPC   C1B50539  35.501  38.321   6.453
 8921POPC   C2B50540  35.578  38.254   6.753
 8921POPC   C3B50541  35.515  38.272   7.053
 8921POPC   C4B50542  35.520  38.286   7.353
 8922POPC   NC350543  22.207  37.640   5.553
 8922POPC   PO450544  22.118  37.713   5.853
 8922POPC   GL150545  22.168  37.658   6.153
 8922POPC   GL250546  22.043  37.636   6.153
 8922POPC   C1A50547  22.129  37.648   6.453
 8922POPC   D2A50548  22.128  37.710   6.753
 8922POPC   C3A50549  22.209  37.651   7.053
 8922POPC   C4A50550  22.178  37.651   7.353
 8922POPC   C1B50551  21.904  37.606   6.453
 8922POPC   C2B50552  21.912  37.661   6.753
 8922POPC   C3B50553  21.928  37.674   7.053
 8922POPC   C4B50554  21.945  37.656   7.353
 8923POPC   NC350555  20.573  30.652   5.553
 8923POPC   PO450556  20.613  30.711   5.853
 8923POPC   GL150557  20.585  30.700   6.153
 8923POPC   GL250558  20.629  30.545   6.153
 8923POPC   C1A50559  20.593  30.736   6.453
 8923POPC   D2A50560  20.636  30.690   6.753
 8923POPC   C3A50561  20.595  30.651   7.053
 8923POPC   C4A50562  20.647  30.657   7.353
 8923POPC   C1B50563  20.692  30.494   6.453
 8923POPC   C2B50564  20.642  30.466   6.753
 8923POPC   C3B50565  20.707  30.406   7.053
 8923POPC   C4B50566  20.644  30.500   7.353
 8924POPC   NC350567  17.473  10.574   5.553
 8924POPC   PO450568  17.543  10.529   5.853
 8924POPC   GL150569  17.553  10.542   6.153
 8924POPC   GL250570  17.622  10.520   6.153
 8924POPC   C1A50571  17.521  10.521   6.453
 8924POPC   D2A50572  17.553  10.557   6.753
 8924POPC   C3A50573  17.491  10.508   7.053
 8924POPC   C4A50574  17.461  10.509   7.353
 8924POPC   C1B50575  17.731  10.552   6.453
 8924POPC   C2B50576  17.797  10.544   6.753
 8924POPC   C3B50577  17.737  10.611   7.053
 8924POPC   C4B50578  17.714  10.552   7.353
 8925POPC   NC350579  12.869   5.061   5.553
 8925POPC   PO450580  12.878   5.068   5.853
 8925POPC   GL150581  12.842   5.068   6.153
 8925POPC   GL250582  12.781   5.019   6.153
 8925POPC   C1A50583  12.807   5.133   6.453
 8925POPC   D2A50584  12.873   5.085   6.753
 8925POPC   C3A50585  12.879   5.103   7.053
 8925POPC   C4A50586  12.806   5.103   7.353
 8925POPC   C1B50587  12.745   4.878   6.453
 8925POPC   C2B50588  12.699   4.836   6.753
 8925POPC   C3B50589  12.735   4.841   7.053
 8925POPC   C4B50590  12.692   4.840   7.353
 8926POPC   NC350591  26.039  12.044   5.553
 8926POPC   PO450592  26.047  12.119   5.853
 8926POPC   GL150593  26.005  12.112   6.153
 8926POPC   GL250594  26.078  12.228   6.153
 8926POPC   C1A50595  26.035  12.121   6.453
 8926POPC   D2A50596  26.035  12.029   6.753
 8926POPC   C3A50597  25.994  12.044   7.053
 8926POPC   C4A50598  26.029  12.092   7.353
 8926POPC   C1B50599  26.137  12.308   6.453
 8926POPC   C2B50600  26.217  12.303   6.753
 8926POPC   C3B50601  26.217  12.326   7.053
 8926POPC   C4B50602  26.218  12.277   7.353
 8927POPC   NC350603  34.548  32.277   5.553
 8927POPC   PO450604  34.601  32.279   5.853
 8927POPC   GL150605  34.541  32.286   6.153
 8927POPC   GL250606  34.694  32.192   6.153
 8927POPC   C1A50607  34.597  32.240   6.453
 8927POPC   D2A50608  34.557  32.287   6.753
 8927POPC   C3A50609  34.575  32.222   7.053
 8927POPC   C4A50610  34.565  32.255   7.353
 8927POPC   C1B50611  34.667  32.070   6.453
 8927POPC   C2B50612  34.666  32.030   6.753
 8927POPC   C3B50613  34.717  32.050   7.053
 8927POPC   C4B50614  34.763  32.062   7.353
 8928POPC   NC350615   8.941  40.747   5.553
 8928POPC   PO450616   8.995  40.763   5.853
 8928POPC   GL150617   8.959  40.787   6.153
 8928POPC   GL250618   9.064  40.757   6.153
 8928POPC   C1A50619   8.951  40.762   6.453
 8928POPC   D2A50620   8.965  40.822   6.753
 8928POPC   C3A50621   8.924  40.799   7.053
 8928POPC   C4A50622   8.971  40.823   7.353
 8928POPC   C1B50623   9.160  40.647   6.453
 8928POPC   C2B50624   9.227  40.665   6.753
 8928POPC   C3B50625   9.208  40.658   7.053
 8928POPC   C4B50626   9.209  40.708   7.353
 8929POPC   NC350627  30.721   8.184   5.553
 8929POPC   PO450628  30.741   8.182   5.853
 8929POPC   GL150629  30.704   8.178   6.153
 8929POPC   GL250630  30.830   8.223   6.153
 8929POPC   C1A50631  30.722   8.193   6.453
 8929POPC   D2A50632  30.730   8.181   6.753
 8929POPC   C3A50633  30.665   8.173   7.053
 8929POPC   C4A50634  30.697   8.170   7.353
 8929POPC   C1B50635  30.935   8.177   6.453
 8929POPC   C2B50636  30.940   8.189   6.753
 8929POPC   C3B50637  30.959   8.236   7.053
 8929POPC   C4B50638  30.979   8.146   7.353
 8930POPC   NC350639  16.755   1.973   5.553
 8930POPC   PO450640  16.748   1.973   5.853
 8930POPC   GL150641  16.694   2.038   6.153
 8930POPC   GL250642  16.732   2.106   6.153
 8930POPC   C1A50643  16.692   1.949   6.453
 8930POPC   D2A50644  16.750   2.033   6.753
 8930POPC   C3A50645  16.767   1.989   7.053
 8930POPC   C4A50646  16.691   1.943   7.353
 8930POPC   C1B50647  16.762   2.279   6.453
 8930POPC   C2B50648  16.803   2.276   6.753
 8930POPC   C3B50649  16.758   2.258   7.053
 8930POPC   C4B50650  16.754   2.197   7.353
 8931POPC   NC350651  44.669  36.113   5.553
 8931POPC   PO450652  44.664  36.086   5.853
 8931POPC   GL150653  44.623  36.100   6.153
 8931POPC   GL250654  44.737  36.096   6.153
 8931POPC   C1A50655  44.624  36.175   6.453
 8931POPC   D2A50656  44.671  36.160   6.753
 8931POPC   C3A50657  44.684  36.138   7.053
 8931POPC   C4A50658  44.638  36.092   7.353
 8931POPC   C1B50659  44.873  36.079   6.453
 8931POPC   C2B50660  44.918  36.101   6.753
 8931POPC   C3B50661  44.859  36.051   7.053
 8931POPC   C4B50662  44.896  36.025   7.353
 8932POPC   NC350663   8.923   4.320   5.553
 8932POPC   PO450664   8.925   4.346   5.853
 8932POPC   GL150665   8.932   4.321   6.153
 8932POPC   GL250666   9.007   4.206   6.153
 8932POPC   C1A50667   8.959   4.337   6.453
 8932POPC   D2A50668   8.961   4.355   6.753
 8932POPC   C3A50669   8.993   4.365   7.053
 8932POPC   C4A50670   8.938   4.274   7.353
 8932POPC   C1B50671   8.957   4.039   6.453
 8932POPC   C2B50672   9.002   4.089   6.753
 8932POPC   C3B50673   8.956   4.047   7.053
 8932POPC   C4B50674   8.930   4.072   7.353
 8933POPC   NC350675  12.848  18.289   5.553
 8933POPC   PO450676  12.888  18.331   5.853
 8933POPC   GL150677  12.809  18.266   6.153
 8933POPC   GL250678  12.952  18.220   6.153
 8933POPC   C1A50679  12.826  18.282   6.453
 8933POPC   D2A50680  12.808  18.330   6.753
 8933POPC   C3A50681  12.813  18.242   7.053
 8933POPC   C4A50682  12.828  18.283   7.353
 8933POPC   C1B50683  13.043  18.105   6.453
 8933POPC   C2B50684  13.081  18.190   6.753
 8933POPC   C3B50685  13.057  18.107   7.053
 8933POPC   C4B50686  13.106  18.128   7.353
 8934POPC   NC350687  19.047  37.685   5.553
 8934POPC   PO450688  19.022  37.719   5.853
 8934POPC   GL150689  19.034  37.653   6.153
 8934POPC   GL250690  18.928  37.739   6.153
 8934POPC   C1A50691  19.033  37.669   6.453
 8934POPC   D2A50692  19.022  37.635   6.753
 8934POPC   C3A50693  19.075  37.678   7.053
 8934POPC   C4A50694  19.101  37.707   7.353
 8934POPC   C1B50695  18.809  37.819   6.453
 8934POPC   C2B50696  18.826  37.841   6.753
 8934POPC   C3B50697  18.879  37.823   7.053
 8934POPC   C4B50698  18.876  37.793   7.353
 8935POPC   NC350699  15.952  43.066   5.553
 8935POPC   PO450700  15.950  43.136   5.853
 8935POPC   GL150701  15.949  43.086   6.153
 8935POPC   GL250702  15.962  43.279   6.153
 8935POPC   C1A50703  15.951  43.120   6.453
 8935POPC   D2A50704  15.960  43.109   6.753
 8935POPC   C3A50705  15.908  43.072   7.053
 8935POPC   C4A50706  15.930  43.089   7.353
 8935POPC   C1B50707  15.947  43.316   6.453
 8935POPC   C2B50708  15.948  43.348   6.753
 8935POPC   C3B50709  15.921  43.317   7.053
 8935POPC   C4B50710  15.965  43.336   7.353
 8936POPC   NC350711   6.649  15.908   5.553
 8936POPC   PO450712   6.667  15.922   5.853
 8936POPC   GL150713   6.673  15.955   6.153
 8936POPC   GL250714   6.599  16.097   6.153
 8936POPC   C1A50715   6.640  15.951   6.453
 8936POPC   D2A50716   6.644  15.939   6.753
 8936POPC   C3A50717   6.667  15.931   7.053
 8936POPC   C4A50718   6.687  15.933   7.353
 8936POPC   C1B50719   6.525  16.186   6.453
 8936POPC   C2B50720   6.559  16.125   6.753
 8936POPC   C3B50721   6.535  16.189   7.053
 8936POPC   C4B50722   6.462  16.150   7.353
 8937POPC   NC350723  43.116  31.480   5.553
 8937POPC   PO450724  43.133  31.507   5.853
 8937POPC   GL150725  43.138  31.433   6.153
 8937POPC   GL250726  43.194  31.448   6.153
 8937POPC   C1A50727  43.111  31.512   6.453
 8937POPC   D2A50728  43.131  31.496   6.753
 8937POPC   C3A50729  43.124  31.476   7.053
 8937POPC   C4A50730  43.137  31.443   7.353
 8937POPC   C1B50731  43.357  31.552   6.453
 8937POPC   C2B50732  43.356  31.506   6.753
 8937POPC   C3B50733  43.316  31.539   7.053
 8937POPC   C4B50734  43.370  31.475   7.353
 8938POPC   NC350735   6.655  29.875   5.553
 8938POPC   PO450736   6.650  29.891   5.853
 8938POPC   GL150737   6.679  29.952   6.153
 8938POPC   GL250738   6.545  30.019   6.153
 8938POPC   C1A50739   6.660  29.930   6.453
 8938POPC   D2A50740   6.608  29.876   6.753
 8938POPC   C3A50741   6.671  29.887   7.053
 8938POPC   C4A50742   6.616  29.931   7.353
 8938POPC   C1B50743   6.523  30.071   6.453
 8938POPC   C2B50744   6.540  30.160   6.753
 8938POPC   C3B50745   6.533  30.101   7.053
 8938POPC   C4B50746   6.513  30.143   7.353
 8939POPC   NC350747  22.905  16.756   5.553
 8939POPC   PO450748  22.987  16.729   5.853
 8939POPC   GL150749  22.964  16.718   6.153
 8939POPC   GL250750  22.957  16.855   6.153
 8939POPC   C1A50751  22.889  16.754   6.453
 8939POPC   D2A50752  22.930  16.719   6.753
 8939POPC   C3A50753  22.936  16.744   7.053
 8939POPC   C4A50754  22.941  16.719   7.353
 8939POPC   C1B50755  22.849  17.019   6.453
 8939POPC   C2B50756  22.904  17.020   6.753
 8939POPC   C3B50757  22.937  16.984   7.053
 8939POPC   C4B50758  22.935  16.962   7.353
 8940POPC   NC350759  11.258   1.249   5.553
 8940POPC   PO450760  11.321   1.226   5.853
 8940POPC   GL150761  11.312   1.204   6.153
 8940POPC   GL250762  11.192   1.163   6.153
 8940POPC   C1A50763  11.259   1.203   6.453
 8940POPC   D2A50764  11.310   1.182   6.753
 8940POPC   C3A50765  11.342   1.233   7.053
 8940POPC   C4A50766  11.346   1.211   7.353
 8940POPC   C1B50767  11.101   1.141   6.453
 8940POPC   C2B50768  11.066   1.131   6.753
 8940POPC   C3B50769  11.038   1.162   7.053
 8940POPC   C4B50770  11.066   1.178   7.353
 8941POPC   NC350771   5.043  22.915   5.553
 8941POPC   PO450772   5.101  22.940   5.853
 8941POPC   GL150773   5.109  22.942   6.153
 8941POPC   GL250774   5.088  23.022   6.153
 8941POPC   C1A50775   5.079  22.957   6.453
 8941POPC   D2A50776   5.067  22.944   6.753
 8941POPC   C3A50777   5.141  22.931   7.053
 8941POPC   C4A50778   5.065  22.985   7.353
 8941POPC   C1B50779   4.958  23.181   6.453
 8941POPC   C2B50780   5.022  23.160   6.753
 8941POPC   C3B50781   5.018  23.192   7.053
 8941POPC   C4B50782   4.945  23.157   7.353
 8942POPC   NC350783   8.222  24.463   5.553
 8942POPC   PO450784   8.149  24.450   5.853
 8942POPC   GL150785   8.202  24.473   6.153
 8942POPC   GL250786   8.058  24.471   6.153
 8942POPC   C1A50787   8.202  24.446   6.453
 8942POPC   D2A50788   8.191  24.475   6.753
 8942POPC   C3A50789   8.229  24.504   7.053
 8942POPC   C4A50790   8.173  24.471   7.353
 8942POPC   C1B50791   7.983  24.472   6.453
 8942POPC   C2B50792   7.998  24.442   6.753
 8942POPC   C3B50793   7.902  24.408   7.053
 8942POPC   C4B50794   7.937  24.407   7.353
 8943POPC   NC350795  13.618  41.609   5.553
 8943POPC   PO450796  13.622  41.585   5.853
 8943POPC   GL150797  13.614  41.567   6.153
 8943POPC   GL250798  13.599  41.678   6.153
 8943POPC   C1A50799  13.613  41.557   6.453
 8943POPC   D2A50800  13.629  41.517   6.753
 8943POPC   C3A50801  13.651  41.588   7.053
 8943POPC   C4A50802  13.645  41.571   7.353
 8943POPC   C1B50803  13.588  41.757   6.453
 8943POPC   C2B50804  13.589  41.821   6.753
 8943POPC   C3B50805  13.537  41.746   7.053
 8943POPC   C4B50806  13.527  41.827   7.353
 8944POPC   NC350807   1.985  22.149   5.553
 8944POPC   PO450808   2.035  22.152   5.853
 8944POPC   GL150809   1.960  22.129   6.153
 8944POPC   GL250810   1.861  22.170   6.153
 8944POPC   C1A50811   1.969  22.114   6.453
 8944POPC   D2A50812   2.006  22.176   6.753
 8944POPC   C3A50813   2.032  22.151   7.053
 8944POPC   C4A50814   1.948  22.121   7.353
 8944POPC   C1B50815   1.731  22.225   6.453
 8944POPC   C2B50816   1.750  22.227   6.753
 8944POPC   C3B50817   1.773  22.195   7.053
 8944POPC   C4B50818   1.727  22.192   7.353
 8945POPC   NC350819  19.055   8.934   5.553
 8945POPC   PO450820  19.013   8.971   5.853
 8945POPC   GL150821  19.057   8.932   6.153
 8945POPC   GL250822  18.927   9.041   6.153
 8945POPC   C1A50823  19.103   9.020   6.453
 8945POPC   D2A50824  19.012   8.928   6.753
 8945POPC   C3A50825  19.095   8.989   7.053
 8945POPC   C4A50826  19.036   8.959   7.353
 8945POPC   C1B50827  18.880   9.116   6.453
 8945POPC   C2B50828  18.881   9.124   6.753
 8945POPC   C3B50829  18.868   9.064   7.053
 8945POPC   C4B50830  18.839   9.119   7.353
 8946POPC   NC350831   5.906  14.361   5.553
 8946POPC   PO450832   5.861  14.399   5.853
 8946POPC   GL150833   5.918  14.357   6.153
 8946POPC   GL250834   6.005  14.486   6.153
 8946POPC   C1A50835   5.888  14.396   6.453
 8946POPC   D2A50836   5.904  14.395   6.753
 8946POPC   C3A50837   5.882  14.418   7.053
 8946POPC   C4A50838   5.870  14.431   7.353
 8946POPC   C1B50839   6.092  14.530   6.453
 8946POPC   C2B50840   6.072  14.531   6.753
 8946POPC   C3B50841   6.107  14.500   7.053
 8946POPC   C4B50842   6.105  14.501   7.353
 8947POPC   NC350843   1.209  32.233   5.553
 8947POPC   PO450844   1.172  32.202   5.853
 8947POPC   GL150845   1.262  32.200   6.153
 8947POPC   GL250846   1.077  32.302   6.153
 8947POPC   C1A50847   1.245  32.209   6.453
 8947POPC   D2A50848   1.244  32.270   6.753
 8947POPC   C3A50849   1.204  32.221   7.053
 8947POPC   C4A50850   1.228  32.268   7.353
 8947POPC   C1B50851   1.014  32.295   6.453
 8947POPC   C2B50852   1.009  32.375   6.753
 8947POPC   C3B50853   0.983  32.346   7.053
 8947POPC   C4B50854   1.030  32.346   7.353
 8948POPC   NC350855   5.822  17.527   5.553
 8948POPC   PO450856   5.851  17.515   5.853
 8948POPC   GL150857   5.855  17.539   6.153
 8948POPC   GL250858   5.967  17.590   6.153
 8948POPC   C1A50859   5.822  17.476   6.453
 8948POPC   D2A50860   5.913  17.490   6.753
 8948POPC   C3A50861   5.885  17.485   7.053
 8948POPC   C4A50862   5.903  17.473   7.353
 8948POPC   C1B50863   6.012  17.775   6.453
 8948POPC   C2B50864   5.999  17.749   6.753
 8948POPC   C3B50865   5.989  17.703   7.053
 8948POPC   C4B50866   6.016  17.696   7.353
 8949POPC   NC350867  36.872  12.030   5.553
 8949POPC   PO450868  36.897  12.029   5.853
 8949POPC   GL150869  36.932  12.089   6.153
 8949POPC   GL250870  36.739  12.144   6.153
 8949POPC   C1A50871  36.933  12.053   6.453
 8949POPC   D2A50872  36.951  12.086   6.753
 8949POPC   C3A50873  36.877  12.064   7.053
 8949POPC   C4A50874  36.908  12.099   7.353
 8949POPC   C1B50875  36.625  12.121   6.453
 8949POPC   C2B50876  36.688  12.177   6.753
 8949POPC   C3B50877  36.652  12.131   7.053
 8949POPC   C4B50878  36.667  12.139   7.353
 8950POPC   NC350879  21.399  34.540   5.553
 8950POPC   PO450880  21.421  34.609   5.853
 8950POPC   GL150881  21.338  34.556   6.153
 8950POPC   GL250882  21.429  34.735   6.153
 8950POPC   C1A50883  21.346  34.621   6.453
 8950POPC   D2A50884  21.395  34.552   6.753
 8950POPC   C3A50885  21.338  34.588   7.053
 8950POPC   C4A50886  21.387  34.573   7.353
 8950POPC   C1B50887  21.407  34.842   6.453
 8950POPC   C2B50888  21.439  34.833   6.753
 8950POPC   C3B50889  21.440  34.776   7.053
 8950POPC   C4B50890  21.481  34.821   7.353
 8951POPC   NC350891  12.031  39.243   5.553
 8951POPC   PO450892  12.036  39.263   5.853
 8951POPC   GL150893  12.084  39.195   6.153
 8951POPC   GL250894  12.184  39.349   6.153
 8951POPC   C1A50895  12.059  39.194   6.453
 8951POPC   D2A50896  12.071  39.274   6.753
 8951POPC   C3A50897  12.036  39.270   7.053
 8951POPC   C4A50898  12.067  39.269   7.353
 8951POPC   C1B50899  12.289  39.437   6.453
 8951POPC   C2B50900  12.212  39.437   6.753
 8951POPC   C3B50901  12.279  39.402   7.053
 8951POPC   C4B50902  12.227  39.421   7.353
 8952POPC   NC350903   7.448  39.181   5.553
 8952POPC   PO450904   7.397  39.242   5.853
 8952POPC   GL150905   7.403  39.259   6.153
 8952POPC   GL250906   7.423  39.305   6.153
 8952POPC   C1A50907   7.374  39.201   6.453
 8952POPC   D2A50908   7.380  39.266   6.753
 8952POPC   C3A50909   7.465  39.274   7.053
 8952POPC   C4A50910   7.409  39.188   7.353
 8952POPC   C1B50911   7.450  39.516   6.453
 8952POPC   C2B50912   7.510  39.509   6.753
 8952POPC   C3B50913   7.505  39.448   7.053
 8952POPC   C4B50914   7.511  39.476   7.353
 8953POPC   NC350915   4.345  37.634   5.553
 8953POPC   PO450916   4.322  37.693   5.853
 8953POPC   GL150917   4.354  37.639   6.153
 8953POPC   GL250918   4.362  37.532   6.153
 8953POPC   C1A50919   4.271  37.709   6.453
 8953POPC   D2A50920   4.310  37.658   6.753
 8953POPC   C3A50921   4.309  37.634   7.053
 8953POPC   C4A50922   4.279  37.689   7.353
 8953POPC   C1B50923   4.323  37.462   6.453
 8953POPC   C2B50924   4.267  37.478   6.753
 8953POPC   C3B50925   4.295  37.384   7.053
 8953POPC   C4B50926   4.349  37.380   7.353
 8954POPC   NC350927   2.785  43.919   5.553
 8954POPC   PO450928   2.750  43.843   5.853
 8954POPC   GL150929   2.802  43.839   6.153
 8954POPC   GL250930   2.823  43.979   6.153
 8954POPC   C1A50931   2.732  43.845   6.453
 8954POPC   D2A50932   2.752  43.902   6.753
 8954POPC   C3A50933   2.801  43.866   7.053
 8954POPC   C4A50934   2.722  43.858   7.353
 8954POPC   C1B50935   2.894  44.105   6.453
 8954POPC   C2B50936   2.886  44.057   6.753
 8954POPC   C3B50937   2.923  44.078   7.053
 8954POPC   C4B50938   2.910  44.089   7.353
 8955POPC   NC350939  42.354  39.254   5.553
 8955POPC   PO450940  42.321  39.247   5.853
 8955POPC   GL150941  42.379  39.212   6.153
 8955POPC   GL250942  42.295  39.144   6.153
 8955POPC   C1A50943  42.338  39.201   6.453
 8955POPC   D2A50944  42.337  39.207   6.753
 8955POPC   C3A50945  42.319  39.228   7.053
 8955POPC   C4A50946  42.312  39.192   7.353
 8955POPC   C1B50947  42.285  39.015   6.453
 8955POPC   C2B50948  42.309  38.978   6.753
 8955POPC   C3B50949  42.255  38.956   7.053
 8955POPC   C4B50950  42.290  39.033   7.353
 8956POPC   NC350951  12.097   5.141   5.553
 8956POPC   PO450952  12.118   5.105   5.853
 8956POPC   GL150953  12.026   5.097   6.153
 8956POPC   GL250954  12.190   5.029   6.153
 8956POPC   C1A50955  12.057   5.075   6.453
 8956POPC   D2A50956  12.038   5.117   6.753
 8956POPC   C3A50957  12.069   5.094   7.053
 8956POPC   C4A50958  12.050   5.105   7.353
 8956POPC   C1B50959  12.298   5.004   6.453
 8956POPC   C2B50960  12.319   5.026   6.753
 8956POPC   C3B50961  12.349   5.027   7.053
 8956POPC   C4B50962  12.369   5.003   7.353
 8957POPC   NC350963   0.446  39.972   5.553
 8957POPC   PO450964   0.437  40.010   5.853
 8957POPC   GL150965   0.435  40.043   6.153
 8957POPC   GL250966   0.411  40.084   6.153
 8957POPC   C1A50967   0.453  39.969   6.453
 8957POPC   D2A50968   0.449  40.046   6.753
 8957POPC   C3A50969   0.451  40.002   7.053
 8957POPC   C4A50970   0.401  39.960   7.353
 8957POPC   C1B50971   0.391  40.281   6.453
 8957POPC   C2B50972   0.441  40.285   6.753
 8957POPC   C3B50973   0.406  40.235   7.053
 8957POPC   C4B50974   0.384  40.254   7.353
 8958POPC   NC350975  32.268  12.075   5.553
 8958POPC   PO450976  32.294  12.106   5.853
 8958POPC   GL150977  32.211  12.119   6.153
 8958POPC   GL250978  32.237  11.927   6.153
 8958POPC   C1A50979  32.208  12.050   6.453
 8958POPC   D2A50980  32.274  12.107   6.753
 8958POPC   C3A50981  32.285  12.064   7.053
 8958POPC   C4A50982  32.204  12.103   7.353
 8958POPC   C1B50983  32.270  11.829   6.453
 8958POPC   C2B50984  32.310  11.867   6.753
 8958POPC   C3B50985  32.274  11.842   7.053
 8958POPC   C4B50986  32.281  11.815   7.353
 8959POPC   NC350987  42.320  32.243   5.553
 8959POPC   PO450988  42.380  32.279   5.853
 8959POPC   GL150989  42.362  32.275   6.153
 8959POPC   GL250990  42.241  32.240   6.153
 8959POPC   C1A50991  42.356  32.270   6.453
 8959POPC   D2A50992  42.375  32.266   6.753
 8959POPC   C3A50993  42.289  32.226   7.053
 8959POPC   C4A50994  42.352  32.241   7.353
 8959POPC   C1B50995  42.109  32.251   6.453
 8959POPC   C2B50996  42.097  32.224   6.753
 8959POPC   C3B50997  42.059  32.270   7.053
 8959POPC   C4B50998  42.052  32.275   7.353
 8960POPC   NC350999  14.425  43.868   5.553
 8960POPC   PO451000  14.390  43.849   5.853
 8960POPC   GL151001  14.437  43.858   6.153
 8960POPC   GL251002  14.309  43.894   6.153
 8960POPC   C1A51003  14.393  43.919   6.453
 8960POPC   D2A51004  14.360  43.854   6.753
 8960POPC   C3A51005  14.424  43.853   7.053
 8960POPC   C4A51006  14.354  43.899   7.353
 8960POPC   C1B51007  14.149  43.801   6.453
 8960POPC   C2B51008  14.124  43.864   6.753
 8960POPC   C3B51009  14.132  43.853   7.053
 8960POPC   C4B51010  14.108  43.840   7.353
 8961POPC   NC351011  31.437  25.241   5.553
 8961POPC   PO451012  31.452  25.280   5.853
 8961POPC   GL151013  31.503  25.236   6.153
 8961POPC   GL251014  31.469  25.377   6.153
 8961POPC   C1A51015  31.425  25.261   6.453
 8961POPC   D2A51016  31.514  25.266   6.753
 8961POPC   C3A51017  31.473  25.267   7.053
 8961POPC   C4A51018  31.457  25.293   7.353
 8961POPC   C1B51019  31.555  25.475   6.453
 8961POPC   C2B51020  31.559  25.534   6.753
 8961POPC   C3B51021  31.541  25.551   7.053
 8961POPC   C4B51022  31.583  25.523   7.353
 8962POPC   NC351023   1.946  32.227   5.553
 8962POPC   PO451024   1.948  32.260   5.853
 8962POPC   GL151025   1.982  32.208   6.153
 8962POPC   GL251026   2.152  32.187   6.153
 8962POPC   C1A51027   2.018  32.226   6.453
 8962POPC   D2A51028   2.000  32.289   6.753
 8962POPC   C3A51029   2.000  32.283   7.053
 8962POPC   C4A51030   2.008  32.291   7.353
 8962POPC   C1B51031   2.234  32.187   6.453
 8962POPC   C2B51032   2.269  32.201   6.753
 8962POPC   C3B51033   2.211  32.251   7.053
 8962POPC   C4B51034   2.243  32.224   7.353
 8963POPC   NC351035  22.184  15.993   5.553
 8963POPC   PO451036  22.119  15.938   5.853
 8963POPC   GL151037  22.119  15.931   6.153
 8963POPC   GL251038  22.252  16.083   6.153
 8963POPC   C1A51039  22.118  15.975   6.453
 8963POPC   D2A51040  22.140  15.994   6.753
 8963POPC   C3A51041  22.176  15.990   7.053
 8963POPC   C4A51042  22.113  15.932   7.353
 8963POPC   C1B51043  22.358  16.170   6.453
 8963POPC   C2B51044  22.302  16.168   6.753
 8963POPC   C3B51045  22.348  16.177   7.053
 8963POPC   C4B51046  22.342  16.171   7.353
 8964POPC   NC351047  31.453   3.493   5.553
 8964POPC   PO451048  31.430   3.556   5.853
 8964POPC   GL151049  31.515   3.553   6.153
 8964POPC   GL251050  31.362   3.504   6.153
 8964POPC   C1A51051  31.459   3.588   6.453
 8964POPC   D2A51052  31.476   3.503   6.753
 8964POPC   C3A51053  31.521   3.513   7.053
 8964POPC   C4A51054  31.484   3.558   7.353
 8964POPC   C1B51055  31.257   3.477   6.453
 8964POPC   C2B51056  31.219   3.432   6.753
 8964POPC   C3B51057  31.220   3.457   7.053
 8964POPC   C4B51058  31.238   3.404   7.353
 8965POPC   NC351059  24.539  35.382   5.553
 8965POPC   PO451060  24.498  35.346   5.853
 8965POPC   GL151061  24.502  35.334   6.153
 8965POPC   GL251062  24.557  35.491   6.153
 8965POPC   C1A51063  24.539  35.352   6.453
 8965POPC   D2A51064  24.515  35.381   6.753
 8965POPC   C3A51065  24.479  35.398   7.053
 8965POPC   C4A51066  24.490  35.396   7.353
 8965POPC   C1B51067  24.627  35.537   6.453
 8965POPC   C2B51068  24.638  35.509   6.753
 8965POPC   C3B51069  24.651  35.522   7.053
 8965POPC   C4B51070  24.676  35.590   7.353
 8966POPC   NC351071   9.742  40.819   5.553
 8966POPC   PO451072   9.749  40.764   5.853
 8966POPC   GL151073   9.721  40.812   6.153
 8966POPC   GL251074   9.828  40.710   6.153
 8966POPC   C1A51075   9.704  40.777   6.453
 8966POPC   D2A51076   9.785  40.813   6.753
 8966POPC   C3A51077   9.798  40.776   7.053
 8966POPC   C4A51078   9.709  40.789   7.353
 8966POPC   C1B51079   9.918  40.594   6.453
 8966POPC   C2B51080   9.959  40.640   6.753
 8966POPC   C3B51081   9.968  40.611   7.053
 8966POPC   C4B51082   9.975  40.598   7.353
 8967POPC   NC351083  19.853   9.780   5.553
 8967POPC   PO451084  19.843   9.702   5.853
 8967POPC   GL151085  19.821   9.735   6.153
 8967POPC   GL251086  19.831   9.585   6.153
 8967POPC   C1A51087  19.868   9.705   6.453
 8967POPC   D2A51088  19.829   9.778   6.753
 8967POPC   C3A51089  19.870   9.746   7.053
 8967POPC   C4A51090  19.877   9.701   7.353
 8967POPC   C1B51091  19.798   9.551   6.453
 8967POPC   C2B51092  19.723   9.518   6.753
 8967POPC   C3B51093  19.787   9.517   7.053
 8967POPC   C4B51094  19.800   9.511   7.353
 8968POPC   NC351095  26.017  27.618   5.553
 8968POPC   PO451096  26.017  27.601   5.853
 8968POPC   GL151097  26.018  27.617   6.153
 8968POPC   GL251098  26.009  27.463   6.153
 8968POPC   C1A51099  26.055  27.566   6.453
 8968POPC   D2A51100  26.084  27.557   6.753
 8968POPC   C3A51101  26.001  27.545   7.053
 8968POPC   C4A51102  26.087  27.549   7.353
 8968POPC   C1B51103  25.972  27.386   6.453
 8968POPC   C2B51104  25.958  27.380   6.753
 8968POPC   C3B51105  25.963  27.342   7.053
 8968POPC   C4B51106  25.972  27.382   7.353
 8969POPC   NC351107  27.614  19.010   5.553
 8969POPC   PO451108  27.563  19.062   5.853
 8969POPC   GL151109  27.586  19.108   6.153
 8969POPC   GL251110  27.527  19.211   6.153
 8969POPC   C1A51111  27.623  19.023   6.453
 8969POPC   D2A51112  27.623  19.014   6.753
 8969POPC   C3A51113  27.595  19.091   7.053
 8969POPC   C4A51114  27.618  19.032   7.353
 8969POPC   C1B51115  27.484  19.314   6.453
 8969POPC   C2B51116  27.492  19.261   6.753
 8969POPC   C3B51117  27.486  19.284   7.053
 8969POPC   C4B51118  27.464  19.236   7.353
 8970POPC   NC351119   6.609   2.717   5.553
 8970POPC   PO451120   6.638   2.733   5.853
 8970POPC   GL151121   6.616   2.813   6.153
 8970POPC   GL251122   6.752   2.705   6.153
 8970POPC   C1A51123   6.621   2.774   6.453
 8970POPC   D2A51124   6.638   2.774   6.753
 8970POPC   C3A51125   6.608   2.785   7.053
 8970POPC   C4A51126   6.691   2.744   7.353
 8970POPC   C1B51127   6.860   2.713   6.453
 8970POPC   C2B51128   6.909   2.678   6.753
 8970POPC   C3B51129   6.856   2.663   7.053
 8970POPC   C4B51130   6.880   2.700   7.353
 8971POPC   NC351131   2.755  21.408   5.553
 8971POPC   PO451132   2.758  21.344   5.853
 8971POPC   GL151133   2.772  21.389   6.153
 8971POPC   GL251134   2.870  21.339   6.153
 8971POPC   C1A51135   2.756  21.378   6.453
 8971POPC   D2A51136   2.756  21.408   6.753
 8971POPC   C3A51137   2.806  21.434   7.053
 8971POPC   C4A51138   2.797  21.410   7.353
 8971POPC   C1B51139   3.003  21.338   6.453
 8971POPC   C2B51140   2.983  21.347   6.753
 8971POPC   C3B51141   2.987  21.353   7.053
 8971POPC   C4B51142   3.016  21.371   7.353
 8972POPC   NC351143  26.056  14.389   5.553
 8972POPC   PO451144  26.075  14.376   5.853
 8972POPC   GL151145  26.037  14.449   6.153
 8972POPC   GL251146  26.037  14.262   6.153
 8972POPC   C1A51147  26.045  14.392   6.453
 8972POPC   D2A51148  25.996  14.432   6.753
 8972POPC   C3A51149  26.021  14.388   7.053
 8972POPC   C4A51150  26.036  14.384   7.353
 8972POPC   C1B51151  26.114  14.150   6.453
 8972POPC   C2B51152  26.099  14.170   6.753
 8972POPC   C3B51153  26.132  14.184   7.053
 8972POPC   C4B51154  26.061  14.149   7.353
 8973POPC   NC351155   5.068  26.849   5.553
 8973POPC   PO451156   5.118  26.867   5.853
 8973POPC   GL151157   5.083  26.818   6.153
 8973POPC   GL251158   5.174  26.880   6.153
 8973POPC   C1A51159   5.098  26.785   6.453
 8973POPC   D2A51160   5.060  26.772   6.753
 8973POPC   C3A51161   5.056  26.824   7.053
 8973POPC   C4A51162   5.138  26.781   7.353
 8973POPC   C1B51163   5.360  26.935   6.453
 8973POPC   C2B51164   5.297  26.952   6.753
 8973POPC   C3B51165   5.278  26.979   7.053
 8973POPC   C4B51166   5.307  26.946   7.353
 8974POPC   NC351167  15.203  25.302   5.553
 8974POPC   PO451168  15.213  25.280   5.853
 8974POPC   GL151169  15.211  25.304   6.153
 8974POPC   GL251170  15.015  25.248   6.153
 8974POPC   C1A51171  15.181  25.280   6.453
 8974POPC   D2A51172  15.145  25.261   6.753
 8974POPC   C3A51173  15.181  25.254   7.053
 8974POPC   C4A51174  15.162  25.289   7.353
 8974POPC   C1B51175  14.926  25.175   6.453
 8974POPC   C2B51176  14.980  25.160   6.753
 8974POPC   C3B51177  14.933  25.210   7.053
 8974POPC   C4B51178  14.927  25.167   7.353
 8975POPC   NC351179  26.786  22.120   5.553
 8975POPC   PO451180  26.775  22.177   5.853
 8975POPC   GL151181  26.867  22.144   6.153
 8975POPC   GL251182  26.904  22.304   6.153
 8975POPC   C1A51183  26.776  22.140   6.453
 8975POPC   D2A51184  26.862  22.135   6.753
 8975POPC   C3A51185  26.866  22.204   7.053
 8975POPC   C4A51186  26.844  22.202   7.353
 8975POPC   C1B51187  26.948  22.344   6.453
 8975POPC   C2B51188  26.891  22.372   6.753
 8975POPC   C3B51189  26.953  22.404   7.053
 8975POPC   C4B51190  26.935  22.388   7.353
 8976POPC   NC351191  31.503  16.707   5.553
 8976POPC   PO451192  31.475  16.698   5.853
 8976POPC   GL151193  31.462  16.758   6.153
 8976POPC   GL251194  31.341  16.764   6.153
 8976POPC   C1A51195  31.449  16.770   6.453
 8976POPC   D2A51196  31.478  16.746   6.753
 8976POPC   C3A51197  31.442  16.703   7.053
 8976POPC   C4A51198  31.497  16.746   7.353
 8976POPC   C1B51199  31.185  16.716   6.453
 8976POPC   C2B51200  31.185  16.759   6.753
 8976POPC   C3B51201  31.203  16.783   7.053
 8976POPC   C4B51202  31.189  16.762   7.353
 8977POPC   NC351203  40.044   5.051   5.553
 8977POPC   PO451204  40.026   5.100   5.853
 8977POPC   GL151205  40.048   5.085   6.153
 8977POPC   GL251206  39.867   5.044   6.153
 8977POPC   C1A51207  40.056   5.057   6.453
 8977POPC   D2A51208  40.018   5.087   6.753
 8977POPC   C3A51209  39.980   5.113   7.053
 8977POPC   C4A51210  39.961   5.097   7.353
 8977POPC   C1B51211  39.796   5.054   6.453
 8977POPC   C2B51212  39.726   5.070   6.753
 8977POPC   C3B51213  39.807   5.132   7.053
 8977POPC   C4B51214  39.716   5.063   7.353
 8978POPC   NC351215   5.099  13.597   5.553
 8978POPC   PO451216   5.071  13.655   5.853
 8978POPC   GL151217   5.095  13.593   6.153
 8978POPC   GL251218   4.982  13.609   6.153
 8978POPC   C1A51219   5.044  13.642   6.453
 8978POPC   D2A51220   5.045  13.578   6.753
 8978POPC   C3A51221   5.114  13.673   7.053
 8978POPC   C4A51222   5.085  13.650   7.353
 8978POPC   C1B51223   4.893  13.547   6.453
 8978POPC   C2B51224   4.845  13.521   6.753
 8978POPC   C3B51225   4.878  13.534   7.053
 8978POPC   C4B51226   4.833  13.548   7.353
 8979POPC   NC351227   0.462  29.099   5.553
 8979POPC   PO451228   0.464  29.118   5.853
 8979POPC   GL151229   0.420  29.141   6.153
 8979POPC   GL251230   0.482  29.040   6.153
 8979POPC   C1A51231   0.398  29.103   6.453
 8979POPC   D2A51232   0.389  29.126   6.753
 8979POPC   C3A51233   0.398  29.167   7.053
 8979POPC   C4A51234   0.414  29.152   7.353
 8979POPC   C1B51235   0.549  28.952   6.453
 8979POPC   C2B51236   0.536  28.881   6.753
 8979POPC   C3B51237   0.517  28.951   7.053
 8979POPC   C4B51238   0.545  28.940   7.353
 8980POPC   NC351239  29.095  19.043   5.553
 8980POPC   PO451240  29.149  19.084   5.853
 8980POPC   GL151241  29.112  19.057   6.153
 8980POPC   GL251242  29.243  19.080   6.153
 8980POPC   C1A51243  29.127  19.010   6.453
 8980POPC   D2A51244  29.178  19.088   6.753
 8980POPC   C3A51245  29.127  19.037   7.053
 8980POPC   C4A51246  29.136  19.042   7.353
 8980POPC   C1B51247  29.427  18.988   6.453
 8980POPC   C2B51248  29.368  18.991   6.753
 8980POPC   C3B51249  29.393  19.025   7.053
 8980POPC   C4B51250  29.433  18.966   7.353
 8981POPC   NC351251  18.316  23.678   5.553
 8981POPC   PO451252  18.316  23.705   5.853
 8981POPC   GL151253  18.307  23.749   6.153
 8981POPC   GL251254  18.362  23.809   6.153
 8981POPC   C1A51255  18.243  23.705   6.453
 8981POPC   D2A51256  18.253  23.675   6.753
 8981POPC   C3A51257  18.317  23.753   7.053
 8981POPC   C4A51258  18.331  23.760   7.353
 8981POPC   C1B51259  18.368  23.914   6.453
 8981POPC   C2B51260  18.338  23.998   6.753
 8981POPC   C3B51261  18.359  23.990   7.053
 8981POPC   C4B51262  18.339  23.984   7.353
 8982POPC   NC351263  41.560  33.817   5.553
 8982POPC   PO451264  41.592  33.798   5.853
 8982POPC   GL151265  41.596  33.793   6.153
 8982POPC   GL251266  41.659  33.743   6.153
 8982POPC   C1A51267  41.513  33.757   6.453
 8982POPC   D2A51268  41.546  33.809   6.753
 8982POPC   C3A51269  41.545  33.822   7.053
 8982POPC   C4A51270  41.552  33.757   7.353
 8982POPC   C1B51271  41.732  33.579   6.453
 8982POPC   C2B51272  41.711  33.668   6.753
 8982POPC   C3B51273  41.691  33.629   7.053
 8982POPC   C4B51274  41.743  33.592   7.353
 8983POPC   NC351275  19.793  27.637   5.553
 8983POPC   PO451276  19.850  27.557   5.853
 8983POPC   GL151277  19.852  27.553   6.153
 8983POPC   GL251278  19.673  27.558   6.153
 8983POPC   C1A51279  19.870  27.607   6.453
 8983POPC   D2A51280  19.807  27.627   6.753
 8983POPC   C3A51281  19.837  27.633   7.053
 8983POPC   C4A51282  19.790  27.587   7.353
 8983POPC   C1B51283  19.596  27.473   6.453
 8983POPC   C2B51284  19.640  27.538   6.753
 8983POPC   C3B51285  19.651  27.483   7.053
 8983POPC   C4B51286  19.604  27.470   7.353
 8984POPC   NC351287  40.749   1.186   5.553
 8984POPC   PO451288  40.791   1.204   5.853
 8984POPC   GL151289  40.762   1.167   6.153
 8984POPC   GL251290  40.711   1.199   6.153
 8984POPC   C1A51291  40.788   1.165   6.453
 8984POPC   D2A51292  40.826   1.186   6.753
 8984POPC   C3A51293  40.770   1.238   7.053
 8984POPC   C4A51294  40.821   1.202   7.353
 8984POPC   C1B51295  40.564   1.041   6.453
 8984POPC   C2B51296  40.590   1.109   6.753
 8984POPC   C3B51297  40.522   1.138   7.053
 8984POPC   C4B51298  40.547   1.109   7.353
 8985POPC   NC351299  36.151  35.322   5.553
 8985POPC   PO451300  36.161  35.366   5.853
 8985POPC   GL151301  36.157  35.384   6.153
 8985POPC   GL251302  36.207  35.440   6.153
 8985POPC   C1A51303  36.166  35.306   6.453
 8985POPC   D2A51304  36.092  35.386   6.753
 8985POPC   C3A51305  36.097  35.362   7.053
 8985POPC   C4A51306  36.136  35.361   7.353
 8985POPC   C1B51307  36.308  35.575   6.453
 8985POPC   C2B51308  36.338  35.560   6.753
 8985POPC   C3B51309  36.325  35.564   7.053
 8985POPC   C4B51310  36.286  35.491   7.353
 8986POPC   NC351311   9.728  39.961   5.553
 8986POPC   PO451312   9.756  40.012   5.853
 8986POPC   GL151313   9.744  40.019   6.153
 8986POPC   GL251314   9.898  40.024   6.153
 8986POPC   C1A51315   9.739  40.033   6.453
 8986POPC   D2A51316   9.733  39.970   6.753
 8986POPC   C3A51317   9.713  39.968   7.053
 8986POPC   C4A51318   9.736  39.961   7.353
 8986POPC   C1B51319   9.951  39.908   6.453
 8986POPC   C2B51320  10.019  39.920   6.753
 8986POPC   C3B51321   9.997  39.950   7.053
 8986POPC   C4B51322   9.977  39.925   7.353
 8987POPC   NC351323  22.155  12.120   5.553
 8987POPC   PO451324  22.143  12.036   5.853
 8987POPC   GL151325  22.119  12.111   6.153
 8987POPC   GL251326  22.083  11.965   6.153
 8987POPC   C1A51327  22.130  12.055   6.453
 8987POPC   D2A51328  22.158  12.050   6.753
 8987POPC   C3A51329  22.122  12.090   7.053
 8987POPC   C4A51330  22.121  12.115   7.353
 8987POPC   C1B51331  22.068  11.845   6.453
 8987POPC   C2B51332  22.089  11.855   6.753
 8987POPC   C3B51333  22.091  11.821   7.053
 8987POPC   C4B51334  22.009  11.842   7.353
 8988POPC   NC351335  12.810  19.105   5.553
 8988POPC   PO451336  12.813  19.021   5.853
 8988POPC   GL151337  12.860  19.089   6.153
 8988POPC   GL251338  12.954  19.135   6.153
 8988POPC   C1A51339  12.830  19.014   6.453
 8988POPC   D2A51340  12.834  19.039   6.753
 8988POPC   C3A51341  12.823  19.100   7.053
 8988POPC   C4A51342  12.878  19.043   7.353
 8988POPC   C1B51343  12.998  19.251   6.453
 8988POPC   C2B51344  12.977  19.237   6.753
 8988POPC   C3B51345  13.024  19.296   7.053
 8988POPC   C4B51346  13.024  19.242   7.353
 8989POPC   NC351347  37.643  12.805   5.553
 8989POPC   PO451348  37.729  12.862   5.853
 8989POPC   GL151349  37.656  12.839   6.153
 8989POPC   GL251350  37.739  12.976   6.153
 8989POPC   C1A51351  37.690  12.896   6.453
 8989POPC   D2A51352  37.634  12.849   6.753
 8989POPC   C3A51353  37.711  12.867   7.053
 8989POPC   C4A51354  37.631  12.850   7.353
 8989POPC   C1B51355  37.845  13.067   6.453
 8989POPC   C2B51356  37.818  12.969   6.753
 8989POPC   C3B51357  37.898  12.970   7.053
 8989POPC   C4B51358  37.837  12.987   7.353
 8990POPC   NC351359  12.080  27.547   5.553
 8990POPC   PO451360  12.055  27.597   5.853
 8990POPC   GL151361  12.032  27.581   6.153
 8990POPC   GL251362  12.030  27.473   6.153
 8990POPC   C1A51363  12.068  27.639   6.453
 8990POPC   D2A51364  12.125  27.553   6.753
 8990POPC   C3A51365  12.053  27.579   7.053
 8990POPC   C4A51366  12.079  27.570   7.353
 8990POPC   C1B51367  12.067  27.322   6.453
 8990POPC   C2B51368  12.013  27.377   6.753
 8990POPC   C3B51369  12.029  27.389   7.053
 8990POPC   C4B51370  12.062  27.363   7.353
 8991POPC   NC351371  44.705  27.627   5.553
 8991POPC   PO451372  44.613  27.552   5.853
 8991POPC   GL151373  44.651  27.617   6.153
 8991POPC   GL251374  44.553  27.658   6.153
 8991POPC   C1A51375  44.705  27.601   6.453
 8991POPC   D2A51376  44.668  27.551   6.753
 8991POPC   C3A51377  44.689  27.571   7.053
 8991POPC   C4A51378  44.677  27.551   7.353
 8991POPC   C1B51379  44.461  27.700   6.453
 8991POPC   C2B51380  44.447  27.753   6.753
 8991POPC   C3B51381  44.434  27.742   7.053
 8991POPC   C4B51382  44.455  27.755   7.353
 8992POPC   NC351383  42.366  41.516   5.553
 8992POPC   PO451384  42.344  41.582   5.853
 8992POPC   GL151385  42.379  41.565   6.153
 8992POPC   GL251386  42.479  41.487   6.153
 8992POPC   C1A51387  42.286  41.580   6.453
 8992POPC   D2A51388  42.321  41.587   6.753
 8992POPC   C3A51389  42.312  41.538   7.053
 8992POPC   C4A51390  42.323  41.527   7.353
 8992POPC   C1B51391  42.587  41.518   6.453
 8992POPC   C2B51392  42.601  41.439   6.753
 8992POPC   C3B51393  42.561  41.491   7.053
 8992POPC   C4B51394  42.569  41.470   7.353
 8993POPC   NC351395   1.251  12.811   5.553
 8993POPC   PO451396   1.220  12.850   5.853
 8993POPC   GL151397   1.167  12.812   6.153
 8993POPC   GL251398   1.086  12.769   6.153
 8993POPC   C1A51399   1.244  12.867   6.453
 8993POPC   D2A51400   1.252  12.837   6.753
 8993POPC   C3A51401   1.255  12.885   7.053
 8993POPC   C4A51402   1.256  12.834   7.353
 8993POPC   C1B51403   1.018  12.736   6.453
 8993POPC   C2B51404   1.010  12.691   6.753
 8993POPC   C3B51405   1.018  12.675   7.053
 8993POPC   C4B51406   0.983  12.723   7.353
 8994POPC   NC351407  29.916  23.706   5.553
 8994POPC   PO451408  29.946  23.699   5.853
 8994POPC   GL151409  29.958  23.758   6.153
 8994POPC   GL251410  29.957  23.633   6.153
 8994POPC   C1A51411  29.932  23.758   6.453
 8994POPC   D2A51412  29.897  23.671   6.753
 8994POPC   C3A51413  29.928  23.740   7.053
 8994POPC   C4A51414  29.918  23.727   7.353
 8994POPC   C1B51415  29.936  23.459   6.453
 8994POPC   C2B51416  29.961  23.506   6.753
 8994POPC   C3B51417  29.896  23.423   7.053
 8994POPC   C4B51418  29.945  23.457   7.353
 8995POPC   NC351419  26.776   8.184   5.553
 8995POPC   PO451420  26.768   8.229   5.853
 8995POPC   GL151421  26.816   8.224   6.153
 8995POPC   GL251422  26.869   8.100   6.153
 8995POPC   C1A51423  26.862   8.147   6.453
 8995POPC   D2A51424  26.781   8.155   6.753
 8995POPC   C3A51425  26.812   8.198   7.053
 8995POPC   C4A51426  26.806   8.237   7.353
 8995POPC   C1B51427  26.917   7.949   6.453
 8995POPC   C2B51428  26.971   7.985   6.753
 8995POPC   C3B51429  26.969   7.975   7.053
 8995POPC   C4B51430  26.932   8.014   7.353
 8996POPC   NC351431  13.580  17.536   5.553
 8996POPC   PO451432  13.675  17.538   5.853
 8996POPC   GL151433  13.586  17.518   6.153
 8996POPC   GL251434  13.696  17.429   6.153
 8996POPC   C1A51435  13.640  17.490   6.453
 8996POPC   D2A51436  13.667  17.518   6.753
 8996POPC   C3A51437  13.672  17.472   7.053
 8996POPC   C4A51438  13.608  17.490   7.353
 8996POPC   C1B51439  13.788  17.293   6.453
 8996POPC   C2B51440  13.821  17.283   6.753
 8996POPC   C3B51441  13.765  17.335   7.053
 8996POPC   C4B51442  13.806  17.314   7.353
 8997POPC   NC351443   6.603  27.559   5.553
 8997POPC   PO451444   6.677  27.566   5.853
 8997POPC   GL151445   6.692  27.601   6.153
 8997POPC   GL251446   6.737  27.462   6.153
 8997POPC   C1A51447   6.670  27.640   6.453
 8997POPC   D2A51448   6.647  27.630   6.753
 8997POPC   C3A51449   6.649  27.603   7.053
 8997POPC   C4A51450   6.648  27.580   7.353
 8997POPC   C1B51451   6.756  27.380   6.453
 8997POPC   C2B51452   6.785  27.386   6.753
 8997POPC   C3B51453   6.731  27.370   7.053
 8997POPC   C4B51454   6.794  27.346   7.353
 8998POPC   NC351455   7.382  21.367   5.553
 8998POPC   PO451456   7.393  21.402   5.853
 8998POPC   GL151457   7.430  21.399   6.153
 8998POPC   GL251458   7.558  21.293   6.153
 8998POPC   C1A51459   7.455  21.371   6.453
 8998POPC   D2A51460   7.451  21.341   6.753
 8998POPC   C3A51461   7.437  21.392   7.053
 8998POPC   C4A51462   7.379  21.363   7.353
 8998POPC   C1B51463   7.662  21.295   6.453
 8998POPC   C2B51464   7.610  21.285   6.753
 8998POPC   C3B51465   7.630  21.263   7.053
 8998POPC   C4B51466   7.674  21.242   7.353
 8999POPC   NC351467  24.469  17.528   5.553
 8999POPC   PO451468  24.449  17.518   5.853
 8999POPC   GL151469  24.486  17.486   6.153
 8999POPC   GL251470  24.450  17.632   6.153
 8999POPC   C1A51471  24.460  17.543   6.453
 8999POPC   D2A51472  24.462  17.489   6.753
 8999POPC   C3A51473  24.495  17.510   7.053
 8999POPC   C4A51474  24.533  17.461   7.353
 8999POPC   C1B51475  24.453  17.773   6.453
 8999POPC   C2B51476  24.409  17.751   6.753
 8999POPC   C3B51477  24.416  17.709   7.053
 8999POPC   C4B51478  24.421  17.768   7.353
 9000POPC   NC351479  18.241   1.254   5.553
 9000POPC   PO451480  18.263   1.219   5.853
 9000POPC   GL151481  18.269   1.184   6.153
 9000POPC   GL251482  18.412   1.162   6.153
 9000POPC   C1A51483  18.330   1.174   6.453
 9000POPC   D2A51484  18.310   1.194   6.753
 9000POPC   C3A51485  18.252   1.239   7.053
 9000POPC   C4A51486  18.256   1.237   7.353
 9000POPC   C1B51487  18.513   1.235   6.453
 9000POPC   C2B51488  18.518   1.196   6.753
 9000POPC   C3B51489  18.541   1.236   7.053
 9000POPC   C4B51490  18.568   1.239   7.353
 9001POPC   NC351491  39.242  41.604   5.553
 9001POPC   PO451492  39.182  41.512   5.853
 9001POPC   GL151493  39.272  41.566   6.153
 9001POPC   GL251494  39.281  41.476   6.153
 9001POPC   C1A51495  39.182  41.569   6.453
 9001POPC   D2A51496  39.250  41.588   6.753
 9001POPC   C3A51497  39.236  41.574   7.053
 9001POPC   C4A51498  39.259  41.558   7.353
 9001POPC   C1B51499  39.339  41.321   6.453
 9001POPC   C2B51500  39.320  41.349   6.753
 9001POPC   C3B51501  39.289  41.300   7.053
 9001POPC   C4B51502  39.300  41.338   7.353
 9002POPC   NC351503  32.206  43.093   5.553
 9002POPC   PO451504  32.224  43.082   5.853
 9002POPC   GL151505  32.207  43.133   6.153
 9002POPC   GL251506  32.319  42.962   6.153
 9002POPC   C1A51507  32.297  43.062   6.453
 9002POPC   D2A51508  32.285  43.156   6.753
 9002POPC   C3A51509  32.296  43.063   7.053
 9002POPC   C4A51510  32.288  43.110   7.353
 9002POPC   C1B51511  32.361  42.919   6.453
 9002POPC   C2B51512  32.353  42.900   6.753
 9002POPC   C3B51513  32.382  42.857   7.053
 9002POPC   C4B51514  32.352  42.891   7.353
 9003POPC   NC351515   8.201  25.313   5.553
 9003POPC   PO451516   8.204  25.267   5.853
 9003POPC   GL151517   8.188  25.236   6.153
 9003POPC   GL251518   8.072  25.186   6.153
 9003POPC   C1A51519   8.240  25.314   6.453
 9003POPC   D2A51520   8.170  25.228   6.753
 9003POPC   C3A51521   8.166  25.305   7.053
 9003POPC   C4A51522   8.235  25.266   7.353
 9003POPC   C1B51523   7.983  25.171   6.453
 9003POPC   C2B51524   7.932  25.132   6.753
 9003POPC   C3B51525   7.946  25.165   7.053
 9003POPC   C4B51526   7.926  25.196   7.353
 9004POPC   NC351527  39.250   6.677   5.553
 9004POPC   PO451528  39.241   6.675   5.853
 9004POPC   GL151529  39.182   6.681   6.153
 9004POPC   GL251530  39.144   6.736   6.153
 9004POPC   C1A51531  39.276   6.598   6.453
 9004POPC   D2A51532  39.221   6.691   6.753
 9004POPC   C3A51533  39.268   6.625   7.053
 9004POPC   C4A51534  39.224   6.614   7.353
 9004POPC   C1B51535  39.057   6.779   6.453
 9004POPC   C2B51536  39.071   6.807   6.753
 9004POPC   C3B51537  39.089   6.814   7.053
 9004POPC   C4B51538  39.038   6.808   7.353
 9005POPC   NC351539  38.467   3.526   5.553
 9005POPC   PO451540  38.496   3.492   5.853
 9005POPC   GL151541  38.444   3.512   6.153
 9005POPC   GL251542  38.618   3.625   6.153
 9005POPC   C1A51543  38.494   3.521   6.453
 9005POPC   D2A51544  38.443   3.497   6.753
 9005POPC   C3A51545  38.464   3.571   7.053
 9005POPC   C4A51546  38.419   3.547   7.353
 9005POPC   C1B51547  38.672   3.632   6.453
 9005POPC   C2B51548  38.724   3.605   6.753
 9005POPC   C3B51549  38.736   3.640   7.053
 9005POPC   C4B51550  38.668   3.661   7.353
 9006POPC   NC351551  33.007  14.368   5.553
 9006POPC   PO451552  33.031  14.364   5.853
 9006POPC   GL151553  32.978  14.368   6.153
 9006POPC   GL251554  32.867  14.415   6.153
 9006POPC   C1A51555  33.026  14.420   6.453
 9006POPC   D2A51556  33.053  14.441   6.753
 9006POPC   C3A51557  33.016  14.430   7.053
 9006POPC   C4A51558  33.072  14.406   7.353
 9006POPC   C1B51559  32.788  14.487   6.453
 9006POPC   C2B51560  32.744  14.420   6.753
 9006POPC   C3B51561  32.780  14.449   7.053
 9006POPC   C4B51562  32.822  14.426   7.353
 9007POPC   NC351563  14.374  16.004   5.553
 9007POPC   PO451564  14.431  15.972   5.853
 9007POPC   GL151565  14.355  15.931   6.153
 9007POPC   GL251566  14.301  16.025   6.153
 9007POPC   C1A51567  14.413  15.962   6.453
 9007POPC   D2A51568  14.364  15.929   6.753
 9007POPC   C3A51569  14.378  15.976   7.053
 9007POPC   C4A51570  14.395  15.923   7.353
 9007POPC   C1B51571  14.149  16.016   6.453
 9007POPC   C2B51572  14.186  16.068   6.753
 9007POPC   C3B51573  14.138  16.058   7.053
 9007POPC   C4B51574  14.150  16.087   7.353
 9008POPC   NC351575   5.074  40.828   5.553
 9008POPC   PO451576   5.082  40.793   5.853
 9008POPC   GL151577   5.139  40.742   6.153
 9008POPC   GL251578   5.225  40.841   6.153
 9008POPC   C1A51579   5.129  40.790   6.453
 9008POPC   D2A51580   5.098  40.750   6.753
 9008POPC   C3A51581   5.108  40.779   7.053
 9008POPC   C4A51582   5.082  40.767   7.353
 9008POPC   C1B51583   5.356  40.863   6.453
 9008POPC   C2B51584   5.297  40.942   6.753
 9008POPC   C3B51585   5.301  40.905   7.053
 9008POPC   C4B51586   5.357  40.863   7.353
 9009POPC   NC351587  23.759  19.865   5.553
 9009POPC   PO451588  23.671  19.816   5.853
 9009POPC   GL151589  23.703  19.865   6.153
 9009POPC   GL251590  23.710  19.738   6.153
 9009POPC   C1A51591  23.686  19.847   6.453
 9009POPC   D2A51592  23.754  19.798   6.753
 9009POPC   C3A51593  23.684  19.850   7.053
 9009POPC   C4A51594  23.751  19.851   7.353
 9009POPC   C1B51595  23.770  19.566   6.453
 9009POPC   C2B51596  23.786  19.555   6.753
 9009POPC   C3B51597  23.833  19.588   7.053
 9009POPC   C4B51598  23.805  19.605   7.353
 9010POPC   NC351599  43.856   2.800   5.553
 9010POPC   PO451600  43.862   2.738   5.853
 9010POPC   GL151601  43.853   2.765   6.153
 9010POPC   GL251602  43.889   2.874   6.153
 9010POPC   C1A51603  43.933   2.811   6.453
 9010POPC   D2A51604  43.899   2.812   6.753
 9010POPC   C3A51605  43.910   2.810   7.053
 9010POPC   C4A51606  43.864   2.729   7.353
 9010POPC   C1B51607  43.970   3.012   6.453
 9010POPC   C2B51608  43.956   3.000   6.753
 9010POPC   C3B51609  43.960   2.985   7.053
 9010POPC   C4B51610  43.952   3.012   7.353
 9011POPC   NC351611  25.309  43.154   5.553
 9011POPC   PO451612  25.241  43.154   5.853
 9011POPC   GL151613  25.240  43.097   6.153
 9011POPC   GL251614  25.392  43.051   6.153
 9011POPC   C1A51615  25.222  43.125   6.453
 9011POPC   D2A51616  25.231  43.108   6.753
 9011POPC   C3A51617  25.255  43.085   7.053
 9011POPC   C4A51618  25.283  43.080   7.353
 9011POPC   C1B51619  25.496  43.004   6.453
 9011POPC   C2B51620  25.441  43.001   6.753
 9011POPC   C3B51621  25.522  42.972   7.053
 9011POPC   C4B51622  25.464  42.985   7.353
 9012POPC   NC351623  22.979  12.819   5.553
 9012POPC   PO451624  22.923  12.846   5.853
 9012POPC   GL151625  22.911  12.888   6.153
 9012POPC   GL251626  23.067  12.782   6.153
 9012POPC   C1A51627  22.930  12.850   6.453
 9012POPC   D2A51628  22.972  12.833   6.753
 9012POPC   C3A51629  22.944  12.806   7.053
 9012POPC   C4A51630  22.988  12.885   7.353
 9012POPC   C1B51631  23.158  12.711   6.453
 9012POPC   C2B51632  23.177  12.688   6.753
 9012POPC   C3B51633  23.130  12.737   7.053
 9012POPC   C4B51634  23.168  12.693   7.353
 9013POPC   NC351635   3.550  33.016   5.553
 9013POPC   PO451636   3.562  32.985   5.853
 9013POPC   GL151637   3.587  32.978   6.153
 9013POPC   GL251638   3.604  32.854   6.153
 9013POPC   C1A51639   3.564  33.014   6.453
 9013POPC   D2A51640   3.562  33.004   6.753
 9013POPC   C3A51641   3.493  33.066   7.053
 9013POPC   C4A51642   3.492  32.989   7.353
 9013POPC   C1B51643   3.576  32.748   6.453
 9013POPC   C2B51644   3.607  32.750   6.753
 9013POPC   C3B51645   3.538  32.817   7.053
 9013POPC   C4B51646   3.531  32.765   7.353
 9014POPC   NC351647  28.323   2.801   5.553
 9014POPC   PO451648  28.411   2.721   5.853
 9014POPC   GL151649  28.397   2.803   6.153
 9014POPC   GL251650  28.413   2.696   6.153
 9014POPC   C1A51651  28.327   2.751   6.453
 9014POPC   D2A51652  28.414   2.769   6.753
 9014POPC   C3A51653  28.320   2.810   7.053
 9014POPC   C4A51654  28.351   2.759   7.353
 9014POPC   C1B51655  28.520   2.558   6.453
 9014POPC   C2B51656  28.546   2.515   6.753
 9014POPC   C3B51657  28.531   2.545   7.053
 9014POPC   C4B51658  28.505   2.562   7.353
 9015POPC   NC351659  17.539   2.009   5.553
 9015POPC   PO451660  17.499   1.943   5.853
 9015POPC   GL151661  17.462   1.953   6.153
 9015POPC   GL251662  17.493   2.143   6.153
 9015POPC   C1A51663  17.507   2.003   6.453
 9015POPC   D2A51664  17.472   1.986   6.753
 9015POPC   C3A51665  17.486   2.013   7.053
 9015POPC   C4A51666  17.528   2.004   7.353
 9015POPC   C1B51667  17.406   2.202   6.453
 9015POPC   C2B51668  17.481   2.219   6.753
 9015POPC   C3B51669  17.481   2.267   7.053
 9015POPC   C4B51670  17.442   2.234   7.353
 9016POPC   NC351671   1.166  22.893   5.553
 9016POPC   PO451672   1.227  22.908   5.853
 9016POPC   GL151673   1.242  22.951   6.153
 9016POPC   GL251674   1.341  22.859   6.153
 9016POPC   C1A51675   1.182  22.955   6.453
 9016POPC   D2A51676   1.216  22.930   6.753
 9016POPC   C3A51677   1.238  22.956   7.053
 9016POPC   C4A51678   1.260  22.903   7.353
 9016POPC   C1B51679   1.428  22.857   6.453
 9016POPC   C2B51680   1.466  22.857   6.753
 9016POPC   C3B51681   1.477  22.820   7.053
 9016POPC   C4B51682   1.467  22.836   7.353
 9017POPC   NC351683  10.547  25.245   5.553
 9017POPC   PO451684  10.504  25.220   5.853
 9017POPC   GL151685  10.566  25.225   6.153
 9017POPC   GL251686  10.594  25.399   6.153
 9017POPC   C1A51687  10.521  25.238   6.453
 9017POPC   D2A51688  10.537  25.299   6.753
 9017POPC   C3A51689  10.480  25.234   7.053
 9017POPC   C4A51690  10.524  25.237   7.353
 9017POPC   C1B51691  10.562  25.468   6.453
 9017POPC   C2B51692  10.597  25.464   6.753
 9017POPC   C3B51693  10.636  25.540   7.053
 9017POPC   C4B51694  10.574  25.463   7.353
 9018POPC   NC351695   7.461   4.289   5.553
 9018POPC   PO451696   7.378   4.327   5.853
 9018POPC   GL151697   7.408   4.295   6.153
 9018POPC   GL251698   7.296   4.372   6.153
 9018POPC   C1A51699   7.446   4.344   6.453
 9018POPC   D2A51700   7.390   4.357   6.753
 9018POPC   C3A51701   7.464   4.311   7.053
 9018POPC   C4A51702   7.447   4.286   7.353
 9018POPC   C1B51703   7.267   4.447   6.453
 9018POPC   C2B51704   7.229   4.519   6.753
 9018POPC   C3B51705   7.239   4.503   7.053
 9018POPC   C4B51706   7.191   4.506   7.353
 9019POPC   NC351707  22.928  36.893   5.553
 9019POPC   PO451708  22.951  36.867   5.853
 9019POPC   GL151709  22.963  36.919   6.153
 9019POPC   GL251710  23.036  36.969   6.153
 9019POPC   C1A51711  22.915  36.872   6.453
 9019POPC   D2A51712  22.895  36.861   6.753
 9019POPC   C3A51713  22.979  36.912   7.053
 9019POPC   C4A51714  22.905  36.860   7.353
 9019POPC   C1B51715  22.993  37.113   6.453
 9019POPC   C2B51716  23.074  37.117   6.753
 9019POPC   C3B51717  23.054  37.145   7.053
 9019POPC   C4B51718  23.037  37.121   7.353
 9020POPC   NC351719  22.196  17.532   5.553
 9020POPC   PO451720  22.206  17.476   5.853
 9020POPC   GL151721  22.190  17.483   6.153
 9020POPC   GL251722  22.059  17.544   6.153
 9020POPC   C1A51723  22.136  17.470   6.453
 9020POPC   D2A51724  22.142  17.477   6.753
 9020POPC   C3A51725  22.127  17.492   7.053
 9020POPC   C4A51726  22.176  17.463   7.353
 9020POPC   C1B51727  21.909  17.523   6.453
 9020POPC   C2B51728  21.895  17.466   6.753
 9020POPC   C3B51729  21.948  17.503   7.053
 9020POPC   C4B51730  21.895  17.538   7.353
 9021POPC   NC351731  12.085  43.913   5.553
 9021POPC   PO451732  12.082  43.851   5.853
 9021POPC   GL151733  12.091  43.907   6.153
 9021POPC   GL251734  11.970  43.882   6.153
 9021POPC   C1A51735  12.084  43.840   6.453
 9021POPC   D2A51736  12.081  43.919   6.753
 9021POPC   C3A51737  12.095  43.931   7.053
 9021POPC   C4A51738  12.042  43.901   7.353
 9021POPC   C1B51739  11.876  43.835   6.453
 9021POPC   C2B51740  11.797  43.777   6.753
 9021POPC   C3B51741  11.795  43.775   7.053
 9021POPC   C4B51742  11.829  43.827   7.353
 9022POPC   NC351743  17.476  32.265   5.553
 9022POPC   PO451744  17.540  32.229   5.853
 9022POPC   GL151745  17.488  32.204   6.153
 9022POPC   GL251746  17.507  32.414   6.153
 9022POPC   C1A51747  17.472  32.272   6.453
 9022POPC   D2A51748  17.542  32.278   6.753
 9022POPC   C3A51749  17.489  32.272   7.053
 9022POPC   C4A51750  17.503  32.255   7.353
 9022POPC   C1B51751  17.582  32.541   6.453
 9022POPC   C2B51752  17.572  32.526   6.753
 9022POPC   C3B51753  17.578  32.448   7.053
 9022POPC   C4B51754  17.541  32.488   7.353
 9023POPC   NC351755  40.056  41.577   5.553
 9023POPC   PO451756  39.980  41.573   5.853
 9023POPC   GL151757  40.046  41.527   6.153
 9023POPC   GL251758  39.970  41.712   6.153
 9023POPC   C1A51759  40.008  41.516   6.453
 9023POPC   D2A51760  40.022  41.544   6.753
 9023POPC   C3A51761  40.051  41.537   7.053
 9023POPC   C4A51762  39.990  41.586   7.353
 9023POPC   C1B51763  39.938  41.830   6.453
 9023POPC   C2B51764  39.971  41.759   6.753
 9023POPC   C3B51765  39.933  41.841   7.053
 9023POPC   C4B51766  39.961  41.831   7.353
 9024POPC   NC351767  18.280   2.791   5.553
 9024POPC   PO451768  18.278   2.811   5.853
 9024POPC   GL151769  18.277   2.724   6.153
 9024POPC   GL251770  18.294   2.863   6.153
 9024POPC   C1A51771  18.319   2.764   6.453
 9024POPC   D2A51772  18.321   2.763   6.753
 9024POPC   C3A51773  18.240   2.791   7.053
 9024POPC   C4A51774  18.318   2.752   7.353
 9024POPC   C1B51775  18.362   3.030   6.453
 9024POPC   C2B51776  18.418   3.010   6.753
 9024POPC   C3B51777  18.441   2.959   7.053
 9024POPC   C4B51778  18.391   2.987   7.353
 9025POPC   NC351779  36.942  19.808   5.553
 9025POPC   PO451780  36.896  19.869   5.853
 9025POPC   GL151781  36.922  19.870   6.153
 9025POPC   GL251782  37.007  19.942   6.153
 9025POPC   C1A51783  36.903  19.800   6.453
 9025POPC   D2A51784  36.895  19.852   6.753
 9025POPC   C3A51785  36.948  19.863   7.053
 9025POPC   C4A51786  36.860  19.815   7.353
 9025POPC   C1B51787  37.071  19.934   6.453
 9025POPC   C2B51788  37.139  20.003   6.753
 9025POPC   C3B51789  37.143  19.942   7.053
 9025POPC   C4B51790  37.137  19.945   7.353
 9026POPC   NC351791  25.312  43.843   5.553
 9026POPC   PO451792  25.271  43.862   5.853
 9026POPC   GL151793  25.293  43.927   6.153
 9026POPC   GL251794  25.373  43.788   6.153
 9026POPC   C1A51795  25.234  43.879   6.453
 9026POPC   D2A51796  25.241  43.864   6.753
 9026POPC   C3A51797  25.294  43.891   7.053
 9026POPC   C4A51798  25.303  43.841   7.353
 9026POPC   C1B51799  25.463  43.678   6.453
 9026POPC   C2B51800  25.383  43.711   6.753
 9026POPC   C3B51801  25.417  43.693   7.053
 9026POPC   C4B51802  25.470  43.651   7.353
 9027POPC   NC351803  16.730  36.858   5.553
 9027POPC   PO451804  16.692  36.908   5.853
 9027POPC   GL151805  16.693  36.893   6.153
 9027POPC   GL251806  16.754  37.071   6.153
 9027POPC   C1A51807  16.684  36.950   6.453
 9027POPC   D2A51808  16.722  36.867   6.753
 9027POPC   C3A51809  16.778  36.945   7.053
 9027POPC   C4A51810  16.755  36.875   7.353
 9027POPC   C1B51811  16.726  37.194   6.453
 9027POPC   C2B51812  16.745  37.128   6.753
 9027POPC   C3B51813  16.767  37.176   7.053
 9027POPC   C4B51814  16.755  37.110   7.353
 9028POPC   NC351815  17.462  30.717   5.553
 9028POPC   PO451816  17.484  30.731   5.853
 9028POPC   GL151817  17.551  30.692   6.153
 9028POPC   GL251818  17.651  30.592   6.153
 9028POPC   C1A51819  17.515  30.730   6.453
 9028POPC   D2A51820  17.507  30.704   6.753
 9028POPC   C3A51821  17.515  30.740   7.053
 9028POPC   C4A51822  17.490  30.698   7.353
 9028POPC   C1B51823  17.746  30.528   6.453
 9028POPC   C2B51824  17.697  30.616   6.753
 9028POPC   C3B51825  17.704  30.540   7.053
 9028POPC   C4B51826  17.704  30.596   7.353
 9029POPC   NC351827  15.926  18.296   5.553
 9029POPC   PO451828  16.001  18.251   5.853
 9029POPC   GL151829  15.906  18.271   6.153
 9029POPC   GL251830  15.823  18.358   6.153
 9029POPC   C1A51831  15.954  18.312   6.453
 9029POPC   D2A51832  15.975  18.319   6.753
 9029POPC   C3A51833  15.927  18.276   7.053
 9029POPC   C4A51834  15.943  18.269   7.353
 9029POPC   C1B51835  15.778  18.372   6.453
 9029POPC   C2B51836  15.703  18.358   6.753
 9029POPC   C3B51837  15.714  18.347   7.053
 9029POPC   C4B51838  15.746  18.410   7.353
 9030POPC   NC351839  37.708  11.283   5.553
 9030POPC   PO451840  37.683  11.256   5.853
 9030POPC   GL151841  37.690  11.294   6.153
 9030POPC   GL251842  37.569  11.212   6.153
 9030POPC   C1A51843  37.651  11.346   6.453
 9030POPC   D2A51844  37.659  11.272   6.753
 9030POPC   C3A51845  37.717  11.317   7.053
 9030POPC   C4A51846  37.667  11.297   7.353
 9030POPC   C1B51847  37.512  11.165   6.453
 9030POPC   C2B51848  37.496  11.143   6.753
 9030POPC   C3B51849  37.441  11.098   7.053
 9030POPC   C4B51850  37.480  11.133   7.353
 9031POPC   NC351851  16.730   2.798   5.553
 9031POPC   PO451852  16.748   2.731   5.853
 9031POPC   GL151853  16.771   2.748   6.153
 9031POPC   GL251854  16.639   2.710   6.153
 9031POPC   C1A51855  16.751   2.731   6.453
 9031POPC   D2A51856  16.742   2.789   6.753
 9031POPC   C3A51857  16.684   2.815   7.053
 9031POPC   C4A51858  16.772   2.806   7.353
 9031POPC   C1B51859  16.526   2.552   6.453
 9031POPC   C2B51860  16.579   2.577   6.753
 9031POPC   C3B51861  16.598   2.536   7.053
 9031POPC   C4B51862  16.545   2.545   7.353
 9032POPC   NC351863  26.819  31.489   5.553
 9032POPC   PO451864  26.788  31.508   5.853
 9032POPC   GL151865  26.806  31.499   6.153
 9032POPC   GL251866  26.742  31.342   6.153
 9032POPC   C1A51867  26.776  31.462   6.453
 9032POPC   D2A51868  26.770  31.500   6.753
 9032POPC   C3A51869  26.824  31.480   7.053
 9032POPC   C4A51870  26.792  31.439   7.353
 9032POPC   C1B51871  26.740  31.277   6.453
 9032POPC   C2B51872  26.747  31.201   6.753
 9032POPC   C3B51873  26.712  31.274   7.053
 9032POPC   C4B51874  26.748  31.225   7.353
 9033POPC   NC351875  12.035  15.969   5.553
 9033POPC   PO451876  12.119  15.949   5.853
 9033POPC   GL151877  12.029  15.970   6.153
 9033POPC   GL251878  12.158  15.859   6.153
 9033POPC   C1A51879  12.122  15.946   6.453
 9033POPC   D2A51880  12.055  15.962   6.753
 9033POPC   C3A51881  12.088  15.920   7.053
 9033POPC   C4A51882  12.033  15.909   7.353
 9033POPC   C1B51883  12.307  15.882   6.453
 9033POPC   C2B51884  12.329  15.800   6.753
 9033POPC   C3B51885  12.343  15.812   7.053
 9033POPC   C4B51886  12.319  15.822   7.353
 9034POPC   NC351887  34.575   1.956   5.553
 9034POPC   PO451888  34.566   1.983   5.853
 9034POPC   GL151889  34.547   1.962   6.153
 9034POPC   GL251890  34.691   2.064   6.153
 9034POPC   C1A51891  34.615   1.999   6.453
 9034POPC   D2A51892  34.545   2.018   6.753
 9034POPC   C3A51893  34.564   1.987   7.053
 9034POPC   C4A51894  34.619   1.942   7.353
 9034POPC   C1B51895  34.803   2.159   6.453
 9034POPC   C2B51896  34.730   2.147   6.753
 9034POPC   C3B51897  34.802   2.154   7.053
 9034POPC   C4B51898  34.806   2.117   7.353
 9035POPC   NC351899   9.788  41.576   5.553
 9035POPC   PO451900   9.748  41.555   5.853
 9035POPC   GL151901   9.765  41.558   6.153
 9035POPC   GL251902   9.868  41.494   6.153
 9035POPC   C1A51903   9.765  41.586   6.453
 9035POPC   D2A51904   9.795  41.514   6.753
 9035POPC   C3A51905   9.764  41.549   7.053
 9035POPC   C4A51906   9.730  41.578   7.353
 9035POPC   C1B51907   9.908  41.354   6.453
 9035POPC   C2B51908   9.922  41.379   6.753
 9035POPC   C3B51909   9.898  41.365   7.053
 9035POPC   C4B51910   9.936  41.431   7.353
 9036POPC   NC351911   6.682  33.031   5.553
 9036POPC   PO451912   6.676  33.066   5.853
 9036POPC   GL151913   6.653  33.010   6.153
 9036POPC   GL251914   6.594  32.971   6.153
 9036POPC   C1A51915   6.687  33.046   6.453
 9036POPC   D2A51916   6.634  33.062   6.753
 9036POPC   C3A51917   6.685  33.067   7.053
 9036POPC   C4A51918   6.640  33.058   7.353
 9036POPC   C1B51919   6.460  32.884   6.453
 9036POPC   C2B51920   6.463  32.810   6.753
 9036POPC   C3B51921   6.486  32.846   7.053
 9036POPC   C4B51922   6.502  32.818   7.353
 9037POPC   NC351923   4.286  17.508   5.553
 9037POPC   PO451924   4.282  17.498   5.853
 9037POPC   GL151925   4.325  17.556   6.153
 9037POPC   GL251926   4.463  17.580   6.153
 9037POPC   C1A51927   4.322  17.462   6.453
 9037POPC   D2A51928   4.347  17.516   6.753
 9037POPC   C3A51929   4.328  17.490   7.053
 9037POPC   C4A51930   4.348  17.523   7.353
 9037POPC   C1B51931   4.574  17.568   6.453
 9037POPC   C2B51932   4.600  17.589   6.753
 9037POPC   C3B51933   4.577  17.605   7.053
 9037POPC   C4B51934   4.513  17.602   7.353
 9038POPC   NC351935  36.864  26.086   5.553
 9038POPC   PO451936  36.944  26.048   5.853
 9038POPC   GL151937  36.885  26.077   6.153
 9038POPC   GL251938  36.762  25.955   6.153
 9038POPC   C1A51939  36.906  26.055   6.453
 9038POPC   D2A51940  36.859  26.075   6.753
 9038POPC   C3A51941  36.947  26.077   7.053
 9038POPC   C4A51942  36.922  26.071   7.353
 9038POPC   C1B51943  36.721  25.894   6.453
 9038POPC   C2B51944  36.672  25.937   6.753
 9038POPC   C3B51945  36.655  25.956   7.053
 9038POPC   C4B51946  36.718  25.894   7.353
 9039POPC   NC351947   1.991   6.676   5.553
 9039POPC   PO451948   2.035   6.673   5.853
 9039POPC   GL151949   1.948   6.597   6.153
 9039POPC   GL251950   1.881   6.682   6.153
 9039POPC   C1A51951   1.988   6.612   6.453
 9039POPC   D2A51952   1.985   6.621   6.753
 9039POPC   C3A51953   1.966   6.634   7.053
 9039POPC   C4A51954   1.946   6.618   7.353
 9039POPC   C1B51955   1.749   6.656   6.453
 9039POPC   C2B51956   1.699   6.624   6.753
 9039POPC   C3B51957   1.739   6.666   7.053
 9039POPC   C4B51958   1.784   6.662   7.353
 9040POPC   NC351959   1.954  22.952   5.553
 9040POPC   PO451960   1.969  22.981   5.853
 9040POPC   GL151961   1.967  22.905   6.153
 9040POPC   GL251962   2.072  22.810   6.153
 9040POPC   C1A51963   1.993  22.910   6.453
 9040POPC   D2A51964   2.015  22.960   6.753
 9040POPC   C3A51965   1.974  22.931   7.053
 9040POPC   C4A51966   1.940  22.914   7.353
 9040POPC   C1B51967   2.139  22.749   6.453
 9040POPC   C2B51968   2.182  22.735   6.753
 9040POPC   C3B51969   2.186  22.793   7.053
 9040POPC   C4B51970   2.136  22.794   7.353
 9041POPC   NC351971   0.478  26.849   5.553
 9041POPC   PO451972   0.393  26.836   5.853
 9041POPC   GL151973   0.479  26.806   6.153
 9041POPC   GL251974   0.573  26.806   6.153
 9041POPC   C1A51975   0.416  26.791   6.453
 9041POPC   D2A51976   0.466  26.801   6.753
 9041POPC   C3A51977   0.393  26.821   7.053
 9041POPC   C4A51978   0.472  26.779   7.353
 9041POPC   C1B51979   0.663  26.720   6.453
 9041POPC   C2B51980   0.721  26.718   6.753
 9041POPC   C3B51981   0.637  26.780   7.053
 9041POPC   C4B51982   0.725  26.750   7.353
 9042POPC   NC351983  43.098  33.824   5.553
 9042POPC   PO451984  43.153  33.759   5.853
 9042POPC   GL151985  43.105  33.757   6.153
 9042POPC   GL251986  42.965  33.797   6.153
 9042POPC   C1A51987  43.066  33.780   6.453
 9042POPC   D2A51988  43.087  33.843   6.753
 9042POPC   C3A51989  43.081  33.756   7.053
 9042POPC   C4A51990  43.082  33.764   7.353
 9042POPC   C1B51991  42.827  33.688   6.453
 9042POPC   C2B51992  42.865  33.734   6.753
 9042POPC   C3B51993  42.843  33.748   7.053
 9042POPC   C4B51994  42.874  33.728   7.353
 9043POPC   NC351995   2.028   7.396   5.553
 9043POPC   PO451996   2.023   7.470   5.853
 9043POPC   GL151997   1.941   7.441   6.153
 9043POPC   GL251998   2.080   7.462   6.153
 9043POPC   C1A51999   1.953   7.433   6.453
 9043POPC   D2A52000   1.969   7.436   6.753
 9043POPC   C3A52001   1.947   7.429   7.053
 9043POPC   C4A52002   2.003   7.397   7.353
 9043POPC   C1B52003   2.138   7.621   6.453
 9043POPC   C2B52004   2.143   7.634   6.753
 9043POPC   C3B52005   2.173   7.632   7.053
 9043POPC   C4B52006   2.166   7.626   7.353
 9044POPC   NC352007  40.768  39.237   5.553
 9044POPC   PO452008  40.788  39.273   5.853
 9044POPC   GL152009  40.783  39.212   6.153
 9044POPC   GL252010  40.801  39.085   6.153
 9044POPC   C1A52011  40.778  39.193   6.453
 9044POPC   D2A52012  40.782  39.221   6.753
 9044POPC   C3A52013  40.796  39.243   7.053
 9044POPC   C4A52014  40.791  39.243   7.353
 9044POPC   C1B52015  40.835  38.951   6.453
 9044POPC   C2B52016  40.863  39.018   6.753
 9044POPC   C3B52017  40.870  39.007   7.053
 9044POPC   C4B52018  40.847  39.008   7.353
 9045POPC   NC352019  18.282   4.302   5.553
 9045POPC   PO452020  18.267   4.273   5.853
 9045POPC   GL152021  18.243   4.342   6.153
 9045POPC   GL252022  18.211   4.218   6.153
 9045POPC   C1A52023  18.311   4.297   6.453
 9045POPC   D2A52024  18.320   4.291   6.753
 9045POPC   C3A52025  18.289   4.276   7.053
 9045POPC   C4A52026  18.260   4.323   7.353
 9045POPC   C1B52027  18.264   4.055   6.453
 9045POPC   C2B52028  18.279   4.103   6.753
 9045POPC   C3B52029  18.228   4.079   7.053
 9045POPC   C4B52030  18.251   4.099   7.353
 9046POPC   NC352031   9.793  30.648   5.553
 9046POPC   PO452032   9.722  30.733   5.853
 9046POPC   GL152033   9.778  30.647   6.153
 9046POPC   GL252034   9.775  30.803   6.153
 9046POPC   C1A52035   9.730  30.713   6.453
 9046POPC   D2A52036   9.785  30.691   6.753
 9046POPC   C3A52037   9.764  30.647   7.053
 9046POPC   C4A52038   9.784  30.672   7.353
 9046POPC   C1B52039   9.851  30.895   6.453
 9046POPC   C2B52040   9.855  30.951   6.753
 9046POPC   C3B52041   9.887  30.974   7.053
 9046POPC   C4B52042   9.864  30.967   7.353
 9047POPC   NC352043  33.847   1.989   5.553
 9047POPC   PO452044  33.846   2.002   5.853
 9047POPC   GL152045  33.838   2.009   6.153
 9047POPC   GL252046  33.696   1.983   6.153
 9047POPC   C1A52047  33.842   1.993   6.453
 9047POPC   D2A52048  33.841   2.014   6.753
 9047POPC   C3A52049  33.826   1.973   7.053
 9047POPC   C4A52050  33.798   2.036   7.353
 9047POPC   C1B52051  33.575   1.891   6.453
 9047POPC   C2B52052  33.597   1.946   6.753
 9047POPC   C3B52053  33.609   1.900   7.053
 9047POPC   C4B52054  33.538   1.927   7.353
 9048POPC   NC352055  31.454  18.330   5.553
 9048POPC   PO452056  31.516  18.302   5.853
 9048POPC   GL152057  31.463  18.316   6.153
 9048POPC   GL252058  31.323  18.281   6.153
 9048POPC   C1A52059  31.502  18.247   6.453
 9048POPC   D2A52060  31.454  18.241   6.753
 9048POPC   C3A52061  31.520  18.310   7.053
 9048POPC   C4A52062  31.485  18.238   7.353
 9048POPC   C1B52063  31.246  18.260   6.453
 9048POPC   C2B52064  31.182  18.279   6.753
 9048POPC   C3B52065  31.174  18.351   7.053
 9048POPC   C4B52066  31.203  18.280   7.353
 9049POPC   NC352067   7.403  29.126   5.553
 9049POPC   PO452068   7.429  29.127   5.853
 9049POPC   GL152069   7.392  29.131   6.153
 9049POPC   GL252070   7.340  29.000   6.153
 9049POPC   C1A52071   7.449  29.145   6.453
 9049POPC   D2A52072   7.376  29.169   6.753
 9049POPC   C3A52073   7.425  29.183   7.053
 9049POPC   C4A52074   7.380  29.159   7.353
 9049POPC   C1B52075   7.309  28.978   6.453
 9049POPC   C2B52076   7.274  28.918   6.753
 9049POPC   C3B52077   7.282  28.899   7.053
 9049POPC   C4B52078   7.260  28.969   7.353
 9050POPC   NC352079   5.066  44.630   5.553
 9050POPC   PO452080   5.077  44.613   5.853
 9050POPC   GL152081   5.126  44.682   6.153
 9050POPC   GL252082   5.054  44.574   6.153
 9050POPC   C1A52083   5.052  44.618   6.453
 9050POPC   D2A52084   5.074  44.638   6.753
 9050POPC   C3A52085   5.118  44.692   7.053
 9050POPC   C4A52086   5.105  44.625   7.353
 9050POPC   C1B52087   5.020  44.453   6.453
 9050POPC   C2B52088   5.018  44.480   6.753
 9050POPC   C3B52089   5.006  44.461   7.053
 9050POPC   C4B52090   4.929  44.445   7.353
 9051POPC   NC352091  40.754  31.470   5.553
 9051POPC   PO452092  40.763  31.513   5.853
 9051POPC   GL152093  40.773  31.489   6.153
 9051POPC   GL252094  40.897  31.518   6.153
 9051POPC   C1A52095  40.766  31.465   6.453
 9051POPC   D2A52096  40.776  31.492   6.753
 9051POPC   C3A52097  40.824  31.515   7.053
 9051POPC   C4A52098  40.761  31.441   7.353
 9051POPC   C1B52099  41.004  31.512   6.453
 9051POPC   C2B52100  41.051  31.539   6.753
 9051POPC   C3B52101  41.014  31.461   7.053
 9051POPC   C4B52102  41.028  31.489   7.353
 9052POPC   NC352103  39.277  19.788   5.553
 9052POPC   PO452104  39.257  19.855   5.853
 9052POPC   GL152105  39.245  19.803   6.153
 9052POPC   GL252106  39.309  19.754   6.153
 9052POPC   C1A52107  39.255  19.861   6.453
 9052POPC   D2A52108  39.249  19.789   6.753
 9052POPC   C3A52109  39.245  19.878   7.053
 9052POPC   C4A52110  39.182  19.844   7.353
 9052POPC   C1B52111  39.346  19.654   6.453
 9052POPC   C2B52112  39.383  19.618   6.753
 9052POPC   C3B52113  39.387  19.588   7.053
 9052POPC   C4B52114  39.379  19.602   7.353
 9053POPC   NC352115  23.685  40.738   5.553
 9053POPC   PO452116  23.673  40.764   5.853
 9053POPC   GL152117  23.688  40.832   6.153
 9053POPC   GL252118  23.734  40.632   6.153
 9053POPC   C1A52119  23.740  40.817   6.453
 9053POPC   D2A52120  23.717  40.739   6.753
 9053POPC   C3A52121  23.743  40.800   7.053
 9053POPC   C4A52122  23.750  40.785   7.353
 9053POPC   C1B52123  23.753  40.569   6.453
 9053POPC   C2B52124  23.748  40.523   6.753
 9053POPC   C3B52125  23.780  40.556   7.053
 9053POPC   C4B52126  23.823  40.498   7.353
 9054POPC   NC352127   4.357  32.241   5.553
 9054POPC   PO452128   4.292  32.277   5.853
 9054POPC   GL152129   4.313  32.253   6.153
 9054POPC   GL252130   4.313  32.077   6.153
 9054POPC   C1A52131   4.340  32.280   6.453
 9054POPC   D2A52132   4.268  32.216   6.753
 9054POPC   C3A52133   4.312  32.290   7.053
 9054POPC   C4A52134   4.314  32.263   7.353
 9054POPC   C1B52135   4.405  32.012   6.453
 9054POPC   C2B52136   4.314  31.997   6.753
 9054POPC   C3B52137   4.379  31.957   7.053
 9054POPC   C4B52138   4.353  32.049   7.353
 9055POPC   NC352139  42.298  18.290   5.553
 9055POPC   PO452140  42.381  18.294   5.853
 9055POPC   GL152141  42.344  18.332   6.153
 9055POPC   GL252142  42.415  18.168   6.153
 9055POPC   C1A52143  42.316  18.234   6.453
 9055POPC   D2A52144  42.308  18.299   6.753
 9055POPC   C3A52145  42.294  18.314   7.053
 9055POPC   C4A52146  42.365  18.307   7.353
 9055POPC   C1B52147  42.549  18.154   6.453
 9055POPC   C2B52148  42.520  18.092   6.753
 9055POPC   C3B52149  42.568  18.078   7.053
 9055POPC   C4B52150  42.568  18.163   7.353
 9056POPC   NC352151  13.668  11.314   5.553
 9056POPC   PO452152  13.579  11.254   5.853
 9056POPC   GL152153  13.619  11.306   6.153
 9056POPC   GL252154  13.551  11.289   6.153
 9056POPC   C1A52155  13.600  11.314   6.453
 9056POPC   D2A52156  13.629  11.253   6.753
 9056POPC   C3A52157  13.659  11.325   7.053
 9056POPC   C4A52158  13.601  11.278   7.353
 9056POPC   C1B52159  13.409  11.254   6.453
 9056POPC   C2B52160  13.358  11.199   6.753
 9056POPC   C3B52161  13.401  11.215   7.053
 9056POPC   C4B52162  13.398  11.176   7.353
 9057POPC   NC352163   6.597  37.655   5.553
 9057POPC   PO452164   6.683  37.644   5.853
 9057POPC   GL152165   6.598  37.690   6.153
 9057POPC   GL252166   6.806  37.695   6.153
 9057POPC   C1A52167   6.598  37.654   6.453
 9057POPC   D2A52168   6.680  37.663   6.753
 9057POPC   C3A52169   6.665  37.727   7.053
 9057POPC   C4A52170   6.669  37.694   7.353
 9057POPC   C1B52171   6.921  37.694   6.453
 9057POPC   C2B52172   6.903  37.649   6.753
 9057POPC   C3B52173   6.850  37.664   7.053
 9057POPC   C4B52174   6.922  37.701   7.353
 9058POPC   NC352175  15.935   5.835   5.553
 9058POPC   PO452176  15.930   5.821   5.853
 9058POPC   GL152177  15.950   5.879   6.153
 9058POPC   GL252178  16.011   5.794   6.153
 9058POPC   C1A52179  15.991   5.832   6.453
 9058POPC   D2A52180  15.987   5.891   6.753
 9058POPC   C3A52181  15.928   5.896   7.053
 9058POPC   C4A52182  15.976   5.915   7.353
 9058POPC   C1B52183  16.039   5.623   6.453
 9058POPC   C2B52184  16.061   5.601   6.753
 9058POPC   C3B52185  15.984   5.663   7.053
 9058POPC   C4B52186  16.082   5.640   7.353
 9059POPC   NC352187   8.219  16.710   5.553
 9059POPC   PO452188   8.148  16.773   5.853
 9059POPC   GL152189   8.221  16.729   6.153
 9059POPC   GL252190   8.036  16.753   6.153
 9059POPC   C1A52191   8.170  16.726   6.453
 9059POPC   D2A52192   8.237  16.718   6.753
 9059POPC   C3A52193   8.190  16.751   7.053
 9059POPC   C4A52194   8.173  16.712   7.353
 9059POPC   C1B52195   7.937  16.835   6.453
 9059POPC   C2B52196   7.985  16.863   6.753
 9059POPC   C3B52197   7.927  16.773   7.053
 9059POPC   C4B52198   7.992  16.860   7.353
 9060POPC   NC352199  14.371   2.792   5.553
 9060POPC   PO452200  14.428   2.729   5.853
 9060POPC   GL152201  14.433   2.727   6.153
 9060POPC   GL252202  14.531   2.791   6.153
 9060POPC   C1A52203  14.375   2.731   6.453
 9060POPC   D2A52204  14.398   2.741   6.753
 9060POPC   C3A52205  14.440   2.735   7.053
 9060POPC   C4A52206  14.419   2.731   7.353
 9060POPC   C1B52207  14.622   2.882   6.453
 9060POPC   C2B52208  14.689   2.809   6.753
 9060POPC   C3B52209  14.670   2.823   7.053
 9060POPC   C4B52210  14.685   2.885   7.353
 9061POPC   NC352211  40.801  20.656   5.553
 9061POPC   PO452212  40.742  20.641   5.853
 9061POPC   GL152213  40.749  20.655   6.153
 9061POPC   GL252214  40.956  20.620   6.153
 9061POPC   C1A52215  40.758  20.561   6.453
 9061POPC   D2A52216  40.756  20.645   6.753
 9061POPC   C3A52217  40.751  20.634   7.053
 9061POPC   C4A52218  40.787  20.655   7.353
 9061POPC   C1B52219  41.030  20.610   6.453
 9061POPC   C2B52220  41.057  20.623   6.753
 9061POPC   C3B52221  41.009  20.580   7.053
 9061POPC   C4B52222  41.006  20.620   7.353
 9062POPC   NC352223  24.522  19.876   5.553
 9062POPC   PO452224  24.499  19.806   5.853
 9062POPC   GL152225  24.444  19.790   6.153
 9062POPC   GL252226  24.395  19.785   6.153
 9062POPC   C1A52227  24.467  19.876   6.453
 9062POPC   D2A52228  24.509  19.799   6.753
 9062POPC   C3A52229  24.518  19.840   7.053
 9062POPC   C4A52230  24.492  19.830   7.353
 9062POPC   C1B52231  24.197  19.782   6.453
 9062POPC   C2B52232  24.260  19.780   6.753
 9062POPC   C3B52233  24.222  19.786   7.053
 9062POPC   C4B52234  24.203  19.778   7.353
 9063POPC   NC352235  14.451   5.071   5.553
 9063POPC   PO452236  14.449   5.107   5.853
 9063POPC   GL152237  14.372   5.122   6.153
 9063POPC   GL252238  14.359   4.992   6.153
 9063POPC   C1A52239  14.395   5.107   6.453
 9063POPC   D2A52240  14.370   5.081   6.753
 9063POPC   C3A52241  14.395   5.061   7.053
 9063POPC   C4A52242  14.416   5.095   7.353
 9063POPC   C1B52243  14.276   4.872   6.453
 9063POPC   C2B52244  14.323   4.868   6.753
 9063POPC   C3B52245  14.306   4.833   7.053
 9063POPC   C4B52246  14.296   4.883   7.353
 9064POPC   NC352247  34.612  40.758   5.553
 9064POPC   PO452248  34.601  40.756   5.853
 9064POPC   GL152249  34.577  40.796   6.153
 9064POPC   GL252250  34.527  40.902   6.153
 9064POPC   C1A52251  34.533  40.755   6.453
 9064POPC   D2A52252  34.556  40.736   6.753
 9064POPC   C3A52253  34.536  40.824   7.053
 9064POPC   C4A52254  34.616  40.777   7.353
 9064POPC   C1B52255  34.358  40.963   6.453
 9064POPC   C2B52256  34.346  40.921   6.753
 9064POPC   C3B52257  34.414  40.926   7.053
 9064POPC   C4B52258  34.368  40.969   7.353
 9065POPC   NC352259  39.218  11.307   5.553
 9065POPC   PO452260  39.226  11.342   5.853
 9065POPC   GL152261  39.268  11.311   6.153
 9065POPC   GL252262  39.151  11.299   6.153
 9065POPC   C1A52263  39.255  11.257   6.453
 9065POPC   D2A52264  39.220  11.254   6.753
 9065POPC   C3A52265  39.240  11.335   7.053
 9065POPC   C4A52266  39.257  11.256   7.353
 9065POPC   C1B52267  38.993  11.357   6.453
 9065POPC   C2B52268  39.015  11.299   6.753
 9065POPC   C3B52269  38.982  11.363   7.053
 9065POPC   C4B52270  39.020  11.285   7.353
 9066POPC   NC352271  41.588  22.942   5.553
 9066POPC   PO452272  41.524  22.965   5.853
 9066POPC   GL152273  41.605  22.982   6.153
 9066POPC   GL252274  41.535  22.840   6.153
 9066POPC   C1A52275  41.552  22.891   6.453
 9066POPC   D2A52276  41.514  22.968   6.753
 9066POPC   C3A52277  41.512  22.951   7.053
 9066POPC   C4A52278  41.527  22.943   7.353
 9066POPC   C1B52279  41.460  22.689   6.453
 9066POPC   C2B52280  41.524  22.665   6.753
 9066POPC   C3B52281  41.525  22.705   7.053
 9066POPC   C4B52282  41.502  22.731   7.353
 9067POPC   NC352283  15.973  40.787   5.553
 9067POPC   PO452284  15.962  40.785   5.853
 9067POPC   GL152285  15.958  40.765   6.153
 9067POPC   GL252286  15.922  40.860   6.153
 9067POPC   C1A52287  15.989  40.780   6.453
 9067POPC   D2A52288  15.934  40.743   6.753
 9067POPC   C3A52289  15.924  40.755   7.053
 9067POPC   C4A52290  15.963  40.746   7.353
 9067POPC   C1B52291  15.893  40.988   6.453
 9067POPC   C2B52292  15.890  41.062   6.753
 9067POPC   C3B52293  15.910  41.068   7.053
 9067POPC   C4B52294  15.852  41.017   7.353
 9068POPC   NC352295  43.871  43.083   5.553
 9068POPC   PO452296  43.917  43.128   5.853
 9068POPC   GL152297  43.925  43.106   6.153
 9068POPC   GL252298  43.845  42.963   6.153
 9068POPC   C1A52299  43.878  43.113   6.453
 9068POPC   D2A52300  43.841  43.115   6.753
 9068POPC   C3A52301  43.872  43.122   7.053
 9068POPC   C4A52302  43.882  43.076   7.353
 9068POPC   C1B52303  43.817  42.891   6.453
 9068POPC   C2B52304  43.873  42.875   6.753
 9068POPC   C3B52305  43.874  42.838   7.053
 9068POPC   C4B52306  43.790  42.842   7.353
 9069POPC   NC352307  38.429   0.407   5.553
 9069POPC   PO452308  38.482   0.451   5.853
 9069POPC   GL152309  38.488   0.410   6.153
 9069POPC   GL252310  38.410   0.485   6.153
 9069POPC   C1A52311  38.475   0.399   6.453
 9069POPC   D2A52312  38.414   0.462   6.753
 9069POPC   C3A52313  38.463   0.403   7.053
 9069POPC   C4A52314  38.409   0.393   7.353
 9069POPC   C1B52315  38.292   0.620   6.453
 9069POPC   C2B52316  38.257   0.590   6.753
 9069POPC   C3B52317  38.263   0.673   7.053
 9069POPC   C4B52318  38.298   0.620   7.353
 9070POPC   NC352319   1.226  17.513   5.553
 9070POPC   PO452320   1.251  17.535   5.853
 9070POPC   GL152321   1.238  17.502   6.153
 9070POPC   GL252322   1.103  17.454   6.153
 9070POPC   C1A52323   1.234  17.474   6.453
 9070POPC   D2A52324   1.220  17.519   6.753
 9070POPC   C3A52325   1.186  17.548   7.053
 9070POPC   C4A52326   1.191  17.509   7.353
 9070POPC   C1B52327   1.031  17.402   6.453
 9070POPC   C2B52328   0.995  17.351   6.753
 9070POPC   C3B52329   0.981  17.399   7.053
 9070POPC   C4B52330   1.047  17.347   7.353
 9071POPC   NC352331  19.860  32.989   5.553
 9071POPC   PO452332  19.801  33.072   5.853
 9071POPC   GL152333  19.860  33.028   6.153
 9071POPC   GL252334  19.887  33.139   6.153
 9071POPC   C1A52335  19.847  33.022   6.453
 9071POPC   D2A52336  19.805  32.992   6.753
 9071POPC   C3A52337  19.790  33.020   7.053
 9071POPC   C4A52338  19.800  33.074   7.353
 9071POPC   C1B52339  19.880  33.269   6.453
 9071POPC   C2B52340  19.943  33.261   6.753
 9071POPC   C3B52341  19.950  33.251   7.053
 9071POPC   C4B52342  19.872  33.249   7.353
 9072POPC   NC352343  18.286   8.233   5.553
 9072POPC   PO452344  18.245   8.157   5.853
 9072POPC   GL152345  18.247   8.216   6.153
 9072POPC   GL252346  18.170   8.247   6.153
 9072POPC   C1A52347  18.320   8.196   6.453
 9072POPC   D2A52348  18.240   8.151   6.753
 9072POPC   C3A52349  18.259   8.196   7.053
 9072POPC   C4A52350  18.281   8.244   7.353
 9072POPC   C1B52351  18.081   8.421   6.453
 9072POPC   C2B52352  18.129   8.371   6.753
 9072POPC   C3B52353  18.117   8.382   7.053
 9072POPC   C4B52354  18.098   8.356   7.353
 9073POPC   NC352355   9.792  42.325   5.553
 9073POPC   PO452356   9.745  42.312   5.853
 9073POPC   GL152357   9.702  42.325   6.153
 9073POPC   GL252358   9.628  42.223   6.153
 9073POPC   C1A52359   9.760  42.326   6.453
 9073POPC   D2A52360   9.772  42.311   6.753
 9073POPC   C3A52361   9.753  42.318   7.053
 9073POPC   C4A52362   9.791  42.329   7.353
 9073POPC   C1B52363   9.500  42.247   6.453
 9073POPC   C2B52364   9.563  42.192   6.753
 9073POPC   C3B52365   9.539  42.159   7.053
 9073POPC   C4B52366   9.555  42.160   7.353
 9074POPC   NC352367  37.637   4.357   5.553
 9074POPC   PO452368  37.710   4.271   5.853
 9074POPC   GL152369  37.632   4.272   6.153
 9074POPC   GL252370  37.693   4.430   6.153
 9074POPC   C1A52371  37.724   4.297   6.453
 9074POPC   D2A52372  37.695   4.317   6.753
 9074POPC   C3A52373  37.705   4.303   7.053
 9074POPC   C4A52374  37.708   4.270   7.353
 9074POPC   C1B52375  37.588   4.555   6.453
 9074POPC   C2B52376  37.583   4.511   6.753
 9074POPC   C3B52377  37.608   4.605   7.053
 9074POPC   C4B52378  37.578   4.512   7.353
 9075POPC   NC352379  37.630  26.834   5.553
 9075POPC   PO452380  37.690  26.774   5.853
 9075POPC   GL152381  37.684  26.793   6.153
 9075POPC   GL252382  37.825  26.723   6.153
 9075POPC   C1A52383  37.672  26.777   6.453
 9075POPC   D2A52384  37.637  26.825   6.753
 9075POPC   C3A52385  37.646  26.778   7.053
 9075POPC   C4A52386  37.689  26.851   7.353
 9075POPC   C1B52387  37.883  26.611   6.453
 9075POPC   C2B52388  37.855  26.693   6.753
 9075POPC   C3B52389  37.879  26.673   7.053
 9075POPC   C4B52390  37.825  26.634   7.353
 9076POPC   NC352391  11.251   0.399   5.553
 9076POPC   PO452392  11.331   0.472   5.853
 9076POPC   GL152393  11.293   0.480   6.153
 9076POPC   GL252394  11.232   0.542   6.153
 9076POPC   C1A52395  11.308   0.461   6.453
 9076POPC   D2A52396  11.343   0.465   6.753
 9076POPC   C3A52397  11.337   0.480   7.053
 9076POPC   C4A52398  11.346   0.477   7.353
 9076POPC   C1B52399  11.061   0.644   6.453
 9076POPC   C2B52400  11.154   0.552   6.753
 9076POPC   C3B52401  11.128   0.591   7.053
 9076POPC   C4B52402  11.101   0.596   7.353
 9077POPC   NC352403  33.760  38.433   5.553
 9077POPC   PO452404  33.831  38.482   5.853
 9077POPC   GL152405  33.755  38.409   6.153
 9077POPC   GL252406  33.706  38.562   6.153
 9077POPC   C1A52407  33.761  38.456   6.453
 9077POPC   D2A52408  33.797  38.475   6.753
 9077POPC   C3A52409  33.834  38.420   7.053
 9077POPC   C4A52410  33.823  38.436   7.353
 9077POPC   C1B52411  33.634  38.623   6.453
 9077POPC   C2B52412  33.591  38.597   6.753
 9077POPC   C3B52413  33.633  38.602   7.053
 9077POPC   C4B52414  33.583  38.584   7.353
 9078POPC   NC352415  13.590   1.184   5.553
 9078POPC   PO452416  13.638   1.184   5.853
 9078POPC   GL152417  13.611   1.201   6.153
 9078POPC   GL252418  13.662   1.330   6.153
 9078POPC   C1A52419  13.662   1.193   6.453
 9078POPC   D2A52420  13.665   1.180   6.753
 9078POPC   C3A52421  13.579   1.255   7.053
 9078POPC   C4A52422  13.582   1.216   7.353
 9078POPC   C1B52423  13.721   1.426   6.453
 9078POPC   C2B52424  13.705   1.459   6.753
 9078POPC   C3B52425  13.739   1.452   7.053
 9078POPC   C4B52426  13.794   1.445   7.353
 9079POPC   NC352427  19.015  22.125   5.553
 9079POPC   PO452428  19.062  22.174   5.853
 9079POPC   GL152429  19.034  22.193   6.153
 9079POPC   GL252430  18.970  22.203   6.153
 9079POPC   C1A52431  19.070  22.134   6.453
 9079POPC   D2A52432  19.103  22.138   6.753
 9079POPC   C3A52433  19.082  22.117   7.053
 9079POPC   C4A52434  19.087  22.160   7.353
 9079POPC   C1B52435  18.850  22.263   6.453
 9079POPC   C2B52436  18.774  22.218   6.753
 9079POPC   C3B52437  18.866  22.187   7.053
 9079POPC   C4B52438  18.815  22.246   7.353
 9080POPC   NC352439   8.961  12.117   5.553
 9080POPC   PO452440   8.996  12.048   5.853
 9080POPC   GL152441   8.931  12.054   6.153
 9080POPC   GL252442   8.928  12.235   6.153
 9080POPC   C1A52443   8.956  12.037   6.453
 9080POPC   D2A52444   9.022  12.044   6.753
 9080POPC   C3A52445   8.974  12.032   7.053
 9080POPC   C4A52446   8.976  12.087   7.353
 9080POPC   C1B52447   8.824  12.276   6.453
 9080POPC   C2B52448   8.822  12.293   6.753
 9080POPC   C3B52449   8.907  12.264   7.053
 9080POPC   C4B52450   8.831  12.265   7.353
 9081POPC   NC352451  26.082  32.997   5.553
 9081POPC   PO452452  26.069  33.057   5.853
 9081POPC   GL152453  26.044  33.011   6.153
 9081POPC   GL252454  25.982  33.146   6.153
 9081POPC   C1A52455  26.007  33.012   6.453
 9081POPC   D2A52456  26.050  33.058   6.753
 9081POPC   C3A52457  26.006  33.056   7.053
 9081POPC   C4A52458  26.079  32.991   7.353
 9081POPC   C1B52459  25.975  33.244   6.453
 9081POPC   C2B52460  25.968  33.292   6.753
 9081POPC   C3B52461  25.986  33.305   7.053
 9081POPC   C4B52462  25.950  33.309   7.353
 9082POPC   NC352463  10.482  29.938   5.553
 9082POPC   PO452464  10.539  29.929   5.853
 9082POPC   GL152465  10.480  29.919   6.153
 9082POPC   GL252466  10.366  29.955   6.153
 9082POPC   C1A52467  10.526  29.885   6.453
 9082POPC   D2A52468  10.531  29.931   6.753
 9082POPC   C3A52469  10.553  29.968   7.053
 9082POPC   C4A52470  10.516  29.945   7.353
 9082POPC   C1B52471  10.303  29.996   6.453
 9082POPC   C2B52472  10.286  29.952   6.753
 9082POPC   C3B52473  10.242  29.974   7.053
 9082POPC   C4B52474  10.326  30.004   7.353
 9083POPC   NC352475  21.404  27.584   5.553
 9083POPC   PO452476  21.364  27.604   5.853
 9083POPC   GL152477  21.404  27.631   6.153
 9083POPC   GL252478  21.285  27.669   6.153
 9083POPC   C1A52479  21.371  27.557   6.453
 9083POPC   D2A52480  21.411  27.596   6.753
 9083POPC   C3A52481  21.358  27.579   7.053
 9083POPC   C4A52482  21.372  27.606   7.353
 9083POPC   C1B52483  21.163  27.694   6.453
 9083POPC   C2B52484  21.152  27.668   6.753
 9083POPC   C3B52485  21.149  27.637   7.053
 9083POPC   C4B52486  21.134  27.683   7.353
 9084POPC   NC352487  29.111   9.773   5.553
 9084POPC   PO452488  29.161   9.701   5.853
 9084POPC   GL152489  29.114   9.778   6.153
 9084POPC   GL252490  29.045   9.613   6.153
 9084POPC   C1A52491  29.100   9.769   6.453
 9084POPC   D2A52492  29.140   9.736   6.753
 9084POPC   C3A52493  29.192   9.736   7.053
 9084POPC   C4A52494  29.132   9.772   7.353
 9084POPC   C1B52495  28.999   9.572   6.453
 9084POPC   C2B52496  28.927   9.559   6.753
 9084POPC   C3B52497  28.990   9.579   7.053
 9084POPC   C4B52498  29.006   9.587   7.353
 9085POPC   NC352499   0.480  42.305   5.553
 9085POPC   PO452500   0.436  42.298   5.853
 9085POPC   GL152501   0.440  42.310   6.153
 9085POPC   GL252502   0.364  42.401   6.153
 9085POPC   C1A52503   0.457  42.357   6.453
 9085POPC   D2A52504   0.445  42.293   6.753
 9085POPC   C3A52505   0.481  42.375   7.053
 9085POPC   C4A52506   0.426  42.319   7.353
 9085POPC   C1B52507   0.281  42.591   6.453
 9085POPC   C2B52508   0.276  42.566   6.753
 9085POPC   C3B52509   0.271  42.527   7.053
 9085POPC   C4B52510   0.326  42.574   7.353
 9086POPC   NC352511   8.999   5.091   5.553
 9086POPC   PO452512   8.942   5.072   5.853
 9086POPC   GL152513   8.963   5.080   6.153
 9086POPC   GL252514   9.085   5.026   6.153
 9086POPC   C1A52515   9.015   5.053   6.453
 9086POPC   D2A52516   9.018   5.130   6.753
 9086POPC   C3A52517   8.937   5.048   7.053
 9086POPC   C4A52518   8.941   5.108   7.353
 9086POPC   C1B52519   9.191   4.965   6.453
 9086POPC   C2B52520   9.172   4.933   6.753
 9086POPC   C3B52521   9.156   4.901   7.053
 9086POPC   C4B52522   9.188   4.936   7.353
 9087POPC   NC352523  43.845   3.550   5.553
 9087POPC   PO452524  43.840   3.524   5.853
 9087POPC   GL152525  43.875   3.522   6.153
 9087POPC   GL252526  43.843   3.404   6.153
 9087POPC   C1A52527  43.876   3.539   6.453
 9087POPC   D2A52528  43.860   3.509   6.753
 9087POPC   C3A52529  43.871   3.541   7.053
 9087POPC   C4A52530  43.850   3.510   7.353
 9087POPC   C1B52531  43.821   3.316   6.453
 9087POPC   C2B52532  43.834   3.351   6.753
 9087POPC   C3B52533  43.768   3.336   7.053
 9087POPC   C4B52534  43.852   3.347   7.353
 9088POPC   NC352535  36.091   3.552   5.553
 9088POPC   PO452536  36.096   3.566   5.853
 9088POPC   GL152537  36.088   3.512   6.153
 9088POPC   GL252538  36.230   3.448   6.153
 9088POPC   C1A52539  36.104   3.564   6.453
 9088POPC   D2A52540  36.102   3.539   6.753
 9088POPC   C3A52541  36.143   3.554   7.053
 9088POPC   C4A52542  36.153   3.514   7.353
 9088POPC   C1B52543  36.293   3.346   6.453
 9088POPC   C2B52544  36.250   3.341   6.753
 9088POPC   C3B52545  36.240   3.306   7.053
 9088POPC   C4B52546  36.227   3.350   7.353
 9089POPC   NC352547  27.578  21.383   5.553
 9089POPC   PO452548  27.635  21.382   5.853
 9089POPC   GL152549  27.616  21.422   6.153
 9089POPC   GL252550  27.498  21.418   6.153
 9089POPC   C1A52551  27.639  21.351   6.453
 9089POPC   D2A52552  27.626  21.393   6.753
 9089POPC   C3A52553  27.551  21.393   7.053
 9089POPC   C4A52554  27.547  21.379   7.353
 9089POPC   C1B52555  27.351  21.382   6.453
 9089POPC   C2B52556  27.306  21.424   6.753
 9089POPC   C3B52557  27.344  21.337   7.053
 9089POPC   C4B52558  27.308  21.383   7.353
 9090POPC   NC352559  36.143  40.046   5.553
 9090POPC   PO452560  36.081  39.969   5.853
 9090POPC   GL152561  36.108  40.012   6.153
 9090POPC   GL252562  36.107  40.088   6.153
 9090POPC   C1A52563  36.081  39.977   6.453
 9090POPC   D2A52564  36.130  40.017   6.753
 9090POPC   C3A52565  36.112  40.046   7.053
 9090POPC   C4A52566  36.162  39.993   7.353
 9090POPC   C1B52567  36.054  40.224   6.453
 9090POPC   C2B52568  36.092  40.239   6.753
 9090POPC   C3B52569  36.076  40.225   7.053
 9090POPC   C4B52570  36.094  40.247   7.353
 9091POPC   NC352571  17.541  36.894   5.553
 9091POPC   PO452572  17.516  36.930   5.853
 9091POPC   GL152573  17.482  36.935   6.153
 9091POPC   GL252574  17.385  36.935   6.153
 9091POPC   C1A52575  17.509  36.948   6.453
 9091POPC   D2A52576  17.458  36.873   6.753
 9091POPC   C3A52577  17.487  36.905   7.053
 9091POPC   C4A52578  17.547  36.898   7.353
 9091POPC   C1B52579  17.297  37.032   6.453
 9091POPC   C2B52580  17.322  37.023   6.753
 9091POPC   C3B52581  17.321  37.062   7.053
 9091POPC   C4B52582  17.273  37.088   7.353
 9092POPC   NC352583   4.303   3.529   5.553
 9092POPC   PO452584   4.277   3.521   5.853
 9092POPC   GL152585   4.340   3.546   6.153
 9092POPC   GL252586   4.183   3.655   6.153
 9092POPC   C1A52587   4.277   3.538   6.453
 9092POPC   D2A52588   4.279   3.511   6.753
 9092POPC   C3A52589   4.321   3.585   7.053
 9092POPC   C4A52590   4.337   3.560   7.353
 9092POPC   C1B52591   4.101   3.731   6.453
 9092POPC   C2B52592   4.100   3.763   6.753
 9092POPC   C3B52593   4.161   3.695   7.053
 9092POPC   C4B52594   4.169   3.702   7.353
 9093POPC   NC352595  21.361  16.692   5.553
 9093POPC   PO452596  21.347  16.746   5.853
 9093POPC   GL152597  21.404  16.697   6.153
 9093POPC   GL252598  21.262  16.607   6.153
 9093POPC   C1A52599  21.380  16.741   6.453
 9093POPC   D2A52600  21.350  16.696   6.753
 9093POPC   C3A52601  21.424  16.698   7.053
 9093POPC   C4A52602  21.340  16.768   7.353
 9093POPC   C1B52603  21.198  16.551   6.453
 9093POPC   C2B52604  21.212  16.520   6.753
 9093POPC   C3B52605  21.208  16.509   7.053
 9093POPC   C4B52606  21.181  16.509   7.353
 9094POPC   NC352607  44.676  40.046   5.553
 9094POPC   PO452608  44.639  40.032   5.853
 9094POPC   GL152609  44.712  40.011   6.153
 9094POPC   GL252610  44.721  40.067   6.153
 9094POPC   C1A52611  44.634  40.054   6.453
 9094POPC   D2A52612  44.631  40.052   6.753
 9094POPC   C3A52613  44.687  39.978   7.053
 9094POPC   C4A52614  44.649  40.015   7.353
 9094POPC   C1B52615  44.849  40.170   6.453
 9094POPC   C2B52616  44.904  40.133   6.753
 9094POPC   C3B52617  44.877  40.181   7.053
 9094POPC   C4B52618  44.847  40.165   7.353
 9095POPC   NC352619  14.430  32.246   5.553
 9095POPC   PO452620  14.440  32.294   5.853
 9095POPC   GL152621  14.422  32.227   6.153
 9095POPC   GL252622  14.500  32.182   6.153
 9095POPC   C1A52623  14.405  32.290   6.453
 9095POPC   D2A52624  14.371  32.243   6.753
 9095POPC   C3A52625  14.355  32.236   7.053
 9095POPC   C4A52626  14.434  32.261   7.353
 9095POPC   C1B52627  14.501  32.062   6.453
 9095POPC   C2B52628  14.581  32.029   6.753
 9095POPC   C3B52629  14.495  32.048   7.053
 9095POPC   C4B52630  14.563  32.077   7.353
 9096POPC   NC352631   2.019   1.221   5.553
 9096POPC   PO452632   2.006   1.217   5.853
 9096POPC   GL152633   1.985   1.216   6.153
 9096POPC   GL252634   2.118   1.160   6.153
 9096POPC   C1A52635   1.992   1.213   6.453
 9096POPC   D2A52636   2.012   1.196   6.753
 9096POPC   C3A52637   2.034   1.220   7.053
 9096POPC   C4A52638   1.954   1.179   7.353
 9096POPC   C1B52639   2.144   1.047   6.453
 9096POPC   C2B52640   2.187   1.042   6.753
 9096POPC   C3B52641   2.214   1.011   7.053
 9096POPC   C4B52642   2.204   1.018   7.353
 9097POPC   NC352643  31.475  15.913   5.553
 9097POPC   PO452644  31.445  16.000   5.853
 9097POPC   GL152645  31.470  15.924   6.153
 9097POPC   GL252646  31.448  16.077   6.153
 9097POPC   C1A52647  31.490  15.985   6.453
 9097POPC   D2A52648  31.496  15.933   6.753
 9097POPC   C3A52649  31.446  15.990   7.053
 9097POPC   C4A52650  31.433  15.931   7.353
 9097POPC   C1B52651  31.439  16.231   6.453
 9097POPC   C2B52652  31.452  16.161   6.753
 9097POPC   C3B52653  31.446  16.196   7.053
 9097POPC   C4B52654  31.401  16.194   7.353
 9098POPC   NC352655  19.830  40.742   5.553
 9098POPC   PO452656  19.849  40.795   5.853
 9098POPC   GL152657  19.877  40.777   6.153
 9098POPC   GL252658  19.822  40.897   6.153
 9098POPC   C1A52659  19.809  40.816   6.453
 9098POPC   D2A52660  19.842  40.812   6.753
 9098POPC   C3A52661  19.796  40.771   7.053
 9098POPC   C4A52662  19.798  40.776   7.353
 9098POPC   C1B52663  19.768  41.026   6.453
 9098POPC   C2B52664  19.732  41.027   6.753
 9098POPC   C3B52665  19.716  41.013   7.053
 9098POPC   C4B52666  19.745  40.991   7.353
 9099POPC   NC352667  29.119  16.687   5.553
 9099POPC   PO452668  29.155  16.741   5.853
 9099POPC   GL152669  29.185  16.740   6.153
 9099POPC   GL252670  29.103  16.609   6.153
 9099POPC   C1A52671  29.180  16.700   6.453
 9099POPC   D2A52672  29.103  16.767   6.753
 9099POPC   C3A52673  29.150  16.735   7.053
 9099POPC   C4A52674  29.161  16.682   7.353
 9099POPC   C1B52675  29.022  16.489   6.453
 9099POPC   C2B52676  29.039  16.492   6.753
 9099POPC   C3B52677  28.945  16.514   7.053
 9099POPC   C4B52678  28.991  16.517   7.353
 9100POPC   NC352679  25.237  31.471   5.553
 9100POPC   PO452680  25.305  31.452   5.853
 9100POPC   GL152681  25.225  31.511   6.153
 9100POPC   GL252682  25.309  31.515   6.153
 9100POPC   C1A52683  25.256  31.474   6.453
 9100POPC   D2A52684  25.233  31.488   6.753
 9100POPC   C3A52685  25.253  31.473   7.053
 9100POPC   C4A52686  25.216  31.519   7.353
 9100POPC   C1B52687  25.470  31.678   6.453
 9100POPC   C2B52688  25.437  31.657   6.753
 9100POPC   C3B52689  25.497  31.634   7.053
 9100POPC   C4B52690  25.498  31.677   7.353
 9101POPC   NC352691   1.168  34.583   5.553
 9101POPC   PO452692   1.177  34.549   5.853
 9101POPC   GL152693   1.199  34.526   6.153
 9101POPC   GL252694   1.297  34.510   6.153
 9101POPC   C1A52695   1.260  34.540   6.453
 9101POPC   D2A52696   1.254  34.622   6.753
 9101POPC   C3A52697   1.254  34.595   7.053
 9101POPC   C4A52698   1.219  34.542   7.353
 9101POPC   C1B52699   1.401  34.436   6.453
 9101POPC   C2B52700   1.380  34.402   6.753
 9101POPC   C3B52701   1.408  34.432   7.053
 9101POPC   C4B52702   1.426  34.365   7.353
 9102POPC   NC352703  15.906  19.809   5.553
 9102POPC   PO452704  15.992  19.851   5.853
 9102POPC   GL152705  15.939  19.798   6.153
 9102POPC   GL252706  15.985  20.007   6.153
 9102POPC   C1A52707  15.926  19.870   6.453
 9102POPC   D2A52708  15.997  19.872   6.753
 9102POPC   C3A52709  15.939  19.795   7.053
 9102POPC   C4A52710  15.926  19.868   7.353
 9102POPC   C1B52711  15.954  20.069   6.453
 9102POPC   C2B52712  15.989  20.123   6.753
 9102POPC   C3B52713  16.026  20.062   7.053
 9102POPC   C4B52714  16.004  20.032   7.353
 9103POPC   NC352715  15.150  21.376   5.553
 9103POPC   PO452716  15.159  21.412   5.853
 9103POPC   GL152717  15.217  21.340   6.153
 9103POPC   GL252718  15.210  21.495   6.153
 9103POPC   C1A52719  15.143  21.409   6.453
 9103POPC   D2A52720  15.191  21.353   6.753
 9103POPC   C3A52721  15.224  21.352   7.053
 9103POPC   C4A52722  15.162  21.392   7.353
 9103POPC   C1B52723  15.093  21.636   6.453
 9103POPC   C2B52724  15.106  21.669   6.753
 9103POPC   C3B52725  15.169  21.669   7.053
 9103POPC   C4B52726  15.096  21.675   7.353
 9104POPC   NC352727  12.086  12.099   5.553
 9104POPC   PO452728  12.121  12.036   5.853
 9104POPC   GL152729  12.071  12.058   6.153
 9104POPC   GL252730  12.198  12.140   6.153
 9104POPC   C1A52731  12.028  12.044   6.453
 9104POPC   D2A52732  12.102  12.067   6.753
 9104POPC   C3A52733  12.118  12.124   7.053
 9104POPC   C4A52734  12.074  12.066   7.353
 9104POPC   C1B52735  12.234  12.272   6.453
 9104POPC   C2B52736  12.241  12.266   6.753
 9104POPC   C3B52737  12.276  12.237   7.053
 9104POPC   C4B52738  12.275  12.249   7.353
 9105POPC   NC352739   9.019  41.541   5.553
 9105POPC   PO452740   8.950  41.510   5.853
 9105POPC   GL152741   8.972  41.510   6.153
 9105POPC   GL252742   9.054  41.601   6.153
 9105POPC   C1A52743   8.946  41.577   6.453
 9105POPC   D2A52744   8.981  41.566   6.753
 9105POPC   C3A52745   8.961  41.522   7.053
 9105POPC   C4A52746   8.992  41.515   7.353
 9105POPC   C1B52747   9.199  41.651   6.453
 9105POPC   C2B52748   9.226  41.629   6.753
 9105POPC   C3B52749   9.226  41.651   7.053
 9105POPC   C4B52750   9.225  41.692   7.353
 9106POPC   NC352751  32.246  12.847   5.553
 9106POPC   PO452752  32.209  12.898   5.853
 9106POPC   GL152753  32.273  12.856   6.153
 9106POPC   GL252754  32.113  12.878   6.153
 9106POPC   C1A52755  32.268  12.856   6.453
 9106POPC   D2A52756  32.227  12.898   6.753
 9106POPC   C3A52757  32.207  12.821   7.053
 9106POPC   C4A52758  32.252  12.832   7.353
 9106POPC   C1B52759  32.015  12.839   6.453
 9106POPC   C2B52760  31.977  12.838   6.753
 9106POPC   C3B52761  32.028  12.865   7.053
 9106POPC   C4B52762  31.998  12.823   7.353
 9107POPC   NC352763  29.968  29.137   5.553
 9107POPC   PO452764  29.910  29.106   5.853
 9107POPC   GL152765  29.894  29.148   6.153
 9107POPC   GL252766  29.966  29.045   6.153
 9107POPC   C1A52767  29.898  29.159   6.453
 9107POPC   D2A52768  29.902  29.193   6.753
 9107POPC   C3A52769  29.950  29.112   7.053
 9107POPC   C4A52770  29.959  29.122   7.353
 9107POPC   C1B52771  30.006  28.904   6.453
 9107POPC   C2B52772  30.096  28.937   6.753
 9107POPC   C3B52773  30.011  28.953   7.053
 9107POPC   C4B52774  30.099  28.905   7.353
 9108POPC   NC352775  32.233  39.983   5.553
 9108POPC   PO452776  32.217  39.966   5.853
 9108POPC   GL152777  32.252  40.055   6.153
 9108POPC   GL252778  32.187  40.073   6.153
 9108POPC   C1A52779  32.278  39.970   6.453
 9108POPC   D2A52780  32.219  40.053   6.753
 9108POPC   C3A52781  32.282  39.999   7.053
 9108POPC   C4A52782  32.253  40.007   7.353
 9108POPC   C1B52783  32.070  40.142   6.453
 9108POPC   C2B52784  32.001  40.162   6.753
 9108POPC   C3B52785  32.014  40.180   7.053
 9108POPC   C4B52786  32.041  40.121   7.353
 9109POPC   NC352787  36.078  23.740   5.553
 9109POPC   PO452788  36.162  23.754   5.853
 9109POPC   GL152789  36.133  23.763   6.153
 9109POPC   GL252790  36.097  23.796   6.153
 9109POPC   C1A52791  36.122  23.759   6.453
 9109POPC   D2A52792  36.087  23.685   6.753
 9109POPC   C3A52793  36.120  23.735   7.053
 9109POPC   C4A52794  36.147  23.736   7.353
 9109POPC   C1B52795  35.981  23.875   6.453
 9109POPC   C2B52796  35.972  23.909   6.753
 9109POPC   C3B52797  35.965  23.925   7.053
 9109POPC   C4B52798  36.012  23.902   7.353
 9110POPC   NC352799  36.876  21.340   5.553
 9110POPC   PO452800  36.860  21.388   5.853
 9110POPC   GL152801  36.927  21.352   6.153
 9110POPC   GL252802  37.043  21.392   6.153
 9110POPC   C1A52803  36.873  21.351   6.453
 9110POPC   D2A52804  36.890  21.369   6.753
 9110POPC   C3A52805  36.945  21.344   7.053
 9110POPC   C4A52806  36.914  21.414   7.353
 9110POPC   C1B52807  37.113  21.517   6.453
 9110POPC   C2B52808  37.172  21.498   6.753
 9110POPC   C3B52809  37.098  21.512   7.053
 9110POPC   C4B52810  37.121  21.507   7.353
 9111POPC   NC352811  18.296  25.217   5.553
 9111POPC   PO452812  18.256  25.266   5.853
 9111POPC   GL152813  18.259  25.311   6.153
 9111POPC   GL252814  18.170  25.141   6.153
 9111POPC   C1A52815  18.241  25.305   6.453
 9111POPC   D2A52816  18.246  25.312   6.753
 9111POPC   C3A52817  18.266  25.222   7.053
 9111POPC   C4A52818  18.273  25.283   7.353
 9111POPC   C1B52819  18.070  25.073   6.453
 9111POPC   C2B52820  18.083  25.131   6.753
 9111POPC   C3B52821  18.090  25.106   7.053
 9111POPC   C4B52822  18.149  25.094   7.353
 9112POPC   NC352823  30.675  16.731   5.553
 9112POPC   PO452824  30.669  16.716   5.853
 9112POPC   GL152825  30.683  16.732   6.153
 9112POPC   GL252826  30.590  16.792   6.153
 9112POPC   C1A52827  30.653  16.752   6.453
 9112POPC   D2A52828  30.720  16.762   6.753
 9112POPC   C3A52829  30.745  16.759   7.053
 9112POPC   C4A52830  30.673  16.717   7.353
 9112POPC   C1B52831  30.520  16.961   6.453
 9112POPC   C2B52832  30.560  16.899   6.753
 9112POPC   C3B52833  30.600  16.917   7.053
 9112POPC   C4B52834  30.615  16.935   7.353
 9113POPC   NC352835  36.092  26.025   5.553
 9113POPC   PO452836  36.119  26.011   5.853
 9113POPC   GL152837  36.100  26.023   6.153
 9113POPC   GL252838  35.985  26.125   6.153
 9113POPC   C1A52839  36.087  26.054   6.453
 9113POPC   D2A52840  36.169  26.063   6.753
 9113POPC   C3A52841  36.171  26.038   7.053
 9113POPC   C4A52842  36.146  26.073   7.353
 9113POPC   C1B52843  35.941  26.138   6.453
 9113POPC   C2B52844  35.935  26.152   6.753
 9113POPC   C3B52845  35.875  26.190   7.053
 9113POPC   C4B52846  35.864  26.192   7.353
 9114POPC   NC352847  42.369   4.315   5.553
 9114POPC   PO452848  42.361   4.352   5.853
 9114POPC   GL152849  42.339   4.308   6.153
 9114POPC   GL252850  42.238   4.323   6.153
 9114POPC   C1A52851  42.363   4.321   6.453
 9114POPC   D2A52852  42.339   4.343   6.753
 9114POPC   C3A52853  42.309   4.321   7.053
 9114POPC   C4A52854  42.309   4.286   7.353
 9114POPC   C1B52855  42.060   4.252   6.453
 9114POPC   C2B52856  42.111   4.268   6.753
 9114POPC   C3B52857  42.102   4.195   7.053
 9114POPC   C4B52858  42.084   4.279   7.353
 9115POPC   NC352859   8.955   0.436   5.553
 9115POPC   PO452860   8.923   0.388   5.853
 9115POPC   GL152861   8.992   0.478   6.153
 9115POPC   GL252862   8.897   0.423   6.153
 9115POPC   C1A52863   8.924   0.459   6.453
 9115POPC   D2A52864   9.010   0.464   6.753
 9115POPC   C3A52865   9.011   0.427   7.053
 9115POPC   C4A52866   8.981   0.444   7.353
 9115POPC   C1B52867   8.744   0.504   6.453
 9115POPC   C2B52868   8.764   0.500   6.753
 9115POPC   C3B52869   8.739   0.491   7.053
 9115POPC   C4B52870   8.687   0.463   7.353
 9116POPC   NC352871  15.150  26.010   5.553
 9116POPC   PO452872  15.175  26.052   5.853
 9116POPC   GL152873  15.160  26.018   6.153
 9116POPC   GL252874  15.093  25.944   6.153
 9116POPC   C1A52875  15.216  26.086   6.453
 9116POPC   D2A52876  15.180  26.002   6.753
 9116POPC   C3A52877  15.135  26.027   7.053
 9116POPC   C4A52878  15.159  25.998   7.353
 9116POPC   C1B52879  14.966  25.896   6.453
 9116POPC   C2B52880  14.999  25.938   6.753
 9116POPC   C3B52881  14.955  25.945   7.053
 9116POPC   C4B52882  14.996  25.900   7.353
 9117POPC   NC352883   9.747  29.099   5.553
 9117POPC   PO452884   9.736  29.188   5.853
 9117POPC   GL152885   9.750  29.156   6.153
 9117POPC   GL252886   9.802  29.226   6.153
 9117POPC   C1A52887   9.750  29.123   6.453
 9117POPC   D2A52888   9.713  29.114   6.753
 9117POPC   C3A52889   9.769  29.107   7.053
 9117POPC   C4A52890   9.734  29.169   7.353
 9117POPC   C1B52891   9.912  29.374   6.453
 9117POPC   C2B52892   9.887  29.303   6.753
 9117POPC   C3B52893   9.907  29.335   7.053
 9117POPC   C4B52894   9.899  29.307   7.353
 9118POPC   NC352895  33.829  42.326   5.553
 9118POPC   PO452896  33.809  42.301   5.853
 9118POPC   GL152897  33.772  42.318   6.153
 9118POPC   GL252898  33.752  42.249   6.153
 9118POPC   C1A52899  33.770  42.355   6.453
 9118POPC   D2A52900  33.774  42.326   6.753
 9118POPC   C3A52901  33.847  42.351   7.053
 9118POPC   C4A52902  33.780  42.353   7.353
 9118POPC   C1B52903  33.714  42.053   6.453
 9118POPC   C2B52904  33.758  42.078   6.753
 9118POPC   C3B52905  33.663  42.119   7.053
 9118POPC   C4B52906  33.743  42.095   7.353
 9119POPC   NC352907  15.215   0.428   5.553
 9119POPC   PO452908  15.223   0.455   5.853
 9119POPC   GL152909  15.136   0.481   6.153
 9119POPC   GL252910  15.317   0.524   6.153
 9119POPC   C1A52911  15.210   0.454   6.453
 9119POPC   D2A52912  15.132   0.482   6.753
 9119POPC   C3A52913  15.138   0.423   7.053
 9119POPC   C4A52914  15.141   0.440   7.353
 9119POPC   C1B52915  15.348   0.562   6.453
 9119POPC   C2B52916  15.361   0.580   6.753
 9119POPC   C3B52917  15.365   0.574   7.053
 9119POPC   C4B52918  15.371   0.609   7.353
 9120POPC   NC352919  19.878  12.113   5.553
 9120POPC   PO452920  19.847  12.112   5.853
 9120POPC   GL152921  19.876  12.049   6.153
 9120POPC   GL252922  19.888  12.022   6.153
 9120POPC   C1A52923  19.879  12.101   6.453
 9120POPC   D2A52924  19.864  12.076   6.753
 9120POPC   C3A52925  19.800  12.039   7.053
 9120POPC   C4A52926  19.839  12.080   7.353
 9120POPC   C1B52927  20.025  11.935   6.453
 9120POPC   C2B52928  20.062  11.889   6.753
 9120POPC   C3B52929  20.077  11.911   7.053
 9120POPC   C4B52930  20.079  11.941   7.353
 9121POPC   NC352931   5.883  15.191   5.553
 9121POPC   PO452932   5.865  15.142   5.853
 9121POPC   GL152933   5.822  15.191   6.153
 9121POPC   GL252934   5.805  15.110   6.153
 9121POPC   C1A52935   5.911  15.199   6.453
 9121POPC   D2A52936   5.873  15.208   6.753
 9121POPC   C3A52937   5.886  15.227   7.053
 9121POPC   C4A52938   5.915  15.140   7.353
 9121POPC   C1B52939   5.678  15.005   6.453
 9121POPC   C2B52940   5.645  14.978   6.753
 9121POPC   C3B52941   5.704  14.989   7.053
 9121POPC   C4B52942   5.719  15.039   7.353
 9122POPC   NC352943  26.085   1.168   5.553
 9122POPC   PO452944  26.049   1.248   5.853
 9122POPC   GL152945  26.013   1.188   6.153
 9122POPC   GL252946  25.968   1.367   6.153
 9122POPC   C1A52947  26.040   1.188   6.453
 9122POPC   D2A52948  26.029   1.256   6.753
 9122POPC   C3A52949  26.057   1.171   7.053
 9122POPC   C4A52950  26.067   1.227   7.353
 9122POPC   C1B52951  25.960   1.494   6.453
 9122POPC   C2B52952  26.011   1.488   6.753
 9122POPC   C3B52953  26.014   1.494   7.053
 9122POPC   C4B52954  25.995   1.486   7.353
 9123POPC   NC352955  25.260  18.303   5.553
 9123POPC   PO452956  25.234  18.327   5.853
 9123POPC   GL152957  25.233  18.243   6.153
 9123POPC   GL252958  25.205  18.146   6.153
 9123POPC   C1A52959  25.237  18.332   6.453
 9123POPC   D2A52960  25.263  18.302   6.753
 9123POPC   C3A52961  25.271  18.263   7.053
 9123POPC   C4A52962  25.229  18.291   7.353
 9123POPC   C1B52963  25.172  18.034   6.453
 9123POPC   C2B52964  25.177  18.023   6.753
 9123POPC   C3B52965  25.202  18.092   7.053
 9123POPC   C4B52966  25.129  18.053   7.353
 9124POPC   NC352967  42.356  22.984   5.553
 9124POPC   PO452968  42.359  22.889   5.853
 9124POPC   GL152969  42.369  22.904   6.153
 9124POPC   GL252970  42.381  23.012   6.153
 9124POPC   C1A52971  42.294  22.899   6.453
 9124POPC   D2A52972  42.303  22.909   6.753
 9124POPC   C3A52973  42.340  22.892   7.053
 9124POPC   C4A52974  42.381  22.950   7.353
 9124POPC   C1B52975  42.449  23.150   6.453
 9124POPC   C2B52976  42.370  23.209   6.753
 9124POPC   C3B52977  42.394  23.198   7.053
 9124POPC   C4B52978  42.408  23.205   7.353
 9125POPC   NC352979   0.485  32.272   5.553
 9125POPC   PO452980   0.409  32.224   5.853
 9125POPC   GL152981   0.476  32.286   6.153
 9125POPC   GL252982   0.542  32.258   6.153
 9125POPC   C1A52983   0.468  32.222   6.453
 9125POPC   D2A52984   0.442  32.224   6.753
 9125POPC   C3A52985   0.486  32.232   7.053
 9125POPC   C4A52986   0.459  32.220   7.353
 9125POPC   C1B52987   0.701  32.235   6.453
 9125POPC   C2B52988   0.725  32.222   6.753
 9125POPC   C3B52989   0.642  32.255   7.053
 9125POPC   C4B52990   0.700  32.247   7.353
 9126POPC   NC352991  37.692  41.531   5.553
 9126POPC   PO452992  37.648  41.536   5.853
 9126POPC   GL152993  37.703  41.578   6.153
 9126POPC   GL252994  37.626  41.653   6.153
 9126POPC   C1A52995  37.701  41.600   6.453
 9126POPC   D2A52996  37.662  41.528   6.753
 9126POPC   C3A52997  37.631  41.601   7.053
 9126POPC   C4A52998  37.716  41.598   7.353
 9126POPC   C1B52999  37.518  41.691   6.453
 9126POPC   C2B53000  37.517  41.767   6.753
 9126POPC   C3B53001  37.472  41.708   7.053
 9126POPC   C4B53002  37.542  41.715   7.353
 9127POPC   NC353003   8.950  19.830   5.553
 9127POPC   PO453004   8.979  19.853   5.853
 9127POPC   GL153005   8.971  19.811   6.153
 9127POPC   GL253006   8.847  19.814   6.153
 9127POPC   C1A53007   8.960  19.884   6.453
 9127POPC   D2A53008   9.008  19.879   6.753
 9127POPC   C3A53009   8.946  19.869   7.053
 9127POPC   C4A53010   9.016  19.845   7.353
 9127POPC   C1B53011   8.691  19.923   6.453
 9127POPC   C2B53012   8.770  19.898   6.753
 9127POPC   C3B53013   8.686  19.922   7.053
 9127POPC   C4B53014   8.740  19.916   7.353
 9128POPC   NC353015  34.531  11.336   5.553
 9128POPC   PO453016  34.610  11.312   5.853
 9128POPC   GL153017  34.595  11.262   6.153
 9128POPC   GL253018  34.650  11.422   6.153
 9128POPC   C1A53019  34.547  11.291   6.453
 9128POPC   D2A53020  34.602  11.279   6.753
 9128POPC   C3A53021  34.532  11.318   7.053
 9128POPC   C4A53022  34.594  11.286   7.353
 9128POPC   C1B53023  34.698  11.541   6.453
 9128POPC   C2B53024  34.632  11.509   6.753
 9128POPC   C3B53025  34.675  11.555   7.053
 9128POPC   C4B53026  34.624  11.558   7.353
 9129POPC   NC353027  33.821  35.367   5.553
 9129POPC   PO453028  33.784  35.327   5.853
 9129POPC   GL153029  33.760  35.322   6.153
 9129POPC   GL253030  33.730  35.253   6.153
 9129POPC   C1A53031  33.836  35.316   6.453
 9129POPC   D2A53032  33.775  35.334   6.753
 9129POPC   C3A53033  33.798  35.309   7.053
 9129POPC   C4A53034  33.848  35.355   7.353
 9129POPC   C1B53035  33.630  35.148   6.453
 9129POPC   C2B53036  33.643  35.162   6.753
 9129POPC   C3B53037  33.683  35.124   7.053
 9129POPC   C4B53038  33.647  35.166   7.353
 9130POPC   NC353039  14.355  10.565   5.553
 9130POPC   PO453040  14.417  10.532   5.853
 9130POPC   GL153041  14.394  10.487   6.153
 9130POPC   GL253042  14.493  10.537   6.153
 9130POPC   C1A53043  14.435  10.514   6.453
 9130POPC   D2A53044  14.414  10.542   6.753
 9130POPC   C3A53045  14.390  10.509   7.053
 9130POPC   C4A53046  14.432  10.476   7.353
 9130POPC   C1B53047  14.602  10.662   6.453
 9130POPC   C2B53048  14.621  10.622   6.753
 9130POPC   C3B53049  14.654  10.584   7.053
 9130POPC   C4B53050  14.587  10.631   7.353
 9131POPC   NC353051   5.841   3.529   5.553
 9131POPC   PO453052   5.875   3.536   5.853
 9131POPC   GL153053   5.884   3.500   6.153
 9131POPC   GL253054   5.906   3.427   6.153
 9131POPC   C1A53055   5.841   3.517   6.453
 9131POPC   D2A53056   5.912   3.506   6.753
 9131POPC   C3A53057   5.883   3.529   7.053
 9131POPC   C4A53058   5.839   3.560   7.353
 9131POPC   C1B53059   5.934   3.329   6.453
 9131POPC   C2B53060   5.949   3.301   6.753
 9131POPC   C3B53061   5.938   3.296   7.053
 9131POPC   C4B53062   5.994   3.308   7.353
 9132POPC   NC353063  18.321  26.000   5.553
 9132POPC   PO453064  18.289  26.040   5.853
 9132POPC   GL153065  18.301  26.061   6.153
 9132POPC   GL253066  18.310  25.931   6.153
 9132POPC   C1A53067  18.328  26.031   6.453
 9132POPC   D2A53068  18.261  26.019   6.753
 9132POPC   C3A53069  18.329  26.052   7.053
 9132POPC   C4A53070  18.314  26.056   7.353
 9132POPC   C1B53071  18.226  25.790   6.453
 9132POPC   C2B53072  18.289  25.839   6.753
 9132POPC   C3B53073  18.260  25.824   7.053
 9132POPC   C4B53074  18.307  25.745   7.353
 9133POPC   NC353075  20.574  32.207   5.553
 9133POPC   PO453076  20.585  32.296   5.853
 9133POPC   GL153077  20.593  32.216   6.153
 9133POPC   GL253078  20.661  32.175   6.153
 9133POPC   C1A53079  20.575  32.271   6.453
 9133POPC   D2A53080  20.651  32.234   6.753
 9133POPC   C3A53081  20.576  32.211   7.053
 9133POPC   C4A53082  20.612  32.250   7.353
 9133POPC   C1B53083  20.638  32.045   6.453
 9133POPC   C2B53084  20.627  32.033   6.753
 9133POPC   C3B53085  20.669  31.965   7.053
 9133POPC   C4B53086  20.676  31.966   7.353
 9134POPC   NC353087  23.738  17.528   5.553
 9134POPC   PO453088  23.680  17.498   5.853
 9134POPC   GL153089  23.689  17.461   6.153
 9134POPC   GL253090  23.800  17.446   6.153
 9134POPC   C1A53091  23.730  17.477   6.453
 9134POPC   D2A53092  23.675  17.542   6.753
 9134POPC   C3A53093  23.729  17.541   7.053
 9134POPC   C4A53094  23.753  17.482   7.353
 9134POPC   C1B53095  23.988  17.491   6.453
 9134POPC   C2B53096  23.959  17.437   6.753
 9134POPC   C3B53097  24.010  17.481   7.053
 9134POPC   C4B53098  23.926  17.457   7.353
 9135POPC   NC353099   3.578  35.340   5.553
 9135POPC   PO453100   3.542  35.381   5.853
 9135POPC   GL153101   3.566  35.370   6.153
 9135POPC   GL253102   3.447  35.357   6.153
 9135POPC   C1A53103   3.537  35.375   6.453
 9135POPC   D2A53104   3.563  35.356   6.753
 9135POPC   C3A53105   3.544  35.361   7.053
 9135POPC   C4A53106   3.556  35.345   7.353
 9135POPC   C1B53107   3.317  35.450   6.453
 9135POPC   C2B53108   3.306  35.410   6.753
 9135POPC   C3B53109   3.315  35.427   7.053
 9135POPC   C4B53110   3.307  35.402   7.353
 9136POPC   NC353111   8.977  31.519   5.553
 9136POPC   PO453112   8.958  31.481   5.853
 9136POPC   GL153113   8.949  31.507   6.153
 9136POPC   GL253114   9.050  31.429   6.153
 9136POPC   C1A53115   9.018  31.494   6.453
 9136POPC   D2A53116   8.960  31.515   6.753
 9136POPC   C3A53117   8.974  31.482   7.053
 9136POPC   C4A53118   9.015  31.463   7.353
 9136POPC   C1B53119   9.255  31.418   6.453
 9136POPC   C2B53120   9.215  31.417   6.753
 9136POPC   C3B53121   9.216  31.448   7.053
 9136POPC   C4B53122   9.265  31.403   7.353
 9137POPC   NC353123   3.587  12.867   5.553
 9137POPC   PO453124   3.539  12.897   5.853
 9137POPC   GL153125   3.500  12.830   6.153
 9137POPC   GL253126   3.488  12.998   6.153
 9137POPC   C1A53127   3.555  12.817   6.453
 9137POPC   D2A53128   3.510  12.809   6.753
 9137POPC   C3A53129   3.515  12.872   7.053
 9137POPC   C4A53130   3.559  12.881   7.353
 9137POPC   C1B53131   3.508  13.077   6.453
 9137POPC   C2B53132   3.481  13.050   6.753
 9137POPC   C3B53133   3.459  13.065   7.053
 9137POPC   C4B53134   3.522  13.134   7.353
 9138POPC   NC353135   6.603  41.543   5.553
 9138POPC   PO453136   6.676  41.524   5.853
 9138POPC   GL153137   6.616  41.550   6.153
 9138POPC   GL253138   6.791  41.545   6.153
 9138POPC   C1A53139   6.667  41.555   6.453
 9138POPC   D2A53140   6.661  41.557   6.753
 9138POPC   C3A53141   6.654  41.526   7.053
 9138POPC   C4A53142   6.631  41.601   7.353
 9138POPC   C1B53143   6.844  41.556   6.453
 9138POPC   C2B53144   6.935  41.568   6.753
 9138POPC   C3B53145   6.915  41.555   7.053
 9138POPC   C4B53146   6.909  41.532   7.353
 9139POPC   NC353147  30.681   1.169   5.553
 9139POPC   PO453148  30.693   1.219   5.853
 9139POPC   GL153149  30.698   1.176   6.153
 9139POPC   GL253150  30.713   1.095   6.153
 9139POPC   C1A53151  30.745   1.210   6.453
 9139POPC   D2A53152  30.740   1.182   6.753
 9139POPC   C3A53153  30.671   1.165   7.053
 9139POPC   C4A53154  30.693   1.200   7.353
 9139POPC   C1B53155  30.815   1.022   6.453
 9139POPC   C2B53156  30.826   0.968   6.753
 9139POPC   C3B53157  30.799   0.945   7.053
 9139POPC   C4B53158  30.793   0.951   7.353
 9140POPC   NC353159  12.065  29.140   5.553
 9140POPC   PO453160  12.111  29.175   5.853
 9140POPC   GL153161  12.081  29.121   6.153
 9140POPC   GL253162  12.026  29.043   6.153
 9140POPC   C1A53163  12.093  29.140   6.453
 9140POPC   D2A53164  12.116  29.138   6.753
 9140POPC   C3A53165  12.097  29.120   7.053
 9140POPC   C4A53166  12.051  29.119   7.353
 9140POPC   C1B53167  12.039  28.907   6.453
 9140POPC   C2B53168  12.053  28.865   6.753
 9140POPC   C3B53169  12.019  28.890   7.053
 9140POPC   C4B53170  12.091  28.934   7.353
 9141POPC   NC353171  28.354  29.181   5.553
 9141POPC   PO453172  28.381  29.179   5.853
 9141POPC   GL153173  28.383  29.131   6.153
 9141POPC   GL253174  28.518  29.197   6.153
 9141POPC   C1A53175  28.372  29.172   6.453
 9141POPC   D2A53176  28.337  29.102   6.753
 9141POPC   C3A53177  28.388  29.122   7.053
 9141POPC   C4A53178  28.336  29.181   7.353
 9141POPC   C1B53179  28.624  29.184   6.453
 9141POPC   C2B53180  28.613  29.162   6.753
 9141POPC   C3B53181  28.614  29.208   7.053
 9141POPC   C4B53182  28.572  29.211   7.353
 9142POPC   NC353183  24.509   8.243   5.553
 9142POPC   PO453184  24.526   8.205   5.853
 9142POPC   GL153185  24.479   8.232   6.153
 9142POPC   GL253186  24.611   8.290   6.153
 9142POPC   C1A53187  24.532   8.174   6.453
 9142POPC   D2A53188  24.440   8.149   6.753
 9142POPC   C3A53189  24.496   8.205   7.053
 9142POPC   C4A53190  24.503   8.216   7.353
 9142POPC   C1B53191  24.663   8.331   6.453
 9142POPC   C2B53192  24.642   8.349   6.753
 9142POPC   C3B53193  24.687   8.335   7.053
 9142POPC   C4B53194  24.661   8.403   7.353
 9143POPC   NC353195  12.097   2.802   5.553
 9143POPC   PO453196  12.072   2.736   5.853
 9143POPC   GL153197  12.120   2.797   6.153
 9143POPC   GL253198  12.132   2.699   6.153
 9143POPC   C1A53199  12.117   2.773   6.453
 9143POPC   D2A53200  12.048   2.794   6.753
 9143POPC   C3A53201  12.081   2.784   7.053
 9143POPC   C4A53202  12.075   2.742   7.353
 9143POPC   C1B53203  12.212   2.585   6.453
 9143POPC   C2B53204  12.195   2.525   6.753
 9143POPC   C3B53205  12.185   2.605   7.053
 9143POPC   C4B53206  12.244   2.545   7.353
 9144POPC   NC353207   9.750  12.034   5.553
 9144POPC   PO453208   9.775  12.072   5.853
 9144POPC   GL153209   9.785  12.047   6.153
 9144POPC   GL253210   9.633  12.085   6.153
 9144POPC   C1A53211   9.787  12.104   6.453
 9144POPC   D2A53212   9.795  12.095   6.753
 9144POPC   C3A53213   9.746  12.085   7.053
 9144POPC   C4A53214   9.722  12.050   7.353
 9144POPC   C1B53215   9.518  12.019   6.453
 9144POPC   C2B53216   9.528  12.018   6.753
 9144POPC   C3B53217   9.546  11.987   7.053
 9144POPC   C4B53218   9.544  12.011   7.353
 9145POPC   NC353219   0.417  23.682   5.553
 9145POPC   PO453220   0.422  23.723   5.853
 9145POPC   GL153221   0.416  23.741   6.153
 9145POPC   GL253222   0.470  23.633   6.153
 9145POPC   C1A53223   0.392  23.719   6.453
 9145POPC   D2A53224   0.444  23.747   6.753
 9145POPC   C3A53225   0.463  23.748   7.053
 9145POPC   C4A53226   0.459  23.745   7.353
 9145POPC   C1B53227   0.517  23.433   6.453
 9145POPC   C2B53228   0.551  23.466   6.753
 9145POPC   C3B53229   0.539  23.514   7.053
 9145POPC   C4B53230   0.502  23.522   7.353
 9146POPC   NC353231  19.072  40.013   5.553
 9146POPC   PO453232  19.093  39.966   5.853
 9146POPC   GL153233  19.094  39.963   6.153
 9146POPC   GL253234  18.903  39.910   6.153
 9146POPC   C1A53235  19.071  40.006   6.453
 9146POPC   D2A53236  19.021  39.965   6.753
 9146POPC   C3A53237  19.072  40.036   7.053
 9146POPC   C4A53238  19.107  39.980   7.353
 9146POPC   C1B53239  18.852  39.859   6.453
 9146POPC   C2B53240  18.829  39.852   6.753
 9146POPC   C3B53241  18.876  39.908   7.053
 9146POPC   C4B53242  18.859  39.867   7.353
 9147POPC   NC353243  43.083  19.841   5.553
 9147POPC   PO453244  43.072  19.812   5.853
 9147POPC   GL153245  43.076  19.833   6.153
 9147POPC   GL253246  43.247  19.949   6.153
 9147POPC   C1A53247  43.158  19.787   6.453
 9147POPC   D2A53248  43.125  19.848   6.753
 9147POPC   C3A53249  43.147  19.859   7.053
 9147POPC   C4A53250  43.076  19.859   7.353
 9147POPC   C1B53251  43.279  20.008   6.453
 9147POPC   C2B53252  43.281  19.994   6.753
 9147POPC   C3B53253  43.284  20.006   7.053
 9147POPC   C4B53254  43.352  19.956   7.353
 9148POPC   NC353255  21.393  19.866   5.553
 9148POPC   PO453256  21.369  19.806   5.853
 9148POPC   GL153257  21.356  19.855   6.153
 9148POPC   GL253258  21.382  19.681   6.153
 9148POPC   C1A53259  21.339  19.806   6.453
 9148POPC   D2A53260  21.364  19.842   6.753
 9148POPC   C3A53261  21.366  19.788   7.053
 9148POPC   C4A53262  21.346  19.834   7.353
 9148POPC   C1B53263  21.472  19.584   6.453
 9148POPC   C2B53264  21.410  19.642   6.753
 9148POPC   C3B53265  21.480  19.574   7.053
 9148POPC   C4B53266  21.493  19.589   7.353
 9149POPC   NC353267  14.431  41.549   5.553
 9149POPC   PO453268  14.390  41.580   5.853
 9149POPC   GL153269  14.375  41.537   6.153
 9149POPC   GL253270  14.399  41.456   6.153
 9149POPC   C1A53271  14.363  41.523   6.453
 9149POPC   D2A53272  14.439  41.526   6.753
 9149POPC   C3A53273  14.426  41.522   7.053
 9149POPC   C4A53274  14.382  41.530   7.353
 9149POPC   C1B53275  14.394  41.289   6.453
 9149POPC   C2B53276  14.414  41.322   6.753
 9149POPC   C3B53277  14.407  41.267   7.053
 9149POPC   C4B53278  14.338  41.313   7.353
 9150POPC   NC353279   5.894   2.799   5.553
 9150POPC   PO453280   5.841   2.759   5.853
 9150POPC   GL153281   5.905   2.731   6.153
 9150POPC   GL253282   5.909   2.602   6.153
 9150POPC   C1A53283   5.901   2.732   6.453
 9150POPC   D2A53284   5.843   2.802   6.753
 9150POPC   C3A53285   5.904   2.722   7.053
 9150POPC   C4A53286   5.820   2.791   7.353
 9150POPC   C1B53287   5.873   2.503   6.453
 9150POPC   C2B53288   5.879   2.541   6.753
 9150POPC   C3B53289   5.879   2.563   7.053
 9150POPC   C4B53290   5.882   2.485   7.353
 9151POPC   NC353291  12.870  44.667   5.553
 9151POPC   PO453292  12.839  44.703   5.853
 9151POPC   GL153293  12.827  44.679   6.153
 9151POPC   GL253294  12.838  44.804   6.153
 9151POPC   C1A53295  12.883  44.708   6.453
 9151POPC   D2A53296  12.809  44.673   6.753
 9151POPC   C3A53297  12.825  44.616   7.053
 9151POPC   C4A53298  12.827  44.669   7.353
 9151POPC   C1B53299  12.907  44.898   6.453
 9151POPC   C2B53300  12.883  44.940   6.753
 9151POPC   C3B53301  12.875  44.957   7.053
 9151POPC   C4B53302  12.889  44.908   7.353
 9152POPC   NC353303  39.262   5.101   5.553
 9152POPC   PO453304  39.259   5.127   5.853
 9152POPC   GL153305  39.279   5.054   6.153
 9152POPC   GL253306  39.352   5.090   6.153
 9152POPC   C1A53307  39.191   5.106   6.453
 9152POPC   D2A53308  39.274   5.069   6.753
 9152POPC   C3A53309  39.222   5.100   7.053
 9152POPC   C4A53310  39.260   5.079   7.353
 9152POPC   C1B53311  39.449   5.099   6.453
 9152POPC   C2B53312  39.448   5.145   6.753
 9152POPC   C3B53313  39.471   5.123   7.053
 9152POPC   C4B53314  39.478   5.095   7.353
 9153POPC   NC353315  43.125  27.623   5.553
 9153POPC   PO453316  43.083  27.546   5.853
 9153POPC   GL153317  43.120  27.643   6.153
 9153POPC   GL253318  43.141  27.687   6.153
 9153POPC   C1A53319  43.116  27.571   6.453
 9153POPC   D2A53320  43.079  27.576   6.753
 9153POPC   C3A53321  43.066  27.638   7.053
 9153POPC   C4A53322  43.062  27.598   7.353
 9153POPC   C1B53323  43.153  27.880   6.453
 9153POPC   C2B53324  43.212  27.860   6.753
 9153POPC   C3B53325  43.139  27.837   7.053
 9153POPC   C4B53326  43.197  27.828   7.353
 9154POPC   NC353327  26.791  15.226   5.553
 9154POPC   PO453328  26.779  15.139   5.853
 9154POPC   GL153329  26.767  15.142   6.153
 9154POPC   GL253330  26.777  15.076   6.153
 9154POPC   C1A53331  26.798  15.144   6.453
 9154POPC   D2A53332  26.837  15.173   6.753
 9154POPC   C3A53333  26.793  15.153   7.053
 9154POPC   C4A53334  26.853  15.209   7.353
 9154POPC   C1B53335  26.815  14.947   6.453
 9154POPC   C2B53336  26.748  14.917   6.753
 9154POPC   C3B53337  26.784  14.886   7.053
 9154POPC   C4B53338  26.817  14.889   7.353
 9155POPC   NC353339  38.408  20.573   5.553
 9155POPC   PO453340  38.424  20.620   5.853
 9155POPC   GL153341  38.491  20.608   6.153
 9155POPC   GL253342  38.447  20.523   6.153
 9155POPC   C1A53343  38.442  20.600   6.453
 9155POPC   D2A53344  38.447  20.600   6.753
 9155POPC   C3A53345  38.441  20.622   7.053
 9155POPC   C4A53346  38.435  20.564   7.353
 9155POPC   C1B53347  38.459  20.367   6.453
 9155POPC   C2B53348  38.531  20.401   6.753
 9155POPC   C3B53349  38.502  20.332   7.053
 9155POPC   C4B53350  38.520  20.393   7.353
 9156POPC   NC353351   0.432   4.296   5.553
 9156POPC   PO453352   0.418   4.347   5.853
 9156POPC   GL153353   0.401   4.346   6.153
 9156POPC   GL253354   0.365   4.204   6.153
 9156POPC   C1A53355   0.452   4.365   6.453
 9156POPC   D2A53356   0.422   4.310   6.753
 9156POPC   C3A53357   0.480   4.275   7.053
 9156POPC   C4A53358   0.479   4.332   7.353
 9156POPC   C1B53359   0.319   4.091   6.453
 9156POPC   C2B53360   0.321   4.137   6.753
 9156POPC   C3B53361   0.266   4.086   7.053
 9156POPC   C4B53362   0.343   4.112   7.353
 9157POPC   NC353363   6.626   4.295   5.553
 9157POPC   PO453364   6.623   4.303   5.853
 9157POPC   GL153365   6.613   4.284   6.153
 9157POPC   GL253366   6.726   4.197   6.153
 9157POPC   C1A53367   6.605   4.284   6.453
 9157POPC   D2A53368   6.619   4.269   6.753
 9157POPC   C3A53369   6.631   4.321   7.053
 9157POPC   C4A53370   6.669   4.330   7.353
 9157POPC   C1B53371   6.879   4.142   6.453
 9157POPC   C2B53372   6.881   4.127   6.753
 9157POPC   C3B53373   6.797   4.102   7.053
 9157POPC   C4B53374   6.845   4.150   7.353
 9158POPC   NC353375  19.872  39.278   5.553
 9158POPC   PO453376  19.852  39.260   5.853
 9158POPC   GL153377  19.860  39.278   6.153
 9158POPC   GL253378  19.841  39.368   6.153
 9158POPC   C1A53379  19.786  39.280   6.453
 9158POPC   D2A53380  19.865  39.276   6.753
 9158POPC   C3A53381  19.868  39.187   7.053
 9158POPC   C4A53382  19.824  39.224   7.353
 9158POPC   C1B53383  19.715  39.467   6.453
 9158POPC   C2B53384  19.736  39.516   6.753
 9158POPC   C3B53385  19.802  39.442   7.053
 9158POPC   C4B53386  19.771  39.503   7.353
 9159POPC   NC353387  33.848  34.610   5.553
 9159POPC   PO453388  33.800  34.530   5.853
 9159POPC   GL153389  33.809  34.526   6.153
 9159POPC   GL253390  33.701  34.704   6.153
 9159POPC   C1A53391  33.765  34.613   6.453
 9159POPC   D2A53392  33.833  34.616   6.753
 9159POPC   C3A53393  33.847  34.576   7.053
 9159POPC   C4A53394  33.822  34.572   7.353
 9159POPC   C1B53395  33.646  34.728   6.453
 9159POPC   C2B53396  33.574  34.787   6.753
 9159POPC   C3B53397  33.661  34.731   7.053
 9159POPC   C4B53398  33.602  34.733   7.353
 9160POPC   NC353399   1.970  38.457   5.553
 9160POPC   PO453400   1.950  38.440   5.853
 9160POPC   GL153401   1.986  38.442   6.153
 9160POPC   GL253402   1.968  38.308   6.153
 9160POPC   C1A53403   1.984  38.482   6.453
 9160POPC   D2A53404   1.973  38.447   6.753
 9160POPC   C3A53405   1.983  38.463   7.053
 9160POPC   C4A53406   1.963  38.439   7.353
 9160POPC   C1B53407   2.067  38.186   6.453
 9160POPC   C2B53408   1.996  38.232   6.753
 9160POPC   C3B53409   1.988  38.247   7.053
 9160POPC   C4B53410   2.064  38.206   7.353
 9161POPC   NC353411  44.661  33.779   5.553
 9161POPC   PO453412  44.665  33.840   5.853
 9161POPC   GL153413  44.687  33.823   6.153
 9161POPC   GL253414  44.788  33.717   6.153
 9161POPC   C1A53415  44.616  33.757   6.453
 9161POPC   D2A53416  44.702  33.793   6.753
 9161POPC   C3A53417  44.632  33.819   7.053
 9161POPC   C4A53418  44.697  33.787   7.353
 9161POPC   C1B53419  44.875  33.708   6.453
 9161POPC   C2B53420  44.906  33.698   6.753
 9161POPC   C3B53421  44.875  33.747   7.053
 9161POPC   C4B53422  44.895  33.684   7.353
 9162POPC   NC353423  20.640  38.415   5.553
 9162POPC   PO453424  20.645  38.431   5.853
 9162POPC   GL153425  20.606  38.422   6.153
 9162POPC   GL253426  20.624  38.367   6.153
 9162POPC   C1A53427  20.648  38.436   6.453
 9162POPC   D2A53428  20.625  38.415   6.753
 9162POPC   C3A53429  20.582  38.498   7.053
 9162POPC   C4A53430  20.567  38.424   7.353
 9162POPC   C1B53431  20.708  38.259   6.453
 9162POPC   C2B53432  20.694  38.244   6.753
 9162POPC   C3B53433  20.756  38.241   7.053
 9162POPC   C4B53434  20.725  38.285   7.353
 9163POPC   NC353435  40.826  29.153   5.553
 9163POPC   PO453436  40.819  29.141   5.853
 9163POPC   GL153437  40.822  29.119   6.153
 9163POPC   GL253438  40.627  29.136   6.153
 9163POPC   C1A53439  40.823  29.184   6.453
 9163POPC   D2A53440  40.820  29.115   6.753
 9163POPC   C3A53441  40.789  29.186   7.053
 9163POPC   C4A53442  40.818  29.112   7.353
 9163POPC   C1B53443  40.504  29.069   6.453
 9163POPC   C2B53444  40.524  29.081   6.753
 9163POPC   C3B53445  40.562  29.159   7.053
 9163POPC   C4B53446  40.521  29.148   7.353
 9164POPC   NC353447   5.080  30.742   5.553
 9164POPC   PO453448   5.047  30.709   5.853
 9164POPC   GL153449   5.080  30.718   6.153
 9164POPC   GL253450   5.004  30.631   6.153
 9164POPC   C1A53451   5.069  30.682   6.453
 9164POPC   D2A53452   5.068  30.730   6.753
 9164POPC   C3A53453   5.044  30.716   7.053
 9164POPC   C4A53454   5.137  30.709   7.353
 9164POPC   C1B53455   4.968  30.435   6.453
 9164POPC   C2B53456   5.012  30.505   6.753
 9164POPC   C3B53457   4.953  30.476   7.053
 9164POPC   C4B53458   4.981  30.529   7.353
 9165POPC   NC353459   7.389  35.304   5.553
 9165POPC   PO453460   7.382  35.380   5.853
 9165POPC   GL153461   7.420  35.390   6.153
 9165POPC   GL253462   7.338  35.284   6.153
 9165POPC   C1A53463   7.393  35.314   6.453
 9165POPC   D2A53464   7.414  35.354   6.753
 9165POPC   C3A53465   7.451  35.302   7.053
 9165POPC   C4A53466   7.427  35.375   7.353
 9165POPC   C1B53467   7.179  35.259   6.453
 9165POPC   C2B53468   7.209  35.281   6.753
 9165POPC   C3B53469   7.195  35.218   7.053
 9165POPC   C4B53470   7.225  35.269   7.353
 9166POPC   NC353471  32.983  33.828   5.553
 9166POPC   PO453472  33.064  33.753   5.853
 9166POPC   GL153473  33.009  33.825   6.153
 9166POPC   GL253474  33.009  33.654   6.153
 9166POPC   C1A53475  32.999  33.804   6.453
 9166POPC   D2A53476  33.001  33.825   6.753
 9166POPC   C3A53477  33.069  33.844   7.053
 9166POPC   C4A53478  32.998  33.830   7.353
 9166POPC   C1B53479  32.959  33.591   6.453
 9166POPC   C2B53480  32.946  33.535   6.753
 9166POPC   C3B53481  32.926  33.534   7.053
 9166POPC   C4B53482  32.918  33.608   7.353
 9167POPC   NC353483  14.432  17.466   5.553
 9167POPC   PO453484  14.403  17.512   5.853
 9167POPC   GL153485  14.400  17.484   6.153
 9167POPC   GL253486  14.459  17.579   6.153
 9167POPC   C1A53487  14.360  17.487   6.453
 9167POPC   D2A53488  14.397  17.477   6.753
 9167POPC   C3A53489  14.428  17.541   7.053
 9167POPC   C4A53490  14.367  17.532   7.353
 9167POPC   C1B53491  14.446  17.752   6.453
 9167POPC   C2B53492  14.516  17.707   6.753
 9167POPC   C3B53493  14.513  17.731   7.053
 9167POPC   C4B53494  14.483  17.744   7.353
 9168POPC   NC353495  35.374  32.292   5.553
 9168POPC   PO453496  35.339  32.276   5.853
 9168POPC   GL153497  35.317  32.208   6.153
 9168POPC   GL253498  35.198  32.291   6.153
 9168POPC   C1A53499  35.369  32.249   6.453
 9168POPC   D2A53500  35.397  32.245   6.753
 9168POPC   C3A53501  35.314  32.289   7.053
 9168POPC   C4A53502  35.364  32.215   7.353
 9168POPC   C1B53503  35.069  32.348   6.453
 9168POPC   C2B53504  35.144  32.322   6.753
 9168POPC   C3B53505  35.072  32.362   7.053
 9168POPC   C4B53506  35.148  32.380   7.353
 9169POPC   NC353507  23.685  34.620   5.553
 9169POPC   PO453508  23.699  34.579   5.853
 9169POPC   GL153509  23.691  34.579   6.153
 9169POPC   GL253510  23.882  34.574   6.153
 9169POPC   C1A53511  23.727  34.564   6.453
 9169POPC   D2A53512  23.757  34.571   6.753
 9169POPC   C3A53513  23.730  34.577   7.053
 9169POPC   C4A53514  23.693  34.619   7.353
 9169POPC   C1B53515  23.988  34.673   6.453
 9169POPC   C2B53516  23.978  34.665   6.753
 9169POPC   C3B53517  23.998  34.675   7.053
 9169POPC   C4B53518  23.913  34.637   7.353
 9170POPC   NC353519  42.368  20.623   5.553
 9170POPC   PO453520  42.293  20.629   5.853
 9170POPC   GL153521  42.340  20.611   6.153
 9170POPC   GL253522  42.460  20.529   6.153
 9170POPC   C1A53523  42.356  20.584   6.453
 9170POPC   D2A53524  42.380  20.564   6.753
 9170POPC   C3A53525  42.339  20.659   7.053
 9170POPC   C4A53526  42.308  20.563   7.353
 9170POPC   C1B53527  42.573  20.432   6.453
 9170POPC   C2B53528  42.555  20.470   6.753
 9170POPC   C3B53529  42.547  20.401   7.053
 9170POPC   C4B53530  42.557  20.446   7.353
 9171POPC   NC353531  32.227  37.682   5.553
 9171POPC   PO453532  32.254  37.683   5.853
 9171POPC   GL153533  32.225  37.687   6.153
 9171POPC   GL253534  32.394  37.633   6.153
 9171POPC   C1A53535  32.228  37.642   6.453
 9171POPC   D2A53536  32.297  37.669   6.753
 9171POPC   C3A53537  32.217  37.672   7.053
 9171POPC   C4A53538  32.262  37.719   7.353
 9171POPC   C1B53539  32.431  37.512   6.453
 9171POPC   C2B53540  32.495  37.541   6.753
 9171POPC   C3B53541  32.491  37.583   7.053
 9171POPC   C4B53542  32.462  37.510   7.353
 9172POPC   NC353543  36.144  17.511   5.553
 9172POPC   PO453544  36.134  17.462   5.853
 9172POPC   GL153545  36.135  17.472   6.153
 9172POPC   GL253546  36.125  17.644   6.153
 9172POPC   C1A53547  36.141  17.556   6.453
 9172POPC   D2A53548  36.137  17.532   6.753
 9172POPC   C3A53549  36.154  17.549   7.053
 9172POPC   C4A53550  36.170  17.520   7.353
 9172POPC   C1B53551  36.156  17.805   6.453
 9172POPC   C2B53552  36.169  17.792   6.753
 9172POPC   C3B53553  36.171  17.782   7.053
 9172POPC   C4B53554  36.101  17.758   7.353
 9173POPC   NC353555   4.273  36.929   5.553
 9173POPC   PO453556   4.285  36.856   5.853
 9173POPC   GL153557   4.270  36.936   6.153
 9173POPC   GL253558   4.366  36.745   6.153
 9173POPC   C1A53559   4.337  36.896   6.453
 9173POPC   D2A53560   4.272  36.894   6.753
 9173POPC   C3A53561   4.317  36.859   7.053
 9173POPC   C4A53562   4.306  36.889   7.353
 9173POPC   C1B53563   4.385  36.672   6.453
 9173POPC   C2B53564   4.405  36.686   6.753
 9173POPC   C3B53565   4.426  36.702   7.053
 9173POPC   C4B53566   4.401  36.669   7.353
 9174POPC   NC353567  19.863  37.682   5.553
 9174POPC   PO453568  19.802  37.698   5.853
 9174POPC   GL153569  19.877  37.642   6.153
 9174POPC   GL253570  19.757  37.745   6.153
 9174POPC   C1A53571  19.862  37.690   6.453
 9174POPC   D2A53572  19.832  37.704   6.753
 9174POPC   C3A53573  19.839  37.714   7.053
 9174POPC   C4A53574  19.881  37.661   7.353
 9174POPC   C1B53575  19.630  37.813   6.453
 9174POPC   C2B53576  19.577  37.789   6.753
 9174POPC   C3B53577  19.630  37.795   7.053
 9174POPC   C4B53578  19.652  37.743   7.353
 9175POPC   NC353579  15.193  31.515   5.553
 9175POPC   PO453580  15.136  31.473   5.853
 9175POPC   GL153581  15.151  31.463   6.153
 9175POPC   GL253582  15.286  31.361   6.153
 9175POPC   C1A53583  15.214  31.476   6.453
 9175POPC   D2A53584  15.159  31.514   6.753
 9175POPC   C3A53585  15.134  31.513   7.053
 9175POPC   C4A53586  15.164  31.472   7.353
 9175POPC   C1B53587  15.353  31.360   6.453
 9175POPC   C2B53588  15.370  31.344   6.753
 9175POPC   C3B53589  15.325  31.308   7.053
 9175POPC   C4B53590  15.367  31.269   7.353
 9176POPC   NC353591  29.917   5.884   5.553
 9176POPC   PO453592  29.917   5.858   5.853
 9176POPC   GL153593  29.884   5.845   6.153
 9176POPC   GL253594  30.032   5.785   6.153
 9176POPC   C1A53595  29.894   5.875   6.453
 9176POPC   D2A53596  29.897   5.840   6.753
 9176POPC   C3A53597  29.969   5.881   7.053
 9176POPC   C4A53598  29.960   5.888   7.353
 9176POPC   C1B53599  30.118   5.694   6.453
 9176POPC   C2B53600  30.094   5.662   6.753
 9176POPC   C3B53601  30.130   5.653   7.053
 9176POPC   C4B53602  30.089   5.656   7.353
 9177POPC   NC353603  22.165  34.570   5.553
 9177POPC   PO453604  22.204  34.618   5.853
 9177POPC   GL153605  22.132  34.549   6.153
 9177POPC   GL253606  22.235  34.664   6.153
 9177POPC   C1A53607  22.117  34.605   6.453
 9177POPC   D2A53608  22.166  34.603   6.753
 9177POPC   C3A53609  22.118  34.541   7.053
 9177POPC   C4A53610  22.187  34.557   7.353
 9177POPC   C1B53611  22.337  34.775   6.453
 9177POPC   C2B53612  22.336  34.697   6.753
 9177POPC   C3B53613  22.411  34.689   7.053
 9177POPC   C4B53614  22.319  34.677   7.353
 9178POPC   NC353615  38.446  13.605   5.553
 9178POPC   PO453616  38.432  13.588   5.853
 9178POPC   GL153617  38.450  13.674   6.153
 9178POPC   GL253618  38.523  13.711   6.153
 9178POPC   C1A53619  38.485  13.640   6.453
 9178POPC   D2A53620  38.414  13.590   6.753
 9178POPC   C3A53621  38.434  13.608   7.053
 9178POPC   C4A53622  38.475  13.587   7.353
 9178POPC   C1B53623  38.538  13.898   6.453
 9178POPC   C2B53624  38.568  13.916   6.753
 9178POPC   C3B53625  38.538  13.866   7.053
 9178POPC   C4B53626  38.513  13.861   7.353
 9179POPC   NC353627  32.204   1.940   5.553
 9179POPC   PO453628  32.249   1.952   5.853
 9179POPC   GL153629  32.239   2.036   6.153
 9179POPC   GL253630  32.314   2.137   6.153
 9179POPC   C1A53631  32.209   2.023   6.453
 9179POPC   D2A53632  32.232   2.021   6.753
 9179POPC   C3A53633  32.252   1.956   7.053
 9179POPC   C4A53634  32.233   2.009   7.353
 9179POPC   C1B53635  32.281   2.210   6.453
 9179POPC   C2B53636  32.348   2.202   6.753
 9179POPC   C3B53637  32.330   2.244   7.053
 9179POPC   C4B53638  32.290   2.277   7.353
 9180POPC   NC353639   4.271  18.287   5.553
 9180POPC   PO453640   4.320  18.326   5.853
 9180POPC   GL153641   4.309  18.323   6.153
 9180POPC   GL253642   4.233  18.322   6.153
 9180POPC   C1A53643   4.316  18.241   6.453
 9180POPC   D2A53644   4.343  18.246   6.753
 9180POPC   C3A53645   4.298  18.326   7.053
 9180POPC   C4A53646   4.360  18.311   7.353
 9180POPC   C1B53647   4.032  18.341   6.453
 9180POPC   C2B53648   4.092  18.355   6.753
 9180POPC   C3B53649   4.041  18.354   7.053
 9180POPC   C4B53650   4.098  18.353   7.353
 9181POPC   NC353651  10.499  16.000   5.553
 9181POPC   PO453652  10.559  15.998   5.853
 9181POPC   GL153653  10.498  15.968   6.153
 9181POPC   GL253654  10.550  15.868   6.153
 9181POPC   C1A53655  10.487  15.962   6.453
 9181POPC   D2A53656  10.501  15.991   6.753
 9181POPC   C3A53657  10.555  15.973   7.053
 9181POPC   C4A53658  10.498  15.981   7.353
 9181POPC   C1B53659  10.602  15.699   6.453
 9181POPC   C2B53660  10.555  15.708   6.753
 9181POPC   C3B53661  10.587  15.722   7.053
 9181POPC   C4B53662  10.564  15.683   7.353
 9182POPC   NC353663  21.436  23.719   5.553
 9182POPC   PO453664  21.412  23.694   5.853
 9182POPC   GL153665  21.382  23.745   6.153
 9182POPC   GL253666  21.489  23.625   6.153
 9182POPC   C1A53667  21.378  23.744   6.453
 9182POPC   D2A53668  21.358  23.672   6.753
 9182POPC   C3A53669  21.414  23.701   7.053
 9182POPC   C4A53670  21.367  23.729   7.353
 9182POPC   C1B53671  21.540  23.521   6.453
 9182POPC   C2B53672  21.542  23.491   6.753
 9182POPC   C3B53673  21.525  23.553   7.053
 9182POPC   C4B53674  21.529  23.508   7.353
 9183POPC   NC353675   8.176  29.101   5.553
 9183POPC   PO453676   8.187  29.178   5.853
 9183POPC   GL153677   8.163  29.154   6.153
 9183POPC   GL253678   8.080  29.146   6.153
 9183POPC   C1A53679   8.192  29.147   6.453
 9183POPC   D2A53680   8.165  29.103   6.753
 9183POPC   C3A53681   8.240  29.182   7.053
 9183POPC   C4A53682   8.213  29.166   7.353
 9183POPC   C1B53683   7.942  29.107   6.453
 9183POPC   C2B53684   7.956  29.069   6.753
 9183POPC   C3B53685   7.934  29.113   7.053
 9183POPC   C4B53686   7.938  29.056   7.353
 9184POPC   NC353687  23.683  16.720   5.553
 9184POPC   PO453688  23.668  16.690   5.853
 9184POPC   GL153689  23.745  16.758   6.153
 9184POPC   GL253690  23.609  16.734   6.153
 9184POPC   C1A53691  23.689  16.707   6.453
 9184POPC   D2A53692  23.684  16.704   6.753
 9184POPC   C3A53693  23.755  16.733   7.053
 9184POPC   C4A53694  23.717  16.765   7.353
 9184POPC   C1B53695  23.512  16.655   6.453
 9184POPC   C2B53696  23.456  16.625   6.753
 9184POPC   C3B53697  23.472  16.704   7.053
 9184POPC   C4B53698  23.443  16.617   7.353
 9185POPC   NC353699  12.125  19.805   5.553
 9185POPC   PO453700  12.039  19.872   5.853
 9185POPC   GL153701  12.122  19.796   6.153
 9185POPC   GL253702  11.966  19.767   6.153
 9185POPC   C1A53703  12.082  19.876   6.453
 9185POPC   D2A53704  12.033  19.833   6.753
 9185POPC   C3A53705  12.101  19.786   7.053
 9185POPC   C4A53706  12.114  19.864   7.353
 9185POPC   C1B53707  11.870  19.668   6.453
 9185POPC   C2B53708  11.900  19.701   6.753
 9185POPC   C3B53709  11.850  19.685   7.053
 9185POPC   C4B53710  11.917  19.691   7.353
 9186POPC   NC353711  44.677  40.797   5.553
 9186POPC   PO453712  44.686  40.820   5.853
 9186POPC   GL153713  44.613  40.737   6.153
 9186POPC   GL253714  44.517  40.772   6.153
 9186POPC   C1A53715  44.620  40.832   6.453
 9186POPC   D2A53716  44.696  40.800   6.753
 9186POPC   C3A53717  44.655  40.775   7.053
 9186POPC   C4A53718  44.682  40.825   7.353
 9186POPC   C1B53719  44.391  40.838   6.453
 9186POPC   C2B53720  44.382  40.804   6.753
 9186POPC   C3B53721  44.416  40.754   7.053
 9186POPC   C4B53722  44.400  40.825   7.353
 9187POPC   NC353723  44.615  23.669   5.553
 9187POPC   PO453724  44.652  23.755   5.853
 9187POPC   GL153725  44.696  23.703   6.153
 9187POPC   GL253726  44.537  23.733   6.153
 9187POPC   C1A53727  44.647  23.698   6.453
 9187POPC   D2A53728  44.671  23.746   6.753
 9187POPC   C3A53729  44.710  23.736   7.053
 9187POPC   C4A53730  44.633  23.744   7.353
 9187POPC   C1B53731  44.473  23.805   6.453
 9187POPC   C2B53732  44.444  23.879   6.753
 9187POPC   C3B53733  44.472  23.844   7.053
 9187POPC   C4B53734  44.451  23.809   7.353
 9188POPC   NC353735  38.456   6.652   5.553
 9188POPC   PO453736  38.438   6.630   5.853
 9188POPC   GL153737  38.493   6.599   6.153
 9188POPC   GL253738  38.495   6.803   6.153
 9188POPC   C1A53739  38.457   6.685   6.453
 9188POPC   D2A53740  38.451   6.676   6.753
 9188POPC   C3A53741  38.503   6.650   7.053
 9188POPC   C4A53742  38.456   6.632   7.353
 9188POPC   C1B53743  38.568   6.878   6.453
 9188POPC   C2B53744  38.558   6.850   6.753
 9188POPC   C3B53745  38.539   6.907   7.053
 9188POPC   C4B53746  38.543   6.855   7.353
 9189POPC   NC353747   3.533  19.105   5.553
 9189POPC   PO453748   3.565  19.083   5.853
 9189POPC   GL153749   3.539  19.065   6.153
 9189POPC   GL253750   3.544  18.901   6.153
 9189POPC   C1A53751   3.526  19.036   6.453
 9189POPC   D2A53752   3.576  19.075   6.753
 9189POPC   C3A53753   3.537  19.083   7.053
 9189POPC   C4A53754   3.530  19.033   7.353
 9189POPC   C1B53755   3.620  18.803   6.453
 9189POPC   C2B53756   3.599  18.864   6.753
 9189POPC   C3B53757   3.549  18.813   7.053
 9189POPC   C4B53758   3.594  18.765   7.353
 9190POPC   NC353759  35.309  15.159   5.553
 9190POPC   PO453760  35.380  15.202   5.853
 9190POPC   GL153761  35.362  15.140   6.153
 9190POPC   GL253762  35.458  15.285   6.153
 9190POPC   C1A53763  35.329  15.216   6.453
 9190POPC   D2A53764  35.336  15.164   6.753
 9190POPC   C3A53765  35.335  15.145   7.053
 9190POPC   C4A53766  35.372  15.201   7.353
 9190POPC   C1B53767  35.545  15.244   6.453
 9190POPC   C2B53768  35.559  15.328   6.753
 9190POPC   C3B53769  35.553  15.286   7.053
 9190POPC   C4B53770  35.620  15.330   7.353
 9191POPC   NC353771  34.624  34.590   5.553
 9191POPC   PO453772  34.569  34.532   5.853
 9191POPC   GL153773  34.564  34.564   6.153
 9191POPC   GL253774  34.690  34.691   6.153
 9191POPC   C1A53775  34.590  34.607   6.453
 9191POPC   D2A53776  34.542  34.607   6.753
 9191POPC   C3A53777  34.529  34.528   7.053
 9191POPC   C4A53778  34.597  34.600   7.353
 9191POPC   C1B53779  34.806  34.787   6.453
 9191POPC   C2B53780  34.776  34.754   6.753
 9191POPC   C3B53781  34.797  34.745   7.053
 9191POPC   C4B53782  34.744  34.762   7.353
 9192POPC   NC353783  29.909  32.999   5.553
 9192POPC   PO453784  29.966  32.981   5.853
 9192POPC   GL153785  29.921  33.066   6.153
 9192POPC   GL253786  29.999  32.938   6.153
 9192POPC   C1A53787  29.960  33.056   6.453
 9192POPC   D2A53788  29.966  33.068   6.753
 9192POPC   C3A53789  29.885  32.994   7.053
 9192POPC   C4A53790  29.873  32.975   7.353
 9192POPC   C1B53791  30.063  32.848   6.453
 9192POPC   C2B53792  30.032  32.788   6.753
 9192POPC   C3B53793  30.084  32.807   7.053
 9192POPC   C4B53794  30.078  32.787   7.353
 9193POPC   NC353795  27.550  32.992   5.553
 9193POPC   PO453796  27.595  32.987   5.853
 9193POPC   GL153797  27.618  32.986   6.153
 9193POPC   GL253798  27.563  32.864   6.153
 9193POPC   C1A53799  27.578  33.002   6.453
 9193POPC   D2A53800  27.627  33.033   6.753
 9193POPC   C3A53801  27.629  33.015   7.053
 9193POPC   C4A53802  27.640  33.066   7.353
 9193POPC   C1B53803  27.556  32.761   6.453
 9193POPC   C2B53804  27.501  32.807   6.753
 9193POPC   C3B53805  27.526  32.784   7.053
 9193POPC   C4B53806  27.537  32.790   7.353
 9194POPC   NC353807  43.082  44.700   5.553
 9194POPC   PO453808  43.123  44.643   5.853
 9194POPC   GL153809  43.107  44.654   6.153
 9194POPC   GL253810  43.001  44.509   6.153
 9194POPC   C1A53811  43.144  44.633   6.453
 9194POPC   D2A53812  43.156  44.623   6.753
 9194POPC   C3A53813  43.087  44.617   7.053
 9194POPC   C4A53814  43.150  44.660   7.353
 9194POPC   C1B53815  42.999  44.412   6.453
 9194POPC   C2B53816  42.946  44.464   6.753
 9194POPC   C3B53817  43.015  44.493   7.053
 9194POPC   C4B53818  42.957  44.451   7.353
 9195POPC   NC353819   8.165  10.493   5.553
 9195POPC   PO453820   8.230  10.572   5.853
 9195POPC   GL153821   8.195  10.565   6.153
 9195POPC   GL253822   8.267  10.353   6.153
 9195POPC   C1A53823   8.192  10.540   6.453
 9195POPC   D2A53824   8.176  10.566   6.753
 9195POPC   C3A53825   8.194  10.485   7.053
 9195POPC   C4A53826   8.213  10.483   7.353
 9195POPC   C1B53827   8.274  10.283   6.453
 9195POPC   C2B53828   8.266  10.328   6.753
 9195POPC   C3B53829   8.232  10.300   7.053
 9195POPC   C4B53830   8.225  10.272   7.353
 9196POPC   NC353831   8.950  38.467   5.553
 9196POPC   PO453832   8.950  38.488   5.853
 9196POPC   GL153833   8.926  38.454   6.153
 9196POPC   GL253834   8.835  38.406   6.153
 9196POPC   C1A53835   8.925  38.502   6.453
 9196POPC   D2A53836   8.998  38.482   6.753
 9196POPC   C3A53837   8.985  38.420   7.053
 9196POPC   C4A53838   9.022  38.462   7.353
 9196POPC   C1B53839   8.717  38.333   6.453
 9196POPC   C2B53840   8.767  38.346   6.753
 9196POPC   C3B53841   8.737  38.293   7.053
 9196POPC   C4B53842   8.723  38.324   7.353
 9197POPC   NC353843  12.849  26.001   5.553
 9197POPC   PO453844  12.818  26.041   5.853
 9197POPC   GL153845  12.857  26.052   6.153
 9197POPC   GL253846  12.953  26.077   6.153
 9197POPC   C1A53847  12.810  26.041   6.453
 9197POPC   D2A53848  12.886  26.086   6.753
 9197POPC   C3A53849  12.886  26.089   7.053
 9197POPC   C4A53850  12.833  26.090   7.353
 9197POPC   C1B53851  13.062  26.159   6.453
 9197POPC   C2B53852  12.993  26.184   6.753
 9197POPC   C3B53853  13.056  26.230   7.053
 9197POPC   C4B53854  12.998  26.217   7.353
 9198POPC   NC353855  42.315  39.990   5.553
 9198POPC   PO453856  42.357  39.959   5.853
 9198POPC   GL153857  42.285  39.979   6.153
 9198POPC   GL253858  42.422  40.118   6.153
 9198POPC   C1A53859  42.312  39.978   6.453
 9198POPC   D2A53860  42.325  39.991   6.753
 9198POPC   C3A53861  42.315  39.974   7.053
 9198POPC   C4A53862  42.327  40.012   7.353
 9198POPC   C1B53863  42.432  40.209   6.453
 9198POPC   C2B53864  42.445  40.188   6.753
 9198POPC   C3B53865  42.409  40.249   7.053
 9198POPC   C4B53866  42.485  40.189   7.353
 9199POPC   NC353867   2.029  25.240   5.553
 9199POPC   PO453868   1.995  25.226   5.853
 9199POPC   GL153869   2.032  25.279   6.153
 9199POPC   GL253870   2.137  25.285   6.153
 9199POPC   C1A53871   1.968  25.293   6.453
 9199POPC   D2A53872   1.993  25.286   6.753
 9199POPC   C3A53873   1.995  25.229   7.053
 9199POPC   C4A53874   1.987  25.272   7.353
 9199POPC   C1B53875   2.208  25.195   6.453
 9199POPC   C2B53876   2.216  25.227   6.753
 9199POPC   C3B53877   2.230  25.244   7.053
 9199POPC   C4B53878   2.269  25.241   7.353
 9200POPC   NC353879  32.264   2.811   5.553
 9200POPC   PO453880  32.227   2.782   5.853
 9200POPC   GL153881  32.268   2.810   6.153
 9200POPC   GL253882  32.182   2.620   6.153
 9200POPC   C1A53883  32.247   2.804   6.453
 9200POPC   D2A53884  32.289   2.784   6.753
 9200POPC   C3A53885  32.291   2.813   7.053
 9200POPC   C4A53886  32.267   2.781   7.353
 9200POPC   C1B53887  32.157   2.513   6.453
 9200POPC   C2B53888  32.176   2.522   6.753
 9200POPC   C3B53889  32.166   2.488   7.053
 9200POPC   C4B53890  32.240   2.498   7.353
 9201POPC   NC353891   5.884   8.153   5.553
 9201POPC   PO453892   5.916   8.164   5.853
 9201POPC   GL153893   5.907   8.180   6.153
 9201POPC   GL253894   5.855   8.288   6.153
 9201POPC   C1A53895   5.856   8.211   6.453
 9201POPC   D2A53896   5.918   8.205   6.753
 9201POPC   C3A53897   5.840   8.162   7.053
 9201POPC   C4A53898   5.841   8.223   7.353
 9201POPC   C1B53899   5.934   8.461   6.453
 9201POPC   C2B53900   5.895   8.430   6.753
 9201POPC   C3B53901   5.951   8.433   7.053
 9201POPC   C4B53902   5.934   8.403   7.353
 9202POPC   NC353903  38.495  16.756   5.553
 9202POPC   PO453904  38.476  16.706   5.853
 9202POPC   GL153905  38.454  16.715   6.153
 9202POPC   GL253906  38.376  16.665   6.153
 9202POPC   C1A53907  38.433  16.728   6.453
 9202POPC   D2A53908  38.430  16.708   6.753
 9202POPC   C3A53909  38.429  16.706   7.053
 9202POPC   C4A53910  38.470  16.724   7.353
 9202POPC   C1B53911  38.231  16.601   6.453
 9202POPC   C2B53912  38.304  16.560   6.753
 9202POPC   C3B53913  38.222  16.568   7.053
 9202POPC   C4B53914  38.255  16.525   7.353
 9203POPC   NC353915  10.476  29.176   5.553
 9203POPC   PO453916  10.501  29.153   5.853
 9203POPC   GL153917  10.545  29.108   6.153
 9203POPC   GL253918  10.546  29.302   6.153
 9203POPC   C1A53919  10.554  29.131   6.453
 9203POPC   D2A53920  10.478  29.180   6.753
 9203POPC   C3A53921  10.474  29.161   7.053
 9203POPC   C4A53922  10.489  29.135   7.353
 9203POPC   C1B53923  10.606  29.404   6.453
 9203POPC   C2B53924  10.683  29.314   6.753
 9203POPC   C3B53925  10.664  29.411   7.053
 9203POPC   C4B53926  10.614  29.376   7.353
 9204POPC   NC353927   6.638  22.145   5.553
 9204POPC   PO453928   6.675  22.140   5.853
 9204POPC   GL153929   6.665  22.126   6.153
 9204POPC   GL253930   6.763  22.166   6.153
 9204POPC   C1A53931   6.624  22.169   6.453
 9204POPC   D2A53932   6.666  22.118   6.753
 9204POPC   C3A53933   6.659  22.157   7.053
 9204POPC   C4A53934   6.611  22.147   7.353
 9204POPC   C1B53935   6.904  22.208   6.453
 9204POPC   C2B53936   6.901  22.217   6.753
 9204POPC   C3B53937   6.919  22.210   7.053
 9204POPC   C4B53938   6.912  22.160   7.353
 9205POPC   NC353939  34.584  17.457   5.553
 9205POPC   PO453940  34.593  17.472   5.853
 9205POPC   GL153941  34.613  17.470   6.153
 9205POPC   GL253942  34.628  17.574   6.153
 9205POPC   C1A53943  34.551  17.496   6.453
 9205POPC   D2A53944  34.613  17.467   6.753
 9205POPC   C3A53945  34.573  17.460   7.053
 9205POPC   C4A53946  34.554  17.488   7.353
 9205POPC   C1B53947  34.726  17.630   6.453
 9205POPC   C2B53948  34.763  17.675   6.753
 9205POPC   C3B53949  34.749  17.719   7.053
 9205POPC   C4B53950  34.792  17.629   7.353
 9206POPC   NC353951  38.496  38.495   5.553
 9206POPC   PO453952  38.493  38.474   5.853
 9206POPC   GL153953  38.417  38.443   6.153
 9206POPC   GL253954  38.536  38.482   6.153
 9206POPC   C1A53955  38.466  38.443   6.453
 9206POPC   D2A53956  38.431  38.468   6.753
 9206POPC   C3A53957  38.450  38.427   7.053
 9206POPC   C4A53958  38.445  38.414   7.353
 9206POPC   C1B53959  38.699  38.469   6.453
 9206POPC   C2B53960  38.680  38.428   6.753
 9206POPC   C3B53961  38.656  38.509   7.053
 9206POPC   C4B53962  38.740  38.447   7.353
 9207POPC   NC353963  36.899   0.476   5.553
 9207POPC   PO453964  36.868   0.421   5.853
 9207POPC   GL153965  36.935   0.448   6.153
 9207POPC   GL253966  37.016   0.337   6.153
 9207POPC   C1A53967  36.916   0.456   6.453
 9207POPC   D2A53968  36.946   0.399   6.753
 9207POPC   C3A53969  36.889   0.435   7.053
 9207POPC   C4A53970  36.918   0.457   7.353
 9207POPC   C1B53971  37.113   0.267   6.453
 9207POPC   C2B53972  37.092   0.271   6.753
 9207POPC   C3B53973  37.143   0.306   7.053
 9207POPC   C4B53974  37.088   0.276   7.353
 9208POPC   NC353975  30.707  33.057   5.553
 9208POPC   PO453976  30.746  33.038   5.853
 9208POPC   GL153977  30.744  33.032   6.153
 9208POPC   GL253978  30.736  32.953   6.153
 9208POPC   C1A53979  30.709  32.980   6.453
 9208POPC   D2A53980  30.702  33.028   6.753
 9208POPC   C3A53981  30.745  32.997   7.053
 9208POPC   C4A53982  30.741  33.060   7.353
 9208POPC   C1B53983  30.889  32.827   6.453
 9208POPC   C2B53984  30.908  32.802   6.753
 9208POPC   C3B53985  30.839  32.831   7.053
 9208POPC   C4B53986  30.830  32.894   7.353
 9209POPC   NC353987  44.634  29.158   5.553
 9209POPC   PO453988  44.616  29.155   5.853
 9209POPC   GL153989  44.621  29.195   6.153
 9209POPC   GL253990  44.773  29.104   6.153
 9209POPC   C1A53991  44.687  29.110   6.453
 9209POPC   D2A53992  44.672  29.133   6.753
 9209POPC   C3A53993  44.678  29.152   7.053
 9209POPC   C4A53994  44.666  29.126   7.353
 9209POPC   C1B53995  44.883  28.991   6.453
 9209POPC   C2B53996  44.848  29.012   6.753
 9209POPC   C3B53997  44.797  28.978   7.053
 9209POPC   C4B53998  44.881  28.950   7.353
 9210POPC   NC353999  42.353  28.382   5.553
 9210POPC   PO454000  42.312  28.382   5.853
 9210POPC   GL154001  42.340  28.393   6.153
 9210POPC   GL254002  42.437  28.439   6.153
 9210POPC   C1A54003  42.361  28.325   6.453
 9210POPC   D2A54004  42.321  28.346   6.753
 9210POPC   C3A54005  42.377  28.335   7.053
 9210POPC   C4A54006  42.300  28.393   7.353
 9210POPC   C1B54007  42.536  28.401   6.453
 9210POPC   C2B54008  42.617  28.436   6.753
 9210POPC   C3B54009  42.597  28.424   7.053
 9210POPC   C4B54010  42.590  28.403   7.353
 9211POPC   NC354011  13.632  10.512   5.553
 9211POPC   PO454012  13.619  10.499   5.853
 9211POPC   GL154013  13.639  10.568   6.153
 9211POPC   GL254014  13.550  10.674   6.153
 9211POPC   C1A54015  13.660  10.534   6.453
 9211POPC   D2A54016  13.631  10.540   6.753
 9211POPC   C3A54017  13.633  10.499   7.053
 9211POPC   C4A54018  13.588  10.554   7.353
 9211POPC   C1B54019  13.514  10.684   6.453
 9211POPC   C2B54020  13.498  10.693   6.753
 9211POPC   C3B54021  13.508  10.777   7.053
 9211POPC   C4B54022  13.459  10.716   7.353
 9212POPC   NC354023  12.858   1.186   5.553
 9212POPC   PO454024  12.896   1.174   5.853
 9212POPC   GL154025  12.841   1.235   6.153
 9212POPC   GL254026  12.908   1.307   6.153
 9212POPC   C1A54027  12.850   1.262   6.453
 9212POPC   D2A54028  12.802   1.221   6.753
 9212POPC   C3A54029  12.814   1.232   7.053
 9212POPC   C4A54030  12.812   1.171   7.353
 9212POPC   C1B54031  12.981   1.430   6.453
 9212POPC   C2B54032  12.966   1.488   6.753
 9212POPC   C3B54033  12.920   1.448   7.053
 9212POPC   C4B54034  12.928   1.447   7.353
 9213POPC   NC354035  23.702  20.583   5.553
 9213POPC   PO454036  23.744  20.591   5.853
 9213POPC   GL154037  23.710  20.658   6.153
 9213POPC   GL254038  23.765  20.552   6.153
 9213POPC   C1A54039  23.753  20.643   6.453
 9213POPC   D2A54040  23.672  20.596   6.753
 9213POPC   C3A54041  23.684  20.631   7.053
 9213POPC   C4A54042  23.734  20.585   7.353
 9213POPC   C1B54043  23.869  20.419   6.453
 9213POPC   C2B54044  23.851  20.442   6.753
 9213POPC   C3B54045  23.914  20.473   7.053
 9213POPC   C4B54046  23.901  20.484   7.353
 9214POPC   NC354047  27.604  33.829   5.553
 9214POPC   PO454048  27.545  33.844   5.853
 9214POPC   GL154049  27.619  33.817   6.153
 9214POPC   GL254050  27.669  33.954   6.153
 9214POPC   C1A54051  27.619  33.829   6.453
 9214POPC   D2A54052  27.634  33.751   6.753
 9214POPC   C3A54053  27.557  33.798   7.053
 9214POPC   C4A54054  27.620  33.801   7.353
 9214POPC   C1B54055  27.729  34.048   6.453
 9214POPC   C2B54056  27.743  34.061   6.753
 9214POPC   C3B54057  27.764  33.970   7.053
 9214POPC   C4B54058  27.760  34.053   7.353
 9215POPC   NC354059   1.178  43.094   5.553
 9215POPC   PO454060   1.176  43.078   5.853
 9215POPC   GL154061   1.249  43.091   6.153
 9215POPC   GL254062   1.339  43.039   6.153
 9215POPC   C1A54063   1.189  43.082   6.453
 9215POPC   D2A54064   1.180  43.097   6.753
 9215POPC   C3A54065   1.221  43.101   7.053
 9215POPC   C4A54066   1.176  43.135   7.353
 9215POPC   C1B54067   1.442  42.990   6.453
 9215POPC   C2B54068   1.443  42.991   6.753
 9215POPC   C3B54069   1.444  42.986   7.053
 9215POPC   C4B54070   1.368  42.927   7.353
 9216POPC   NC354071  16.684   4.324   5.553
 9216POPC   PO454072  16.730   4.357   5.853
 9216POPC   GL154073  16.743   4.348   6.153
 9216POPC   GL254074  16.705   4.178   6.153
 9216POPC   C1A54075  16.714   4.290   6.453
 9216POPC   D2A54076  16.737   4.320   6.753
 9216POPC   C3A54077  16.769   4.287   7.053
 9216POPC   C4A54078  16.753   4.360   7.353
 9216POPC   C1B54079  16.757   4.077   6.453
 9216POPC   C2B54080  16.722   4.037   6.753
 9216POPC   C3B54081  16.765   4.030   7.053
 9216POPC   C4B54082  16.745   4.042   7.353
 9217POPC   NC354083  21.413  33.009   5.553
 9217POPC   PO454084  21.377  33.008   5.853
 9217POPC   GL154085  21.340  33.059   6.153
 9217POPC   GL254086  21.288  32.972   6.153
 9217POPC   C1A54087  21.373  32.996   6.453
 9217POPC   D2A54088  21.342  33.010   6.753
 9217POPC   C3A54089  21.399  33.025   7.053
 9217POPC   C4A54090  21.340  33.021   7.353
 9217POPC   C1B54091  21.126  33.055   6.453
 9217POPC   C2B54092  21.105  33.005   6.753
 9217POPC   C3B54093  21.171  33.025   7.053
 9217POPC   C4B54094  21.185  33.022   7.353
 9218POPC   NC354095   5.857  38.484   5.553
 9218POPC   PO454096   5.875  38.486   5.853
 9218POPC   GL154097   5.867  38.458   6.153
 9218POPC   GL254098   5.936  38.548   6.153
 9218POPC   C1A54099   5.888  38.450   6.453
 9218POPC   D2A54100   5.821  38.461   6.753
 9218POPC   C3A54101   5.906  38.503   7.053
 9218POPC   C4A54102   5.824  38.420   7.353
 9218POPC   C1B54103   6.015  38.643   6.453
 9218POPC   C2B54104   6.069  38.591   6.753
 9218POPC   C3B54105   6.091  38.635   7.053
 9218POPC   C4B54106   6.031  38.593   7.353
 9219POPC   NC354107  40.820  19.853   5.553
 9219POPC   PO454108  40.808  19.850   5.853
 9219POPC   GL154109  40.772  19.818   6.153
 9219POPC   GL254110  40.739  19.933   6.153
 9219POPC   C1A54111  40.764  19.864   6.453
 9219POPC   D2A54112  40.813  19.817   6.753
 9219POPC   C3A54113  40.788  19.869   7.053
 9219POPC   C4A54114  40.752  19.797   7.353
 9219POPC   C1B54115  40.684  20.095   6.453
 9219POPC   C2B54116  40.657  20.072   6.753
 9219POPC   C3B54117  40.630  20.041   7.053
 9219POPC   C4B54118  40.619  20.018   7.353
 9220POPC   NC354119  10.515   3.544   5.553
 9220POPC   PO454120  10.516   3.585   5.853
 9220POPC   GL154121  10.505   3.548   6.153
 9220POPC   GL254122  10.411   3.677   6.153
 9220POPC   C1A54123  10.565   3.568   6.453
 9220POPC   D2A54124  10.504   3.579   6.753
 9220POPC   C3A54125  10.570   3.543   7.053
 9220POPC   C4A54126  10.535   3.539   7.353
 9220POPC   C1B54127  10.356   3.668   6.453
 9220POPC   C2B54128  10.373   3.732   6.753
 9220POPC   C3B54129  10.362   3.740   7.053
 9220POPC   C4B54130  10.352   3.729   7.353
 9221POPC   NC354131   2.004  33.847   5.553
 9221POPC   PO454132   1.962  33.783   5.853
 9221POPC   GL154133   1.974  33.757   6.153
 9221POPC   GL254134   2.097  33.920   6.153
 9221POPC   C1A54135   1.976  33.762   6.453
 9221POPC   D2A54136   1.987  33.830   6.753
 9221POPC   C3A54137   2.031  33.774   7.053
 9221POPC   C4A54138   2.021  33.833   7.353
 9221POPC   C1B54139   2.156  34.040   6.453
 9221POPC   C2B54140   2.085  34.012   6.753
 9221POPC   C3B54141   2.134  34.055   7.053
 9221POPC   C4B54142   2.084  34.028   7.353
 9222POPC   NC354143   2.729  16.719   5.553
 9222POPC   PO454144   2.804  16.777   5.853
 9222POPC   GL154145   2.791  16.702   6.153
 9222POPC   GL254146   2.755  16.601   6.153
 9222POPC   C1A54147   2.773  16.724   6.453
 9222POPC   D2A54148   2.742  16.692   6.753
 9222POPC   C3A54149   2.769  16.707   7.053
 9222POPC   C4A54150   2.727  16.763   7.353
 9222POPC   C1B54151   2.677  16.530   6.453
 9222POPC   C2B54152   2.660  16.539   6.753
 9222POPC   C3B54153   2.660  16.518   7.053
 9222POPC   C4B54154   2.645  16.478   7.353
 9223POPC   NC354155   0.435  19.090   5.553
 9223POPC   PO454156   0.429  19.073   5.853
 9223POPC   GL154157   0.391  19.093   6.153
 9223POPC   GL254158   0.565  19.005   6.153
 9223POPC   C1A54159   0.399  19.091   6.453
 9223POPC   D2A54160   0.463  19.068   6.753
 9223POPC   C3A54161   0.392  19.076   7.053
 9223POPC   C4A54162   0.408  19.086   7.353
 9223POPC   C1B54163   0.660  19.004   6.453
 9223POPC   C2B54164   0.636  18.925   6.753
 9223POPC   C3B54165   0.682  18.979   7.053
 9223POPC   C4B54166   0.710  18.944   7.353
 9224POPC   NC354167   3.529   5.918   5.553
 9224POPC   PO454168   3.590   5.842   5.853
 9224POPC   GL154169   3.575   5.867   6.153
 9224POPC   GL254170   3.676   5.807   6.153
 9224POPC   C1A54171   3.526   5.913   6.453
 9224POPC   D2A54172   3.493   5.820   6.753
 9224POPC   C3A54173   3.515   5.839   7.053
 9224POPC   C4A54174   3.576   5.847   7.353
 9224POPC   C1B54175   3.831   5.818   6.453
 9224POPC   C2B54176   3.777   5.796   6.753
 9224POPC   C3B54177   3.754   5.798   7.053
 9224POPC   C4B54178   3.784   5.805   7.353
 9225POPC   NC354179  33.024   0.487   5.553
 9225POPC   PO454180  33.048   0.446   5.853
 9225POPC   GL154181  33.015   0.433   6.153
 9225POPC   GL254182  32.888   0.436   6.153
 9225POPC   C1A54183  33.000   0.467   6.453
 9225POPC   D2A54184  33.035   0.466   6.753
 9225POPC   C3A54185  33.041   0.402   7.053
 9225POPC   C4A54186  33.042   0.479   7.353
 9225POPC   C1B54187  32.775   0.369   6.453
 9225POPC   C2B54188  32.796   0.352   6.753
 9225POPC   C3B54189  32.728   0.388   7.053
 9225POPC   C4B54190  32.787   0.372   7.353
 9226POPC   NC354191  40.003  12.096   5.553
 9226POPC   PO454192  39.973  12.070   5.853
 9226POPC   GL154193  39.963  12.044   6.153
 9226POPC   GL254194  40.174  12.087   6.153
 9226POPC   C1A54195  39.972  12.029   6.453
 9226POPC   D2A54196  39.978  12.082   6.753
 9226POPC   C3A54197  39.968  12.086   7.053
 9226POPC   C4A54198  39.967  12.080   7.353
 9226POPC   C1B54199  40.260  12.106   6.453
 9226POPC   C2B54200  40.254  12.076   6.753
 9226POPC   C3B54201  40.262  12.065   7.053
 9226POPC   C4B54202  40.269  12.107   7.353
 9227POPC   NC354203  13.646  14.367   5.553
 9227POPC   PO454204  13.618  14.389   5.853
 9227POPC   GL154205  13.598  14.385   6.153
 9227POPC   GL254206  13.662  14.272   6.153
 9227POPC   C1A54207  13.629  14.361   6.453
 9227POPC   D2A54208  13.622  14.398   6.753
 9227POPC   C3A54209  13.594  14.387   7.053
 9227POPC   C4A54210  13.658  14.377   7.353
 9227POPC   C1B54211  13.637  14.153   6.453
 9227POPC   C2B54212  13.657  14.146   6.753
 9227POPC   C3B54213  13.676  14.129   7.053
 9227POPC   C4B54214  13.611  14.182   7.353
 9228POPC   NC354215   1.976  29.918   5.553
 9228POPC   PO454216   1.993  29.940   5.853
 9228POPC   GL154217   1.951  29.880   6.153
 9228POPC   GL254218   1.879  29.876   6.153
 9228POPC   C1A54219   2.002  29.947   6.453
 9228POPC   D2A54220   2.016  29.898   6.753
 9228POPC   C3A54221   1.964  29.947   7.053
 9228POPC   C4A54222   2.032  29.874   7.353
 9228POPC   C1B54223   1.854  29.736   6.453
 9228POPC   C2B54224   1.839  29.718   6.753
 9228POPC   C3B54225   1.830  29.794   7.053
 9228POPC   C4B54226   1.775  29.711   7.353
 9229POPC   NC354227  26.804  25.308   5.553
 9229POPC   PO454228  26.847  25.241   5.853
 9229POPC   GL154229  26.800  25.303   6.153
 9229POPC   GL254230  26.695  25.180   6.153
 9229POPC   C1A54231  26.768  25.230   6.453
 9229POPC   D2A54232  26.793  25.229   6.753
 9229POPC   C3A54233  26.829  25.232   7.053
 9229POPC   C4A54234  26.796  25.234   7.353
 9229POPC   C1B54235  26.647  25.158   6.453
 9229POPC   C2B54236  26.629  25.168   6.753
 9229POPC   C3B54237  26.578  25.147   7.053
 9229POPC   C4B54238  26.600  25.156   7.353
 9230POPC   NC354239  42.362  27.560   5.553
 9230POPC   PO454240  42.372  27.607   5.853
 9230POPC   GL154241  42.366  27.575   6.153
 9230POPC   GL254242  42.299  27.665   6.153
 9230POPC   C1A54243  42.367  27.599   6.453
 9230POPC   D2A54244  42.313  27.564   6.753
 9230POPC   C3A54245  42.374  27.577   7.053
 9230POPC   C4A54246  42.360  27.641   7.353
 9230POPC   C1B54247  42.199  27.792   6.453
 9230POPC   C2B54248  42.227  27.827   6.753
 9230POPC   C3B54249  42.195  27.847   7.053
 9230POPC   C4B54250  42.253  27.832   7.353
 9231POPC   NC354251  10.525  26.078   5.553
 9231POPC   PO454252  10.484  26.053   5.853
 9231POPC   GL154253  10.525  26.010   6.153
 9231POPC   GL254254  10.527  25.895   6.153
 9231POPC   C1A54255  10.526  26.002   6.453
 9231POPC   D2A54256  10.561  26.018   6.753
 9231POPC   C3A54257  10.508  25.996   7.053
 9231POPC   C4A54258  10.549  26.036   7.353
 9231POPC   C1B54259  10.576  25.840   6.453
 9231POPC   C2B54260  10.596  25.780   6.753
 9231POPC   C3B54261  10.596  25.830   7.053
 9231POPC   C4B54262  10.567  25.784   7.353
 9232POPC   NC354263  44.663  16.690   5.553
 9232POPC   PO454264  44.651  16.767   5.853
 9232POPC   GL154265  44.620  16.725   6.153
 9232POPC   GL254266  44.518  16.732   6.153
 9232POPC   C1A54267  44.636  16.776   6.453
 9232POPC   D2A54268  44.615  16.740   6.753
 9232POPC   C3A54269  44.618  16.726   7.053
 9232POPC   C4A54270  44.705  16.761   7.353
 9232POPC   C1B54271  44.433  16.661   6.453
 9232POPC   C2B54272  44.438  16.591   6.753
 9232POPC   C3B54273  44.443  16.669   7.053
 9232POPC   C4B54274  44.434  16.608   7.353
 9233POPC   NC354275  16.731  42.301   5.553
 9233POPC   PO454276  16.690  42.323   5.853
 9233POPC   GL154277  16.763  42.303   6.153
 9233POPC   GL254278  16.677  42.384   6.153
 9233POPC   C1A54279  16.694  42.340   6.453
 9233POPC   D2A54280  16.710  42.306   6.753
 9233POPC   C3A54281  16.745  42.367   7.053
 9233POPC   C4A54282  16.715  42.372   7.353
 9233POPC   C1B54283  16.509  42.440   6.453
 9233POPC   C2B54284  16.522  42.517   6.753
 9233POPC   C3B54285  16.499  42.436   7.053
 9233POPC   C4B54286  16.528  42.441   7.353
 9234POPC   NC354287   8.926  24.515   5.553
 9234POPC   PO454288   8.983  24.457   5.853
 9234POPC   GL154289   9.019  24.478   6.153
 9234POPC   GL254290   9.069  24.392   6.153
 9234POPC   C1A54291   8.971  24.514   6.453
 9234POPC   D2A54292   8.999  24.444   6.753
 9234POPC   C3A54293   8.969  24.526   7.053
 9234POPC   C4A54294   8.954  24.510   7.353
 9234POPC   C1B54295   9.113  24.312   6.453
 9234POPC   C2B54296   9.170  24.346   6.753
 9234POPC   C3B54297   9.142  24.283   7.053
 9234POPC   C4B54298   9.121  24.282   7.353
 9235POPC   NC354299  38.462  29.961   5.553
 9235POPC   PO454300  38.503  29.949   5.853
 9235POPC   GL154301  38.498  29.958   6.153
 9235POPC   GL254302  38.342  29.900   6.153
 9235POPC   C1A54303  38.453  29.901   6.453
 9235POPC   D2A54304  38.436  29.912   6.753
 9235POPC   C3A54305  38.495  29.948   7.053
 9235POPC   C4A54306  38.499  29.875   7.353
 9235POPC   C1B54307  38.202  29.798   6.453
 9235POPC   C2B54308  38.279  29.772   6.753
 9235POPC   C3B54309  38.225  29.765   7.053
 9235POPC   C4B54310  38.257  29.819   7.353
 9236POPC   NC354311  17.544   0.470   5.553
 9236POPC   PO454312  17.546   0.409   5.853
 9236POPC   GL154313  17.473   0.462   6.153
 9236POPC   GL254314  17.427   0.384   6.153
 9236POPC   C1A54315  17.470   0.436   6.453
 9236POPC   D2A54316  17.523   0.389   6.753
 9236POPC   C3A54317  17.512   0.462   7.053
 9236POPC   C4A54318  17.466   0.458   7.353
 9236POPC   C1B54319  17.244   0.426   6.453
 9236POPC   C2B54320  17.218   0.436   6.753
 9236POPC   C3B54321  17.232   0.413   7.053
 9236POPC   C4B54322  17.250   0.445   7.353
 9237POPC   NC354323  28.339  20.628   5.553
 9237POPC   PO454324  28.340  20.606   5.853
 9237POPC   GL154325  28.413  20.604   6.153
 9237POPC   GL254326  28.274  20.516   6.153
 9237POPC   C1A54327  28.390  20.615   6.453
 9237POPC   D2A54328  28.380  20.629   6.753
 9237POPC   C3A54329  28.326  20.616   7.053
 9237POPC   C4A54330  28.335  20.563   7.353
 9237POPC   C1B54331  28.094  20.498   6.453
 9237POPC   C2B54332  28.142  20.493   6.753
 9237POPC   C3B54333  28.132  20.490   7.053
 9237POPC   C4B54334  28.178  20.513   7.353
 9238POPC   NC354335  29.891   6.629   5.553
 9238POPC   PO454336  29.942   6.623   5.853
 9238POPC   GL154337  29.922   6.679   6.153
 9238POPC   GL254338  29.900   6.523   6.153
 9238POPC   C1A54339  29.878   6.641   6.453
 9238POPC   D2A54340  29.942   6.628   6.753
 9238POPC   C3A54341  29.923   6.613   7.053
 9238POPC   C4A54342  29.919   6.689   7.353
 9238POPC   C1B54343  29.831   6.391   6.453
 9238POPC   C2B54344  29.787   6.421   6.753
 9238POPC   C3B54345  29.788   6.388   7.053
 9238POPC   C4B54346  29.829   6.453   7.353
 9239POPC   NC354347  32.280  13.678   5.553
 9239POPC   PO454348  32.237  13.634   5.853
 9239POPC   GL154349  32.205  13.591   6.153
 9239POPC   GL254350  32.132  13.705   6.153
 9239POPC   C1A54351  32.283  13.650   6.453
 9239POPC   D2A54352  32.214  13.607   6.753
 9239POPC   C3A54353  32.212  13.647   7.053
 9239POPC   C4A54354  32.279  13.635   7.353
 9239POPC   C1B54355  32.035  13.777   6.453
 9239POPC   C2B54356  32.018  13.839   6.753
 9239POPC   C3B54357  32.071  13.811   7.053
 9239POPC   C4B54358  32.018  13.806   7.353
 9240POPC   NC354359  36.943  34.592   5.553
 9240POPC   PO454360  36.930  34.604   5.853
 9240POPC   GL154361  36.882  34.598   6.153
 9240POPC   GL254362  36.838  34.697   6.153
 9240POPC   C1A54363  36.951  34.533   6.453
 9240POPC   D2A54364  36.868  34.597   6.753
 9240POPC   C3A54365  36.878  34.535   7.053
 9240POPC   C4A54366  36.883  34.569   7.353
 9240POPC   C1B54367  36.741  34.728   6.453
 9240POPC   C2B54368  36.686  34.714   6.753
 9240POPC   C3B54369  36.693  34.777   7.053
 9240POPC   C4B54370  36.690  34.741   7.353
 9241POPC   NC354371   5.839  22.132   5.553
 9241POPC   PO454372   5.888  22.184   5.853
 9241POPC   GL154373   5.888  22.139   6.153
 9241POPC   GL254374   5.775  22.156   6.153
 9241POPC   C1A54375   5.902  22.117   6.453
 9241POPC   D2A54376   5.856  22.146   6.753
 9241POPC   C3A54377   5.901  22.120   7.053
 9241POPC   C4A54378   5.901  22.147   7.353
 9241POPC   C1B54379   5.589  22.263   6.453
 9241POPC   C2B54380   5.588  22.254   6.753
 9241POPC   C3B54381   5.633  22.199   7.053
 9241POPC   C4B54382   5.619  22.246   7.353
 9242POPC   NC354383   7.381  37.658   5.553
 9242POPC   PO454384   7.431  37.695   5.853
 9242POPC   GL154385   7.401  37.664   6.153
 9242POPC   GL254386   7.381  37.845   6.153
 9242POPC   C1A54387   7.395  37.686   6.453
 9242POPC   D2A54388   7.414  37.640   6.753
 9242POPC   C3A54389   7.406  37.677   7.053
 9242POPC   C4A54390   7.423  37.674   7.353
 9242POPC   C1B54391   7.389  37.975   6.453
 9242POPC   C2B54392   7.402  37.966   6.753
 9242POPC   C3B54393   7.378  37.889   7.053
 9242POPC   C4B54394   7.337  37.894   7.353
 9243POPC   NC354395  41.522   3.540   5.553
 9243POPC   PO454396  41.566   3.564   5.853
 9243POPC   GL154397  41.591   3.550   6.153
 9243POPC   GL254398  41.515   3.403   6.153
 9243POPC   C1A54399  41.564   3.571   6.453
 9243POPC   D2A54400  41.572   3.532   6.753
 9243POPC   C3A54401  41.522   3.558   7.053
 9243POPC   C4A54402  41.572   3.548   7.353
 9243POPC   C1B54403  41.523   3.279   6.453
 9243POPC   C2B54404  41.489   3.307   6.753
 9243POPC   C3B54405  41.527   3.268   7.053
 9243POPC   C4B54406  41.516   3.328   7.353
 9244POPC   NC354407  15.135   9.722   5.553
 9244POPC   PO454408  15.155   9.788   5.853
 9244POPC   GL154409  15.184   9.733   6.153
 9244POPC   GL254410  15.165   9.875   6.153
 9244POPC   C1A54411  15.159   9.723   6.453
 9244POPC   D2A54412  15.186   9.701   6.753
 9244POPC   C3A54413  15.159   9.727   7.053
 9244POPC   C4A54414  15.193   9.706   7.353
 9244POPC   C1B54415  15.227  10.001   6.453
 9244POPC   C2B54416  15.155   9.999   6.753
 9244POPC   C3B54417  15.181   9.983   7.053
 9244POPC   C4B54418  15.195  10.030   7.353
 9245POPC   NC354419  30.682  40.029   5.553
 9245POPC   PO454420  30.683  40.052   5.853
 9245POPC   GL154421  30.666  40.019   6.153
 9245POPC   GL254422  30.831  40.022   6.153
 9245POPC   C1A54423  30.736  40.024   6.453
 9245POPC   D2A54424  30.721  39.964   6.753
 9245POPC   C3A54425  30.693  40.014   7.053
 9245POPC   C4A54426  30.666  39.993   7.353
 9245POPC   C1B54427  30.914  40.008   6.453
 9245POPC   C2B54428  30.899  40.011   6.753
 9245POPC   C3B54429  30.947  40.080   7.053
 9245POPC   C4B54430  30.922  40.076   7.353
 9246POPC   NC354431  43.151  21.436   5.553
 9246POPC   PO454432  43.130  21.419   5.853
 9246POPC   GL154433  43.092  21.388   6.153
 9246POPC   GL254434  43.228  21.433   6.153
 9246POPC   C1A54435  43.087  21.400   6.453
 9246POPC   D2A54436  43.110  21.348   6.753
 9246POPC   C3A54437  43.091  21.370   7.053
 9246POPC   C4A54438  43.107  21.434   7.353
 9246POPC   C1B54439  43.346  21.549   6.453
 9246POPC   C2B54440  43.291  21.543   6.753
 9246POPC   C3B54441  43.300  21.500   7.053
 9246POPC   C4B54442  43.299  21.494   7.353
 9247POPC   NC354443  15.198  15.207   5.553
 9247POPC   PO454444  15.224  15.149   5.853
 9247POPC   GL154445  15.153  15.161   6.153
 9247POPC   GL254446  15.347  15.144   6.153
 9247POPC   C1A54447  15.144  15.157   6.453
 9247POPC   D2A54448  15.215  15.216   6.753
 9247POPC   C3A54449  15.204  15.202   7.053
 9247POPC   C4A54450  15.220  15.206   7.353
 9247POPC   C1B54451  15.447  15.194   6.453
 9247POPC   C2B54452  15.462  15.220   6.753
 9247POPC   C3B54453  15.450  15.216   7.053
 9247POPC   C4B54454  15.478  15.132   7.353
 9248POPC   NC354455  17.538  44.663   5.553
 9248POPC   PO454456  17.487  44.704   5.853
 9248POPC   GL154457  17.508  44.672   6.153
 9248POPC   GL254458  17.657  44.666   6.153
 9248POPC   C1A54459  17.548  44.679   6.453
 9248POPC   D2A54460  17.464  44.656   6.753
 9248POPC   C3A54461  17.520  44.675   7.053
 9248POPC   C4A54462  17.497  44.643   7.353
 9248POPC   C1B54463  17.737  44.641   6.453
 9248POPC   C2B54464  17.782  44.663   6.753
 9248POPC   C3B54465  17.710  44.597   7.053
 9248POPC   C4B54466  17.721  44.639   7.353
 9249POPC   NC354467  20.648  25.217   5.553
 9249POPC   PO454468  20.595  25.261   5.853
 9249POPC   GL154469  20.578  25.308   6.153
 9249POPC   GL254470  20.639  25.115   6.153
 9249POPC   C1A54471  20.602  25.299   6.453
 9249POPC   D2A54472  20.563  25.285   6.753
 9249POPC   C3A54473  20.600  25.285   7.053
 9249POPC   C4A54474  20.582  25.270   7.353
 9249POPC   C1B54475  20.708  25.020   6.453
 9249POPC   C2B54476  20.690  25.041   6.753
 9249POPC   C3B54477  20.645  24.989   7.053
 9249POPC   C4B54478  20.719  24.986   7.353
 9250POPC   NC354479  32.295  38.469   5.553
 9250POPC   PO454480  32.228  38.481   5.853
 9250POPC   GL154481  32.283  38.432   6.153
 9250POPC   GL254482  32.198  38.315   6.153
 9250POPC   C1A54483  32.269  38.433   6.453
 9250POPC   D2A54484  32.297  38.478   6.753
 9250POPC   C3A54485  32.253  38.466   7.053
 9250POPC   C4A54486  32.214  38.407   7.353
 9250POPC   C1B54487  32.228  38.211   6.453
 9250POPC   C2B54488  32.176  38.168   6.753
 9250POPC   C3B54489  32.202  38.176   7.053
 9250POPC   C4B54490  32.239  38.222   7.353
 9251POPC   NC354491  36.082  41.566   5.553
 9251POPC   PO454492  36.090  41.528   5.853
 9251POPC   GL154493  36.080  41.540   6.153
 9251POPC   GL254494  36.189  41.484   6.153
 9251POPC   C1A54495  36.142  41.543   6.453
 9251POPC   D2A54496  36.149  41.538   6.753
 9251POPC   C3A54497  36.119  41.583   7.053
 9251POPC   C4A54498  36.099  41.521   7.353
 9251POPC   C1B54499  36.259  41.344   6.453
 9251POPC   C2B54500  36.227  41.298   6.753
 9251POPC   C3B54501  36.277  41.370   7.053
 9251POPC   C4B54502  36.285  41.330   7.353
 9252POPC   NC354503  39.183  12.805   5.553
 9252POPC   PO454504  39.201  12.879   5.853
 9252POPC   GL154505  39.222  12.894   6.153
 9252POPC   GL254506  39.328  12.954   6.153
 9252POPC   C1A54507  39.209  12.825   6.453
 9252POPC   D2A54508  39.209  12.862   6.753
 9252POPC   C3A54509  39.267  12.877   7.053
 9252POPC   C4A54510  39.202  12.900   7.353
 9252POPC   C1B54511  39.349  13.081   6.453
 9252POPC   C2B54512  39.390  13.084   6.753
 9252POPC   C3B54513  39.337  13.043   7.053
 9252POPC   C4B54514  39.333  13.104   7.353
 9253POPC   NC354515   5.139  31.512   5.553
 9253POPC   PO454516   5.119  31.465   5.853
 9253POPC   GL154517   5.140  31.491   6.153
 9253POPC   GL254518   5.078  31.319   6.153
 9253POPC   C1A54519   5.044  31.442   6.453
 9253POPC   D2A54520   5.127  31.455   6.753
 9253POPC   C3A54521   5.141  31.474   7.053
 9253POPC   C4A54522   5.117  31.442   7.353
 9253POPC   C1B54523   5.171  31.258   6.453
 9253POPC   C2B54524   5.189  31.198   6.753
 9253POPC   C3B54525   5.159  31.276   7.053
 9253POPC   C4B54526   5.189  31.199   7.353
 9254POPC   NC354527  20.637  36.176   5.553
 9254POPC   PO454528  20.637  36.125   5.853
 9254POPC   GL154529  20.594  36.120   6.153
 9254POPC   GL254530  20.687  36.030   6.153
 9254POPC   C1A54531  20.657  36.096   6.453
 9254POPC   D2A54532  20.610  36.102   6.753
 9254POPC   C3A54533  20.593  36.156   7.053
 9254POPC   C4A54534  20.598  36.143   7.353
 9254POPC   C1B54535  20.782  35.984   6.453
 9254POPC   C2B54536  20.779  35.984   6.753
 9254POPC   C3B54537  20.782  35.965   7.053
 9254POPC   C4B54538  20.726  35.895   7.353
 9255POPC   NC354539  26.779   3.568   5.553
 9255POPC   PO454540  26.833   3.510   5.853
 9255POPC   GL154541  26.851   3.495   6.153
 9255POPC   GL254542  26.725   3.478   6.153
 9255POPC   C1A54543  26.825   3.566   6.453
 9255POPC   D2A54544  26.798   3.550   6.753
 9255POPC   C3A54545  26.811   3.540   7.053
 9255POPC   C4A54546  26.828   3.557   7.353
 9255POPC   C1B54547  26.581   3.434   6.453
 9255POPC   C2B54548  26.552   3.463   6.753
 9255POPC   C3B54549  26.539   3.399   7.053
 9255POPC   C4B54550  26.554   3.487   7.353
 9256POPC   NC354551  35.366  13.605   5.553
 9256POPC   PO454552  35.305  13.676   5.853
 9256POPC   GL154553  35.323  13.617   6.153
 9256POPC   GL254554  35.209  13.520   6.153
 9256POPC   C1A54555  35.313  13.622   6.453
 9256POPC   D2A54556  35.329  13.628   6.753
 9256POPC   C3A54557  35.330  13.598   7.053
 9256POPC   C4A54558  35.339  13.583   7.353
 9256POPC   C1B54559  35.137  13.488   6.453
 9256POPC   C2B54560  35.174  13.507   6.753
 9256POPC   C3B54561  35.150  13.466   7.053
 9256POPC   C4B54562  35.180  13.509   7.353
 9257POPC   NC354563  21.354  30.654   5.553
 9257POPC   PO454564  21.344  30.707   5.853
 9257POPC   GL154565  21.404  30.678   6.153
 9257POPC   GL254566  21.518  30.790   6.153
 9257POPC   C1A54567  21.375  30.706   6.453
 9257POPC   D2A54568  21.431  30.727   6.753
 9257POPC   C3A54569  21.432  30.707   7.053
 9257POPC   C4A54570  21.424  30.656   7.353
 9257POPC   C1B54571  21.551  30.894   6.453
 9257POPC   C2B54572  21.537  30.883   6.753
 9257POPC   C3B54573  21.589  30.897   7.053
 9257POPC   C4B54574  21.569  30.848   7.353
 9258POPC   NC354575   5.874  33.042   5.553
 9258POPC   PO454576   5.819  32.997   5.853
 9258POPC   GL154577   5.905  32.988   6.153
 9258POPC   GL254578   5.990  32.976   6.153
 9258POPC   C1A54579   5.915  33.067   6.453
 9258POPC   D2A54580   5.906  32.975   6.753
 9258POPC   C3A54581   5.891  33.072   7.053
 9258POPC   C4A54582   5.864  33.055   7.353
 9258POPC   C1B54583   6.086  32.924   6.453
 9258POPC   C2B54584   6.136  32.907   6.753
 9258POPC   C3B54585   6.134  32.892   7.053
 9258POPC   C4B54586   6.091  32.957   7.353
 9259POPC   NC354587  28.348  36.943   5.553
 9259POPC   PO454588  28.339  36.905   5.853
 9259POPC   GL154589  28.376  36.924   6.153
 9259POPC   GL254590  28.397  36.765   6.153
 9259POPC   C1A54591  28.356  36.946   6.453
 9259POPC   D2A54592  28.364  36.918   6.753
 9259POPC   C3A54593  28.380  36.859   7.053
 9259POPC   C4A54594  28.345  36.914   7.353
 9259POPC   C1B54595  28.546  36.654   6.453
 9259POPC   C2B54596  28.501  36.740   6.753
 9259POPC   C3B54597  28.498  36.661   7.053
 9259POPC   C4B54598  28.541  36.704   7.353
 9260POPC   NC354599  29.169  36.902   5.553
 9260POPC   PO454600  29.194  36.873   5.853
 9260POPC   GL154601  29.184  36.947   6.153
 9260POPC   GL254602  29.139  37.028   6.153
 9260POPC   C1A54603  29.146  36.880   6.453
 9260POPC   D2A54604  29.101  36.862   6.753
 9260POPC   C3A54605  29.165  36.916   7.053
 9260POPC   C4A54606  29.140  36.917   7.353
 9260POPC   C1B54607  29.100  37.153   6.453
 9260POPC   C2B54608  29.096  37.185   6.753
 9260POPC   C3B54609  29.121  37.158   7.053
 9260POPC   C4B54610  29.152  37.111   7.353
 9261POPC   NC354611  42.310  37.644   5.553
 9261POPC   PO454612  42.300  37.720   5.853
 9261POPC   GL154613  42.306  37.704   6.153
 9261POPC   GL254614  42.414  37.710   6.153
 9261POPC   C1A54615  42.321  37.727   6.453
 9261POPC   D2A54616  42.332  37.710   6.753
 9261POPC   C3A54617  42.322  37.642   7.053
 9261POPC   C4A54618  42.333  37.716   7.353
 9261POPC   C1B54619  42.620  37.648   6.453
 9261POPC   C2B54620  42.551  37.652   6.753
 9261POPC   C3B54621  42.583  37.719   7.053
 9261POPC   C4B54622  42.633  37.639   7.353
 9262POPC   NC354623  26.833  10.524   5.553
 9262POPC   PO454624  26.862  10.477   5.853
 9262POPC   GL154625  26.834  10.487   6.153
 9262POPC   GL254626  26.899  10.625   6.153
 9262POPC   C1A54627  26.829  10.565   6.453
 9262POPC   D2A54628  26.785  10.475   6.753
 9262POPC   C3A54629  26.848  10.520   7.053
 9262POPC   C4A54630  26.834  10.482   7.353
 9262POPC   C1B54631  27.009  10.710   6.453
 9262POPC   C2B54632  27.005  10.709   6.753
 9262POPC   C3B54633  27.012  10.747   7.053
 9262POPC   C4B54634  26.979  10.711   7.353
 9263POPC   NC354635  37.689  22.177   5.553
 9263POPC   PO454636  37.635  22.171   5.853
 9263POPC   GL154637  37.649  22.192   6.153
 9263POPC   GL254638  37.611  22.279   6.153
 9263POPC   C1A54639  37.708  22.113   6.453
 9263POPC   D2A54640  37.640  22.170   6.753
 9263POPC   C3A54641  37.712  22.187   7.053
 9263POPC   C4A54642  37.640  22.181   7.353
 9263POPC   C1B54643  37.595  22.347   6.453
 9263POPC   C2B54644  37.597  22.353   6.753
 9263POPC   C3B54645  37.592  22.442   7.053
 9263POPC   C4B54646  37.608  22.428   7.353
 9264POPC   NC354647  33.066  30.693   5.553
 9264POPC   PO454648  32.985  30.678   5.853
 9264POPC   GL154649  32.996  30.719   6.153
 9264POPC   GL254650  33.001  30.832   6.153
 9264POPC   C1A54651  33.074  30.728   6.453
 9264POPC   D2A54652  33.048  30.730   6.753
 9264POPC   C3A54653  33.010  30.684   7.053
 9264POPC   C4A54654  32.979  30.711   7.353
 9264POPC   C1B54655  32.875  30.964   6.453
 9264POPC   C2B54656  32.951  30.957   6.753
 9264POPC   C3B54657  32.900  30.950   7.053
 9264POPC   C4B54658  32.958  30.878   7.353
 9265POPC   NC354659  40.038  29.100   5.553
 9265POPC   PO454660  39.985  29.107   5.853
 9265POPC   GL154661  40.020  29.121   6.153
 9265POPC   GL254662  40.055  29.088   6.153
 9265POPC   C1A54663  40.049  29.170   6.453
 9265POPC   D2A54664  40.039  29.104   6.753
 9265POPC   C3A54665  40.051  29.177   7.053
 9265POPC   C4A54666  39.962  29.181   7.353
 9265POPC   C1B54667  40.185  28.945   6.453
 9265POPC   C2B54668  40.170  28.909   6.753
 9265POPC   C3B54669  40.093  28.979   7.053
 9265POPC   C4B54670  40.095  28.898   7.353
 9266POPC   NC354671  41.559  29.959   5.553
 9266POPC   PO454672  41.541  29.943   5.853
 9266POPC   GL154673  41.595  29.879   6.153
 9266POPC   GL254674  41.550  30.077   6.153
 9266POPC   C1A54675  41.584  29.873   6.453
 9266POPC   D2A54676  41.592  29.970   6.753
 9266POPC   C3A54677  41.547  29.897   7.053
 9266POPC   C4A54678  41.586  29.943   7.353
 9266POPC   C1B54679  41.551  30.206   6.453
 9266POPC   C2B54680  41.528  30.209   6.753
 9266POPC   C3B54681  41.483  30.167   7.053
 9266POPC   C4B54682  41.478  30.147   7.353
 9267POPC   NC354683   1.944  36.875   5.553
 9267POPC   PO454684   2.008  36.923   5.853
 9267POPC   GL154685   1.947  36.861   6.153
 9267POPC   GL254686   1.967  37.059   6.153
 9267POPC   C1A54687   1.979  36.881   6.453
 9267POPC   D2A54688   1.972  36.948   6.753
 9267POPC   C3A54689   1.943  36.900   7.053
 9267POPC   C4A54690   1.976  36.878   7.353
 9267POPC   C1B54691   2.046  37.184   6.453
 9267POPC   C2B54692   1.986  37.154   6.753
 9267POPC   C3B54693   1.985  37.145   7.053
 9267POPC   C4B54694   1.983  37.117   7.353
 9268POPC   NC354695  27.544  30.745   5.553
 9268POPC   PO454696  27.628  30.647   5.853
 9268POPC   GL154697  27.555  30.695   6.153
 9268POPC   GL254698  27.501  30.650   6.153
 9268POPC   C1A54699  27.643  30.683   6.453
 9268POPC   D2A54700  27.624  30.671   6.753
 9268POPC   C3A54701  27.642  30.740   7.053
 9268POPC   C4A54702  27.617  30.673   7.353
 9268POPC   C1B54703  27.382  30.634   6.453
 9268POPC   C2B54704  27.397  30.626   6.753
 9268POPC   C3B54705  27.306  30.592   7.053
 9268POPC   C4B54706  27.388  30.666   7.353
 9269POPC   NC354707  10.573  19.830   5.553
 9269POPC   PO454708  10.512  19.848   5.853
 9269POPC   GL154709  10.510  19.865   6.153
 9269POPC   GL254710  10.561  19.924   6.153
 9269POPC   C1A54711  10.574  19.848   6.453
 9269POPC   D2A54712  10.566  19.820   6.753
 9269POPC   C3A54713  10.523  19.789   7.053
 9269POPC   C4A54714  10.572  19.812   7.353
 9269POPC   C1B54715  10.599  20.097   6.453
 9269POPC   C2B54716  10.598  20.107   6.753
 9269POPC   C3B54717  10.643  20.097   7.053
 9269POPC   C4B54718  10.678  20.071   7.353
 9270POPC   NC354719  41.594  43.141   5.553
 9270POPC   PO454720  41.569  43.088   5.853
 9270POPC   GL154721  41.543  43.090   6.153
 9270POPC   GL254722  41.460  43.152   6.153
 9270POPC   C1A54723  41.524  43.100   6.453
 9270POPC   D2A54724  41.602  43.094   6.753
 9270POPC   C3A54725  41.591  43.104   7.053
 9270POPC   C4A54726  41.543  43.108   7.353
 9270POPC   C1B54727  41.346  43.284   6.453
 9270POPC   C2B54728  41.401  43.240   6.753
 9270POPC   C3B54729  41.414  43.288   7.053
 9270POPC   C4B54730  41.408  43.250   7.353
 9271POPC   NC354731  20.618  33.763   5.553
 9271POPC   PO454732  20.601  33.752   5.853
 9271POPC   GL154733  20.628  33.845   6.153
 9271POPC   GL254734  20.703  33.916   6.153
 9271POPC   C1A54735  20.566  33.820   6.453
 9271POPC   D2A54736  20.650  33.810   6.753
 9271POPC   C3A54737  20.587  33.840   7.053
 9271POPC   C4A54738  20.566  33.827   7.353
 9271POPC   C1B54739  20.788  33.992   6.453
 9271POPC   C2B54740  20.782  34.037   6.753
 9271POPC   C3B54741  20.755  34.014   7.053
 9271POPC   C4B54742  20.707  34.016   7.353
 9272POPC   NC354743  11.325  39.263   5.553
 9272POPC   PO454744  11.338  39.214   5.853
 9272POPC   GL154745  11.270  39.255   6.153
 9272POPC   GL254746  11.220  39.358   6.153
 9272POPC   C1A54747  11.296  39.243   6.453
 9272POPC   D2A54748  11.257  39.182   6.753
 9272POPC   C3A54749  11.286  39.185   7.053
 9272POPC   C4A54750  11.318  39.197   7.353
 9272POPC   C1B54751  11.131  39.395   6.453
 9272POPC   C2B54752  11.176  39.392   6.753
 9272POPC   C3B54753  11.117  39.444   7.053
 9272POPC   C4B54754  11.140  39.406   7.353
 9273POPC   NC354755  38.466  27.623   5.553
 9273POPC   PO454756  38.472  27.627   5.853
 9273POPC   GL154757  38.500  27.566   6.153
 9273POPC   GL254758  38.565  27.601   6.153
 9273POPC   C1A54759  38.505  27.582   6.453
 9273POPC   D2A54760  38.472  27.572   6.753
 9273POPC   C3A54761  38.502  27.544   7.053
 9273POPC   C4A54762  38.434  27.593   7.353
 9273POPC   C1B54763  38.665  27.660   6.453
 9273POPC   C2B54764  38.714  27.668   6.753
 9273POPC   C3B54765  38.683  27.687   7.053
 9273POPC   C4B54766  38.681  27.685   7.353
 9274POPC   NC354767  42.321   0.433   5.553
 9274POPC   PO454768  42.379   0.469   5.853
 9274POPC   GL154769  42.296   0.432   6.153
 9274POPC   GL254770  42.221   0.534   6.153
 9274POPC   C1A54771  42.353   0.457   6.453
 9274POPC   D2A54772  42.325   0.391   6.753
 9274POPC   C3A54773  42.375   0.479   7.053
 9274POPC   C4A54774  42.368   0.406   7.353
 9274POPC   C1B54775  42.157   0.611   6.453
 9274POPC   C2B54776  42.192   0.586   6.753
 9274POPC   C3B54777  42.174   0.574   7.053
 9274POPC   C4B54778  42.197   0.628   7.353
 9275POPC   NC354779   1.226   9.737   5.553
 9275POPC   PO454780   1.200   9.753   5.853
 9275POPC   GL154781   1.173   9.780   6.153
 9275POPC   GL254782   1.189   9.575   6.153
 9275POPC   C1A54783   1.233   9.700   6.453
 9275POPC   D2A54784   1.217   9.773   6.753
 9275POPC   C3A54785   1.259   9.768   7.053
 9275POPC   C4A54786   1.221   9.769   7.353
 9275POPC   C1B54787   1.185   9.482   6.453
 9275POPC   C2B54788   1.239   9.525   6.753
 9275POPC   C3B54789   1.184   9.466   7.053
 9275POPC   C4B54790   1.193   9.534   7.353
 9276POPC   NC354791   4.336   5.909   5.553
 9276POPC   PO454792   4.277   5.901   5.853
 9276POPC   GL154793   4.309   5.914   6.153
 9276POPC   GL254794   4.313   5.714   6.153
 9276POPC   C1A54795   4.310   5.848   6.453
 9276POPC   D2A54796   4.356   5.904   6.753
 9276POPC   C3A54797   4.344   5.881   7.053
 9276POPC   C4A54798   4.348   5.826   7.353
 9276POPC   C1B54799   4.188   5.630   6.453
 9276POPC   C2B54800   4.178   5.623   6.753
 9276POPC   C3B54801   4.167   5.618   7.053
 9276POPC   C4B54802   4.185   5.611   7.353
 9277POPC   NC354803  21.406   5.911   5.553
 9277POPC   PO454804  21.411   5.874   5.853
 9277POPC   GL154805  21.427   5.821   6.153
 9277POPC   GL254806  21.389   5.963   6.153
 9277POPC   C1A54807  21.351   5.886   6.453
 9277POPC   D2A54808  21.394   5.894   6.753
 9277POPC   C3A54809  21.364   5.827   7.053
 9277POPC   C4A54810  21.384   5.894   7.353
 9277POPC   C1B54811  21.261   6.122   6.453
 9277POPC   C2B54812  21.304   6.081   6.753
 9277POPC   C3B54813  21.315   6.117   7.053
 9277POPC   C4B54814  21.347   6.091   7.353
 9278POPC   NC354815   1.238   1.962   5.553
 9278POPC   PO454816   1.224   2.036   5.853
 9278POPC   GL154817   1.217   1.995   6.153
 9278POPC   GL254818   1.155   2.065   6.153
 9278POPC   C1A54819   1.213   2.017   6.453
 9278POPC   D2A54820   1.210   2.003   6.753
 9278POPC   C3A54821   1.175   1.977   7.053
 9278POPC   C4A54822   1.185   1.995   7.353
 9278POPC   C1B54823   1.074   2.232   6.453
 9278POPC   C2B54824   1.114   2.183   6.753
 9278POPC   C3B54825   1.105   2.175   7.053
 9278POPC   C4B54826   1.033   2.146   7.353
 9279POPC   NC354827  33.833  25.248   5.553
 9279POPC   PO454828  33.769  25.257   5.853
 9279POPC   GL154829  33.773  25.290   6.153
 9279POPC   GL254830  33.891  25.208   6.153
 9279POPC   C1A54831  33.798  25.299   6.453
 9279POPC   D2A54832  33.814  25.222   6.753
 9279POPC   C3A54833  33.764  25.304   7.053
 9279POPC   C4A54834  33.788  25.312   7.353
 9279POPC   C1B54835  34.040  25.142   6.453
 9279POPC   C2B54836  34.070  25.150   6.753
 9279POPC   C3B54837  34.024  25.139   7.053
 9279POPC   C4B54838  33.978  25.148   7.353
 9280POPC   NC354839  23.672  33.013   5.553
 9280POPC   PO454840  23.693  33.060   5.853
 9280POPC   GL154841  23.696  33.024   6.153
 9280POPC   GL254842  23.717  32.911   6.153
 9280POPC   C1A54843  23.683  33.042   6.453
 9280POPC   D2A54844  23.711  32.992   6.753
 9280POPC   C3A54845  23.763  33.015   7.053
 9280POPC   C4A54846  23.711  33.026   7.353
 9280POPC   C1B54847  23.634  32.766   6.453
 9280POPC   C2B54848  23.683  32.746   6.753
 9280POPC   C3B54849  23.732  32.770   7.053
 9280POPC   C4B54850  23.689  32.804   7.353
 9281POPC   NC354851   3.515  13.621   5.553
 9281POPC   PO454852   3.515  13.602   5.853
 9281POPC   GL154853   3.536  13.625   6.153
 9281POPC   GL254854   3.568  13.749   6.153
 9281POPC   C1A54855   3.543  13.619   6.453
 9281POPC   D2A54856   3.586  13.587   6.753
 9281POPC   C3A54857   3.492  13.613   7.053
 9281POPC   C4A54858   3.507  13.592   7.353
 9281POPC   C1B54859   3.619  13.866   6.453
 9281POPC   C2B54860   3.666  13.809   6.753
 9281POPC   C3B54861   3.632  13.882   7.053
 9281POPC   C4B54862   3.630  13.863   7.353
 9282POPC   NC354863  29.925  12.828   5.553
 9282POPC   PO454864  29.912  12.873   5.853
 9282POPC   GL154865  29.956  12.824   6.153
 9282POPC   GL254866  29.835  12.858   6.153
 9282POPC   C1A54867  29.901  12.863   6.453
 9282POPC   D2A54868  29.885  12.893   6.753
 9282POPC   C3A54869  29.926  12.807   7.053
 9282POPC   C4A54870  29.960  12.863   7.353
 9282POPC   C1B54871  29.691  12.923   6.453
 9282POPC   C2B54872  29.665  12.910   6.753
 9282POPC   C3B54873  29.675  12.906   7.053
 9282POPC   C4B54874  29.717  12.963   7.353
 9283POPC   NC354875  29.872  35.332   5.553
 9283POPC   PO454876  29.886  35.397   5.853
 9283POPC   GL154877  29.949  35.305   6.153
 9283POPC   GL254878  30.016  35.406   6.153
 9283POPC   C1A54879  29.904  35.388   6.453
 9283POPC   D2A54880  29.966  35.394   6.753
 9283POPC   C3A54881  29.966  35.305   7.053
 9283POPC   C4A54882  29.877  35.345   7.353
 9283POPC   C1B54883  30.058  35.551   6.453
 9283POPC   C2B54884  30.147  35.538   6.753
 9283POPC   C3B54885  30.108  35.498   7.053
 9283POPC   C4B54886  30.150  35.481   7.353
 9284POPC   NC354887   1.215  28.379   5.553
 9284POPC   PO454888   1.207  28.326   5.853
 9284POPC   GL154889   1.204  28.394   6.153
 9284POPC   GL254890   1.277  28.437   6.153
 9284POPC   C1A54891   1.248  28.335   6.453
 9284POPC   D2A54892   1.231  28.371   6.753
 9284POPC   C3A54893   1.201  28.408   7.053
 9284POPC   C4A54894   1.188  28.362   7.353
 9284POPC   C1B54895   1.349  28.524   6.453
 9284POPC   C2B54896   1.366  28.532   6.753
 9284POPC   C3B54897   1.354  28.515   7.053
 9284POPC   C4B54898   1.436  28.526   7.353
 9285POPC   NC354899  29.939   3.553   5.553
 9285POPC   PO454900  29.967   3.576   5.853
 9285POPC   GL154901  29.872   3.558   6.153
 9285POPC   GL254902  29.840   3.597   6.153
 9285POPC   C1A54903  29.962   3.591   6.453
 9285POPC   D2A54904  29.888   3.575   6.753
 9285POPC   C3A54905  29.875   3.550   7.053
 9285POPC   C4A54906  29.930   3.509   7.353
 9285POPC   C1B54907  29.725   3.733   6.453
 9285POPC   C2B54908  29.676   3.651   6.753
 9285POPC   C3B54909  29.679   3.695   7.053
 9285POPC   C4B54910  29.747   3.648   7.353
 9286POPC   NC354911  36.901  14.365   5.553
 9286POPC   PO454912  36.894  14.382   5.853
 9286POPC   GL154913  36.866  14.400   6.153
 9286POPC   GL254914  36.974  14.450   6.153
 9286POPC   C1A54915  36.896  14.370   6.453
 9286POPC   D2A54916  36.950  14.400   6.753
 9286POPC   C3A54917  36.909  14.408   7.053
 9286POPC   C4A54918  36.867  14.360   7.353
 9286POPC   C1B54919  37.093  14.479   6.453
 9286POPC   C2B54920  37.135  14.481   6.753
 9286POPC   C3B54921  37.185  14.458   7.053
 9286POPC   C4B54922  37.135  14.515   7.353
 9287POPC   NC354923   5.128  16.691   5.553
 9287POPC   PO454924   5.047  16.771   5.853
 9287POPC   GL154925   5.129  16.692   6.153
 9287POPC   GL254926   5.015  16.687   6.153
 9287POPC   C1A54927   5.064  16.713   6.453
 9287POPC   D2A54928   5.086  16.708   6.753
 9287POPC   C3A54929   5.103  16.733   7.053
 9287POPC   C4A54930   5.056  16.728   7.353
 9287POPC   C1B54931   4.805  16.648   6.453
 9287POPC   C2B54932   4.811  16.681   6.753
 9287POPC   C3B54933   4.840  16.668   7.053
 9287POPC   C4B54934   4.869  16.630   7.353
 9288POPC   NC354935  28.326   8.227   5.553
 9288POPC   PO454936  28.362   8.191   5.853
 9288POPC   GL154937  28.384   8.229   6.153
 9288POPC   GL254938  28.481   8.192   6.153
 9288POPC   C1A54939  28.400   8.211   6.453
 9288POPC   D2A54940  28.344   8.231   6.753
 9288POPC   C3A54941  28.391   8.209   7.053
 9288POPC   C4A54942  28.395   8.153   7.353
 9288POPC   C1B54943  28.630   8.227   6.453
 9288POPC   C2B54944  28.598   8.169   6.753
 9288POPC   C3B54945  28.601   8.258   7.053
 9288POPC   C4B54946  28.640   8.224   7.353
 9289POPC   NC354947  13.580   0.393   5.553
 9289POPC   PO454948  13.629   0.411   5.853
 9289POPC   GL154949  13.618   0.412   6.153
 9289POPC   GL254950  13.704   0.419   6.153
 9289POPC   C1A54951  13.591   0.427   6.453
 9289POPC   D2A54952  13.612   0.477   6.753
 9289POPC   C3A54953  13.606   0.409   7.053
 9289POPC   C4A54954  13.674   0.393   7.353
 9289POPC   C1B54955  13.856   0.334   6.453
 9289POPC   C2B54956  13.875   0.311   6.753
 9289POPC   C3B54957  13.875   0.269   7.053
 9289POPC   C4B54958  13.865   0.262   7.353
 9290POPC   NC354959  19.797   3.564   5.553
 9290POPC   PO454960  19.866   3.516   5.853
 9290POPC   GL154961  19.881   3.524   6.153
 9290POPC   GL254962  19.914   3.556   6.153
 9290POPC   C1A54963  19.870   3.520   6.453
 9290POPC   D2A54964  19.786   3.513   6.753
 9290POPC   C3A54965  19.808   3.560   7.053
 9290POPC   C4A54966  19.849   3.514   7.353
 9290POPC   C1B54967  20.120   3.556   6.453
 9290POPC   C2B54968  20.036   3.560   6.753
 9290POPC   C3B54969  20.034   3.538   7.053
 9290POPC   C4B54970  20.098   3.571   7.353
 9291POPC   NC354971  38.432  31.502   5.553
 9291POPC   PO454972  38.501  31.512   5.853
 9291POPC   GL154973  38.419  31.511   6.153
 9291POPC   GL254974  38.541  31.594   6.153
 9291POPC   C1A54975  38.417  31.503   6.453
 9291POPC   D2A54976  38.423  31.438   6.753
 9291POPC   C3A54977  38.499  31.468   7.053
 9291POPC   C4A54978  38.505  31.467   7.353
 9291POPC   C1B54979  38.587  31.680   6.453
 9291POPC   C2B54980  38.584  31.704   6.753
 9291POPC   C3B54981  38.634  31.655   7.053
 9291POPC   C4B54982  38.545  31.668   7.353
 9292POPC   NC354983   2.781  44.690   5.553
 9292POPC   PO454984   2.769  44.685   5.853
 9292POPC   GL154985   2.770  44.620   6.153
 9292POPC   GL254986   2.929  44.662   6.153
 9292POPC   C1A54987   2.725  44.613   6.453
 9292POPC   D2A54988   2.726  44.701   6.753
 9292POPC   C3A54989   2.799  44.656   7.053
 9292POPC   C4A54990   2.734  44.702   7.353
 9292POPC   C1B54991   3.028  44.754   6.453
 9292POPC   C2B54992   2.991  44.690   6.753
 9292POPC   C3B54993   2.978  44.678   7.053
 9292POPC   C4B54994   3.035  44.705   7.353
 9293POPC   NC354995  21.363   9.765   5.553
 9293POPC   PO454996  21.394   9.741   5.853
 9293POPC   GL154997  21.394   9.744   6.153
 9293POPC   GL254998  21.415   9.835   6.153
 9293POPC   C1A54999  21.389   9.784   6.453
 9293POPC   D2A55000  21.346   9.726   6.753
 9293POPC   C3A55001  21.366   9.727   7.053
 9293POPC   C4A55002  21.391   9.767   7.353
 9293POPC   C1B55003  21.445   9.949   6.453
 9293POPC   C2B55004  21.513  10.028   6.753
 9293POPC   C3B55005  21.438   9.963   7.053
 9293POPC   C4B55006  21.508   9.951   7.353
 9294POPC   NC355007  24.448  22.144   5.553
 9294POPC   PO455008  24.448  22.142   5.853
 9294POPC   GL155009  24.509  22.143   6.153
 9294POPC   GL255010  24.355  22.116   6.153
 9294POPC   C1A55011  24.472  22.156   6.453
 9294POPC   D2A55012  24.474  22.212   6.753
 9294POPC   C3A55013  24.506  22.166   7.053
 9294POPC   C4A55014  24.465  22.113   7.353
 9294POPC   C1B55015  24.264  22.057   6.453
 9294POPC   C2B55016  24.293  22.053   6.753
 9294POPC   C3B55017  24.246  22.050   7.053
 9294POPC   C4B55018  24.223  22.083   7.353
 9295POPC   NC355019   0.391  36.160   5.553
 9295POPC   PO455020   0.455  36.121   5.853
 9295POPC   GL155021   0.475  36.152   6.153
 9295POPC   GL255022   0.434  36.044   6.153
 9295POPC   C1A55023   0.406  36.131   6.453
 9295POPC   D2A55024   0.415  36.129   6.753
 9295POPC   C3A55025   0.407  36.159   7.053
 9295POPC   C4A55026   0.405  36.147   7.353
 9295POPC   C1B55027   0.417  35.909   6.453
 9295POPC   C2B55028   0.410  35.850   6.753
 9295POPC   C3B55029   0.428  35.906   7.053
 9295POPC   C4B55030   0.396  35.925   7.353
 9296POPC   NC355031  15.193   3.512   5.553
 9296POPC   PO455032  15.192   3.553   5.853
 9296POPC   GL155033  15.135   3.523   6.153
 9296POPC   GL255034  15.293   3.440   6.153
 9296POPC   C1A55035  15.149   3.496   6.453
 9296POPC   D2A55036  15.166   3.551   6.753
 9296POPC   C3A55037  15.158   3.526   7.053
 9296POPC   C4A55038  15.202   3.564   7.353
 9296POPC   C1B55039  15.383   3.455   6.453
 9296POPC   C2B55040  15.361   3.410   6.753
 9296POPC   C3B55041  15.451   3.391   7.053
 9296POPC   C4B55042  15.395   3.402   7.353
 9297POPC   NC355043  24.502  20.616   5.553
 9297POPC   PO455044  24.529  20.620   5.853
 9297POPC   GL155045  24.462  20.607   6.153
 9297POPC   GL255046  24.564  20.551   6.153
 9297POPC   C1A55047  24.478  20.572   6.453
 9297POPC   D2A55048  24.457  20.604   6.753
 9297POPC   C3A55049  24.464  20.592   7.053
 9297POPC   C4A55050  24.440  20.642   7.353
 9297POPC   C1B55051  24.668  20.469   6.453
 9297POPC   C2B55052  24.745  20.549   6.753
 9297POPC   C3B55053  24.731  20.536   7.053
 9297POPC   C4B55054  24.707  20.545   7.353
 9298POPC   NC355055   7.385  30.662   5.553
 9298POPC   PO455056   7.446  30.726   5.853
 9298POPC   GL155057   7.422  30.736   6.153
 9298POPC   GL255058   7.309  30.787   6.153
 9298POPC   C1A55059   7.399  30.670   6.453
 9298POPC   D2A55060   7.464  30.736   6.753
 9298POPC   C3A55061   7.404  30.668   7.053
 9298POPC   C4A55062   7.451  30.727   7.353
 9298POPC   C1B55063   7.267  30.806   6.453
 9298POPC   C2B55064   7.239  30.829   6.753
 9298POPC   C3B55065   7.224  30.889   7.053
 9298POPC   C4B55066   7.259  30.867   7.353
 9299POPC   NC355067  29.902  29.871   5.553
 9299POPC   PO455068  29.950  29.938   5.853
 9299POPC   GL155069  29.890  29.931   6.153
 9299POPC   GL255070  30.047  30.058   6.153
 9299POPC   C1A55071  29.950  29.942   6.453
 9299POPC   D2A55072  29.886  29.921   6.753
 9299POPC   C3A55073  29.926  29.968   7.053
 9299POPC   C4A55074  29.962  29.931   7.353
 9299POPC   C1B55075  30.089  30.152   6.453
 9299POPC   C2B55076  30.096  30.099   6.753
 9299POPC   C3B55077  30.108  30.105   7.053
 9299POPC   C4B55078  30.055  30.054   7.353
 9300POPC   NC355079   8.925  25.247   5.553
 9300POPC   PO455080   8.964  25.237   5.853
 9300POPC   GL155081   8.936  25.217   6.153
 9300POPC   GL255082   9.026  25.427   6.153
 9300POPC   C1A55083   8.984  25.227   6.453
 9300POPC   D2A55084   9.015  25.302   6.753
 9300POPC   C3A55085   8.933  25.267   7.053
 9300POPC   C4A55086   8.932  25.309   7.353
 9300POPC   C1B55087   9.089  25.480   6.453
 9300POPC   C2B55088   9.050  25.503   6.753
 9300POPC   C3B55089   9.109  25.448   7.053
 9300POPC   C4B55090   9.115  25.477   7.353
 9301POPC   NC355091  33.849  15.144   5.553
 9301POPC   PO455092  33.810  15.174   5.853
 9301POPC   GL155093  33.783  15.185   6.153
 9301POPC   GL255094  33.851  15.050   6.153
 9301POPC   C1A55095  33.790  15.164   6.453
 9301POPC   D2A55096  33.805  15.187   6.753
 9301POPC   C3A55097  33.760  15.187   7.053
 9301POPC   C4A55098  33.776  15.222   7.353
 9301POPC   C1B55099  33.895  15.010   6.453
 9301POPC   C2B55100  33.902  14.931   6.753
 9301POPC   C3B55101  33.981  14.978   7.053
 9301POPC   C4B55102  33.950  15.013   7.353
 9302POPC   NC355103  43.089  40.811   5.553
 9302POPC   PO455104  43.090  40.797   5.853
 9302POPC   GL155105  43.095  40.797   6.153
 9302POPC   GL255106  43.204  40.820   6.153
 9302POPC   C1A55107  43.126  40.800   6.453
 9302POPC   D2A55108  43.061  40.802   6.753
 9302POPC   C3A55109  43.088  40.787   7.053
 9302POPC   C4A55110  43.065  40.798   7.353
 9302POPC   C1B55111  43.319  40.866   6.453
 9302POPC   C2B55112  43.351  40.886   6.753
 9302POPC   C3B55113  43.325  40.913   7.053
 9302POPC   C4B55114  43.360  40.953   7.353
 9303POPC   NC355115  30.732  39.208   5.553
 9303POPC   PO455116  30.674  39.187   5.853
 9303POPC   GL155117  30.737  39.232   6.153
 9303POPC   GL255118  30.569  39.287   6.153
 9303POPC   C1A55119  30.698  39.274   6.453
 9303POPC   D2A55120  30.655  39.215   6.753
 9303POPC   C3A55121  30.659  39.199   7.053
 9303POPC   C4A55122  30.677  39.217   7.353
 9303POPC   C1B55123  30.487  39.295   6.453
 9303POPC   C2B55124  30.450  39.284   6.753
 9303POPC   C3B55125  30.497  39.357   7.053
 9303POPC   C4B55126  30.464  39.268   7.353
 9304POPC   NC355127  30.746   3.572   5.553
 9304POPC   PO455128  30.673   3.551   5.853
 9304POPC   GL155129  30.721   3.523   6.153
 9304POPC   GL255130  30.603   3.489   6.153
 9304POPC   C1A55131  30.697   3.523   6.453
 9304POPC   D2A55132  30.651   3.584   6.753
 9304POPC   C3A55133  30.735   3.516   7.053
 9304POPC   C4A55134  30.664   3.499   7.353
 9304POPC   C1B55135  30.433   3.451   6.453
 9304POPC   C2B55136  30.441   3.502   6.753
 9304POPC   C3B55137  30.485   3.438   7.053
 9304POPC   C4B55138  30.476   3.456   7.353
 9305POPC   NC355139  41.603   0.468   5.553
 9305POPC   PO455140  41.585   0.460   5.853
 9305POPC   GL155141  41.532   0.403   6.153
 9305POPC   GL255142  41.564   0.526   6.153
 9305POPC   C1A55143  41.537   0.413   6.453
 9305POPC   D2A55144  41.579   0.474   6.753
 9305POPC   C3A55145  41.559   0.468   7.053
 9305POPC   C4A55146  41.548   0.470   7.353
 9305POPC   C1B55147  41.604   0.717   6.453
 9305POPC   C2B55148  41.613   0.638   6.753
 9305POPC   C3B55149  41.617   0.691   7.053
 9305POPC   C4B55150  41.627   0.711   7.353
 9306POPC   NC355151  15.215   6.608   5.553
 9306POPC   PO455152  15.203   6.633   5.853
 9306POPC   GL155153  15.140   6.684   6.153
 9306POPC   GL255154  15.181   6.539   6.153
 9306POPC   C1A55155  15.212   6.643   6.453
 9306POPC   D2A55156  15.201   6.612   6.753
 9306POPC   C3A55157  15.139   6.691   7.053
 9306POPC   C4A55158  15.226   6.615   7.353
 9306POPC   C1B55159  15.236   6.361   6.453
 9306POPC   C2B55160  15.258   6.440   6.753
 9306POPC   C3B55161  15.304   6.369   7.053
 9306POPC   C4B55162  15.241   6.385   7.353
 9307POPC   NC355163  34.578  43.095   5.553
 9307POPC   PO455164  34.537  43.074   5.853
 9307POPC   GL155165  34.537  43.098   6.153
 9307POPC   GL255166  34.631  43.033   6.153
 9307POPC   C1A55167  34.591  43.094   6.453
 9307POPC   D2A55168  34.579  43.114   6.753
 9307POPC   C3A55169  34.607  43.113   7.053
 9307POPC   C4A55170  34.621  43.139   7.353
 9307POPC   C1B55171  34.754  42.937   6.453
 9307POPC   C2B55172  34.748  42.978   6.753
 9307POPC   C3B55173  34.746  42.982   7.053
 9307POPC   C4B55174  34.734  42.928   7.353
 9308POPC   NC355175  19.833  19.052   5.553
 9308POPC   PO455176  19.838  19.034   5.853
 9308POPC   GL155177  19.836  19.074   6.153
 9308POPC   GL255178  19.903  19.027   6.153
 9308POPC   C1A55179  19.829  19.052   6.453
 9308POPC   D2A55180  19.837  19.019   6.753
 9308POPC   C3A55181  19.832  19.019   7.053
 9308POPC   C4A55182  19.818  19.026   7.353
 9308POPC   C1B55183  19.995  18.873   6.453
 9308POPC   C2B55184  19.994  18.912   6.753
 9308POPC   C3B55185  19.986  18.915   7.053
 9308POPC   C4B55186  20.064  18.916   7.353
 9309POPC   NC355187  37.724  43.087   5.553
 9309POPC   PO455188  37.655  43.100   5.853
 9309POPC   GL155189  37.630  43.117   6.153
 9309POPC   GL255190  37.772  43.243   6.153
 9309POPC   C1A55191  37.660  43.114   6.453
 9309POPC   D2A55192  37.711  43.131   6.753
 9309POPC   C3A55193  37.664  43.100   7.053
 9309POPC   C4A55194  37.692  43.154   7.353
 9309POPC   C1B55195  37.837  43.351   6.453
 9309POPC   C2B55196  37.815  43.322   6.753
 9309POPC   C3B55197  37.825  43.334   7.053
 9309POPC   C4B55198  37.807  43.297   7.353
 9310POPC   NC355199   2.799  22.193   5.553
 9310POPC   PO455200   2.742  22.199   5.853
 9310POPC   GL155201   2.788  22.127   6.153
 9310POPC   GL255202   2.696  22.232   6.153
 9310POPC   C1A55203   2.809  22.193   6.453
 9310POPC   D2A55204   2.790  22.183   6.753
 9310POPC   C3A55205   2.756  22.191   7.053
 9310POPC   C4A55206   2.773  22.201   7.353
 9310POPC   C1B55207   2.503  22.278   6.453
 9310POPC   C2B55208   2.552  22.224   6.753
 9310POPC   C3B55209   2.512  22.308   7.053
 9310POPC   C4B55210   2.581  22.224   7.353
 9311POPC   NC355211  39.255  18.249   5.553
 9311POPC   PO455212  39.194  18.234   5.853
 9311POPC   GL155213  39.271  18.258   6.153
 9311POPC   GL255214  39.386  18.344   6.153
 9311POPC   C1A55215  39.237  18.320   6.453
 9311POPC   D2A55216  39.194  18.270   6.753
 9311POPC   C3A55217  39.210  18.271   7.053
 9311POPC   C4A55218  39.185  18.329   7.353
 9311POPC   C1B55219  39.480  18.383   6.453
 9311POPC   C2B55220  39.502  18.373   6.753
 9311POPC   C3B55221  39.450  18.352   7.053
 9311POPC   C4B55222  39.506  18.333   7.353
 9312POPC   NC355223  42.354  19.855   5.553
 9312POPC   PO455224  42.318  19.844   5.853
 9312POPC   GL155225  42.353  19.805   6.153
 9312POPC   GL255226  42.256  19.948   6.153
 9312POPC   C1A55227  42.367  19.868   6.453
 9312POPC   D2A55228  42.296  19.828   6.753
 9312POPC   C3A55229  42.293  19.860   7.053
 9312POPC   C4A55230  42.317  19.860   7.353
 9312POPC   C1B55231  42.216  20.062   6.453
 9312POPC   C2B55232  42.159  20.014   6.753
 9312POPC   C3B55233  42.229  20.083   7.053
 9312POPC   C4B55234  42.247  20.047   7.353
 9313POPC   NC355235  34.597  24.491   5.553
 9313POPC   PO455236  34.583  24.477   5.853
 9313POPC   GL155237  34.573  24.494   6.153
 9313POPC   GL255238  34.688  24.508   6.153
 9313POPC   C1A55239  34.571  24.499   6.453
 9313POPC   D2A55240  34.540  24.452   6.753
 9313POPC   C3A55241  34.622  24.464   7.053
 9313POPC   C4A55242  34.607  24.512   7.353
 9313POPC   C1B55243  34.872  24.450   6.453
 9313POPC   C2B55244  34.818  24.495   6.753
 9313POPC   C3B55245  34.806  24.510   7.053
 9313POPC   C4B55246  34.823  24.534   7.353
 9314POPC   NC355247  17.508  20.656   5.553
 9314POPC   PO455248  17.535  20.628   5.853
 9314POPC   GL155249  17.489  20.600   6.153
 9314POPC   GL255250  17.390  20.629   6.153
 9314POPC   C1A55251  17.549  20.561   6.453
 9314POPC   D2A55252  17.521  20.625   6.753
 9314POPC   C3A55253  17.471  20.611   7.053
 9314POPC   C4A55254  17.485  20.605   7.353
 9314POPC   C1B55255  17.289  20.608   6.453
 9314POPC   C2B55256  17.243  20.594   6.753
 9314POPC   C3B55257  17.281  20.669   7.053
 9314POPC   C4B55258  17.282  20.647   7.353
 9315POPC   NC355259  36.906   4.299   5.553
 9315POPC   PO455260  36.915   4.314   5.853
 9315POPC   GL155261  36.938   4.323   6.153
 9315POPC   GL255262  36.793   4.250   6.153
 9315POPC   C1A55263  36.887   4.355   6.453
 9315POPC   D2A55264  36.864   4.344   6.753
 9315POPC   C3A55265  36.868   4.311   7.053
 9315POPC   C4A55266  36.937   4.319   7.353
 9315POPC   C1B55267  36.681   4.275   6.453
 9315POPC   C2B55268  36.649   4.304   6.753
 9315POPC   C3B55269  36.652   4.280   7.053
 9315POPC   C4B55270  36.680   4.266   7.353
 9316POPC   NC355271  19.805  26.015   5.553
 9316POPC   PO455272  19.809  26.050   5.853
 9316POPC   GL155273  19.847  26.015   6.153
 9316POPC   GL255274  19.707  25.903   6.153
 9316POPC   C1A55275  19.798  26.056   6.453
 9316POPC   D2A55276  19.879  26.000   6.753
 9316POPC   C3A55277  19.832  26.064   7.053
 9316POPC   C4A55278  19.820  26.004   7.353
 9316POPC   C1B55279  19.692  25.841   6.453
 9316POPC   C2B55280  19.635  25.821   6.753
 9316POPC   C3B55281  19.646  25.871   7.053
 9316POPC   C4B55282  19.640  25.840   7.353
 9317POPC   NC355283  15.222  23.712   5.553
 9317POPC   PO455284  15.157  23.676   5.853
 9317POPC   GL155285  15.197  23.754   6.153
 9317POPC   GL255286  15.278  23.641   6.153
 9317POPC   C1A55287  15.177  23.719   6.453
 9317POPC   D2A55288  15.223  23.755   6.753
 9317POPC   C3A55289  15.164  23.691   7.053
 9317POPC   C4A55290  15.224  23.715   7.353
 9317POPC   C1B55291  15.428  23.641   6.453
 9317POPC   C2B55292  15.367  23.611   6.753
 9317POPC   C3B55293  15.393  23.577   7.053
 9317POPC   C4B55294  15.373  23.583   7.353
 9318POPC   NC355295  35.369  44.688   5.553
 9318POPC   PO455296  35.370  44.698   5.853
 9318POPC   GL155297  35.303  44.615   6.153
 9318POPC   GL255298  35.220  44.586   6.153
 9318POPC   C1A55299  35.329  44.667   6.453
 9318POPC   D2A55300  35.348  44.696   6.753
 9318POPC   C3A55301  35.391  44.641   7.053
 9318POPC   C4A55302  35.346  44.647   7.353
 9318POPC   C1B55303  35.081  44.525   6.453
 9318POPC   C2B55304  35.119  44.555   6.753
 9318POPC   C3B55305  35.168  44.599   7.053
 9318POPC   C4B55306  35.154  44.514   7.353
 9319POPC   NC355307  16.777  33.824   5.553
 9319POPC   PO455308  16.746  33.774   5.853
 9319POPC   GL155309  16.696  33.760   6.153
 9319POPC   GL255310  16.816  33.790   6.153
 9319POPC   C1A55311  16.754  33.837   6.453
 9319POPC   D2A55312  16.691  33.823   6.753
 9319POPC   C3A55313  16.715  33.778   7.053
 9319POPC   C4A55314  16.738  33.783   7.353
 9319POPC   C1B55315  16.957  33.789   6.453
 9319POPC   C2B55316  17.021  33.776   6.753
 9319POPC   C3B55317  17.025  33.728   7.053
 9319POPC   C4B55318  17.017  33.787   7.353
 9320POPC   NC355319  16.747  26.847   5.553
 9320POPC   PO455320  16.704  26.772   5.853
 9320POPC   GL155321  16.774  26.813   6.153
 9320POPC   GL255322  16.647  26.728   6.153
 9320POPC   C1A55323  16.755  26.804   6.453
 9320POPC   D2A55324  16.697  26.846   6.753
 9320POPC   C3A55325  16.708  26.833   7.053
 9320POPC   C4A55326  16.695  26.783   7.353
 9320POPC   C1B55327  16.468  26.777   6.453
 9320POPC   C2B55328  16.454  26.711   6.753
 9320POPC   C3B55329  16.518  26.730   7.053
 9320POPC   C4B55330  16.465  26.693   7.353
 9321POPC   NC355331  32.262  29.194   5.553
 9321POPC   PO455332  32.244  29.112   5.853
 9321POPC   GL155333  32.266  29.119   6.153
 9321POPC   GL255334  32.253  29.024   6.153
 9321POPC   C1A55335  32.239  29.182   6.453
 9321POPC   D2A55336  32.204  29.158   6.753
 9321POPC   C3A55337  32.268  29.141   7.053
 9321POPC   C4A55338  32.219  29.155   7.353
 9321POPC   C1B55339  32.166  28.857   6.453
 9321POPC   C2B55340  32.211  28.952   6.753
 9321POPC   C3B55341  32.161  28.902   7.053
 9321POPC   C4B55342  32.148  28.909   7.353
 9322POPC   NC355343   9.796  44.663   5.553
 9322POPC   PO455344   9.702  44.711   5.853
 9322POPC   GL155345   9.715  44.685   6.153
 9322POPC   GL255346   9.840  44.688   6.153
 9322POPC   C1A55347   9.790  44.634   6.453
 9322POPC   D2A55348   9.774  44.642   6.753
 9322POPC   C3A55349   9.790  44.703   7.053
 9322POPC   C4A55350   9.745  44.649   7.353
 9322POPC   C1B55351   9.971  44.759   6.453
 9322POPC   C2B55352   9.969  44.692   6.753
 9322POPC   C3B55353   9.945  44.724   7.053
 9322POPC   C4B55354   9.976  44.746   7.353
 9323POPC   NC355355  28.393   9.740   5.553
 9323POPC   PO455356  28.353   9.790   5.853
 9323POPC   GL155357  28.347   9.726   6.153
 9323POPC   GL255358  28.454   9.675   6.153
 9323POPC   C1A55359  28.390   9.710   6.453
 9323POPC   D2A55360  28.412   9.763   6.753
 9323POPC   C3A55361  28.368   9.722   7.053
 9323POPC   C4A55362  28.342   9.726   7.353
 9323POPC   C1B55363  28.659   9.674   6.453
 9323POPC   C2B55364  28.570   9.741   6.753
 9323POPC   C3B55365  28.588   9.677   7.053
 9323POPC   C4B55366  28.656   9.724   7.353
 9324POPC   NC355367   2.811   8.197   5.553
 9324POPC   PO455368   2.768   8.194   5.853
 9324POPC   GL155369   2.730   8.168   6.153
 9324POPC   GL255370   2.749   8.052   6.153
 9324POPC   C1A55371   2.743   8.172   6.453
 9324POPC   D2A55372   2.793   8.229   6.753
 9324POPC   C3A55373   2.751   8.227   7.053
 9324POPC   C4A55374   2.802   8.189   7.353
 9324POPC   C1B55375   2.783   7.968   6.453
 9324POPC   C2B55376   2.782   7.970   6.753
 9324POPC   C3B55377   2.779   7.965   7.053
 9324POPC   C4B55378   2.720   7.919   7.353
 9325POPC   NC355379  21.393  20.608   5.553
 9325POPC   PO455380  21.364  20.657   5.853
 9325POPC   GL155381  21.428  20.626   6.153
 9325POPC   GL255382  21.257  20.594   6.153
 9325POPC   C1A55383  21.365  20.604   6.453
 9325POPC   D2A55384  21.344  20.597   6.753
 9325POPC   C3A55385  21.343  20.619   7.053
 9325POPC   C4A55386  21.401  20.639   7.353
 9325POPC   C1B55387  21.177  20.673   6.453
 9325POPC   C2B55388  21.180  20.610   6.753
 9325POPC   C3B55389  21.177  20.602   7.053
 9325POPC   C4B55390  21.126  20.626   7.353
 9326POPC   NC355391  28.332  13.646   5.553
 9326POPC   PO455392  28.324  13.623   5.853
 9326POPC   GL155393  28.365  13.583   6.153
 9326POPC   GL255394  28.259  13.697   6.153
 9326POPC   C1A55395  28.385  13.624   6.453
 9326POPC   D2A55396  28.411  13.656   6.753
 9326POPC   C3A55397  28.396  13.618   7.053
 9326POPC   C4A55398  28.373  13.621   7.353
 9326POPC   C1B55399  28.288  13.868   6.453
 9326POPC   C2B55400  28.259  13.847   6.753
 9326POPC   C3B55401  28.201  13.886   7.053
 9326POPC   C4B55402  28.249  13.864   7.353
 9327POPC   NC355403  30.662  35.319   5.553
 9327POPC   PO455404  30.697  35.383   5.853
 9327POPC   GL155405  30.716  35.354   6.153
 9327POPC   GL255406  30.779  35.386   6.153
 9327POPC   C1A55407  30.655  35.305   6.453
 9327POPC   D2A55408  30.667  35.350   6.753
 9327POPC   C3A55409  30.729  35.347   7.053
 9327POPC   C4A55410  30.672  35.351   7.353
 9327POPC   C1B55411  30.929  35.358   6.453
 9327POPC   C2B55412  30.973  35.357   6.753
 9327POPC   C3B55413  30.954  35.334   7.053
 9327POPC   C4B55414  30.945  35.321   7.353
 9328POPC   NC355415   5.092  12.108   5.553
 9328POPC   PO455416   5.104  12.061   5.853
 9328POPC   GL155417   5.082  12.114   6.153
 9328POPC   GL255418   4.921  12.029   6.153
 9328POPC   C1A55419   5.067  12.098   6.453
 9328POPC   D2A55420   5.134  12.073   6.753
 9328POPC   C3A55421   5.138  12.059   7.053
 9328POPC   C4A55422   5.098  12.103   7.353
 9328POPC   C1B55423   4.860  12.026   6.453
 9328POPC   C2B55424   4.874  12.084   6.753
 9328POPC   C3B55425   4.849  12.001   7.053
 9328POPC   C4B55426   4.801  11.994   7.353
 9329POPC   NC355427  11.257  26.007   5.553
 9329POPC   PO455428  11.282  26.065   5.853
 9329POPC   GL155429  11.345  26.045   6.153
 9329POPC   GL255430  11.310  25.939   6.153
 9329POPC   C1A55431  11.296  26.082   6.453
 9329POPC   D2A55432  11.260  26.022   6.753
 9329POPC   C3A55433  11.295  26.060   7.053
 9329POPC   C4A55434  11.337  26.041   7.353
 9329POPC   C1B55435  11.299  25.766   6.453
 9329POPC   C2B55436  11.306  25.800   6.753
 9329POPC   C3B55437  11.333  25.755   7.053
 9329POPC   C4B55438  11.298  25.819   7.353
 9330POPC   NC355439  10.480  22.121   5.553
 9330POPC   PO455440  10.549  22.202   5.853
 9330POPC   GL155441  10.509  22.148   6.153
 9330POPC   GL255442  10.581  22.012   6.153
 9330POPC   C1A55443  10.504  22.199   6.453
 9330POPC   D2A55444  10.546  22.172   6.753
 9330POPC   C3A55445  10.494  22.164   7.053
 9330POPC   C4A55446  10.525  22.130   7.353
 9330POPC   C1B55447  10.715  21.975   6.453
 9330POPC   C2B55448  10.649  22.006   6.753
 9330POPC   C3B55449  10.677  21.909   7.053
 9330POPC   C4B55450  10.679  21.952   7.353
 9331POPC   NC355451  32.233  26.063   5.553
 9331POPC   PO455452  32.236  26.061   5.853
 9331POPC   GL155453  32.214  26.037   6.153
 9331POPC   GL255454  32.181  25.906   6.153
 9331POPC   C1A55455  32.268  26.028   6.453
 9331POPC   D2A55456  32.245  26.036   6.753
 9331POPC   C3A55457  32.296  26.073   7.053
 9331POPC   C4A55458  32.207  26.006   7.353
 9331POPC   C1B55459  32.130  25.842   6.453
 9331POPC   C2B55460  32.099  25.805   6.753
 9331POPC   C3B55461  32.115  25.797   7.053
 9331POPC   C4B55462  32.064  25.793   7.353
 9332POPC   NC355463  15.930  31.423   5.553
 9332POPC   PO455464  15.948  31.459   5.853
 9332POPC   GL155465  15.992  31.461   6.153
 9332POPC   GL255466  15.889  31.584   6.153
 9332POPC   C1A55467  15.927  31.506   6.453
 9332POPC   D2A55468  15.938  31.486   6.753
 9332POPC   C3A55469  15.963  31.462   7.053
 9332POPC   C4A55470  15.970  31.490   7.353
 9332POPC   C1B55471  15.880  31.705   6.453
 9332POPC   C2B55472  15.934  31.707   6.753
 9332POPC   C3B55473  15.867  31.741   7.053
 9332POPC   C4B55474  15.898  31.738   7.353
 9333POPC   NC355475   5.907  40.045   5.553
 9333POPC   PO455476   5.919  39.990   5.853
 9333POPC   GL155477   5.902  39.986   6.153
 9333POPC   GL255478   5.777  39.937   6.153
 9333POPC   C1A55479   5.851  40.043   6.453
 9333POPC   D2A55480   5.910  40.049   6.753
 9333POPC   C3A55481   5.837  40.021   7.053
 9333POPC   C4A55482   5.890  40.000   7.353
 9333POPC   C1B55483   5.664  39.835   6.453
 9333POPC   C2B55484   5.653  39.854   6.753
 9333POPC   C3B55485   5.650  39.863   7.053
 9333POPC   C4B55486   5.702  39.874   7.353
 9334POPC   NC355487  39.254  14.414   5.553
 9334POPC   PO455488  39.212  14.379   5.853
 9334POPC   GL155489  39.263  14.405   6.153
 9334POPC   GL255490  39.339  14.340   6.153
 9334POPC   C1A55491  39.185  14.371   6.453
 9334POPC   D2A55492  39.228  14.365   6.753
 9334POPC   C3A55493  39.245  14.398   7.053
 9334POPC   C4A55494  39.236  14.413   7.353
 9334POPC   C1B55495  39.439  14.235   6.453
 9334POPC   C2B55496  39.401  14.254   6.753
 9334POPC   C3B55497  39.457  14.278   7.053
 9334POPC   C4B55498  39.388  14.187   7.353
 9335POPC   NC355499   4.306  33.799   5.553
 9335POPC   PO455500   4.341  33.814   5.853
 9335POPC   GL155501   4.329  33.753   6.153
 9335POPC   GL255502   4.466  33.786   6.153
 9335POPC   C1A55503   4.284  33.849   6.453
 9335POPC   D2A55504   4.327  33.798   6.753
 9335POPC   C3A55505   4.275  33.847   7.053
 9335POPC   C4A55506   4.269  33.777   7.353
 9335POPC   C1B55507   4.517  33.706   6.453
 9335POPC   C2B55508   4.491  33.632   6.753
 9335POPC   C3B55509   4.488  33.653   7.053
 9335POPC   C4B55510   4.517  33.643   7.353
 9336POPC   NC355511   1.947  23.685   5.553
 9336POPC   PO455512   1.997  23.724   5.853
 9336POPC   GL155513   2.017  23.674   6.153
 9336POPC   GL255514   2.115  23.651   6.153
 9336POPC   C1A55515   1.957  23.735   6.453
 9336POPC   D2A55516   1.958  23.670   6.753
 9336POPC   C3A55517   2.016  23.717   7.053
 9336POPC   C4A55518   1.940  23.755   7.353
 9336POPC   C1B55519   2.207  23.574   6.453
 9336POPC   C2B55520   2.209  23.554   6.753
 9336POPC   C3B55521   2.203  23.546   7.053
 9336POPC   C4B55522   2.153  23.599   7.353
 9337POPC   NC355523  36.932  35.306   5.553
 9337POPC   PO455524  36.892  35.318   5.853
 9337POPC   GL155525  36.864  35.310   6.153
 9337POPC   GL255526  36.853  35.449   6.153
 9337POPC   C1A55527  36.937  35.349   6.453
 9337POPC   D2A55528  36.930  35.354   6.753
 9337POPC   C3A55529  36.901  35.378   7.053
 9337POPC   C4A55530  36.860  35.365   7.353
 9337POPC   C1B55531  36.715  35.510   6.453
 9337POPC   C2B55532  36.706  35.493   6.753
 9337POPC   C3B55533  36.699  35.576   7.053
 9337POPC   C4B55534  36.706  35.553   7.353
 9338POPC   NC355535  12.852  15.149   5.553
 9338POPC   PO455536  12.829  15.133   5.853
 9338POPC   GL155537  12.859  15.156   6.153
 9338POPC   GL255538  12.881  15.103   6.153
 9338POPC   C1A55539  12.862  15.229   6.453
 9338POPC   D2A55540  12.823  15.137   6.753
 9338POPC   C3A55541  12.873  15.185   7.053
 9338POPC   C4A55542  12.842  15.218   7.353
 9338POPC   C1B55543  12.817  14.919   6.453
 9338POPC   C2B55544  12.834  14.977   6.753
 9338POPC   C3B55545  12.877  14.904   7.053
 9338POPC   C4B55546  12.828  14.954   7.353
 9339POPC   NC355547  26.805  29.148   5.553
 9339POPC   PO455548  26.774  29.114   5.853
 9339POPC   GL155549  26.835  29.186   6.153
 9339POPC   GL255550  26.932  29.255   6.153
 9339POPC   C1A55551  26.804  29.099   6.453
 9339POPC   D2A55552  26.787  29.173   6.753
 9339POPC   C3A55553  26.789  29.105   7.053
 9339POPC   C4A55554  26.844  29.132   7.353
 9339POPC   C1B55555  26.966  29.307   6.453
 9339POPC   C2B55556  26.991  29.295   6.753
 9339POPC   C3B55557  27.003  29.278   7.053
 9339POPC   C4B55558  27.043  29.352   7.353
 9340POPC   NC355559  25.306  14.415   5.553
 9340POPC   PO455560  25.218  14.424   5.853
 9340POPC   GL155561  25.310  14.368   6.153
 9340POPC   GL255562  25.330  14.331   6.153
 9340POPC   C1A55563  25.266  14.386   6.453
 9340POPC   D2A55564  25.280  14.379   6.753
 9340POPC   C3A55565  25.263  14.405   7.053
 9340POPC   C4A55566  25.277  14.425   7.353
 9340POPC   C1B55567  25.465  14.213   6.453
 9340POPC   C2B55568  25.426  14.188   6.753
 9340POPC   C3B55569  25.474  14.176   7.053
 9340POPC   C4B55570  25.397  14.232   7.353
 9341POPC   NC355571  29.929  33.832   5.553
 9341POPC   PO455572  29.916  33.780   5.853
 9341POPC   GL155573  29.929  33.840   6.153
 9341POPC   GL255574  30.035  33.843   6.153
 9341POPC   C1A55575  29.872  33.823   6.453
 9341POPC   D2A55576  29.903  33.793   6.753
 9341POPC   C3A55577  29.885  33.786   7.053
 9341POPC   C4A55578  29.893  33.752   7.353
 9341POPC   C1B55579  30.160  33.820   6.453
 9341POPC   C2B55580  30.199  33.836   6.753
 9341POPC   C3B55581  30.204  33.863   7.053
 9341POPC   C4B55582  30.209  33.841   7.353
 9342POPC   NC355583   9.764  28.386   5.553
 9342POPC   PO455584   9.709  28.342   5.853
 9342POPC   GL155585   9.742  28.324   6.153
 9342POPC   GL255586   9.796  28.285   6.153
 9342POPC   C1A55587   9.757  28.324   6.453
 9342POPC   D2A55588   9.755  28.338   6.753
 9342POPC   C3A55589   9.738  28.346   7.053
 9342POPC   C4A55590   9.744  28.378   7.353
 9342POPC   C1B55591   9.978  28.221   6.453
 9342POPC   C2B55592   9.924  28.157   6.753
 9342POPC   C3B55593   9.961  28.222   7.053
 9342POPC   C4B55594   9.958  28.225   7.353
 9343POPC   NC355595  36.122  40.792   5.553
 9343POPC   PO455596  36.106  40.794   5.853
 9343POPC   GL155597  36.110  40.774   6.153
 9343POPC   GL255598  36.254  40.709   6.153
 9343POPC   C1A55599  36.137  40.809   6.453
 9343POPC   D2A55600  36.151  40.767   6.753
 9343POPC   C3A55601  36.157  40.801   7.053
 9343POPC   C4A55602  36.141  40.825   7.353
 9343POPC   C1B55603  36.338  40.725   6.453
 9343POPC   C2B55604  36.328  40.669   6.753
 9343POPC   C3B55605  36.328  40.631   7.053
 9343POPC   C4B55606  36.374  40.636   7.353
 9344POPC   NC355607   2.000  30.729   5.553
 9344POPC   PO455608   1.970  30.654   5.853
 9344POPC   GL155609   2.023  30.676   6.153
 9344POPC   GL255610   2.060  30.858   6.153
 9344POPC   C1A55611   1.957  30.685   6.453
 9344POPC   D2A55612   1.941  30.677   6.753
 9344POPC   C3A55613   1.985  30.703   7.053
 9344POPC   C4A55614   2.028  30.658   7.353
 9344POPC   C1B55615   2.091  30.956   6.453
 9344POPC   C2B55616   2.082  30.988   6.753
 9344POPC   C3B55617   2.088  30.964   7.053
 9344POPC   C4B55618   2.076  30.906   7.353
 9345POPC   NC355619  12.066   0.472   5.553
 9345POPC   PO455620  12.069   0.461   5.853
 9345POPC   GL155621  12.081   0.416   6.153
 9345POPC   GL255622  11.931   0.529   6.153
 9345POPC   C1A55623  12.057   0.458   6.453
 9345POPC   D2A55624  12.093   0.464   6.753
 9345POPC   C3A55625  12.053   0.485   7.053
 9345POPC   C4A55626  12.085   0.427   7.353
 9345POPC   C1B55627  11.863   0.552   6.453
 9345POPC   C2B55628  11.875   0.632   6.753
 9345POPC   C3B55629  11.844   0.636   7.053
 9345POPC   C4B55630  11.837   0.614   7.353
 9346POPC   NC355631  26.801   2.034   5.553
 9346POPC   PO455632  26.782   1.946   5.853
 9346POPC   GL155633  26.830   1.944   6.153
 9346POPC   GL255634  26.761   1.907   6.153
 9346POPC   C1A55635  26.842   2.036   6.453
 9346POPC   D2A55636  26.846   2.016   6.753
 9346POPC   C3A55637  26.795   1.987   7.053
 9346POPC   C4A55638  26.845   1.941   7.353
 9346POPC   C1B55639  26.763   1.776   6.453
 9346POPC   C2B55640  26.734   1.721   6.753
 9346POPC   C3B55641  26.714   1.728   7.053
 9346POPC   C4B55642  26.732   1.732   7.353
 9347POPC   NC355643   7.421  36.950   5.553
 9347POPC   PO455644   7.441  36.924   5.853
 9347POPC   GL155645   7.412  36.861   6.153
 9347POPC   GL255646   7.491  36.809   6.153
 9347POPC   C1A55647   7.412  36.922   6.453
 9347POPC   D2A55648   7.377  36.924   6.753
 9347POPC   C3A55649   7.412  36.930   7.053
 9347POPC   C4A55650   7.442  36.865   7.353
 9347POPC   C1B55651   7.631  36.722   6.453
 9347POPC   C2B55652   7.621  36.733   6.753
 9347POPC   C3B55653   7.648  36.740   7.053
 9347POPC   C4B55654   7.664  36.798   7.353
 9348POPC   NC355655   1.221   2.779   5.553
 9348POPC   PO455656   1.171   2.726   5.853
 9348POPC   GL155657   1.229   2.790   6.153
 9348POPC   GL255658   1.120   2.804   6.153
 9348POPC   C1A55659   1.199   2.719   6.453
 9348POPC   D2A55660   1.218   2.761   6.753
 9348POPC   C3A55661   1.213   2.759   7.053
 9348POPC   C4A55662   1.174   2.792   7.353
 9348POPC   C1B55663   1.040   2.839   6.453
 9348POPC   C2B55664   0.961   2.877   6.753
 9348POPC   C3B55665   1.033   2.855   7.053
 9348POPC   C4B55666   1.008   2.926   7.353
 9349POPC   NC355667  44.710  25.288   5.553
 9349POPC   PO455668  44.649  25.313   5.853
 9349POPC   GL155669  44.673  25.312   6.153
 9349POPC   GL255670  44.793  25.353   6.153
 9349POPC   C1A55671  44.644  25.249   6.453
 9349POPC   D2A55672  44.700  25.305   6.753
 9349POPC   C3A55673  44.669  25.285   7.053
 9349POPC   C4A55674  44.681  25.227   7.353
 9349POPC   C1B55675  44.859  25.370   6.453
 9349POPC   C2B55676  44.851  25.336   6.753
 9349POPC   C3B55677  44.898  25.359   7.053
 9349POPC   C4B55678  44.874  25.360   7.353
 9350POPC   NC355679  43.143  43.925   5.553
 9350POPC   PO455680  43.070  43.856   5.853
 9350POPC   GL155681  43.156  43.932   6.153
 9350POPC   GL255682  42.987  43.987   6.153
 9350POPC   C1A55683  43.070  43.926   6.453
 9350POPC   D2A55684  43.130  43.852   6.753
 9350POPC   C3A55685  43.093  43.856   7.053
 9350POPC   C4A55686  43.132  43.895   7.353
 9350POPC   C1B55687  42.927  43.981   6.453
 9350POPC   C2B55688  42.897  44.043   6.753
 9350POPC   C3B55689  42.866  43.998   7.053
 9350POPC   C4B55690  42.925  43.981   7.353
 9351POPC   NC355691  19.866  30.713   5.553
 9351POPC   PO455692  19.855  30.651   5.853
 9351POPC   GL155693  19.830  30.651   6.153
 9351POPC   GL255694  19.715  30.759   6.153
 9351POPC   C1A55695  19.793  30.723   6.453
 9351POPC   D2A55696  19.830  30.701   6.753
 9351POPC   C3A55697  19.846  30.682   7.053
 9351POPC   C4A55698  19.870  30.668   7.353
 9351POPC   C1B55699  19.599  30.805   6.453
 9351POPC   C2B55700  19.652  30.758   6.753
 9351POPC   C3B55701  19.583  30.801   7.053
 9351POPC   C4B55702  19.602  30.792   7.353
 9352POPC   NC355703  10.497  20.643   5.553
 9352POPC   PO455704  10.502  20.618   5.853
 9352POPC   GL155705  10.555  20.568   6.153
 9352POPC   GL255706  10.500  20.772   6.153
 9352POPC   C1A55707  10.502  20.659   6.453
 9352POPC   D2A55708  10.564  20.627   6.753
 9352POPC   C3A55709  10.508  20.618   7.053
 9352POPC   C4A55710  10.507  20.635   7.353
 9352POPC   C1B55711  10.536  20.809   6.453
 9352POPC   C2B55712  10.608  20.877   6.753
 9352POPC   C3B55713  10.579  20.835   7.053
 9352POPC   C4B55714  10.608  20.855   7.353
 9353POPC   NC355715  18.253   5.067   5.553
 9353POPC   PO455716  18.259   5.074   5.853
 9353POPC   GL155717  18.305   5.087   6.153
 9353POPC   GL255718  18.301   5.201   6.153
 9353POPC   C1A55719  18.274   5.136   6.453
 9353POPC   D2A55720  18.273   5.063   6.753
 9353POPC   C3A55721  18.320   5.113   7.053
 9353POPC   C4A55722  18.266   5.093   7.353
 9353POPC   C1B55723  18.343   5.301   6.453
 9353POPC   C2B55724  18.380   5.329   6.753
 9353POPC   C3B55725  18.358   5.314   7.053
 9353POPC   C4B55726  18.358   5.364   7.353
 9354POPC   NC355727   3.493   1.208   5.553
 9354POPC   PO455728   3.574   1.248   5.853
 9354POPC   GL155729   3.525   1.175   6.153
 9354POPC   GL255730   3.441   1.264   6.153
 9354POPC   C1A55731   3.557   1.210   6.453
 9354POPC   D2A55732   3.572   1.255   6.753
 9354POPC   C3A55733   3.526   1.177   7.053
 9354POPC   C4A55734   3.566   1.209   7.353
 9354POPC   C1B55735   3.357   1.339   6.453
 9354POPC   C2B55736   3.345   1.292   6.753
 9354POPC   C3B55737   3.353   1.319   7.053
 9354POPC   C4B55738   3.275   1.322   7.353
 9355POPC   NC355739   1.952  24.515   5.553
 9355POPC   PO455740   2.013  24.481   5.853
 9355POPC   GL155741   1.958  24.483   6.153
 9355POPC   GL255742   2.138  24.494   6.153
 9355POPC   C1A55743   2.039  24.527   6.453
 9355POPC   D2A55744   1.999  24.484   6.753
 9355POPC   C3A55745   1.946  24.473   7.053
 9355POPC   C4A55746   1.949  24.511   7.353
 9355POPC   C1B55747   2.203  24.452   6.453
 9355POPC   C2B55748   2.234  24.474   6.753
 9355POPC   C3B55749   2.207  24.513   7.053
 9355POPC   C4B55750   2.258  24.520   7.353
 9356POPC   NC355751  41.568  44.638   5.553
 9356POPC   PO455752  41.522  44.701   5.853
 9356POPC   GL155753  41.565  44.696   6.153
 9356POPC   GL255754  41.489  44.623   6.153
 9356POPC   C1A55755  41.524  44.709   6.453
 9356POPC   D2A55756  41.525  44.663   6.753
 9356POPC   C3A55757  41.532  44.711   7.053
 9356POPC   C4A55758  41.550  44.658   7.353
 9356POPC   C1B55759  41.332  44.515   6.453
 9356POPC   C2B55760  41.372  44.488   6.753
 9356POPC   C3B55761  41.389  44.469   7.053
 9356POPC   C4B55762  41.357  44.464   7.353
 9357POPC   NC355763  43.848  25.265   5.553
 9357POPC   PO455764  43.872  25.241   5.853
 9357POPC   GL155765  43.841  25.239   6.153
 9357POPC   GL255766  44.007  25.285   6.153
 9357POPC   C1A55767  43.889  25.289   6.453
 9357POPC   D2A55768  43.930  25.273   6.753
 9357POPC   C3A55769  43.879  25.284   7.053
 9357POPC   C4A55770  43.929  25.269   7.353
 9357POPC   C1B55771  44.155  25.229   6.453
 9357POPC   C2B55772  44.091  25.228   6.753
 9357POPC   C3B55773  44.158  25.228   7.053
 9357POPC   C4B55774  44.150  25.176   7.353
 9358POPC   NC355775  26.032  32.232   5.553
 9358POPC   PO455776  26.032  32.296   5.853
 9358POPC   GL155777  26.051  32.263   6.153
 9358POPC   GL255778  26.003  32.139   6.153
 9358POPC   C1A55779  26.085  32.226   6.453
 9358POPC   D2A55780  26.008  32.229   6.753
 9358POPC   C3A55781  26.039  32.235   7.053
 9358POPC   C4A55782  26.010  32.237   7.353
 9358POPC   C1B55783  25.891  32.090   6.453
 9358POPC   C2B55784  25.923  32.026   6.753
 9358POPC   C3B55785  25.884  32.022   7.053
 9358POPC   C4B55786  25.946  32.091   7.353
 9359POPC   NC355787  25.302  35.323   5.553
 9359POPC   PO455788  25.239  35.384   5.853
 9359POPC   GL155789  25.273  35.358   6.153
 9359POPC   GL255790  25.154  35.363   6.153
 9359POPC   C1A55791  25.294  35.352   6.453
 9359POPC   D2A55792  25.222  35.327   6.753
 9359POPC   C3A55793  25.303  35.341   7.053
 9359POPC   C4A55794  25.291  35.338   7.353
 9359POPC   C1B55795  25.003  35.372   6.453
 9359POPC   C2B55796  25.070  35.374   6.753
 9359POPC   C3B55797  24.983  35.357   7.053
 9359POPC   C4B55798  25.026  35.390   7.353
 9360POPC   NC355799  19.096  19.800   5.553
 9360POPC   PO455800  19.034  19.880   5.853
 9360POPC   GL155801  19.048  19.839   6.153
 9360POPC   GL255802  19.141  19.678   6.153
 9360POPC   C1A55803  19.015  19.790   6.453
 9360POPC   D2A55804  19.048  19.861   6.753
 9360POPC   C3A55805  19.083  19.811   7.053
 9360POPC   C4A55806  19.011  19.875   7.353
 9360POPC   C1B55807  19.109  19.584   6.453
 9360POPC   C2B55808  19.163  19.629   6.753
 9360POPC   C3B55809  19.094  19.582   7.053
 9360POPC   C4B55810  19.145  19.562   7.353
 9361POPC   NC355811  29.934  34.538   5.553
 9361POPC   PO455812  29.951  34.545   5.853
 9361POPC   GL155813  29.873  34.573   6.153
 9361POPC   GL255814  29.951  34.433   6.153
 9361POPC   C1A55815  29.938  34.617   6.453
 9361POPC   D2A55816  29.904  34.601   6.753
 9361POPC   C3A55817  29.915  34.594   7.053
 9361POPC   C4A55818  29.919  34.554   7.353
 9361POPC   C1B55819  30.043  34.310   6.453
 9361POPC   C2B55820  30.038  34.289   6.753
 9361POPC   C3B55821  29.979  34.308   7.053
 9361POPC   C4B55822  29.980  34.335   7.353
 9362POPC   NC355823  34.529  40.012   5.553
 9362POPC   PO455824  34.594  39.969   5.853
 9362POPC   GL155825  34.577  40.021   6.153
 9362POPC   GL255826  34.495  39.939   6.153
 9362POPC   C1A55827  34.573  40.019   6.453
 9362POPC   D2A55828  34.556  39.982   6.753
 9362POPC   C3A55829  34.545  40.041   7.053
 9362POPC   C4A55830  34.591  40.054   7.353
 9362POPC   C1B55831  34.344  39.906   6.453
 9362POPC   C2B55832  34.324  39.854   6.753
 9362POPC   C3B55833  34.382  39.818   7.053
 9362POPC   C4B55834  34.337  39.904   7.353
 9363POPC   NC355835  12.098  29.884   5.553
 9363POPC   PO455836  12.124  29.969   5.853
 9363POPC   GL155837  12.083  29.959   6.153
 9363POPC   GL255838  12.034  30.061   6.153
 9363POPC   C1A55839  12.079  29.872   6.453
 9363POPC   D2A55840  12.035  29.951   6.753
 9363POPC   C3A55841  12.086  29.896   7.053
 9363POPC   C4A55842  12.043  29.942   7.353
 9363POPC   C1B55843  11.942  30.129   6.453
 9363POPC   C2B55844  11.906  30.161   6.753
 9363POPC   C3B55845  11.884  30.149   7.053
 9363POPC   C4B55846  11.879  30.162   7.353
 9364POPC   NC355847   0.464  28.350   5.553
 9364POPC   PO455848   0.423  28.322   5.853
 9364POPC   GL155849   0.476  28.417   6.153
 9364POPC   GL255850   0.562  28.225   6.153
 9364POPC   C1A55851   0.424  28.365   6.453
 9364POPC   D2A55852   0.419  28.367   6.753
 9364POPC   C3A55853   0.392  28.344   7.053
 9364POPC   C4A55854   0.424  28.356   7.353
 9364POPC   C1B55855   0.598  28.140   6.453
 9364POPC   C2B55856   0.571  28.225   6.753
 9364POPC   C3B55857   0.576  28.139   7.053
 9364POPC   C4B55858   0.642  28.132   7.353
 9365POPC   NC355859  33.829  41.538   5.553
 9365POPC   PO455860  33.752  41.554   5.853
 9365POPC   GL155861  33.801  41.515   6.153
 9365POPC   GL255862  33.802  41.710   6.153
 9365POPC   C1A55863  33.784  41.601   6.453
 9365POPC   D2A55864  33.835  41.511   6.753
 9365POPC   C3A55865  33.803  41.607   7.053
 9365POPC   C4A55866  33.825  41.546   7.353
 9365POPC   C1B55867  33.795  41.852   6.453
 9365POPC   C2B55868  33.807  41.843   6.753
 9365POPC   C3B55869  33.721  41.799   7.053
 9365POPC   C4B55870  33.785  41.764   7.353
 9366POPC   NC355871  22.194  19.105   5.553
 9366POPC   PO455872  22.167  19.097   5.853
 9366POPC   GL155873  22.203  19.030   6.153
 9366POPC   GL255874  22.223  19.011   6.153
 9366POPC   C1A55875  22.114  19.059   6.453
 9366POPC   D2A55876  22.126  19.014   6.753
 9366POPC   C3A55877  22.150  19.014   7.053
 9366POPC   C4A55878  22.128  19.065   7.353
 9366POPC   C1B55879  22.395  18.898   6.453
 9366POPC   C2B55880  22.420  18.896   6.753
 9366POPC   C3B55881  22.397  18.888   7.053
 9366POPC   C4B55882  22.362  18.920   7.353
 9367POPC   NC355883   3.580   0.427   5.553
 9367POPC   PO455884   3.548   0.457   5.853
 9367POPC   GL155885   3.553   0.446   6.153
 9367POPC   GL255886   3.703   0.427   6.153
 9367POPC   C1A55887   3.505   0.486   6.453
 9367POPC   D2A55888   3.544   0.415   6.753
 9367POPC   C3A55889   3.536   0.477   7.053
 9367POPC   C4A55890   3.569   0.426   7.353
 9367POPC   C1B55891   3.771   0.378   6.453
 9367POPC   C2B55892   3.753   0.355   6.753
 9367POPC   C3B55893   3.758   0.397   7.053
 9367POPC   C4B55894   3.800   0.395   7.353
 9368POPC   NC355895  24.524  10.534   5.553
 9368POPC   PO455896  24.509  10.481   5.853
 9368POPC   GL155897  24.481  10.568   6.153
 9368POPC   GL255898  24.631  10.554   6.153
 9368POPC   C1A55899  24.468  10.486   6.453
 9368POPC   D2A55900  24.454  10.551   6.753
 9368POPC   C3A55901  24.533  10.480   7.053
 9368POPC   C4A55902  24.447  10.523   7.353
 9368POPC   C1B55903  24.706  10.458   6.453
 9368POPC   C2B55904  24.688  10.476   6.753
 9368POPC   C3B55905  24.776  10.515   7.053
 9368POPC   C4B55906  24.757  10.442   7.353
 9369POPC   NC355907  36.112  22.148   5.553
 9369POPC   PO455908  36.138  22.154   5.853
 9369POPC   GL155909  36.169  22.114   6.153
 9369POPC   GL255910  36.239  22.071   6.153
 9369POPC   C1A55911  36.155  22.210   6.453
 9369POPC   D2A55912  36.097  22.182   6.753
 9369POPC   C3A55913  36.145  22.172   7.053
 9369POPC   C4A55914  36.152  22.202   7.353
 9369POPC   C1B55915  36.349  22.020   6.453
 9369POPC   C2B55916  36.305  22.058   6.753
 9369POPC   C3B55917  36.392  22.078   7.053
 9369POPC   C4B55918  36.325  22.047   7.353
 9370POPC   NC355919  28.399  10.543   5.553
 9370POPC   PO455920  28.406  10.505   5.853
 9370POPC   GL155921  28.396  10.490   6.153
 9370POPC   GL255922  28.400  10.371   6.153
 9370POPC   C1A55923  28.393  10.491   6.453
 9370POPC   D2A55924  28.357  10.530   6.753
 9370POPC   C3A55925  28.353  10.510   7.053
 9370POPC   C4A55926  28.369  10.483   7.353
 9370POPC   C1B55927  28.461  10.257   6.453
 9370POPC   C2B55928  28.440  10.262   6.753
 9370POPC   C3B55929  28.427  10.270   7.053
 9370POPC   C4B55930  28.460  10.254   7.353
 9371POPC   NC355931  29.167  18.307   5.553
 9371POPC   PO455932  29.137  18.291   5.853
 9371POPC   GL155933  29.105  18.314   6.153
 9371POPC   GL255934  29.270  18.252   6.153
 9371POPC   C1A55935  29.122  18.329   6.453
 9371POPC   D2A55936  29.152  18.251   6.753
 9371POPC   C3A55937  29.174  18.308   7.053
 9371POPC   C4A55938  29.124  18.266   7.353
 9371POPC   C1B55939  29.420  18.279   6.453
 9371POPC   C2B55940  29.402  18.283   6.753
 9371POPC   C3B55941  29.384  18.318   7.053
 9371POPC   C4B55942  29.435  18.254   7.353
 9372POPC   NC355943  37.711  10.504   5.553
 9372POPC   PO455944  37.680  10.504   5.853
 9372POPC   GL155945  37.704  10.529   6.153
 9372POPC   GL255946  37.743  10.595   6.153
 9372POPC   C1A55947  37.667  10.530   6.453
 9372POPC   D2A55948  37.640  10.508   6.753
 9372POPC   C3A55949  37.632  10.494   7.053
 9372POPC   C4A55950  37.633  10.479   7.353
 9372POPC   C1B55951  37.746  10.761   6.453
 9372POPC   C2B55952  37.725  10.805   6.753
 9372POPC   C3B55953  37.771  10.807   7.053
 9372POPC   C4B55954  37.720  10.751   7.353
 9373POPC   NC355955  14.435  30.718   5.553
 9373POPC   PO455956  14.441  30.676   5.853
 9373POPC   GL155957  14.444  30.653   6.153
 9373POPC   GL255958  14.267  30.614   6.153
 9373POPC   C1A55959  14.359  30.686   6.453
 9373POPC   D2A55960  14.439  30.679   6.753
 9373POPC   C3A55961  14.409  30.673   7.053
 9373POPC   C4A55962  14.402  30.720   7.353
 9373POPC   C1B55963  14.147  30.554   6.453
 9373POPC   C2B55964  14.198  30.549   6.753
 9373POPC   C3B55965  14.202  30.527   7.053
 9373POPC   C4B55966  14.228  30.572   7.353
 9374POPC   NC355967  25.270  22.911   5.553
 9374POPC   PO455968  25.232  22.988   5.853
 9374POPC   GL155969  25.243  22.946   6.153
 9374POPC   GL255970  25.369  22.984   6.153
 9374POPC   C1A55971  25.223  22.944   6.453
 9374POPC   D2A55972  25.241  22.958   6.753
 9374POPC   C3A55973  25.287  22.980   7.053
 9374POPC   C4A55974  25.216  22.983   7.353
 9374POPC   C1B55975  25.467  23.000   6.453
 9374POPC   C2B55976  25.551  22.997   6.753
 9374POPC   C3B55977  25.558  22.975   7.053
 9374POPC   C4B55978  25.564  23.010   7.353
 9375POPC   NC355979  18.330  33.030   5.553
 9375POPC   PO455980  18.311  33.012   5.853
 9375POPC   GL155981  18.245  33.022   6.153
 9375POPC   GL255982  18.195  32.932   6.153
 9375POPC   C1A55983  18.268  32.993   6.453
 9375POPC   D2A55984  18.238  33.046   6.753
 9375POPC   C3A55985  18.249  33.041   7.053
 9375POPC   C4A55986  18.281  33.000   7.353
 9375POPC   C1B55987  18.083  32.838   6.453
 9375POPC   C2B55988  18.050  32.894   6.753
 9375POPC   C3B55989  18.075  32.843   7.053
 9375POPC   C4B55990  18.034  32.832   7.353
 9376POPC   NC355991   3.509  16.728   5.553
 9376POPC   PO455992   3.517  16.719   5.853
 9376POPC   GL155993   3.536  16.728   6.153
 9376POPC   GL255994   3.553  16.825   6.153
 9376POPC   C1A55995   3.586  16.719   6.453
 9376POPC   D2A55996   3.558  16.709   6.753
 9376POPC   C3A55997   3.515  16.737   7.053
 9376POPC   C4A55998   3.528  16.683   7.353
 9376POPC   C1B55999   3.546  16.963   6.453
 9376POPC   C2B56000   3.570  16.992   6.753
 9376POPC   C3B56001   3.552  17.014   7.053
 9376POPC   C4B56002   3.609  17.003   7.353
 9377POPC   NC356003   2.796  36.113   5.553
 9377POPC   PO456004   2.793  36.118   5.853
 9377POPC   GL156005   2.773  36.130   6.153
 9377POPC   GL256006   2.602  36.140   6.153
 9377POPC   C1A56007   2.721  36.166   6.453
 9377POPC   D2A56008   2.758  36.106   6.753
 9377POPC   C3A56009   2.787  36.095   7.053
 9377POPC   C4A56010   2.772  36.105   7.353
 9377POPC   C1B56011   2.541  36.097   6.453
 9377POPC   C2B56012   2.555  36.160   6.753
 9377POPC   C3B56013   2.469  36.078   7.053
 9377POPC   C4B56014   2.483  36.136   7.353
 9378POPC   NC356015   4.302  34.566   5.553
 9378POPC   PO456016   4.349  34.544   5.853
 9378POPC   GL156017   4.274  34.547   6.153
 9378POPC   GL256018   4.183  34.517   6.153
 9378POPC   C1A56019   4.270  34.558   6.453
 9378POPC   D2A56020   4.301  34.549   6.753
 9378POPC   C3A56021   4.350  34.594   7.053
 9378POPC   C4A56022   4.283  34.621   7.353
 9378POPC   C1B56023   4.060  34.429   6.453
 9378POPC   C2B56024   4.100  34.441   6.753
 9378POPC   C3B56025   4.135  34.508   7.053
 9378POPC   C4B56026   4.112  34.463   7.353
 9379POPC   NC356027   9.731  33.758   5.553
 9379POPC   PO456028   9.776  33.843   5.853
 9379POPC   GL156029   9.765  33.775   6.153
 9379POPC   GL256030   9.785  33.888   6.153
 9379POPC   C1A56031   9.796  33.800   6.453
 9379POPC   D2A56032   9.700  33.773   6.753
 9379POPC   C3A56033   9.765  33.791   7.053
 9379POPC   C4A56034   9.793  33.849   7.353
 9379POPC   C1B56035   9.870  34.038   6.453
 9379POPC   C2B56036   9.807  34.027   6.753
 9379POPC   C3B56037   9.864  33.987   7.053
 9379POPC   C4B56038   9.831  34.069   7.353
 9380POPC   NC356039  12.827   2.749   5.553
 9380POPC   PO456040  12.843   2.764   5.853
 9380POPC   GL156041  12.802   2.764   6.153
 9380POPC   GL256042  12.736   2.740   6.153
 9380POPC   C1A56043  12.878   2.794   6.453
 9380POPC   D2A56044  12.814   2.721   6.753
 9380POPC   C3A56045  12.897   2.764   7.053
 9380POPC   C4A56046  12.863   2.793   7.353
 9380POPC   C1B56047  12.586   2.743   6.453
 9380POPC   C2B56048  12.625   2.695   6.753
 9380POPC   C3B56049  12.584   2.700   7.053
 9380POPC   C4B56050  12.626   2.727   7.353
 9381POPC   NC356051  27.632  31.441   5.553
 9381POPC   PO456052  27.601  31.478   5.853
 9381POPC   GL156053  27.611  31.484   6.153
 9381POPC   GL256054  27.716  31.490   6.153
 9381POPC   C1A56055  27.567  31.457   6.453
 9381POPC   D2A56056  27.610  31.431   6.753
 9381POPC   C3A56057  27.571  31.434   7.053
 9381POPC   C4A56058  27.569  31.456   7.353
 9381POPC   C1B56059  27.861  31.438   6.453
 9381POPC   C2B56060  27.847  31.457   6.753
 9381POPC   C3B56061  27.862  31.436   7.053
 9381POPC   C4B56062  27.880  31.469   7.353
 9382POPC   NC356063   9.763  13.649   5.553
 9382POPC   PO456064   9.717  13.633   5.853
 9382POPC   GL156065   9.785  13.585   6.153
 9382POPC   GL256066   9.574  13.623   6.153
 9382POPC   C1A56067   9.756  13.640   6.453
 9382POPC   D2A56068   9.705  13.592   6.753
 9382POPC   C3A56069   9.785  13.660   7.053
 9382POPC   C4A56070   9.723  13.661   7.353
 9382POPC   C1B56071   9.478  13.683   6.453
 9382POPC   C2B56072   9.485  13.679   6.753
 9382POPC   C3B56073   9.465  13.623   7.053
 9382POPC   C4B56074   9.482  13.629   7.353
 9383POPC   NC356075  15.988   0.449   5.553
 9383POPC   PO456076  15.968   0.435   5.853
 9383POPC   GL156077  15.962   0.437   6.153
 9383POPC   GL256078  15.869   0.434   6.153
 9383POPC   C1A56079  15.955   0.396   6.453
 9383POPC   D2A56080  16.004   0.447   6.753
 9383POPC   C3A56081  15.946   0.405   7.053
 9383POPC   C4A56082  15.922   0.436   7.353
 9383POPC   C1B56083  15.671   0.463   6.453
 9383POPC   C2B56084  15.694   0.391   6.753
 9383POPC   C3B56085  15.679   0.446   7.053
 9383POPC   C4B56086  15.725   0.409   7.353
 9384POPC   NC356087  29.901   2.743   5.553
 9384POPC   PO456088  29.955   2.773   5.853
 9384POPC   GL156089  29.876   2.755   6.153
 9384POPC   GL256090  29.991   2.840   6.153
 9384POPC   C1A56091  29.936   2.769   6.453
 9384POPC   D2A56092  29.893   2.731   6.753
 9384POPC   C3A56093  29.918   2.805   7.053
 9384POPC   C4A56094  29.885   2.734   7.353
 9384POPC   C1B56095  30.061   2.907   6.453
 9384POPC   C2B56096  30.086   2.917   6.753
 9384POPC   C3B56097  30.114   2.951   7.053
 9384POPC   C4B56098  30.093   2.927   7.353
 9385POPC   NC356099  37.721   3.558   5.553
 9385POPC   PO456100  37.728   3.520   5.853
 9385POPC   GL156101  37.631   3.586   6.153
 9385POPC   GL256102  37.679   3.703   6.153
 9385POPC   C1A56103  37.687   3.496   6.453
 9385POPC   D2A56104  37.656   3.518   6.753
 9385POPC   C3A56105  37.630   3.494   7.053
 9385POPC   C4A56106  37.705   3.558   7.353
 9385POPC   C1B56107  37.598   3.733   6.453
 9385POPC   C2B56108  37.617   3.783   6.753
 9385POPC   C3B56109  37.582   3.757   7.053
 9385POPC   C4B56110  37.554   3.736   7.353
 9386POPC   NC356111   1.245  31.428   5.553
 9386POPC   PO456112   1.166  31.509   5.853
 9386POPC   GL156113   1.245  31.423   6.153
 9386POPC   GL256114   1.090  31.546   6.153
 9386POPC   C1A56115   1.221  31.500   6.453
 9386POPC   D2A56116   1.234  31.485   6.753
 9386POPC   C3A56117   1.167  31.448   7.053
 9386POPC   C4A56118   1.238  31.496   7.353
 9386POPC   C1B56119   1.015  31.611   6.453
 9386POPC   C2B56120   1.003  31.586   6.753
 9386POPC   C3B56121   1.002  31.605   7.053
 9386POPC   C4B56122   1.019  31.655   7.353
 9387POPC   NC356123  24.443   9.794   5.553
 9387POPC   PO456124  24.490   9.751   5.853
 9387POPC   GL156125  24.503   9.745   6.153
 9387POPC   GL256126  24.647   9.759   6.153
 9387POPC   C1A56127  24.464   9.699   6.453
 9387POPC   D2A56128  24.449   9.764   6.753
 9387POPC   C3A56129  24.523   9.768   7.053
 9387POPC   C4A56130  24.462   9.713   7.353
 9387POPC   C1B56131  24.746   9.657   6.453
 9387POPC   C2B56132  24.717   9.720   6.753
 9387POPC   C3B56133  24.781   9.664   7.053
 9387POPC   C4B56134  24.758   9.738   7.353
 9388POPC   NC356135  42.321  22.164   5.553
 9388POPC   PO456136  42.324  22.203   5.853
 9388POPC   GL156137  42.292  22.161   6.153
 9388POPC   GL256138  42.436  22.174   6.153
 9388POPC   C1A56139  42.329  22.193   6.453
 9388POPC   D2A56140  42.296  22.134   6.753
 9388POPC   C3A56141  42.310  22.133   7.053
 9388POPC   C4A56142  42.337  22.151   7.353
 9388POPC   C1B56143  42.558  22.153   6.453
 9388POPC   C2B56144  42.547  22.182   6.753
 9388POPC   C3B56145  42.620  22.153   7.053
 9388POPC   C4B56146  42.609  22.096   7.353
 9389POPC   NC356147  30.648   5.046   5.553
 9389POPC   PO456148  30.739   5.101   5.853
 9389POPC   GL156149  30.719   5.049   6.153
 9389POPC   GL256150  30.614   5.179   6.153
 9389POPC   C1A56151  30.662   5.067   6.453
 9389POPC   D2A56152  30.653   5.078   6.753
 9389POPC   C3A56153  30.743   5.046   7.053
 9389POPC   C4A56154  30.741   5.087   7.353
 9389POPC   C1B56155  30.493   5.161   6.453
 9389POPC   C2B56156  30.434   5.141   6.753
 9389POPC   C3B56157  30.431   5.227   7.053
 9389POPC   C4B56158  30.499   5.148   7.353
 9390POPC   NC356159   4.327  27.563   5.553
 9390POPC   PO456160   4.364  27.612   5.853
 9390POPC   GL156161   4.290  27.593   6.153
 9390POPC   GL256162   4.320  27.493   6.153
 9390POPC   C1A56163   4.277  27.571   6.453
 9390POPC   D2A56164   4.289  27.564   6.753
 9390POPC   C3A56165   4.279  27.590   7.053
 9390POPC   C4A56166   4.315  27.636   7.353
 9390POPC   C1B56167   4.343  27.389   6.453
 9390POPC   C2B56168   4.305  27.340   6.753
 9390POPC   C3B56169   4.343  27.314   7.053
 9390POPC   C4B56170   4.310  27.323   7.353
 9391POPC   NC356171  18.320  24.441   5.553
 9391POPC   PO456172  18.253  24.538   5.853
 9391POPC   GL156173  18.273  24.465   6.153
 9391POPC   GL256174  18.242  24.414   6.153
 9391POPC   C1A56175  18.296  24.463   6.453
 9391POPC   D2A56176  18.327  24.527   6.753
 9391POPC   C3A56177  18.262  24.522   7.053
 9391POPC   C4A56178  18.268  24.462   7.353
 9391POPC   C1B56179  18.214  24.234   6.453
 9391POPC   C2B56180  18.209  24.246   6.753
 9391POPC   C3B56181  18.249  24.240   7.053
 9391POPC   C4B56182  18.286  24.272   7.353
 9392POPC   NC356183  10.490  30.675   5.553
 9392POPC   PO456184  10.507  30.680   5.853
 9392POPC   GL156185  10.498  30.710   6.153
 9392POPC   GL256186  10.622  30.628   6.153
 9392POPC   C1A56187  10.504  30.714   6.453
 9392POPC   D2A56188  10.547  30.736   6.753
 9392POPC   C3A56189  10.551  30.692   7.053
 9392POPC   C4A56190  10.481  30.676   7.353
 9392POPC   C1B56191  10.760  30.554   6.453
 9392POPC   C2B56192  10.687  30.531   6.753
 9392POPC   C3B56193  10.679  30.537   7.053
 9392POPC   C4B56194  10.755  30.510   7.353
 9393POPC   NC356195  16.696  11.337   5.553
 9393POPC   PO456196  16.737  11.328   5.853
 9393POPC   GL156197  16.763  11.314   6.153
 9393POPC   GL256198  16.631  11.384   6.153
 9393POPC   C1A56199  16.758  11.348   6.453
 9393POPC   D2A56200  16.725  11.286   6.753
 9393POPC   C3A56201  16.686  11.287   7.053
 9393POPC   C4A56202  16.764  11.321   7.353
 9393POPC   C1B56203  16.571  11.449   6.453
 9393POPC   C2B56204  16.580  11.495   6.753
 9393POPC   C3B56205  16.512  11.500   7.053
 9393POPC   C4B56206  16.562  11.428   7.353
 9394POPC   NC356207  30.715  30.738   5.553
 9394POPC   PO456208  30.660  30.684   5.853
 9394POPC   GL156209  30.663  30.724   6.153
 9394POPC   GL256210  30.812  30.665   6.153
 9394POPC   C1A56211  30.735  30.690   6.453
 9394POPC   D2A56212  30.654  30.700   6.753
 9394POPC   C3A56213  30.696  30.707   7.053
 9394POPC   C4A56214  30.717  30.727   7.353
 9394POPC   C1B56215  30.858  30.577   6.453
 9394POPC   C2B56216  30.930  30.559   6.753
 9394POPC   C3B56217  30.881  30.529   7.053
 9394POPC   C4B56218  30.867  30.549   7.353
 9395POPC   NC356219  10.491   2.755   5.553
 9395POPC   PO456220  10.480   2.755   5.853
 9395POPC   GL156221  10.545   2.774   6.153
 9395POPC   GL256222  10.445   2.850   6.153
 9395POPC   C1A56223  10.517   2.781   6.453
 9395POPC   D2A56224  10.530   2.757   6.753
 9395POPC   C3A56225  10.574   2.789   7.053
 9395POPC   C4A56226  10.568   2.759   7.353
 9395POPC   C1B56227  10.297   2.876   6.453
 9395POPC   C2B56228  10.351   2.898   6.753
 9395POPC   C3B56229  10.304   2.848   7.053
 9395POPC   C4B56230  10.352   2.880   7.353
 9396POPC   NC356231  13.616   5.897   5.553
 9396POPC   PO456232  13.592   5.913   5.853
 9396POPC   GL156233  13.653   5.828   6.153
 9396POPC   GL256234  13.525   5.894   6.153
 9396POPC   C1A56235  13.647   5.821   6.453
 9396POPC   D2A56236  13.604   5.873   6.753
 9396POPC   C3A56237  13.626   5.873   7.053
 9396POPC   C4A56238  13.665   5.911   7.353
 9396POPC   C1B56239  13.383   5.887   6.453
 9396POPC   C2B56240  13.335   5.912   6.753
 9396POPC   C3B56241  13.400   5.949   7.053
 9396POPC   C4B56242  13.399   5.909   7.353
 9397POPC   NC356243  39.234  40.819   5.553
 9397POPC   PO456244  39.274  40.756   5.853
 9397POPC   GL156245  39.260  40.811   6.153
 9397POPC   GL256246  39.288  40.921   6.153
 9397POPC   C1A56247  39.220  40.751   6.453
 9397POPC   D2A56248  39.216  40.758   6.753
 9397POPC   C3A56249  39.183  40.764   7.053
 9397POPC   C4A56250  39.185  40.830   7.353
 9397POPC   C1B56251  39.441  40.988   6.453
 9397POPC   C2B56252  39.433  41.009   6.753
 9397POPC   C3B56253  39.395  40.955   7.053
 9397POPC   C4B56254  39.362  40.937   7.353
 9398POPC   NC356255  20.632  22.116   5.553
 9398POPC   PO456256  20.649  22.211   5.853
 9398POPC   GL156257  20.588  22.188   6.153
 9398POPC   GL256258  20.447  22.193   6.153
 9398POPC   C1A56259  20.646  22.195   6.453
 9398POPC   D2A56260  20.569  22.156   6.753
 9398POPC   C3A56261  20.649  22.141   7.053
 9398POPC   C4A56262  20.594  22.198   7.353
 9398POPC   C1B56263  20.389  22.166   6.453
 9398POPC   C2B56264  20.314  22.233   6.753
 9398POPC   C3B56265  20.318  22.140   7.053
 9398POPC   C4B56266  20.333  22.135   7.353
 9399POPC   NC356267   9.710   5.073   5.553
 9399POPC   PO456268   9.713   5.078   5.853
 9399POPC   GL156269   9.738   5.110   6.153
 9399POPC   GL256270   9.737   5.168   6.153
 9399POPC   C1A56271   9.703   5.128   6.453
 9399POPC   D2A56272   9.712   5.056   6.753
 9399POPC   C3A56273   9.768   5.056   7.053
 9399POPC   C4A56274   9.759   5.090   7.353
 9399POPC   C1B56275   9.789   5.324   6.453
 9399POPC   C2B56276   9.722   5.346   6.753
 9399POPC   C3B56277   9.767   5.294   7.053
 9399POPC   C4B56278   9.757   5.302   7.353
 9400POPC   NC356279  40.759  41.566   5.553
 9400POPC   PO456280  40.741  41.521   5.853
 9400POPC   GL156281  40.736  41.563   6.153
 9400POPC   GL256282  40.712  41.499   6.153
 9400POPC   C1A56283  40.774  41.564   6.453
 9400POPC   D2A56284  40.743  41.595   6.753
 9400POPC   C3A56285  40.809  41.540   7.053
 9400POPC   C4A56286  40.786  41.526   7.353
 9400POPC   C1B56287  40.647  41.336   6.453
 9400POPC   C2B56288  40.667  41.319   6.753
 9400POPC   C3B56289  40.661  41.401   7.053
 9400POPC   C4B56290  40.652  41.341   7.353
 9401POPC   NC356291  24.466  37.696   5.553
 9401POPC   PO456292  24.444  37.698   5.853
 9401POPC   GL156293  24.476  37.656   6.153
 9401POPC   GL256294  24.435  37.796   6.153
 9401POPC   C1A56295  24.489  37.664   6.453
 9401POPC   D2A56296  24.454  37.679   6.753
 9401POPC   C3A56297  24.469  37.651   7.053
 9401POPC   C4A56298  24.476  37.713   7.353
 9401POPC   C1B56299  24.441  37.964   6.453
 9401POPC   C2B56300  24.402  37.895   6.753
 9401POPC   C3B56301  24.475  37.925   7.053
 9401POPC   C4B56302  24.396  37.909   7.353
 9402POPC   NC356303  16.711  12.107   5.553
 9402POPC   PO456304  16.727  12.111   5.853
 9402POPC   GL156305  16.725  12.047   6.153
 9402POPC   GL256306  16.901  12.145   6.153
 9402POPC   C1A56307  16.709  12.041   6.453
 9402POPC   D2A56308  16.710  12.118   6.753
 9402POPC   C3A56309  16.721  12.060   7.053
 9402POPC   C4A56310  16.773  12.043   7.353
 9402POPC   C1B56311  17.002  12.175   6.453
 9402POPC   C2B56312  17.001  12.155   6.753
 9402POPC   C3B56313  17.017  12.110   7.053
 9402POPC   C4B56314  16.974  12.158   7.353
 9403POPC   NC356315   6.614  26.791   5.553
 9403POPC   PO456316   6.600  26.822   5.853
 9403POPC   GL156317   6.628  26.867   6.153
 9403POPC   GL256318   6.727  26.718   6.153
 9403POPC   C1A56319   6.665  26.843   6.453
 9403POPC   D2A56320   6.635  26.824   6.753
 9403POPC   C3A56321   6.661  26.811   7.053
 9403POPC   C4A56322   6.683  26.789   7.353
 9403POPC   C1B56323   6.856  26.744   6.453
 9403POPC   C2B56324   6.859  26.703   6.753
 9403POPC   C3B56325   6.893  26.693   7.053
 9403POPC   C4B56326   6.824  26.678   7.353
 9404POPC   NC356327  19.838  22.957   5.553
 9404POPC   PO456328  19.812  22.917   5.853
 9404POPC   GL156329  19.859  22.964   6.153
 9404POPC   GL256330  19.997  22.927   6.153
 9404POPC   C1A56331  19.867  22.923   6.453
 9404POPC   D2A56332  19.846  22.976   6.753
 9404POPC   C3A56333  19.810  22.937   7.053
 9404POPC   C4A56334  19.826  22.924   7.353
 9404POPC   C1B56335  20.052  22.849   6.453
 9404POPC   C2B56336  20.117  22.916   6.753
 9404POPC   C3B56337  20.051  22.882   7.053
 9404POPC   C4B56338  20.074  22.914   7.353
 9405POPC   NC356339   7.435  25.997   5.553
 9405POPC   PO456340   7.391  26.023   5.853
 9405POPC   GL156341   7.456  26.033   6.153
 9405POPC   GL256342   7.512  26.111   6.153
 9405POPC   C1A56343   7.409  26.026   6.453
 9405POPC   D2A56344   7.408  26.003   6.753
 9405POPC   C3A56345   7.385  26.034   7.053
 9405POPC   C4A56346   7.397  26.040   7.353
 9405POPC   C1B56347   7.614  26.174   6.453
 9405POPC   C2B56348   7.627  26.197   6.753
 9405POPC   C3B56349   7.610  26.178   7.053
 9405POPC   C4B56350   7.610  26.140   7.353
 9406POPC   NC356351  36.079  37.649   5.553
 9406POPC   PO456352  36.177  37.678   5.853
 9406POPC   GL156353  36.081  37.673   6.153
 9406POPC   GL256354  36.135  37.618   6.153
 9406POPC   C1A56355  36.100  37.674   6.453
 9406POPC   D2A56356  36.134  37.656   6.753
 9406POPC   C3A56357  36.099  37.651   7.053
 9406POPC   C4A56358  36.089  37.664   7.353
 9406POPC   C1B56359  36.272  37.426   6.453
 9406POPC   C2B56360  36.287  37.447   6.753
 9406POPC   C3B56361  36.238  37.485   7.053
 9406POPC   C4B56362  36.238  37.418   7.353
 9407POPC   NC356363  41.531  19.063   5.553
 9407POPC   PO456364  41.546  19.093   5.853
 9407POPC   GL156365  41.607  19.044   6.153
 9407POPC   GL256366  41.535  19.182   6.153
 9407POPC   C1A56367  41.529  19.045   6.453
 9407POPC   D2A56368  41.531  19.078   6.753
 9407POPC   C3A56369  41.601  19.030   7.053
 9407POPC   C4A56370  41.572  19.095   7.353
 9407POPC   C1B56371  41.642  19.308   6.453
 9407POPC   C2B56372  41.622  19.295   6.753
 9407POPC   C3B56373  41.633  19.355   7.053
 9407POPC   C4B56374  41.581  19.285   7.353
 9408POPC   NC356375   4.296  43.883   5.553
 9408POPC   PO456376   4.361  43.923   5.853
 9408POPC   GL156377   4.365  43.843   6.153
 9408POPC   GL256378   4.367  43.788   6.153
 9408POPC   C1A56379   4.302  43.868   6.453
 9408POPC   D2A56380   4.344  43.893   6.753
 9408POPC   C3A56381   4.350  43.841   7.053
 9408POPC   C4A56382   4.320  43.838   7.353
 9408POPC   C1B56383   4.331  43.660   6.453
 9408POPC   C2B56384   4.318  43.599   6.753
 9408POPC   C3B56385   4.367  43.619   7.053
 9408POPC   C4B56386   4.370  43.678   7.353
 9409POPC   NC356387  26.838   9.002   5.553
 9409POPC   PO456388  26.782   8.976   5.853
 9409POPC   GL156389  26.802   9.010   6.153
 9409POPC   GL256390  26.816   8.879   6.153
 9409POPC   C1A56391  26.827   8.958   6.453
 9409POPC   D2A56392  26.825   8.963   6.753
 9409POPC   C3A56393  26.831   9.020   7.053
 9409POPC   C4A56394  26.825   8.953   7.353
 9409POPC   C1B56395  26.810   8.694   6.453
 9409POPC   C2B56396  26.853   8.767   6.753
 9409POPC   C3B56397  26.809   8.743   7.053
 9409POPC   C4B56398  26.765   8.673   7.353
 9410POPC   NC356399  21.427   8.965   5.553
 9410POPC   PO456400  21.413   8.969   5.853
 9410POPC   GL156401  21.355   8.965   6.153
 9410POPC   GL256402  21.253   8.974   6.153
 9410POPC   C1A56403  21.397   9.005   6.453
 9410POPC   D2A56404  21.404   8.945   6.753
 9410POPC   C3A56405  21.400   8.977   7.053
 9410POPC   C4A56406  21.378   9.005   7.353
 9410POPC   C1B56407  21.163   8.887   6.453
 9410POPC   C2B56408  21.157   8.905   6.753
 9410POPC   C3B56409  21.155   8.857   7.053
 9410POPC   C4B56410  21.133   8.872   7.353
 9411POPC   NC356411  33.753  40.022   5.553
 9411POPC   PO456412  33.810  40.018   5.853
 9411POPC   GL156413  33.761  40.037   6.153
 9411POPC   GL256414  33.948  39.973   6.153
 9411POPC   C1A56415  33.786  40.018   6.453
 9411POPC   D2A56416  33.810  40.027   6.753
 9411POPC   C3A56417  33.765  40.004   7.053
 9411POPC   C4A56418  33.771  40.028   7.353
 9411POPC   C1B56419  33.999  39.903   6.453
 9411POPC   C2B56420  34.021  39.864   6.753
 9411POPC   C3B56421  34.064  39.871   7.053
 9411POPC   C4B56422  34.064  39.868   7.353
 9412POPC   NC356423  21.407  42.348   5.553
 9412POPC   PO456424  21.409  42.380   5.853
 9412POPC   GL156425  21.358  42.301   6.153
 9412POPC   GL256426  21.535  42.234   6.153
 9412POPC   C1A56427  21.406  42.367   6.453
 9412POPC   D2A56428  21.404  42.331   6.753
 9412POPC   C3A56429  21.433  42.299   7.053
 9412POPC   C4A56430  21.406  42.361   7.353
 9412POPC   C1B56431  21.553  42.224   6.453
 9412POPC   C2B56432  21.623  42.231   6.753
 9412POPC   C3B56433  21.581  42.161   7.053
 9412POPC   C4B56434  21.578  42.249   7.353
 9413POPC   NC356435  22.178  40.053   5.553
 9413POPC   PO456436  22.178  40.020   5.853
 9413POPC   GL156437  22.122  40.015   6.153
 9413POPC   GL256438  22.016  39.998   6.153
 9413POPC   C1A56439  22.157  40.040   6.453
 9413POPC   D2A56440  22.209  39.978   6.753
 9413POPC   C3A56441  22.166  40.034   7.053
 9413POPC   C4A56442  22.117  40.029   7.353
 9413POPC   C1B56443  21.955  40.067   6.453
 9413POPC   C2B56444  21.932  40.024   6.753
 9413POPC   C3B56445  21.911  40.109   7.053
 9413POPC   C4B56446  21.942  40.065   7.353
 9414POPC   NC356447  12.806  17.510   5.553
 9414POPC   PO456448  12.848  17.549   5.853
 9414POPC   GL156449  12.862  17.556   6.153
 9414POPC   GL256450  12.705  17.509   6.153
 9414POPC   C1A56451  12.877  17.507   6.453
 9414POPC   D2A56452  12.893  17.495   6.753
 9414POPC   C3A56453  12.870  17.473   7.053
 9414POPC   C4A56454  12.830  17.508   7.353
 9414POPC   C1B56455  12.593  17.477   6.453
 9414POPC   C2B56456  12.603  17.461   6.753
 9414POPC   C3B56457  12.581  17.487   7.053
 9414POPC   C4B56458  12.642  17.455   7.353
 9415POPC   NC356459   1.251  14.451   5.553
 9415POPC   PO456460   1.247  14.425   5.853
 9415POPC   GL156461   1.214  14.382   6.153
 9415POPC   GL256462   1.321  14.325   6.153
 9415POPC   C1A56463   1.226  14.434   6.453
 9415POPC   D2A56464   1.185  14.406   6.753
 9415POPC   C3A56465   1.216  14.359   7.053
 9415POPC   C4A56466   1.198  14.405   7.353
 9415POPC   C1B56467   1.361  14.200   6.453
 9415POPC   C2B56468   1.412  14.189   6.753
 9415POPC   C3B56469   1.434  14.182   7.053
 9415POPC   C4B56470   1.379  14.182   7.353
 9416POPC   NC356471  26.769  18.294   5.553
 9416POPC   PO456472  26.773  18.269   5.853
 9416POPC   GL156473  26.770  18.315   6.153
 9416POPC   GL256474  26.824  18.394   6.153
 9416POPC   C1A56475  26.810  18.319   6.453
 9416POPC   D2A56476  26.819  18.318   6.753
 9416POPC   C3A56477  26.806  18.247   7.053
 9416POPC   C4A56478  26.809  18.301   7.353
 9416POPC   C1B56479  26.809  18.522   6.453
 9416POPC   C2B56480  26.813  18.552   6.753
 9416POPC   C3B56481  26.853  18.486   7.053
 9416POPC   C4B56482  26.862  18.498   7.353
 9417POPC   NC356483  22.141  35.397   5.553
 9417POPC   PO456484  22.185  35.380   5.853
 9417POPC   GL156485  22.118  35.380   6.153
 9417POPC   GL256486  22.132  35.188   6.153
 9417POPC   C1A56487  22.180  35.376   6.453
 9417POPC   D2A56488  22.167  35.323   6.753
 9417POPC   C3A56489  22.126  35.324   7.053
 9417POPC   C4A56490  22.116  35.329   7.353
 9417POPC   C1B56491  22.171  35.106   6.453
 9417POPC   C2B56492  22.179  35.110   6.753
 9417POPC   C3B56493  22.138  35.105   7.053
 9417POPC   C4B56494  22.187  35.118   7.353
 9418POPC   NC356495  21.363  43.083   5.553
 9418POPC   PO456496  21.416  43.137   5.853
 9418POPC   GL156497  21.382  43.120   6.153
 9418POPC   GL256498  21.462  43.122   6.153
 9418POPC   C1A56499  21.421  43.158   6.453
 9418POPC   D2A56500  21.372  43.134   6.753
 9418POPC   C3A56501  21.353  43.071   7.053
 9418POPC   C4A56502  21.380  43.145   7.353
 9418POPC   C1B56503  21.670  43.107   6.453
 9418POPC   C2B56504  21.598  43.134   6.753
 9418POPC   C3B56505  21.632  43.144   7.053
 9418POPC   C4B56506  21.586  43.138   7.353
 9419POPC   NC356507   7.391   0.420   5.553
 9419POPC   PO456508   7.382   0.394   5.853
 9419POPC   GL156509   7.385   0.427   6.153
 9419POPC   GL256510   7.293   0.535   6.153
 9419POPC   C1A56511   7.438   0.423   6.453
 9419POPC   D2A56512   7.462   0.428   6.753
 9419POPC   C3A56513   7.390   0.389   7.053
 9419POPC   C4A56514   7.468   0.407   7.353
 9419POPC   C1B56515   7.227   0.560   6.453
 9419POPC   C2B56516   7.261   0.587   6.753
 9419POPC   C3B56517   7.236   0.578   7.053
 9419POPC   C4B56518   7.288   0.614   7.353
 9420POPC   NC356519  34.549  35.323   5.553
 9420POPC   PO456520  34.604  35.325   5.853
 9420POPC   GL156521  34.573  35.326   6.153
 9420POPC   GL256522  34.424  35.449   6.153
 9420POPC   C1A56523  34.576  35.307   6.453
 9420POPC   D2A56524  34.615  35.354   6.753
 9420POPC   C3A56525  34.616  35.332   7.053
 9420POPC   C4A56526  34.556  35.336   7.353
 9420POPC   C1B56527  34.319  35.465   6.453
 9420POPC   C2B56528  34.349  35.404   6.753
 9420POPC   C3B56529  34.320  35.473   7.053
 9420POPC   C4B56530  34.338  35.440   7.353
 9421POPC   NC356531  13.640  21.342   5.553
 9421POPC   PO456532  13.597  21.376   5.853
 9421POPC   GL156533  13.593  21.361   6.153
 9421POPC   GL256534  13.556  21.520   6.153
 9421POPC   C1A56535  13.582  21.378   6.453
 9421POPC   D2A56536  13.656  21.346   6.753
 9421POPC   C3A56537  13.606  21.426   7.053
 9421POPC   C4A56538  13.624  21.352   7.353
 9421POPC   C1B56539  13.414  21.606   6.453
 9421POPC   C2B56540  13.495  21.583   6.753
 9421POPC   C3B56541  13.493  21.522   7.053
 9421POPC   C4B56542  13.414  21.550   7.353
 9422POPC   NC356543  41.562  24.466   5.553
 9422POPC   PO456544  41.590  24.525   5.853
 9422POPC   GL156545  41.554  24.535   6.153
 9422POPC   GL256546  41.467  24.560   6.153
 9422POPC   C1A56547  41.512  24.443   6.453
 9422POPC   D2A56548  41.568  24.474   6.753
 9422POPC   C3A56549  41.601  24.452   7.053
 9422POPC   C4A56550  41.514  24.460   7.353
 9422POPC   C1B56551  41.431  24.737   6.453
 9422POPC   C2B56552  41.364  24.722   6.753
 9422POPC   C3B56553  41.449  24.647   7.053
 9422POPC   C4B56554  41.371  24.690   7.353
 9423POPC   NC356555  22.983  17.557   5.553
 9423POPC   PO456556  22.945  17.529   5.853
 9423POPC   GL156557  22.913  17.473   6.153
 9423POPC   GL256558  22.928  17.414   6.153
 9423POPC   C1A56559  22.889  17.528   6.453
 9423POPC   D2A56560  22.983  17.489   6.753
 9423POPC   C3A56561  22.914  17.538   7.053
 9423POPC   C4A56562  22.963  17.511   7.353
 9423POPC   C1B56563  22.880  17.239   6.453
 9423POPC   C2B56564  22.865  17.213   6.753
 9423POPC   C3B56565  22.922  17.243   7.053
 9423POPC   C4B56566  22.879  17.249   7.353
 9424POPC   NC356567  29.938  28.328   5.553
 9424POPC   PO456568  29.902  28.401   5.853
 9424POPC   GL156569  29.916  28.357   6.153
 9424POPC   GL256570  29.835  28.210   6.153
 9424POPC   C1A56571  29.966  28.410   6.453
 9424POPC   D2A56572  29.919  28.391   6.753
 9424POPC   C3A56573  29.877  28.409   7.053
 9424POPC   C4A56574  29.880  28.366   7.353
 9424POPC   C1B56575  29.848  28.187   6.453
 9424POPC   C2B56576  29.840  28.188   6.753
 9424POPC   C3B56577  29.763  28.169   7.053
 9424POPC   C4B56578  29.791  28.154   7.353
 9425POPC   NC356579   2.029  35.383   5.553
 9425POPC   PO456580   2.003  35.372   5.853
 9425POPC   GL156581   2.029  35.325   6.153
 9425POPC   GL256582   2.034  35.258   6.153
 9425POPC   C1A56583   1.943  35.351   6.453
 9425POPC   D2A56584   1.995  35.352   6.753
 9425POPC   C3A56585   2.018  35.339   7.053
 9425POPC   C4A56586   1.949  35.390   7.353
 9425POPC   C1B56587   2.116  35.140   6.453
 9425POPC   C2B56588   2.091  35.157   6.753
 9425POPC   C3B56589   2.091  35.166   7.053
 9425POPC   C4B56590   2.116  35.131   7.353
 9426POPC   NC356591  14.358  22.203   5.553
 9426POPC   PO456592  14.404  22.135   5.853
 9426POPC   GL156593  14.359  22.139   6.153
 9426POPC   GL256594  14.355  22.278   6.153
 9426POPC   C1A56595  14.389  22.140   6.453
 9426POPC   D2A56596  14.373  22.159   6.753
 9426POPC   C3A56597  14.390  22.169   7.053
 9426POPC   C4A56598  14.383  22.126   7.353
 9426POPC   C1B56599  14.439  22.455   6.453
 9426POPC   C2B56600  14.368  22.420   6.753
 9426POPC   C3B56601  14.356  22.450   7.053
 9426POPC   C4B56602  14.386  22.370   7.353
 9427POPC   NC356603  43.930  26.063   5.553
 9427POPC   PO456604  43.871  26.060   5.853
 9427POPC   GL156605  43.927  26.045   6.153
 9427POPC   GL256606  43.910  26.203   6.153
 9427POPC   C1A56607  43.888  26.057   6.453
 9427POPC   D2A56608  43.914  26.016   6.753
 9427POPC   C3A56609  43.923  26.074   7.053
 9427POPC   C4A56610  43.914  26.035   7.353
 9427POPC   C1B56611  43.859  26.333   6.453
 9427POPC   C2B56612  43.899  26.241   6.753
 9427POPC   C3B56613  43.849  26.333   7.053
 9427POPC   C4B56614  43.929  26.274   7.353
 9428POPC   NC356615  39.258  12.093   5.553
 9428POPC   PO456616  39.254  12.050   5.853
 9428POPC   GL156617  39.235  12.047   6.153
 9428POPC   GL256618  39.334  12.191   6.153
 9428POPC   C1A56619  39.279  12.080   6.453
 9428POPC   D2A56620  39.241  12.092   6.753
 9428POPC   C3A56621  39.244  12.122   7.053
 9428POPC   C4A56622  39.278  12.120   7.353
 9428POPC   C1B56623  39.355  12.268   6.453
 9428POPC   C2B56624  39.384  12.267   6.753
 9428POPC   C3B56625  39.345  12.277   7.053
 9428POPC   C4B56626  39.440  12.236   7.353
 9429POPC   NC356627  19.098  32.240   5.553
 9429POPC   PO456628  19.029  32.199   5.853
 9429POPC   GL156629  19.012  32.248   6.153
 9429POPC   GL256630  19.174  32.296   6.153
 9429POPC   C1A56631  19.009  32.212   6.453
 9429POPC   D2A56632  19.106  32.263   6.753
 9429POPC   C3A56633  19.049  32.274   7.053
 9429POPC   C4A56634  19.056  32.237   7.353
 9429POPC   C1B56635  19.259  32.398   6.453
 9429POPC   C2B56636  19.216  32.380   6.753
 9429POPC   C3B56637  19.267  32.450   7.053
 9429POPC   C4B56638  19.290  32.443   7.353
 9430POPC   NC356639  38.433  17.553   5.553
 9430POPC   PO456640  38.466  17.502   5.853
 9430POPC   GL156641  38.420  17.527   6.153
 9430POPC   GL256642  38.363  17.608   6.153
 9430POPC   C1A56643  38.480  17.544   6.453
 9430POPC   D2A56644  38.490  17.556   6.753
 9430POPC   C3A56645  38.480  17.488   7.053
 9430POPC   C4A56646  38.417  17.474   7.353
 9430POPC   C1B56647  38.226  17.649   6.453
 9430POPC   C2B56648  38.215  17.623   6.753
 9430POPC   C3B56649  38.193  17.615   7.053
 9430POPC   C4B56650  38.257  17.651   7.353
 9431POPC   NC356651   5.853  22.909   5.553
 9431POPC   PO456652   5.830  22.970   5.853
 9431POPC   GL156653   5.837  22.922   6.153
 9431POPC   GL256654   5.810  23.060   6.153
 9431POPC   C1A56655   5.896  22.946   6.453
 9431POPC   D2A56656   5.894  22.969   6.753
 9431POPC   C3A56657   5.849  22.945   7.053
 9431POPC   C4A56658   5.839  22.945   7.353
 9431POPC   C1B56659   5.818  23.144   6.453
 9431POPC   C2B56660   5.839  23.190   6.753
 9431POPC   C3B56661   5.881  23.200   7.053
 9431POPC   C4B56662   5.803  23.189   7.353
 9432POPC   NC356663  32.228  33.035   5.553
 9432POPC   PO456664  32.287  32.997   5.853
 9432POPC   GL156665  32.270  33.020   6.153
 9432POPC   GL256666  32.191  33.093   6.153
 9432POPC   C1A56667  32.276  32.985   6.453
 9432POPC   D2A56668  32.213  33.028   6.753
 9432POPC   C3A56669  32.283  32.996   7.053
 9432POPC   C4A56670  32.220  32.990   7.353
 9432POPC   C1B56671  32.074  33.150   6.453
 9432POPC   C2B56672  32.078  33.170   6.753
 9432POPC   C3B56673  32.020  33.157   7.053
 9432POPC   C4B56674  32.031  33.175   7.353
 9433POPC   NC356675  16.710  30.677   5.553
 9433POPC   PO456676  16.698  30.709   5.853
 9433POPC   GL156677  16.776  30.670   6.153
 9433POPC   GL256678  16.842  30.578   6.153
 9433POPC   C1A56679  16.689  30.740   6.453
 9433POPC   D2A56680  16.693  30.721   6.753
 9433POPC   C3A56681  16.697  30.649   7.053
 9433POPC   C4A56682  16.753  30.668   7.353
 9433POPC   C1B56683  16.920  30.457   6.453
 9433POPC   C2B56684  16.860  30.465   6.753
 9433POPC   C3B56685  16.852  30.534   7.053
 9433POPC   C4B56686  16.878  30.501   7.353
 9434POPC   NC356687  33.846   9.792   5.553
 9434POPC   PO456688  33.786   9.794   5.853
 9434POPC   GL156689  33.829   9.736   6.153
 9434POPC   GL256690  33.842   9.830   6.153
 9434POPC   C1A56691  33.817   9.723   6.453
 9434POPC   D2A56692  33.834   9.710   6.753
 9434POPC   C3A56693  33.765   9.794   7.053
 9434POPC   C4A56694  33.806   9.737   7.353
 9434POPC   C1B56695  33.883   9.994   6.453
 9434POPC   C2B56696  33.864   9.999   6.753
 9434POPC   C3B56697  33.826   9.985   7.053
 9434POPC   C4B56698  33.813  10.036   7.353
 9435POPC   NC356699   1.207  13.636   5.553
 9435POPC   PO456700   1.183  13.648   5.853
 9435POPC   GL156701   1.198  13.622   6.153
 9435POPC   GL256702   1.283  13.495   6.153
 9435POPC   C1A56703   1.237  13.652   6.453
 9435POPC   D2A56704   1.235  13.582   6.753
 9435POPC   C3A56705   1.199  13.641   7.053
 9435POPC   C4A56706   1.240  13.629   7.353
 9435POPC   C1B56707   1.250  13.418   6.453
 9435POPC   C2B56708   1.296  13.423   6.753
 9435POPC   C3B56709   1.273  13.366   7.053
 9435POPC   C4B56710   1.282  13.339   7.353
 9436POPC   NC356711  12.122  20.622   5.553
 9436POPC   PO456712  12.102  20.637   5.853
 9436POPC   GL156713  12.075  20.639   6.153
 9436POPC   GL256714  12.039  20.545   6.153
 9436POPC   C1A56715  12.108  20.660   6.453
 9436POPC   D2A56716  12.086  20.612   6.753
 9436POPC   C3A56717  12.092  20.566   7.053
 9436POPC   C4A56718  12.067  20.581   7.353
 9436POPC   C1B56719  11.976  20.379   6.453
 9436POPC   C2B56720  12.012  20.429   6.753
 9436POPC   C3B56721  11.921  20.391   7.053
 9436POPC   C4B56722  11.950  20.375   7.353
 9437POPC   NC356723  27.581   7.445   5.553
 9437POPC   PO456724  27.557   7.445   5.853
 9437POPC   GL156725  27.609   7.379   6.153
 9437POPC   GL256726  27.563   7.269   6.153
 9437POPC   C1A56727  27.555   7.446   6.453
 9437POPC   D2A56728  27.616   7.387   6.753
 9437POPC   C3A56729  27.632   7.436   7.053
 9437POPC   C4A56730  27.558   7.450   7.353
 9437POPC   C1B56731  27.485   7.244   6.453
 9437POPC   C2B56732  27.522   7.227   6.753
 9437POPC   C3B56733  27.426   7.205   7.053
 9437POPC   C4B56734  27.485   7.205   7.353
 9438POPC   NC356735  22.146  16.756   5.553
 9438POPC   PO456736  22.134  16.698   5.853
 9438POPC   GL156737  22.199  16.687   6.153
 9438POPC   GL256738  22.305  16.782   6.153
 9438POPC   C1A56739  22.120  16.752   6.453
 9438POPC   D2A56740  22.196  16.705   6.753
 9438POPC   C3A56741  22.137  16.754   7.053
 9438POPC   C4A56742  22.184  16.688   7.353
 9438POPC   C1B56743  22.348  16.924   6.453
 9438POPC   C2B56744  22.346  16.921   6.753
 9438POPC   C3B56745  22.341  16.854   7.053
 9438POPC   C4B56746  22.394  16.848   7.353
 9439POPC   NC356747  38.479  21.366   5.553
 9439POPC   PO456748  38.451  21.401   5.853
 9439POPC   GL156749  38.505  21.339   6.153
 9439POPC   GL256750  38.529  21.371   6.153
 9439POPC   C1A56751  38.493  21.344   6.453
 9439POPC   D2A56752  38.464  21.384   6.753
 9439POPC   C3A56753  38.434  21.408   7.053
 9439POPC   C4A56754  38.408  21.357   7.353
 9439POPC   C1B56755  38.672  21.347   6.453
 9439POPC   C2B56756  38.652  21.355   6.753
 9439POPC   C3B56757  38.665  21.306   7.053
 9439POPC   C4B56758  38.721  21.292   7.353
 9440POPC   NC356759  15.955  19.099   5.553
 9440POPC   PO456760  15.954  19.035   5.853
 9440POPC   GL156761  15.921  19.107   6.153
 9440POPC   GL256762  15.802  19.063   6.153
 9440POPC   C1A56763  15.923  19.090   6.453
 9440POPC   D2A56764  15.936  19.042   6.753
 9440POPC   C3A56765  15.906  19.067   7.053
 9440POPC   C4A56766  15.918  19.049   7.353
 9440POPC   C1B56767  15.673  19.014   6.453
 9440POPC   C2B56768  15.702  18.959   6.753
 9440POPC   C3B56769  15.700  18.979   7.053
 9440POPC   C4B56770  15.752  19.001   7.353
 9441POPC   NC356771  15.981   4.327   5.553
 9441POPC   PO456772  15.930   4.288   5.853
 9441POPC   GL156773  15.967   4.319   6.153
 9441POPC   GL256774  16.071   4.217   6.153
 9441POPC   C1A56775  15.964   4.295   6.453
 9441POPC   D2A56776  15.966   4.313   6.753
 9441POPC   C3A56777  15.944   4.309   7.053
 9441POPC   C4A56778  16.001   4.303   7.353
 9441POPC   C1B56779  16.123   4.173   6.453
 9441POPC   C2B56780  16.151   4.099   6.753
 9441POPC   C3B56781  16.127   4.112   7.053
 9441POPC   C4B56782  16.086   4.146   7.353
 9442POPC   NC356783  35.363  27.568   5.553
 9442POPC   PO456784  35.329  27.571   5.853
 9442POPC   GL156785  35.326  27.595   6.153
 9442POPC   GL256786  35.503  27.643   6.153
 9442POPC   C1A56787  35.345  27.561   6.453
 9442POPC   D2A56788  35.352  27.558   6.753
 9442POPC   C3A56789  35.400  27.563   7.053
 9442POPC   C4A56790  35.354  27.588   7.353
 9442POPC   C1B56791  35.596  27.664   6.453
 9442POPC   C2B56792  35.629  27.590   6.753
 9442POPC   C3B56793  35.585  27.633   7.053
 9442POPC   C4B56794  35.619  27.602   7.353
 9443POPC   NC356795   1.968   8.193   5.553
 9443POPC   PO456796   1.999   8.231   5.853
 9443POPC   GL156797   1.948   8.233   6.153
 9443POPC   GL256798   2.014   8.084   6.153
 9443POPC   C1A56799   2.007   8.149   6.453
 9443POPC   D2A56800   2.011   8.223   6.753
 9443POPC   C3A56801   1.990   8.184   7.053
 9443POPC   C4A56802   1.960   8.205   7.353
 9443POPC   C1B56803   2.151   7.959   6.453
 9443POPC   C2B56804   2.138   7.983   6.753
 9443POPC   C3B56805   2.168   7.975   7.053
 9443POPC   C4B56806   2.139   8.023   7.353
 9444POPC   NC356807  28.380   1.190   5.553
 9444POPC   PO456808  28.369   1.204   5.853
 9444POPC   GL156809  28.381   1.238   6.153
 9444POPC   GL256810  28.385   1.317   6.153
 9444POPC   C1A56811  28.397   1.178   6.453
 9444POPC   D2A56812  28.341   1.196   6.753
 9444POPC   C3A56813  28.412   1.185   7.053
 9444POPC   C4A56814  28.371   1.166   7.353
 9444POPC   C1B56815  28.425   1.458   6.453
 9444POPC   C2B56816  28.460   1.404   6.753
 9444POPC   C3B56817  28.478   1.484   7.053
 9444POPC   C4B56818  28.504   1.478   7.353
 9445POPC   NC356819  12.049  26.825   5.553
 9445POPC   PO456820  12.082  26.768   5.853
 9445POPC   GL156821  12.105  26.817   6.153
 9445POPC   GL256822  12.106  26.708   6.153
 9445POPC   C1A56823  12.091  26.856   6.453
 9445POPC   D2A56824  12.115  26.845   6.753
 9445POPC   C3A56825  12.121  26.798   7.053
 9445POPC   C4A56826  12.033  26.778   7.353
 9445POPC   C1B56827  12.211  26.569   6.453
 9445POPC   C2B56828  12.204  26.606   6.753
 9445POPC   C3B56829  12.249  26.655   7.053
 9445POPC   C4B56830  12.226  26.654   7.353
 9446POPC   NC356831  19.066  11.292   5.553
 9446POPC   PO456832  19.090  11.316   5.853
 9446POPC   GL156833  19.050  11.268   6.153
 9446POPC   GL256834  19.124  11.440   6.153
 9446POPC   C1A56835  19.049  11.328   6.453
 9446POPC   D2A56836  19.019  11.312   6.753
 9446POPC   C3A56837  19.037  11.343   7.053
 9446POPC   C4A56838  19.055  11.300   7.353
 9446POPC   C1B56839  19.210  11.460   6.453
 9446POPC   C2B56840  19.156  11.475   6.753
 9446POPC   C3B56841  19.175  11.535   7.053
 9446POPC   C4B56842  19.246  11.527   7.353
 9447POPC   NC356843   2.767  26.043   5.553
 9447POPC   PO456844   2.753  26.000   5.853
 9447POPC   GL156845   2.751  26.053   6.153
 9447POPC   GL256846   2.837  25.976   6.153
 9447POPC   C1A56847   2.791  26.033   6.453
 9447POPC   D2A56848   2.789  26.075   6.753
 9447POPC   C3A56849   2.787  26.088   7.053
 9447POPC   C4A56850   2.789  26.024   7.353
 9447POPC   C1B56851   2.958  25.900   6.453
 9447POPC   C2B56852   2.960  25.990   6.753
 9447POPC   C3B56853   2.982  25.940   7.053
 9447POPC   C4B56854   2.950  25.952   7.353
 9448POPC   NC356855  12.073  43.137   5.553
 9448POPC   PO456856  12.085  43.107   5.853
 9448POPC   GL156857  12.123  43.145   6.153
 9448POPC   GL256858  11.958  43.145   6.153
 9448POPC   C1A56859  12.065  43.122   6.453
 9448POPC   D2A56860  12.087  43.140   6.753
 9448POPC   C3A56861  12.050  43.107   7.053
 9448POPC   C4A56862  12.066  43.079   7.353
 9448POPC   C1B56863  11.881  43.259   6.453
 9448POPC   C2B56864  11.860  43.194   6.753
 9448POPC   C3B56865  11.816  43.221   7.053
 9448POPC   C4B56866  11.867  43.254   7.353
 9449POPC   NC356867  15.978  24.524   5.553
 9449POPC   PO456868  15.979  24.475   5.853
 9449POPC   GL156869  15.963  24.535   6.153
 9449POPC   GL256870  15.898  24.597   6.153
 9449POPC   C1A56871  15.975  24.505   6.453
 9449POPC   D2A56872  15.983  24.537   6.753
 9449POPC   C3A56873  15.986  24.450   7.053
 9449POPC   C4A56874  15.978  24.491   7.353
 9449POPC   C1B56875  15.823  24.702   6.453
 9449POPC   C2B56876  15.831  24.695   6.753
 9449POPC   C3B56877  15.879  24.689   7.053
 9449POPC   C4B56878  15.826  24.675   7.353
 9450POPC   NC356879   2.738  10.503   5.553
 9450POPC   PO456880   2.808  10.550   5.853
 9450POPC   GL156881   2.754  10.551   6.153
 9450POPC   GL256882   2.907  10.529   6.153
 9450POPC   C1A56883   2.779  10.504   6.453
 9450POPC   D2A56884   2.797  10.509   6.753
 9450POPC   C3A56885   2.813  10.555   7.053
 9450POPC   C4A56886   2.761  10.484   7.353
 9450POPC   C1B56887   3.012  10.391   6.453
 9450POPC   C2B56888   3.040  10.433   6.753
 9450POPC   C3B56889   2.993  10.427   7.053
 9450POPC   C4B56890   3.038  10.456   7.353
 9451POPC   NC356891   9.798   0.440   5.553
 9451POPC   PO456892   9.757   0.438   5.853
 9451POPC   GL156893   9.797   0.426   6.153
 9451POPC   GL256894   9.667   0.290   6.153
 9451POPC   C1A56895   9.757   0.421   6.453
 9451POPC   D2A56896   9.747   0.420   6.753
 9451POPC   C3A56897   9.753   0.402   7.053
 9451POPC   C4A56898   9.717   0.485   7.353
 9451POPC   C1B56899   9.629   0.221   6.453
 9451POPC   C2B56900   9.630   0.216   6.753
 9451POPC   C3B56901   9.624   0.185   7.053
 9451POPC   C4B56902   9.706   0.160   7.353
 9452POPC   NC356903  17.497  26.829   5.553
 9452POPC   PO456904  17.494  26.822   5.853
 9452POPC   GL156905  17.523  26.778   6.153
 9452POPC   GL256906  17.553  26.977   6.153
 9452POPC   C1A56907  17.545  26.790   6.453
 9452POPC   D2A56908  17.461  26.784   6.753
 9452POPC   C3A56909  17.461  26.857   7.053
 9452POPC   C4A56910  17.509  26.770   7.353
 9452POPC   C1B56911  17.657  27.041   6.453
 9452POPC   C2B56912  17.604  27.049   6.753
 9452POPC   C3B56913  17.664  27.052   7.053
 9452POPC   C4B56914  17.667  27.081   7.353
 9453POPC   NC356915   8.926   3.504   5.553
 9453POPC   PO456916   8.995   3.577   5.853
 9453POPC   GL156917   9.000   3.524   6.153
 9453POPC   GL256918   9.035   3.598   6.153
 9453POPC   C1A56919   8.976   3.545   6.453
 9453POPC   D2A56920   8.955   3.590   6.753
 9453POPC   C3A56921   9.011   3.563   7.053
 9453POPC   C4A56922   8.983   3.517   7.353
 9453POPC   C1B56923   9.141   3.695   6.453
 9453POPC   C2B56924   9.168   3.705   6.753
 9453POPC   C3B56925   9.184   3.695   7.053
 9453POPC   C4B56926   9.193   3.696   7.353
 9454POPC   NC356927  11.269   2.022   5.553
 9454POPC   PO456928  11.309   1.957   5.853
 9454POPC   GL156929  11.283   2.017   6.153
 9454POPC   GL256930  11.398   1.938   6.153
 9454POPC   C1A56931  11.324   2.012   6.453
 9454POPC   D2A56932  11.253   2.013   6.753
 9454POPC   C3A56933  11.300   1.947   7.053
 9454POPC   C4A56934  11.301   1.994   7.353
 9454POPC   C1B56935  11.479   1.909   6.453
 9454POPC   C2B56936  11.537   1.833   6.753
 9454POPC   C3B56937  11.549   1.895   7.053
 9454POPC   C4B56938  11.527   1.855   7.353
 9455POPC   NC356939  40.012  20.586   5.553
 9455POPC   PO456940  39.974  20.574   5.853
 9455POPC   GL156941  39.964  20.584   6.153
 9455POPC   GL256942  40.148  20.710   6.153
 9455POPC   C1A56943  40.047  20.571   6.453
 9455POPC   D2A56944  40.037  20.650   6.753
 9455POPC   C3A56945  39.981  20.639   7.053
 9455POPC   C4A56946  40.012  20.573   7.353
 9455POPC   C1B56947  40.202  20.741   6.453
 9455POPC   C2B56948  40.194  20.793   6.753
 9455POPC   C3B56949  40.170  20.725   7.053
 9455POPC   C4B56950  40.246  20.755   7.353
 9456POPC   NC356951  39.958  34.540   5.553
 9456POPC   PO456952  40.046  34.547   5.853
 9456POPC   GL156953  39.981  34.554   6.153
 9456POPC   GL256954  39.978  34.409   6.153
 9456POPC   C1A56955  40.026  34.600   6.453
 9456POPC   D2A56956  39.981  34.556   6.753
 9456POPC   C3A56957  40.055  34.565   7.053
 9456POPC   C4A56958  40.034  34.604   7.353
 9456POPC   C1B56959  40.052  34.331   6.453
 9456POPC   C2B56960  40.031  34.362   6.753
 9456POPC   C3B56961  40.030  34.292   7.053
 9456POPC   C4B56962  40.042  34.365   7.353
 9457POPC   NC356963  19.813  34.600   5.553
 9457POPC   PO456964  19.847  34.530   5.853
 9457POPC   GL156965  19.874  34.621   6.153
 9457POPC   GL256966  19.694  34.541   6.153
 9457POPC   C1A56967  19.831  34.567   6.453
 9457POPC   D2A56968  19.835  34.528   6.753
 9457POPC   C3A56969  19.844  34.589   7.053
 9457POPC   C4A56970  19.872  34.542   7.353
 9457POPC   C1B56971  19.572  34.446   6.453
 9457POPC   C2B56972  19.641  34.476   6.753
 9457POPC   C3B56973  19.650  34.471   7.053
 9457POPC   C4B56974  19.661  34.435   7.353
 9458POPC   NC356975  29.894  25.998   5.553
 9458POPC   PO456976  29.896  25.996   5.853
 9458POPC   GL156977  29.941  26.023   6.153
 9458POPC   GL256978  30.024  25.932   6.153
 9458POPC   C1A56979  29.949  26.056   6.453
 9458POPC   D2A56980  29.908  26.054   6.753
 9458POPC   C3A56981  29.893  26.071   7.053
 9458POPC   C4A56982  29.911  26.055   7.353
 9458POPC   C1B56983  30.051  25.891   6.453
 9458POPC   C2B56984  30.111  25.818   6.753
 9458POPC   C3B56985  30.106  25.813   7.053
 9458POPC   C4B56986  30.136  25.839   7.353
 9459POPC   NC356987  27.633  25.313   5.553
 9459POPC   PO456988  27.638  25.297   5.853
 9459POPC   GL156989  27.592  25.277   6.153
 9459POPC   GL256990  27.478  25.233   6.153
 9459POPC   C1A56991  27.544  25.283   6.453
 9459POPC   D2A56992  27.571  25.273   6.753
 9459POPC   C3A56993  27.560  25.262   7.053
 9459POPC   C4A56994  27.549  25.246   7.353
 9459POPC   C1B56995  27.351  25.238   6.453
 9459POPC   C2B56996  27.361  25.239   6.753
 9459POPC   C3B56997  27.343  25.247   7.053
 9459POPC   C4B56998  27.361  25.234   7.353
 9460POPC   NC356999   0.447   1.990   5.553
 9460POPC   PO457000   0.440   2.036   5.853
 9460POPC   GL157001   0.457   2.036   6.153
 9460POPC   GL257002   0.442   2.076   6.153
 9460POPC   C1A57003   0.484   1.968   6.453
 9460POPC   D2A57004   0.415   1.994   6.753
 9460POPC   C3A57005   0.408   2.007   7.053
 9460POPC   C4A57006   0.485   1.972   7.353
 9460POPC   C1B57007   0.542   2.265   6.453
 9460POPC   C2B57008   0.584   2.234   6.753
 9460POPC   C3B57009   0.508   2.186   7.053
 9460POPC   C4B57010   0.575   2.252   7.353
 9461POPC   NC357011  29.896  10.541   5.553
 9461POPC   PO457012  29.963  10.546   5.853
 9461POPC   GL157013  29.970  10.535   6.153
 9461POPC   GL257014  29.787  10.499   6.153
 9461POPC   C1A57015  29.929  10.563   6.453
 9461POPC   D2A57016  29.943  10.567   6.753
 9461POPC   C3A57017  29.883  10.477   7.053
 9461POPC   C4A57018  29.935  10.488   7.353
 9461POPC   C1B57019  29.640  10.430   6.453
 9461POPC   C2B57020  29.707  10.430   6.753
 9461POPC   C3B57021  29.640  10.440   7.053
 9461POPC   C4B57022  29.708  10.473   7.353
 9462POPC   NC357023  38.485   2.778   5.553
 9462POPC   PO457024  38.476   2.804   5.853
 9462POPC   GL157025  38.423   2.794   6.153
 9462POPC   GL257026  38.550   2.747   6.153
 9462POPC   C1A57027  38.488   2.727   6.453
 9462POPC   D2A57028  38.482   2.726   6.753
 9462POPC   C3A57029  38.452   2.765   7.053
 9462POPC   C4A57030  38.411   2.768   7.353
 9462POPC   C1B57031  38.742   2.763   6.453
 9462POPC   C2B57032  38.689   2.738   6.753
 9462POPC   C3B57033  38.725   2.711   7.053
 9462POPC   C4B57034  38.682   2.751   7.353
 9463POPC   NC357035   9.720  24.520   5.553
 9463POPC   PO457036   9.756  24.440   5.853
 9463POPC   GL157037   9.710  24.496   6.153
 9463POPC   GL257038   9.777  24.382   6.153
 9463POPC   C1A57039   9.781  24.491   6.453
 9463POPC   D2A57040   9.716  24.468   6.753
 9463POPC   C3A57041   9.779  24.488   7.053
 9463POPC   C4A57042   9.780  24.482   7.353
 9463POPC   C1B57043   9.685  24.232   6.453
 9463POPC   C2B57044   9.683  24.248   6.753
 9463POPC   C3B57045   9.684  24.272   7.053
 9463POPC   C4B57046   9.742  24.271   7.353
 9464POPC   NC357047   5.875  39.192   5.553
 9464POPC   PO457048   5.861  39.264   5.853
 9464POPC   GL157049   5.894  39.226   6.153
 9464POPC   GL257050   5.904  39.063   6.153
 9464POPC   C1A57051   5.840  39.226   6.453
 9464POPC   D2A57052   5.879  39.270   6.753
 9464POPC   C3A57053   5.866  39.262   7.053
 9464POPC   C4A57054   5.843  39.223   7.353
 9464POPC   C1B57055   5.851  38.972   6.453
 9464POPC   C2B57056   5.867  38.948   6.753
 9464POPC   C3B57057   5.870  39.024   7.053
 9464POPC   C4B57058   5.859  38.941   7.353
 9465POPC   NC357059   1.182  38.442   5.553
 9465POPC   PO457060   1.227  38.489   5.853
 9465POPC   GL157061   1.248  38.494   6.153
 9465POPC   GL257062   1.132  38.461   6.153
 9465POPC   C1A57063   1.192  38.492   6.453
 9465POPC   D2A57064   1.184  38.500   6.753
 9465POPC   C3A57065   1.217  38.452   7.053
 9465POPC   C4A57066   1.225  38.410   7.353
 9465POPC   C1B57067   1.031  38.504   6.453
 9465POPC   C2B57068   0.973  38.591   6.753
 9465POPC   C3B57069   1.026  38.498   7.053
 9465POPC   C4B57070   1.015  38.595   7.353
 9466POPC   NC357071   5.864  29.131   5.553
 9466POPC   PO457072   5.899  29.127   5.853
 9466POPC   GL157073   5.821  29.140   6.153
 9466POPC   GL257074   5.927  29.000   6.153
 9466POPC   C1A57075   5.855  29.185   6.453
 9466POPC   D2A57076   5.882  29.099   6.753
 9466POPC   C3A57077   5.862  29.122   7.053
 9466POPC   C4A57078   5.866  29.181   7.353
 9466POPC   C1B57079   5.869  28.945   6.453
 9466POPC   C2B57080   5.917  28.894   6.753
 9466POPC   C3B57081   5.925  28.904   7.053
 9466POPC   C4B57082   5.927  28.931   7.353
 9467POPC   NC357083   4.356   8.181   5.553
 9467POPC   PO457084   4.312   8.242   5.853
 9467POPC   GL157085   4.313   8.216   6.153
 9467POPC   GL257086   4.224   8.115   6.153
 9467POPC   C1A57087   4.287   8.234   6.453
 9467POPC   D2A57088   4.285   8.224   6.753
 9467POPC   C3A57089   4.321   8.232   7.053
 9467POPC   C4A57090   4.316   8.172   7.353
 9467POPC   C1B57091   4.102   8.126   6.453
 9467POPC   C2B57092   4.128   8.057   6.753
 9467POPC   C3B57093   4.128   8.039   7.053
 9467POPC   C4B57094   4.084   8.035   7.353
 9468POPC   NC357095  21.353   7.410   5.553
 9468POPC   PO457096  21.423   7.448   5.853
 9468POPC   GL157097  21.378   7.392   6.153
 9468POPC   GL257098  21.282   7.338   6.153
 9468POPC   C1A57099  21.360   7.453   6.453
 9468POPC   D2A57100  21.365   7.454   6.753
 9468POPC   C3A57101  21.411   7.420   7.053
 9468POPC   C4A57102  21.421   7.460   7.353
 9468POPC   C1B57103  21.177   7.198   6.453
 9468POPC   C2B57104  21.227   7.211   6.753
 9468POPC   C3B57105  21.169   7.259   7.053
 9468POPC   C4B57106  21.242   7.291   7.353
 9469POPC   NC357107   6.624  19.079   5.553
 9469POPC   PO457108   6.614  19.029   5.853
 9469POPC   GL157109   6.646  19.043   6.153
 9469POPC   GL257110   6.639  19.187   6.153
 9469POPC   C1A57111   6.671  19.059   6.453
 9469POPC   D2A57112   6.648  19.028   6.753
 9469POPC   C3A57113   6.621  19.066   7.053
 9469POPC   C4A57114   6.667  19.091   7.353
 9469POPC   C1B57115   6.592  19.285   6.453
 9469POPC   C2B57116   6.631  19.335   6.753
 9469POPC   C3B57117   6.666  19.276   7.053
 9469POPC   C4B57118   6.632  19.299   7.353
 9470POPC   NC357119  15.946   6.617   5.553
 9470POPC   PO457120  15.935   6.665   5.853
 9470POPC   GL157121  15.958   6.619   6.153
 9470POPC   GL257122  16.034   6.582   6.153
 9470POPC   C1A57123  15.984   6.654   6.453
 9470POPC   D2A57124  15.929   6.651   6.753
 9470POPC   C3A57125  15.960   6.637   7.053
 9470POPC   C4A57126  15.951   6.689   7.353
 9470POPC   C1B57127  16.110   6.443   6.453
 9470POPC   C2B57128  16.053   6.444   6.753
 9470POPC   C3B57129  16.130   6.406   7.053
 9470POPC   C4B57130  16.113   6.390   7.353
 9471POPC   NC357131   8.208   5.046   5.553
 9471POPC   PO457132   8.163   5.061   5.853
 9471POPC   GL157133   8.195   5.063   6.153
 9471POPC   GL257134   8.305   5.018   6.153
 9471POPC   C1A57135   8.209   5.097   6.453
 9471POPC   D2A57136   8.166   5.120   6.753
 9471POPC   C3A57137   8.202   5.070   7.053
 9471POPC   C4A57138   8.191   5.113   7.353
 9471POPC   C1B57139   8.427   5.020   6.453
 9471POPC   C2B57140   8.404   5.020   6.753
 9471POPC   C3B57141   8.451   5.069   7.053
 9471POPC   C4B57142   8.419   4.999   7.353
 9472POPC   NC357143   8.980  15.206   5.553
 9472POPC   PO457144   8.975  15.188   5.853
 9472POPC   GL157145   8.980  15.157   6.153
 9472POPC   GL257146   9.100  15.268   6.153
 9472POPC   C1A57147   8.957  15.163   6.453
 9472POPC   D2A57148   8.973  15.143   6.753
 9472POPC   C3A57149   8.948  15.164   7.053
 9472POPC   C4A57150   8.974  15.135   7.353
 9472POPC   C1B57151   9.157  15.277   6.453
 9472POPC   C2B57152   9.209  15.303   6.753
 9472POPC   C3B57153   9.199  15.347   7.053
 9472POPC   C4B57154   9.174  15.280   7.353
 9473POPC   NC357155   2.020  36.122   5.553
 9473POPC   PO457156   2.032  36.091   5.853
 9473POPC   GL157157   2.038  36.102   6.153
 9473POPC   GL257158   1.928  36.072   6.153
 9473POPC   C1A57159   2.003  36.139   6.453
 9473POPC   D2A57160   2.036  36.177   6.753
 9473POPC   C3A57161   1.980  36.156   7.053
 9473POPC   C4A57162   2.036  36.146   7.353
 9473POPC   C1B57163   1.866  35.897   6.453
 9473POPC   C2B57164   1.866  35.973   6.753
 9473POPC   C3B57165   1.861  35.975   7.053
 9473POPC   C4B57166   1.774  35.962   7.353
 9474POPC   NC357167  21.392  36.095   5.553
 9474POPC   PO457168  21.414  36.162   5.853
 9474POPC   GL157169  21.394  36.120   6.153
 9474POPC   GL257170  21.261  36.167   6.153
 9474POPC   C1A57171  21.430  36.147   6.453
 9474POPC   D2A57172  21.337  36.089   6.753
 9474POPC   C3A57173  21.388  36.131   7.053
 9474POPC   C4A57174  21.352  36.169   7.353
 9474POPC   C1B57175  21.123  36.126   6.453
 9474POPC   C2B57176  21.104  36.082   6.753
 9474POPC   C3B57177  21.176  36.141   7.053
 9474POPC   C4B57178  21.160  36.139   7.353
 9475POPC   NC357179  12.878  42.376   5.553
 9475POPC   PO457180  12.833  42.306   5.853
 9475POPC   GL157181  12.875  42.368   6.153
 9475POPC   GL257182  12.810  42.253   6.153
 9475POPC   C1A57183  12.879  42.322   6.453
 9475POPC   D2A57184  12.868  42.369   6.753
 9475POPC   C3A57185  12.806  42.332   7.053
 9475POPC   C4A57186  12.843  42.378   7.353
 9475POPC   C1B57187  12.783  42.098   6.453
 9475POPC   C2B57188  12.700  42.137   6.753
 9475POPC   C3B57189  12.692  42.126   7.053
 9475POPC   C4B57190  12.709  42.129   7.353
 9476POPC   NC357191  40.816  18.272   5.553
 9476POPC   PO457192  40.817  18.242   5.853
 9476POPC   GL157193  40.817  18.286   6.153
 9476POPC   GL257194  40.704  18.398   6.153
 9476POPC   C1A57195  40.828  18.262   6.453
 9476POPC   D2A57196  40.824  18.297   6.753
 9476POPC   C3A57197  40.739  18.272   7.053
 9476POPC   C4A57198  40.792  18.291   7.353
 9476POPC   C1B57199  40.669  18.456   6.453
 9476POPC   C2B57200  40.599  18.525   6.753
 9476POPC   C3B57201  40.628  18.443   7.053
 9476POPC   C4B57202  40.678  18.462   7.353
 9477POPC   NC357203  34.542   1.244   5.553
 9477POPC   PO457204  34.580   1.240   5.853
 9477POPC   GL157205  34.549   1.198   6.153
 9477POPC   GL257206  34.424   1.270   6.153
 9477POPC   C1A57207  34.612   1.258   6.453
 9477POPC   D2A57208  34.574   1.238   6.753
 9477POPC   C3A57209  34.567   1.223   7.053
 9477POPC   C4A57210  34.539   1.247   7.353
 9477POPC   C1B57211  34.397   1.340   6.453
 9477POPC   C2B57212  34.321   1.368   6.753
 9477POPC   C3B57213  34.369   1.353   7.053
 9477POPC   C4B57214  34.375   1.313   7.353
 9478POPC   NC357215  17.488   3.499   5.553
 9478POPC   PO457216  17.545   3.554   5.853
 9478POPC   GL157217  17.545   3.577   6.153
 9478POPC   GL257218  17.616   3.506   6.153
 9478POPC   C1A57219  17.531   3.539   6.453
 9478POPC   D2A57220  17.546   3.581   6.753
 9478POPC   C3A57221  17.502   3.534   7.053
 9478POPC   C4A57222  17.551   3.562   7.353
 9478POPC   C1B57223  17.727   3.377   6.453
 9478POPC   C2B57224  17.678   3.366   6.753
 9478POPC   C3B57225  17.745   3.364   7.053
 9478POPC   C4B57226  17.738   3.392   7.353
 9479POPC   NC357227  12.842  41.547   5.553
 9479POPC   PO457228  12.836  41.548   5.853
 9479POPC   GL157229  12.849  41.574   6.153
 9479POPC   GL257230  12.957  41.511   6.153
 9479POPC   C1A57231  12.882  41.599   6.453
 9479POPC   D2A57232  12.805  41.574   6.753
 9479POPC   C3A57233  12.832  41.530   7.053
 9479POPC   C4A57234  12.894  41.588   7.353
 9479POPC   C1B57235  13.057  41.470   6.453
 9479POPC   C2B57236  13.041  41.442   6.753
 9479POPC   C3B57237  13.070  41.468   7.053
 9479POPC   C4B57238  13.100  41.440   7.353
 9480POPC   NC357239  15.926   3.501   5.553
 9480POPC   PO457240  15.911   3.495   5.853
 9480POPC   GL157241  15.980   3.507   6.153
 9480POPC   GL257242  15.988   3.630   6.153
 9480POPC   C1A57243  15.914   3.577   6.453
 9480POPC   D2A57244  15.993   3.527   6.753
 9480POPC   C3A57245  15.919   3.587   7.053
 9480POPC   C4A57246  16.005   3.575   7.353
 9480POPC   C1B57247  15.939   3.762   6.453
 9480POPC   C2B57248  15.963   3.742   6.753
 9480POPC   C3B57249  16.033   3.783   7.053
 9480POPC   C4B57250  15.942   3.752   7.353
 9481POPC   NC357251   4.310  28.370   5.553
 9481POPC   PO457252   4.319  28.385   5.853
 9481POPC   GL157253   4.314  28.325   6.153
 9481POPC   GL257254   4.317  28.203   6.153
 9481POPC   C1A57255   4.355  28.360   6.453
 9481POPC   D2A57256   4.363  28.377   6.753
 9481POPC   C3A57257   4.322  28.374   7.053
 9481POPC   C4A57258   4.353  28.406   7.353
 9481POPC   C1B57259   4.421  28.085   6.453
 9481POPC   C2B57260   4.382  28.142   6.753
 9481POPC   C3B57261   4.362  28.172   7.053
 9481POPC   C4B57262   4.360  28.097   7.353
 9482POPC   NC357263   2.781  25.232   5.553
 9482POPC   PO457264   2.748  25.290   5.853
 9482POPC   GL157265   2.741  25.300   6.153
 9482POPC   GL257266   2.712  25.174   6.153
 9482POPC   C1A57267   2.767  25.237   6.453
 9482POPC   D2A57268   2.758  25.270   6.753
 9482POPC   C3A57269   2.775  25.216   7.053
 9482POPC   C4A57270   2.753  25.242   7.353
 9482POPC   C1B57271   2.587  25.081   6.453
 9482POPC   C2B57272   2.553  25.068   6.753
 9482POPC   C3B57273   2.615  25.099   7.053
 9482POPC   C4B57274   2.640  25.037   7.353
 9483POPC   NC357275   8.948  14.375   5.553
 9483POPC   PO457276   9.015  14.357   5.853
 9483POPC   GL157277   8.987  14.395   6.153
 9483POPC   GL257278   9.053  14.433   6.153
 9483POPC   C1A57279   8.946  14.406   6.453
 9483POPC   D2A57280   8.956  14.411   6.753
 9483POPC   C3A57281   8.964  14.428   7.053
 9483POPC   C4A57282   9.006  14.429   7.353
 9483POPC   C1B57283   9.151  14.527   6.453
 9483POPC   C2B57284   9.227  14.543   6.753
 9483POPC   C3B57285   9.215  14.504   7.053
 9483POPC   C4B57286   9.207  14.506   7.353
 9484POPC   NC357287   0.407  38.442   5.553
 9484POPC   PO457288   0.480  38.407   5.853
 9484POPC   GL157289   0.443  38.469   6.153
 9484POPC   GL257290   0.420  38.566   6.153
 9484POPC   C1A57291   0.441  38.435   6.453
 9484POPC   D2A57292   0.451  38.488   6.753
 9484POPC   C3A57293   0.389  38.478   7.053
 9484POPC   C4A57294   0.430  38.495   7.353
 9484POPC   C1B57295   0.419  38.696   6.453
 9484POPC   C2B57296   0.333  38.697   6.753
 9484POPC   C3B57297   0.377  38.728   7.053
 9484POPC   C4B57298   0.331  38.702   7.353
 9485POPC   NC357299   5.859  40.808   5.553
 9485POPC   PO457300   5.863  40.745   5.853
 9485POPC   GL157301   5.910  40.765   6.153
 9485POPC   GL257302   5.886  40.897   6.153
 9485POPC   C1A57303   5.842  40.745   6.453
 9485POPC   D2A57304   5.876  40.733   6.753
 9485POPC   C3A57305   5.919  40.800   7.053
 9485POPC   C4A57306   5.892  40.769   7.353
 9485POPC   C1B57307   5.956  41.045   6.453
 9485POPC   C2B57308   5.886  41.008   6.753
 9485POPC   C3B57309   5.911  40.992   7.053
 9485POPC   C4B57310   5.951  41.026   7.353
 9486POPC   NC357311  36.953  24.466   5.553
 9486POPC   PO457312  36.912  24.491   5.853
 9486POPC   GL157313  36.877  24.467   6.153
 9486POPC   GL257314  36.903  24.584   6.153
 9486POPC   C1A57315  36.945  24.498   6.453
 9486POPC   D2A57316  36.930  24.500   6.753
 9486POPC   C3A57317  36.892  24.455   7.053
 9486POPC   C4A57318  36.916  24.508   7.353
 9486POPC   C1B57319  36.937  24.760   6.453
 9486POPC   C2B57320  37.001  24.714   6.753
 9486POPC   C3B57321  36.970  24.696   7.053
 9486POPC   C4B57322  36.946  24.752   7.353
 9487POPC   NC357323  20.644   9.775   5.553
 9487POPC   PO457324  20.588   9.737   5.853
 9487POPC   GL157325  20.640   9.707   6.153
 9487POPC   GL257326  20.734   9.766   6.153
 9487POPC   C1A57327  20.593   9.793   6.453
 9487POPC   D2A57328  20.642   9.756   6.753
 9487POPC   C3A57329  20.598   9.701   7.053
 9487POPC   C4A57330  20.660   9.730   7.353
 9487POPC   C1B57331  20.867   9.795   6.453
 9487POPC   C2B57332  20.882   9.777   6.753
 9487POPC   C3B57333  20.828   9.751   7.053
 9487POPC   C4B57334  20.879   9.795   7.353
 9488POPC   NC357335  35.385  31.459   5.553
 9488POPC   PO457336  35.358  31.467   5.853
 9488POPC   GL157337  35.393  31.495   6.153
 9488POPC   GL257338  35.238  31.483   6.153
 9488POPC   C1A57339  35.400  31.423   6.453
 9488POPC   D2A57340  35.343  31.517   6.753
 9488POPC   C3A57341  35.370  31.455   7.053
 9488POPC   C4A57342  35.321  31.467   7.353
 9488POPC   C1B57343  35.061  31.400   6.453
 9488POPC   C2B57344  35.122  31.378   6.753
 9488POPC   C3B57345  35.061  31.414   7.053
 9488POPC   C4B57346  35.088  31.372   7.353
 9489POPC   NC357347   2.751  27.584   5.553
 9489POPC   PO457348   2.755  27.588   5.853
 9489POPC   GL157349   2.790  27.561   6.153
 9489POPC   GL257350   2.893  27.619   6.153
 9489POPC   C1A57351   2.802  27.594   6.453
 9489POPC   D2A57352   2.757  27.635   6.753
 9489POPC   C3A57353   2.796  27.547   7.053
 9489POPC   C4A57354   2.802  27.605   7.353
 9489POPC   C1B57355   2.992  27.754   6.453
 9489POPC   C2B57356   3.019  27.695   6.753
 9489POPC   C3B57357   3.010  27.738   7.053
 9489POPC   C4B57358   3.023  27.700   7.353
 9490POPC   NC357359   5.096  21.373   5.553
 9490POPC   PO457360   5.088  21.389   5.853
 9490POPC   GL157361   5.067  21.431   6.153
 9490POPC   GL257362   5.016  21.327   6.153
 9490POPC   C1A57363   5.101  21.397   6.453
 9490POPC   D2A57364   5.081  21.381   6.753
 9490POPC   C3A57365   5.095  21.418   7.053
 9490POPC   C4A57366   5.121  21.341   7.353
 9490POPC   C1B57367   4.821  21.272   6.453
 9490POPC   C2B57368   4.893  21.313   6.753
 9490POPC   C3B57369   4.870  21.307   7.053
 9490POPC   C4B57370   4.901  21.310   7.353
 9491POPC   NC357371  33.058  42.329   5.553
 9491POPC   PO457372  33.036  42.342   5.853
 9491POPC   GL157373  33.064  42.363   6.153
 9491POPC   GL257374  33.005  42.188   6.153
 9491POPC   C1A57375  32.985  42.384   6.453
 9491POPC   D2A57376  33.048  42.352   6.753
 9491POPC   C3A57377  32.992  42.363   7.053
 9491POPC   C4A57378  33.065  42.292   7.353
 9491POPC   C1B57379  32.887  42.094   6.453
 9491POPC   C2B57380  32.956  42.094   6.753
 9491POPC   C3B57381  32.912  42.083   7.053
 9491POPC   C4B57382  32.921  42.122   7.353
 9492POPC   NC357383  34.567  37.634   5.553
 9492POPC   PO457384  34.560  37.708   5.853
 9492POPC   GL157385  34.585  37.649   6.153
 9492POPC   GL257386  34.665  37.696   6.153
 9492POPC   C1A57387  34.552  37.679   6.453
 9492POPC   D2A57388  34.546  37.718   6.753
 9492POPC   C3A57389  34.568  37.676   7.053
 9492POPC   C4A57390  34.560  37.716   7.353
 9492POPC   C1B57391  34.774  37.709   6.453
 9492POPC   C2B57392  34.845  37.702   6.753
 9492POPC   C3B57393  34.792  37.747   7.053
 9492POPC   C4B57394  34.858  37.730   7.353
 9493POPC   NC357395  34.605  38.434   5.553
 9493POPC   PO457396  34.586  38.504   5.853
 9493POPC   GL157397  34.527  38.460   6.153
 9493POPC   GL257398  34.620  38.365   6.153
 9493POPC   C1A57399  34.546  38.484   6.453
 9493POPC   D2A57400  34.545  38.434   6.753
 9493POPC   C3A57401  34.554  38.504   7.053
 9493POPC   C4A57402  34.618  38.460   7.353
 9493POPC   C1B57403  34.641  38.193   6.453
 9493POPC   C2B57404  34.671  38.242   6.753
 9493POPC   C3B57405  34.660  38.230   7.053
 9493POPC   C4B57406  34.662  38.246   7.353
 9494POPC   NC357407  19.855   6.677   5.553
 9494POPC   PO457408  19.831   6.624   5.853
 9494POPC   GL157409  19.808   6.624   6.153
 9494POPC   GL257410  19.911   6.806   6.153
 9494POPC   C1A57411  19.829   6.673   6.453
 9494POPC   D2A57412  19.813   6.684   6.753
 9494POPC   C3A57413  19.787   6.664   7.053
 9494POPC   C4A57414  19.858   6.656   7.353
 9494POPC   C1B57415  19.899   6.863   6.453
 9494POPC   C2B57416  19.887   6.877   6.753
 9494POPC   C3B57417  19.891   6.929   7.053
 9494POPC   C4B57418  19.860   6.932   7.353
 9495POPC   NC357419  10.531  15.189   5.553
 9495POPC   PO457420  10.520  15.136   5.853
 9495POPC   GL157421  10.519  15.142   6.153
 9495POPC   GL257422  10.408  15.073   6.153
 9495POPC   C1A57423  10.570  15.223   6.453
 9495POPC   D2A57424  10.540  15.151   6.753
 9495POPC   C3A57425  10.491  15.227   7.053
 9495POPC   C4A57426  10.519  15.204   7.353
 9495POPC   C1B57427  10.326  14.988   6.453
 9495POPC   C2B57428  10.348  15.047   6.753
 9495POPC   C3B57429  10.302  15.052   7.053
 9495POPC   C4B57430  10.293  15.078   7.353
 9496POPC   NC357431  12.085  14.379   5.553
 9496POPC   PO457432  12.095  14.396   5.853
 9496POPC   GL157433  12.058  14.442   6.153
 9496POPC   GL257434  12.179  14.453   6.153
 9496POPC   C1A57435  12.034  14.371   6.453
 9496POPC   D2A57436  12.116  14.424   6.753
 9496POPC   C3A57437  12.111  14.447   7.053
 9496POPC   C4A57438  12.095  14.373   7.353
 9496POPC   C1B57439  12.225  14.585   6.453
 9496POPC   C2B57440  12.238  14.605   6.753
 9496POPC   C3B57441  12.240  14.563   7.053
 9496POPC   C4B57442  12.254  14.618   7.353
 9497POPC   NC357443   0.464  24.522   5.553
 9497POPC   PO457444   0.445  24.457   5.853
 9497POPC   GL157445   0.464  24.448   6.153
 9497POPC   GL257446   0.408  24.610   6.153
 9497POPC   C1A57447   0.483  24.441   6.453
 9497POPC   D2A57448   0.457  24.499   6.753
 9497POPC   C3A57449   0.440  24.506   7.053
 9497POPC   C4A57450   0.395  24.441   7.353
 9497POPC   C1B57451   0.459  24.722   6.453
 9497POPC   C2B57452   0.396  24.749   6.753
 9497POPC   C3B57453   0.451  24.701   7.053
 9497POPC   C4B57454   0.440  24.698   7.353
 9498POPC   NC357455  16.760   5.108   5.553
 9498POPC   PO457456  16.755   5.135   5.853
 9498POPC   GL157457  16.772   5.073   6.153
 9498POPC   GL257458  16.730   5.226   6.153
 9498POPC   C1A57459  16.700   5.073   6.453
 9498POPC   D2A57460  16.761   5.067   6.753
 9498POPC   C3A57461  16.762   5.083   7.053
 9498POPC   C4A57462  16.733   5.071   7.353
 9498POPC   C1B57463  16.733   5.373   6.453
 9498POPC   C2B57464  16.750   5.304   6.753
 9498POPC   C3B57465  16.696   5.327   7.053
 9498POPC   C4B57466  16.669   5.375   7.353
 9499POPC   NC357467  26.074  22.136   5.553
 9499POPC   PO457468  26.066  22.184   5.853
 9499POPC   GL157469  26.087  22.198   6.153
 9499POPC   GL257470  26.125  22.248   6.153
 9499POPC   C1A57471  26.072  22.181   6.453
 9499POPC   D2A57472  26.007  22.206   6.753
 9499POPC   C3A57473  26.056  22.204   7.053
 9499POPC   C4A57474  26.027  22.171   7.353
 9499POPC   C1B57475  26.176  22.378   6.453
 9499POPC   C2B57476  26.192  22.429   6.753
 9499POPC   C3B57477  26.202  22.346   7.053
 9499POPC   C4B57478  26.147  22.430   7.353
 9500POPC   NC357479  40.749   1.958   5.553
 9500POPC   PO457480  40.768   2.030   5.853
 9500POPC   GL157481  40.808   2.019   6.153
 9500POPC   GL257482  40.736   1.864   6.153
 9500POPC   C1A57483  40.784   2.035   6.453
 9500POPC   D2A57484  40.817   1.950   6.753
 9500POPC   C3A57485  40.757   1.983   7.053
 9500POPC   C4A57486  40.805   1.965   7.353
 9500POPC   C1B57487  40.707   1.774   6.453
 9500POPC   C2B57488  40.670   1.736   6.753
 9500POPC   C3B57489  40.683   1.756   7.053
 9500POPC   C4B57490  40.668   1.712   7.353
 9501POPC   NC357491  33.812  32.264   5.553
 9501POPC   PO457492  33.845  32.208   5.853
 9501POPC   GL157493  33.835  32.265   6.153
 9501POPC   GL257494  33.824  32.095   6.153
 9501POPC   C1A57495  33.825  32.225   6.453
 9501POPC   D2A57496  33.814  32.210   6.753
 9501POPC   C3A57497  33.767  32.297   7.053
 9501POPC   C4A57498  33.830  32.251   7.353
 9501POPC   C1B57499  33.883  32.002   6.453
 9501POPC   C2B57500  33.956  32.066   6.753
 9501POPC   C3B57501  33.963  32.049   7.053
 9501POPC   C4B57502  33.959  32.038   7.353
 9502POPC   NC357503  23.676  43.131   5.553
 9502POPC   PO457504  23.695  43.069   5.853
 9502POPC   GL157505  23.743  43.063   6.153
 9502POPC   GL257506  23.873  43.126   6.153
 9502POPC   C1A57507  23.666  43.063   6.453
 9502POPC   D2A57508  23.673  43.075   6.753
 9502POPC   C3A57509  23.734  43.158   7.053
 9502POPC   C4A57510  23.753  43.061   7.353
 9502POPC   C1B57511  23.953  43.134   6.453
 9502POPC   C2B57512  23.989  43.127   6.753
 9502POPC   C3B57513  23.950  43.103   7.053
 9502POPC   C4B57514  23.964  43.056   7.353
 9503POPC   NC357515  39.227   4.366   5.553
 9503POPC   PO457516  39.259   4.339   5.853
 9503POPC   GL157517  39.262   4.362   6.153
 9503POPC   GL257518  39.210   4.485   6.153
 9503POPC   C1A57519  39.209   4.287   6.453
 9503POPC   D2A57520  39.273   4.315   6.753
 9503POPC   C3A57521  39.205   4.286   7.053
 9503POPC   C4A57522  39.240   4.318   7.353
 9503POPC   C1B57523  39.233   4.572   6.453
 9503POPC   C2B57524  39.204   4.594   6.753
 9503POPC   C3B57525  39.178   4.601   7.053
 9503POPC   C4B57526  39.177   4.548   7.353
 9504POPC   NC357527  37.709  24.500   5.553
 9504POPC   PO457528  37.698  24.491   5.853
 9504POPC   GL157529  37.693  24.518   6.153
 9504POPC   GL257530  37.824  24.535   6.153
 9504POPC   C1A57531  37.726  24.520   6.453
 9504POPC   D2A57532  37.726  24.481   6.753
 9504POPC   C3A57533  37.687  24.488   7.053
 9504POPC   C4A57534  37.710  24.455   7.353
 9504POPC   C1B57535  37.871  24.583   6.453
 9504POPC   C2B57536  37.935  24.534   6.753
 9504POPC   C3B57537  37.899  24.605   7.053
 9504POPC   C4B57538  37.905  24.563   7.353
 9505POPC   NC357539  18.313  36.118   5.553
 9505POPC   PO457540  18.258  36.107   5.853
 9505POPC   GL157541  18.254  36.093   6.153
 9505POPC   GL257542  18.420  36.156   6.153
 9505POPC   C1A57543  18.280  36.126   6.453
 9505POPC   D2A57544  18.319  36.140   6.753
 9505POPC   C3A57545  18.272  36.137   7.053
 9505POPC   C4A57546  18.235  36.091   7.353
 9505POPC   C1B57547  18.497  36.298   6.453
 9505POPC   C2B57548  18.463  36.243   6.753
 9505POPC   C3B57549  18.526  36.297   7.053
 9505POPC   C4B57550  18.524  36.252   7.353
 9506POPC   NC357551  28.325  28.357   5.553
 9506POPC   PO457552  28.378  28.384   5.853
 9506POPC   GL157553  28.350  28.407   6.153
 9506POPC   GL257554  28.274  28.419   6.153
 9506POPC   C1A57555  28.389  28.396   6.453
 9506POPC   D2A57556  28.351  28.394   6.753
 9506POPC   C3A57557  28.411  28.390   7.053
 9506POPC   C4A57558  28.335  28.373   7.353
 9506POPC   C1B57559  28.157  28.410   6.453
 9506POPC   C2B57560  28.082  28.395   6.753
 9506POPC   C3B57561  28.096  28.464   7.053
 9506POPC   C4B57562  28.085  28.379   7.353
 9507POPC   NC357563   6.692  12.823   5.553
 9507POPC   PO457564   6.605  12.810   5.853
 9507POPC   GL157565   6.688  12.829   6.153
 9507POPC   GL257566   6.562  12.738   6.153
 9507POPC   C1A57567   6.670  12.848   6.453
 9507POPC   D2A57568   6.687  12.867   6.753
 9507POPC   C3A57569   6.650  12.846   7.053
 9507POPC   C4A57570   6.621  12.891   7.353
 9507POPC   C1B57571   6.533  12.630   6.453
 9507POPC   C2B57572   6.571  12.623   6.753
 9507POPC   C3B57573   6.543  12.620   7.053
 9507POPC   C4B57574   6.584  12.594   7.353
 9508POPC   NC357575   8.188   3.547   5.553
 9508POPC   PO457576   8.155   3.591   5.853
 9508POPC   GL157577   8.183   3.536   6.153
 9508POPC   GL257578   8.299   3.578   6.153
 9508POPC   C1A57579   8.162   3.544   6.453
 9508POPC   D2A57580   8.220   3.522   6.753
 9508POPC   C3A57581   8.214   3.505   7.053
 9508POPC   C4A57582   8.181   3.584   7.353
 9508POPC   C1B57583   8.443   3.519   6.453
 9508POPC   C2B57584   8.455   3.510   6.753
 9508POPC   C3B57585   8.488   3.485   7.053
 9508POPC   C4B57586   8.413   3.557   7.353
 9509POPC   NC357587  26.860  19.064   5.553
 9509POPC   PO457588  26.852  19.011   5.853
 9509POPC   GL157589  26.829  19.049   6.153
 9509POPC   GL257590  26.763  19.185   6.153
 9509POPC   C1A57591  26.815  19.091   6.453
 9509POPC   D2A57592  26.771  19.097   6.753
 9509POPC   C3A57593  26.828  19.045   7.053
 9509POPC   C4A57594  26.841  19.042   7.353
 9509POPC   C1B57595  26.572  19.216   6.453
 9509POPC   C2B57596  26.610  19.165   6.753
 9509POPC   C3B57597  26.618  19.204   7.053
 9509POPC   C4B57598  26.596  19.210   7.353
 9510POPC   NC357599  35.346  26.035   5.553
 9510POPC   PO457600  35.308  26.028   5.853
 9510POPC   GL157601  35.327  25.996   6.153
 9510POPC   GL257602  35.420  26.150   6.153
 9510POPC   C1A57603  35.344  26.059   6.453
 9510POPC   D2A57604  35.388  26.034   6.753
 9510POPC   C3A57605  35.361  26.008   7.053
 9510POPC   C4A57606  35.367  26.017   7.353
 9510POPC   C1B57607  35.510  26.246   6.453
 9510POPC   C2B57608  35.447  26.300   6.753
 9510POPC   C3B57609  35.427  26.292   7.053
 9510POPC   C4B57610  35.506  26.246   7.353
 9511POPC   NC357611  43.124  34.597   5.553
 9511POPC   PO457612  43.121  34.604   5.853
 9511POPC   GL157613  43.143  34.564   6.153
 9511POPC   GL257614  43.110  34.468   6.153
 9511POPC   C1A57615  43.075  34.552   6.453
 9511POPC   D2A57616  43.136  34.547   6.753
 9511POPC   C3A57617  43.135  34.533   7.053
 9511POPC   C4A57618  43.102  34.528   7.353
 9511POPC   C1B57619  43.156  34.306   6.453
 9511POPC   C2B57620  43.140  34.344   6.753
 9511POPC   C3B57621  43.140  34.295   7.053
 9511POPC   C4B57622  43.155  34.308   7.353
 9512POPC   NC357623   9.718  14.451   5.553
 9512POPC   PO457624   9.741  14.417   5.853
 9512POPC   GL157625   9.744  14.403   6.153
 9512POPC   GL257626   9.698  14.281   6.153
 9512POPC   C1A57627   9.758  14.405   6.453
 9512POPC   D2A57628   9.748  14.384   6.753
 9512POPC   C3A57629   9.744  14.453   7.053
 9512POPC   C4A57630   9.759  14.394   7.353
 9512POPC   C1B57631   9.613  14.230   6.453
 9512POPC   C2B57632   9.576  14.187   6.753
 9512POPC   C3B57633   9.603  14.240   7.053
 9512POPC   C4B57634   9.549  14.182   7.353
 9513POPC   NC357635  21.412  41.589   5.553
 9513POPC   PO457636  21.416  41.517   5.853
 9513POPC   GL157637  21.433  41.605   6.153
 9513POPC   GL257638  21.294  41.440   6.153
 9513POPC   C1A57639  21.428  41.533   6.453
 9513POPC   D2A57640  21.428  41.573   6.753
 9513POPC   C3A57641  21.424  41.518   7.053
 9513POPC   C4A57642  21.431  41.562   7.353
 9513POPC   C1B57643  21.325  41.314   6.453
 9513POPC   C2B57644  21.249  41.325   6.753
 9513POPC   C3B57645  21.288  41.369   7.053
 9513POPC   C4B57646  21.252  41.344   7.353
 9514POPC   NC357647  24.493  31.520   5.553
 9514POPC   PO457648  24.468  31.510   5.853
 9514POPC   GL157649  24.499  31.463   6.153
 9514POPC   GL257650  24.505  31.402   6.153
 9514POPC   C1A57651  24.487  31.509   6.453
 9514POPC   D2A57652  24.516  31.481   6.753
 9514POPC   C3A57653  24.440  31.438   7.053
 9514POPC   C4A57654  24.516  31.510   7.353
 9514POPC   C1B57655  24.556  31.225   6.453
 9514POPC   C2B57656  24.575  31.279   6.753
 9514POPC   C3B57657  24.610  31.264   7.053
 9514POPC   C4B57658  24.607  31.234   7.353
 9515POPC   NC357659  32.975   4.279   5.553
 9515POPC   PO457660  33.051   4.276   5.853
 9515POPC   GL157661  33.022   4.306   6.153
 9515POPC   GL257662  32.962   4.259   6.153
 9515POPC   C1A57663  33.057   4.300   6.453
 9515POPC   D2A57664  33.071   4.329   6.753
 9515POPC   C3A57665  33.041   4.328   7.053
 9515POPC   C4A57666  32.990   4.315   7.353
 9515POPC   C1B57667  32.824   4.138   6.453
 9515POPC   C2B57668  32.812   4.144   6.753
 9515POPC   C3B57669  32.881   4.168   7.053
 9515POPC   C4B57670  32.823   4.083   7.353
 9516POPC   NC357671  37.673  31.515   5.553
 9516POPC   PO457672  37.705  31.467   5.853
 9516POPC   GL157673  37.634  31.461   6.153
 9516POPC   GL257674  37.604  31.550   6.153
 9516POPC   C1A57675  37.698  31.485   6.453
 9516POPC   D2A57676  37.635  31.494   6.753
 9516POPC   C3A57677  37.648  31.479   7.053
 9516POPC   C4A57678  37.631  31.477   7.353
 9516POPC   C1B57679  37.545  31.687   6.453
 9516POPC   C2B57680  37.609  31.720   6.753
 9516POPC   C3B57681  37.590  31.731   7.053
 9516POPC   C4B57682  37.598  31.730   7.353
 9517POPC   NC357683  22.930  32.287   5.553
 9517POPC   PO457684  22.924  32.259   5.853
 9517POPC   GL157685  22.895  32.222   6.153
 9517POPC   GL257686  23.038  32.163   6.153
 9517POPC   C1A57687  22.919  32.282   6.453
 9517POPC   D2A57688  22.946  32.292   6.753
 9517POPC   C3A57689  22.929  32.216   7.053
 9517POPC   C4A57690  22.939  32.281   7.353
 9517POPC   C1B57691  23.127  32.088   6.453
 9517POPC   C2B57692  23.071  32.064   6.753
 9517POPC   C3B57693  23.138  32.032   7.053
 9517POPC   C4B57694  23.135  32.099   7.353
 9518POPC   NC357695  34.528  41.549   5.553
 9518POPC   PO457696  34.529  41.524   5.853
 9518POPC   GL157697  34.584  41.605   6.153
 9518POPC   GL257698  34.511  41.707   6.153
 9518POPC   C1A57699  34.541  41.533   6.453
 9518POPC   D2A57700  34.589  41.583   6.753
 9518POPC   C3A57701  34.623  41.515   7.053
 9518POPC   C4A57702  34.613  41.576   7.353
 9518POPC   C1B57703  34.508  41.816   6.453
 9518POPC   C2B57704  34.551  41.828   6.753
 9518POPC   C3B57705  34.487  41.813   7.053
 9518POPC   C4B57706  34.504  41.798   7.353
 9519POPC   NC357707  12.809  22.923   5.553
 9519POPC   PO457708  12.818  22.960   5.853
 9519POPC   GL157709  12.827  22.949   6.153
 9519POPC   GL257710  12.973  22.933   6.153
 9519POPC   C1A57711  12.854  22.950   6.453
 9519POPC   D2A57712  12.807  22.964   6.753
 9519POPC   C3A57713  12.869  22.954   7.053
 9519POPC   C4A57714  12.825  22.911   7.353
 9519POPC   C1B57715  13.126  22.977   6.453
 9519POPC   C2B57716  13.096  22.943   6.753
 9519POPC   C3B57717  13.063  22.940   7.053
 9519POPC   C4B57718  13.098  22.988   7.353
 9520POPC   NC357719  20.638  37.728   5.553
 9520POPC   PO457720  20.607  37.702   5.853
 9520POPC   GL157721  20.593  37.686   6.153
 9520POPC   GL257722  20.465  37.583   6.153
 9520POPC   C1A57723  20.576  37.641   6.453
 9520POPC   D2A57724  20.610  37.662   6.753
 9520POPC   C3A57725  20.607  37.695   7.053
 9520POPC   C4A57726  20.628  37.680   7.353
 9520POPC   C1B57727  20.410  37.536   6.453
 9520POPC   C2B57728  20.383  37.525   6.753
 9520POPC   C3B57729  20.364  37.540   7.053
 9520POPC   C4B57730  20.347  37.507   7.353
 9521POPC   NC357731  39.961  18.302   5.553
 9521POPC   PO457732  39.958  18.316   5.853
 9521POPC   GL157733  39.961  18.254   6.153
 9521POPC   GL257734  40.060  18.205   6.153
 9521POPC   C1A57735  40.021  18.293   6.453
 9521POPC   D2A57736  39.982  18.237   6.753
 9521POPC   C3A57737  40.051  18.319   7.053
 9521POPC   C4A57738  40.021  18.276   7.353
 9521POPC   C1B57739  40.163  18.080   6.453
 9521POPC   C2B57740  40.149  18.077   6.753
 9521POPC   C3B57741  40.130  18.036   7.053
 9521POPC   C4B57742  40.188  18.041   7.353
 9522POPC   NC357743  44.646  30.651   5.553
 9522POPC   PO457744  44.655  30.684   5.853
 9522POPC   GL157745  44.710  30.690   6.153
 9522POPC   GL257746  44.590  30.783   6.153
 9522POPC   C1A57747  44.662  30.702   6.453
 9522POPC   D2A57748  44.652  30.736   6.753
 9522POPC   C3A57749  44.665  30.655   7.053
 9522POPC   C4A57750  44.696  30.734   7.353
 9522POPC   C1B57751  44.541  30.903   6.453
 9522POPC   C2B57752  44.535  30.839   6.753
 9522POPC   C3B57753  44.456  30.913   7.053
 9522POPC   C4B57754  44.482  30.855   7.353
 9523POPC   NC357755   2.760  29.183   5.553
 9523POPC   PO457756   2.777  29.151   5.853
 9523POPC   GL157757   2.783  29.146   6.153
 9523POPC   GL257758   2.917  29.175   6.153
 9523POPC   C1A57759   2.734  29.150   6.453
 9523POPC   D2A57760   2.717  29.118   6.753
 9523POPC   C3A57761   2.805  29.151   7.053
 9523POPC   C4A57762   2.803  29.140   7.353
 9523POPC   C1B57763   3.057  29.161   6.453
 9523POPC   C2B57764   2.969  29.158   6.753
 9523POPC   C3B57765   3.046  29.214   7.053
 9523POPC   C4B57766   2.978  29.136   7.353
 9524POPC   NC357767   8.961  32.286   5.553
 9524POPC   PO457768   9.007  32.201   5.853
 9524POPC   GL157769   8.939  32.246   6.153
 9524POPC   GL257770   9.112  32.157   6.153
 9524POPC   C1A57771   9.001  32.289   6.453
 9524POPC   D2A57772   8.995  32.255   6.753
 9524POPC   C3A57773   8.939  32.241   7.053
 9524POPC   C4A57774   8.982  32.284   7.353
 9524POPC   C1B57775   9.198  32.167   6.453
 9524POPC   C2B57776   9.198  32.109   6.753
 9524POPC   C3B57777   9.151  32.154   7.053
 9524POPC   C4B57778   9.207  32.141   7.353
 9525POPC   NC357779  17.528  43.919   5.553
 9525POPC   PO457780  17.527  43.871   5.853
 9525POPC   GL157781  17.521  43.838   6.153
 9525POPC   GL257782  17.619  43.775   6.153
 9525POPC   C1A57783  17.532  43.852   6.453
 9525POPC   D2A57784  17.505  43.867   6.753
 9525POPC   C3A57785  17.548  43.838   7.053
 9525POPC   C4A57786  17.513  43.902   7.353
 9525POPC   C1B57787  17.612  43.709   6.453
 9525POPC   C2B57788  17.635  43.660   6.753
 9525POPC   C3B57789  17.635  43.670   7.053
 9525POPC   C4B57790  17.677  43.689   7.353
 9526POPC   NC357791   6.670  43.871   5.553
 9526POPC   PO457792   6.624  43.845   5.853
 9526POPC   GL157793   6.691  43.905   6.153
 9526POPC   GL257794   6.579  43.807   6.153
 9526POPC   C1A57795   6.673  43.889   6.453
 9526POPC   D2A57796   6.647  43.936   6.753
 9526POPC   C3A57797   6.597  43.849   7.053
 9526POPC   C4A57798   6.643  43.843   7.353
 9526POPC   C1B57799   6.437  43.748   6.453
 9526POPC   C2B57800   6.472  43.807   6.753
 9526POPC   C3B57801   6.382  43.808   7.053
 9526POPC   C4B57802   6.407  43.800   7.353
 9527POPC   NC357803  33.777  27.577   5.553
 9527POPC   PO457804  33.797  27.619   5.853
 9527POPC   GL157805  33.837  27.612   6.153
 9527POPC   GL257806  33.812  27.753   6.153
 9527POPC   C1A57807  33.816  27.554   6.453
 9527POPC   D2A57808  33.764  27.611   6.753
 9527POPC   C3A57809  33.785  27.609   7.053
 9527POPC   C4A57810  33.836  27.562   7.353
 9527POPC   C1B57811  33.811  27.874   6.453
 9527POPC   C2B57812  33.848  27.883   6.753
 9527POPC   C3B57813  33.851  27.809   7.053
 9527POPC   C4B57814  33.884  27.850   7.353
 9528POPC   NC357815  14.429   4.288   5.553
 9528POPC   PO457816  14.421   4.364   5.853
 9528POPC   GL157817  14.427   4.329   6.153
 9528POPC   GL257818  14.547   4.367   6.153
 9528POPC   C1A57819  14.415   4.293   6.453
 9528POPC   D2A57820  14.392   4.272   6.753
 9528POPC   C3A57821  14.380   4.315   7.053
 9528POPC   C4A57822  14.449   4.327   7.353
 9528POPC   C1B57823  14.628   4.462   6.453
 9528POPC   C2B57824  14.591   4.498   6.753
 9528POPC   C3B57825  14.617   4.518   7.053
 9528POPC   C4B57826  14.560   4.436   7.353
 9529POPC   NC357827   6.692  35.401   5.553
 9529POPC   PO457828   6.661  35.389   5.853
 9529POPC   GL157829   6.599  35.380   6.153
 9529POPC   GL257830   6.749  35.317   6.153
 9529POPC   C1A57831   6.644  35.353   6.453
 9529POPC   D2A57832   6.692  35.332   6.753
 9529POPC   C3A57833   6.627  35.385   7.053
 9529POPC   C4A57834   6.640  35.338   7.353
 9529POPC   C1B57835   6.895  35.247   6.453
 9529POPC   C2B57836   6.872  35.275   6.753
 9529POPC   C3B57837   6.861  35.215   7.053
 9529POPC   C4B57838   6.916  35.200   7.353
 9530POPC   NC357839  27.592  27.588   5.553
 9530POPC   PO457840  27.558  27.604   5.853
 9530POPC   GL157841  27.600  27.630   6.153
 9530POPC   GL257842  27.485  27.476   6.153
 9530POPC   C1A57843  27.637  27.554   6.453
 9530POPC   D2A57844  27.613  27.588   6.753
 9530POPC   C3A57845  27.560  27.602   7.053
 9530POPC   C4A57846  27.555  27.600   7.353
 9530POPC   C1B57847  27.380  27.435   6.453
 9530POPC   C2B57848  27.416  27.481   6.753
 9530POPC   C3B57849  27.443  27.447   7.053
 9530POPC   C4B57850  27.395  27.461   7.353
 9531POPC   NC357851   4.312   6.596   5.553
 9531POPC   PO457852   4.290   6.633   5.853
 9531POPC   GL157853   4.365   6.683   6.153
 9531POPC   GL257854   4.312   6.532   6.153
 9531POPC   C1A57855   4.279   6.652   6.453
 9531POPC   D2A57856   4.300   6.603   6.753
 9531POPC   C3A57857   4.281   6.660   7.053
 9531POPC   C4A57858   4.280   6.674   7.353
 9531POPC   C1B57859   4.300   6.398   6.453
 9531POPC   C2B57860   4.263   6.353   6.753
 9531POPC   C3B57861   4.319   6.362   7.053
 9531POPC   C4B57862   4.225   6.442   7.353
 9532POPC   NC357863   3.553  38.449   5.553
 9532POPC   PO457864   3.550  38.471   5.853
 9532POPC   GL157865   3.555  38.476   6.153
 9532POPC   GL257866   3.650  38.519   6.153
 9532POPC   C1A57867   3.550  38.440   6.453
 9532POPC   D2A57868   3.528  38.487   6.753
 9532POPC   C3A57869   3.571  38.457   7.053
 9532POPC   C4A57870   3.552  38.445   7.353
 9532POPC   C1B57871   3.773  38.545   6.453
 9532POPC   C2B57872   3.787  38.566   6.753
 9532POPC   C3B57873   3.768  38.581   7.053
 9532POPC   C4B57874   3.816  38.567   7.353
 9533POPC   NC357875  12.878  29.148   5.553
 9533POPC   PO457876  12.878  29.141   5.853
 9533POPC   GL157877  12.866  29.108   6.153
 9533POPC   GL257878  12.872  29.055   6.153
 9533POPC   C1A57879  12.872  29.107   6.453
 9533POPC   D2A57880  12.807  29.156   6.753
 9533POPC   C3A57881  12.856  29.152   7.053
 9533POPC   C4A57882  12.888  29.161   7.353
 9533POPC   C1B57883  13.026  28.928   6.453
 9533POPC   C2B57884  12.934  28.931   6.753
 9533POPC   C3B57885  12.944  28.943   7.053
 9533POPC   C4B57886  12.988  28.929   7.353
 9534POPC   NC357887   8.986  17.511   5.553
 9534POPC   PO457888   8.976  17.538   5.853
 9534POPC   GL157889   9.022  17.468   6.153
 9534POPC   GL257890   9.036  17.473   6.153
 9534POPC   C1A57891   9.002  17.485   6.453
 9534POPC   D2A57892   8.932  17.461   6.753
 9534POPC   C3A57893   9.020  17.501   7.053
 9534POPC   C4A57894   9.013  17.554   7.353
 9534POPC   C1B57895   9.164  17.364   6.453
 9534POPC   C2B57896   9.183  17.344   6.753
 9534POPC   C3B57897   9.119  17.315   7.053
 9534POPC   C4B57898   9.165  17.391   7.353
 9535POPC   NC357899  41.511  42.303   5.553
 9535POPC   PO457900  41.513  42.321   5.853
 9535POPC   GL157901  41.534  42.363   6.153
 9535POPC   GL257902  41.525  42.258   6.153
 9535POPC   C1A57903  41.557  42.335   6.453
 9535POPC   D2A57904  41.511  42.347   6.753
 9535POPC   C3A57905  41.569  42.304   7.053
 9535POPC   C4A57906  41.562  42.353   7.353
 9535POPC   C1B57907  41.484  42.101   6.453
 9535POPC   C2B57908  41.545  42.075   6.753
 9535POPC   C3B57909  41.489  42.129   7.053
 9535POPC   C4B57910  41.496  42.129   7.353
 9536POPC   NC357911   8.984  39.263   5.553
 9536POPC   PO457912   8.958  39.256   5.853
 9536POPC   GL157913   9.018  39.184   6.153
 9536POPC   GL257914   8.866  39.161   6.153
 9536POPC   C1A57915   8.975  39.236   6.453
 9536POPC   D2A57916   9.011  39.241   6.753
 9536POPC   C3A57917   9.005  39.253   7.053
 9536POPC   C4A57918   8.923  39.201   7.353
 9536POPC   C1B57919   8.862  39.082   6.453
 9536POPC   C2B57920   8.863  39.006   6.753
 9536POPC   C3B57921   8.806  39.075   7.053
 9536POPC   C4B57922   8.791  39.060   7.353
 9537POPC   NC357923  15.134  34.577   5.553
 9537POPC   PO457924  15.155  34.617   5.853
 9537POPC   GL157925  15.197  34.617   6.153
 9537POPC   GL257926  15.350  34.549   6.153
 9537POPC   C1A57927  15.192  34.534   6.453
 9537POPC   D2A57928  15.138  34.564   6.753
 9537POPC   C3A57929  15.179  34.534   7.053
 9537POPC   C4A57930  15.200  34.532   7.353
 9537POPC   C1B57931  15.452  34.592   6.453
 9537POPC   C2B57932  15.396  34.656   6.753
 9537POPC   C3B57933  15.393  34.581   7.053
 9537POPC   C4B57934  15.414  34.587   7.353
 9538POPC   NC357935   2.722  12.892   5.553
 9538POPC   PO457936   2.815  12.897   5.853
 9538POPC   GL157937   2.804  12.863   6.153
 9538POPC   GL257938   2.729  12.923   6.153
 9538POPC   C1A57939   2.750  12.889   6.453
 9538POPC   D2A57940   2.808  12.892   6.753
 9538POPC   C3A57941   2.766  12.893   7.053
 9538POPC   C4A57942   2.785  12.806   7.353
 9538POPC   C1B57943   2.643  13.054   6.453
 9538POPC   C2B57944   2.649  13.092   6.753
 9538POPC   C3B57945   2.638  13.073   7.053
 9538POPC   C4B57946   2.645  13.039   7.353
 9539POPC   NC357947   3.553  29.889   5.553
 9539POPC   PO457948   3.537  29.871   5.853
 9539POPC   GL157949   3.526  29.900   6.153
 9539POPC   GL257950   3.400  29.881   6.153
 9539POPC   C1A57951   3.515  29.935   6.453
 9539POPC   D2A57952   3.533  29.917   6.753
 9539POPC   C3A57953   3.496  29.922   7.053
 9539POPC   C4A57954   3.517  29.931   7.353
 9539POPC   C1B57955   3.263  29.844   6.453
 9539POPC   C2B57956   3.291  29.844   6.753
 9539POPC   C3B57957   3.289  29.785   7.053
 9539POPC   C4B57958   3.345  29.800   7.353
 9540POPC   NC357959   7.379  44.659   5.553
 9540POPC   PO457960   7.457  44.617   5.853
 9540POPC   GL157961   7.471  44.702   6.153
 9540POPC   GL257962   7.511  44.582   6.153
 9540POPC   C1A57963   7.446  44.619   6.453
 9540POPC   D2A57964   7.394  44.651   6.753
 9540POPC   C3A57965   7.409  44.677   7.053
 9540POPC   C4A57966   7.377  44.633   7.353
 9540POPC   C1B57967   7.667  44.580   6.453
 9540POPC   C2B57968   7.615  44.539   6.753
 9540POPC   C3B57969   7.631  44.602   7.053
 9540POPC   C4B57970   7.663  44.632   7.353
 9541POPC   NC357971  19.836  31.442   5.553
 9541POPC   PO457972  19.848  31.506   5.853
 9541POPC   GL157973  19.839  31.470   6.153
 9541POPC   GL257974  19.924  31.543   6.153
 9541POPC   C1A57975  19.811  31.500   6.453
 9541POPC   D2A57976  19.824  31.499   6.753
 9541POPC   C3A57977  19.816  31.443   7.053
 9541POPC   C4A57978  19.791  31.446   7.353
 9541POPC   C1B57979  20.034  31.548   6.453
 9541POPC   C2B57980  20.053  31.508   6.753
 9541POPC   C3B57981  20.048  31.515   7.053
 9541POPC   C4B57982  20.087  31.568   7.353
 9542POPC   NC357983   2.807  32.204   5.553
 9542POPC   PO457984   2.799  32.204   5.853
 9542POPC   GL157985   2.776  32.288   6.153
 9542POPC   GL257986   2.845  32.273   6.153
 9542POPC   C1A57987   2.728  32.205   6.453
 9542POPC   D2A57988   2.794  32.276   6.753
 9542POPC   C3A57989   2.765  32.259   7.053
 9542POPC   C4A57990   2.725  32.227   7.353
 9542POPC   C1B57991   2.984  32.208   6.453
 9542POPC   C2B57992   3.011  32.183   6.753
 9542POPC   C3B57993   3.037  32.260   7.053
 9542POPC   C4B57994   3.004  32.204   7.353
 9543POPC   NC357995   7.422  17.542   5.553
 9543POPC   PO457996   7.453  17.476   5.853
 9543POPC   GL157997   7.386  17.475   6.153
 9543POPC   GL257998   7.549  17.625   6.153
 9543POPC   C1A57999   7.383  17.540   6.453
 9543POPC   D2A58000   7.396  17.500   6.753
 9543POPC   C3A58001   7.410  17.529   7.053
 9543POPC   C4A58002   7.431  17.488   7.353
 9543POPC   C1B58003   7.573  17.620   6.453
 9543POPC   C2B58004   7.615  17.619   6.753
 9543POPC   C3B58005   7.638  17.682   7.053
 9543POPC   C4B58006   7.578  17.626   7.353
 9544POPC   NC358007  31.509  42.364   5.553
 9544POPC   PO458008  31.467  42.316   5.853
 9544POPC   GL158009  31.485  42.342   6.153
 9544POPC   GL258010  31.363  42.301   6.153
 9544POPC   C1A58011  31.493  42.366   6.453
 9544POPC   D2A58012  31.448  42.330   6.753
 9544POPC   C3A58013  31.439  42.339   7.053
 9544POPC   C4A58014  31.487  42.326   7.353
 9544POPC   C1B58015  31.242  42.293   6.453
 9544POPC   C2B58016  31.205  42.306   6.753
 9544POPC   C3B58017  31.183  42.292   7.053
 9544POPC   C4B58018  31.190  42.242   7.353
 9545POPC   NC358019  22.116  22.133   5.553
 9545POPC   PO458020  22.123  22.167   5.853
 9545POPC   GL158021  22.171  22.148   6.153
 9545POPC   GL258022  22.140  22.322   6.153
 9545POPC   C1A58023  22.152  22.125   6.453
 9545POPC   D2A58024  22.185  22.113   6.753
 9545POPC   C3A58025  22.154  22.160   7.053
 9545POPC   C4A58026  22.114  22.140   7.353
 9545POPC   C1B58027  22.031  22.403   6.453
 9545POPC   C2B58028  22.029  22.393   6.753
 9545POPC   C3B58029  22.094  22.434   7.053
 9545POPC   C4B58030  22.017  22.413   7.353
 9546POPC   NC358031  15.131  32.211   5.553
 9546POPC   PO458032  15.148  32.233   5.853
 9546POPC   GL158033  15.229  32.238   6.153
 9546POPC   GL258034  15.088  32.171   6.153
 9546POPC   C1A58035  15.206  32.226   6.453
 9546POPC   D2A58036  15.182  32.250   6.753
 9546POPC   C3A58037  15.201  32.270   7.053
 9546POPC   C4A58038  15.177  32.204   7.353
 9546POPC   C1B58039  14.912  32.151   6.453
 9546POPC   C2B58040  14.967  32.147   6.753
 9546POPC   C3B58041  14.951  32.176   7.053
 9546POPC   C4B58042  14.960  32.165   7.353
 9547POPC   NC358043  19.858  23.710   5.553
 9547POPC   PO458044  19.850  23.681   5.853
 9547POPC   GL158045  19.818  23.676   6.153
 9547POPC   GL258046  19.731  23.688   6.153
 9547POPC   C1A58047  19.882  23.708   6.453
 9547POPC   D2A58048  19.847  23.758   6.753
 9547POPC   C3A58049  19.794  23.724   7.053
 9547POPC   C4A58050  19.856  23.762   7.353
 9547POPC   C1B58051  19.577  23.561   6.453
 9547POPC   C2B58052  19.656  23.592   6.753
 9547POPC   C3B58053  19.648  23.572   7.053
 9547POPC   C4B58054  19.627  23.617   7.353
 9548POPC   NC358055  44.677   3.531   5.553
 9548POPC   PO458056  44.685   3.543   5.853
 9548POPC   GL158057  44.676   3.494   6.153
 9548POPC   GL258058  44.526   3.543   6.153
 9548POPC   C1A58059  44.700   3.518   6.453
 9548POPC   D2A58060  44.638   3.514   6.753
 9548POPC   C3A58061  44.675   3.554   7.053
 9548POPC   C4A58062  44.681   3.572   7.353
 9548POPC   C1B58063  44.425   3.552   6.453
 9548POPC   C2B58064  44.412   3.497   6.753
 9548POPC   C3B58065  44.380   3.499   7.053
 9548POPC   C4B58066  44.444   3.516   7.353
 9549POPC   NC358067   7.396   5.826   5.553
 9549POPC   PO458068   7.456   5.831   5.853
 9549POPC   GL158069   7.439   5.866   6.153
 9549POPC   GL258070   7.287   5.848   6.153
 9549POPC   C1A58071   7.436   5.868   6.453
 9549POPC   D2A58072   7.384   5.851   6.753
 9549POPC   C3A58073   7.396   5.836   7.053
 9549POPC   C4A58074   7.403   5.907   7.353
 9549POPC   C1B58075   7.219   5.909   6.453
 9549POPC   C2B58076   7.183   5.963   6.753
 9549POPC   C3B58077   7.143   5.963   7.053
 9549POPC   C4B58078   7.204   5.956   7.353
 9550POPC   NC358079  15.937   2.736   5.553
 9550POPC   PO458080  15.979   2.729   5.853
 9550POPC   GL158081  15.944   2.813   6.153
 9550POPC   GL258082  15.867   2.678   6.153
 9550POPC   C1A58083  15.977   2.803   6.453
 9550POPC   D2A58084  15.985   2.738   6.753
 9550POPC   C3A58085  15.955   2.727   7.053
 9550POPC   C4A58086  15.943   2.778   7.353
 9550POPC   C1B58087  15.799   2.527   6.453
 9550POPC   C2B58088  15.829   2.589   6.753
 9550POPC   C3B58089  15.800   2.531   7.053
 9550POPC   C4B58090  15.800   2.493   7.353
 9551POPC   NC358091  18.247  27.632   5.553
 9551POPC   PO458092  18.295  27.556   5.853
 9551POPC   GL158093  18.307  27.543   6.153
 9551POPC   GL258094  18.366  27.519   6.153
 9551POPC   C1A58095  18.307  27.604   6.453
 9551POPC   D2A58096  18.309  27.570   6.753
 9551POPC   C3A58097  18.322  27.605   7.053
 9551POPC   C4A58098  18.317  27.610   7.353
 9551POPC   C1B58099  18.430  27.403   6.453
 9551POPC   C2B58100  18.413  27.442   6.753
 9551POPC   C3B58101  18.411  27.391   7.053
 9551POPC   C4B58102  18.450  27.414   7.353
 9552POPC   NC358103  38.409  39.237   5.553
 9552POPC   PO458104  38.430  39.199   5.853
 9552POPC   GL158105  38.472  39.207   6.153
 9552POPC   GL258106  38.460  39.167   6.153
 9552POPC   C1A58107  38.465  39.199   6.453
 9552POPC   D2A58108  38.414  39.190   6.753
 9552POPC   C3A58109  38.452  39.225   7.053
 9552POPC   C4A58110  38.468  39.207   7.353
 9552POPC   C1B58111  38.584  39.045   6.453
 9552POPC   C2B58112  38.605  39.051   6.753
 9552POPC   C3B58113  38.536  38.977   7.053
 9552POPC   C4B58114  38.526  39.031   7.353
 9553POPC   NC358115  40.039  43.125   5.553
 9553POPC   PO458116  40.022  43.160   5.853
 9553POPC   GL158117  40.024  43.121   6.153
 9553POPC   GL258118  40.168  43.183   6.153
 9553POPC   C1A58119  39.989  43.075   6.453
 9553POPC   D2A58120  40.044  43.089   6.753
 9553POPC   C3A58121  40.012  43.109   7.053
 9553POPC   C4A58122  39.977  43.109   7.353
 9553POPC   C1B58123  40.260  43.180   6.453
 9553POPC   C2B58124  40.231  43.201   6.753
 9553POPC   C3B58125  40.212  43.188   7.053
 9553POPC   C4B58126  40.265  43.223   7.353
 9554POPC   NC358127  15.936  44.706   5.553
 9554POPC   PO458128  15.949  44.684   5.853
 9554POPC   GL158129  15.922  44.625   6.153
 9554POPC   GL258130  16.042  44.545   6.153
 9554POPC   C1A58131  15.974  44.621   6.453
 9554POPC   D2A58132  15.935  44.657   6.753
 9554POPC   C3A58133  15.931  44.632   7.053
 9554POPC   C4A58134  15.986  44.634   7.353
 9554POPC   C1B58135  16.164  44.527   6.453
 9554POPC   C2B58136  16.181  44.531   6.753
 9554POPC   C3B58137  16.144  44.499   7.053
 9554POPC   C4B58138  16.190  44.464   7.353
 9555POPC   NC358139   2.795  26.803   5.553
 9555POPC   PO458140   2.795  26.859   5.853
 9555POPC   GL158141   2.752  26.834   6.153
 9555POPC   GL258142   2.632  26.883   6.153
 9555POPC   C1A58143   2.722  26.848   6.453
 9555POPC   D2A58144   2.723  26.789   6.753
 9555POPC   C3A58145   2.777  26.770   7.053
 9555POPC   C4A58146   2.736  26.810   7.353
 9555POPC   C1B58147   2.497  26.898   6.453
 9555POPC   C2B58148   2.566  26.861   6.753
 9555POPC   C3B58149   2.581  26.953   7.053
 9555POPC   C4B58150   2.534  26.940   7.353
 9556POPC   NC358151  15.147  12.853   5.553
 9556POPC   PO458152  15.147  12.864   5.853
 9556POPC   GL158153  15.155  12.843   6.153
 9556POPC   GL258154  15.271  12.863   6.153
 9556POPC   C1A58155  15.222  12.808   6.453
 9556POPC   D2A58156  15.189  12.815   6.753
 9556POPC   C3A58157  15.149  12.855   7.053
 9556POPC   C4A58158  15.215  12.817   7.353
 9556POPC   C1B58159  15.378  12.976   6.453
 9556POPC   C2B58160  15.427  12.910   6.753
 9556POPC   C3B58161  15.388  12.915   7.053
 9556POPC   C4B58162  15.417  12.972   7.353
 9557POPC   NC358163  12.088  33.752   5.553
 9557POPC   PO458164  12.086  33.813   5.853
 9557POPC   GL158165  12.115  33.816   6.153
 9557POPC   GL258166  12.148  33.837   6.153
 9557POPC   C1A58167  12.058  33.781   6.453
 9557POPC   D2A58168  12.058  33.826   6.753
 9557POPC   C3A58169  12.082  33.787   7.053
 9557POPC   C4A58170  12.106  33.767   7.353
 9557POPC   C1B58171  12.285  33.825   6.453
 9557POPC   C2B58172  12.322  33.862   6.753
 9557POPC   C3B58173  12.342  33.862   7.053
 9557POPC   C4B58174  12.340  33.844   7.353
 9558POPC   NC358175  27.635   5.082   5.553
 9558POPC   PO458176  27.586   5.082   5.853
 9558POPC   GL158177  27.560   5.065   6.153
 9558POPC   GL258178  27.676   5.010   6.153
 9558POPC   C1A58179  27.621   5.129   6.453
 9558POPC   D2A58180  27.600   5.077   6.753
 9558POPC   C3A58181  27.559   5.061   7.053
 9558POPC   C4A58182  27.571   5.070   7.353
 9558POPC   C1B58183  27.817   4.970   6.453
 9558POPC   C2B58184  27.863   4.931   6.753
 9558POPC   C3B58185  27.823   5.000   7.053
 9558POPC   C4B58186  27.815   4.952   7.353
 9559POPC   NC358187  40.805  30.655   5.553
 9559POPC   PO458188  40.798  30.730   5.853
 9559POPC   GL158189  40.820  30.680   6.153
 9559POPC   GL258190  40.643  30.650   6.153
 9559POPC   C1A58191  40.741  30.707   6.453
 9559POPC   D2A58192  40.822  30.656   6.753
 9559POPC   C3A58193  40.772  30.692   7.053
 9559POPC   C4A58194  40.790  30.729   7.353
 9559POPC   C1B58195  40.558  30.701   6.453
 9559POPC   C2B58196  40.503  30.673   6.753
 9559POPC   C3B58197  40.523  30.679   7.053
 9559POPC   C4B58198  40.522  30.653   7.353
 9560POPC   NC358199   3.559  28.391   5.553
 9560POPC   PO458200   3.529  28.380   5.853
 9560POPC   GL158201   3.523  28.352   6.153
 9560POPC   GL258202   3.650  28.278   6.153
 9560POPC   C1A58203   3.547  28.359   6.453
 9560POPC   D2A58204   3.540  28.361   6.753
 9560POPC   C3A58205   3.554  28.411   7.053
 9560POPC   C4A58206   3.577  28.406   7.353
 9560POPC   C1B58207   3.756  28.242   6.453
 9560POPC   C2B58208   3.770  28.211   6.753
 9560POPC   C3B58209   3.759  28.200   7.053
 9560POPC   C4B58210   3.765  28.229   7.353
 9561POPC   NC358211  27.609  18.331   5.553
 9561POPC   PO458212  27.544  18.294   5.853
 9561POPC   GL158213  27.560  18.298   6.153
 9561POPC   GL258214  27.746  18.195   6.153
 9561POPC   C1A58215  27.640  18.297   6.453
 9561POPC   D2A58216  27.564  18.253   6.753
 9561POPC   C3A58217  27.635  18.309   7.053
 9561POPC   C4A58218  27.569  18.270   7.353
 9561POPC   C1B58219  27.775  18.172   6.453
 9561POPC   C2B58220  27.812  18.210   6.753
 9561POPC   C3B58221  27.799  18.213   7.053
 9561POPC   C4B58222  27.770  18.183   7.353
 9562POPC   NC358223   5.897  15.994   5.553
 9562POPC   PO458224   5.867  15.925   5.853
 9562POPC   GL158225   5.910  15.963   6.153
 9562POPC   GL258226   5.799  15.808   6.153
 9562POPC   C1A58227   5.860  15.977   6.453
 9562POPC   D2A58228   5.855  15.991   6.753
 9562POPC   C3A58229   5.895  15.926   7.053
 9562POPC   C4A58230   5.824  16.004   7.353
 9562POPC   C1B58231   5.787  15.726   6.453
 9562POPC   C2B58232   5.779  15.671   6.753
 9562POPC   C3B58233   5.766  15.732   7.053
 9562POPC   C4B58234   5.820  15.713   7.353
 9563POPC   NC358235  29.897   9.734   5.553
 9563POPC   PO458236  29.968   9.756   5.853
 9563POPC   GL158237  29.923   9.713   6.153
 9563POPC   GL258238  29.833   9.677   6.153
 9563POPC   C1A58239  29.922   9.712   6.453
 9563POPC   D2A58240  29.956   9.743   6.753
 9563POPC   C3A58241  29.961   9.774   7.053
 9563POPC   C4A58242  29.960   9.771   7.353
 9563POPC   C1B58243  29.778   9.563   6.453
 9563POPC   C2B58244  29.729   9.566   6.753
 9563POPC   C3B58245  29.706   9.600   7.053
 9563POPC   C4B58246  29.756   9.606   7.353
 9564POPC   NC358247  41.512  36.093   5.553
 9564POPC   PO458248  41.581  36.140   5.853
 9564POPC   GL158249  41.570  36.154   6.153
 9564POPC   GL258250  41.688  36.096   6.153
 9564POPC   C1A58251  41.590  36.108   6.453
 9564POPC   D2A58252  41.543  36.102   6.753
 9564POPC   C3A58253  41.557  36.124   7.053
 9564POPC   C4A58254  41.527  36.128   7.353
 9564POPC   C1B58255  41.778  36.050   6.453
 9564POPC   C2B58256  41.775  36.111   6.753
 9564POPC   C3B58257  41.850  36.111   7.053
 9564POPC   C4B58258  41.820  36.086   7.353
 9565POPC   NC358259  14.364  33.027   5.553
 9565POPC   PO458260  14.377  32.990   5.853
 9565POPC   GL158261  14.418  33.045   6.153
 9565POPC   GL258262  14.541  33.096   6.153
 9565POPC   C1A58263  14.398  33.063   6.453
 9565POPC   D2A58264  14.451  33.025   6.753
 9565POPC   C3A58265  14.388  33.041   7.053
 9565POPC   C4A58266  14.428  33.056   7.353
 9565POPC   C1B58267  14.667  33.159   6.453
 9565POPC   C2B58268  14.616  33.139   6.753
 9565POPC   C3B58269  14.610  33.097   7.053
 9565POPC   C4B58270  14.669  33.132   7.353
 9566POPC   NC358271  43.929  34.539   5.553
 9566POPC   PO458272  43.859  34.591   5.853
 9566POPC   GL158273  43.903  34.603   6.153
 9566POPC   GL258274  44.039  34.490   6.153
 9566POPC   C1A58275  43.933  34.602   6.453
 9566POPC   D2A58276  43.898  34.586   6.753
 9566POPC   C3A58277  43.841  34.619   7.053
 9566POPC   C4A58278  43.878  34.542   7.353
 9566POPC   C1B58279  44.108  34.469   6.453
 9566POPC   C2B58280  44.143  34.535   6.753
 9566POPC   C3B58281  44.077  34.516   7.053
 9566POPC   C4B58282  44.077  34.488   7.353
 9567POPC   NC358283  24.496  12.811   5.553
 9567POPC   PO458284  24.507  12.822   5.853
 9567POPC   GL158285  24.500  12.897   6.153
 9567POPC   GL258286  24.502  12.683   6.153
 9567POPC   C1A58287  24.511  12.893   6.453
 9567POPC   D2A58288  24.479  12.868   6.753
 9567POPC   C3A58289  24.529  12.899   7.053
 9567POPC   C4A58290  24.503  12.873   7.353
 9567POPC   C1B58291  24.578  12.642   6.453
 9567POPC   C2B58292  24.538  12.660   6.753
 9567POPC   C3B58293  24.541  12.584   7.053
 9567POPC   C4B58294  24.505  12.627   7.353
 9568POPC   NC358295  36.924  30.725   5.553
 9568POPC   PO458296  36.901  30.705   5.853
 9568POPC   GL158297  36.909  30.732   6.153
 9568POPC   GL258298  36.833  30.708   6.153
 9568POPC   C1A58299  36.945  30.648   6.453
 9568POPC   D2A58300  36.947  30.657   6.753
 9568POPC   C3A58301  36.905  30.692   7.053
 9568POPC   C4A58302  36.932  30.685   7.353
 9568POPC   C1B58303  36.642  30.797   6.453
 9568POPC   C2B58304  36.705  30.783   6.753
 9568POPC   C3B58305  36.664  30.806   7.053
 9568POPC   C4B58306  36.655  30.766   7.353
 9569POPC   NC358307  27.593  11.325   5.553
 9569POPC   PO458308  27.634  11.309   5.853
 9569POPC   GL158309  27.627  11.318   6.153
 9569POPC   GL258310  27.676  11.231   6.153
 9569POPC   C1A58311  27.626  11.271   6.453
 9569POPC   D2A58312  27.562  11.292   6.753
 9569POPC   C3A58313  27.599  11.275   7.053
 9569POPC   C4A58314  27.628  11.309   7.353
 9569POPC   C1B58315  27.706  11.145   6.453
 9569POPC   C2B58316  27.717  11.130   6.753
 9569POPC   C3B58317  27.724  11.090   7.053
 9569POPC   C4B58318  27.695  11.066   7.353
 9570POPC   NC358319   2.785  15.173   5.553
 9570POPC   PO458320   2.752  15.201   5.853
 9570POPC   GL158321   2.739  15.177   6.153
 9570POPC   GL258322   2.885  15.057   6.153
 9570POPC   C1A58323   2.811  15.189   6.453
 9570POPC   D2A58324   2.719  15.170   6.753
 9570POPC   C3A58325   2.733  15.148   7.053
 9570POPC   C4A58326   2.757  15.145   7.353
 9570POPC   C1B58327   2.935  14.993   6.453
 9570POPC   C2B58328   2.881  14.944   6.753
 9570POPC   C3B58329   2.920  15.013   7.053
 9570POPC   C4B58330   2.962  15.026   7.353
 9571POPC   NC358331  22.156  43.871   5.553
 9571POPC   PO458332  22.183  43.878   5.853
 9571POPC   GL158333  22.201  43.849   6.153
 9571POPC   GL258334  22.073  43.749   6.153
 9571POPC   C1A58335  22.164  43.887   6.453
 9571POPC   D2A58336  22.136  43.851   6.753
 9571POPC   C3A58337  22.192  43.915   7.053
 9571POPC   C4A58338  22.206  43.861   7.353
 9571POPC   C1B58339  22.026  43.695   6.453
 9571POPC   C2B58340  21.972  43.708   6.753
 9571POPC   C3B58341  22.001  43.729   7.053
 9571POPC   C4B58342  21.990  43.728   7.353
 9572POPC   NC358343   5.904   4.305   5.553
 9572POPC   PO458344   5.867   4.278   5.853
 9572POPC   GL158345   5.870   4.304   6.153
 9572POPC   GL258346   5.975   4.258   6.153
 9572POPC   C1A58347   5.914   4.288   6.453
 9572POPC   D2A58348   5.858   4.327   6.753
 9572POPC   C3A58349   5.820   4.314   7.053
 9572POPC   C4A58350   5.871   4.299   7.353
 9572POPC   C1B58351   6.074   4.142   6.453
 9572POPC   C2B58352   6.039   4.127   6.753
 9572POPC   C3B58353   5.995   4.151   7.053
 9572POPC   C4B58354   6.022   4.088   7.353
 9573POPC   NC358355  23.738  44.663   5.553
 9573POPC   PO458356  23.762  44.691   5.853
 9573POPC   GL158357  23.682  44.666   6.153
 9573POPC   GL258358  23.800  44.657   6.153
 9573POPC   C1A58359  23.749  44.705   6.453
 9573POPC   D2A58360  23.709  44.712   6.753
 9573POPC   C3A58361  23.704  44.652   7.053
 9573POPC   C4A58362  23.721  44.677   7.353
 9573POPC   C1B58363  23.993  44.579   6.453
 9573POPC   C2B58364  23.985  44.572   6.753
 9573POPC   C3B58365  23.959  44.548   7.053
 9573POPC   C4B58366  23.949  44.517   7.353
 9574POPC   NC358367  40.010  44.616   5.553
 9574POPC   PO458368  39.959  44.684   5.853
 9574POPC   GL158369  40.000  44.625   6.153
 9574POPC   GL258370  39.873  44.636   6.153
 9574POPC   C1A58371  40.016  44.671   6.453
 9574POPC   D2A58372  40.032  44.634   6.753
 9574POPC   C3A58373  40.009  44.626   7.053
 9574POPC   C4A58374  40.018  44.685   7.353
 9574POPC   C1B58375  39.798  44.675   6.453
 9574POPC   C2B58376  39.744  44.631   6.753
 9574POPC   C3B58377  39.764  44.714   7.053
 9574POPC   C4B58378  39.739  44.693   7.353
 9575POPC   NC358379  19.846   5.912   5.553
 9575POPC   PO458380  19.870   5.852   5.853
 9575POPC   GL158381  19.875   5.858   6.153
 9575POPC   GL258382  19.967   5.921   6.153
 9575POPC   C1A58383  19.796   5.859   6.453
 9575POPC   D2A58384  19.801   5.855   6.753
 9575POPC   C3A58385  19.798   5.906   7.053
 9575POPC   C4A58386  19.883   5.902   7.353
 9575POPC   C1B58387  20.094   5.949   6.453
 9575POPC   C2B58388  20.078   5.935   6.753
 9575POPC   C3B58389  20.036   5.890   7.053
 9575POPC   C4B58390  20.088   5.891   7.353
 9576POPC   NC358391  36.116   1.969   5.553
 9576POPC   PO458392  36.137   1.984   5.853
 9576POPC   GL158393  36.131   1.947   6.153
 9576POPC   GL258394  36.157   1.823   6.153
 9576POPC   C1A58395  36.137   1.940   6.453
 9576POPC   D2A58396  36.136   1.989   6.753
 9576POPC   C3A58397  36.125   2.010   7.053
 9576POPC   C4A58398  36.164   1.980   7.353
 9576POPC   C1B58399  36.072   1.724   6.453
 9576POPC   C2B58400  36.117   1.745   6.753
 9576POPC   C3B58401  36.108   1.720   7.053
 9576POPC   C4B58402  36.101   1.734   7.353
 9577POPC   NC358403  26.860   7.401   5.553
 9577POPC   PO458404  26.837   7.445   5.853
 9577POPC   GL158405  26.855   7.409   6.153
 9577POPC   GL258406  26.907   7.351   6.153
 9577POPC   C1A58407  26.793   7.450   6.453
 9577POPC   D2A58408  26.774   7.432   6.753
 9577POPC   C3A58409  26.848   7.393   7.053
 9577POPC   C4A58410  26.804   7.449   7.353
 9577POPC   C1B58411  27.018   7.294   6.453
 9577POPC   C2B58412  27.009   7.241   6.753
 9577POPC   C3B58413  27.011   7.265   7.053
 9577POPC   C4B58414  26.995   7.247   7.353
 9578POPC   NC358415  44.644  35.373   5.553
 9578POPC   PO458416  44.695  35.324   5.853
 9578POPC   GL158417  44.641  35.375   6.153
 9578POPC   GL258418  44.780  35.320   6.153
 9578POPC   C1A58419  44.618  35.396   6.453
 9578POPC   D2A58420  44.637  35.394   6.753
 9578POPC   C3A58421  44.692  35.304   7.053
 9578POPC   C4A58422  44.645  35.398   7.353
 9578POPC   C1B58423  44.912  35.388   6.453
 9578POPC   C2B58424  44.929  35.312   6.753
 9578POPC   C3B58425  44.874  35.371   7.053
 9578POPC   C4B58426  44.869  35.350   7.353
 9579POPC   NC358427  18.234  21.434   5.553
 9579POPC   PO458428  18.294  21.357   5.853
 9579POPC   GL158429  18.321  21.403   6.153
 9579POPC   GL258430  18.255  21.303   6.153
 9579POPC   C1A58431  18.243  21.419   6.453
 9579POPC   D2A58432  18.239  21.414   6.753
 9579POPC   C3A58433  18.323  21.368   7.053
 9579POPC   C4A58434  18.329  21.380   7.353
 9579POPC   C1B58435  18.172  21.168   6.453
 9579POPC   C2B58436  18.168  21.128   6.753
 9579POPC   C3B58437  18.193  21.214   7.053
 9579POPC   C4B58438  18.175  21.206   7.353
 9580POPC   NC358439  29.124  23.750   5.553
 9580POPC   PO458440  29.097  23.680   5.853
 9580POPC   GL158441  29.169  23.695   6.153
 9580POPC   GL258442  29.012  23.782   6.153
 9580POPC   C1A58443  29.190  23.720   6.453
 9580POPC   D2A58444  29.107  23.753   6.753
 9580POPC   C3A58445  29.182  23.764   7.053
 9580POPC   C4A58446  29.131  23.687   7.353
 9580POPC   C1B58447  28.904  23.895   6.453
 9580POPC   C2B58448  28.986  23.832   6.753
 9580POPC   C3B58449  28.966  23.899   7.053
 9580POPC   C4B58450  28.919  23.849   7.353
 9581POPC   NC358451  31.457   0.422   5.553
 9581POPC   PO458452  31.467   0.456   5.853
 9581POPC   GL158453  31.480   0.486   6.153
 9581POPC   GL258454  31.361   0.455   6.153
 9581POPC   C1A58455  31.508   0.434   6.453
 9581POPC   D2A58456  31.515   0.440   6.753
 9581POPC   C3A58457  31.462   0.397   7.053
 9581POPC   C4A58458  31.514   0.432   7.353
 9581POPC   C1B58459  31.251   0.416   6.453
 9581POPC   C2B58460  31.208   0.352   6.753
 9581POPC   C3B58461  31.183   0.347   7.053
 9581POPC   C4B58462  31.245   0.417   7.353
 9582POPC   NC358463  36.860  43.066   5.553
 9582POPC   PO458464  36.896  43.104   5.853
 9582POPC   GL158465  36.892  43.140   6.153
 9582POPC   GL258466  36.953  43.235   6.153
 9582POPC   C1A58467  36.861  43.096   6.453
 9582POPC   D2A58468  36.910  43.113   6.753
 9582POPC   C3A58469  36.922  43.069   7.053
 9582POPC   C4A58470  36.861  43.089   7.353
 9582POPC   C1B58471  37.050  43.286   6.453
 9582POPC   C2B58472  37.019  43.327   6.753
 9582POPC   C3B58473  37.047  43.328   7.053
 9582POPC   C4B58474  36.996  43.321   7.353
 9583POPC   NC358475   8.176  35.313   5.553
 9583POPC   PO458476   8.149  35.381   5.853
 9583POPC   GL158477   8.223  35.342   6.153
 9583POPC   GL258478   8.256  35.272   6.153
 9583POPC   C1A58479   8.212  35.329   6.453
 9583POPC   D2A58480   8.216  35.378   6.753
 9583POPC   C3A58481   8.216  35.333   7.053
 9583POPC   C4A58482   8.176  35.384   7.353
 9583POPC   C1B58483   8.312  35.151   6.453
 9583POPC   C2B58484   8.330  35.129   6.753
 9583POPC   C3B58485   8.331  35.177   7.053
 9583POPC   C4B58486   8.347  35.159   7.353
 9584POPC   NC358487  30.662  13.590   5.553
 9584POPC   PO458488  30.682  13.597   5.853
 9584POPC   GL158489  30.726  13.621   6.153
 9584POPC   GL258490  30.737  13.751   6.153
 9584POPC   C1A58491  30.708  13.670   6.453
 9584POPC   D2A58492  30.653  13.645   6.753
 9584POPC   C3A58493  30.697  13.660   7.053
 9584POPC   C4A58494  30.716  13.656   7.353
 9584POPC   C1B58495  30.718  13.906   6.453
 9584POPC   C2B58496  30.722  13.892   6.753
 9584POPC   C3B58497  30.750  13.880   7.053
 9584POPC   C4B58498  30.789  13.879   7.353
 9585POPC   NC358499  14.386  29.140   5.553
 9585POPC   PO458500  14.357  29.115   5.853
 9585POPC   GL158501  14.385  29.161   6.153
 9585POPC   GL258502  14.265  29.269   6.153
 9585POPC   C1A58503  14.393  29.099   6.453
 9585POPC   D2A58504  14.447  29.186   6.753
 9585POPC   C3A58505  14.450  29.149   7.053
 9585POPC   C4A58506  14.439  29.169   7.353
 9585POPC   C1B58507  14.175  29.315   6.453
 9585POPC   C2B58508  14.170  29.314   6.753
 9585POPC   C3B58509  14.204  29.337   7.053
 9585POPC   C4B58510  14.230  29.350   7.353
 9586POPC   NC358511   0.440  41.605   5.553
 9586POPC   PO458512   0.484  41.513   5.853
 9586POPC   GL158513   0.469  41.533   6.153
 9586POPC   GL258514   0.589  41.552   6.153
 9586POPC   C1A58515   0.476  41.569   6.453
 9586POPC   D2A58516   0.487  41.534   6.753
 9586POPC   C3A58517   0.400  41.598   7.053
 9586POPC   C4A58518   0.476  41.514   7.353
 9586POPC   C1B58519   0.672  41.578   6.453
 9586POPC   C2B58520   0.669  41.535   6.753
 9586POPC   C3B58521   0.642  41.503   7.053
 9586POPC   C4B58522   0.718  41.552   7.353
 9587POPC   NC358523   2.738  31.460   5.553
 9587POPC   PO458524   2.794  31.475   5.853
 9587POPC   GL158525   2.755  31.485   6.153
 9587POPC   GL258526   2.632  31.589   6.153
 9587POPC   C1A58527   2.763  31.514   6.453
 9587POPC   D2A58528   2.719  31.519   6.753
 9587POPC   C3A58529   2.741  31.486   7.053
 9587POPC   C4A58530   2.741  31.460   7.353
 9587POPC   C1B58531   2.530  31.621   6.453
 9587POPC   C2B58532   2.578  31.608   6.753
 9587POPC   C3B58533   2.536  31.646   7.053
 9587POPC   C4B58534   2.582  31.618   7.353
 9588POPC   NC358535  38.489  36.177   5.553
 9588POPC   PO458536  38.471  36.125   5.853
 9588POPC   GL158537  38.419  36.161   6.153
 9588POPC   GL258538  38.534  36.161   6.153
 9588POPC   C1A58539  38.497  36.139   6.453
 9588POPC   D2A58540  38.418  36.096   6.753
 9588POPC   C3A58541  38.467  36.092   7.053
 9588POPC   C4A58542  38.502  36.085   7.353
 9588POPC   C1B58543  38.707  36.125   6.453
 9588POPC   C2B58544  38.733  36.078   6.753
 9588POPC   C3B58545  38.683  36.118   7.053
 9588POPC   C4B58546  38.723  36.081   7.353
 9589POPC   NC358547  12.101  23.740   5.553
 9589POPC   PO458548  12.071  23.672   5.853
 9589POPC   GL158549  12.062  23.746   6.153
 9589POPC   GL258550  12.004  23.667   6.153
 9589POPC   C1A58551  12.062  23.694   6.453
 9589POPC   D2A58552  12.051  23.667   6.753
 9589POPC   C3A58553  12.038  23.690   7.053
 9589POPC   C4A58554  12.113  23.671   7.353
 9589POPC   C1B58555  11.798  23.611   6.453
 9589POPC   C2B58556  11.790  23.650   6.753
 9589POPC   C3B58557  11.863  23.676   7.053
 9589POPC   C4B58558  11.830  23.687   7.353
 9590POPC   NC358559  15.957  22.118   5.553
 9590POPC   PO458560  15.956  22.183   5.853
 9590POPC   GL158561  15.969  22.147   6.153
 9590POPC   GL258562  16.025  22.025   6.153
 9590POPC   C1A58563  15.963  22.114   6.453
 9590POPC   D2A58564  16.001  22.129   6.753
 9590POPC   C3A58565  15.927  22.136   7.053
 9590POPC   C4A58566  15.928  22.145   7.353
 9590POPC   C1B58567  16.151  21.979   6.453
 9590POPC   C2B58568  16.062  21.981   6.753
 9590POPC   C3B58569  16.104  21.939   7.053
 9590POPC   C4B58570  16.099  21.963   7.353
 9591POPC   NC358571   5.843   2.002   5.553
 9591POPC   PO458572   5.829   2.024   5.853
 9591POPC   GL158573   5.858   2.000   6.153
 9591POPC   GL258574   5.995   1.928   6.153
 9591POPC   C1A58575   5.829   1.948   6.453
 9591POPC   D2A58576   5.908   2.008   6.753
 9591POPC   C3A58577   5.905   2.006   7.053
 9591POPC   C4A58578   5.862   1.991   7.353
 9591POPC   C1B58579   6.006   1.837   6.453
 9591POPC   C2B58580   6.024   1.805   6.753
 9591POPC   C3B58581   6.049   1.867   7.053
 9591POPC   C4B58582   6.040   1.822   7.353
 9592POPC   NC358583  43.149   2.037   5.553
 9592POPC   PO458584  43.078   2.028   5.853
 9592POPC   GL158585  43.129   1.989   6.153
 9592POPC   GL258586  43.014   1.898   6.153
 9592POPC   C1A58587  43.128   2.003   6.453
 9592POPC   D2A58588  43.090   1.948   6.753
 9592POPC   C3A58589  43.118   2.022   7.053
 9592POPC   C4A58590  43.106   1.976   7.353
 9592POPC   C1B58591  42.916   1.914   6.453
 9592POPC   C2B58592  42.903   1.951   6.753
 9592POPC   C3B58593  42.881   1.874   7.053
 9592POPC   C4B58594  42.886   1.946   7.353
 9593POPC   NC358595  35.352  39.270   5.553
 9593POPC   PO458596  35.342  39.221   5.853
 9593POPC   GL158597  35.303  39.209   6.153
 9593POPC   GL258598  35.228  39.328   6.153
 9593POPC   C1A58599  35.399  39.186   6.453
 9593POPC   D2A58600  35.392  39.191   6.753
 9593POPC   C3A58601  35.375  39.200   7.053
 9593POPC   C4A58602  35.369  39.187   7.353
 9593POPC   C1B58603  35.192  39.376   6.453
 9593POPC   C2B58604  35.210  39.389   6.753
 9593POPC   C3B58605  35.209  39.401   7.053
 9593POPC   C4B58606  35.202  39.434   7.353
 9594POPC   NC358607  40.765  26.863   5.553
 9594POPC   PO458608  40.796  26.818   5.853
 9594POPC   GL158609  40.774  26.795   6.153
 9594POPC   GL258610  40.925  26.841   6.153
 9594POPC   C1A58611  40.764  26.810   6.453
 9594POPC   D2A58612  40.805  26.779   6.753
 9594POPC   C3A58613  40.754  26.823   7.053
 9594POPC   C4A58614  40.816  26.836   7.353
 9594POPC   C1B58615  41.035  26.884   6.453
 9594POPC   C2B58616  41.031  26.889   6.753
 9594POPC   C3B58617  40.981  26.897   7.053
 9594POPC   C4B58618  41.000  26.882   7.353
 9595POPC   NC358619   3.537  24.452   5.553
 9595POPC   PO458620   3.587  24.513   5.853
 9595POPC   GL158621   3.575  24.496   6.153
 9595POPC   GL258622   3.507  24.405   6.153
 9595POPC   C1A58623   3.531  24.512   6.453
 9595POPC   D2A58624   3.517  24.464   6.753
 9595POPC   C3A58625   3.562  24.487   7.053
 9595POPC   C4A58626   3.567  24.510   7.353
 9595POPC   C1B58627   3.451  24.235   6.453
 9595POPC   C2B58628   3.443  24.272   6.753
 9595POPC   C3B58629   3.496  24.245   7.053
 9595POPC   C4B58630   3.434  24.274   7.353
 9596POPC   NC358631  20.653  10.571   5.553
 9596POPC   PO458632  20.595  10.509   5.853
 9596POPC   GL158633  20.630  10.508   6.153
 9596POPC   GL258634  20.591  10.582   6.153
 9596POPC   C1A58635  20.638  10.509   6.453
 9596POPC   D2A58636  20.660  10.508   6.753
 9596POPC   C3A58637  20.617  10.492   7.053
 9596POPC   C4A58638  20.574  10.475   7.353
 9596POPC   C1B58639  20.444  10.691   6.453
 9596POPC   C2B58640  20.525  10.778   6.753
 9596POPC   C3B58641  20.468  10.754   7.053
 9596POPC   C4B58642  20.529  10.728   7.353
 9597POPC   NC358643  15.228  20.660   5.553
 9597POPC   PO458644  15.138  20.561   5.853
 9597POPC   GL158645  15.143  20.575   6.153
 9597POPC   GL258646  15.214  20.468   6.153
 9597POPC   C1A58647  15.142  20.632   6.453
 9597POPC   D2A58648  15.207  20.659   6.753
 9597POPC   C3A58649  15.220  20.641   7.053
 9597POPC   C4A58650  15.132  20.577   7.353
 9597POPC   C1B58651  15.339  20.419   6.453
 9597POPC   C2B58652  15.324  20.457   6.753
 9597POPC   C3B58653  15.392  20.437   7.053
 9597POPC   C4B58654  15.321  20.443   7.353
 9598POPC   NC358655  11.335  37.692   5.553
 9598POPC   PO458656  11.326  37.687   5.853
 9598POPC   GL158657  11.304  37.630   6.153
 9598POPC   GL258658  11.338  37.794   6.153
 9598POPC   C1A58659  11.313  37.682   6.453
 9598POPC   D2A58660  11.253  37.676   6.753
 9598POPC   C3A58661  11.287  37.690   7.053
 9598POPC   C4A58662  11.256  37.684   7.353
 9598POPC   C1B58663  11.280  37.945   6.453
 9598POPC   C2B58664  11.287  37.892   6.753
 9598POPC   C3B58665  11.275  37.906   7.053
 9598POPC   C4B58666  11.233  37.923   7.353
 9599POPC   NC358667  29.117  24.508   5.553
 9599POPC   PO458668  29.114  24.479   5.853
 9599POPC   GL158669  29.123  24.486   6.153
 9599POPC   GL258670  29.190  24.361   6.153
 9599POPC   C1A58671  29.192  24.514   6.453
 9599POPC   D2A58672  29.146  24.481   6.753
 9599POPC   C3A58673  29.125  24.503   7.053
 9599POPC   C4A58674  29.132  24.459   7.353
 9599POPC   C1B58675  29.253  24.315   6.453
 9599POPC   C2B58676  29.254  24.287   6.753
 9599POPC   C3B58677  29.266  24.236   7.053
 9599POPC   C4B58678  29.275  24.288   7.353
 9600POPC   NC358679   4.292  26.076   5.553
 9600POPC   PO458680   4.270  26.055   5.853
 9600POPC   GL158681   4.274  26.089   6.153
 9600POPC   GL258682   4.181  25.993   6.153
 9600POPC   C1A58683   4.363  26.065   6.453
 9600POPC   D2A58684   4.280  26.034   6.753
 9600POPC   C3A58685   4.344  26.090   7.053
 9600POPC   C4A58686   4.313  26.014   7.353
 9600POPC   C1B58687   4.110  25.961   6.453
 9600POPC   C2B58688   4.082  25.952   6.753
 9600POPC   C3B58689   4.070  25.960   7.053
 9600POPC   C4B58690   4.088  25.922   7.353
 9601POPC   NC358691  26.077  31.467   5.553
 9601POPC   PO458692  26.069  31.460   5.853
 9601POPC   GL158693  26.008  31.466   6.153
 9601POPC   GL258694  25.904  31.516   6.153
 9601POPC   C1A58695  26.048  31.450   6.453
 9601POPC   D2A58696  26.049  31.508   6.753
 9601POPC   C3A58697  26.006  31.513   7.053
 9601POPC   C4A58698  26.045  31.508   7.353
 9601POPC   C1B58699  25.793  31.584   6.453
 9601POPC   C2B58700  25.838  31.654   6.753
 9601POPC   C3B58701  25.858  31.655   7.053
 9601POPC   C4B58702  25.836  31.593   7.353
 9602POPC   NC358703   3.500  15.951   5.553
 9602POPC   PO458704   3.506  15.973   5.853
 9602POPC   GL158705   3.542  15.952   6.153
 9602POPC   GL258706   3.455  15.826   6.153
 9602POPC   C1A58707   3.505  15.958   6.453
 9602POPC   D2A58708   3.530  15.912   6.753
 9602POPC   C3A58709   3.590  15.936   7.053
 9602POPC   C4A58710   3.502  15.960   7.353
 9602POPC   C1B58711   3.373  15.785   6.453
 9602POPC   C2B58712   3.347  15.808   6.753
 9602POPC   C3B58713   3.386  15.799   7.053
 9602POPC   C4B58714   3.319  15.769   7.353
 9603POPC   NC358715  23.705  14.421   5.553
 9603POPC   PO458716  23.729  14.399   5.853
 9603POPC   GL158717  23.760  14.418   6.153
 9603POPC   GL258718  23.754  14.558   6.153
 9603POPC   C1A58719  23.703  14.369   6.453
 9603POPC   D2A58720  23.745  14.416   6.753
 9603POPC   C3A58721  23.742  14.364   7.053
 9603POPC   C4A58722  23.706  14.398   7.353
 9603POPC   C1B58723  23.734  14.662   6.453
 9603POPC   C2B58724  23.750  14.687   6.753
 9603POPC   C3B58725  23.708  14.649   7.053
 9603POPC   C4B58726  23.681  14.693   7.353
 9604POPC   NC358727  27.561  44.664   5.553
 9604POPC   PO458728  27.632  44.705   5.853
 9604POPC   GL158729  27.615  44.640   6.153
 9604POPC   GL258730  27.483  44.674   6.153
 9604POPC   C1A58731  27.591  44.707   6.453
 9604POPC   D2A58732  27.547  44.671   6.753
 9604POPC   C3A58733  27.548  44.647   7.053
 9604POPC   C4A58734  27.561  44.659   7.353
 9604POPC   C1B58735  27.392  44.712   6.453
 9604POPC   C2B58736  27.355  44.744   6.753
 9604POPC   C3B58737  27.329  44.684   7.053
 9604POPC   C4B58738  27.363  44.727   7.353
 9605POPC   NC358739  32.269  32.276   5.553
 9605POPC   PO458740  32.268  32.288   5.853
 9605POPC   GL158741  32.270  32.234   6.153
 9605POPC   GL258742  32.165  32.353   6.153
 9605POPC   C1A58743  32.298  32.252   6.453
 9605POPC   D2A58744  32.205  32.228   6.753
 9605POPC   C3A58745  32.210  32.284   7.053
 9605POPC   C4A58746  32.231  32.278   7.353
 9605POPC   C1B58747  32.044  32.415   6.453
 9605POPC   C2B58748  32.022  32.446   6.753
 9605POPC   C3B58749  32.089  32.379   7.053
 9605POPC   C4B58750  32.101  32.402   7.353
 9606POPC   NC358751  38.448  30.671   5.553
 9606POPC   PO458752  38.440  30.682   5.853
 9606POPC   GL158753  38.456  30.695   6.153
 9606POPC   GL258754  38.556  30.793   6.153
 9606POPC   C1A58755  38.420  30.728   6.453
 9606POPC   D2A58756  38.498  30.702   6.753
 9606POPC   C3A58757  38.418  30.653   7.053
 9606POPC   C4A58758  38.459  30.706   7.353
 9606POPC   C1B58759  38.637  30.911   6.453
 9606POPC   C2B58760  38.600  30.874   6.753
 9606POPC   C3B58761  38.672  30.861   7.053
 9606POPC   C4B58762  38.662  30.896   7.353
 9607POPC   NC358763   1.249  18.311   5.553
 9607POPC   PO458764   1.233  18.260   5.853
 9607POPC   GL158765   1.207  18.324   6.153
 9607POPC   GL258766   1.243  18.168   6.153
 9607POPC   C1A58767   1.218  18.286   6.453
 9607POPC   D2A58768   1.235  18.309   6.753
 9607POPC   C3A58769   1.168  18.321   7.053
 9607POPC   C4A58770   1.240  18.283   7.353
 9607POPC   C1B58771   1.289  18.018   6.453
 9607POPC   C2B58772   1.268  18.082   6.753
 9607POPC   C3B58773   1.194  18.077   7.053
 9607POPC   C4B58774   1.221  18.053   7.353
 9608POPC   NC358775   1.176   0.418   5.553
 9608POPC   PO458776   1.177   0.463   5.853
 9608POPC   GL158777   1.167   0.464   6.153
 9608POPC   GL258778   1.245   0.589   6.153
 9608POPC   C1A58779   1.252   0.399   6.453
 9608POPC   D2A58780   1.248   0.389   6.753
 9608POPC   C3A58781   1.212   0.487   7.053
 9608POPC   C4A58782   1.224   0.465   7.353
 9608POPC   C1B58783   1.265   0.664   6.453
 9608POPC   C2B58784   1.248   0.665   6.753
 9608POPC   C3B58785   1.270   0.640   7.053
 9608POPC   C4B58786   1.276   0.692   7.353
 9609POPC   NC358787  14.450   0.483   5.553
 9609POPC   PO458788  14.420   0.436   5.853
 9609POPC   GL158789  14.450   0.408   6.153
 9609POPC   GL258790  14.279   0.405   6.153
 9609POPC   C1A58791  14.372   0.406   6.453
 9609POPC   D2A58792  14.370   0.457   6.753
 9609POPC   C3A58793  14.448   0.482   7.053
 9609POPC   C4A58794  14.404   0.436   7.353
 9609POPC   C1B58795  14.234   0.330   6.453
 9609POPC   C2B58796  14.218   0.326   6.753
 9609POPC   C3B58797  14.188   0.334   7.053
 9609POPC   C4B58798  14.207   0.350   7.353
 9610POPC   NC358799  36.172  12.037   5.553
 9610POPC   PO458800  36.168  12.089   5.853
 9610POPC   GL158801  36.167  12.080   6.153
 9610POPC   GL258802  36.233  12.168   6.153
 9610POPC   C1A58803  36.083  12.079   6.453
 9610POPC   D2A58804  36.128  12.086   6.753
 9610POPC   C3A58805  36.167  12.043   7.053
 9610POPC   C4A58806  36.129  12.063   7.353
 9610POPC   C1B58807  36.341  12.125   6.453
 9610POPC   C2B58808  36.395  12.215   6.753
 9610POPC   C3B58809  36.338  12.130   7.053
 9610POPC   C4B58810  36.359  12.204   7.353
 9611POPC   NC358811  33.019  36.133   5.553
 9611POPC   PO458812  33.073  36.135   5.853
 9611POPC   GL158813  32.993  36.079   6.153
 9611POPC   GL258814  32.894  36.082   6.153
 9611POPC   C1A58815  33.058  36.135   6.453
 9611POPC   D2A58816  33.002  36.120   6.753
 9611POPC   C3A58817  33.051  36.094   7.053
 9611POPC   C4A58818  32.986  36.079   7.353
 9611POPC   C1B58819  32.820  36.067   6.453
 9611POPC   C2B58820  32.753  36.069   6.753
 9611POPC   C3B58821  32.830  36.052   7.053
 9611POPC   C4B58822  32.812  36.024   7.353
 9612POPC   NC358823  26.811   4.281   5.553
 9612POPC   PO458824  26.849   4.283   5.853
 9612POPC   GL158825  26.867   4.296   6.153
 9612POPC   GL258826  26.721   4.228   6.153
 9612POPC   C1A58827  26.812   4.323   6.453
 9612POPC   D2A58828  26.771   4.304   6.753
 9612POPC   C3A58829  26.797   4.345   7.053
 9612POPC   C4A58830  26.784   4.314   7.353
 9612POPC   C1B58831  26.651   4.126   6.453
 9612POPC   C2B58832  26.670   4.136   6.753
 9612POPC   C3B58833  26.694   4.118   7.053
 9612POPC   C4B58834  26.737   4.137   7.353
 9613POPC   NC358835  27.602  29.911   5.553
 9613POPC   PO458836  27.594  29.945   5.853
 9613POPC   GL158837  27.588  29.950   6.153
 9613POPC   GL258838  27.514  29.912   6.153
 9613POPC   C1A58839  27.586  29.951   6.453
 9613POPC   D2A58840  27.598  29.893   6.753
 9613POPC   C3A58841  27.632  29.877   7.053
 9613POPC   C4A58842  27.609  29.913   7.353
 9613POPC   C1B58843  27.346  29.820   6.453
 9613POPC   C2B58844  27.369  29.826   6.753
 9613POPC   C3B58845  27.317  29.843   7.053
 9613POPC   C4B58846  27.325  29.896   7.353
 9614POPC   NC358847  14.357   9.797   5.553
 9614POPC   PO458848  14.409   9.793   5.853
 9614POPC   GL158849  14.389   9.755   6.153
 9614POPC   GL258850  14.406   9.627   6.153
 9614POPC   C1A58851  14.393   9.752   6.453
 9614POPC   D2A58852  14.401   9.749   6.753
 9614POPC   C3A58853  14.424   9.734   7.053
 9614POPC   C4A58854  14.401   9.779   7.353
 9614POPC   C1B58855  14.324   9.548   6.453
 9614POPC   C2B58856  14.333   9.528   6.753
 9614POPC   C3B58857  14.328   9.526   7.053
 9614POPC   C4B58858  14.347   9.494   7.353
 9615POPC   NC358859  21.390  17.541   5.553
 9615POPC   PO458860  21.356  17.542   5.853
 9615POPC   GL158861  21.387  17.502   6.153
 9615POPC   GL258862  21.479  17.383   6.153
 9615POPC   C1A58863  21.433  17.492   6.453
 9615POPC   D2A58864  21.375  17.500   6.753
 9615POPC   C3A58865  21.435  17.460   7.053
 9615POPC   C4A58866  21.343  17.517   7.353
 9615POPC   C1B58867  21.569  17.316   6.453
 9615POPC   C2B58868  21.536  17.379   6.753
 9615POPC   C3B58869  21.545  17.351   7.053
 9615POPC   C4B58870  21.532  17.363   7.353
 9616POPC   NC358871   1.247  26.797   5.553
 9616POPC   PO458872   1.204  26.771   5.853
 9616POPC   GL158873   1.228  26.865   6.153
 9616POPC   GL258874   1.258  26.658   6.153
 9616POPC   C1A58875   1.185  26.844   6.453
 9616POPC   D2A58876   1.250  26.773   6.753
 9616POPC   C3A58877   1.261  26.831   7.053
 9616POPC   C4A58878   1.207  26.800   7.353
 9616POPC   C1B58879   1.246  26.540   6.453
 9616POPC   C2B58880   1.257  26.581   6.753
 9616POPC   C3B58881   1.341  26.594   7.053
 9616POPC   C4B58882   1.302  26.533   7.353
 9617POPC   NC358883  44.683  29.927   5.553
 9617POPC   PO458884  44.662  29.885   5.853
 9617POPC   GL158885  44.684  29.954   6.153
 9617POPC   GL258886  44.530  29.809   6.153
 9617POPC   C1A58887  44.651  29.911   6.453
 9617POPC   D2A58888  44.682  29.938   6.753
 9617POPC   C3A58889  44.687  29.877   7.053
 9617POPC   C4A58890  44.701  29.939   7.353
 9617POPC   C1B58891  44.527  29.755   6.453
 9617POPC   C2B58892  44.509  29.775   6.753
 9617POPC   C3B58893  44.483  29.731   7.053
 9617POPC   C4B58894  44.525  29.768   7.353
 9618POPC   NC358895   8.983   2.815   5.553
 9618POPC   PO458896   8.923   2.752   5.853
 9618POPC   GL158897   8.929   2.750   6.153
 9618POPC   GL258898   8.866   2.794   6.153
 9618POPC   C1A58899   8.932   2.775   6.453
 9618POPC   D2A58900   9.011   2.789   6.753
 9618POPC   C3A58901   8.967   2.733   7.053
 9618POPC   C4A58902   8.948   2.745   7.353
 9618POPC   C1B58903   8.691   2.763   6.453
 9618POPC   C2B58904   8.675   2.828   6.753
 9618POPC   C3B58905   8.771   2.766   7.053
 9618POPC   C4B58906   8.773   2.816   7.353
 9619POPC   NC358907  17.486  28.361   5.553
 9619POPC   PO458908  17.459  28.350   5.853
 9619POPC   GL158909  17.525  28.346   6.153
 9619POPC   GL258910  17.536  28.273   6.153
 9619POPC   C1A58911  17.484  28.418   6.453
 9619POPC   D2A58912  17.548  28.374   6.753
 9619POPC   C3A58913  17.544  28.356   7.053
 9619POPC   C4A58914  17.475  28.373   7.353
 9619POPC   C1B58915  17.598  28.109   6.453
 9619POPC   C2B58916  17.560  28.149   6.753
 9619POPC   C3B58917  17.648  28.163   7.053
 9619POPC   C4B58918  17.584  28.145   7.353
 9620POPC   NC358919  41.570   1.222   5.553
 9620POPC   PO458920  41.608   1.241   5.853
 9620POPC   GL158921  41.563   1.229   6.153
 9620POPC   GL258922  41.430   1.298   6.153
 9620POPC   C1A58923  41.550   1.243   6.453
 9620POPC   D2A58924  41.541   1.252   6.753
 9620POPC   C3A58925  41.588   1.209   7.053
 9620POPC   C4A58926  41.519   1.205   7.353
 9620POPC   C1B58927  41.366   1.371   6.453
 9620POPC   C2B58928  41.363   1.401   6.753
 9620POPC   C3B58929  41.355   1.363   7.053
 9620POPC   C4B58930  41.421   1.335   7.353
 9621POPC   NC358931  30.726  44.711   5.553
 9621POPC   PO458932  30.714  44.692   5.853
 9621POPC   GL158933  30.746  44.666   6.153
 9621POPC   GL258934  30.754  44.556   6.153
 9621POPC   C1A58935  30.696  44.651   6.453
 9621POPC   D2A58936  30.647  44.621   6.753
 9621POPC   C3A58937  30.707  44.672   7.053
 9621POPC   C4A58938  30.679  44.694   7.353
 9621POPC   C1B58939  30.792  44.430   6.453
 9621POPC   C2B58940  30.767  44.444   6.753
 9621POPC   C3B58941  30.739  44.422   7.053
 9621POPC   C4B58942  30.788  44.412   7.353
 9622POPC   NC358943   2.728   1.949   5.553
 9622POPC   PO458944   2.798   2.006   5.853
 9622POPC   GL158945   2.728   1.982   6.153
 9622POPC   GL258946   2.639   2.014   6.153
 9622POPC   C1A58947   2.782   1.993   6.453
 9622POPC   D2A58948   2.742   1.997   6.753
 9622POPC   C3A58949   2.786   2.030   7.053
 9622POPC   C4A58950   2.724   2.024   7.353
 9622POPC   C1B58951   2.567   2.095   6.453
 9622POPC   C2B58952   2.500   2.074   6.753
 9622POPC   C3B58953   2.485   2.134   7.053
 9622POPC   C4B58954   2.581   2.052   7.353
 9623POPC   NC358955  22.933  33.832   5.553
 9623POPC   PO458956  22.943  33.752   5.853
 9623POPC   GL158957  22.919  33.804   6.153
 9623POPC   GL258958  22.833  33.761   6.153
 9623POPC   C1A58959  22.954  33.757   6.453
 9623POPC   D2A58960  22.957  33.803   6.753
 9623POPC   C3A58961  22.896  33.838   7.053
 9623POPC   C4A58962  22.900  33.754   7.353
 9623POPC   C1B58963  22.713  33.686   6.453
 9623POPC   C2B58964  22.723  33.668   6.753
 9623POPC   C3B58965  22.768  33.691   7.053
 9623POPC   C4B58966  22.764  33.627   7.353
 9624POPC   NC358967   5.131   3.575   5.553
 9624POPC   PO458968   5.112   3.554   5.853
 9624POPC   GL158969   5.046   3.516   6.153
 9624POPC   GL258970   5.160   3.682   6.153
 9624POPC   C1A58971   5.121   3.550   6.453
 9624POPC   D2A58972   5.081   3.574   6.753
 9624POPC   C3A58973   5.134   3.495   7.053
 9624POPC   C4A58974   5.062   3.575   7.353
 9624POPC   C1B58975   5.201   3.717   6.453
 9624POPC   C2B58976   5.187   3.752   6.753
 9624POPC   C3B58977   5.202   3.783   7.053
 9624POPC   C4B58978   5.173   3.732   7.353
 9625POPC   NC358979  38.409   8.942   5.553
 9625POPC   PO458980  38.439   8.944   5.853
 9625POPC   GL158981  38.463   8.961   6.153
 9625POPC   GL258982  38.576   8.905   6.153
 9625POPC   C1A58983  38.454   8.940   6.453
 9625POPC   D2A58984  38.460   8.996   6.753
 9625POPC   C3A58985  38.433   9.011   7.053
 9625POPC   C4A58986  38.438   8.949   7.353
 9625POPC   C1B58987  38.614   8.738   6.453
 9625POPC   C2B58988  38.651   8.798   6.753
 9625POPC   C3B58989  38.626   8.820   7.053
 9625POPC   C4B58990  38.609   8.740   7.353
 9626POPC   NC358991  42.307  33.823   5.553
 9626POPC   PO458992  42.319  33.804   5.853
 9626POPC   GL158993  42.371  33.829   6.153
 9626POPC   GL258994  42.252  33.767   6.153
 9626POPC   C1A58995  42.335  33.842   6.453
 9626POPC   D2A58996  42.376  33.830   6.753
 9626POPC   C3A58997  42.363  33.850   7.053
 9626POPC   C4A58998  42.309  33.759   7.353
 9626POPC   C1B58999  42.113  33.856   6.453
 9626POPC   C2B59000  42.132  33.803   6.753
 9626POPC   C3B59001  42.122  33.860   7.053
 9626POPC   C4B59002  42.084  33.783   7.353
 9627POPC   NC359003   2.016  15.167   5.553
 9627POPC   PO459004   1.991  15.136   5.853
 9627POPC   GL159005   2.021  15.134   6.153
 9627POPC   GL259006   1.954  15.276   6.153
 9627POPC   C1A59007   2.038  15.148   6.453
 9627POPC   D2A59008   2.015  15.139   6.753
 9627POPC   C3A59009   2.017  15.207   7.053
 9627POPC   C4A59010   2.033  15.189   7.353
 9627POPC   C1B59011   1.983  15.455   6.453
 9627POPC   C2B59012   1.972  15.410   6.753
 9627POPC   C3B59013   1.954  15.463   7.053
 9627POPC   C4B59014   1.955  15.393   7.353
 9628POPC   NC359015  33.059  41.537   5.553
 9628POPC   PO459016  33.072  41.604   5.853
 9628POPC   GL159017  32.981  41.537   6.153
 9628POPC   GL259018  32.976  41.610   6.153
 9628POPC   C1A59019  33.028  41.522   6.453
 9628POPC   D2A59020  32.987  41.536   6.753
 9628POPC   C3A59021  32.993  41.571   7.053
 9628POPC   C4A59022  33.013  41.588   7.353
 9628POPC   C1B59023  32.825  41.723   6.453
 9628POPC   C2B59024  32.835  41.805   6.753
 9628POPC   C3B59025  32.859  41.715   7.053
 9628POPC   C4B59026  32.915  41.709   7.353
 9629POPC   NC359027  24.512  44.658   5.553
 9629POPC   PO459028  24.468  44.619   5.853
 9629POPC   GL159029  24.525  44.629   6.153
 9629POPC   GL259030  24.375  44.641   6.153
 9629POPC   C1A59031  24.484  44.699   6.453
 9629POPC   D2A59032  24.518  44.711   6.753
 9629POPC   C3A59033  24.524  44.628   7.053
 9629POPC   C4A59034  24.520  44.644   7.353
 9629POPC   C1B59035  24.267  44.640   6.453
 9629POPC   C2B59036  24.248  44.675   6.753
 9629POPC   C3B59037  24.206  44.698   7.053
 9629POPC   C4B59038  24.274  44.654   7.353
 9630POPC   NC359039  22.913  30.697   5.553
 9630POPC   PO459040  22.956  30.659   5.853
 9630POPC   GL159041  22.945  30.655   6.153
 9630POPC   GL259042  23.008  30.804   6.153
 9630POPC   C1A59043  22.919  30.719   6.453
 9630POPC   D2A59044  22.962  30.678   6.753
 9630POPC   C3A59045  22.930  30.702   7.053
 9630POPC   C4A59046  22.900  30.700   7.353
 9630POPC   C1B59047  23.135  30.934   6.453
 9630POPC   C2B59048  23.099  30.862   6.753
 9630POPC   C3B59049  23.065  30.881   7.053
 9630POPC   C4B59050  23.128  30.911   7.353
 9631POPC   NC359051  25.236  34.591   5.553
 9631POPC   PO459052  25.289  34.544   5.853
 9631POPC   GL159053  25.276  34.576   6.153
 9631POPC   GL259054  25.354  34.568   6.153
 9631POPC   C1A59055  25.276  34.534   6.453
 9631POPC   D2A59056  25.240  34.618   6.753
 9631POPC   C3A59057  25.270  34.577   7.053
 9631POPC   C4A59058  25.255  34.594   7.353
 9631POPC   C1B59059  25.454  34.511   6.453
 9631POPC   C2B59060  25.520  34.502   6.753
 9631POPC   C3B59061  25.546  34.505   7.053
 9631POPC   C4B59062  25.515  34.531   7.353
 9632POPC   NC359063  40.761  19.043   5.553
 9632POPC   PO459064  40.797  19.061   5.853
 9632POPC   GL159065  40.742  19.082   6.153
 9632POPC   GL259066  40.666  19.005   6.153
 9632POPC   C1A59067  40.776  19.013   6.453
 9632POPC   D2A59068  40.739  19.086   6.753
 9632POPC   C3A59069  40.740  19.031   7.053
 9632POPC   C4A59070  40.824  19.037   7.353
 9632POPC   C1B59071  40.651  18.892   6.453
 9632POPC   C2B59072  40.586  18.849   6.753
 9632POPC   C3B59073  40.608  18.820   7.053
 9632POPC   C4B59074  40.663  18.901   7.353
 9633POPC   NC359075  17.490  40.755   5.553
 9633POPC   PO459076  17.554  40.794   5.853
 9633POPC   GL159077  17.536  40.815   6.153
 9633POPC   GL259078  17.472  40.938   6.153
 9633POPC   C1A59079  17.502  40.786   6.453
 9633POPC   D2A59080  17.497  40.766   6.753
 9633POPC   C3A59081  17.481  40.766   7.053
 9633POPC   C4A59082  17.554  40.735   7.353
 9633POPC   C1B59083  17.439  41.066   6.453
 9633POPC   C2B59084  17.467  41.020   6.753
 9633POPC   C3B59085  17.393  40.977   7.053
 9633POPC   C4B59086  17.453  41.013   7.353
 9634POPC   NC359087   0.472  31.445   5.553
 9634POPC   PO459088   0.435  31.484   5.853
 9634POPC   GL159089   0.466  31.424   6.153
 9634POPC   GL259090   0.325  31.525   6.153
 9634POPC   C1A59091   0.395  31.503   6.453
 9634POPC   D2A59092   0.418  31.457   6.753
 9634POPC   C3A59093   0.424  31.493   7.053
 9634POPC   C4A59094   0.410  31.463   7.353
 9634POPC   C1B59095   0.226  31.511   6.453
 9634POPC   C2B59096   0.245  31.553   6.753
 9634POPC   C3B59097   0.184  31.521   7.053
 9634POPC   C4B59098   0.169  31.522   7.353
 9635POPC   NC359099  32.276  26.805   5.553
 9635POPC   PO459100  32.216  26.837   5.853
 9635POPC   GL159101  32.269  26.839   6.153
 9635POPC   GL259102  32.324  26.933   6.153
 9635POPC   C1A59103  32.207  26.824   6.453
 9635POPC   D2A59104  32.293  26.782   6.753
 9635POPC   C3A59105  32.231  26.857   7.053
 9635POPC   C4A59106  32.252  26.798   7.353
 9635POPC   C1B59107  32.388  27.038   6.453
 9635POPC   C2B59108  32.425  27.065   6.753
 9635POPC   C3B59109  32.377  27.008   7.053
 9635POPC   C4B59110  32.416  27.023   7.353
 9636POPC   NC359111  19.845  11.332   5.553
 9636POPC   PO459112  19.866  11.308   5.853
 9636POPC   GL159113  19.798  11.261   6.153
 9636POPC   GL259114  19.774  11.212   6.153
 9636POPC   C1A59115  19.834  11.341   6.453
 9636POPC   D2A59116  19.826  11.288   6.753
 9636POPC   C3A59117  19.822  11.307   7.053
 9636POPC   C4A59118  19.842  11.267   7.353
 9636POPC   C1B59119  19.599  11.173   6.453
 9636POPC   C2B59120  19.593  11.137   6.753
 9636POPC   C3B59121  19.608  11.190   7.053
 9636POPC   C4B59122  19.640  11.149   7.353
 9637POPC   NC359123  22.178  31.446   5.553
 9637POPC   PO459124  22.210  31.423   5.853
 9637POPC   GL159125  22.118  31.437   6.153
 9637POPC   GL259126  22.212  31.348   6.153
 9637POPC   C1A59127  22.147  31.480   6.453
 9637POPC   D2A59128  22.173  31.504   6.753
 9637POPC   C3A59129  22.117  31.479   7.053
 9637POPC   C4A59130  22.129  31.522   7.353
 9637POPC   C1B59131  22.392  31.295   6.453
 9637POPC   C2B59132  22.396  31.369   6.753
 9637POPC   C3B59133  22.391  31.350   7.053
 9637POPC   C4B59134  22.311  31.290   7.353
 9638POPC   NC359135  21.414  21.415   5.553
 9638POPC   PO459136  21.347  21.342   5.853
 9638POPC   GL159137  21.421  21.351   6.153
 9638POPC   GL259138  21.468  21.301   6.153
 9638POPC   C1A59139  21.362  21.435   6.453
 9638POPC   D2A59140  21.413  21.429   6.753
 9638POPC   C3A59141  21.366  21.359   7.053
 9638POPC   C4A59142  21.406  21.414   7.353
 9638POPC   C1B59143  21.448  21.112   6.453
 9638POPC   C2B59144  21.488  21.184   6.753
 9638POPC   C3B59145  21.433  21.179   7.053
 9638POPC   C4B59146  21.451  21.117   7.353
 9639POPC   NC359147  36.149  28.411   5.553
 9639POPC   PO459148  36.088  28.346   5.853
 9639POPC   GL159149  36.089  28.384   6.153
 9639POPC   GL259150  36.183  28.488   6.153
 9639POPC   C1A59151  36.080  28.331   6.453
 9639POPC   D2A59152  36.140  28.377   6.753
 9639POPC   C3A59153  36.147  28.385   7.053
 9639POPC   C4A59154  36.134  28.361   7.353
 9639POPC   C1B59155  36.254  28.601   6.453
 9639POPC   C2B59156  36.274  28.573   6.753
 9639POPC   C3B59157  36.251  28.608   7.053
 9639POPC   C4B59158  36.221  28.536   7.353
 9640POPC   NC359159   1.215  23.760   5.553
 9640POPC   PO459160   1.230  23.746   5.853
 9640POPC   GL159161   1.194  23.683   6.153
 9640POPC   GL259162   1.176  23.639   6.153
 9640POPC   C1A59163   1.179  23.759   6.453
 9640POPC   D2A59164   1.239  23.729   6.753
 9640POPC   C3A59165   1.205  23.704   7.053
 9640POPC   C4A59166   1.218  23.725   7.353
 9640POPC   C1B59167   1.130  23.520   6.453
 9640POPC   C2B59168   1.154  23.516   6.753
 9640POPC   C3B59169   1.144  23.518   7.053
 9640POPC   C4B59170   1.109  23.461   7.353
 9641POPC   NC359171  11.307  29.899   5.553
 9641POPC   PO459172  11.284  29.876   5.853
 9641POPC   GL159173  11.277  29.960   6.153
 9641POPC   GL259174  11.190  29.966   6.153
 9641POPC   C1A59175  11.287  29.914   6.453
 9641POPC   D2A59176  11.318  29.912   6.753
 9641POPC   C3A59177  11.275  29.881   7.053
 9641POPC   C4A59178  11.267  29.920   7.353
 9641POPC   C1B59179  11.085  30.036   6.453
 9641POPC   C2B59180  11.038  30.089   6.753
 9641POPC   C3B59181  11.053  30.074   7.053
 9641POPC   C4B59182  11.131  30.013   7.353
 9642POPC   NC359183   5.127  39.212   5.553
 9642POPC   PO459184   5.044  39.204   5.853
 9642POPC   GL159185   5.092  39.184   6.153
 9642POPC   GL259186   4.962  39.091   6.153
 9642POPC   C1A59187   5.106  39.186   6.453
 9642POPC   D2A59188   5.095  39.207   6.753
 9642POPC   C3A59189   5.054  39.231   7.053
 9642POPC   C4A59190   5.062  39.231   7.353
 9642POPC   C1B59191   4.899  39.059   6.453
 9642POPC   C2B59192   4.955  39.055   6.753
 9642POPC   C3B59193   4.951  39.076   7.053
 9642POPC   C4B59194   4.899  39.005   7.353
 9643POPC   NC359195  39.997   6.604   5.553
 9643POPC   PO459196  40.016   6.658   5.853
 9643POPC   GL159197  40.030   6.674   6.153
 9643POPC   GL259198  39.981   6.565   6.153
 9643POPC   C1A59199  39.977   6.669   6.453
 9643POPC   D2A59200  39.972   6.671   6.753
 9643POPC   C3A59201  40.007   6.646   7.053
 9643POPC   C4A59202  40.034   6.692   7.353
 9643POPC   C1B59203  39.999   6.354   6.453
 9643POPC   C2B59204  40.079   6.421   6.753
 9643POPC   C3B59205  40.058   6.368   7.053
 9643POPC   C4B59206  40.050   6.375   7.353
 9644POPC   NC359207   9.737  19.084   5.553
 9644POPC   PO459208   9.708  19.088   5.853
 9644POPC   GL159209   9.763  19.026   6.153
 9644POPC   GL259210   9.687  18.917   6.153
 9644POPC   C1A59211   9.783  19.048   6.453
 9644POPC   D2A59212   9.764  19.043   6.753
 9644POPC   C3A59213   9.761  19.058   7.053
 9644POPC   C4A59214   9.785  19.102   7.353
 9644POPC   C1B59215   9.665  18.844   6.453
 9644POPC   C2B59216   9.651  18.850   6.753
 9644POPC   C3B59217   9.663  18.793   7.053
 9644POPC   C4B59218   9.678  18.837   7.353
 9645POPC   NC359219  32.979   1.211   5.553
 9645POPC   PO459220  33.068   1.232   5.853
 9645POPC   GL159221  33.053   1.175   6.153
 9645POPC   GL259222  33.067   1.063   6.153
 9645POPC   C1A59223  33.070   1.169   6.453
 9645POPC   D2A59224  33.069   1.215   6.753
 9645POPC   C3A59225  32.997   1.187   7.053
 9645POPC   C4A59226  33.070   1.260   7.353
 9645POPC   C1B59227  33.134   0.955   6.453
 9645POPC   C2B59228  33.195   0.956   6.753
 9645POPC   C3B59229  33.177   0.992   7.053
 9645POPC   C4B59230  33.208   0.975   7.353
 9646POPC   NC359231  29.911   7.397   5.553
 9646POPC   PO459232  29.953   7.450   5.853
 9646POPC   GL159233  29.906   7.464   6.153
 9646POPC   GL259234  29.916   7.254   6.153
 9646POPC   C1A59235  29.898   7.438   6.453
 9646POPC   D2A59236  29.900   7.464   6.753
 9646POPC   C3A59237  29.964   7.375   7.053
 9646POPC   C4A59238  29.879   7.433   7.353
 9646POPC   C1B59239  29.819   7.173   6.453
 9646POPC   C2B59240  29.843   7.160   6.753
 9646POPC   C3B59241  29.827   7.141   7.053
 9646POPC   C4B59242  29.806   7.144   7.353
 9647POPC   NC359243  14.412  27.629   5.553
 9647POPC   PO459244  14.401  27.631   5.853
 9647POPC   GL159245  14.429  27.634   6.153
 9647POPC   GL259246  14.508  27.650   6.153
 9647POPC   C1A59247  14.436  27.558   6.453
 9647POPC   D2A59248  14.423  27.573   6.753
 9647POPC   C3A59249  14.405  27.603   7.053
 9647POPC   C4A59250  14.392  27.602   7.353
 9647POPC   C1B59251  14.643  27.642   6.453
 9647POPC   C2B59252  14.631  27.589   6.753
 9647POPC   C3B59253  14.682  27.579   7.053
 9647POPC   C4B59254  14.693  27.615   7.353
 9648POPC   NC359255  12.836  31.462   5.553
 9648POPC   PO459256  12.853  31.436   5.853
 9648POPC   GL159257  12.898  31.464   6.153
 9648POPC   GL259258  12.804  31.568   6.153
 9648POPC   C1A59259  12.871  31.434   6.453
 9648POPC   D2A59260  12.826  31.424   6.753
 9648POPC   C3A59261  12.828  31.454   7.053
 9648POPC   C4A59262  12.876  31.433   7.353
 9648POPC   C1B59263  12.746  31.688   6.453
 9648POPC   C2B59264  12.718  31.706   6.753
 9648POPC   C3B59265  12.782  31.673   7.053
 9648POPC   C4B59266  12.741  31.681   7.353
 9649POPC   NC359267  22.186  33.815   5.553
 9649POPC   PO459268  22.165  33.825   5.853
 9649POPC   GL159269  22.150  33.815   6.153
 9649POPC   GL259270  22.165  33.889   6.153
 9649POPC   C1A59271  22.166  33.790   6.453
 9649POPC   D2A59272  22.126  33.825   6.753
 9649POPC   C3A59273  22.205  33.841   7.053
 9649POPC   C4A59274  22.163  33.782   7.353
 9649POPC   C1B59275  22.224  34.063   6.453
 9649POPC   C2B59276  22.200  34.069   6.753
 9649POPC   C3B59277  22.210  34.025   7.053
 9649POPC   C4B59278  22.143  34.075   7.353
 9650POPC   NC359279  36.152  26.823   5.553
 9650POPC   PO459280  36.115  26.847   5.853
 9650POPC   GL159281  36.174  26.772   6.153
 9650POPC   GL259282  36.217  26.712   6.153
 9650POPC   C1A59283  36.124  26.828   6.453
 9650POPC   D2A59284  36.140  26.856   6.753
 9650POPC   C3A59285  36.154  26.797   7.053
 9650POPC   C4A59286  36.083  26.781   7.353
 9650POPC   C1B59287  36.332  26.641   6.453
 9650POPC   C2B59288  36.316  26.723   6.753
 9650POPC   C3B59289  36.372  26.674   7.053
 9650POPC   C4B59290  36.387  26.684   7.353
 9651POPC   NC359291  30.665  29.911   5.553
 9651POPC   PO459292  30.697  29.929   5.853
 9651POPC   GL159293  30.680  29.914   6.153
 9651POPC   GL259294  30.645  29.988   6.153
 9651POPC   C1A59295  30.660  29.931   6.453
 9651POPC   D2A59296  30.707  29.921   6.753
 9651POPC   C3A59297  30.730  29.947   7.053
 9651POPC   C4A59298  30.692  29.931   7.353
 9651POPC   C1B59299  30.567  30.140   6.453
 9651POPC   C2B59300  30.588  30.159   6.753
 9651POPC   C3B59301  30.602  30.161   7.053
 9651POPC   C4B59302  30.627  30.199   7.353
 9652POPC   NC359303   6.649  33.757   5.553
 9652POPC   PO459304   6.667  33.797   5.853
 9652POPC   GL159305   6.669  33.831   6.153
 9652POPC   GL259306   6.575  33.961   6.153
 9652POPC   C1A59307   6.663  33.754   6.453
 9652POPC   D2A59308   6.653  33.808   6.753
 9652POPC   C3A59309   6.605  33.752   7.053
 9652POPC   C4A59310   6.609  33.847   7.353
 9652POPC   C1B59311   6.532  33.994   6.453
 9652POPC   C2B59312   6.587  34.083   6.753
 9652POPC   C3B59313   6.585  34.031   7.053
 9652POPC   C4B59314   6.616  34.007   7.353
 9653POPC   NC359315  30.682  12.061   5.553
 9653POPC   PO459316  30.746  12.052   5.853
 9653POPC   GL159317  30.678  12.074   6.153
 9653POPC   GL259318  30.570  12.037   6.153
 9653POPC   C1A59319  30.659  12.105   6.453
 9653POPC   D2A59320  30.740  12.105   6.753
 9653POPC   C3A59321  30.715  12.070   7.053
 9653POPC   C4A59322  30.725  12.063   7.353
 9653POPC   C1B59323  30.497  12.015   6.453
 9653POPC   C2B59324  30.427  11.936   6.753
 9653POPC   C3B59325  30.504  11.946   7.053
 9653POPC   C4B59326  30.457  11.986   7.353
 9654POPC   NC359327  19.009  33.838   5.553
 9654POPC   PO459328  19.016  33.816   5.853
 9654POPC   GL159329  19.088  33.776   6.153
 9654POPC   GL259330  19.004  33.642   6.153
 9654POPC   C1A59331  19.095  33.808   6.453
 9654POPC   D2A59332  19.067  33.845   6.753
 9654POPC   C3A59333  19.009  33.839   7.053
 9654POPC   C4A59334  19.040  33.814   7.353
 9654POPC   C1B59335  18.952  33.551   6.453
 9654POPC   C2B59336  18.986  33.571   6.753
 9654POPC   C3B59337  19.004  33.522   7.053
 9654POPC   C4B59338  18.951  33.546   7.353
 9655POPC   NC359339   8.925  32.995   5.553
 9655POPC   PO459340   9.005  33.063   5.853
 9655POPC   GL159341   8.924  32.983   6.153
 9655POPC   GL259342   9.079  32.940   6.153
 9655POPC   C1A59343   8.949  32.979   6.453
 9655POPC   D2A59344   8.954  33.016   6.753
 9655POPC   C3A59345   8.931  33.003   7.053
 9655POPC   C4A59346   8.979  33.037   7.353
 9655POPC   C1B59347   9.207  32.904   6.453
 9655POPC   C2B59348   9.187  32.862   6.753
 9655POPC   C3B59349   9.165  32.904   7.053
 9655POPC   C4B59350   9.174  32.889   7.353
 9656POPC   NC359351  19.092  25.277   5.553
 9656POPC   PO459352  19.054  25.258   5.853
 9656POPC   GL159353  19.039  25.312   6.153
 9656POPC   GL259354  18.940  25.337   6.153
 9656POPC   C1A59355  19.033  25.227   6.453
 9656POPC   D2A59356  19.029  25.296   6.753
 9656POPC   C3A59357  19.093  25.302   7.053
 9656POPC   C4A59358  19.084  25.220   7.353
 9656POPC   C1B59359  18.824  25.440   6.453
 9656POPC   C2B59360  18.830  25.410   6.753
 9656POPC   C3B59361  18.820  25.351   7.053
 9656POPC   C4B59362  18.861  25.415   7.353
 9657POPC   NC359363  12.052  22.194   5.553
 9657POPC   PO459364  12.058  22.177   5.853
 9657POPC   GL159365  12.094  22.131   6.153
 9657POPC   GL259366  12.231  22.151   6.153
 9657POPC   C1A59367  12.039  22.137   6.453
 9657POPC   D2A59368  12.097  22.167   6.753
 9657POPC   C3A59369  12.089  22.166   7.053
 9657POPC   C4A59370  12.125  22.173   7.353
 9657POPC   C1B59371  12.287  22.073   6.453
 9657POPC   C2B59372  12.293  22.108   6.753
 9657POPC   C3B59373  12.330  22.112   7.053
 9657POPC   C4B59374  12.321  22.056   7.353
 9658POPC   NC359375  25.310   7.373   5.553
 9658POPC   PO459376  25.297   7.371   5.853
 9658POPC   GL159377  25.268   7.455   6.153
 9658POPC   GL259378  25.183   7.455   6.153
 9658POPC   C1A59379  25.261   7.377   6.453
 9658POPC   D2A59380  25.278   7.458   6.753
 9658POPC   C3A59381  25.225   7.375   7.053
 9658POPC   C4A59382  25.264   7.419   7.353
 9658POPC   C1B59383  25.055   7.438   6.453
 9658POPC   C2B59384  25.002   7.455   6.753
 9658POPC   C3B59385  24.972   7.462   7.053
 9658POPC   C4B59386  25.057   7.462   7.353
 9659POPC   NC359387   3.524  39.261   5.553
 9659POPC   PO459388   3.547  39.196   5.853
 9659POPC   GL159389   3.538  39.244   6.153
 9659POPC   GL259390   3.603  39.380   6.153
 9659POPC   C1A59391   3.572  39.233   6.453
 9659POPC   D2A59392   3.520  39.264   6.753
 9659POPC   C3A59393   3.541  39.212   7.053
 9659POPC   C4A59394   3.557  39.250   7.353
 9659POPC   C1B59395   3.684  39.400   6.453
 9659POPC   C2B59396   3.664  39.410   6.753
 9659POPC   C3B59397   3.629  39.481   7.053
 9659POPC   C4B59398   3.714  39.444   7.353
 9660POPC   NC359399   0.426  20.615   5.553
 9660POPC   PO459400   0.423  20.647   5.853
 9660POPC   GL159401   0.444  20.652   6.153
 9660POPC   GL259402   0.547  20.492   6.153
 9660POPC   C1A59403   0.393  20.570   6.453
 9660POPC   D2A59404   0.444  20.586   6.753
 9660POPC   C3A59405   0.469  20.644   7.053
 9660POPC   C4A59406   0.389  20.600   7.353
 9660POPC   C1B59407   0.643  20.450   6.453
 9660POPC   C2B59408   0.665  20.499   6.753
 9660POPC   C3B59409   0.642  20.459   7.053
 9660POPC   C4B59410   0.663  20.505   7.353
 9661POPC   NC359411  29.103  20.567   5.553
 9661POPC   PO459412  29.184  20.621   5.853
 9661POPC   GL159413  29.139  20.621   6.153
 9661POPC   GL259414  29.257  20.623   6.153
 9661POPC   C1A59415  29.164  20.647   6.453
 9661POPC   D2A59416  29.173  20.582   6.753
 9661POPC   C3A59417  29.170  20.639   7.053
 9661POPC   C4A59418  29.147  20.629   7.353
 9661POPC   C1B59419  29.391  20.754   6.453
 9661POPC   C2B59420  29.358  20.716   6.753
 9661POPC   C3B59421  29.355  20.742   7.053
 9661POPC   C4B59422  29.373  20.702   7.353
 9662POPC   NC359423  44.672  43.108   5.553
 9662POPC   PO459424  44.689  43.151   5.853
 9662POPC   GL159425  44.667  43.088   6.153
 9662POPC   GL259426  44.740  42.945   6.153
 9662POPC   C1A59427  44.649  43.092   6.453
 9662POPC   D2A59428  44.617  43.157   6.753
 9662POPC   C3A59429  44.692  43.152   7.053
 9662POPC   C4A59430  44.613  43.149   7.353
 9662POPC   C1B59431  44.735  42.878   6.453
 9662POPC   C2B59432  44.730  42.892   6.753
 9662POPC   C3B59433  44.733  42.895   7.053
 9662POPC   C4B59434  44.727  42.864   7.353
 9663POPC   NC359435  30.659  11.311   5.553
 9663POPC   PO459436  30.668  11.251   5.853
 9663POPC   GL159437  30.669  11.291   6.153
 9663POPC   GL259438  30.854  11.300   6.153
 9663POPC   C1A59439  30.660  11.315   6.453
 9663POPC   D2A59440  30.667  11.255   6.753
 9663POPC   C3A59441  30.738  11.276   7.053
 9663POPC   C4A59442  30.719  11.273   7.353
 9663POPC   C1B59443  30.966  11.295   6.453
 9663POPC   C2B59444  30.977  11.343   6.753
 9663POPC   C3B59445  30.991  11.278   7.053
 9663POPC   C4B59446  30.923  11.268   7.353
 9664POPC   NC359447  31.520  44.710   5.553
 9664POPC   PO459448  31.440  44.695   5.853
 9664POPC   GL159449  31.503  44.673   6.153
 9664POPC   GL259450  31.377  44.724   6.153
 9664POPC   C1A59451  31.522  44.708   6.453
 9664POPC   D2A59452  31.491  44.615   6.753
 9664POPC   C3A59453  31.436  44.694   7.053
 9664POPC   C4A59454  31.471  44.665   7.353
 9664POPC   C1B59455  31.274  44.760   6.453
 9664POPC   C2B59456  31.274  44.793   6.753
 9664POPC   C3B59457  31.275  44.796   7.053
 9664POPC   C4B59458  31.204  44.807   7.353
 9665POPC   NC359459  22.939  31.470   5.553
 9665POPC   PO459460  22.981  31.461   5.853
 9665POPC   GL159461  22.931  31.437   6.153
 9665POPC   GL259462  22.928  31.554   6.153
 9665POPC   C1A59463  22.906  31.468   6.453
 9665POPC   D2A59464  22.939  31.423   6.753
 9665POPC   C3A59465  22.987  31.471   7.053
 9665POPC   C4A59466  22.905  31.490   7.353
 9665POPC   C1B59467  22.968  31.669   6.453
 9665POPC   C2B59468  23.009  31.672   6.753
 9665POPC   C3B59469  23.003  31.684   7.053
 9665POPC   C4B59470  23.055  31.729   7.353
 9666POPC   NC359471  18.329  22.140   5.553
 9666POPC   PO459472  18.252  22.162   5.853
 9666POPC   GL159473  18.317  22.205   6.153
 9666POPC   GL259474  18.109  22.123   6.153
 9666POPC   C1A59475  18.269  22.211   6.453
 9666POPC   D2A59476  18.300  22.169   6.753
 9666POPC   C3A59477  18.308  22.181   7.053
 9666POPC   C4A59478  18.278  22.124   7.353
 9666POPC   C1B59479  18.054  22.115   6.453
 9666POPC   C2B59480  18.044  22.171   6.753
 9666POPC   C3B59481  18.009  22.183   7.053
 9666POPC   C4B59482  18.069  22.112   7.353
 9667POPC   NC359483   8.973  22.183   5.553
 9667POPC   PO459484   9.010  22.203   5.853
 9667POPC   GL159485   9.009  22.166   6.153
 9667POPC   GL259486   9.052  22.084   6.153
 9667POPC   C1A59487   8.960  22.197   6.453
 9667POPC   D2A59488   8.948  22.156   6.753
 9667POPC   C3A59489   8.963  22.171   7.053
 9667POPC   C4A59490   8.950  22.206   7.353
 9667POPC   C1B59491   9.114  21.935   6.453
 9667POPC   C2B59492   9.136  21.926   6.753
 9667POPC   C3B59493   9.091  21.926   7.053
 9667POPC   C4B59494   9.098  21.959   7.353
 9668POPC   NC359495   7.431  42.308   5.553
 9668POPC   PO459496   7.391  42.377   5.853
 9668POPC   GL159497   7.378  42.319   6.153
 9668POPC   GL259498   7.485  42.200   6.153
 9668POPC   C1A59499   7.459  42.360   6.453
 9668POPC   D2A59500   7.377  42.308   6.753
 9668POPC   C3A59501   7.459  42.378   7.053
 9668POPC   C4A59502   7.401  42.298   7.353
 9668POPC   C1B59503   7.583  42.169   6.453
 9668POPC   C2B59504   7.546  42.169   6.753
 9668POPC   C3B59505   7.551  42.205   7.053
 9668POPC   C4B59506   7.637  42.166   7.353
 9669POPC   NC359507   2.735  30.714   5.553
 9669POPC   PO459508   2.717  30.649   5.853
 9669POPC   GL159509   2.812  30.718   6.153
 9669POPC   GL259510   2.797  30.557   6.153
 9669POPC   C1A59511   2.748  30.718   6.453
 9669POPC   D2A59512   2.766  30.682   6.753
 9669POPC   C3A59513   2.813  30.676   7.053
 9669POPC   C4A59514   2.740  30.698   7.353
 9669POPC   C1B59515   2.731  30.410   6.453
 9669POPC   C2B59516   2.716  30.462   6.753
 9669POPC   C3B59517   2.782  30.416   7.053
 9669POPC   C4B59518   2.790  30.405   7.353
 9670POPC   NC359519  39.250  22.118   5.553
 9670POPC   PO459520  39.243  22.197   5.853
 9670POPC   GL159521  39.249  22.198   6.153
 9670POPC   GL259522  39.354  22.225   6.153
 9670POPC   C1A59523  39.210  22.164   6.453
 9670POPC   D2A59524  39.277  22.113   6.753
 9670POPC   C3A59525  39.253  22.195   7.053
 9670POPC   C4A59526  39.240  22.192   7.353
 9670POPC   C1B59527  39.391  22.404   6.453
 9670POPC   C2B59528  39.345  22.404   6.753
 9670POPC   C3B59529  39.329  22.337   7.053
 9670POPC   C4B59530  39.350  22.356   7.353
 9671POPC   NC359531  33.803  16.720   5.553
 9671POPC   PO459532  33.788  16.765   5.853
 9671POPC   GL159533  33.789  16.730   6.153
 9671POPC   GL259534  33.940  16.632   6.153
 9671POPC   C1A59535  33.827  16.779   6.453
 9671POPC   D2A59536  33.836  16.681   6.753
 9671POPC   C3A59537  33.791  16.726   7.053
 9671POPC   C4A59538  33.820  16.741   7.353
 9671POPC   C1B59539  34.003  16.634   6.453
 9671POPC   C2B59540  34.023  16.607   6.753
 9671POPC   C3B59541  34.008  16.578   7.053
 9671POPC   C4B59542  34.015  16.594   7.353
 9672POPC   NC359543  11.257  43.152   5.553
 9672POPC   PO459544  11.262  43.083   5.853
 9672POPC   GL159545  11.288  43.149   6.153
 9672POPC   GL259546  11.294  42.971   6.153
 9672POPC   C1A59547  11.259  43.131   6.453
 9672POPC   D2A59548  11.347  43.159   6.753
 9672POPC   C3A59549  11.309  43.145   7.053
 9672POPC   C4A59550  11.335  43.117   7.353
 9672POPC   C1B59551  11.341  42.830   6.453
 9672POPC   C2B59552  11.301  42.817   6.753
 9672POPC   C3B59553  11.316  42.878   7.053
 9672POPC   C4B59554  11.289  42.869   7.353
 9673POPC   NC359555  39.280  35.326   5.553
 9673POPC   PO459556  39.280  35.368   5.853
 9673POPC   GL159557  39.280  35.392   6.153
 9673POPC   GL259558  39.126  35.360   6.153
 9673POPC   C1A59559  39.261  35.367   6.453
 9673POPC   D2A59560  39.221  35.382   6.753
 9673POPC   C3A59561  39.206  35.338   7.053
 9673POPC   C4A59562  39.252  35.401   7.353
 9673POPC   C1B59563  38.971  35.413   6.453
 9673POPC   C2B59564  39.008  35.377   6.753
 9673POPC   C3B59565  38.982  35.444   7.053
 9673POPC   C4B59566  38.979  35.441   7.353
 9674POPC   NC359567  37.635  22.893   5.553
 9674POPC   PO459568  37.729  22.900   5.853
 9674POPC   GL159569  37.639  22.951   6.153
 9674POPC   GL259570  37.639  22.804   6.153
 9674POPC   C1A59571  37.631  22.911   6.453
 9674POPC   D2A59572  37.729  22.977   6.753
 9674POPC   C3A59573  37.697  22.894   7.053
 9674POPC   C4A59574  37.712  22.910   7.353
 9674POPC   C1B59575  37.545  22.785   6.453
 9674POPC   C2B59576  37.551  22.772   6.753
 9674POPC   C3B59577  37.499  22.769   7.053
 9674POPC   C4B59578  37.519  22.790   7.353
 9675POPC   NC359579  30.652  36.929   5.553
 9675POPC   PO459580  30.689  36.896   5.853
 9675POPC   GL159581  30.662  36.892   6.153
 9675POPC   GL259582  30.785  36.842   6.153
 9675POPC   C1A59583  30.671  36.946   6.453
 9675POPC   D2A59584  30.648  36.927   6.753
 9675POPC   C3A59585  30.668  36.879   7.053
 9675POPC   C4A59586  30.657  36.921   7.353
 9675POPC   C1B59587  30.878  36.775   6.453
 9675POPC   C2B59588  30.874  36.700   6.753
 9675POPC   C3B59589  30.855  36.780   7.053
 9675POPC   C4B59590  30.889  36.773   7.353
 9676POPC   NC359591  39.963  17.509   5.553
 9676POPC   PO459592  40.016  17.509   5.853
 9676POPC   GL159593  40.052  17.532   6.153
 9676POPC   GL259594  39.922  17.420   6.153
 9676POPC   C1A59595  39.976  17.463   6.453
 9676POPC   D2A59596  40.002  17.537   6.753
 9676POPC   C3A59597  40.017  17.555   7.053
 9676POPC   C4A59598  40.013  17.460   7.353
 9676POPC   C1B59599  39.819  17.362   6.453
 9676POPC   C2B59600  39.784  17.395   6.753
 9676POPC   C3B59601  39.751  17.430   7.053
 9676POPC   C4B59602  39.796  17.397   7.353
 9677POPC   NC359603  34.541  29.946   5.553
 9677POPC   PO459604  34.619  29.889   5.853
 9677POPC   GL159605  34.550  29.893   6.153
 9677POPC   GL259606  34.653  29.996   6.153
 9677POPC   C1A59607  34.554  29.943   6.453
 9677POPC   D2A59608  34.605  29.930   6.753
 9677POPC   C3A59609  34.593  29.929   7.053
 9677POPC   C4A59610  34.542  29.937   7.353
 9677POPC   C1B59611  34.749  30.054   6.453
 9677POPC   C2B59612  34.815  30.011   6.753
 9677POPC   C3B59613  34.777  30.056   7.053
 9677POPC   C4B59614  34.790  30.015   7.353
 9678POPC   NC359615  26.074  10.551   5.553
 9678POPC   PO459616  26.043  10.507   5.853
 9678POPC   GL159617  26.031  10.477   6.153
 9678POPC   GL259618  26.154  10.552   6.153
 9678POPC   C1A59619  26.060  10.550   6.453
 9678POPC   D2A59620  26.029  10.523   6.753
 9678POPC   C3A59621  26.087  10.522   7.053
 9678POPC   C4A59622  26.021  10.498   7.353
 9678POPC   C1B59623  26.306  10.457   6.453
 9678POPC   C2B59624  26.310  10.499   6.753
 9678POPC   C3B59625  26.279  10.447   7.053
 9678POPC   C4B59626  26.325  10.532   7.353
 9679POPC   NC359627  40.002   0.460   5.553
 9679POPC   PO459628  39.963   0.416   5.853
 9679POPC   GL159629  40.029   0.418   6.153
 9679POPC   GL259630  40.028   0.526   6.153
 9679POPC   C1A59631  39.977   0.479   6.453
 9679POPC   D2A59632  39.983   0.419   6.753
 9679POPC   C3A59633  40.033   0.413   7.053
 9679POPC   C4A59634  39.969   0.391   7.353
 9679POPC   C1B59635  40.097   0.683   6.453
 9679POPC   C2B59636  40.138   0.625   6.753
 9679POPC   C3B59637  40.123   0.681   7.053
 9679POPC   C4B59638  40.089   0.681   7.353
 9680POPC   NC359639   3.538  36.127   5.553
 9680POPC   PO459640   3.539  36.167   5.853
 9680POPC   GL159641   3.578  36.093   6.153
 9680POPC   GL259642   3.524  36.223   6.153
 9680POPC   C1A59643   3.535  36.112   6.453
 9680POPC   D2A59644   3.569  36.125   6.753
 9680POPC   C3A59645   3.533  36.100   7.053
 9680POPC   C4A59646   3.545  36.139   7.353
 9680POPC   C1B59647   3.449  36.384   6.453
 9680POPC   C2B59648   3.410  36.377   6.753
 9680POPC   C3B59649   3.423  36.340   7.053
 9680POPC   C4B59650   3.460  36.397   7.353
 9681POPC   NC359651   9.744  39.203   5.553
 9681POPC   PO459652   9.712  39.251   5.853
 9681POPC   GL159653   9.786  39.255   6.153
 9681POPC   GL259654   9.605  39.301   6.153
 9681POPC   C1A59655   9.766  39.193   6.453
 9681POPC   D2A59656   9.793  39.251   6.753
 9681POPC   C3A59657   9.737  39.261   7.053
 9681POPC   C4A59658   9.774  39.183   7.353
 9681POPC   C1B59659   9.545  39.320   6.453
 9681POPC   C2B59660   9.535  39.296   6.753
 9681POPC   C3B59661   9.512  39.246   7.053
 9681POPC   C4B59662   9.502  39.310   7.353
 9682POPC   NC359663   5.096  15.936   5.553
 9682POPC   PO459664   5.112  15.986   5.853
 9682POPC   GL159665   5.101  15.943   6.153
 9682POPC   GL259666   5.096  15.820   6.153
 9682POPC   C1A59667   5.070  15.964   6.453
 9682POPC   D2A59668   5.072  15.929   6.753
 9682POPC   C3A59669   5.069  15.911   7.053
 9682POPC   C4A59670   5.058  15.908   7.353
 9682POPC   C1B59671   5.087  15.697   6.453
 9682POPC   C2B59672   5.054  15.658   6.753
 9682POPC   C3B59673   5.051  15.703   7.053
 9682POPC   C4B59674   5.112  15.696   7.353
 9683POPC   NC359675  29.191   1.172   5.553
 9683POPC   PO459676  29.138   1.182   5.853
 9683POPC   GL159677  29.123   1.172   6.153
 9683POPC   GL259678  29.168   1.045   6.153
 9683POPC   C1A59679  29.123   1.165   6.453
 9683POPC   D2A59680  29.126   1.250   6.753
 9683POPC   C3A59681  29.177   1.212   7.053
 9683POPC   C4A59682  29.179   1.178   7.353
 9683POPC   C1B59683  29.114   0.925   6.453
 9683POPC   C2B59684  29.156   1.003   6.753
 9683POPC   C3B59685  29.139   0.977   7.053
 9683POPC   C4B59686  29.190   0.949   7.353
 9684POPC   NC359687  21.400  40.012   5.553
 9684POPC   PO459688  21.393  39.975   5.853
 9684POPC   GL159689  21.429  40.018   6.153
 9684POPC   GL259690  21.302  40.106   6.153
 9684POPC   C1A59691  21.362  39.993   6.453
 9684POPC   D2A59692  21.343  39.990   6.753
 9684POPC   C3A59693  21.375  40.039   7.053
 9684POPC   C4A59694  21.419  39.978   7.353
 9684POPC   C1B59695  21.146  40.204   6.453
 9684POPC   C2B59696  21.153  40.197   6.753
 9684POPC   C3B59697  21.154  40.199   7.053
 9684POPC   C4B59698  21.159  40.150   7.353
 9685POPC   NC359699  10.490   4.319   5.553
 9685POPC   PO459700  10.510   4.277   5.853
 9685POPC   GL159701  10.558   4.356   6.153
 9685POPC   GL259702  10.611   4.333   6.153
 9685POPC   C1A59703  10.484   4.269   6.453
 9685POPC   D2A59704  10.505   4.360   6.753
 9685POPC   C3A59705  10.499   4.294   7.053
 9685POPC   C4A59706  10.552   4.298   7.353
 9685POPC   C1B59707  10.819   4.339   6.453
 9685POPC   C2B59708  10.774   4.248   6.753
 9685POPC   C3B59709  10.801   4.326   7.053
 9685POPC   C4B59710  10.779   4.318   7.353
 9686POPC   NC359711  38.433  26.821   5.553
 9686POPC   PO459712  38.486  26.802   5.853
 9686POPC   GL159713  38.480  26.846   6.153
 9686POPC   GL259714  38.575  26.724   6.153
 9686POPC   C1A59715  38.457  26.823   6.453
 9686POPC   D2A59716  38.459  26.820   6.753
 9686POPC   C3A59717  38.477  26.827   7.053
 9686POPC   C4A59718  38.441  26.848   7.353
 9686POPC   C1B59719  38.634  26.698   6.453
 9686POPC   C2B59720  38.649  26.702   6.753
 9686POPC   C3B59721  38.647  26.701   7.053
 9686POPC   C4B59722  38.626  26.733   7.353
 9687POPC   NC359723  41.544  17.541   5.553
 9687POPC   PO459724  41.546  17.531   5.853
 9687POPC   GL159725  41.592  17.491   6.153
 9687POPC   GL259726  41.639  17.548   6.153
 9687POPC   C1A59727  41.553  17.498   6.453
 9687POPC   D2A59728  41.563  17.485   6.753
 9687POPC   C3A59729  41.550  17.482   7.053
 9687POPC   C4A59730  41.557  17.477   7.353
 9687POPC   C1B59731  41.764  17.608   6.453
 9687POPC   C2B59732  41.746  17.627   6.753
 9687POPC   C3B59733  41.733  17.623   7.053
 9687POPC   C4B59734  41.787  17.663   7.353
 9688POPC   NC359735  16.696  18.316   5.553
 9688POPC   PO459736  16.760  18.321   5.853
 9688POPC   GL159737  16.773  18.250   6.153
 9688POPC   GL259738  16.689  18.322   6.153
 9688POPC   C1A59739  16.715  18.281   6.453
 9688POPC   D2A59740  16.742  18.306   6.753
 9688POPC   C3A59741  16.768  18.273   7.053
 9688POPC   C4A59742  16.769  18.246   7.353
 9688POPC   C1B59743  16.524  18.472   6.453
 9688POPC   C2B59744  16.515  18.488   6.753
 9688POPC   C3B59745  16.560  18.447   7.053
 9688POPC   C4B59746  16.550  18.411   7.353
 9689POPC   NC359747  37.637  44.636   5.553
 9689POPC   PO459748  37.655  44.654   5.853
 9689POPC   GL159749  37.634  44.698   6.153
 9689POPC   GL259750  37.664  44.518   6.153
 9689POPC   C1A59751  37.711  44.661   6.453
 9689POPC   D2A59752  37.703  44.694   6.753
 9689POPC   C3A59753  37.714  44.703   7.053
 9689POPC   C4A59754  37.679  44.680   7.353
 9689POPC   C1B59755  37.704  44.400   6.453
 9689POPC   C2B59756  37.666  44.392   6.753
 9689POPC   C3B59757  37.657  44.419   7.053
 9689POPC   C4B59758  37.658  44.411   7.353
 9690POPC   NC359759  11.302  32.231   5.553
 9690POPC   PO459760  11.301  32.204   5.853
 9690POPC   GL159761  11.288  32.218   6.153
 9690POPC   GL259762  11.344  32.090   6.153
 9690POPC   C1A59763  11.281  32.261   6.453
 9690POPC   D2A59764  11.305  32.229   6.753
 9690POPC   C3A59765  11.323  32.263   7.053
 9690POPC   C4A59766  11.314  32.281   7.353
 9690POPC   C1B59767  11.390  32.013   6.453
 9690POPC   C2B59768  11.416  32.019   6.753
 9690POPC   C3B59769  11.356  31.990   7.053
 9690POPC   C4B59770  11.345  31.987   7.353
 9691POPC   NC359771   2.759  19.849   5.553
 9691POPC   PO459772   2.739  19.880   5.853
 9691POPC   GL159773   2.810  19.808   6.153
 9691POPC   GL259774   2.669  19.939   6.153
 9691POPC   C1A59775   2.757  19.854   6.453
 9691POPC   D2A59776   2.744  19.844   6.753
 9691POPC   C3A59777   2.789  19.819   7.053
 9691POPC   C4A59778   2.815  19.806   7.353
 9691POPC   C1B59779   2.615  20.054   6.453
 9691POPC   C2B59780   2.566  19.991   6.753
 9691POPC   C3B59781   2.614  20.019   7.053
 9691POPC   C4B59782   2.620  20.065   7.353
 9692POPC   NC359783   9.718  15.953   5.553
 9692POPC   PO459784   9.773  15.980   5.853
 9692POPC   GL159785   9.746  15.919   6.153
 9692POPC   GL259786   9.627  15.979   6.153
 9692POPC   C1A59787   9.729  15.970   6.453
 9692POPC   D2A59788   9.738  15.960   6.753
 9692POPC   C3A59789   9.715  15.924   7.053
 9692POPC   C4A59790   9.745  15.939   7.353
 9692POPC   C1B59791   9.517  16.082   6.453
 9692POPC   C2B59792   9.497  16.084   6.753
 9692POPC   C3B59793   9.575  16.131   7.053
 9692POPC   C4B59794   9.591  16.140   7.353
 9693POPC   NC359795   0.437   1.262   5.553
 9693POPC   PO459796   0.460   1.192   5.853
 9693POPC   GL159797   0.453   1.256   6.153
 9693POPC   GL259798   0.327   1.337   6.153
 9693POPC   C1A59799   0.421   1.198   6.453
 9693POPC   D2A59800   0.454   1.187   6.753
 9693POPC   C3A59801   0.411   1.237   7.053
 9693POPC   C4A59802   0.401   1.263   7.353
 9693POPC   C1B59803   0.232   1.359   6.453
 9693POPC   C2B59804   0.312   1.447   6.753
 9693POPC   C3B59805   0.320   1.452   7.053
 9693POPC   C4B59806   0.304   1.379   7.353
 9694POPC   NC359807  38.426  15.131   5.553
 9694POPC   PO459808  38.409  15.132   5.853
 9694POPC   GL159809  38.423  15.224   6.153
 9694POPC   GL259810  38.629  15.166   6.153
 9694POPC   C1A59811  38.479  15.201   6.453
 9694POPC   D2A59812  38.484  15.141   6.753
 9694POPC   C3A59813  38.478  15.190   7.053
 9694POPC   C4A59814  38.504  15.211   7.353
 9694POPC   C1B59815  38.705  15.188   6.453
 9694POPC   C2B59816  38.704  15.190   6.753
 9694POPC   C3B59817  38.699  15.226   7.053
 9694POPC   C4B59818  38.657  15.226   7.353
 9695POPC   NC359819  15.197   5.136   5.553
 9695POPC   PO459820  15.209   5.132   5.853
 9695POPC   GL159821  15.180   5.091   6.153
 9695POPC   GL259822  15.130   5.225   6.153
 9695POPC   C1A59823  15.189   5.143   6.453
 9695POPC   D2A59824  15.210   5.088   6.753
 9695POPC   C3A59825  15.147   5.067   7.053
 9695POPC   C4A59826  15.185   5.085   7.353
 9695POPC   C1B59827  15.003   5.228   6.453
 9695POPC   C2B59828  14.995   5.304   6.753
 9695POPC   C3B59829  15.042   5.241   7.053
 9695POPC   C4B59830  15.009   5.276   7.353
 9696POPC   NC359831  19.848  24.522   5.553
 9696POPC   PO459832  19.870  24.503   5.853
 9696POPC   GL159833  19.810  24.469   6.153
 9696POPC   GL259834  19.689  24.510   6.153
 9696POPC   C1A59835  19.810  24.515   6.453
 9696POPC   D2A59836  19.820  24.454   6.753
 9696POPC   C3A59837  19.847  24.510   7.053
 9696POPC   C4A59838  19.791  24.531   7.353
 9696POPC   C1B59839  19.615  24.494   6.453
 9696POPC   C2B59840  19.564  24.497   6.753
 9696POPC   C3B59841  19.607  24.527   7.053
 9696POPC   C4B59842  19.574  24.529   7.353
 9697POPC   NC359843  42.369   2.765   5.553
 9697POPC   PO459844  42.334   2.791   5.853
 9697POPC   GL159845  42.372   2.769   6.153
 9697POPC   GL259846  42.369   2.659   6.153
 9697POPC   C1A59847  42.377   2.793   6.453
 9697POPC   D2A59848  42.354   2.763   6.753
 9697POPC   C3A59849  42.374   2.797   7.053
 9697POPC   C4A59850  42.324   2.764   7.353
 9697POPC   C1B59851  42.490   2.587   6.453
 9697POPC   C2B59852  42.431   2.548   6.753
 9697POPC   C3B59853  42.478   2.555   7.053
 9697POPC   C4B59854  42.444   2.508   7.353
 9698POPC   NC359855   2.774   5.901   5.553
 9698POPC   PO459856   2.794   5.875   5.853
 9698POPC   GL159857   2.725   5.837   6.153
 9698POPC   GL259858   2.860   5.894   6.153
 9698POPC   C1A59859   2.794   5.888   6.453
 9698POPC   D2A59860   2.779   5.917   6.753
 9698POPC   C3A59861   2.719   5.819   7.053
 9698POPC   C4A59862   2.806   5.847   7.353
 9698POPC   C1B59863   3.017   5.976   6.453
 9698POPC   C2B59864   2.989   6.058   6.753
 9698POPC   C3B59865   2.987   6.002   7.053
 9698POPC   C4B59866   2.955   6.047   7.353
 9699POPC   NC359867   5.091  17.461   5.553
 9699POPC   PO459868   5.114  17.489   5.853
 9699POPC   GL159869   5.098  17.464   6.153
 9699POPC   GL259870   4.978  17.620   6.153
 9699POPC   C1A59871   5.126  17.464   6.453
 9699POPC   D2A59872   5.094  17.527   6.753
 9699POPC   C3A59873   5.138  17.466   7.053
 9699POPC   C4A59874   5.135  17.519   7.353
 9699POPC   C1B59875   4.877  17.724   6.453
 9699POPC   C2B59876   4.938  17.710   6.753
 9699POPC   C3B59877   4.892  17.666   7.053
 9699POPC   C4B59878   4.934  17.679   7.353
 9700POPC   NC359879  22.163  36.175   5.553
 9700POPC   PO459880  22.160  36.098   5.853
 9700POPC   GL159881  22.199  36.090   6.153
 9700POPC   GL259882  22.275  35.982   6.153
 9700POPC   C1A59883  22.130  36.173   6.453
 9700POPC   D2A59884  22.136  36.113   6.753
 9700POPC   C3A59885  22.144  36.151   7.053
 9700POPC   C4A59886  22.207  36.136   7.353
 9700POPC   C1B59887  22.313  35.915   6.453
 9700POPC   C2B59888  22.313  35.954   6.753
 9700POPC   C3B59889  22.328  35.965   7.053
 9700POPC   C4B59890  22.288  35.913   7.353
 9701POPC   NC359891   8.150   4.310   5.553
 9701POPC   PO459892   8.228   4.305   5.853
 9701POPC   GL159893   8.191   4.292   6.153
 9701POPC   GL259894   8.154   4.179   6.153
 9701POPC   C1A59895   8.205   4.314   6.453
 9701POPC   D2A59896   8.187   4.270   6.753
 9701POPC   C3A59897   8.162   4.349   7.053
 9701POPC   C4A59898   8.220   4.284   7.353
 9701POPC   C1B59899   8.069   4.071   6.453
 9701POPC   C2B59900   8.108   4.083   6.753
 9701POPC   C3B59901   8.149   4.113   7.053
 9701POPC   C4B59902   8.089   4.093   7.353
 9702POPC   NC359903  27.622   9.791   5.553
 9702POPC   PO459904  27.578   9.724   5.853
 9702POPC   GL159905  27.558   9.706   6.153
 9702POPC   GL259906  27.657   9.662   6.153
 9702POPC   C1A59907  27.634   9.752   6.453
 9702POPC   D2A59908  27.571   9.784   6.753
 9702POPC   C3A59909  27.609   9.734   7.053
 9702POPC   C4A59910  27.612   9.713   7.353
 9702POPC   C1B59911  27.794   9.670   6.453
 9702POPC   C2B59912  27.768   9.600   6.753
 9702POPC   C3B59913  27.796   9.604   7.053
 9702POPC   C4B59914  27.818   9.631   7.353
 9703POPC   NC359915  20.588  43.081   5.553
 9703POPC   PO459916  20.618  43.085   5.853
 9703POPC   GL159917  20.619  43.106   6.153
 9703POPC   GL259918  20.682  43.023   6.153
 9703POPC   C1A59919  20.562  43.109   6.453
 9703POPC   D2A59920  20.620  43.092   6.753
 9703POPC   C3A59921  20.639  43.160   7.053
 9703POPC   C4A59922  20.642  43.156   7.353
 9703POPC   C1B59923  20.705  42.906   6.453
 9703POPC   C2B59924  20.617  42.819   6.753
 9703POPC   C3B59925  20.623  42.855   7.053
 9703POPC   C4B59926  20.612  42.830   7.353
 9704POPC   NC359927   1.172  16.756   5.553
 9704POPC   PO459928   1.214  16.732   5.853
 9704POPC   GL159929   1.245  16.744   6.153
 9704POPC   GL259930   1.244  16.579   6.153
 9704POPC   C1A59931   1.217  16.687   6.453
 9704POPC   D2A59932   1.177  16.759   6.753
 9704POPC   C3A59933   1.173  16.702   7.053
 9704POPC   C4A59934   1.212  16.776   7.353
 9704POPC   C1B59935   1.191  16.490   6.453
 9704POPC   C2B59936   1.215  16.457   6.753
 9704POPC   C3B59937   1.220  16.517   7.053
 9704POPC   C4B59938   1.160  16.528   7.353
 9705POPC   NC359939  12.875  40.773   5.553
 9705POPC   PO459940  12.832  40.817   5.853
 9705POPC   GL159941  12.865  40.810   6.153
 9705POPC   GL259942  12.992  40.888   6.153
 9705POPC   C1A59943  12.876  40.750   6.453
 9705POPC   D2A59944  12.839  40.807   6.753
 9705POPC   C3A59945  12.813  40.746   7.053
 9705POPC   C4A59946  12.817  40.758   7.353
 9705POPC   C1B59947  13.103  40.880   6.453
 9705POPC   C2B59948  13.075  40.933   6.753
 9705POPC   C3B59949  13.100  40.866   7.053
 9705POPC   C4B59950  13.112  40.909   7.353
 9706POPC   NC359951  14.434  12.893   5.553
 9706POPC   PO459952  14.445  12.872   5.853
 9706POPC   GL159953  14.413  12.802   6.153
 9706POPC   GL259954  14.549  12.890   6.153
 9706POPC   C1A59955  14.428  12.898   6.453
 9706POPC   D2A59956  14.391  12.834   6.753
 9706POPC   C3A59957  14.452  12.846   7.053
 9706POPC   C4A59958  14.374  12.902   7.353
 9706POPC   C1B59959  14.592  12.934   6.453
 9706POPC   C2B59960  14.617  12.974   6.753
 9706POPC   C3B59961  14.579  13.006   7.053
 9706POPC   C4B59962  14.673  12.920   7.353
 9707POPC   NC359963  15.956   2.016   5.553
 9707POPC   PO459964  15.984   2.016   5.853
 9707POPC   GL159965  15.941   2.016   6.153
 9707POPC   GL259966  16.104   1.950   6.153
 9707POPC   C1A59967  15.992   2.015   6.453
 9707POPC   D2A59968  15.999   1.970   6.753
 9707POPC   C3A59969  15.994   1.984   7.053
 9707POPC   C4A59970  15.965   1.971   7.353
 9707POPC   C1B59971  16.151   1.795   6.453
 9707POPC   C2B59972  16.207   1.805   6.753
 9707POPC   C3B59973  16.123   1.829   7.053
 9707POPC   C4B59974  16.124   1.830   7.353
 9708POPC   NC359975  29.901  22.892   5.553
 9708POPC   PO459976  29.871  22.980   5.853
 9708POPC   GL159977  29.900  22.960   6.153
 9708POPC   GL259978  29.867  23.027   6.153
 9708POPC   C1A59979  29.943  22.952   6.453
 9708POPC   D2A59980  29.919  22.912   6.753
 9708POPC   C3A59981  29.877  22.901   7.053
 9708POPC   C4A59982  29.948  22.941   7.353
 9708POPC   C1B59983  29.757  23.172   6.453
 9708POPC   C2B59984  29.716  23.111   6.753
 9708POPC   C3B59985  29.733  23.177   7.053
 9708POPC   C4B59986  29.727  23.182   7.353
 9709POPC   NC359987  33.021   7.408   5.553
 9709POPC   PO459988  32.998   7.459   5.853
 9709POPC   GL159989  32.976   7.408   6.153
 9709POPC   GL259990  33.126   7.346   6.153
 9709POPC   C1A59991  33.056   7.444   6.453
 9709POPC   D2A59992  33.015   7.468   6.753
 9709POPC   C3A59993  32.977   7.374   7.053
 9709POPC   C4A59994  32.978   7.420   7.353
 9709POPC   C1B59995  33.218   7.274   6.453
 9709POPC   C2B59996  33.254   7.208   6.753
 9709POPC   C3B59997  33.183   7.252   7.053
 9709POPC   C4B59998  33.244   7.259   7.353
 9710POPC   NC359999  10.561  24.502   5.553
 9710POPC   PO460000  10.527  24.518   5.853
 9710POPC   GL160001  10.508  24.520   6.153
 9710POPC   GL260002  10.617  24.377   6.153
 9710POPC   C1A60003  10.544  24.468   6.453
 9710POPC   D2A60004  10.559  24.515   6.753
 9710POPC   C3A60005  10.495  24.528   7.053
 9710POPC   C4A60006  10.542  24.485   7.353
 9710POPC   C1B60007  10.617  24.265   6.453
 9710POPC   C2B60008  10.642  24.281   6.753
 9710POPC   C3B60009  10.617  24.232   7.053
 9710POPC   C4B60010  10.665  24.259   7.353
 9711POPC   NC360011  35.358   2.782   5.553
 9711POPC   PO460012  35.331   2.756   5.853
 9711POPC   GL160013  35.379   2.759   6.153
 9711POPC   GL260014  35.318   2.690   6.153
 9711POPC   C1A60015  35.399   2.782   6.453
 9711POPC   D2A60016  35.387   2.780   6.753
 9711POPC   C3A60017  35.318   2.752   7.053
 9711POPC   C4A60018  35.322   2.774   7.353
 9711POPC   C1B60019  35.160   2.512   6.453
 9711POPC   C2B60020  35.182   2.548   6.753
 9711POPC   C3B60021  35.252   2.585   7.053
 9711POPC   C4B60022  35.175   2.576   7.353
 9712POPC   NC360023  36.127  43.084   5.553
 9712POPC   PO460024  36.095  43.085   5.853
 9712POPC   GL160025  36.114  43.115   6.153
 9712POPC   GL260026  36.000  43.224   6.153
 9712POPC   C1A60027  36.115  43.148   6.453
 9712POPC   D2A60028  36.091  43.118   6.753
 9712POPC   C3A60029  36.089  43.093   7.053
 9712POPC   C4A60030  36.122  43.148   7.353
 9712POPC   C1B60031  35.931  43.311   6.453
 9712POPC   C2B60032  35.935  43.328   6.753
 9712POPC   C3B60033  35.908  43.281   7.053
 9712POPC   C4B60034  35.943  43.333   7.353
 9713POPC   NC360035   5.140   7.444   5.553
 9713POPC   PO460036   5.116   7.418   5.853
 9713POPC   GL160037   5.127   7.392   6.153
 9713POPC   GL260038   5.193   7.573   6.153
 9713POPC   C1A60039   5.061   7.434   6.453
 9713POPC   D2A60040   5.096   7.412   6.753
 9713POPC   C3A60041   5.140   7.414   7.053
 9713POPC   C4A60042   5.075   7.373   7.353
 9713POPC   C1B60043   5.176   7.659   6.453
 9713POPC   C2B60044   5.207   7.693   6.753
 9713POPC   C3B60045   5.182   7.669   7.053
 9713POPC   C4B60046   5.199   7.647   7.353
 9714POPC   NC360047  12.896  28.320   5.553
 9714POPC   PO460048  12.845  28.338   5.853
 9714POPC   GL160049  12.884  28.363   6.153
 9714POPC   GL260050  13.015  28.363   6.153
 9714POPC   C1A60051  12.846  28.342   6.453
 9714POPC   D2A60052  12.835  28.337   6.753
 9714POPC   C3A60053  12.840  28.400   7.053
 9714POPC   C4A60054  12.896  28.375   7.353
 9714POPC   C1B60055  13.134  28.404   6.453
 9714POPC   C2B60056  13.141  28.417   6.753
 9714POPC   C3B60057  13.136  28.337   7.053
 9714POPC   C4B60058  13.104  28.372   7.353
 9715POPC   NC360059  32.245  25.312   5.553
 9715POPC   PO460060  32.248  25.239   5.853
 9715POPC   GL160061  32.270  25.251   6.153
 9715POPC   GL260062  32.373  25.252   6.153
 9715POPC   C1A60063  32.268  25.235   6.453
 9715POPC   D2A60064  32.212  25.218   6.753
 9715POPC   C3A60065  32.258  25.265   7.053
 9715POPC   C4A60066  32.224  25.272   7.353
 9715POPC   C1B60067  32.483  25.178   6.453
 9715POPC   C2B60068  32.490  25.266   6.753
 9715POPC   C3B60069  32.503  25.246   7.053
 9715POPC   C4B60070  32.462  25.177   7.353
 9716POPC   NC360071   9.760   4.326   5.553
 9716POPC   PO460072   9.719   4.272   5.853
 9716POPC   GL160073   9.739   4.283   6.153
 9716POPC   GL260074   9.716   4.451   6.153
 9716POPC   C1A60075   9.727   4.321   6.453
 9716POPC   D2A60076   9.726   4.300   6.753
 9716POPC   C3A60077   9.741   4.295   7.053
 9716POPC   C4A60078   9.723   4.300   7.353
 9716POPC   C1B60079   9.711   4.553   6.453
 9716POPC   C2B60080   9.688   4.588   6.753
 9716POPC   C3B60081   9.695   4.551   7.053
 9716POPC   C4B60082   9.710   4.602   7.353
 9717POPC   NC360083  36.080  24.500   5.553
 9717POPC   PO460084  36.174  24.528   5.853
 9717POPC   GL160085  36.129  24.507   6.153
 9717POPC   GL260086  36.104  24.396   6.153
 9717POPC   C1A60087  36.125  24.525   6.453
 9717POPC   D2A60088  36.113  24.473   6.753
 9717POPC   C3A60089  36.148  24.519   7.053
 9717POPC   C4A60090  36.169  24.503   7.353
 9717POPC   C1B60091  36.149  24.209   6.453
 9717POPC   C2B60092  36.143  24.239   6.753
 9717POPC   C3B60093  36.188  24.206   7.053
 9717POPC   C4B60094  36.122  24.263   7.353
 9718POPC   NC360095  37.638  15.977   5.553
 9718POPC   PO460096  37.629  15.947   5.853
 9718POPC   GL160097  37.673  15.996   6.153
 9718POPC   GL260098  37.718  16.085   6.153
 9718POPC   C1A60099  37.632  15.924   6.453
 9718POPC   D2A60100  37.662  15.951   6.753
 9718POPC   C3A60101  37.722  15.950   7.053
 9718POPC   C4A60102  37.642  15.926   7.353
 9718POPC   C1B60103  37.808  16.145   6.453
 9718POPC   C2B60104  37.754  16.158   6.753
 9718POPC   C3B60105  37.820  16.186   7.053
 9718POPC   C4B60106  37.747  16.155   7.353
 9719POPC   NC360107   8.193  22.178   5.553
 9719POPC   PO460108   8.233  22.152   5.853
 9719POPC   GL160109   8.197  22.166   6.153
 9719POPC   GL260110   8.057  22.150   6.153
 9719POPC   C1A60111   8.242  22.156   6.453
 9719POPC   D2A60112   8.179  22.169   6.753
 9719POPC   C3A60113   8.225  22.125   7.053
 9719POPC   C4A60114   8.174  22.152   7.353
 9719POPC   C1B60115   7.965  22.141   6.453
 9719POPC   C2B60116   7.927  22.121   6.753
 9719POPC   C3B60117   7.964  22.110   7.053
 9719POPC   C4B60118   7.960  22.155   7.353
 9720POPC   NC360119  21.391  44.626   5.553
 9720POPC   PO460120  21.424  44.631   5.853
 9720POPC   GL160121  21.416  44.707   6.153
 9720POPC   GL260122  21.286  44.658   6.153
 9720POPC   C1A60123  21.421  44.653   6.453
 9720POPC   D2A60124  21.372  44.698   6.753
 9720POPC   C3A60125  21.420  44.667   7.053
 9720POPC   C4A60126  21.421  44.696   7.353
 9720POPC   C1B60127  21.175  44.689   6.453
 9720POPC   C2B60128  21.103  44.625   6.753
 9720POPC   C3B60129  21.146  44.696   7.053
 9720POPC   C4B60130  21.137  44.647   7.353
 9721POPC   NC360131  19.057  29.920   5.553
 9721POPC   PO460132  19.066  29.913   5.853
 9721POPC   GL160133  19.090  29.956   6.153
 9721POPC   GL260134  19.181  29.820   6.153
 9721POPC   C1A60135  19.081  29.923   6.453
 9721POPC   D2A60136  19.043  29.963   6.753
 9721POPC   C3A60137  19.059  29.897   7.053
 9721POPC   C4A60138  19.011  29.959   7.353
 9721POPC   C1B60139  19.209  29.726   6.453
 9721POPC   C2B60140  19.255  29.723   6.753
 9721POPC   C3B60141  19.242  29.756   7.053
 9721POPC   C4B60142  19.265  29.709   7.353
 9722POPC   NC360143   1.204  20.586   5.553
 9722POPC   PO460144   1.248  20.634   5.853
 9722POPC   GL160145   1.240  20.577   6.153
 9722POPC   GL260146   1.150  20.522   6.153
 9722POPC   C1A60147   1.197  20.601   6.453
 9722POPC   D2A60148   1.228  20.603   6.753
 9722POPC   C3A60149   1.223  20.602   7.053
 9722POPC   C4A60150   1.187  20.582   7.353
 9722POPC   C1B60151   1.027  20.466   6.453
 9722POPC   C2B60152   1.097  20.404   6.753
 9722POPC   C3B60153   1.077  20.448   7.053
 9722POPC   C4B60154   1.064  20.383   7.353
 9723POPC   NC360155  13.583   3.549   5.553
 9723POPC   PO460156  13.675   3.577   5.853
 9723POPC   GL160157  13.672   3.570   6.153
 9723POPC   GL260158  13.704   3.532   6.153
 9723POPC   C1A60159  13.604   3.522   6.453
 9723POPC   D2A60160  13.586   3.574   6.753
 9723POPC   C3A60161  13.639   3.556   7.053
 9723POPC   C4A60162  13.621   3.541   7.353
 9723POPC   C1B60163  13.859   3.624   6.453
 9723POPC   C2B60164  13.849   3.597   6.753
 9723POPC   C3B60165  13.833   3.561   7.053
 9723POPC   C4B60166  13.911   3.572   7.353
 9724POPC   NC360167   6.666  36.858   5.553
 9724POPC   PO460168   6.625  36.942   5.853
 9724POPC   GL160169   6.636  36.943   6.153
 9724POPC   GL260170   6.817  36.846   6.153
 9724POPC   C1A60171   6.695  36.870   6.453
 9724POPC   D2A60172   6.616  36.936   6.753
 9724POPC   C3A60173   6.628  36.887   7.053
 9724POPC   C4A60174   6.610  36.860   7.353
 9724POPC   C1B60175   6.843  36.875   6.453
 9724POPC   C2B60176   6.895  36.867   6.753
 9724POPC   C3B60177   6.902  36.828   7.053
 9724POPC   C4B60178   6.872  36.869   7.353
 9725POPC   NC360179  13.675  27.570   5.553
 9725POPC   PO460180  13.600  27.616   5.853
 9725POPC   GL160181  13.627  27.589   6.153
 9725POPC   GL260182  13.603  27.450   6.153
 9725POPC   C1A60183  13.659  27.608   6.453
 9725POPC   D2A60184  13.608  27.571   6.753
 9725POPC   C3A60185  13.589  27.544   7.053
 9725POPC   C4A60186  13.657  27.600   7.353
 9725POPC   C1B60187  13.508  27.372   6.453
 9725POPC   C2B60188  13.517  27.420   6.753
 9725POPC   C3B60189  13.501  27.417   7.053
 9725POPC   C4B60190  13.450  27.404   7.353
 9726POPC   NC360191  27.639  22.917   5.553
 9726POPC   PO460192  27.610  22.906   5.853
 9726POPC   GL160193  27.627  22.907   6.153
 9726POPC   GL260194  27.761  22.995   6.153
 9726POPC   C1A60195  27.546  22.936   6.453
 9726POPC   D2A60196  27.574  22.929   6.753
 9726POPC   C3A60197  27.545  22.888   7.053
 9726POPC   C4A60198  27.630  22.909   7.353
 9726POPC   C1B60199  27.857  22.976   6.453
 9726POPC   C2B60200  27.864  22.973   6.753
 9726POPC   C3B60201  27.834  22.978   7.053
 9726POPC   C4B60202  27.860  22.994   7.353
 9727POPC   NC360203  12.077  37.718   5.553
 9727POPC   PO460204  12.072  37.682   5.853
 9727POPC   GL160205  12.120  37.635   6.153
 9727POPC   GL260206  12.233  37.715   6.153
 9727POPC   C1A60207  12.032  37.694   6.453
 9727POPC   D2A60208  12.034  37.675   6.753
 9727POPC   C3A60209  12.052  37.659   7.053
 9727POPC   C4A60210  12.036  37.677   7.353
 9727POPC   C1B60211  12.305  37.722   6.453
 9727POPC   C2B60212  12.360  37.722   6.753
 9727POPC   C3B60213  12.285  37.756   7.053
 9727POPC   C4B60214  12.315  37.760   7.353
 9728POPC   NC360215  28.385   4.279   5.553
 9728POPC   PO460216  28.407   4.281   5.853
 9728POPC   GL160217  28.382   4.291   6.153
 9728POPC   GL260218  28.216   4.305   6.153
 9728POPC   C1A60219  28.349   4.303   6.453
 9728POPC   D2A60220  28.332   4.273   6.753
 9728POPC   C3A60221  28.324   4.296   7.053
 9728POPC   C4A60222  28.337   4.269   7.353
 9728POPC   C1B60223  28.118   4.276   6.453
 9728POPC   C2B60224  28.109   4.279   6.753
 9728POPC   C3B60225  28.099   4.208   7.053
 9728POPC   C4B60226  28.108   4.228   7.353
 9729POPC   NC360227  37.695  14.419   5.553
 9729POPC   PO460228  37.677  14.379   5.853
 9729POPC   GL160229  37.711  14.400   6.153
 9729POPC   GL260230  37.605  14.305   6.153
 9729POPC   C1A60231  37.710  14.451   6.453
 9729POPC   D2A60232  37.661  14.413   6.753
 9729POPC   C3A60233  37.725  14.451   7.053
 9729POPC   C4A60234  37.674  14.423   7.353
 9729POPC   C1B60235  37.579  14.195   6.453
 9729POPC   C2B60236  37.602  14.135   6.753
 9729POPC   C3B60237  37.580  14.226   7.053
 9729POPC   C4B60238  37.578  14.149   7.353
 9730POPC   NC360239  28.330  36.158   5.553
 9730POPC   PO460240  28.322  36.102   5.853
 9730POPC   GL160241  28.416  36.107   6.153
 9730POPC   GL260242  28.449  36.067   6.153
 9730POPC   C1A60243  28.399  36.131   6.453
 9730POPC   D2A60244  28.338  36.103   6.753
 9730POPC   C3A60245  28.398  36.141   7.053
 9730POPC   C4A60246  28.398  36.143   7.353
 9730POPC   C1B60247  28.606  35.975   6.453
 9730POPC   C2B60248  28.598  36.047   6.753
 9730POPC   C3B60249  28.596  35.980   7.053
 9730POPC   C4B60250  28.624  35.954   7.353
 9731POPC   NC360251  44.707  22.952   5.553
 9731POPC   PO460252  44.678  22.933   5.853
 9731POPC   GL160253  44.654  22.932   6.153
 9731POPC   GL260254  44.533  22.870   6.153
 9731POPC   C1A60255  44.691  22.942   6.453
 9731POPC   D2A60256  44.651  22.936   6.753
 9731POPC   C3A60257  44.680  22.911   7.053
 9731POPC   C4A60258  44.647  22.908   7.353
 9731POPC   C1B60259  44.460  22.867   6.453
 9731POPC   C2B60260  44.449  22.805   6.753
 9731POPC   C3B60261  44.413  22.847   7.053
 9731POPC   C4B60262  44.458  22.798   7.353
 9732POPC   NC360263  22.942  22.183   5.553
 9732POPC   PO460264  22.925  22.123   5.853
 9732POPC   GL160265  22.979  22.192   6.153
 9732POPC   GL260266  22.788  22.255   6.153
 9732POPC   C1A60267  22.902  22.113   6.453
 9732POPC   D2A60268  22.987  22.160   6.753
 9732POPC   C3A60269  22.926  22.169   7.053
 9732POPC   C4A60270  22.954  22.209   7.353
 9732POPC   C1B60271  22.713  22.315   6.453
 9732POPC   C2B60272  22.737  22.266   6.753
 9732POPC   C3B60273  22.757  22.260   7.053
 9732POPC   C4B60274  22.752  22.302   7.353
 9733POPC   NC360275  37.663  33.799   5.553
 9733POPC   PO460276  37.692  33.806   5.853
 9733POPC   GL160277  37.688  33.825   6.153
 9733POPC   GL260278  37.593  33.807   6.153
 9733POPC   C1A60279  37.675  33.792   6.453
 9733POPC   D2A60280  37.716  33.845   6.753
 9733POPC   C3A60281  37.637  33.815   7.053
 9733POPC   C4A60282  37.712  33.763   7.353
 9733POPC   C1B60283  37.388  33.738   6.453
 9733POPC   C2B60284  37.387  33.750   6.753
 9733POPC   C3B60285  37.461  33.710   7.053
 9733POPC   C4B60286  37.394  33.788   7.353
 9734POPC   NC360287   8.972  28.376   5.553
 9734POPC   PO460288   9.003  28.409   5.853
 9734POPC   GL160289   8.954  28.378   6.153
 9734POPC   GL260290   9.064  28.341   6.153
 9734POPC   C1A60291   9.019  28.341   6.453
 9734POPC   D2A60292   9.020  28.405   6.753
 9734POPC   C3A60293   8.966  28.345   7.053
 9734POPC   C4A60294   9.009  28.412   7.353
 9734POPC   C1B60295   9.179  28.312   6.453
 9734POPC   C2B60296   9.239  28.276   6.753
 9734POPC   C3B60297   9.179  28.325   7.053
 9734POPC   C4B60298   9.254  28.302   7.353
 9735POPC   NC360299  16.779   1.175   5.553
 9735POPC   PO460300  16.696   1.239   5.853
 9735POPC   GL160301  16.710   1.216   6.153
 9735POPC   GL260302  16.659   1.210   6.153
 9735POPC   C1A60303  16.705   1.208   6.453
 9735POPC   D2A60304  16.687   1.252   6.753
 9735POPC   C3A60305  16.736   1.180   7.053
 9735POPC   C4A60306  16.713   1.196   7.353
 9735POPC   C1B60307  16.482   1.131   6.453
 9735POPC   C2B60308  16.498   1.155   6.753
 9735POPC   C3B60309  16.467   1.138   7.053
 9735POPC   C4B60310  16.524   1.120   7.353
 9736POPC   NC360311  15.131  24.482   5.553
 9736POPC   PO460312  15.216  24.534   5.853
 9736POPC   GL160313  15.203  24.489   6.153
 9736POPC   GL260314  15.273  24.535   6.153
 9736POPC   C1A60315  15.215  24.470   6.453
 9736POPC   D2A60316  15.195  24.539   6.753
 9736POPC   C3A60317  15.225  24.524   7.053
 9736POPC   C4A60318  15.198  24.453   7.353
 9736POPC   C1B60319  15.451  24.544   6.453
 9736POPC   C2B60320  15.368  24.562   6.753
 9736POPC   C3B60321  15.374  24.609   7.053
 9736POPC   C4B60322  15.464  24.552   7.353
 9737POPC   NC360323  40.045  39.250   5.553
 9737POPC   PO460324  40.026  39.274   5.853
 9737POPC   GL160325  40.006  39.274   6.153
 9737POPC   GL260326  40.099  39.358   6.153
 9737POPC   C1A60327  40.051  39.210   6.453
 9737POPC   D2A60328  39.971  39.271   6.753
 9737POPC   C3A60329  40.033  39.249   7.053
 9737POPC   C4A60330  39.994  39.220   7.353
 9737POPC   C1B60331  40.112  39.449   6.453
 9737POPC   C2B60332  40.161  39.490   6.753
 9737POPC   C3B60333  40.145  39.496   7.053
 9737POPC   C4B60334  40.157  39.501   7.353
 9738POPC   NC360335   3.496  11.330   5.553
 9738POPC   PO460336   3.549  11.275   5.853
 9738POPC   GL160337   3.537  11.286   6.153
 9738POPC   GL260338   3.699  11.293   6.153
 9738POPC   C1A60339   3.502  11.337   6.453
 9738POPC   D2A60340   3.549  11.262   6.753
 9738POPC   C3A60341   3.550  11.277   7.053
 9738POPC   C4A60342   3.552  11.338   7.353
 9738POPC   C1B60343   3.800  11.248   6.453
 9738POPC   C2B60344   3.754  11.276   6.753
 9738POPC   C3B60345   3.755  11.183   7.053
 9738POPC   C4B60346   3.830  11.262   7.353
 9739POPC   NC360347  13.601  30.675   5.553
 9739POPC   PO460348  13.585  30.740   5.853
 9739POPC   GL160349  13.585  30.738   6.153
 9739POPC   GL260350  13.650  30.833   6.153
 9739POPC   C1A60351  13.643  30.681   6.453
 9739POPC   D2A60352  13.587  30.746   6.753
 9739POPC   C3A60353  13.598  30.714   7.053
 9739POPC   C4A60354  13.581  30.695   7.353
 9739POPC   C1B60355  13.747  30.923   6.453
 9739POPC   C2B60356  13.749  30.878   6.753
 9739POPC   C3B60357  13.689  30.875   7.053
 9739POPC   C4B60358  13.783  30.895   7.353
 9740POPC   NC360359  12.125  42.373   5.553
 9740POPC   PO460360  12.094  42.346   5.853
 9740POPC   GL160361  12.043  42.290   6.153
 9740POPC   GL260362  12.064  42.244   6.153
 9740POPC   C1A60363  12.062  42.322   6.453
 9740POPC   D2A60364  12.067  42.321   6.753
 9740POPC   C3A60365  12.118  42.359   7.053
 9740POPC   C4A60366  12.093  42.294   7.353
 9740POPC   C1B60367  12.070  42.093   6.453
 9740POPC   C2B60368  12.116  42.060   6.753
 9740POPC   C3B60369  12.135  42.085   7.053
 9740POPC   C4B60370  12.066  42.115   7.353
 9741POPC   NC360371   1.965  42.337   5.553
 9741POPC   PO460372   2.032  42.363   5.853
 9741POPC   GL160373   2.002  42.326   6.153
 9741POPC   GL260374   1.906  42.436   6.153
 9741POPC   C1A60375   1.975  42.359   6.453
 9741POPC   D2A60376   1.997  42.307   6.753
 9741POPC   C3A60377   1.970  42.370   7.053
 9741POPC   C4A60378   1.978  42.367   7.353
 9741POPC   C1B60379   1.782  42.468   6.453
 9741POPC   C2B60380   1.809  42.464   6.753
 9741POPC   C3B60381   1.761  42.541   7.053
 9741POPC   C4B60382   1.778  42.507   7.353
 9742POPC   NC360383  27.572  10.512   5.553
 9742POPC   PO460384  27.586  10.485   5.853
 9742POPC   GL160385  27.587  10.496   6.153
 9742POPC   GL260386  27.590  10.405   6.153
 9742POPC   C1A60387  27.587  10.516   6.453
 9742POPC   D2A60388  27.565  10.509   6.753
 9742POPC   C3A60389  27.583  10.570   7.053
 9742POPC   C4A60390  27.576  10.569   7.353
 9742POPC   C1B60391  27.578  10.298   6.453
 9742POPC   C2B60392  27.564  10.291   6.753
 9742POPC   C3B60393  27.513  10.272   7.053
 9742POPC   C4B60394  27.526  10.236   7.353
 9743POPC   NC360395   5.065  22.177   5.553
 9743POPC   PO460396   5.107  22.156   5.853
 9743POPC   GL160397   5.068  22.208   6.153
 9743POPC   GL260398   5.016  22.020   6.153
 9743POPC   C1A60399   5.097  22.127   6.453
 9743POPC   D2A60400   5.102  22.139   6.753
 9743POPC   C3A60401   5.094  22.122   7.053
 9743POPC   C4A60402   5.097  22.209   7.353
 9743POPC   C1B60403   4.949  21.969   6.453
 9743POPC   C2B60404   5.017  21.895   6.753
 9743POPC   C3B60405   4.961  21.901   7.053
 9743POPC   C4B60406   5.018  21.955   7.353
 9744POPC   NC360407  21.390  28.340   5.553
 9744POPC   PO460408  21.383  28.358   5.853
 9744POPC   GL160409  21.395  28.411   6.153
 9744POPC   GL260410  21.245  28.375   6.153
 9744POPC   C1A60411  21.418  28.321   6.453
 9744POPC   D2A60412  21.410  28.402   6.753
 9744POPC   C3A60413  21.357  28.353   7.053
 9744POPC   C4A60414  21.415  28.332   7.353
 9744POPC   C1B60415  21.093  28.343   6.453
 9744POPC   C2B60416  21.177  28.309   6.753
 9744POPC   C3B60417  21.151  28.330   7.053
 9744POPC   C4B60418  21.162  28.366   7.353
 9745POPC   NC360419  29.137  15.990   5.553
 9745POPC   PO460420  29.096  15.972   5.853
 9745POPC   GL160421  29.132  15.935   6.153
 9745POPC   GL260422  29.111  15.874   6.153
 9745POPC   C1A60423  29.147  15.924   6.453
 9745POPC   D2A60424  29.096  15.940   6.753
 9745POPC   C3A60425  29.177  15.964   7.053
 9745POPC   C4A60426  29.151  15.981   7.353
 9745POPC   C1B60427  29.067  15.700   6.453
 9745POPC   C2B60428  29.124  15.729   6.753
 9745POPC   C3B60429  29.088  15.689   7.053
 9745POPC   C4B60430  29.065  15.740   7.353
 9746POPC   NC360431  20.592  42.320   5.553
 9746POPC   PO460432  20.563  42.369   5.853
 9746POPC   GL160433  20.571  42.343   6.153
 9746POPC   GL260434  20.459  42.324   6.153
 9746POPC   C1A60435  20.635  42.297   6.453
 9746POPC   D2A60436  20.641  42.358   6.753
 9746POPC   C3A60437  20.610  42.312   7.053
 9746POPC   C4A60438  20.629  42.320   7.353
 9746POPC   C1B60439  20.339  42.329   6.453
 9746POPC   C2B60440  20.318  42.327   6.753
 9746POPC   C3B60441  20.321  42.317   7.053
 9746POPC   C4B60442  20.350  42.377   7.353
 9747POPC   NC360443   6.616   9.718   5.553
 9747POPC   PO460444   6.691   9.782   5.853
 9747POPC   GL160445   6.614   9.704   6.153
 9747POPC   GL260446   6.746   9.702   6.153
 9747POPC   C1A60447   6.670   9.731   6.453
 9747POPC   D2A60448   6.606   9.788   6.753
 9747POPC   C3A60449   6.670   9.767   7.053
 9747POPC   C4A60450   6.633   9.744   7.353
 9747POPC   C1B60451   6.880   9.583   6.453
 9747POPC   C2B60452   6.799   9.627   6.753
 9747POPC   C3B60453   6.898   9.581   7.053
 9747POPC   C4B60454   6.821   9.577   7.353
 9748POPC   NC360455  34.554  13.590   5.553
 9748POPC   PO460456  34.601  13.601   5.853
 9748POPC   GL160457  34.537  13.660   6.153
 9748POPC   GL260458  34.506  13.768   6.153
 9748POPC   C1A60459  34.614  13.638   6.453
 9748POPC   D2A60460  34.533  13.677   6.753
 9748POPC   C3A60461  34.579  13.613   7.053
 9748POPC   C4A60462  34.560  13.675   7.353
 9748POPC   C1B60463  34.418  13.822   6.453
 9748POPC   C2B60464  34.394  13.840   6.753
 9748POPC   C3B60465  34.428  13.786   7.053
 9748POPC   C4B60466  34.462  13.872   7.353
 9749POPC   NC360467  31.470  14.443   5.553
 9749POPC   PO460468  31.452  14.430   5.853
 9749POPC   GL160469  31.464  14.393   6.153
 9749POPC   GL260470  31.474  14.250   6.153
 9749POPC   C1A60471  31.459  14.415   6.453
 9749POPC   D2A60472  31.448  14.414   6.753
 9749POPC   C3A60473  31.470  14.357   7.053
 9749POPC   C4A60474  31.454  14.439   7.353
 9749POPC   C1B60475  31.561  14.203   6.453
 9749POPC   C2B60476  31.518  14.162   6.753
 9749POPC   C3B60477  31.579  14.152   7.053
 9749POPC   C4B60478  31.515  14.131   7.353
 9750POPC   NC360479  14.379  43.130   5.553
 9750POPC   PO460480  14.382  43.156   5.853
 9750POPC   GL160481  14.354  43.153   6.153
 9750POPC   GL260482  14.332  43.053   6.153
 9750POPC   C1A60483  14.401  43.134   6.453
 9750POPC   D2A60484  14.385  43.125   6.753
 9750POPC   C3A60485  14.415  43.144   7.053
 9750POPC   C4A60486  14.432  43.155   7.353
 9750POPC   C1B60487  14.259  42.949   6.453
 9750POPC   C2B60488  14.240  42.938   6.753
 9750POPC   C3B60489  14.214  42.929   7.053
 9750POPC   C4B60490  14.270  42.913   7.353
 9751POPC   NC360491  14.372  26.049   5.553
 9751POPC   PO460492  14.422  26.037   5.853
 9751POPC   GL160493  14.403  26.024   6.153
 9751POPC   GL260494  14.246  26.006   6.153
 9751POPC   C1A60495  14.390  26.042   6.453
 9751POPC   D2A60496  14.441  26.017   6.753
 9751POPC   C3A60497  14.369  26.031   7.053
 9751POPC   C4A60498  14.359  26.080   7.353
 9751POPC   C1B60499  14.183  25.978   6.453
 9751POPC   C2B60500  14.209  25.889   6.753
 9751POPC   C3B60501  14.201  25.898   7.053
 9751POPC   C4B60502  14.136  25.944   7.353
 9752POPC   NC360503  13.596  28.345   5.553
 9752POPC   PO460504  13.671  28.335   5.853
 9752POPC   GL160505  13.623  28.365   6.153
 9752POPC   GL260506  13.661  28.215   6.153
 9752POPC   C1A60507  13.663  28.416   6.453
 9752POPC   D2A60508  13.646  28.326   6.753
 9752POPC   C3A60509  13.633  28.354   7.053
 9752POPC   C4A60510  13.625  28.380   7.353
 9752POPC   C1B60511  13.709  28.102   6.453
 9752POPC   C2B60512  13.720  28.093   6.753
 9752POPC   C3B60513  13.726  28.094   7.053
 9752POPC   C4B60514  13.680  28.161   7.353
 9753POPC   NC360515   3.518  29.160   5.553
 9753POPC   PO460516   3.584  29.121   5.853
 9753POPC   GL160517   3.546  29.117   6.153
 9753POPC   GL260518   3.655  29.238   6.153
 9753POPC   C1A60519   3.583  29.109   6.453
 9753POPC   D2A60520   3.555  29.167   6.753
 9753POPC   C3A60521   3.513  29.136   7.053
 9753POPC   C4A60522   3.491  29.137   7.353
 9753POPC   C1B60523   3.759  29.235   6.453
 9753POPC   C2B60524   3.757  29.291   6.753
 9753POPC   C3B60525   3.774  29.306   7.053
 9753POPC   C4B60526   3.795  29.279   7.353
 9754POPC   NC360527  18.270   9.776   5.553
 9754POPC   PO460528  18.297   9.721   5.853
 9754POPC   GL160529  18.284   9.698   6.153
 9754POPC   GL260530  18.285   9.833   6.153
 9754POPC   C1A60531  18.249   9.738   6.453
 9754POPC   D2A60532  18.235   9.718   6.753
 9754POPC   C3A60533  18.317   9.768   7.053
 9754POPC   C4A60534  18.283   9.780   7.353
 9754POPC   C1B60535  18.404   9.978   6.453
 9754POPC   C2B60536  18.388   9.965   6.753
 9754POPC   C3B60537  18.378   9.979   7.053
 9754POPC   C4B60538  18.349   9.981   7.353
 9755POPC   NC360539  32.214  31.453   5.553
 9755POPC   PO460540  32.216  31.513   5.853
 9755POPC   GL160541  32.286  31.440   6.153
 9755POPC   GL260542  32.303  31.592   6.153
 9755POPC   C1A60543  32.200  31.515   6.453
 9755POPC   D2A60544  32.224  31.485   6.753
 9755POPC   C3A60545  32.259  31.513   7.053
 9755POPC   C4A60546  32.228  31.467   7.353
 9755POPC   C1B60547  32.279  31.705   6.453
 9755POPC   C2B60548  32.293  31.674   6.753
 9755POPC   C3B60549  32.304  31.766   7.053
 9755POPC   C4B60550  32.252  31.747   7.353
 9756POPC   NC360551  14.423  20.619   5.553
 9756POPC   PO460552  14.418  20.589   5.853
 9756POPC   GL160553  14.386  20.604   6.153
 9756POPC   GL260554  14.388  20.467   6.153
 9756POPC   C1A60555  14.431  20.602   6.453
 9756POPC   D2A60556  14.410  20.652   6.753
 9756POPC   C3A60557  14.434  20.567   7.053
 9756POPC   C4A60558  14.439  20.595   7.353
 9756POPC   C1B60559  14.292  20.410   6.453
 9756POPC   C2B60560  14.306  20.405   6.753
 9756POPC   C3B60561  14.338  20.355   7.053
 9756POPC   C4B60562  14.289  20.349   7.353
 9757POPC   NC360563  19.804   1.985   5.553
 9757POPC   PO460564  19.856   1.998   5.853
 9757POPC   GL160565  19.842   2.017   6.153
 9757POPC   GL260566  19.873   2.069   6.153
 9757POPC   C1A60567  19.866   1.968   6.453
 9757POPC   D2A60568  19.806   1.991   6.753
 9757POPC   C3A60569  19.865   1.970   7.053
 9757POPC   C4A60570  19.793   1.952   7.353
 9757POPC   C1B60571  19.966   2.225   6.453
 9757POPC   C2B60572  19.905   2.231   6.753
 9757POPC   C3B60573  19.941   2.259   7.053
 9757POPC   C4B60574  19.947   2.229   7.353
 9758POPC   NC360575  21.351   6.598   5.553
 9758POPC   PO460576  21.419   6.646   5.853
 9758POPC   GL160577  21.394   6.665   6.153
 9758POPC   GL260578  21.504   6.768   6.153
 9758POPC   C1A60579  21.356   6.623   6.453
 9758POPC   D2A60580  21.401   6.596   6.753
 9758POPC   C3A60581  21.397   6.676   7.053
 9758POPC   C4A60582  21.413   6.682   7.353
 9758POPC   C1B60583  21.571   6.762   6.453
 9758POPC   C2B60584  21.603   6.821   6.753
 9758POPC   C3B60585  21.551   6.846   7.053
 9758POPC   C4B60586  21.582   6.778   7.353
 9759POPC   NC360587  13.583  16.690   5.553
 9759POPC   PO460588  13.635  16.725   5.853
 9759POPC   GL160589  13.676  16.708   6.153
 9759POPC   GL260590  13.672  16.596   6.153
 9759POPC   C1A60591  13.618  16.735   6.453
 9759POPC   D2A60592  13.602  16.697   6.753
 9759POPC   C3A60593  13.617  16.721   7.053
 9759POPC   C4A60594  13.608  16.693   7.353
 9759POPC   C1B60595  13.736  16.549   6.453
 9759POPC   C2B60596  13.747  16.533   6.753
 9759POPC   C3B60597  13.764  16.539   7.053
 9759POPC   C4B60598  13.732  16.498   7.353
 9760POPC   NC360599  19.834  28.406   5.553
 9760POPC   PO460600  19.816  28.390   5.853
 9760POPC   GL160601  19.792  28.379   6.153
 9760POPC   GL260602  19.800  28.466   6.153
 9760POPC   C1A60603  19.795  28.401   6.453
 9760POPC   D2A60604  19.798  28.384   6.753
 9760POPC   C3A60605  19.851  28.325   7.053
 9760POPC   C4A60606  19.801  28.414   7.353
 9760POPC   C1B60607  19.716  28.534   6.453
 9760POPC   C2B60608  19.693  28.534   6.753
 9760POPC   C3B60609  19.680  28.550   7.053
 9760POPC   C4B60610  19.723  28.595   7.353
 9761POPC   NC360611  24.485  14.451   5.553
 9761POPC   PO460612  24.516  14.371   5.853
 9761POPC   GL160613  24.528  14.367   6.153
 9761POPC   GL260614  24.355  14.431   6.153
 9761POPC   C1A60615  24.455  14.384   6.453
 9761POPC   D2A60616  24.460  14.355   6.753
 9761POPC   C3A60617  24.522  14.441   7.053
 9761POPC   C4A60618  24.538  14.401   7.353
 9761POPC   C1B60619  24.245  14.477   6.453
 9761POPC   C2B60620  24.278  14.489   6.753
 9761POPC   C3B60621  24.227  14.556   7.053
 9761POPC   C4B60622  24.245  14.540   7.353
 9762POPC   NC360623   5.837   1.171   5.553
 9762POPC   PO460624   5.836   1.175   5.853
 9762POPC   GL160625   5.861   1.165   6.153
 9762POPC   GL260626   5.934   1.099   6.153
 9762POPC   C1A60627   5.889   1.244   6.453
 9762POPC   D2A60628   5.847   1.253   6.753
 9762POPC   C3A60629   5.826   1.203   7.053
 9762POPC   C4A60630   5.865   1.250   7.353
 9762POPC   C1B60631   6.043   0.987   6.453
 9762POPC   C2B60632   6.008   1.026   6.753
 9762POPC   C3B60633   5.976   0.977   7.053
 9762POPC   C4B60634   6.014   0.998   7.353
 9763POPC   NC360635  15.943  20.604   5.553
 9763POPC   PO460636  15.983  20.594   5.853
 9763POPC   GL160637  15.975  20.622   6.153
 9763POPC   GL260638  16.057  20.564   6.153
 9763POPC   C1A60639  16.003  20.610   6.453
 9763POPC   D2A60640  15.965  20.615   6.753
 9763POPC   C3A60641  15.999  20.612   7.053
 9763POPC   C4A60642  16.002  20.584   7.353
 9763POPC   C1B60643  16.178  20.428   6.453
 9763POPC   C2B60644  16.159  20.456   6.753
 9763POPC   C3B60645  16.132  20.474   7.053
 9763POPC   C4B60646  16.167  20.428   7.353
 9764POPC   NC360647  20.569  41.563   5.553
 9764POPC   PO460648  20.632  41.524   5.853
 9764POPC   GL160649  20.638  41.606   6.153
 9764POPC   GL260650  20.718  41.561   6.153
 9764POPC   C1A60651  20.624  41.515   6.453
 9764POPC   D2A60652  20.621  41.533   6.753
 9764POPC   C3A60653  20.561  41.605   7.053
 9764POPC   C4A60654  20.649  41.597   7.353
 9764POPC   C1B60655  20.878  41.592   6.453
 9764POPC   C2B60656  20.843  41.546   6.753
 9764POPC   C3B60657  20.839  41.612   7.053
 9764POPC   C4B60658  20.814  41.553   7.353
 9765POPC   NC360659  16.729  10.551   5.553
 9765POPC   PO460660  16.720  10.553   5.853
 9765POPC   GL160661  16.773  10.519   6.153
 9765POPC   GL260662  16.835  10.551   6.153
 9765POPC   C1A60663  16.697  10.478   6.453
 9765POPC   D2A60664  16.777  10.509   6.753
 9765POPC   C3A60665  16.756  10.500   7.053
 9765POPC   C4A60666  16.733  10.545   7.353
 9765POPC   C1B60667  17.018  10.525   6.453
 9765POPC   C2B60668  16.991  10.605   6.753
 9765POPC   C3B60669  16.953  10.547   7.053
 9765POPC   C4B60670  16.937  10.620   7.353
 9766POPC   NC360671   5.873   8.993   5.553
 9766POPC   PO460672   5.833   8.998   5.853
 9766POPC   GL160673   5.847   8.965   6.153
 9766POPC   GL260674   5.950   8.956   6.153
 9766POPC   C1A60675   5.867   8.970   6.453
 9766POPC   D2A60676   5.854   9.002   6.753
 9766POPC   C3A60677   5.849   8.982   7.053
 9766POPC   C4A60678   5.844   8.977   7.353
 9766POPC   C1B60679   6.119   8.862   6.453
 9766POPC   C2B60680   6.115   8.920   6.753
 9766POPC   C3B60681   6.102   8.915   7.053
 9766POPC   C4B60682   6.093   8.886   7.353
 9767POPC   NC360683  38.469  39.966   5.553
 9767POPC   PO460684  38.424  40.049   5.853
 9767POPC   GL160685  38.431  39.959   6.153
 9767POPC   GL260686  38.376  39.941   6.153
 9767POPC   C1A60687  38.482  39.971   6.453
 9767POPC   D2A60688  38.470  40.033   6.753
 9767POPC   C3A60689  38.461  39.973   7.053
 9767POPC   C4A60690  38.457  40.054   7.353
 9767POPC   C1B60691  38.162  39.930   6.453
 9767POPC   C2B60692  38.184  39.964   6.753
 9767POPC   C3B60693  38.184  39.945   7.053
 9767POPC   C4B60694  38.219  39.987   7.353
 9768POPC   NC360695  12.075  26.041   5.553
 9768POPC   PO460696  12.045  26.049   5.853
 9768POPC   GL160697  12.086  26.051   6.153
 9768POPC   GL260698  12.016  25.909   6.153
 9768POPC   C1A60699  12.043  26.066   6.453
 9768POPC   D2A60700  12.053  25.999   6.753
 9768POPC   C3A60701  12.074  26.051   7.053
 9768POPC   C4A60702  12.078  26.079   7.353
 9768POPC   C1B60703  11.976  25.781   6.453
 9768POPC   C2B60704  11.972  25.866   6.753
 9768POPC   C3B60705  11.934  25.845   7.053
 9768POPC   C4B60706  11.947  25.810   7.353
 9769POPC   NC360707  15.947   7.383   5.553
 9769POPC   PO460708  15.939   7.436   5.853
 9769POPC   GL160709  15.975   7.433   6.153
 9769POPC   GL260710  16.082   7.456   6.153
 9769POPC   C1A60711  15.950   7.386   6.453
 9769POPC   D2A60712  15.999   7.422   6.753
 9769POPC   C3A60713  15.926   7.441   7.053
 9769POPC   C4A60714  15.951   7.448   7.353
 9769POPC   C1B60715  16.168   7.498   6.453
 9769POPC   C2B60716  16.209   7.535   6.753
 9769POPC   C3B60717  16.210   7.580   7.053
 9769POPC   C4B60718  16.173   7.534   7.353
 9770POPC   NC360719   8.932  15.907   5.553
 9770POPC   PO460720   8.992  15.919   5.853
 9770POPC   GL160721   8.931  16.004   6.153
 9770POPC   GL260722   8.828  15.967   6.153
 9770POPC   C1A60723   8.963  15.943   6.453
 9770POPC   D2A60724   8.926  15.963   6.753
 9770POPC   C3A60725   8.950  15.937   7.053
 9770POPC   C4A60726   9.015  15.983   7.353
 9770POPC   C1B60727   8.718  16.099   6.453
 9770POPC   C2B60728   8.796  16.078   6.753
 9770POPC   C3B60729   8.712  16.083   7.053
 9770POPC   C4B60730   8.738  16.098   7.353
 9771POPC   NC360731   6.632  14.436   5.553
 9771POPC   PO460732   6.647  14.355   5.853
 9771POPC   GL160733   6.644  14.433   6.153
 9771POPC   GL260734   6.645  14.298   6.153
 9771POPC   C1A60735   6.693  14.429   6.453
 9771POPC   D2A60736   6.651  14.452   6.753
 9771POPC   C3A60737   6.634  14.390   7.053
 9771POPC   C4A60738   6.659  14.451   7.353
 9771POPC   C1B60739   6.662  14.130   6.453
 9771POPC   C2B60740   6.626  14.155   6.753
 9771POPC   C3B60741   6.618  14.176   7.053
 9771POPC   C4B60742   6.620  14.128   7.353
 9772POPC   NC360743  19.019   5.110   5.553
 9772POPC   PO460744  19.071   5.143   5.853
 9772POPC   GL160745  19.021   5.096   6.153
 9772POPC   GL260746  19.012   5.223   6.153
 9772POPC   C1A60747  19.013   5.068   6.453
 9772POPC   D2A60748  19.022   5.123   6.753
 9772POPC   C3A60749  19.061   5.068   7.053
 9772POPC   C4A60750  19.036   5.095   7.353
 9772POPC   C1B60751  18.893   5.321   6.453
 9772POPC   C2B60752  18.882   5.235   6.753
 9772POPC   C3B60753  18.897   5.245   7.053
 9772POPC   C4B60754  18.847   5.262   7.353
 9773POPC   NC360755   9.730  11.290   5.553
 9773POPC   PO460756   9.722  11.312   5.853
 9773POPC   GL160757   9.719  11.308   6.153
 9773POPC   GL260758   9.905  11.294   6.153
 9773POPC   C1A60759   9.768  11.290   6.453
 9773POPC   D2A60760   9.701  11.295   6.753
 9773POPC   C3A60761   9.775  11.347   7.053
 9773POPC   C4A60762   9.725  11.301   7.353
 9773POPC   C1B60763  10.025  11.197   6.453
 9773POPC   C2B60764  10.014  11.259   6.753
 9773POPC   C3B60765   9.981  11.253   7.053
 9773POPC   C4B60766   9.942  11.270   7.353
 9774POPC   NC360767   1.255  30.734   5.553
 9774POPC   PO460768   1.193  30.734   5.853
 9774POPC   GL160769   1.215  30.710   6.153
 9774POPC   GL260770   1.182  30.824   6.153
 9774POPC   C1A60771   1.200  30.651   6.453
 9774POPC   D2A60772   1.230  30.655   6.753
 9774POPC   C3A60773   1.200  30.670   7.053
 9774POPC   C4A60774   1.169  30.717   7.353
 9774POPC   C1B60775   1.189  30.913   6.453
 9774POPC   C2B60776   1.191  30.956   6.753
 9774POPC   C3B60777   1.139  30.901   7.053
 9774POPC   C4B60778   1.096  30.976   7.353
 9775POPC   NC360779  10.551  33.027   5.553
 9775POPC   PO460780  10.497  32.986   5.853
 9775POPC   GL160781  10.558  33.046   6.153
 9775POPC   GL260782  10.637  33.004   6.153
 9775POPC   C1A60783  10.498  33.038   6.453
 9775POPC   D2A60784  10.542  33.018   6.753
 9775POPC   C3A60785  10.546  33.001   7.053
 9775POPC   C4A60786  10.508  33.005   7.353
 9775POPC   C1B60787  10.748  32.977   6.453
 9775POPC   C2B60788  10.811  32.982   6.753
 9775POPC   C3B60789  10.752  32.989   7.053
 9775POPC   C4B60790  10.743  33.001   7.353
 9776POPC   NC360791  36.911  15.923   5.553
 9776POPC   PO460792  36.947  16.003   5.853
 9776POPC   GL160793  36.888  15.970   6.153
 9776POPC   GL260794  37.075  15.971   6.153
 9776POPC   C1A60795  36.906  16.000   6.453
 9776POPC   D2A60796  36.912  15.961   6.753
 9776POPC   C3A60797  36.917  15.961   7.053
 9776POPC   C4A60798  36.938  15.969   7.353
 9776POPC   C1B60799  37.142  16.009   6.453
 9776POPC   C2B60800  37.101  15.965   6.753
 9776POPC   C3B60801  37.150  16.007   7.053
 9776POPC   C4B60802  37.152  16.010   7.353
 9777POPC   NC360803   0.413  44.619   5.553
 9777POPC   PO460804   0.473  44.707   5.853
 9777POPC   GL160805   0.430  44.679   6.153
 9777POPC   GL260806   0.346  44.541   6.153
 9777POPC   C1A60807   0.400  44.628   6.453
 9777POPC   D2A60808   0.457  44.701   6.753
 9777POPC   C3A60809   0.389  44.636   7.053
 9777POPC   C4A60810   0.398  44.638   7.353
 9777POPC   C1B60811   0.309  44.485   6.453
 9777POPC   C2B60812   0.266  44.463   6.753
 9777POPC   C3B60813   0.315  44.512   7.053
 9777POPC   C4B60814   0.320  44.478   7.353
 9778POPC   NC360815   5.103  25.292   5.553
 9778POPC   PO460816   5.057  25.252   5.853
 9778POPC   GL160817   5.106  25.292   6.153
 9778POPC   GL260818   5.012  25.151   6.153
 9778POPC   C1A60819   5.132  25.299   6.453
 9778POPC   D2A60820   5.096  25.268   6.753
 9778POPC   C3A60821   5.110  25.301   7.053
 9778POPC   C4A60822   5.068  25.228   7.353
 9778POPC   C1B60823   4.979  25.079   6.453
 9778POPC   C2B60824   4.981  25.025   6.753
 9778POPC   C3B60825   4.974  25.088   7.053
 9778POPC   C4B60826   4.917  25.035   7.353
 9779POPC   NC360827  12.102  18.327   5.553
 9779POPC   PO460828  12.122  18.319   5.853
 9779POPC   GL160829  12.059  18.274   6.153
 9779POPC   GL260830  12.186  18.376   6.153
 9779POPC   C1A60831  12.061  18.324   6.453
 9779POPC   D2A60832  12.115  18.282   6.753
 9779POPC   C3A60833  12.029  18.278   7.053
 9779POPC   C4A60834  12.038  18.242   7.353
 9779POPC   C1B60835  12.267  18.418   6.453
 9779POPC   C2B60836  12.262  18.460   6.753
 9779POPC   C3B60837  12.247  18.442   7.053
 9779POPC   C4B60838  12.235  18.409   7.353
 9780POPC   NC360839   3.580  26.789   5.553
 9780POPC   PO460840   3.579  26.782   5.853
 9780POPC   GL160841   3.562  26.798   6.153
 9780POPC   GL260842   3.657  26.789   6.153
 9780POPC   C1A60843   3.582  26.784   6.453
 9780POPC   D2A60844   3.541  26.797   6.753
 9780POPC   C3A60845   3.493  26.818   7.053
 9780POPC   C4A60846   3.538  26.859   7.353
 9780POPC   C1B60847   3.780  26.729   6.453
 9780POPC   C2B60848   3.769  26.648   6.753
 9780POPC   C3B60849   3.714  26.732   7.053
 9780POPC   C4B60850   3.790  26.671   7.353
 9781POPC   NC360851  44.643   0.487   5.553
 9781POPC   PO460852  44.659   0.445   5.853
 9781POPC   GL160853  44.664   0.430   6.153
 9781POPC   GL260854  44.508   0.380   6.153
 9781POPC   C1A60855  44.641   0.466   6.453
 9781POPC   D2A60856  44.652   0.458   6.753
 9781POPC   C3A60857  44.620   0.471   7.053
 9781POPC   C4A60858  44.667   0.395   7.353
 9781POPC   C1B60859  44.378   0.440   6.453
 9781POPC   C2B60860  44.444   0.419   6.753
 9781POPC   C3B60861  44.430   0.370   7.053
 9781POPC   C4B60862  44.406   0.395   7.353
 9782POPC   NC360863  29.112  21.398   5.553
 9782POPC   PO460864  29.194  21.383   5.853
 9782POPC   GL160865  29.165  21.395   6.153
 9782POPC   GL260866  29.253  21.343   6.153
 9782POPC   C1A60867  29.115  21.358   6.453
 9782POPC   D2A60868  29.195  21.411   6.753
 9782POPC   C3A60869  29.122  21.340   7.053
 9782POPC   C4A60870  29.135  21.425   7.353
 9782POPC   C1B60871  29.291  21.170   6.453
 9782POPC   C2B60872  29.329  21.185   6.753
 9782POPC   C3B60873  29.304  21.213   7.053
 9782POPC   C4B60874  29.326  21.197   7.353
 9783POPC   NC360875  23.758  12.092   5.553
 9783POPC   PO460876  23.728  12.044   5.853
 9783POPC   GL160877  23.739  12.076   6.153
 9783POPC   GL260878  23.607  12.094   6.153
 9783POPC   C1A60879  23.678  12.116   6.453
 9783POPC   D2A60880  23.691  12.121   6.753
 9783POPC   C3A60881  23.688  12.029   7.053
 9783POPC   C4A60882  23.664  12.097   7.353
 9783POPC   C1B60883  23.444  12.059   6.453
 9783POPC   C2B60884  23.500  11.981   6.753
 9783POPC   C3B60885  23.453  12.045   7.053
 9783POPC   C4B60886  23.450  11.979   7.353
 9784POPC   NC360887  26.839  17.467   5.553
 9784POPC   PO460888  26.809  17.517   5.853
 9784POPC   GL160889  26.790  17.530   6.153
 9784POPC   GL260890  26.913  17.484   6.153
 9784POPC   C1A60891  26.772  17.530   6.453
 9784POPC   D2A60892  26.846  17.549   6.753
 9784POPC   C3A60893  26.818  17.474   7.053
 9784POPC   C4A60894  26.816  17.500   7.353
 9784POPC   C1B60895  27.023  17.399   6.453
 9784POPC   C2B60896  27.047  17.323   6.753
 9784POPC   C3B60897  27.021  17.342   7.053
 9784POPC   C4B60898  27.022  17.342   7.353
 9785POPC   NC360899  11.343  39.987   5.553
 9785POPC   PO460900  11.270  40.030   5.853
 9785POPC   GL160901  11.328  40.027   6.153
 9785POPC   GL260902  11.376  39.944   6.153
 9785POPC   C1A60903  11.309  40.007   6.453
 9785POPC   D2A60904  11.251  39.998   6.753
 9785POPC   C3A60905  11.288  39.970   7.053
 9785POPC   C4A60906  11.320  40.004   7.353
 9785POPC   C1B60907  11.495  39.804   6.453
 9785POPC   C2B60908  11.513  39.859   6.753
 9785POPC   C3B60909  11.461  39.798   7.053
 9785POPC   C4B60910  11.424  39.855   7.353
 9786POPC   NC360911  11.331  31.494   5.553
 9786POPC   PO460912  11.319  31.509   5.853
 9786POPC   GL160913  11.334  31.496   6.153
 9786POPC   GL260914  11.298  31.347   6.153
 9786POPC   C1A60915  11.339  31.425   6.453
 9786POPC   D2A60916  11.294  31.504   6.753
 9786POPC   C3A60917  11.350  31.477   7.053
 9786POPC   C4A60918  11.341  31.490   7.353
 9786POPC   C1B60919  11.295  31.215   6.453
 9786POPC   C2B60920  11.285  31.185   6.753
 9786POPC   C3B60921  11.238  31.212   7.053
 9786POPC   C4B60922  11.252  31.242   7.353
 9787POPC   NC360923   1.973  15.993   5.553
 9787POPC   PO460924   2.021  15.929   5.853
 9787POPC   GL160925   2.001  15.928   6.153
 9787POPC   GL260926   2.143  15.899   6.153
 9787POPC   C1A60927   1.989  15.979   6.453
 9787POPC   D2A60928   1.973  15.919   6.753
 9787POPC   C3A60929   2.015  15.926   7.053
 9787POPC   C4A60930   1.958  15.970   7.353
 9787POPC   C1B60931   2.183  15.838   6.453
 9787POPC   C2B60932   2.207  15.843   6.753
 9787POPC   C3B60933   2.267  15.830   7.053
 9787POPC   C4B60934   2.265  15.888   7.353
 9788POPC   NC360935  34.552  44.618   5.553
 9788POPC   PO460936  34.589  44.689   5.853
 9788POPC   GL160937  34.606  44.631   6.153
 9788POPC   GL260938  34.527  44.557   6.153
 9788POPC   C1A60939  34.562  44.621   6.453
 9788POPC   D2A60940  34.622  44.637   6.753
 9788POPC   C3A60941  34.591  44.684   7.053
 9788POPC   C4A60942  34.580  44.613   7.353
 9788POPC   C1B60943  34.417  44.488   6.453
 9788POPC   C2B60944  34.449  44.476   6.753
 9788POPC   C3B60945  34.414  44.410   7.053
 9788POPC   C4B60946  34.454  44.465   7.353
 9789POPC   NC360947  19.822  38.432   5.553
 9789POPC   PO460948  19.840  38.475   5.853
 9789POPC   GL160949  19.861  38.451   6.153
 9789POPC   GL260950  19.749  38.558   6.153
 9789POPC   C1A60951  19.849  38.408   6.453
 9789POPC   D2A60952  19.867  38.440   6.753
 9789POPC   C3A60953  19.860  38.476   7.053
 9789POPC   C4A60954  19.812  38.459   7.353
 9789POPC   C1B60955  19.710  38.626   6.453
 9789POPC   C2B60956  19.683  38.636   6.753
 9789POPC   C3B60957  19.684  38.677   7.053
 9789POPC   C4B60958  19.706  38.608   7.353
 9790POPC   NC360959  43.063  22.915   5.553
 9790POPC   PO460960  43.096  22.891   5.853
 9790POPC   GL160961  43.125  22.899   6.153
 9790POPC   GL260962  43.025  23.040   6.153
 9790POPC   C1A60963  43.077  22.983   6.453
 9790POPC   D2A60964  43.087  22.964   6.753
 9790POPC   C3A60965  43.143  22.925   7.053
 9790POPC   C4A60966  43.138  22.966   7.353
 9790POPC   C1B60967  42.926  23.144   6.453
 9790POPC   C2B60968  42.906  23.129   6.753
 9790POPC   C3B60969  42.913  23.093   7.053
 9790POPC   C4B60970  42.958  23.116   7.353
 9791POPC   NC360971  42.353  30.720   5.553
 9791POPC   PO460972  42.301  30.701   5.853
 9791POPC   GL160973  42.365  30.698   6.153
 9791POPC   GL260974  42.445  30.636   6.153
 9791POPC   C1A60975  42.381  30.684   6.453
 9791POPC   D2A60976  42.328  30.724   6.753
 9791POPC   C3A60977  42.285  30.668   7.053
 9791POPC   C4A60978  42.316  30.654   7.353
 9791POPC   C1B60979  42.509  30.613   6.453
 9791POPC   C2B60980  42.570  30.526   6.753
 9791POPC   C3B60981  42.591  30.558   7.053
 9791POPC   C4B60982  42.534  30.616   7.353
 9792POPC   NC360983   2.769  38.422   5.553
 9792POPC   PO460984   2.775  38.479   5.853
 9792POPC   GL160985   2.784  38.443   6.153
 9792POPC   GL260986   2.885  38.436   6.153
 9792POPC   C1A60987   2.731  38.473   6.453
 9792POPC   D2A60988   2.749  38.418   6.753
 9792POPC   C3A60989   2.795  38.418   7.053
 9792POPC   C4A60990   2.741  38.451   7.353
 9792POPC   C1B60991   3.030  38.508   6.453
 9792POPC   C2B60992   2.974  38.501   6.753
 9792POPC   C3B60993   3.024  38.456   7.053
 9792POPC   C4B60994   3.053  38.485   7.353
 9793POPC   NC360995  31.514   2.016   5.553
 9793POPC   PO460996  31.434   1.969   5.853
 9793POPC   GL160997  31.423   2.020   6.153
 9793POPC   GL260998  31.568   2.113   6.153
 9793POPC   C1A60999  31.499   2.035   6.453
 9793POPC   D2A61000  31.424   1.961   6.753
 9793POPC   C3A61001  31.432   2.040   7.053
 9793POPC   C4A61002  31.449   2.001   7.353
 9793POPC   C1B61003  31.586   2.199   6.453
 9793POPC   C2B61004  31.628   2.237   6.753
 9793POPC   C3B61005  31.602   2.209   7.053
 9793POPC   C4B61006  31.617   2.171   7.353
 9794POPC   NC361007  40.774  25.222   5.553
 9794POPC   PO461008  40.828  25.277   5.853
 9794POPC   GL161009  40.740  25.220   6.153
 9794POPC   GL261010  40.801  25.430   6.153
 9794POPC   C1A61011  40.761  25.315   6.453
 9794POPC   D2A61012  40.751  25.300   6.753
 9794POPC   C3A61013  40.763  25.303   7.053
 9794POPC   C4A61014  40.736  25.226   7.353
 9794POPC   C1B61015  40.893  25.464   6.453
 9794POPC   C2B61016  40.888  25.453   6.753
 9794POPC   C3B61017  40.857  25.542   7.053
 9794POPC   C4B61018  40.900  25.463   7.353
 9795POPC   NC361019   1.187  15.208   5.553
 9795POPC   PO461020   1.261  15.166   5.853
 9795POPC   GL161021   1.217  15.171   6.153
 9795POPC   GL261022   1.095  15.036   6.153
 9795POPC   C1A61023   1.235  15.214   6.453
 9795POPC   D2A61024   1.176  15.131   6.753
 9795POPC   C3A61025   1.197  15.211   7.053
 9795POPC   C4A61026   1.177  15.225   7.353
 9795POPC   C1B61027   1.090  14.959   6.453
 9795POPC   C2B61028   1.092  14.953   6.753
 9795POPC   C3B61029   1.087  15.013   7.053
 9795POPC   C4B61030   1.038  14.981   7.353
 9796POPC   NC361031  22.917  19.792   5.553
 9796POPC   PO461032  22.975  19.879   5.853
 9796POPC   GL161033  22.980  19.865   6.153
 9796POPC   GL261034  23.049  19.805   6.153
 9796POPC   C1A61035  22.936  19.839   6.453
 9796POPC   D2A61036  22.955  19.841   6.753
 9796POPC   C3A61037  22.920  19.796   7.053
 9796POPC   C4A61038  22.953  19.875   7.353
 9796POPC   C1B61039  23.171  19.762   6.453
 9796POPC   C2B61040  23.121  19.778   6.753
 9796POPC   C3B61041  23.142  19.776   7.053
 9796POPC   C4B61042  23.156  19.751   7.353
 9797POPC   NC361043  33.826  30.732   5.553
 9797POPC   PO461044  33.778  30.736   5.853
 9797POPC   GL161045  33.802  30.731   6.153
 9797POPC   GL261046  33.910  30.683   6.153
 9797POPC   C1A61047  33.845  30.674   6.453
 9797POPC   D2A61048  33.786  30.715   6.753
 9797POPC   C3A61049  33.849  30.652   7.053
 9797POPC   C4A61050  33.769  30.701   7.353
 9797POPC   C1B61051  34.069  30.667   6.453
 9797POPC   C2B61052  34.087  30.584   6.753
 9797POPC   C3B61053  34.053  30.637   7.053
 9797POPC   C4B61054  34.010  30.651   7.353
 9798POPC   NC361055  16.737  43.910   5.553
 9798POPC   PO461056  16.757  43.893   5.853
 9798POPC   GL161057  16.776  43.928   6.153
 9798POPC   GL261058  16.667  43.951   6.153
 9798POPC   C1A61059  16.749  43.857   6.453
 9798POPC   D2A61060  16.774  43.897   6.753
 9798POPC   C3A61061  16.741  43.884   7.053
 9798POPC   C4A61062  16.711  43.849   7.353
 9798POPC   C1B61063  16.516  44.060   6.453
 9798POPC   C2B61064  16.605  44.063   6.753
 9798POPC   C3B61065  16.511  44.038   7.053
 9798POPC   C4B61066  16.557  44.056   7.353
 9799POPC   NC361067   9.726  43.874   5.553
 9799POPC   PO461068   9.749  43.902   5.853
 9799POPC   GL161069   9.792  43.893   6.153
 9799POPC   GL261070   9.827  44.034   6.153
 9799POPC   C1A61071   9.732  43.852   6.453
 9799POPC   D2A61072   9.737  43.852   6.753
 9799POPC   C3A61073   9.740  43.878   7.053
 9799POPC   C4A61074   9.780  43.897   7.353
 9799POPC   C1B61075   9.885  44.094   6.453
 9799POPC   C2B61076   9.897  44.131   6.753
 9799POPC   C3B61077   9.864  44.098   7.053
 9799POPC   C4B61078   9.861  44.087   7.353
 9800POPC   NC361079  27.545  14.436   5.553
 9800POPC   PO461080  27.605  14.448   5.853
 9800POPC   GL161081  27.609  14.439   6.153
 9800POPC   GL261082  27.521  14.525   6.153
 9800POPC   C1A61083  27.546  14.442   6.453
 9800POPC   D2A61084  27.615  14.373   6.753
 9800POPC   C3A61085  27.543  14.368   7.053
 9800POPC   C4A61086  27.603  14.436   7.353
 9800POPC   C1B61087  27.472  14.612   6.453
 9800POPC   C2B61088  27.459  14.660   6.753
 9800POPC   C3B61089  27.449  14.646   7.053
 9800POPC   C4B61090  27.468  14.642   7.353
 9801POPC   NC361091  33.060  11.321   5.553
 9801POPC   PO461092  32.979  11.297   5.853
 9801POPC   GL161093  33.017  11.270   6.153
 9801POPC   GL261094  32.894  11.321   6.153
 9801POPC   C1A61095  33.008  11.260   6.453
 9801POPC   D2A61096  33.070  11.280   6.753
 9801POPC   C3A61097  33.009  11.316   7.053
 9801POPC   C4A61098  33.010  11.252   7.353
 9801POPC   C1B61099  32.733  11.345   6.453
 9801POPC   C2B61100  32.798  11.309   6.753
 9801POPC   C3B61101  32.765  11.321   7.053
 9801POPC   C4B61102  32.811  11.353   7.353
 9802POPC   NC361103   7.386  13.621   5.553
 9802POPC   PO461104   7.426  13.663   5.853
 9802POPC   GL161105   7.435  13.587   6.153
 9802POPC   GL261106   7.372  13.479   6.153
 9802POPC   C1A61107   7.402  13.655   6.453
 9802POPC   D2A61108   7.399  13.582   6.753
 9802POPC   C3A61109   7.424  13.646   7.053
 9802POPC   C4A61110   7.371  13.622   7.353
 9802POPC   C1B61111   7.400  13.377   6.453
 9802POPC   C2B61112   7.342  13.408   6.753
 9802POPC   C3B61113   7.329  13.334   7.053
 9802POPC   C4B61114   7.396  13.360   7.353
 9803POPC   NC361115  24.491  30.711   5.553
 9803POPC   PO461116  24.489  30.662   5.853
 9803POPC   GL161117  24.502  30.699   6.153
 9803POPC   GL261118  24.354  30.579   6.153
 9803POPC   C1A61119  24.531  30.656   6.453
 9803POPC   D2A61120  24.452  30.652   6.753
 9803POPC   C3A61121  24.466  30.726   7.053
 9803POPC   C4A61122  24.519  30.663   7.353
 9803POPC   C1B61123  24.273  30.529   6.453
 9803POPC   C2B61124  24.287  30.554   6.753
 9803POPC   C3B61125  24.250  30.519   7.053
 9803POPC   C4B61126  24.336  30.558   7.353
 9804POPC   NC361127  22.205  41.604   5.553
 9804POPC   PO461128  22.114  41.595   5.853
 9804POPC   GL161129  22.172  41.563   6.153
 9804POPC   GL261130  22.016  41.522   6.153
 9804POPC   C1A61131  22.127  41.564   6.453
 9804POPC   D2A61132  22.141  41.563   6.753
 9804POPC   C3A61133  22.127  41.593   7.053
 9804POPC   C4A61134  22.148  41.585   7.353
 9804POPC   C1B61135  21.895  41.495   6.453
 9804POPC   C2B61136  21.930  41.458   6.753
 9804POPC   C3B61137  21.971  41.421   7.053
 9804POPC   C4B61138  21.917  41.447   7.353
 9805POPC   NC361139  36.105  25.250   5.553
 9805POPC   PO461140  36.105  25.258   5.853
 9805POPC   GL161141  36.142  25.283   6.153
 9805POPC   GL261142  36.037  25.239   6.153
 9805POPC   C1A61143  36.129  25.264   6.453
 9805POPC   D2A61144  36.116  25.301   6.753
 9805POPC   C3A61145  36.089  25.279   7.053
 9805POPC   C4A61146  36.086  25.286   7.353
 9805POPC   C1B61147  35.835  25.202   6.453
 9805POPC   C2B61148  35.932  25.179   6.753
 9805POPC   C3B61149  35.842  25.206   7.053
 9805POPC   C4B61150  35.903  25.230   7.353
 9806POPC   NC361151  37.720  19.018   5.553
 9806POPC   PO461152  37.723  19.096   5.853
 9806POPC   GL161153  37.670  19.068   6.153
 9806POPC   GL261154  37.566  19.030   6.153
 9806POPC   C1A61155  37.642  19.083   6.453
 9806POPC   D2A61156  37.637  19.104   6.753
 9806POPC   C3A61157  37.717  19.012   7.053
 9806POPC   C4A61158  37.694  19.059   7.353
 9806POPC   C1B61159  37.519  18.896   6.453
 9806POPC   C2B61160  37.442  18.926   6.753
 9806POPC   C3B61161  37.473  18.939   7.053
 9806POPC   C4B61162  37.499  18.915   7.353
 9807POPC   NC361163  15.154  42.342   5.553
 9807POPC   PO461164  15.205  42.354   5.853
 9807POPC   GL161165  15.198  42.381   6.153
 9807POPC   GL261166  15.164  42.432   6.153
 9807POPC   C1A61167  15.227  42.327   6.453
 9807POPC   D2A61168  15.212  42.343   6.753
 9807POPC   C3A61169  15.218  42.369   7.053
 9807POPC   C4A61170  15.177  42.328   7.353
 9807POPC   C1B61171  15.170  42.626   6.453
 9807POPC   C2B61172  15.100  42.577   6.753
 9807POPC   C3B61173  15.112  42.561   7.053
 9807POPC   C4B61174  15.181  42.593   7.353
 9808POPC   NC361175  28.386   9.021   5.553
 9808POPC   PO461176  28.351   8.971   5.853
 9808POPC   GL161177  28.383   8.974   6.153
 9808POPC   GL261178  28.374   8.857   6.153
 9808POPC   C1A61179  28.410   8.969   6.453
 9808POPC   D2A61180  28.397   8.973   6.753
 9808POPC   C3A61181  28.328   8.968   7.053
 9808POPC   C4A61182  28.380   8.980   7.353
 9808POPC   C1B61183  28.454   8.699   6.453
 9808POPC   C2B61184  28.424   8.693   6.753
 9808POPC   C3B61185  28.487   8.735   7.053
 9808POPC   C4B61186  28.445   8.767   7.353
 9809POPC   NC361187  29.893  42.348   5.553
 9809POPC   PO461188  29.924  42.299   5.853
 9809POPC   GL161189  29.925  42.349   6.153
 9809POPC   GL261190  29.848  42.216   6.153
 9809POPC   C1A61191  29.920  42.347   6.453
 9809POPC   D2A61192  29.914  42.347   6.753
 9809POPC   C3A61193  29.942  42.366   7.053
 9809POPC   C4A61194  29.917  42.350   7.353
 9809POPC   C1B61195  29.752  42.149   6.453
 9809POPC   C2B61196  29.733  42.121   6.753
 9809POPC   C3B61197  29.740  42.112   7.053
 9809POPC   C4B61198  29.759  42.151   7.353
 9810POPC   NC361199  40.827  36.098   5.553
 9810POPC   PO461200  40.778  36.147   5.853
 9810POPC   GL161201  40.813  36.083   6.153
 9810POPC   GL261202  40.843  36.280   6.153
 9810POPC   C1A61203  40.795  36.127   6.453
 9810POPC   D2A61204  40.790  36.140   6.753
 9810POPC   C3A61205  40.753  36.159   7.053
 9810POPC   C4A61206  40.816  36.136   7.353
 9810POPC   C1B61207  40.861  36.396   6.453
 9810POPC   C2B61208  40.874  36.380   6.753
 9810POPC   C3B61209  40.852  36.419   7.053
 9810POPC   C4B61210  40.827  36.395   7.353
 9811POPC   NC361211   5.127   0.442   5.553
 9811POPC   PO461212   5.069   0.439   5.853
 9811POPC   GL161213   5.135   0.423   6.153
 9811POPC   GL261214   5.010   0.449   6.153
 9811POPC   C1A61215   5.090   0.391   6.453
 9811POPC   D2A61216   5.109   0.453   6.753
 9811POPC   C3A61217   5.066   0.407   7.053
 9811POPC   C4A61218   5.119   0.424   7.353
 9811POPC   C1B61219   4.814   0.389   6.453
 9811POPC   C2B61220   4.809   0.427   6.753
 9811POPC   C3B61221   4.840   0.458   7.053
 9811POPC   C4B61222   4.877   0.474   7.353
 9812POPC   NC361223  30.672  31.471   5.553
 9812POPC   PO461224  30.726  31.490   5.853
 9812POPC   GL161225  30.733  31.452   6.153
 9812POPC   GL261226  30.623  31.565   6.153
 9812POPC   C1A61227  30.739  31.508   6.453
 9812POPC   D2A61228  30.726  31.474   6.753
 9812POPC   C3A61229  30.711  31.513   7.053
 9812POPC   C4A61230  30.665  31.497   7.353
 9812POPC   C1B61231  30.542  31.648   6.453
 9812POPC   C2B61232  30.566  31.649   6.753
 9812POPC   C3B61233  30.574  31.682   7.053
 9812POPC   C4B61234  30.540  31.673   7.353
 9813POPC   NC361235   2.790  22.938   5.553
 9813POPC   PO461236   2.815  22.933   5.853
 9813POPC   GL161237   2.796  22.961   6.153
 9813POPC   GL261238   2.720  22.829   6.153
 9813POPC   C1A61239   2.796  22.937   6.453
 9813POPC   D2A61240   2.745  22.934   6.753
 9813POPC   C3A61241   2.761  22.956   7.053
 9813POPC   C4A61242   2.723  22.980   7.353
 9813POPC   C1B61243   2.795  22.738   6.453
 9813POPC   C2B61244   2.763  22.706   6.753
 9813POPC   C3B61245   2.743  22.719   7.053
 9813POPC   C4B61246   2.794  22.644   7.353
 9814POPC   NC361247  21.388   0.415   5.553
 9814POPC   PO461248  21.362   0.410   5.853
 9814POPC   GL161249  21.374   0.414   6.153
 9814POPC   GL261250  21.496   0.573   6.153
 9814POPC   C1A61251  21.380   0.416   6.453
 9814POPC   D2A61252  21.339   0.420   6.753
 9814POPC   C3A61253  21.392   0.432   7.053
 9814POPC   C4A61254  21.373   0.452   7.353
 9814POPC   C1B61255  21.539   0.635   6.453
 9814POPC   C2B61256  21.523   0.616   6.753
 9814POPC   C3B61257  21.498   0.626   7.053
 9814POPC   C4B61258  21.569   0.629   7.353
 9815POPC   NC361259  11.255  12.802   5.553
 9815POPC   PO461260  11.317  12.869   5.853
 9815POPC   GL161261  11.255  12.900   6.153
 9815POPC   GL261262  11.194  12.750   6.153
 9815POPC   C1A61263  11.261  12.899   6.453
 9815POPC   D2A61264  11.272  12.880   6.753
 9815POPC   C3A61265  11.337  12.867   7.053
 9815POPC   C4A61266  11.263  12.849   7.353
 9815POPC   C1B61267  11.139  12.723   6.453
 9815POPC   C2B61268  11.065  12.711   6.753
 9815POPC   C3B61269  11.145  12.749   7.053
 9815POPC   C4B61270  11.140  12.701   7.353
 9816POPC   NC361271  32.978  40.741   5.553
 9816POPC   PO461272  32.986  40.763   5.853
 9816POPC   GL161273  33.026  40.761   6.153
 9816POPC   GL261274  32.890  40.888   6.153
 9816POPC   C1A61275  33.025  40.831   6.453
 9816POPC   D2A61276  33.042  40.821   6.753
 9816POPC   C3A61277  33.024  40.795   7.053
 9816POPC   C4A61278  33.073  40.773   7.353
 9816POPC   C1B61279  32.769  40.947   6.453
 9816POPC   C2B61280  32.834  40.862   6.753
 9816POPC   C3B61281  32.800  40.918   7.053
 9816POPC   C4B61282  32.839  40.912   7.353
 9817POPC   NC361283  22.971  12.065   5.553
 9817POPC   PO461284  22.959  12.102   5.853
 9817POPC   GL161285  22.960  12.053   6.153
 9817POPC   GL261286  22.809  12.002   6.153
 9817POPC   C1A61287  22.968  12.043   6.453
 9817POPC   D2A61288  22.908  12.035   6.753
 9817POPC   C3A61289  22.985  12.046   7.053
 9817POPC   C4A61290  22.923  12.103   7.353
 9817POPC   C1B61291  22.709  11.923   6.453
 9817POPC   C2B61292  22.785  11.864   6.753
 9817POPC   C3B61293  22.713  11.960   7.053
 9817POPC   C4B61294  22.766  11.893   7.353
 9818POPC   NC361295  29.900  13.647   5.553
 9818POPC   PO461296  29.877  13.610   5.853
 9818POPC   GL161297  29.903  13.653   6.153
 9818POPC   GL261298  29.838  13.697   6.153
 9818POPC   C1A61299  29.963  13.640   6.453
 9818POPC   D2A61300  29.968  13.629   6.753
 9818POPC   C3A61301  29.953  13.607   7.053
 9818POPC   C4A61302  29.924  13.638   7.353
 9818POPC   C1B61303  29.689  13.745   6.453
 9818POPC   C2B61304  29.728  13.757   6.753
 9818POPC   C3B61305  29.713  13.759   7.053
 9818POPC   C4B61306  29.772  13.759   7.353
 9819POPC   NC361307  11.273   2.771   5.553
 9819POPC   PO461308  11.345   2.724   5.853
 9819POPC   GL161309  11.270   2.789   6.153
 9819POPC   GL261310  11.244   2.686   6.153
 9819POPC   C1A61311  11.332   2.741   6.453
 9819POPC   D2A61312  11.304   2.728   6.753
 9819POPC   C3A61313  11.289   2.775   7.053
 9819POPC   C4A61314  11.345   2.752   7.353
 9819POPC   C1B61315  11.157   2.613   6.453
 9819POPC   C2B61316  11.146   2.560   6.753
 9819POPC   C3B61317  11.166   2.565   7.053
 9819POPC   C4B61318  11.075   2.556   7.353
 9820POPC   NC361319  23.729   0.426   5.553
 9820POPC   PO461320  23.731   0.453   5.853
 9820POPC   GL161321  23.704   0.487   6.153
 9820POPC   GL261322  23.661   0.318   6.153
 9820POPC   C1A61323  23.760   0.392   6.453
 9820POPC   D2A61324  23.697   0.411   6.753
 9820POPC   C3A61325  23.752   0.445   7.053
 9820POPC   C4A61326  23.677   0.487   7.353
 9820POPC   C1B61327  23.497   0.252   6.453
 9820POPC   C2B61328  23.475   0.247   6.753
 9820POPC   C3B61329  23.560   0.294   7.053
 9820POPC   C4B61330  23.508   0.276   7.353
 9821POPC   NC361331  37.635  40.008   5.553
 9821POPC   PO461332  37.651  40.014   5.853
 9821POPC   GL161333  37.656  39.999   6.153
 9821POPC   GL261334  37.713  39.906   6.153
 9821POPC   C1A61335  37.698  40.028   6.453
 9821POPC   D2A61336  37.679  40.005   6.753
 9821POPC   C3A61337  37.671  40.050   7.053
 9821POPC   C4A61338  37.644  40.047   7.353
 9821POPC   C1B61339  37.685  39.769   6.453
 9821POPC   C2B61340  37.633  39.732   6.753
 9821POPC   C3B61341  37.610  39.740   7.053
 9821POPC   C4B61342  37.681  39.768   7.353
 9822POPC   NC361343  42.322  35.394   5.553
 9822POPC   PO461344  42.360  35.385   5.853
 9822POPC   GL161345  42.333  35.318   6.153
 9822POPC   GL261346  42.343  35.226   6.153
 9822POPC   C1A61347  42.287  35.333   6.453
 9822POPC   D2A61348  42.301  35.309   6.753
 9822POPC   C3A61349  42.307  35.330   7.053
 9822POPC   C4A61350  42.328  35.355   7.353
 9822POPC   C1B61351  42.278  35.066   6.453
 9822POPC   C2B61352  42.245  35.130   6.753
 9822POPC   C3B61353  42.272  35.129   7.053
 9822POPC   C4B61354  42.228  35.073   7.353
 9823POPC   NC361355  43.151  37.696   5.553
 9823POPC   PO461356  43.137  37.652   5.853
 9823POPC   GL161357  43.084  37.634   6.153
 9823POPC   GL261358  43.156  37.574   6.153
 9823POPC   C1A61359  43.074  37.654   6.453
 9823POPC   D2A61360  43.062  37.715   6.753
 9823POPC   C3A61361  43.067  37.695   7.053
 9823POPC   C4A61362  43.102  37.648   7.353
 9823POPC   C1B61363  43.223  37.484   6.453
 9823POPC   C2B61364  43.213  37.489   6.753
 9823POPC   C3B61365  43.236  37.409   7.053
 9823POPC   C4B61366  43.213  37.456   7.353
 9824POPC   NC361367  30.683  43.846   5.553
 9824POPC   PO461368  30.689  43.933   5.853
 9824POPC   GL161369  30.650  43.894   6.153
 9824POPC   GL261370  30.765  43.842   6.153
 9824POPC   C1A61371  30.687  43.935   6.453
 9824POPC   D2A61372  30.677  43.862   6.753
 9824POPC   C3A61373  30.745  43.892   7.053
 9824POPC   C4A61374  30.660  43.877   7.353
 9824POPC   C1B61375  30.919  43.716   6.453
 9824POPC   C2B61376  30.958  43.775   6.753
 9824POPC   C3B61377  30.893  43.724   7.053
 9824POPC   C4B61378  30.949  43.773   7.353
 9825POPC   NC361379  40.799  36.883   5.553
 9825POPC   PO461380  40.740  36.911   5.853
 9825POPC   GL161381  40.809  36.872   6.153
 9825POPC   GL261382  40.889  37.057   6.153
 9825POPC   C1A61383  40.786  36.888   6.453
 9825POPC   D2A61384  40.788  36.873   6.753
 9825POPC   C3A61385  40.742  36.913   7.053
 9825POPC   C4A61386  40.798  36.932   7.353
 9825POPC   C1B61387  40.942  37.126   6.453
 9825POPC   C2B61388  40.882  37.078   6.753
 9825POPC   C3B61389  40.939  37.129   7.053
 9825POPC   C4B61390  40.900  37.099   7.353
 9826POPC   NC361391   8.190  19.826   5.553
 9826POPC   PO461392   8.216  19.800   5.853
 9826POPC   GL161393   8.150  19.815   6.153
 9826POPC   GL261394   8.222  19.944   6.153
 9826POPC   C1A61395   8.234  19.806   6.453
 9826POPC   D2A61396   8.165  19.852   6.753
 9826POPC   C3A61397   8.224  19.819   7.053
 9826POPC   C4A61398   8.189  19.844   7.353
 9826POPC   C1B61399   8.366  20.036   6.453
 9826POPC   C2B61400   8.301  20.094   6.753
 9826POPC   C3B61401   8.319  20.052   7.053
 9826POPC   C4B61402   8.349  20.002   7.353
 9827POPC   NC361403   9.011  42.308   5.553
 9827POPC   PO461404   8.953  42.356   5.853
 9827POPC   GL161405   8.946  42.360   6.153
 9827POPC   GL261406   9.064  42.323   6.153
 9827POPC   C1A61407   8.937  42.381   6.453
 9827POPC   D2A61408   9.007  42.371   6.753
 9827POPC   C3A61409   8.925  42.360   7.053
 9827POPC   C4A61410   8.958  42.375   7.353
 9827POPC   C1B61411   9.230  42.261   6.453
 9827POPC   C2B61412   9.204  42.235   6.753
 9827POPC   C3B61413   9.235  42.218   7.053
 9827POPC   C4B61414   9.201  42.221   7.353
 9828POPC   NC361415   1.993  44.650   5.553
 9828POPC   PO461416   2.002  44.668   5.853
 9828POPC   GL161417   2.020  44.625   6.153
 9828POPC   GL261418   1.989  44.822   6.153
 9828POPC   C1A61419   2.024  44.652   6.453
 9828POPC   D2A61420   1.959  44.639   6.753
 9828POPC   C3A61421   2.004  44.625   7.053
 9828POPC   C4A61422   1.940  44.707   7.353
 9828POPC   C1B61423   1.977  44.908   6.453
 9828POPC   C2B61424   1.995  44.957   6.753
 9828POPC   C3B61425   1.920  44.934   7.053
 9828POPC   C4B61426   1.905  44.953   7.353
 9829POPC   NC361427  42.341  29.138   5.553
 9829POPC   PO461428  42.308  29.109   5.853
 9829POPC   GL161429  42.323  29.176   6.153
 9829POPC   GL261430  42.265  29.095   6.153
 9829POPC   C1A61431  42.350  29.150   6.453
 9829POPC   D2A61432  42.304  29.193   6.753
 9829POPC   C3A61433  42.361  29.128   7.053
 9829POPC   C4A61434  42.343  29.176   7.353
 9829POPC   C1B61435  42.133  29.013   6.453
 9829POPC   C2B61436  42.186  28.966   6.753
 9829POPC   C3B61437  42.112  28.938   7.053
 9829POPC   C4B61438  42.167  29.025   7.353
 9830POPC   NC361439  23.745  31.429   5.553
 9830POPC   PO461440  23.706  31.478   5.853
 9830POPC   GL161441  23.756  31.439   6.153
 9830POPC   GL261442  23.604  31.410   6.153
 9830POPC   C1A61443  23.734  31.498   6.453
 9830POPC   D2A61444  23.698  31.515   6.753
 9830POPC   C3A61445  23.684  31.462   7.053
 9830POPC   C4A61446  23.696  31.455   7.353
 9830POPC   C1B61447  23.500  31.284   6.453
 9830POPC   C2B61448  23.505  31.269   6.753
 9830POPC   C3B61449  23.516  31.321   7.053
 9830POPC   C4B61450  23.576  31.288   7.353
 9831POPC   NC361451   2.758  23.705   5.553
 9831POPC   PO461452   2.755  23.755   5.853
 9831POPC   GL161453   2.809  23.720   6.153
 9831POPC   GL261454   2.887  23.830   6.153
 9831POPC   C1A61455   2.788  23.709   6.453
 9831POPC   D2A61456   2.727  23.665   6.753
 9831POPC   C3A61457   2.802  23.740   7.053
 9831POPC   C4A61458   2.793  23.757   7.353
 9831POPC   C1B61459   2.968  23.919   6.453
 9831POPC   C2B61460   2.937  23.889   6.753
 9831POPC   C3B61461   2.986  23.833   7.053
 9831POPC   C4B61462   2.942  23.863   7.353
 9832POPC   NC361463  12.821  16.775   5.553
 9832POPC   PO461464  12.822  16.699   5.853
 9832POPC   GL161465  12.869  16.717   6.153
 9832POPC   GL261466  12.824  16.663   6.153
 9832POPC   C1A61467  12.816  16.692   6.453
 9832POPC   D2A61468  12.839  16.682   6.753
 9832POPC   C3A61469  12.844  16.765   7.053
 9832POPC   C4A61470  12.826  16.687   7.353
 9832POPC   C1B61471  12.733  16.496   6.453
 9832POPC   C2B61472  12.728  16.537   6.753
 9832POPC   C3B61473  12.760  16.493   7.053
 9832POPC   C4B61474  12.705  16.481   7.353
 9833POPC   NC361475   2.797  29.888   5.553
 9833POPC   PO461476   2.725  29.948   5.853
 9833POPC   GL161477   2.760  29.896   6.153
 9833POPC   GL261478   2.745  29.822   6.153
 9833POPC   C1A61479   2.814  29.878   6.453
 9833POPC   D2A61480   2.786  29.889   6.753
 9833POPC   C3A61481   2.731  29.879   7.053
 9833POPC   C4A61482   2.737  29.900   7.353
 9833POPC   C1B61483   2.707  29.693   6.453
 9833POPC   C2B61484   2.755  29.680   6.753
 9833POPC   C3B61485   2.721  29.700   7.053
 9833POPC   C4B61486   2.703  29.649   7.353
 9834POPC   NC361487   1.247   8.224   5.553
 9834POPC   PO461488   1.184   8.228   5.853
 9834POPC   GL161489   1.227   8.246   6.153
 9834POPC   GL261490   1.084   8.164   6.153
 9834POPC   C1A61491   1.224   8.204   6.453
 9834POPC   D2A61492   1.217   8.206   6.753
 9834POPC   C3A61493   1.188   8.201   7.053
 9834POPC   C4A61494   1.225   8.239   7.353
 9834POPC   C1B61495   0.974   8.085   6.453
 9834POPC   C2B61496   0.934   8.053   6.753
 9834POPC   C3B61497   0.989   8.079   7.053
 9834POPC   C4B61498   0.952   8.084   7.353
 9835POPC   NC361499  21.417  10.511   5.553
 9835POPC   PO461500  21.383  10.574   5.853
 9835POPC   GL161501  21.356  10.533   6.153
 9835POPC   GL261502  21.310  10.470   6.153
 9835POPC   C1A61503  21.396  10.516   6.453
 9835POPC   D2A61504  21.394  10.508   6.753
 9835POPC   C3A61505  21.344  10.498   7.053
 9835POPC   C4A61506  21.404  10.482   7.353
 9835POPC   C1B61507  21.199  10.412   6.453
 9835POPC   C2B61508  21.173  10.354   6.753
 9835POPC   C3B61509  21.221  10.352   7.053
 9835POPC   C4B61510  21.218  10.370   7.353
 9836POPC   NC361511   6.677  26.001   5.553
 9836POPC   PO461512   6.609  26.072   5.853
 9836POPC   GL161513   6.643  26.049   6.153
 9836POPC   GL261514   6.619  25.887   6.153
 9836POPC   C1A61515   6.634  26.020   6.453
 9836POPC   D2A61516   6.621  26.053   6.753
 9836POPC   C3A61517   6.621  26.031   7.053
 9836POPC   C4A61518   6.649  26.042   7.353
 9836POPC   C1B61519   6.648  25.808   6.453
 9836POPC   C2B61520   6.644  25.817   6.753
 9836POPC   C3B61521   6.666  25.839   7.053
 9836POPC   C4B61522   6.589  25.797   7.353
 9837POPC   NC361523  25.281  36.156   5.553
 9837POPC   PO461524  25.281  36.157   5.853
 9837POPC   GL161525  25.223  36.151   6.153
 9837POPC   GL261526  25.192  36.029   6.153
 9837POPC   C1A61527  25.299  36.119   6.453
 9837POPC   D2A61528  25.270  36.166   6.753
 9837POPC   C3A61529  25.243  36.143   7.053
 9837POPC   C4A61530  25.218  36.099   7.353
 9837POPC   C1B61531  25.118  35.927   6.453
 9837POPC   C2B61532  25.065  35.955   6.753
 9837POPC   C3B61533  25.093  35.931   7.053
 9837POPC   C4B61534  25.053  35.974   7.353
 9838POPC   NC361535  20.628  23.711   5.553
 9838POPC   PO461536  20.615  23.692   5.853
 9838POPC   GL161537  20.608  23.737   6.153
 9838POPC   GL261538  20.606  23.637   6.153
 9838POPC   C1A61539  20.638  23.731   6.453
 9838POPC   D2A61540  20.609  23.693   6.753
 9838POPC   C3A61541  20.634  23.717   7.053
 9838POPC   C4A61542  20.636  23.723   7.353
 9838POPC   C1B61543  20.584  23.446   6.453
 9838POPC   C2B61544  20.597  23.450   6.753
 9838POPC   C3B61545  20.519  23.495   7.053
 9838POPC   C4B61546  20.525  23.487   7.353
 9839POPC   NC361547  32.269   0.436   5.553
 9839POPC   PO461548  32.204   0.410   5.853
 9839POPC   GL161549  32.288   0.396   6.153
 9839POPC   GL261550  32.325   0.547   6.153
 9839POPC   C1A61551  32.262   0.439   6.453
 9839POPC   D2A61552  32.208   0.458   6.753
 9839POPC   C3A61553  32.293   0.436   7.053
 9839POPC   C4A61554  32.238   0.457   7.353
 9839POPC   C1B61555  32.273   0.637   6.453
 9839POPC   C2B61556  32.287   0.728   6.753
 9839POPC   C3B61557  32.351   0.692   7.053
 9839POPC   C4B61558  32.259   0.691   7.353
 9840POPC   NC361559  22.919  14.451   5.553
 9840POPC   PO461560  22.931  14.358   5.853
 9840POPC   GL161561  22.899  14.417   6.153
 9840POPC   GL261562  23.012  14.338   6.153
 9840POPC   C1A61563  22.897  14.378   6.453
 9840POPC   D2A61564  22.946  14.398   6.753
 9840POPC   C3A61565  22.949  14.450   7.053
 9840POPC   C4A61566  22.970  14.374   7.353
 9840POPC   C1B61567  23.141  14.190   6.453
 9840POPC   C2B61568  23.139  14.212   6.753
 9840POPC   C3B61569  23.091  14.214   7.053
 9840POPC   C4B61570  23.132  14.187   7.353
 9841POPC   NC361571   1.221  36.864   5.553
 9841POPC   PO461572   1.182  36.868   5.853
 9841POPC   GL161573   1.177  36.864   6.153
 9841POPC   GL261574   1.085  36.980   6.153
 9841POPC   C1A61575   1.223  36.870   6.453
 9841POPC   D2A61576   1.263  36.895   6.753
 9841POPC   C3A61577   1.227  36.895   7.053
 9841POPC   C4A61578   1.218  36.926   7.353
 9841POPC   C1B61579   1.008  37.074   6.453
 9841POPC   C2B61580   1.061  37.062   6.753
 9841POPC   C3B61581   1.027  37.080   7.053
 9841POPC   C4B61582   1.001  37.115   7.353
 9842POPC   NC361583  29.194  11.255   5.553
 9842POPC   PO461584  29.129  11.329   5.853
 9842POPC   GL161585  29.183  11.298   6.153
 9842POPC   GL261586  29.093  11.145   6.153
 9842POPC   C1A61587  29.127  11.266   6.453
 9842POPC   D2A61588  29.191  11.272   6.753
 9842POPC   C3A61589  29.173  11.332   7.053
 9842POPC   C4A61590  29.151  11.342   7.353
 9842POPC   C1B61591  29.035  11.078   6.453
 9842POPC   C2B61592  29.013  11.050   6.753
 9842POPC   C3B61593  29.065  11.080   7.053
 9842POPC   C4B61594  29.030  11.062   7.353
 9843POPC   NC361595   0.464  40.765   5.553
 9843POPC   PO461596   0.464  40.735   5.853
 9843POPC   GL161597   0.446  40.751   6.153
 9843POPC   GL261598   0.367  40.916   6.153
 9843POPC   C1A61599   0.457  40.763   6.453
 9843POPC   D2A61600   0.428  40.742   6.753
 9843POPC   C3A61601   0.389  40.746   7.053
 9843POPC   C4A61602   0.389  40.807   7.353
 9843POPC   C1B61603   0.399  41.009   6.453
 9843POPC   C2B61604   0.419  41.026   6.753
 9843POPC   C3B61605   0.361  41.078   7.053
 9843POPC   C4B61606   0.430  41.022   7.353
 9844POPC   NC361607   1.978  12.102   5.553
 9844POPC   PO461608   1.952  12.084   5.853
 9844POPC   GL161609   1.953  12.057   6.153
 9844POPC   GL261610   2.142  12.159   6.153
 9844POPC   C1A61611   2.014  12.038   6.453
 9844POPC   D2A61612   1.976  12.061   6.753
 9844POPC   C3A61613   1.959  12.094   7.053
 9844POPC   C4A61614   1.945  12.090   7.353
 9844POPC   C1B61615   2.169  12.154   6.453
 9844POPC   C2B61616   2.212  12.206   6.753
 9844POPC   C3B61617   2.208  12.184   7.053
 9844POPC   C4B61618   2.236  12.208   7.353
 9845POPC   NC361619  12.868  30.742   5.553
 9845POPC   PO461620  12.876  30.683   5.853
 9845POPC   GL161621  12.861  30.654   6.153
 9845POPC   GL261622  12.825  30.791   6.153
 9845POPC   C1A61623  12.823  30.721   6.453
 9845POPC   D2A61624  12.868  30.681   6.753
 9845POPC   C3A61625  12.871  30.743   7.053
 9845POPC   C4A61626  12.856  30.741   7.353
 9845POPC   C1B61627  12.672  30.936   6.453
 9845POPC   C2B61628  12.743  30.910   6.753
 9845POPC   C3B61629  12.682  30.858   7.053
 9845POPC   C4B61630  12.661  30.930   7.353
 9846POPC   NC361631  26.049  35.375   5.553
 9846POPC   PO461632  26.030  35.397   5.853
 9846POPC   GL161633  26.042  35.346   6.153
 9846POPC   GL261634  26.145  35.410   6.153
 9846POPC   C1A61635  26.053  35.381   6.453
 9846POPC   D2A61636  26.059  35.352   6.753
 9846POPC   C3A61637  26.086  35.350   7.053
 9846POPC   C4A61638  26.074  35.344   7.353
 9846POPC   C1B61639  26.236  35.419   6.453
 9846POPC   C2B61640  26.281  35.416   6.753
 9846POPC   C3B61641  26.295  35.415   7.053
 9846POPC   C4B61642  26.253  35.484   7.353
 9847POPC   NC361643   8.199  17.483   5.553
 9847POPC   PO461644   8.153  17.539   5.853
 9847POPC   GL161645   8.216  17.507   6.153
 9847POPC   GL261646   8.293  17.474   6.153
 9847POPC   C1A61647   8.231  17.554   6.453
 9847POPC   D2A61648   8.227  17.557   6.753
 9847POPC   C3A61649   8.230  17.496   7.053
 9847POPC   C4A61650   8.182  17.515   7.353
 9847POPC   C1B61651   8.467  17.488   6.453
 9847POPC   C2B61652   8.419  17.419   6.753
 9847POPC   C3B61653   8.435  17.443   7.053
 9847POPC   C4B61654   8.407  17.491   7.353
 9848POPC   NC361655  16.687  29.935   5.553
 9848POPC   PO461656  16.694  29.937   5.853
 9848POPC   GL161657  16.773  29.932   6.153
 9848POPC   GL261658  16.840  29.993   6.153
 9848POPC   C1A61659  16.774  29.899   6.453
 9848POPC   D2A61660  16.696  29.891   6.753
 9848POPC   C3A61661  16.774  29.882   7.053
 9848POPC   C4A61662  16.776  29.911   7.353
 9848POPC   C1B61663  16.994  30.005   6.453
 9848POPC   C2B61664  16.942  30.079   6.753
 9848POPC   C3B61665  17.003  29.996   7.053
 9848POPC   C4B61666  16.945  30.015   7.353
 9849POPC   NC361667  12.054  15.165   5.553
 9849POPC   PO461668  12.094  15.189   5.853
 9849POPC   GL161669  12.068  15.145   6.153
 9849POPC   GL261670  12.125  15.019   6.153
 9849POPC   C1A61671  12.074  15.209   6.453
 9849POPC   D2A61672  12.030  15.220   6.753
 9849POPC   C3A61673  12.069  15.154   7.053
 9849POPC   C4A61674  12.046  15.153   7.353
 9849POPC   C1B61675  12.101  14.888   6.453
 9849POPC   C2B61676  12.148  14.965   6.753
 9849POPC   C3B61677  12.133  14.964   7.053
 9849POPC   C4B61678  12.067  14.924   7.353
 9850POPC   NC361679   6.668   8.995   5.553
 9850POPC   PO461680   6.686   8.963   5.853
 9850POPC   GL161681   6.660   8.967   6.153
 9850POPC   GL261682   6.635   9.087   6.153
 9850POPC   C1A61683   6.641   8.963   6.453
 9850POPC   D2A61684   6.652   8.993   6.753
 9850POPC   C3A61685   6.689   8.932   7.053
 9850POPC   C4A61686   6.595   8.933   7.353
 9850POPC   C1B61687   6.588   9.200   6.453
 9850POPC   C2B61688   6.596   9.198   6.753
 9850POPC   C3B61689   6.604   9.228   7.053
 9850POPC   C4B61690   6.594   9.211   7.353
 9851POPC   NC361691  31.488  24.442   5.553
 9851POPC   PO461692  31.522  24.534   5.853
 9851POPC   GL161693  31.483  24.501   6.153
 9851POPC   GL261694  31.597  24.442   6.153
 9851POPC   C1A61695  31.433  24.505   6.453
 9851POPC   D2A61696  31.433  24.453   6.753
 9851POPC   C3A61697  31.465  24.536   7.053
 9851POPC   C4A61698  31.516  24.457   7.353
 9851POPC   C1B61699  31.701  24.383   6.453
 9851POPC   C2B61700  31.705  24.379   6.753
 9851POPC   C3B61701  31.674  24.394   7.053
 9851POPC   C4B61702  31.741  24.409   7.353
 9852POPC   NC361703  19.824  36.905   5.553
 9852POPC   PO461704  19.838  36.945   5.853
 9852POPC   GL161705  19.803  36.872   6.153
 9852POPC   GL261706  19.873  36.734   6.153
 9852POPC   C1A61707  19.792  36.866   6.453
 9852POPC   D2A61708  19.828  36.904   6.753
 9852POPC   C3A61709  19.815  36.943   7.053
 9852POPC   C4A61710  19.848  36.926   7.353
 9852POPC   C1B61711  19.860  36.613   6.453
 9852POPC   C2B61712  19.855  36.647   6.753
 9852POPC   C3B61713  19.806  36.616   7.053
 9852POPC   C4B61714  19.803  36.624   7.353
 9853POPC   NC361715  23.693  15.928   5.553
 9853POPC   PO461716  23.723  15.917   5.853
 9853POPC   GL161717  23.730  15.966   6.153
 9853POPC   GL261718  23.591  15.944   6.153
 9853POPC   C1A61719  23.723  15.994   6.453
 9853POPC   D2A61720  23.666  15.918   6.753
 9853POPC   C3A61721  23.691  15.964   7.053
 9853POPC   C4A61722  23.722  15.975   7.353
 9853POPC   C1B61723  23.459  15.985   6.453
 9853POPC   C2B61724  23.427  15.981   6.753
 9853POPC   C3B61725  23.456  16.025   7.053
 9853POPC   C4B61726  23.438  15.966   7.353
 9854POPC   NC361727  44.660  43.839   5.553
 9854POPC   PO461728  44.621  43.904   5.853
 9854POPC   GL161729  44.618  43.922   6.153
 9854POPC   GL261730  44.566  43.933   6.153
 9854POPC   C1A61731  44.637  43.856   6.453
 9854POPC   D2A61732  44.633  43.837   6.753
 9854POPC   C3A61733  44.664  43.877   7.053
 9854POPC   C4A61734  44.710  43.839   7.353
 9854POPC   C1B61735  44.477  43.942   6.453
 9854POPC   C2B61736  44.437  43.976   6.753
 9854POPC   C3B61737  44.395  43.953   7.053
 9854POPC   C4B61738  44.432  43.945   7.353
 9855POPC   NC361739   2.717  20.641   5.553
 9855POPC   PO461740   2.784  20.626   5.853
 9855POPC   GL161741   2.800  20.649   6.153
 9855POPC   GL261742   2.666  20.721   6.153
 9855POPC   C1A61743   2.780  20.562   6.453
 9855POPC   D2A61744   2.726  20.598   6.753
 9855POPC   C3A61745   2.808  20.613   7.053
 9855POPC   C4A61746   2.722  20.575   7.353
 9855POPC   C1B61747   2.570  20.790   6.453
 9855POPC   C2B61748   2.607  20.822   6.753
 9855POPC   C3B61749   2.572  20.806   7.053
 9855POPC   C4B61750   2.625  20.818   7.353
 9856POPC   NC361751  44.677  11.315   5.553
 9856POPC   PO461752  44.623  11.260   5.853
 9856POPC   GL161753  44.616  11.331   6.153
 9856POPC   GL261754  44.728  11.285   6.153
 9856POPC   C1A61755  44.612  11.283   6.453
 9856POPC   D2A61756  44.658  11.325   6.753
 9856POPC   C3A61757  44.628  11.297   7.053
 9856POPC   C4A61758  44.676  11.335   7.353
 9856POPC   C1B61759  44.852  11.244   6.453
 9856POPC   C2B61760  44.850  11.212   6.753
 9856POPC   C3B61761  44.874  11.172   7.053
 9856POPC   C4B61762  44.911  11.200   7.353
 9857POPC   NC361763  15.914  40.036   5.553
 9857POPC   PO461764  15.958  40.051   5.853
 9857POPC   GL161765  15.977  40.030   6.153
 9857POPC   GL261766  16.053  39.896   6.153
 9857POPC   C1A61767  15.936  40.046   6.453
 9857POPC   D2A61768  15.959  40.012   6.753
 9857POPC   C3A61769  15.998  39.968   7.053
 9857POPC   C4A61770  15.953  40.054   7.353
 9857POPC   C1B61771  16.082  39.796   6.453
 9857POPC   C2B61772  16.127  39.852   6.753
 9857POPC   C3B61773  16.134  39.825   7.053
 9857POPC   C4B61774  16.074  39.834   7.353
 9858POPC   NC361775  35.354  34.541   5.553
 9858POPC   PO461776  35.380  34.586   5.853
 9858POPC   GL161777  35.308  34.612   6.153
 9858POPC   GL261778  35.376  34.681   6.153
 9858POPC   C1A61779  35.346  34.600   6.453
 9858POPC   D2A61780  35.384  34.553   6.753
 9858POPC   C3A61781  35.367  34.528   7.053
 9858POPC   C4A61782  35.365  34.582   7.353
 9858POPC   C1B61783  35.446  34.830   6.453
 9858POPC   C2B61784  35.423  34.771   6.753
 9858POPC   C3B61785  35.420  34.782   7.053
 9858POPC   C4B61786  35.438  34.841   7.353
 9859POPC   NC361787  19.070  34.550   5.553
 9859POPC   PO461788  19.074  34.578   5.853
 9859POPC   GL161789  19.024  34.614   6.153
 9859POPC   GL261790  19.108  34.506   6.153
 9859POPC   C1A61791  19.070  34.615   6.453
 9859POPC   D2A61792  19.024  34.559   6.753
 9859POPC   C3A61793  19.105  34.567   7.053
 9859POPC   C4A61794  19.044  34.619   7.353
 9859POPC   C1B61795  19.144  34.387   6.453
 9859POPC   C2B61796  19.197  34.362   6.753
 9859POPC   C3B61797  19.167  34.376   7.053
 9859POPC   C4B61798  19.214  34.376   7.353
 9860POPC   NC361799  11.320  43.856   5.553
 9860POPC   PO461800  11.292  43.853   5.853
 9860POPC   GL161801  11.267  43.844   6.153
 9860POPC   GL261802  11.334  43.761   6.153
 9860POPC   C1A61803  11.260  43.895   6.453
 9860POPC   D2A61804  11.316  43.906   6.753
 9860POPC   C3A61805  11.288  43.849   7.053
 9860POPC   C4A61806  11.277  43.851   7.353
 9860POPC   C1B61807  11.413  43.664   6.453
 9860POPC   C2B61808  11.438  43.668   6.753
 9860POPC   C3B61809  11.452  43.665   7.053
 9860POPC   C4B61810  11.432  43.712   7.353
 9861POPC   NC361811  32.296  27.552   5.553
 9861POPC   PO461812  32.257  27.565   5.853
 9861POPC   GL161813  32.209  27.543   6.153
 9861POPC   GL261814  32.098  27.627   6.153
 9861POPC   C1A61815  32.237  27.602   6.453
 9861POPC   D2A61816  32.294  27.556   6.753
 9861POPC   C3A61817  32.245  27.608   7.053
 9861POPC   C4A61818  32.206  27.555   7.353
 9861POPC   C1B61819  32.021  27.641   6.453
 9861POPC   C2B61820  31.975  27.670   6.753
 9861POPC   C3B61821  31.986  27.683   7.053
 9861POPC   C4B61822  32.030  27.632   7.353
 9862POPC   NC361823  29.116  40.737   5.553
 9862POPC   PO461824  29.180  40.747   5.853
 9862POPC   GL161825  29.174  40.740   6.153
 9862POPC   GL261826  29.190  40.862   6.153
 9862POPC   C1A61827  29.173  40.803   6.453
 9862POPC   D2A61828  29.192  40.747   6.753
 9862POPC   C3A61829  29.145  40.737   7.053
 9862POPC   C4A61830  29.183  40.809   7.353
 9862POPC   C1B61831  29.129  41.053   6.453
 9862POPC   C2B61832  29.200  41.033   6.753
 9862POPC   C3B61833  29.145  41.037   7.053
 9862POPC   C4B61834  29.165  41.050   7.353
 9863POPC   NC361835   8.165  43.062   5.553
 9863POPC   PO461836   8.189  43.109   5.853
 9863POPC   GL161837   8.208  43.082   6.153
 9863POPC   GL261838   8.284  43.029   6.153
 9863POPC   C1A61839   8.159  43.075   6.453
 9863POPC   D2A61840   8.240  43.093   6.753
 9863POPC   C3A61841   8.179  43.088   7.053
 9863POPC   C4A61842   8.212  43.062   7.353
 9863POPC   C1B61843   8.366  42.872   6.453
 9863POPC   C2B61844   8.314  42.880   6.753
 9863POPC   C3B61845   8.273  42.912   7.053
 9863POPC   C4B61846   8.354  42.914   7.353
 9864POPC   NC361847  43.862  44.637   5.553
 9864POPC   PO461848  43.842  44.669   5.853
 9864POPC   GL161849  43.925  44.704   6.153
 9864POPC   GL261850  43.907  44.753   6.153
 9864POPC   C1A61851  43.931  44.666   6.453
 9864POPC   D2A61852  43.909  44.697   6.753
 9864POPC   C3A61853  43.874  44.691   7.053
 9864POPC   C4A61854  43.892  44.650   7.353
 9864POPC   C1B61855  43.986  44.873   6.453
 9864POPC   C2B61856  43.943  44.915   6.753
 9864POPC   C3B61857  43.952  44.862   7.053
 9864POPC   C4B61858  44.000  44.868   7.353
 9865POPC   NC361859  37.634  35.326   5.553
 9865POPC   PO461860  37.701  35.343   5.853
 9865POPC   GL161861  37.657  35.336   6.153
 9865POPC   GL261862  37.799  35.255   6.153
 9865POPC   C1A61863  37.683  35.386   6.453
 9865POPC   D2A61864  37.719  35.397   6.753
 9865POPC   C3A61865  37.665  35.390   7.053
 9865POPC   C4A61866  37.639  35.318   7.353
 9865POPC   C1B61867  37.894  35.192   6.453
 9865POPC   C2B61868  37.842  35.160   6.753
 9865POPC   C3B61869  37.892  35.192   7.053
 9865POPC   C4B61870  37.886  35.128   7.353
 9866POPC   NC361871  39.258  36.862   5.553
 9866POPC   PO461872  39.279  36.951   5.853
 9866POPC   GL161873  39.226  36.912   6.153
 9866POPC   GL261874  39.057  36.877   6.153
 9866POPC   C1A61875  39.259  36.929   6.453
 9866POPC   D2A61876  39.253  36.906   6.753
 9866POPC   C3A61877  39.218  36.925   7.053
 9866POPC   C4A61878  39.255  36.901   7.353
 9866POPC   C1B61879  38.981  36.902   6.453
 9866POPC   C2B61880  38.997  36.927   6.753
 9866POPC   C3B61881  39.014  36.851   7.053
 9866POPC   C4B61882  38.937  36.916   7.353
 9867POPC   NC361883  34.587  12.115   5.553
 9867POPC   PO461884  34.597  12.031   5.853
 9867POPC   GL161885  34.549  12.045   6.153
 9867POPC   GL261886  34.533  11.995   6.153
 9867POPC   C1A61887  34.619  12.066   6.453
 9867POPC   D2A61888  34.612  12.067   6.753
 9867POPC   C3A61889  34.567  12.122   7.053
 9867POPC   C4A61890  34.566  12.028   7.353
 9867POPC   C1B61891  34.429  11.860   6.453
 9867POPC   C2B61892  34.485  11.899   6.753
 9867POPC   C3B61893  34.412  11.856   7.053
 9867POPC   C4B61894  34.429  11.822   7.353
 9868POPC   NC361895  40.816  38.484   5.553
 9868POPC   PO461896  40.738  38.432   5.853
 9868POPC   GL161897  40.819  38.486   6.153
 9868POPC   GL261898  40.636  38.409   6.153
 9868POPC   C1A61899  40.793  38.435   6.453
 9868POPC   D2A61900  40.753  38.493   6.753
 9868POPC   C3A61901  40.817  38.442   7.053
 9868POPC   C4A61902  40.743  38.443   7.353
 9868POPC   C1B61903  40.578  38.412   6.453
 9868POPC   C2B61904  40.527  38.369   6.753
 9868POPC   C3B61905  40.527  38.381   7.053
 9868POPC   C4B61906  40.565  38.453   7.353
 9869POPC   NC361907   6.604  38.484   5.553
 9869POPC   PO461908   6.651  38.419   5.853
 9869POPC   GL161909   6.680  38.432   6.153
 9869POPC   GL261910   6.476  38.486   6.153
 9869POPC   C1A61911   6.662  38.454   6.453
 9869POPC   D2A61912   6.686  38.427   6.753
 9869POPC   C3A61913   6.689  38.479   7.053
 9869POPC   C4A61914   6.635  38.457   7.353
 9869POPC   C1B61915   6.359  38.557   6.453
 9869POPC   C2B61916   6.389  38.573   6.753
 9869POPC   C3B61917   6.452  38.559   7.053
 9869POPC   C4B61918   6.408  38.496   7.353
 9870POPC   NC361919  33.760  15.994   5.553
 9870POPC   PO461920  33.835  15.925   5.853
 9870POPC   GL161921  33.819  15.962   6.153
 9870POPC   GL261922  33.848  15.857   6.153
 9870POPC   C1A61923  33.835  15.932   6.453
 9870POPC   D2A61924  33.842  16.001   6.753
 9870POPC   C3A61925  33.798  15.938   7.053
 9870POPC   C4A61926  33.830  16.001   7.353
 9870POPC   C1B61927  33.965  15.775   6.453
 9870POPC   C2B61928  33.974  15.831   6.753
 9870POPC   C3B61929  34.013  15.821   7.053
 9870POPC   C4B61930  34.043  15.771   7.353
 9871POPC   NC361931  34.562  33.038   5.553
 9871POPC   PO461932  34.550  33.016   5.853
 9871POPC   GL161933  34.562  32.988   6.153
 9871POPC   GL261934  34.551  33.187   6.153
 9871POPC   C1A61935  34.588  33.058   6.453
 9871POPC   D2A61936  34.531  33.043   6.753
 9871POPC   C3A61937  34.541  33.040   7.053
 9871POPC   C4A61938  34.570  32.979   7.353
 9871POPC   C1B61939  34.593  33.259   6.453
 9871POPC   C2B61940  34.624  33.304   6.753
 9871POPC   C3B61941  34.590  33.239   7.053
 9871POPC   C4B61942  34.623  33.290   7.353
 9872POPC   NC361943  29.949  44.660   5.553
 9872POPC   PO461944  29.962  44.707   5.853
 9872POPC   GL161945  29.934  44.661   6.153
 9872POPC   GL261946  30.089  44.669   6.153
 9872POPC   C1A61947  29.910  44.619   6.453
 9872POPC   D2A61948  29.914  44.648   6.753
 9872POPC   C3A61949  29.924  44.657   7.053
 9872POPC   C4A61950  29.933  44.665   7.353
 9872POPC   C1B61951  30.162  44.714   6.453
 9872POPC   C2B61952  30.138  44.682   6.753
 9872POPC   C3B61953  30.182  44.667   7.053
 9872POPC   C4B61954  30.186  44.665   7.353
 9873POPC   NC361955  33.037  28.367   5.553
 9873POPC   PO461956  33.020  28.322   5.853
 9873POPC   GL161957  33.059  28.371   6.153
 9873POPC   GL261958  32.982  28.239   6.153
 9873POPC   C1A61959  33.059  28.375   6.453
 9873POPC   D2A61960  32.999  28.367   6.753
 9873POPC   C3A61961  33.056  28.415   7.053
 9873POPC   C4A61962  33.010  28.391   7.353
 9873POPC   C1B61963  32.996  28.100   6.453
 9873POPC   C2B61964  33.011  28.134   6.753
 9873POPC   C3B61965  33.048  28.163   7.053
 9873POPC   C4B61966  32.978  28.110   7.353
 9874POPC   NC361967  30.714   0.397   5.553
 9874POPC   PO461968  30.699   0.466   5.853
 9874POPC   GL161969  30.661   0.478   6.153
 9874POPC   GL261970  30.699   0.546   6.153
 9874POPC   C1A61971  30.667   0.438   6.453
 9874POPC   D2A61972  30.652   0.469   6.753
 9874POPC   C3A61973  30.732   0.477   7.053
 9874POPC   C4A61974  30.703   0.464   7.353
 9874POPC   C1B61975  30.785   0.728   6.453
 9874POPC   C2B61976  30.779   0.662   6.753
 9874POPC   C3B61977  30.764   0.661   7.053
 9874POPC   C4B61978  30.757   0.720   7.353
 9875POPC   NC361979   7.460  25.257   5.553
 9875POPC   PO461980   7.413  25.267   5.853
 9875POPC   GL161981   7.447  25.304   6.153
 9875POPC   GL261982   7.532  25.291   6.153
 9875POPC   C1A61983   7.427  25.216   6.453
 9875POPC   D2A61984   7.375  25.283   6.753
 9875POPC   C3A61985   7.396  25.308   7.053
 9875POPC   C4A61986   7.452  25.273   7.353
 9875POPC   C1B61987   7.665  25.352   6.453
 9875POPC   C2B61988   7.694  25.360   6.753
 9875POPC   C3B61989   7.664  25.357   7.053
 9875POPC   C4B61990   7.648  25.326   7.353
 9876POPC   NC361991  30.692  27.604   5.553
 9876POPC   PO461992  30.668  27.573   5.853
 9876POPC   GL161993  30.677  27.569   6.153
 9876POPC   GL261994  30.594  27.525   6.153
 9876POPC   C1A61995  30.666  27.637   6.453
 9876POPC   D2A61996  30.741  27.616   6.753
 9876POPC   C3A61997  30.736  27.569   7.053
 9876POPC   C4A61998  30.719  27.594   7.353
 9876POPC   C1B61999  30.587  27.351   6.453
 9876POPC   C2B62000  30.515  27.365   6.753
 9876POPC   C3B62001  30.584  27.412   7.053
 9876POPC   C4B62002  30.556  27.365   7.353
 9877POPC   NC362003  19.840  32.287   5.553
 9877POPC   PO462004  19.871  32.210   5.853
 9877POPC   GL162005  19.865  32.278   6.153
 9877POPC   GL262006  19.779  32.111   6.153
 9877POPC   C1A62007  19.841  32.229   6.453
 9877POPC   D2A62008  19.838  32.219   6.753
 9877POPC   C3A62009  19.874  32.211   7.053
 9877POPC   C4A62010  19.800  32.241   7.353
 9877POPC   C1B62011  19.705  32.006   6.453
 9877POPC   C2B62012  19.684  32.027   6.753
 9877POPC   C3B62013  19.687  32.003   7.053
 9877POPC   C4B62014  19.748  31.981   7.353
 9878POPC   NC362015  40.010  28.332   5.553
 9878POPC   PO462016  39.981  28.342   5.853
 9878POPC   GL162017  40.019  28.385   6.153
 9878POPC   GL262018  39.876  28.261   6.153
 9878POPC   C1A62019  40.029  28.334   6.453
 9878POPC   D2A62020  40.057  28.414   6.753
 9878POPC   C3A62021  40.032  28.378   7.053
 9878POPC   C4A62022  40.045  28.342   7.353
 9878POPC   C1B62023  39.848  28.190   6.453
 9878POPC   C2B62024  39.827  28.169   6.753
 9878POPC   C3B62025  39.789  28.184   7.053
 9878POPC   C4B62026  39.842  28.227   7.353
 9879POPC   NC362027  16.002  41.585   5.553
 9879POPC   PO462028  15.983  41.545   5.853
 9879POPC   GL162029  15.958  41.530   6.153
 9879POPC   GL262030  16.108  41.584   6.153
 9879POPC   C1A62031  15.972  41.565   6.453
 9879POPC   D2A62032  15.998  41.513   6.753
 9879POPC   C3A62033  15.938  41.581   7.053
 9879POPC   C4A62034  15.955  41.603   7.353
 9879POPC   C1B62035  16.210  41.676   6.453
 9879POPC   C2B62036  16.165  41.634   6.753
 9879POPC   C3B62037  16.177  41.640   7.053
 9879POPC   C4B62038  16.137  41.636   7.353
 9880POPC   NC362039   3.591  21.421   5.553
 9880POPC   PO462040   3.575  21.389   5.853
 9880POPC   GL162041   3.586  21.376   6.153
 9880POPC   GL262042   3.489  21.449   6.153
 9880POPC   C1A62043   3.545  21.403   6.453
 9880POPC   D2A62044   3.531  21.378   6.753
 9880POPC   C3A62045   3.528  21.408   7.053
 9880POPC   C4A62046   3.560  21.387   7.353
 9880POPC   C1B62047   3.363  21.575   6.453
 9880POPC   C2B62048   3.396  21.568   6.753
 9880POPC   C3B62049   3.368  21.527   7.053
 9880POPC   C4B62050   3.339  21.548   7.353
 9881POPC   NC362051   5.125  35.304   5.553
 9881POPC   PO462052   5.103  35.379   5.853
 9881POPC   GL162053   5.056  35.380   6.153
 9881POPC   GL262054   5.236  35.328   6.153
 9881POPC   C1A62055   5.126  35.322   6.453
 9881POPC   D2A62056   5.129  35.315   6.753
 9881POPC   C3A62057   5.123  35.329   7.053
 9881POPC   C4A62058   5.075  35.351   7.353
 9881POPC   C1B62059   5.287  35.242   6.453
 9881POPC   C2B62060   5.351  35.308   6.753
 9881POPC   C3B62061   5.307  35.305   7.053
 9881POPC   C4B62062   5.285  35.280   7.353
 9882POPC   NC362063  39.197  20.606   5.553
 9882POPC   PO462064  39.236  20.574   5.853
 9882POPC   GL162065  39.249  20.616   6.153
 9882POPC   GL262066  39.104  20.720   6.153
 9882POPC   C1A62067  39.263  20.605   6.453
 9882POPC   D2A62068  39.229  20.606   6.753
 9882POPC   C3A62069  39.194  20.647   7.053
 9882POPC   C4A62070  39.202  20.635   7.353
 9882POPC   C1B62071  39.029  20.711   6.453
 9882POPC   C2B62072  39.048  20.758   6.753
 9882POPC   C3B62073  39.058  20.780   7.053
 9882POPC   C4B62074  39.010  20.784   7.353
 9883POPC   NC362075   5.046  33.847   5.553
 9883POPC   PO462076   5.046  33.841   5.853
 9883POPC   GL162077   5.108  33.752   6.153
 9883POPC   GL262078   4.993  33.697   6.153
 9883POPC   C1A62079   5.123  33.796   6.453
 9883POPC   D2A62080   5.079  33.829   6.753
 9883POPC   C3A62081   5.120  33.769   7.053
 9883POPC   C4A62082   5.139  33.778   7.353
 9883POPC   C1B62083   4.982  33.538   6.453
 9883POPC   C2B62084   4.993  33.532   6.753
 9883POPC   C3B62085   4.960  33.529   7.053
 9883POPC   C4B62086   4.989  33.595   7.353
 9884POPC   NC362087  19.819   0.482   5.553
 9884POPC   PO462088  19.858   0.419   5.853
 9884POPC   GL162089  19.799   0.487   6.153
 9884POPC   GL262090  19.995   0.478   6.153
 9884POPC   C1A62091  19.820   0.431   6.453
 9884POPC   D2A62092  19.869   0.413   6.753
 9884POPC   C3A62093  19.805   0.448   7.053
 9884POPC   C4A62094  19.808   0.485   7.353
 9884POPC   C1B62095  20.110   0.496   6.453
 9884POPC   C2B62096  20.037   0.561   6.753
 9884POPC   C3B62097  20.096   0.476   7.053
 9884POPC   C4B62098  20.070   0.571   7.353
 9885POPC   NC362099   5.121  20.644   5.553
 9885POPC   PO462100   5.124  20.586   5.853
 9885POPC   GL162101   5.086  20.627   6.153
 9885POPC   GL262102   4.963  20.679   6.153
 9885POPC   C1A62103   5.110  20.568   6.453
 9885POPC   D2A62104   5.111  20.639   6.753
 9885POPC   C3A62105   5.067  20.590   7.053
 9885POPC   C4A62106   5.057  20.657   7.353
 9885POPC   C1B62107   4.831  20.734   6.453
 9885POPC   C2B62108   4.831  20.767   6.753
 9885POPC   C3B62109   4.914  20.740   7.053
 9885POPC   C4B62110   4.838  20.689   7.353
 9886POPC   NC362111  32.260  24.535   5.553
 9886POPC   PO462112  32.215  24.529   5.853
 9886POPC   GL162113  32.208  24.531   6.153
 9886POPC   GL262114  32.376  24.621   6.153
 9886POPC   C1A62115  32.253  24.514   6.453
 9886POPC   D2A62116  32.215  24.491   6.753
 9886POPC   C3A62117  32.203  24.533   7.053
 9886POPC   C4A62118  32.238  24.467   7.353
 9886POPC   C1B62119  32.445  24.713   6.453
 9886POPC   C2B62120  32.403  24.672   6.753
 9886POPC   C3B62121  32.471  24.657   7.053
 9886POPC   C4B62122  32.396  24.619   7.353
 9887POPC   NC362123   8.196  19.019   5.553
 9887POPC   PO462124   8.232  19.066   5.853
 9887POPC   GL162125   8.163  19.014   6.153
 9887POPC   GL262126   8.137  19.144   6.153
 9887POPC   C1A62127   8.191  19.090   6.453
 9887POPC   D2A62128   8.242  19.010   6.753
 9887POPC   C3A62129   8.201  19.104   7.053
 9887POPC   C4A62130   8.184  19.038   7.353
 9887POPC   C1B62131   8.081  19.247   6.453
 9887POPC   C2B62132   8.080  19.270   6.753
 9887POPC   C3B62133   8.093  19.287   7.053
 9887POPC   C4B62134   8.084  19.291   7.353
 9888POPC   NC362135  17.551  22.903   5.553
 9888POPC   PO462136  17.545  22.955   5.853
 9888POPC   GL162137  17.493  22.977   6.153
 9888POPC   GL262138  17.581  22.881   6.153
 9888POPC   C1A62139  17.555  22.938   6.453
 9888POPC   D2A62140  17.543  22.975   6.753
 9888POPC   C3A62141  17.492  22.924   7.053
 9888POPC   C4A62142  17.472  22.985   7.353
 9888POPC   C1B62143  17.767  22.818   6.453
 9888POPC   C2B62144  17.772  22.863   6.753
 9888POPC   C3B62145  17.727  22.871   7.053
 9888POPC   C4B62146  17.692  22.829   7.353
 9889POPC   NC362147  15.225  27.602   5.553
 9889POPC   PO462148  15.141  27.555   5.853
 9889POPC   GL162149  15.176  27.633   6.153
 9889POPC   GL262150  15.046  27.569   6.153
 9889POPC   C1A62151  15.156  27.600   6.453
 9889POPC   D2A62152  15.150  27.587   6.753
 9889POPC   C3A62153  15.146  27.593   7.053
 9889POPC   C4A62154  15.186  27.614   7.353
 9889POPC   C1B62155  14.924  27.560   6.453
 9889POPC   C2B62156  14.922  27.490   6.753
 9889POPC   C3B62157  14.915  27.500   7.053
 9889POPC   C4B62158  14.896  27.561   7.353
 9890POPC   NC362159  22.168  29.103   5.553
 9890POPC   PO462160  22.180  29.152   5.853
 9890POPC   GL162161  22.150  29.175   6.153
 9890POPC   GL262162  22.063  29.110   6.153
 9890POPC   C1A62163  22.203  29.100   6.453
 9890POPC   D2A62164  22.202  29.193   6.753
 9890POPC   C3A62165  22.174  29.182   7.053
 9890POPC   C4A62166  22.144  29.167   7.353
 9890POPC   C1B62167  21.935  29.115   6.453
 9890POPC   C2B62168  21.869  29.090   6.753
 9890POPC   C3B62169  21.910  29.071   7.053
 9890POPC   C4B62170  21.881  29.064   7.353
 9891POPC   NC362171  43.890  38.467   5.553
 9891POPC   PO462172  43.846  38.494   5.853
 9891POPC   GL162173  43.918  38.435   6.153
 9891POPC   GL262174  44.009  38.387   6.153
 9891POPC   C1A62175  43.852  38.473   6.453
 9891POPC   D2A62176  43.840  38.463   6.753
 9891POPC   C3A62177  43.855  38.494   7.053
 9891POPC   C4A62178  43.875  38.466   7.353
 9891POPC   C1B62179  44.152  38.327   6.453
 9891POPC   C2B62180  44.060  38.326   6.753
 9891POPC   C3B62181  44.097  38.346   7.053
 9891POPC   C4B62182  44.127  38.358   7.353
 9892POPC   NC362183   5.108  10.556   5.553
 9892POPC   PO462184   5.058  10.480   5.853
 9892POPC   GL162185   5.057  10.510   6.153
 9892POPC   GL262186   5.030  10.606   6.153
 9892POPC   C1A62187   5.133  10.517   6.453
 9892POPC   D2A62188   5.116  10.554   6.753
 9892POPC   C3A62189   5.060  10.555   7.053
 9892POPC   C4A62190   5.108  10.528   7.353
 9892POPC   C1B62191   4.886  10.690   6.453
 9892POPC   C2B62192   4.835  10.673   6.753
 9892POPC   C3B62193   4.880  10.630   7.053
 9892POPC   C4B62194   4.836  10.705   7.353
 9893POPC   NC362195  34.573  14.437   5.553
 9893POPC   PO462196  34.576  14.368   5.853
 9893POPC   GL162197  34.546  14.362   6.153
 9893POPC   GL262198  34.452  14.406   6.153
 9893POPC   C1A62199  34.588  14.444   6.453
 9893POPC   D2A62200  34.579  14.366   6.753
 9893POPC   C3A62201  34.590  14.362   7.053
 9893POPC   C4A62202  34.602  14.435   7.353
 9893POPC   C1B62203  34.298  14.318   6.453
 9893POPC   C2B62204  34.286  14.290   6.753
 9893POPC   C3B62205  34.383  14.358   7.053
 9893POPC   C4B62206  34.332  14.297   7.353
 9894POPC   NC362207  41.523  16.771   5.553
 9894POPC   PO462208  41.577  16.746   5.853
 9894POPC   GL162209  41.563  16.775   6.153
 9894POPC   GL262210  41.689  16.782   6.153
 9894POPC   C1A62211  41.550  16.714   6.453
 9894POPC   D2A62212  41.584  16.747   6.753
 9894POPC   C3A62213  41.525  16.736   7.053
 9894POPC   C4A62214  41.514  16.779   7.353
 9894POPC   C1B62215  41.832  16.730   6.453
 9894POPC   C2B62216  41.770  16.698   6.753
 9894POPC   C3B62217  41.845  16.777   7.053
 9894POPC   C4B62218  41.804  16.760   7.353
 9895POPC   NC362219  16.696  19.842   5.553
 9895POPC   PO462220  16.749  19.791   5.853
 9895POPC   GL162221  16.751  19.795   6.153
 9895POPC   GL262222  16.896  19.837   6.153
 9895POPC   C1A62223  16.727  19.846   6.453
 9895POPC   D2A62224  16.762  19.880   6.753
 9895POPC   C3A62225  16.772  19.788   7.053
 9895POPC   C4A62226  16.714  19.828   7.353
 9895POPC   C1B62227  16.930  19.740   6.453
 9895POPC   C2B62228  16.972  19.831   6.753
 9895POPC   C3B62229  16.967  19.811   7.053
 9895POPC   C4B62230  16.928  19.820   7.353
 9896POPC   NC362231   9.772  29.925   5.553
 9896POPC   PO462232   9.776  29.883   5.853
 9896POPC   GL162233   9.760  29.949   6.153
 9896POPC   GL262234   9.785  30.027   6.153
 9896POPC   C1A62235   9.717  29.942   6.453
 9896POPC   D2A62236   9.755  29.896   6.753
 9896POPC   C3A62237   9.793  29.966   7.053
 9896POPC   C4A62238   9.794  29.891   7.353
 9896POPC   C1B62239   9.865  30.186   6.453
 9896POPC   C2B62240   9.867  30.180   6.753
 9896POPC   C3B62241   9.880  30.194   7.053
 9896POPC   C4B62242   9.879  30.133   7.353
 9897POPC   NC362243  34.595   2.761   5.553
 9897POPC   PO462244  34.546   2.768   5.853
 9897POPC   GL162245  34.610   2.809   6.153
 9897POPC   GL262246  34.458   2.671   6.153
 9897POPC   C1A62247  34.526   2.791   6.453
 9897POPC   D2A62248  34.598   2.748   6.753
 9897POPC   C3A62249  34.621   2.807   7.053
 9897POPC   C4A62250  34.575   2.783   7.353
 9897POPC   C1B62251  34.411   2.615   6.453
 9897POPC   C2B62252  34.435   2.542   6.753
 9897POPC   C3B62253  34.437   2.570   7.053
 9897POPC   C4B62254  34.386   2.572   7.353
 9898POPC   NC362255   5.110   5.127   5.553
 9898POPC   PO462256   5.082   5.056   5.853
 9898POPC   GL162257   5.116   5.120   6.153
 9898POPC   GL262258   5.166   4.994   6.153
 9898POPC   C1A62259   5.087   5.119   6.453
 9898POPC   D2A62260   5.055   5.114   6.753
 9898POPC   C3A62261   5.097   5.086   7.053
 9898POPC   C4A62262   5.115   5.091   7.353
 9898POPC   C1B62263   5.254   4.905   6.453
 9898POPC   C2B62264   5.280   4.914   6.753
 9898POPC   C3B62265   5.205   4.929   7.053
 9898POPC   C4B62266   5.264   4.898   7.353
 9899POPC   NC362267  15.221  12.071   5.553
 9899POPC   PO462268  15.210  12.049   5.853
 9899POPC   GL162269  15.144  12.066   6.153
 9899POPC   GL262270  15.021  12.058   6.153
 9899POPC   C1A62271  15.207  12.113   6.453
 9899POPC   D2A62272  15.162  12.060   6.753
 9899POPC   C3A62273  15.218  12.106   7.053
 9899POPC   C4A62274  15.176  12.030   7.353
 9899POPC   C1B62275  14.978  11.935   6.453
 9899POPC   C2B62276  14.968  11.958   6.753
 9899POPC   C3B62277  14.987  12.025   7.053
 9899POPC   C4B62278  14.997  12.014   7.353
 9900POPC   NC362279  34.545  30.729   5.553
 9900POPC   PO462280  34.606  30.686   5.853
 9900POPC   GL162281  34.623  30.667   6.153
 9900POPC   GL262282  34.687  30.598   6.153
 9900POPC   C1A62283  34.598  30.684   6.453
 9900POPC   D2A62284  34.535  30.657   6.753
 9900POPC   C3A62285  34.597  30.694   7.053
 9900POPC   C4A62286  34.598  30.700   7.353
 9900POPC   C1B62287  34.714  30.525   6.453
 9900POPC   C2B62288  34.803  30.503   6.753
 9900POPC   C3B62289  34.770  30.559   7.053
 9900POPC   C4B62290  34.793  30.576   7.353
 9901POPC   NC362291  40.032  27.558   5.553
 9901POPC   PO462292  40.043  27.567   5.853
 9901POPC   GL162293  40.033  27.565   6.153
 9901POPC   GL262294  39.901  27.495   6.153
 9901POPC   C1A62295  40.008  27.572   6.453
 9901POPC   D2A62296  39.996  27.603   6.753
 9901POPC   C3A62297  39.975  27.643   7.053
 9901POPC   C4A62298  40.042  27.568   7.353
 9901POPC   C1B62299  39.780  27.399   6.453
 9901POPC   C2B62300  39.860  27.389   6.753
 9901POPC   C3B62301  39.785  27.396   7.053
 9901POPC   C4B62302  39.850  27.400   7.353
 9902POPC   NC362303   2.029   9.769   5.553
 9902POPC   PO462304   2.028   9.781   5.853
 9902POPC   GL162305   1.998   9.777   6.153
 9902POPC   GL262306   2.076   9.637   6.153
 9902POPC   C1A62307   1.967   9.764   6.453
 9902POPC   D2A62308   1.991   9.726   6.753
 9902POPC   C3A62309   1.980   9.744   7.053
 9902POPC   C4A62310   1.976   9.728   7.353
 9902POPC   C1B62311   2.204   9.539   6.453
 9902POPC   C2B62312   2.168   9.562   6.753
 9902POPC   C3B62313   2.159   9.615   7.053
 9902POPC   C4B62314   2.145   9.559   7.353
 9903POPC   NC362315  36.942   1.989   5.553
 9903POPC   PO462316  36.857   2.037   5.853
 9903POPC   GL162317  36.908   1.947   6.153
 9903POPC   GL262318  36.822   2.091   6.153
 9903POPC   C1A62319  36.863   1.983   6.453
 9903POPC   D2A62320  36.891   1.985   6.753
 9903POPC   C3A62321  36.918   1.970   7.053
 9903POPC   C4A62322  36.886   2.005   7.353
 9903POPC   C1B62323  36.711   2.168   6.453
 9903POPC   C2B62324  36.739   2.214   6.753
 9903POPC   C3B62325  36.694   2.150   7.053
 9903POPC   C4B62326  36.714   2.187   7.353
 9904POPC   NC362327  39.197  39.981   5.553
 9904POPC   PO462328  39.245  39.982   5.853
 9904POPC   GL162329  39.208  39.995   6.153
 9904POPC   GL262330  39.365  40.033   6.153
 9904POPC   C1A62331  39.231  40.046   6.453
 9904POPC   D2A62332  39.256  40.005   6.753
 9904POPC   C3A62333  39.241  40.034   7.053
 9904POPC   C4A62334  39.241  40.002   7.353
 9904POPC   C1B62335  39.478  39.982   6.453
 9904POPC   C2B62336  39.467  39.948   6.753
 9904POPC   C3B62337  39.445  40.033   7.053
 9904POPC   C4B62338  39.512  39.959   7.353
 9905POPC   NC362339  27.606  17.517   5.553
 9905POPC   PO462340  27.613  17.520   5.853
 9905POPC   GL162341  27.622  17.489   6.153
 9905POPC   GL262342  27.689  17.580   6.153
 9905POPC   C1A62343  27.555  17.494   6.453
 9905POPC   D2A62344  27.574  17.547   6.753
 9905POPC   C3A62345  27.570  17.458   7.053
 9905POPC   C4A62346  27.621  17.528   7.353
 9905POPC   C1B62347  27.817  17.647   6.453
 9905POPC   C2B62348  27.835  17.692   6.753
 9905POPC   C3B62349  27.827  17.694   7.053
 9905POPC   C4B62350  27.810  17.649   7.353
 9906POPC   NC362351   5.129  36.873   5.553
 9906POPC   PO462352   5.077  36.872   5.853
 9906POPC   GL162353   5.127  36.894   6.153
 9906POPC   GL262354   5.024  37.003   6.153
 9906POPC   C1A62355   5.126  36.874   6.453
 9906POPC   D2A62356   5.050  36.928   6.753
 9906POPC   C3A62357   5.123  36.944   7.053
 9906POPC   C4A62358   5.053  36.870   7.353
 9906POPC   C1B62359   4.837  37.057   6.453
 9906POPC   C2B62360   4.886  37.063   6.753
 9906POPC   C3B62361   4.875  36.989   7.053
 9906POPC   C4B62362   4.887  37.005   7.353
 9907POPC   NC362363  19.019  12.865   5.553
 9907POPC   PO462364  19.085  12.846   5.853
 9907POPC   GL162365  19.085  12.883   6.153
 9907POPC   GL262366  18.984  12.864   6.153
 9907POPC   C1A62367  19.030  12.878   6.453
 9907POPC   D2A62368  19.091  12.826   6.753
 9907POPC   C3A62369  19.045  12.880   7.053
 9907POPC   C4A62370  19.107  12.840   7.353
 9907POPC   C1B62371  18.825  12.978   6.453
 9907POPC   C2B62372  18.796  12.990   6.753
 9907POPC   C3B62373  18.856  12.942   7.053
 9907POPC   C4B62374  18.860  12.938   7.353
 9908POPC   NC362375  42.310  16.725   5.553
 9908POPC   PO462376  42.324  16.771   5.853
 9908POPC   GL162377  42.322  16.711   6.153
 9908POPC   GL262378  42.265  16.582   6.153
 9908POPC   C1A62379  42.317  16.704   6.453
 9908POPC   D2A62380  42.328  16.691   6.753
 9908POPC   C3A62381  42.305  16.752   7.053
 9908POPC   C4A62382  42.376  16.719   7.353
 9908POPC   C1B62383  42.238  16.472   6.453
 9908POPC   C2B62384  42.241  16.507   6.753
 9908POPC   C3B62385  42.294  16.537   7.053
 9908POPC   C4B62386  42.306  16.501   7.353
 9909POPC   NC362387  30.655  36.105   5.553
 9909POPC   PO462388  30.653  36.157   5.853
 9909POPC   GL162389  30.722  36.127   6.153
 9909POPC   GL262390  30.599  36.067   6.153
 9909POPC   C1A62391  30.683  36.108   6.453
 9909POPC   D2A62392  30.689  36.086   6.753
 9909POPC   C3A62393  30.700  36.101   7.053
 9909POPC   C4A62394  30.742  36.115   7.353
 9909POPC   C1B62395  30.473  35.959   6.453
 9909POPC   C2B62396  30.465  35.916   6.753
 9909POPC   C3B62397  30.539  35.961   7.053
 9909POPC   C4B62398  30.528  35.994   7.353
 9910POPC   NC362399  17.459  40.019   5.553
 9910POPC   PO462400  17.465  40.006   5.853
 9910POPC   GL162401  17.508  39.977   6.153
 9910POPC   GL262402  17.610  39.982   6.153
 9910POPC   C1A62403  17.511  40.037   6.453
 9910POPC   D2A62404  17.507  39.997   6.753
 9910POPC   C3A62405  17.472  39.993   7.053
 9910POPC   C4A62406  17.468  40.016   7.353
 9910POPC   C1B62407  17.744  39.969   6.453
 9910POPC   C2B62408  17.754  39.933   6.753
 9910POPC   C3B62409  17.750  39.922   7.053
 9910POPC   C4B62410  17.749  39.969   7.353
 9911POPC   NC362411   9.709  19.821   5.553
 9911POPC   PO462412   9.730  19.870   5.853
 9911POPC   GL162413   9.795  19.873   6.153
 9911POPC   GL262414   9.606  19.835   6.153
 9911POPC   C1A62415   9.703  19.825   6.453
 9911POPC   D2A62416   9.748  19.852   6.753
 9911POPC   C3A62417   9.782  19.832   7.053
 9911POPC   C4A62418   9.735  19.859   7.353
 9911POPC   C1B62419   9.525  19.811   6.453
 9911POPC   C2B62420   9.504  19.735   6.753
 9911POPC   C3B62421   9.463  19.760   7.053
 9911POPC   C4B62422   9.474  19.771   7.353
 9912POPC   NC362423  17.499  34.535   5.553
 9912POPC   PO462424  17.530  34.561   5.853
 9912POPC   GL162425  17.512  34.538   6.153
 9912POPC   GL262426  17.590  34.636   6.153
 9912POPC   C1A62427  17.472  34.538   6.453
 9912POPC   D2A62428  17.521  34.574   6.753
 9912POPC   C3A62429  17.468  34.600   7.053
 9912POPC   C4A62430  17.517  34.608   7.353
 9912POPC   C1B62431  17.790  34.652   6.453
 9912POPC   C2B62432  17.712  34.640   6.753
 9912POPC   C3B62433  17.707  34.639   7.053
 9912POPC   C4B62434  17.772  34.683   7.353
 9913POPC   NC362435  37.630  29.129   5.553
 9913POPC   PO462436  37.677  29.157   5.853
 9913POPC   GL162437  37.640  29.159   6.153
 9913POPC   GL262438  37.684  29.010   6.153
 9913POPC   C1A62439  37.640  29.117   6.453
 9913POPC   D2A62440  37.703  29.168   6.753
 9913POPC   C3A62441  37.645  29.186   7.053
 9913POPC   C4A62442  37.650  29.127   7.353
 9913POPC   C1B62443  37.678  28.904   6.453
 9913POPC   C2B62444  37.671  28.910   6.753
 9913POPC   C3B62445  37.673  28.901   7.053
 9913POPC   C4B62446  37.636  28.936   7.353
 9914POPC   NC362447  43.899  39.232   5.553
 9914POPC   PO462448  43.883  39.213   5.853
 9914POPC   GL162449  43.899  39.227   6.153
 9914POPC   GL262450  43.947  39.113   6.153
 9914POPC   C1A62451  43.913  39.267   6.453
 9914POPC   D2A62452  43.913  39.254   6.753
 9914POPC   C3A62453  43.924  39.252   7.053
 9914POPC   C4A62454  43.925  39.212   7.353
 9914POPC   C1B62455  44.073  39.033   6.453
 9914POPC   C2B62456  44.100  38.999   6.753
 9914POPC   C3B62457  44.101  39.089   7.053
 9914POPC   C4B62458  44.012  39.057   7.353
 9915POPC   NC362459  22.116   7.399   5.553
 9915POPC   PO462460  22.193   7.401   5.853
 9915POPC   GL162461  22.183   7.444   6.153
 9915POPC   GL262462  22.034   7.543   6.153
 9915POPC   C1A62463  22.199   7.435   6.453
 9915POPC   D2A62464  22.178   7.459   6.753
 9915POPC   C3A62465  22.166   7.424   7.053
 9915POPC   C4A62466  22.144   7.458   7.353
 9915POPC   C1B62467  21.981   7.621   6.453
 9915POPC   C2B62468  21.981   7.601   6.753
 9915POPC   C3B62469  21.943   7.578   7.053
 9915POPC   C4B62470  21.998   7.619   7.353
 9916POPC   NC362471  39.995  14.453   5.553
 9916POPC   PO462472  39.962  14.354   5.853
 9916POPC   GL162473  40.010  14.393   6.153
 9916POPC   GL262474  39.979  14.516   6.153
 9916POPC   C1A62475  40.054  14.403   6.453
 9916POPC   D2A62476  40.030  14.403   6.753
 9916POPC   C3A62477  40.055  14.392   7.053
 9916POPC   C4A62478  40.004  14.367   7.353
 9916POPC   C1B62479  39.908  14.641   6.453
 9916POPC   C2B62480  39.896  14.633   6.753
 9916POPC   C3B62481  39.947  14.622   7.053
 9916POPC   C4B62482  39.955  14.653   7.353
 9917POPC   NC362483  19.035  20.567   5.553
 9917POPC   PO462484  19.089  20.657   5.853
 9917POPC   GL162485  19.041  20.646   6.153
 9917POPC   GL262486  19.069  20.478   6.153
 9917POPC   C1A62487  19.056  20.598   6.453
 9917POPC   D2A62488  19.105  20.660   6.753
 9917POPC   C3A62489  19.107  20.646   7.053
 9917POPC   C4A62490  19.020  20.636   7.353
 9917POPC   C1B62491  19.024  20.369   6.453
 9917POPC   C2B62492  19.007  20.323   6.753
 9917POPC   C3B62493  19.045  20.408   7.053
 9917POPC   C4B62494  19.085  20.391   7.353
 9918POPC   NC362495   5.827  28.411   5.553
 9918POPC   PO462496   5.874  28.320   5.853
 9918POPC   GL162497   5.896  28.322   6.153
 9918POPC   GL262498   5.788  28.417   6.153
 9918POPC   C1A62499   5.865  28.386   6.453
 9918POPC   D2A62500   5.842  28.320   6.753
 9918POPC   C3A62501   5.875  28.366   7.053
 9918POPC   C4A62502   5.917  28.338   7.353
 9918POPC   C1B62503   5.696  28.489   6.453
 9918POPC   C2B62504   5.723  28.535   6.753
 9918POPC   C3B62505   5.692  28.537   7.053
 9918POPC   C4B62506   5.677  28.494   7.353
 9919POPC   NC362507  14.439  21.362   5.553
 9919POPC   PO462508  14.383  21.376   5.853
 9919POPC   GL162509  14.377  21.407   6.153
 9919POPC   GL262510  14.505  21.423   6.153
 9919POPC   C1A62511  14.434  21.357   6.453
 9919POPC   D2A62512  14.452  21.362   6.753
 9919POPC   C3A62513  14.362  21.365   7.053
 9919POPC   C4A62514  14.453  21.373   7.353
 9919POPC   C1B62515  14.616  21.522   6.453
 9919POPC   C2B62516  14.630  21.499   6.753
 9919POPC   C3B62517  14.627  21.487   7.053
 9919POPC   C4B62518  14.597  21.503   7.353
 9920POPC   NC362519  22.171  27.606   5.553
 9920POPC   PO462520  22.191  27.603   5.853
 9920POPC   GL162521  22.118  27.560   6.153
 9920POPC   GL262522  22.181  27.517   6.153
 9920POPC   C1A62523  22.165  27.589   6.453
 9920POPC   D2A62524  22.158  27.587   6.753
 9920POPC   C3A62525  22.116  27.606   7.053
 9920POPC   C4A62526  22.175  27.568   7.353
 9920POPC   C1B62527  22.287  27.415   6.453
 9920POPC   C2B62528  22.266  27.420   6.753
 9920POPC   C3B62529  22.257  27.330   7.053
 9920POPC   C4B62530  22.306  27.415   7.353
 9921POPC   NC362531  29.165  33.766   5.553
 9921POPC   PO462532  29.174  33.767   5.853
 9921POPC   GL162533  29.102  33.799   6.153
 9921POPC   GL262534  29.162  33.916   6.153
 9921POPC   C1A62535  29.127  33.809   6.453
 9921POPC   D2A62536  29.177  33.764   6.753
 9921POPC   C3A62537  29.185  33.821   7.053
 9921POPC   C4A62538  29.169  33.823   7.353
 9921POPC   C1B62539  29.047  34.014   6.453
 9921POPC   C2B62540  29.050  34.018   6.753
 9921POPC   C3B62541  29.139  34.051   7.053
 9921POPC   C4B62542  29.136  34.085   7.353
 9922POPC   NC362543  26.799   5.883   5.553
 9922POPC   PO462544  26.841   5.824   5.853
 9922POPC   GL162545  26.831   5.857   6.153
 9922POPC   GL262546  26.701   5.855   6.153
 9922POPC   C1A62547  26.840   5.830   6.453
 9922POPC   D2A62548  26.781   5.877   6.753
 9922POPC   C3A62549  26.799   5.905   7.053
 9922POPC   C4A62550  26.834   5.859   7.353
 9922POPC   C1B62551  26.547   5.720   6.453
 9922POPC   C2B62552  26.596   5.799   6.753
 9922POPC   C3B62553  26.553   5.751   7.053
 9922POPC   C4B62554  26.549   5.808   7.353
 9923POPC   NC362555   5.882  37.642   5.553
 9923POPC   PO462556   5.854  37.697   5.853
 9923POPC   GL162557   5.829  37.723   6.153
 9923POPC   GL262558   5.743  37.626   6.153
 9923POPC   C1A62559   5.850  37.667   6.453
 9923POPC   D2A62560   5.869  37.642   6.753
 9923POPC   C3A62561   5.906  37.646   7.053
 9923POPC   C4A62562   5.887  37.677   7.353
 9923POPC   C1B62563   5.625  37.658   6.453
 9923POPC   C2B62564   5.640  37.647   6.753
 9923POPC   C3B62565   5.643  37.595   7.053
 9923POPC   C4B62566   5.620  37.579   7.353
 9924POPC   NC362567   4.307  43.149   5.553
 9924POPC   PO462568   4.348  43.105   5.853
 9924POPC   GL162569   4.351  43.087   6.153
 9924POPC   GL262570   4.294  42.985   6.153
 9924POPC   C1A62571   4.348  43.138   6.453
 9924POPC   D2A62572   4.318  43.159   6.753
 9924POPC   C3A62573   4.289  43.137   7.053
 9924POPC   C4A62574   4.337  43.127   7.353
 9924POPC   C1B62575   4.295  42.903   6.453
 9924POPC   C2B62576   4.334  42.817   6.753
 9924POPC   C3B62577   4.295  42.831   7.053
 9924POPC   C4B62578   4.293  42.904   7.353
 9925POPC   NC362579   8.941  18.330   5.553
 9925POPC   PO462580   8.942  18.243   5.853
 9925POPC   GL162581   9.001  18.313   6.153
 9925POPC   GL262582   8.884  18.202   6.153
 9925POPC   C1A62583   8.999  18.256   6.453
 9925POPC   D2A62584   8.923  18.262   6.753
 9925POPC   C3A62585   8.955  18.312   7.053
 9925POPC   C4A62586   8.997  18.314   7.353
 9925POPC   C1B62587   8.858  18.090   6.453
 9925POPC   C2B62588   8.846  18.089   6.753
 9925POPC   C3B62589   8.864  18.040   7.053
 9925POPC   C4B62590   8.787  18.071   7.353
 9926POPC   NC362591   1.942  11.280   5.553
 9926POPC   PO462592   1.942  11.258   5.853
 9926POPC   GL162593   2.034  11.293   6.153
 9926POPC   GL262594   2.097  11.315   6.153
 9926POPC   C1A62595   1.949  11.295   6.453
 9926POPC   D2A62596   1.991  11.275   6.753
 9926POPC   C3A62597   2.039  11.341   7.053
 9926POPC   C4A62598   2.019  11.298   7.353
 9926POPC   C1B62599   2.163  11.364   6.453
 9926POPC   C2B62600   2.233  11.451   6.753
 9926POPC   C3B62601   2.193  11.376   7.053
 9926POPC   C4B62602   2.206  11.446   7.353
 9927POPC   NC362603  22.968  18.326   5.553
 9927POPC   PO462604  22.898  18.237   5.853
 9927POPC   GL162605  22.905  18.242   6.153
 9927POPC   GL262606  22.823  18.351   6.153
 9927POPC   C1A62607  22.899  18.311   6.453
 9927POPC   D2A62608  22.987  18.298   6.753
 9927POPC   C3A62609  22.981  18.267   7.053
 9927POPC   C4A62610  22.913  18.331   7.353
 9927POPC   C1B62611  22.709  18.390   6.453
 9927POPC   C2B62612  22.749  18.451   6.753
 9927POPC   C3B62613  22.691  18.450   7.053
 9927POPC   C4B62614  22.730  18.469   7.353
 9928POPC   NC362615  22.158  20.614   5.553
 9928POPC   PO462616  22.153  20.657   5.853
 9928POPC   GL162617  22.186  20.623   6.153
 9928POPC   GL262618  22.336  20.601   6.153
 9928POPC   C1A62619  22.142  20.603   6.453
 9928POPC   D2A62620  22.211  20.599   6.753
 9928POPC   C3A62621  22.183  20.650   7.053
 9928POPC   C4A62622  22.140  20.581   7.353
 9928POPC   C1B62623  22.450  20.662   6.453
 9928POPC   C2B62624  22.382  20.587   6.753
 9928POPC   C3B62625  22.449  20.625   7.053
 9928POPC   C4B62626  22.446  20.574   7.353
 9929POPC   NC362627  35.349  17.493   5.553
 9929POPC   PO462628  35.393  17.479   5.853
 9929POPC   GL162629  35.356  17.530   6.153
 9929POPC   GL262630  35.435  17.511   6.153
 9929POPC   C1A62631  35.377  17.479   6.453
 9929POPC   D2A62632  35.357  17.531   6.753
 9929POPC   C3A62633  35.322  17.522   7.053
 9929POPC   C4A62634  35.378  17.462   7.353
 9929POPC   C1B62635  35.596  17.467   6.453
 9929POPC   C2B62636  35.606  17.497   6.753
 9929POPC   C3B62637  35.599  17.496   7.053
 9929POPC   C4B62638  35.640  17.473   7.353
 9930POPC   NC362639  18.290  31.468   5.553
 9930POPC   PO462640  18.248  31.428   5.853
 9930POPC   GL162641  18.292  31.450   6.153
 9930POPC   GL262642  18.267  31.598   6.153
 9930POPC   C1A62643  18.255  31.472   6.453
 9930POPC   D2A62644  18.261  31.512   6.753
 9930POPC   C3A62645  18.312  31.463   7.053
 9930POPC   C4A62646  18.328  31.489   7.353
 9930POPC   C1B62647  18.241  31.733   6.453
 9930POPC   C2B62648  18.278  31.744   6.753
 9930POPC   C3B62649  18.223  31.737   7.053
 9930POPC   C4B62650  18.241  31.712   7.353
 9931POPC   NC362651   6.639   5.055   5.553
 9931POPC   PO462652   6.678   5.081   5.853
 9931POPC   GL162653   6.688   5.123   6.153
 9931POPC   GL262654   6.504   5.028   6.153
 9931POPC   C1A62655   6.640   5.117   6.453
 9931POPC   D2A62656   6.658   5.075   6.753
 9931POPC   C3A62657   6.625   5.113   7.053
 9931POPC   C4A62658   6.658   5.050   7.353
 9931POPC   C1B62659   6.361   5.010   6.453
 9931POPC   C2B62660   6.401   4.965   6.753
 9931POPC   C3B62661   6.396   4.980   7.053
 9931POPC   C4B62662   6.397   5.021   7.353
 9932POPC   NC362663   2.756  42.312   5.553
 9932POPC   PO462664   2.720  42.294   5.853
 9932POPC   GL162665   2.747  42.286   6.153
 9932POPC   GL262666   2.819  42.236   6.153
 9932POPC   C1A62667   2.735  42.301   6.453
 9932POPC   D2A62668   2.766  42.326   6.753
 9932POPC   C3A62669   2.748  42.290   7.053
 9932POPC   C4A62670   2.791  42.363   7.353
 9932POPC   C1B62671   2.955  42.186   6.453
 9932POPC   C2B62672   2.917  42.124   6.753
 9932POPC   C3B62673   2.915  42.174   7.053
 9932POPC   C4B62674   2.959  42.212   7.353
 9933POPC   NC362675  44.670  26.091   5.553
 9933POPC   PO462676  44.674  26.073   5.853
 9933POPC   GL162677  44.617  26.041   6.153
 9933POPC   GL262678  44.576  25.984   6.153
 9933POPC   C1A62679  44.655  26.070   6.453
 9933POPC   D2A62680  44.680  25.993   6.753
 9933POPC   C3A62681  44.673  26.077   7.053
 9933POPC   C4A62682  44.625  26.063   7.353
 9933POPC   C1B62683  44.514  25.825   6.453
 9933POPC   C2B62684  44.481  25.796   6.753
 9933POPC   C3B62685  44.544  25.787   7.053
 9933POPC   C4B62686  44.517  25.832   7.353
 9934POPC   NC362687  26.036  44.661   5.553
 9934POPC   PO462688  26.055  44.671   5.853
 9934POPC   GL162689  26.010  44.627   6.153
 9934POPC   GL262690  26.121  44.695   6.153
 9934POPC   C1A62691  26.023  44.646   6.453
 9934POPC   D2A62692  26.004  44.647   6.753
 9934POPC   C3A62693  26.053  44.623   7.053
 9934POPC   C4A62694  26.087  44.673   7.353
 9934POPC   C1B62695  26.295  44.730   6.453
 9934POPC   C2B62696  26.228  44.786   6.753
 9934POPC   C3B62697  26.280  44.731   7.053
 9934POPC   C4B62698  26.264  44.774   7.353
 9935POPC   NC362699  35.356   4.366   5.553
 9935POPC   PO462700  35.367   4.290   5.853
 9935POPC   GL162701  35.320   4.281   6.153
 9935POPC   GL262702  35.486   4.273   6.153
 9935POPC   C1A62703  35.354   4.289   6.453
 9935POPC   D2A62704  35.379   4.338   6.753
 9935POPC   C3A62705  35.327   4.287   7.053
 9935POPC   C4A62706  35.381   4.271   7.353
 9935POPC   C1B62707  35.555   4.305   6.453
 9935POPC   C2B62708  35.606   4.248   6.753
 9935POPC   C3B62709  35.595   4.273   7.053
 9935POPC   C4B62710  35.549   4.297   7.353
 9936POPC   NC362711  40.024  11.314   5.553
 9936POPC   PO462712  40.007  11.343   5.853
 9936POPC   GL162713  40.015  11.252   6.153
 9936POPC   GL262714  39.993  11.138   6.153
 9936POPC   C1A62715  40.049  11.337   6.453
 9936POPC   D2A62716  39.962  11.330   6.753
 9936POPC   C3A62717  39.962  11.290   7.053
 9936POPC   C4A62718  39.994  11.296   7.353
 9936POPC   C1B62719  39.958  11.087   6.453
 9936POPC   C2B62720  40.038  11.026   6.753
 9936POPC   C3B62721  40.024  11.026   7.053
 9936POPC   C4B62722  39.970  11.019   7.353
 9937POPC   NC362723   5.070  42.303   5.553
 9937POPC   PO462724   5.121  42.285   5.853
 9937POPC   GL162725   5.117  42.368   6.153
 9937POPC   GL262726   5.001  42.274   6.153
 9937POPC   C1A62727   5.092  42.317   6.453
 9937POPC   D2A62728   5.046  42.359   6.753
 9937POPC   C3A62729   5.052  42.364   7.053
 9937POPC   C4A62730   5.078  42.308   7.353
 9937POPC   C1B62731   4.848  42.286   6.453
 9937POPC   C2B62732   4.857  42.312   6.753
 9937POPC   C3B62733   4.884  42.300   7.053
 9937POPC   C4B62734   4.890  42.342   7.353
 9938POPC   NC362735  13.613  13.615   5.553
 9938POPC   PO462736  13.606  13.670   5.853
 9938POPC   GL162737  13.641  13.583   6.153
 9938POPC   GL262738  13.727  13.603   6.153
 9938POPC   C1A62739  13.581  13.633   6.453
 9938POPC   D2A62740  13.603  13.593   6.753
 9938POPC   C3A62741  13.666  13.614   7.053
 9938POPC   C4A62742  13.637  13.644   7.353
 9938POPC   C1B62743  13.877  13.583   6.453
 9938POPC   C2B62744  13.875  13.528   6.753
 9938POPC   C3B62745  13.815  13.525   7.053
 9938POPC   C4B62746  13.840  13.507   7.353
 9939POPC   NC362747  40.751  39.994   5.553
 9939POPC   PO462748  40.736  40.007   5.853
 9939POPC   GL162749  40.734  39.963   6.153
 9939POPC   GL262750  40.669  39.855   6.153
 9939POPC   C1A62751  40.741  39.965   6.453
 9939POPC   D2A62752  40.810  40.006   6.753
 9939POPC   C3A62753  40.788  40.041   7.053
 9939POPC   C4A62754  40.759  39.963   7.353
 9939POPC   C1B62755  40.599  39.822   6.453
 9939POPC   C2B62756  40.599  39.782   6.753
 9939POPC   C3B62757  40.639  39.801   7.053
 9939POPC   C4B62758  40.683  39.793   7.353
 9940POPC   NC362759  33.776  12.061   5.553
 9940POPC   PO462760  33.834  12.075   5.853
 9940POPC   GL162761  33.840  12.064   6.153
 9940POPC   GL262762  33.749  11.980   6.153
 9940POPC   C1A62763  33.782  12.069   6.453
 9940POPC   D2A62764  33.808  12.061   6.753
 9940POPC   C3A62765  33.832  12.048   7.053
 9940POPC   C4A62766  33.794  12.120   7.353
 9940POPC   C1B62767  33.729  11.846   6.453
 9940POPC   C2B62768  33.691  11.803   6.753
 9940POPC   C3B62769  33.706  11.888   7.053
 9940POPC   C4B62770  33.686  11.880   7.353
 9941POPC   NC362771  30.710  14.435   5.553
 9941POPC   PO462772  30.671  14.431   5.853
 9941POPC   GL162773  30.648  14.418   6.153
 9941POPC   GL262774  30.651  14.497   6.153
 9941POPC   C1A62775  30.740  14.418   6.453
 9941POPC   D2A62776  30.656  14.374   6.753
 9941POPC   C3A62777  30.699  14.362   7.053
 9941POPC   C4A62778  30.726  14.355   7.353
 9941POPC   C1B62779  30.551  14.621   6.453
 9941POPC   C2B62780  30.550  14.618   6.753
 9941POPC   C3B62781  30.557  14.633   7.053
 9941POPC   C4B62782  30.583  14.634   7.353
 9942POPC   NC362783  33.064  43.103   5.553
 9942POPC   PO462784  33.018  43.113   5.853
 9942POPC   GL162785  33.052  43.079   6.153
 9942POPC   GL262786  33.156  43.077   6.153
 9942POPC   C1A62787  33.038  43.080   6.453
 9942POPC   D2A62788  33.040  43.160   6.753
 9942POPC   C3A62789  32.987  43.094   7.053
 9942POPC   C4A62790  33.021  43.129   7.353
 9942POPC   C1B62791  33.316  43.136   6.453
 9942POPC   C2B62792  33.298  43.120   6.753
 9942POPC   C3B62793  33.322  43.052   7.053
 9942POPC   C4B62794  33.285  43.076   7.353
 9943POPC   NC362795  24.477  32.228   5.553
 9943POPC   PO462796  24.530  32.199   5.853
 9943POPC   GL162797  24.514  32.272   6.153
 9943POPC   GL262798  24.610  32.114   6.153
 9943POPC   C1A62799  24.484  32.283   6.453
 9943POPC   D2A62800  24.477  32.273   6.753
 9943POPC   C3A62801  24.459  32.210   7.053
 9943POPC   C4A62802  24.513  32.240   7.353
 9943POPC   C1B62803  24.619  32.041   6.453
 9943POPC   C2B62804  24.642  32.050   6.753
 9943POPC   C3B62805  24.630  32.054   7.053
 9943POPC   C4B62806  24.675  32.086   7.353
 9944POPC   NC362807  14.450   3.494   5.553
 9944POPC   PO462808  14.415   3.584   5.853
 9944POPC   GL162809  14.383   3.502   6.153
 9944POPC   GL262810  14.310   3.439   6.153
 9944POPC   C1A62811  14.445   3.505   6.453
 9944POPC   D2A62812  14.412   3.580   6.753
 9944POPC   C3A62813  14.431   3.522   7.053
 9944POPC   C4A62814  14.414   3.579   7.353
 9944POPC   C1B62815  14.315   3.321   6.453
 9944POPC   C2B62816  14.252   3.288   6.753
 9944POPC   C3B62817  14.294   3.266   7.053
 9944POPC   C4B62818  14.270   3.345   7.353
 9945POPC   NC362819  41.571  37.718   5.553
 9945POPC   PO462820  41.579  37.707   5.853
 9945POPC   GL162821  41.601  37.671   6.153
 9945POPC   GL262822  41.406  37.637   6.153
 9945POPC   C1A62823  41.533  37.644   6.453
 9945POPC   D2A62824  41.598  37.661   6.753
 9945POPC   C3A62825  41.545  37.722   7.053
 9945POPC   C4A62826  41.530  37.689   7.353
 9945POPC   C1B62827  41.338  37.659   6.453
 9945POPC   C2B62828  41.300  37.664   6.753
 9945POPC   C3B62829  41.308  37.669   7.053
 9945POPC   C4B62830  41.335  37.675   7.353
 9946POPC   NC362831  36.953  29.137   5.553
 9946POPC   PO462832  36.950  29.155   5.853
 9946POPC   GL162833  36.886  29.191   6.153
 9946POPC   GL262834  36.841  29.232   6.153
 9946POPC   C1A62835  36.942  29.142   6.453
 9946POPC   D2A62836  36.888  29.157   6.753
 9946POPC   C3A62837  36.855  29.117   7.053
 9946POPC   C4A62838  36.950  29.129   7.353
 9946POPC   C1B62839  36.650  29.324   6.453
 9946POPC   C2B62840  36.701  29.323   6.753
 9946POPC   C3B62841  36.700  29.324   7.053
 9946POPC   C4B62842  36.705  29.326   7.353
 9947POPC   NC362843  37.727  30.726   5.553
 9947POPC   PO462844  37.677  30.694   5.853
 9947POPC   GL162845  37.716  30.731   6.153
 9947POPC   GL262846  37.647  30.619   6.153
 9947POPC   C1A62847  37.647  30.664   6.453
 9947POPC   D2A62848  37.647  30.729   6.753
 9947POPC   C3A62849  37.718  30.671   7.053
 9947POPC   C4A62850  37.664  30.736   7.353
 9947POPC   C1B62851  37.538  30.456   6.453
 9947POPC   C2B62852  37.554  30.475   6.753
 9947POPC   C3B62853  37.547  30.479   7.053
 9947POPC   C4B62854  37.552  30.429   7.353
 9948POPC   NC362855  43.920   2.027   5.553
 9948POPC   PO462856  43.881   1.948   5.853
 9948POPC   GL162857  43.886   1.942   6.153
 9948POPC   GL262858  43.791   1.905   6.153
 9948POPC   C1A62859  43.851   2.038   6.453
 9948POPC   D2A62860  43.845   1.991   6.753
 9948POPC   C3A62861  43.882   1.956   7.053
 9948POPC   C4A62862  43.929   1.976   7.353
 9948POPC   C1B62863  43.690   1.779   6.453
 9948POPC   C2B62864  43.730   1.759   6.753
 9948POPC   C3B62865  43.775   1.816   7.053
 9948POPC   C4B62866  43.735   1.812   7.353
 9949POPC   NC362867  10.499  37.718   5.553
 9949POPC   PO462868  10.489  37.686   5.853
 9949POPC   GL162869  10.570  37.641   6.153
 9949POPC   GL262870  10.660  37.583   6.153
 9949POPC   C1A62871  10.524  37.641   6.453
 9949POPC   D2A62872  10.494  37.652   6.753
 9949POPC   C3A62873  10.521  37.682   7.053
 9949POPC   C4A62874  10.501  37.656   7.353
 9949POPC   C1B62875  10.752  37.572   6.453
 9949POPC   C2B62876  10.702  37.543   6.753
 9949POPC   C3B62877  10.704  37.615   7.053
 9949POPC   C4B62878  10.723  37.592   7.353
 9950POPC   NC362879  17.487  29.124   5.553
 9950POPC   PO462880  17.511  29.168   5.853
 9950POPC   GL162881  17.458  29.165   6.153
 9950POPC   GL262882  17.600  29.124   6.153
 9950POPC   C1A62883  17.478  29.130   6.453
 9950POPC   D2A62884  17.464  29.176   6.753
 9950POPC   C3A62885  17.471  29.184   7.053
 9950POPC   C4A62886  17.547  29.180   7.353
 9950POPC   C1B62887  17.804  29.104   6.453
 9950POPC   C2B62888  17.730  29.097   6.753
 9950POPC   C3B62889  17.726  29.165   7.053
 9950POPC   C4B62890  17.789  29.158   7.353
 9951POPC   NC362891  16.776   8.167   5.553
 9951POPC   PO462892  16.697   8.169   5.853
 9951POPC   GL162893  16.758   8.185   6.153
 9951POPC   GL262894  16.680   8.323   6.153
 9951POPC   C1A62895  16.717   8.213   6.453
 9951POPC   D2A62896  16.733   8.170   6.753
 9951POPC   C3A62897  16.753   8.187   7.053
 9951POPC   C4A62898  16.730   8.209   7.353
 9951POPC   C1B62899  16.635   8.439   6.453
 9951POPC   C2B62900  16.552   8.352   6.753
 9951POPC   C3B62901  16.544   8.445   7.053
 9951POPC   C4B62902  16.595   8.361   7.353
 9952POPC   NC362903  22.147  30.720   5.553
 9952POPC   PO462904  22.146  30.693   5.853
 9952POPC   GL162905  22.192  30.734   6.153
 9952POPC   GL262906  22.098  30.780   6.153
 9952POPC   C1A62907  22.145  30.657   6.453
 9952POPC   D2A62908  22.167  30.726   6.753
 9952POPC   C3A62909  22.128  30.739   7.053
 9952POPC   C4A62910  22.148  30.704   7.353
 9952POPC   C1B62911  21.955  30.832   6.453
 9952POPC   C2B62912  21.986  30.802   6.753
 9952POPC   C3B62913  21.942  30.853   7.053
 9952POPC   C4B62914  21.985  30.791   7.353
 9953POPC   NC362915  39.210   1.224   5.553
 9953POPC   PO462916  39.223   1.236   5.853
 9953POPC   GL162917  39.186   1.249   6.153
 9953POPC   GL262918  39.368   1.153   6.153
 9953POPC   C1A62919  39.263   1.227   6.453
 9953POPC   D2A62920  39.251   1.171   6.753
 9953POPC   C3A62921  39.225   1.178   7.053
 9953POPC   C4A62922  39.200   1.224   7.353
 9953POPC   C1B62923  39.474   1.133   6.453
 9953POPC   C2B62924  39.505   1.132   6.753
 9953POPC   C3B62925  39.421   1.092   7.053
 9953POPC   C4B62926  39.420   1.162   7.353
 9954POPC   NC362927  29.105  19.801   5.553
 9954POPC   PO462928  29.169  19.800   5.853
 9954POPC   GL162929  29.128  19.860   6.153
 9954POPC   GL262930  29.155  19.758   6.153
 9954POPC   C1A62931  29.133  19.875   6.453
 9954POPC   D2A62932  29.146  19.878   6.753
 9954POPC   C3A62933  29.116  19.855   7.053
 9954POPC   C4A62934  29.162  19.817   7.353
 9954POPC   C1B62935  29.262  19.638   6.453
 9954POPC   C2B62936  29.266  19.562   6.753
 9954POPC   C3B62937  29.212  19.587   7.053
 9954POPC   C4B62938  29.233  19.576   7.353
 9955POPC   NC362939  42.320   1.194   5.553
 9955POPC   PO462940  42.357   1.255   5.853
 9955POPC   GL162941  42.370   1.236   6.153
 9955POPC   GL262942  42.232   1.337   6.153
 9955POPC   C1A62943  42.307   1.253   6.453
 9955POPC   D2A62944  42.320   1.187   6.753
 9955POPC   C3A62945  42.339   1.191   7.053
 9955POPC   C4A62946  42.322   1.196   7.353
 9955POPC   C1B62947  42.195   1.377   6.453
 9955POPC   C2B62948  42.129   1.371   6.753
 9955POPC   C3B62949  42.122   1.369   7.053
 9955POPC   C4B62950  42.159   1.373   7.353
 9956POPC   NC362951  40.753  28.361   5.553
 9956POPC   PO462952  40.822  28.369   5.853
 9956POPC   GL162953  40.776  28.359   6.153
 9956POPC   GL262954  40.642  28.264   6.153
 9956POPC   C1A62955  40.757  28.401   6.453
 9956POPC   D2A62956  40.816  28.362   6.753
 9956POPC   C3A62957  40.762  28.379   7.053
 9956POPC   C4A62958  40.783  28.381   7.353
 9956POPC   C1B62959  40.612  28.162   6.453
 9956POPC   C2B62960  40.598  28.215   6.753
 9956POPC   C3B62961  40.616  28.160   7.053
 9956POPC   C4B62962  40.641  28.183   7.353
 9957POPC   NC362963  31.432   7.449   5.553
 9957POPC   PO462964  31.437   7.418   5.853
 9957POPC   GL162965  31.496   7.378   6.153
 9957POPC   GL262966  31.541   7.506   6.153
 9957POPC   C1A62967  31.441   7.471   6.453
 9957POPC   D2A62968  31.439   7.426   6.753
 9957POPC   C3A62969  31.480   7.439   7.053
 9957POPC   C4A62970  31.469   7.436   7.353
 9957POPC   C1B62971  31.686   7.606   6.453
 9957POPC   C2B62972  31.654   7.586   6.753
 9957POPC   C3B62973  31.702   7.619   7.053
 9957POPC   C4B62974  31.683   7.574   7.353
 9958POPC   NC362975  15.218  11.316   5.553
 9958POPC   PO462976  15.201  11.315   5.853
 9958POPC   GL162977  15.165  11.256   6.153
 9958POPC   GL262978  15.190  11.175   6.153
 9958POPC   C1A62979  15.140  11.279   6.453
 9958POPC   D2A62980  15.170  11.261   6.753
 9958POPC   C3A62981  15.143  11.270   7.053
 9958POPC   C4A62982  15.220  11.298   7.353
 9958POPC   C1B62983  15.319  11.028   6.453
 9958POPC   C2B62984  15.280  11.061   6.753
 9958POPC   C3B62985  15.304  11.064   7.053
 9958POPC   C4B62986  15.306  11.119   7.353
 9959POPC   NC362987  38.428  22.948   5.553
 9959POPC   PO462988  38.431  22.964   5.853
 9959POPC   GL162989  38.493  22.892   6.153
 9959POPC   GL262990  38.521  22.905   6.153
 9959POPC   C1A62991  38.431  22.899   6.453
 9959POPC   D2A62992  38.463  22.898   6.753
 9959POPC   C3A62993  38.502  22.966   7.053
 9959POPC   C4A62994  38.495  22.901   7.353
 9959POPC   C1B62995  38.605  22.790   6.453
 9959POPC   C2B62996  38.614  22.789   6.753
 9959POPC   C3B62997  38.621  22.775   7.053
 9959POPC   C4B62998  38.658  22.807   7.353
 9960POPC   NC362999   1.967  39.230   5.553
 9960POPC   PO463000   1.985  39.231   5.853
 9960POPC   GL163001   2.001  39.263   6.153
 9960POPC   GL263002   1.930  39.171   6.153
 9960POPC   C1A63003   2.019  39.222   6.453
 9960POPC   D2A63004   1.945  39.191   6.753
 9960POPC   C3A63005   2.011  39.234   7.053
 9960POPC   C4A63006   1.983  39.253   7.353
 9960POPC   C1B63007   1.821  39.004   6.453
 9960POPC   C2B63008   1.836  38.967   6.753
 9960POPC   C3B63009   1.862  39.016   7.053
 9960POPC   C4B63010   1.862  39.024   7.353
 9961POPC   NC363011   0.448  33.840   5.553
 9961POPC   PO463012   0.440  33.797   5.853
 9961POPC   GL163013   0.450  33.839   6.153
 9961POPC   GL263014   0.458  33.889   6.153
 9961POPC   C1A63015   0.440  33.789   6.453
 9961POPC   D2A63016   0.420  33.774   6.753
 9961POPC   C3A63017   0.431  33.768   7.053
 9961POPC   C4A63018   0.451  33.836   7.353
 9961POPC   C1B63019   0.436  34.077   6.453
 9961POPC   C2B63020   0.456  34.034   6.753
 9961POPC   C3B63021   0.451  34.054   7.053
 9961POPC   C4B63022   0.465  34.079   7.353
 9962POPC   NC363023  29.184  13.607   5.553
 9962POPC   PO463024  29.175  13.648   5.853
 9962POPC   GL163025  29.140  13.661   6.153
 9962POPC   GL263026  29.272  13.562   6.153
 9962POPC   C1A63027  29.129  13.614   6.453
 9962POPC   D2A63028  29.133  13.663   6.753
 9962POPC   C3A63029  29.145  13.617   7.053
 9962POPC   C4A63030  29.099  13.603   7.353
 9962POPC   C1B63031  29.346  13.507   6.453
 9962POPC   C2B63032  29.324  13.558   6.753
 9962POPC   C3B63033  29.334  13.541   7.053
 9962POPC   C4B63034  29.376  13.465   7.353
 9963POPC   NC363035  25.283   8.189   5.553
 9963POPC   PO463036  25.231   8.183   5.853
 9963POPC   GL163037  25.273   8.244   6.153
 9963POPC   GL263038  25.160   8.175   6.153
 9963POPC   C1A63039  25.228   8.242   6.453
 9963POPC   D2A63040  25.284   8.155   6.753
 9963POPC   C3A63041  25.252   8.170   7.053
 9963POPC   C4A63042  25.279   8.188   7.353
 9963POPC   C1B63043  25.022   8.123   6.453
 9963POPC   C2B63044  25.012   8.105   6.753
 9963POPC   C3B63045  25.018   8.129   7.053
 9963POPC   C4B63046  24.994   8.110   7.353
 9964POPC   NC363047  22.171  18.313   5.553
 9964POPC   PO463048  22.167  18.326   5.853
 9964POPC   GL163049  22.202  18.299   6.153
 9964POPC   GL263050  22.010  18.184   6.153
 9964POPC   C1A63051  22.180  18.282   6.453
 9964POPC   D2A63052  22.128  18.299   6.753
 9964POPC   C3A63053  22.137  18.260   7.053
 9964POPC   C4A63054  22.181  18.269   7.353
 9964POPC   C1B63055  21.920  18.153   6.453
 9964POPC   C2B63056  21.928  18.210   6.753
 9964POPC   C3B63057  21.909  18.144   7.053
 9964POPC   C4B63058  21.959  18.213   7.353
 9965POPC   NC363059  31.459  27.627   5.553
 9965POPC   PO463060  31.484  27.553   5.853
 9965POPC   GL163061  31.430  27.566   6.153
 9965POPC   GL263062  31.553  27.519   6.153
 9965POPC   C1A63063  31.503  27.596   6.453
 9965POPC   D2A63064  31.486  27.590   6.753
 9965POPC   C3A63065  31.463  27.595   7.053
 9965POPC   C4A63066  31.513  27.571   7.353
 9965POPC   C1B63067  31.585  27.322   6.453
 9965POPC   C2B63068  31.524  27.341   6.753
 9965POPC   C3B63069  31.554  27.359   7.053
 9965POPC   C4B63070  31.571  27.322   7.353
 9966POPC   NC363071  36.158  18.244   5.553
 9966POPC   PO463072  36.081  18.272   5.853
 9966POPC   GL163073  36.092  18.319   6.153
 9966POPC   GL263074  36.167  18.185   6.153
 9966POPC   C1A63075  36.099  18.252   6.453
 9966POPC   D2A63076  36.173  18.275   6.753
 9966POPC   C3A63077  36.120  18.303   7.053
 9966POPC   C4A63078  36.080  18.237   7.353
 9966POPC   C1B63079  36.283  18.118   6.453
 9966POPC   C2B63080  36.303  18.151   6.753
 9966POPC   C3B63081  36.325  18.054   7.053
 9966POPC   C4B63082  36.269  18.065   7.353
 9967POPC   NC363083  44.641  36.944   5.553
 9967POPC   PO463084  44.708  36.893   5.853
 9967POPC   GL163085  44.612  36.929   6.153
 9967POPC   GL263086  44.753  37.035   6.153
 9967POPC   C1A63087  44.667  36.938   6.453
 9967POPC   D2A63088  44.666  36.919   6.753
 9967POPC   C3A63089  44.667  36.928   7.053
 9967POPC   C4A63090  44.672  36.944   7.353
 9967POPC   C1B63091  44.833  37.139   6.453
 9967POPC   C2B63092  44.773  37.094   6.753
 9967POPC   C3B63093  44.826  37.093   7.053
 9967POPC   C4B63094  44.780  37.078   7.353
 9968POPC   NC363095  36.088  19.039   5.553
 9968POPC   PO463096  36.115  19.022   5.853
 9968POPC   GL163097  36.132  19.087   6.153
 9968POPC   GL263098  35.999  18.921   6.153
 9968POPC   C1A63099  36.139  19.099   6.453
 9968POPC   D2A63100  36.146  19.101   6.753
 9968POPC   C3A63101  36.104  19.083   7.053
 9968POPC   C4A63102  36.133  19.104   7.353
 9968POPC   C1B63103  35.910  18.857   6.453
 9968POPC   C2B63104  35.997  18.859   6.753
 9968POPC   C3B63105  35.954  18.908   7.053
 9968POPC   C4B63106  35.910  18.875   7.353
 9969POPC   NC363107   7.461  18.263   5.553
 9969POPC   PO463108   7.397  18.277   5.853
 9969POPC   GL163109   7.394  18.266   6.153
 9969POPC   GL263110   7.379  18.391   6.153
 9969POPC   C1A63111   7.383  18.289   6.453
 9969POPC   D2A63112   7.403  18.305   6.753
 9969POPC   C3A63113   7.422  18.322   7.053
 9969POPC   C4A63114   7.427  18.333   7.353
 9969POPC   C1B63115   7.353  18.518   6.453
 9969POPC   C2B63116   7.394  18.481   6.753
 9969POPC   C3B63117   7.348  18.498   7.053
 9969POPC   C4B63118   7.406  18.522   7.353
 9970POPC   NC363119  16.769   7.450   5.553
 9970POPC   PO463120  16.749   7.411   5.853
 9970POPC   GL163121  16.741   7.405   6.153
 9970POPC   GL263122  16.693   7.577   6.153
 9970POPC   C1A63123  16.731   7.435   6.453
 9970POPC   D2A63124  16.691   7.466   6.753
 9970POPC   C3A63125  16.751   7.388   7.053
 9970POPC   C4A63126  16.701   7.420   7.353
 9970POPC   C1B63127  16.655   7.693   6.453
 9970POPC   C2B63128  16.693   7.675   6.753
 9970POPC   C3B63129  16.647   7.672   7.053
 9970POPC   C4B63130  16.603   7.679   7.353
 9971POPC   NC363131  39.274  29.906   5.553
 9971POPC   PO463132  39.205  29.967   5.853
 9971POPC   GL163133  39.187  29.899   6.153
 9971POPC   GL263134  39.180  30.052   6.153
 9971POPC   C1A63135  39.208  29.901   6.453
 9971POPC   D2A63136  39.271  29.913   6.753
 9971POPC   C3A63137  39.263  29.937   7.053
 9971POPC   C4A63138  39.275  29.949   7.353
 9971POPC   C1B63139  39.072  30.113   6.453
 9971POPC   C2B63140  39.122  30.179   6.753
 9971POPC   C3B63141  39.109  30.104   7.053
 9971POPC   C4B63142  39.114  30.115   7.353
 9972POPC   NC363143   8.212  26.858   5.553
 9972POPC   PO463144   8.153  26.815   5.853
 9972POPC   GL163145   8.153  26.830   6.153
 9972POPC   GL263146   8.242  26.724   6.153
 9972POPC   C1A63147   8.236  26.840   6.453
 9972POPC   D2A63148   8.163  26.789   6.753
 9972POPC   C3A63149   8.160  26.772   7.053
 9972POPC   C4A63150   8.179  26.864   7.353
 9972POPC   C1B63151   8.353  26.643   6.453
 9972POPC   C2B63152   8.349  26.639   6.753
 9972POPC   C3B63153   8.346  26.618   7.053
 9972POPC   C4B63154   8.334  26.669   7.353
 9973POPC   NC363155  29.952  21.396   5.553
 9973POPC   PO463156  29.890  21.380   5.853
 9973POPC   GL163157  29.952  21.422   6.153
 9973POPC   GL263158  29.784  21.442   6.153
 9973POPC   C1A63159  29.893  21.435   6.453
 9973POPC   D2A63160  29.903  21.393   6.753
 9973POPC   C3A63161  29.942  21.397   7.053
 9973POPC   C4A63162  29.895  21.394   7.353
 9973POPC   C1B63163  29.710  21.378   6.453
 9973POPC   C2B63164  29.693  21.449   6.753
 9973POPC   C3B63165  29.719  21.426   7.053
 9973POPC   C4B63166  29.719  21.435   7.353
 9974POPC   NC363167  17.503  19.859   5.553
 9974POPC   PO463168  17.466  19.832   5.853
 9974POPC   GL163169  17.499  19.877   6.153
 9974POPC   GL263170  17.626  19.704   6.153
 9974POPC   C1A63171  17.521  19.883   6.453
 9974POPC   D2A63172  17.485  19.852   6.753
 9974POPC   C3A63173  17.556  19.883   7.053
 9974POPC   C4A63174  17.460  19.816   7.353
 9974POPC   C1B63175  17.667  19.618   6.453
 9974POPC   C2B63176  17.657  19.655   6.753
 9974POPC   C3B63177  17.681  19.583   7.053
 9974POPC   C4B63178  17.691  19.601   7.353
 9975POPC   NC363179   5.065  11.303   5.553
 9975POPC   PO463180   5.130  11.265   5.853
 9975POPC   GL163181   5.047  11.316   6.153
 9975POPC   GL263182   5.056  11.163   6.153
 9975POPC   C1A63183   5.073  11.323   6.453
 9975POPC   D2A63184   5.073  11.279   6.753
 9975POPC   C3A63185   5.102  11.258   7.053
 9975POPC   C4A63186   5.066  11.336   7.353
 9975POPC   C1B63187   4.967  11.016   6.453
 9975POPC   C2B63188   4.960  11.024   6.753
 9975POPC   C3B63189   5.010  11.050   7.053
 9975POPC   C4B63190   5.031  11.077   7.353
 9976POPC   NC363191  26.787  30.699   5.553
 9976POPC   PO463192  26.776  30.715   5.853
 9976POPC   GL163193  26.844  30.720   6.153
 9976POPC   GL263194  26.674  30.656   6.153
 9976POPC   C1A63195  26.807  30.663   6.453
 9976POPC   D2A63196  26.824  30.683   6.753
 9976POPC   C3A63197  26.835  30.737   7.053
 9976POPC   C4A63198  26.773  30.662   7.353
 9976POPC   C1B63199  26.539  30.665   6.453
 9976POPC   C2B63200  26.553  30.689   6.753
 9976POPC   C3B63201  26.612  30.746   7.053
 9976POPC   C4B63202  26.520  30.751   7.353
 9977POPC   NC363203  26.007   0.421   5.553
 9977POPC   PO463204  26.051   0.415   5.853
 9977POPC   GL163205  26.003   0.418   6.153
 9977POPC   GL263206  26.024   0.336   6.153
 9977POPC   C1A63207  26.033   0.416   6.453
 9977POPC   D2A63208  26.076   0.415   6.753
 9977POPC   C3A63209  26.064   0.444   7.053
 9977POPC   C4A63210  26.070   0.482   7.353
 9977POPC   C1B63211  25.959   0.183   6.453
 9977POPC   C2B63212  25.925   0.232   6.753
 9977POPC   C3B63213  25.924   0.199   7.053
 9977POPC   C4B63214  25.902   0.165   7.353
 9978POPC   NC363215   7.435  41.607   5.553
 9978POPC   PO463216   7.448  41.572   5.853
 9978POPC   GL163217   7.377  41.519   6.153
 9978POPC   GL263218   7.495  41.648   6.153
 9978POPC   C1A63219   7.427  41.557   6.453
 9978POPC   D2A63220   7.398  41.598   6.753
 9978POPC   C3A63221   7.463  41.563   7.053
 9978POPC   C4A63222   7.373  41.544   7.353
 9978POPC   C1B63223   7.604  41.767   6.453
 9978POPC   C2B63224   7.625  41.758   6.753
 9978POPC   C3B63225   7.585  41.674   7.053
 9978POPC   C4B63226   7.569  41.699   7.353
 9979POPC   NC363227  12.081  24.506   5.553
 9979POPC   PO463228  12.122  24.501   5.853
 9979POPC   GL163229  12.100  24.441   6.153
 9979POPC   GL263230  11.959  24.500   6.153
 9979POPC   C1A63231  12.120  24.519   6.453
 9979POPC   D2A63232  12.098  24.454   6.753
 9979POPC   C3A63233  12.049  24.521   7.053
 9979POPC   C4A63234  12.091  24.447   7.353
 9979POPC   C1B63235  11.852  24.560   6.453
 9979POPC   C2B63236  11.861  24.509   6.753
 9979POPC   C3B63237  11.823  24.516   7.053
 9979POPC   C4B63238  11.808  24.566   7.353
 9980POPC   NC363239  26.839  36.942   5.553
 9980POPC   PO463240  26.852  36.927   5.853
 9980POPC   GL163241  26.815  36.887   6.153
 9980POPC   GL263242  26.947  36.941   6.153
 9980POPC   C1A63243  26.795  36.905   6.453
 9980POPC   D2A63244  26.810  36.898   6.753
 9980POPC   C3A63245  26.774  36.887   7.053
 9980POPC   C4A63246  26.783  36.867   7.353
 9980POPC   C1B63247  27.075  36.919   6.453
 9980POPC   C2B63248  27.065  36.920   6.753
 9980POPC   C3B63249  27.049  36.924   7.053
 9980POPC   C4B63250  27.064  36.994   7.353
 9981POPC   NC363251  43.073   0.418   5.553
 9981POPC   PO463252  43.123   0.408   5.853
 9981POPC   GL163253  43.143   0.452   6.153
 9981POPC   GL263254  43.040   0.423   6.153
 9981POPC   C1A63255  43.145   0.444   6.453
 9981POPC   D2A63256  43.148   0.410   6.753
 9981POPC   C3A63257  43.103   0.454   7.053
 9981POPC   C4A63258  43.113   0.453   7.353
 9981POPC   C1B63259  42.856   0.395   6.453
 9981POPC   C2B63260  42.909   0.398   6.753
 9981POPC   C3B63261  42.919   0.380   7.053
 9981POPC   C4B63262  42.831   0.393   7.353
 9982POPC   NC363263   0.483  13.615   5.553
 9982POPC   PO463264   0.430  13.607   5.853
 9982POPC   GL163265   0.461  13.616   6.153
 9982POPC   GL263266   0.347  13.667   6.153
 9982POPC   C1A63267   0.433  13.598   6.453
 9982POPC   D2A63268   0.473  13.591   6.753
 9982POPC   C3A63269   0.410  13.614   7.053
 9982POPC   C4A63270   0.445  13.626   7.353
 9982POPC   C1B63271   0.145  13.578   6.453
 9982POPC   C2B63272   0.229  13.616   6.753
 9982POPC   C3B63273   0.181  13.602   7.053
 9982POPC   C4B63274   0.171  13.605   7.353
 9983POPC   NC363275  38.440  43.889   5.553
 9983POPC   PO463276  38.491  43.873   5.853
 9983POPC   GL163277  38.448  43.926   6.153
 9983POPC   GL263278  38.388  43.742   6.153
 9983POPC   C1A63279  38.422  43.874   6.453
 9983POPC   D2A63280  38.421  43.877   6.753
 9983POPC   C3A63281  38.436  43.845   7.053
 9983POPC   C4A63282  38.485  43.887   7.353
 9983POPC   C1B63283  38.418  43.674   6.453
 9983POPC   C2B63284  38.441  43.679   6.753
 9983POPC   C3B63285  38.399  43.679   7.053
 9983POPC   C4B63286  38.394  43.640   7.353
 9984POPC   NC363287  27.543  20.639   5.553
 9984POPC   PO463288  27.615  20.570   5.853
 9984POPC   GL163289  27.565  20.608   6.153
 9984POPC   GL263290  27.691  20.536   6.153
 9984POPC   C1A63291  27.580  20.563   6.453
 9984POPC   D2A63292  27.607  20.578   6.753
 9984POPC   C3A63293  27.569  20.636   7.053
 9984POPC   C4A63294  27.617  20.579   7.353
 9984POPC   C1B63295  27.785  20.556   6.453
 9984POPC   C2B63296  27.844  20.565   6.753
 9984POPC   C3B63297  27.881  20.585   7.053
 9984POPC   C4B63298  27.810  20.584   7.353
 9985POPC   NC363299  28.361  44.646   5.553
 9985POPC   PO463300  28.381  44.628   5.853
 9985POPC   GL163301  28.388  44.657   6.153
 9985POPC   GL263302  28.363  44.536   6.153
 9985POPC   C1A63303  28.340  44.617   6.453
 9985POPC   D2A63304  28.348  44.659   6.753
 9985POPC   C3A63305  28.322  44.647   7.053
 9985POPC   C4A63306  28.352  44.622   7.353
 9985POPC   C1B63307  28.450  44.411   6.453
 9985POPC   C2B63308  28.434  44.435   6.753
 9985POPC   C3B63309  28.442  44.386   7.053
 9985POPC   C4B63310  28.455  44.400   7.353
 9986POPC   NC363311  16.710  26.054   5.553
 9986POPC   PO463312  16.754  26.080   5.853
 9986POPC   GL163313  16.692  25.995   6.153
 9986POPC   GL263314  16.842  26.000   6.153
 9986POPC   C1A63315  16.751  26.048   6.453
 9986POPC   D2A63316  16.712  25.993   6.753
 9986POPC   C3A63317  16.731  26.023   7.053
 9986POPC   C4A63318  16.775  26.032   7.353
 9986POPC   C1B63319  16.933  25.924   6.453
 9986POPC   C2B63320  16.966  25.880   6.753
 9986POPC   C3B63321  16.948  25.872   7.053
 9986POPC   C4B63322  16.976  25.935   7.353
 9987POPC   NC363323   0.485  11.321   5.553
 9987POPC   PO463324   0.401  11.285   5.853
 9987POPC   GL163325   0.483  11.330   6.153
 9987POPC   GL263326   0.352  11.334   6.153
 9987POPC   C1A63327   0.418  11.252   6.453
 9987POPC   D2A63328   0.398  11.280   6.753
 9987POPC   C3A63329   0.474  11.269   7.053
 9987POPC   C4A63330   0.466  11.292   7.353
 9987POPC   C1B63331   0.253  11.454   6.453
 9987POPC   C2B63332   0.253  11.375   6.753
 9987POPC   C3B63333   0.204  11.394   7.053
 9987POPC   C4B63334   0.233  11.409   7.353
 9988POPC   NC363335  11.338  20.649   5.553
 9988POPC   PO463336  11.301  20.625   5.853
 9988POPC   GL163337  11.290  20.603   6.153
 9988POPC   GL263338  11.203  20.695   6.153
 9988POPC   C1A63339  11.312  20.635   6.453
 9988POPC   D2A63340  11.322  20.646   6.753
 9988POPC   C3A63341  11.264  20.648   7.053
 9988POPC   C4A63342  11.262  20.560   7.353
 9988POPC   C1B63343  11.123  20.788   6.453
 9988POPC   C2B63344  11.106  20.731   6.753
 9988POPC   C3B63345  11.055  20.752   7.053
 9988POPC   C4B63346  11.137  20.732   7.353
 9989POPC   NC363347  25.287   9.733   5.553
 9989POPC   PO463348  25.234   9.796   5.853
 9989POPC   GL163349  25.270   9.719   6.153
 9989POPC   GL263350  25.261   9.870   6.153
 9989POPC   C1A63351  25.228   9.704   6.453
 9989POPC   D2A63352  25.272   9.775   6.753
 9989POPC   C3A63353  25.267   9.728   7.053
 9989POPC   C4A63354  25.263   9.797   7.353
 9989POPC   C1B63355  25.277   9.976   6.453
 9989POPC   C2B63356  25.218   9.949   6.753
 9989POPC   C3B63357  25.214  10.015   7.053
 9989POPC   C4B63358  25.204   9.970   7.353
 9990POPC   NC363359  34.534  26.837   5.553
 9990POPC   PO463360  34.606  26.827   5.853
 9990POPC   GL163361  34.619  26.824   6.153
 9990POPC   GL263362  34.666  26.723   6.153
 9990POPC   C1A63363  34.557  26.808   6.453
 9990POPC   D2A63364  34.610  26.769   6.753
 9990POPC   C3A63365  34.562  26.830   7.053
 9990POPC   C4A63366  34.535  26.810   7.353
 9990POPC   C1B63367  34.701  26.585   6.453
 9990POPC   C2B63368  34.664  26.648   6.753
 9990POPC   C3B63369  34.705  26.617   7.053
 9990POPC   C4B63370  34.672  26.622   7.353
 9991POPC   NC363371   8.181  31.522   5.553
 9991POPC   PO463372   8.159  31.513   5.853
 9991POPC   GL163373   8.161  31.455   6.153
 9991POPC   GL263374   8.210  31.380   6.153
 9991POPC   C1A63375   8.204  31.495   6.453
 9991POPC   D2A63376   8.179  31.439   6.753
 9991POPC   C3A63377   8.245  31.426   7.053
 9991POPC   C4A63378   8.237  31.458   7.353
 9991POPC   C1B63379   8.193  31.175   6.453
 9991POPC   C2B63380   8.217  31.197   6.753
 9991POPC   C3B63381   8.148  31.224   7.053
 9991POPC   C4B63382   8.212  31.251   7.353
 9992POPC   NC363383   4.333  14.375   5.553
 9992POPC   PO463384   4.339  14.356   5.853
 9992POPC   GL163385   4.276  14.392   6.153
 9992POPC   GL263386   4.458  14.339   6.153
 9992POPC   C1A63387   4.318  14.377   6.453
 9992POPC   D2A63388   4.321  14.446   6.753
 9992POPC   C3A63389   4.308  14.407   7.053
 9992POPC   C4A63390   4.331  14.433   7.353
 9992POPC   C1B63391   4.578  14.415   6.453
 9992POPC   C2B63392   4.566  14.351   6.753
 9992POPC   C3B63393   4.586  14.414   7.053
 9992POPC   C4B63394   4.592  14.392   7.353
 9993POPC   NC363395  11.260  28.407   5.553
 9993POPC   PO463396  11.287  28.417   5.853
 9993POPC   GL163397  11.279  28.331   6.153
 9993POPC   GL263398  11.346  28.495   6.153
 9993POPC   C1A63399  11.272  28.384   6.453
 9993POPC   D2A63400  11.278  28.389   6.753
 9993POPC   C3A63401  11.337  28.360   7.053
 9993POPC   C4A63402  11.291  28.341   7.353
 9993POPC   C1B63403  11.305  28.625   6.453
 9993POPC   C2B63404  11.375  28.585   6.753
 9993POPC   C3B63405  11.349  28.568   7.053
 9993POPC   C4B63406  11.299  28.648   7.353
 9994POPC   NC363407   9.745   2.770   5.553
 9994POPC   PO463408   9.720   2.792   5.853
 9994POPC   GL163409   9.700   2.729   6.153
 9994POPC   GL263410   9.685   2.897   6.153
 9994POPC   C1A63411   9.711   2.769   6.453
 9994POPC   D2A63412   9.762   2.772   6.753
 9994POPC   C3A63413   9.731   2.792   7.053
 9994POPC   C4A63414   9.704   2.755   7.353
 9994POPC   C1B63415   9.643   3.025   6.453
 9994POPC   C2B63416   9.643   2.947   6.753
 9994POPC   C3B63417   9.645   2.957   7.053
 9994POPC   C4B63418   9.668   2.989   7.353
 9995POPC   NC363419   3.538  41.574   5.553
 9995POPC   PO463420   3.514  41.540   5.853
 9995POPC   GL163421   3.579  41.590   6.153
 9995POPC   GL263422   3.616  41.460   6.153
 9995POPC   C1A63423   3.528  41.572   6.453
 9995POPC   D2A63424   3.546  41.606   6.753
 9995POPC   C3A63425   3.563  41.556   7.053
 9995POPC   C4A63426   3.500  41.593   7.353
 9995POPC   C1B63427   3.743  41.484   6.453
 9995POPC   C2B63428   3.720  41.433   6.753
 9995POPC   C3B63429   3.733  41.401   7.053
 9995POPC   C4B63430   3.720  41.426   7.353
 9996POPC   NC363431   8.185  26.037   5.553
 9996POPC   PO463432   8.171  26.003   5.853
 9996POPC   GL163433   8.194  26.027   6.153
 9996POPC   GL263434   8.271  26.097   6.153
 9996POPC   C1A63435   8.178  26.010   6.453
 9996POPC   D2A63436   8.238  26.049   6.753
 9996POPC   C3A63437   8.240  26.025   7.053
 9996POPC   C4A63438   8.153  26.033   7.353
 9996POPC   C1B63439   8.428  26.055   6.453
 9996POPC   C2B63440   8.414  26.125   6.753
 9996POPC   C3B63441   8.475  26.082   7.053
 9996POPC   C4B63442   8.445  26.035   7.353
 9997POPC   NC363443  12.121  22.952   5.553
 9997POPC   PO463444  12.036  22.893   5.853
 9997POPC   GL163445  12.043  22.961   6.153
 9997POPC   GL263446  12.128  23.107   6.153
 9997POPC   C1A63447  12.080  22.892   6.453
 9997POPC   D2A63448  12.028  22.953   6.753
 9997POPC   C3A63449  12.100  22.964   7.053
 9997POPC   C4A63450  12.031  22.935   7.353
 9997POPC   C1B63451  12.125  23.222   6.453
 9997POPC   C2B63452  12.102  23.217   6.753
 9997POPC   C3B63453  12.150  23.220   7.053
 9997POPC   C4B63454  12.091  23.225   7.353
 9998POPC   NC363455   0.397  39.248   5.553
 9998POPC   PO463456   0.443  39.280   5.853
 9998POPC   GL163457   0.457  39.194   6.153
 9998POPC   GL263458   0.282  39.179   6.153
 9998POPC   C1A63459   0.394  39.196   6.453
 9998POPC   D2A63460   0.483  39.258   6.753
 9998POPC   C3A63461   0.446  39.234   7.053
 9998POPC   C4A63462   0.445  39.203   7.353
 9998POPC   C1B63463   0.213  39.116   6.453
 9998POPC   C2B63464   0.177  39.170   6.753
 9998POPC   C3B63465   0.213  39.128   7.053
 9998POPC   C4B63466   0.238  39.206   7.353
 9999POPC   NC363467  39.216   2.020   5.553
 9999POPC   PO463468  39.269   2.012   5.853
 9999POPC   GL163469  39.214   2.021   6.153
 9999POPC   GL263470  39.349   1.866   6.153
 9999POPC   C1A63471  39.226   2.022   6.453
 9999POPC   D2A63472  39.241   1.947   6.753
 9999POPC   C3A63473  39.227   1.992   7.053
 9999POPC   C4A63474  39.257   1.962   7.353
 9999POPC   C1B63475  39.407   1.762   6.453
 9999POPC   C2B63476  39.406   1.794   6.753
 9999POPC   C3B63477  39.327   1.762   7.053
 9999POPC   C4B63478  39.394   1.810   7.353
10000POPC   NC363479  20.574  18.266   5.553
10000POPC   PO463480  20.623  18.305   5.853
10000POPC   GL163481  20.570  18.241   6.153
10000POPC   GL263482  20.721  18.214   6.153
10000POPC   C1A63483  20.637  18.317   6.453
10000POPC   D2A63484  20.626  18.273   6.753
10000POPC   C3A63485  20.583  18.242   7.053
10000POPC   C4A63486  20.582  18.236   7.353
10000POPC   C1B63487  20.797  18.095   6.453
10000POPC   C2B63488  20.778  18.081   6.753
10000POPC   C3B63489  20.771  18.147   7.053
10000POPC   C4B63490  20.769  18.130   7.353
10001POPC   NC363491   4.321  31.472   5.553
10001POPC   PO463492   4.294  31.479   5.853
10001POPC   GL163493   4.294  31.501   6.153
10001POPC   GL263494   4.165  31.515   6.153
10001POPC   C1A63495   4.294  31.465   6.453
10001POPC   D2A63496   4.317  31.451   6.753
10001POPC   C3A63497   4.305  31.480   7.053
10001POPC   C4A63498   4.285  31.446   7.353
10001POPC   C1B63499   4.034  31.491   6.453
10001POPC   C2B63500   4.084  31.431   6.753
10001POPC   C3B63501   4.033  31.492   7.053
10001POPC   C4B63502   4.055  31.455   7.353
10002POPC   NC363503   6.602  12.086   5.553
10002POPC   PO463504   6.622  12.060   5.853
10002POPC   GL163505   6.627  12.050   6.153
10002POPC   GL263506   6.628  11.997   6.153
10002POPC   C1A63507   6.632  12.075   6.453
10002POPC   D2A63508   6.610  12.032   6.753
10002POPC   C3A63509   6.649  12.051   7.053
10002POPC   C4A63510   6.672  12.044   7.353
10002POPC   C1B63511   6.692  11.831   6.453
10002POPC   C2B63512   6.639  11.861   6.753
10002POPC   C3B63513   6.669  11.798   7.053
10002POPC   C4B63514   6.657  11.812   7.353
10003POPC   NC363515  41.557  19.880   5.553
10003POPC   PO463516  41.571  19.855   5.853
10003POPC   GL163517  41.566  19.869   6.153
10003POPC   GL263518  41.523  19.733   6.153
10003POPC   C1A63519  41.561  19.805   6.453
10003POPC   D2A63520  41.598  19.859   6.753
10003POPC   C3A63521  41.561  19.820   7.053
10003POPC   C4A63522  41.521  19.865   7.353
10003POPC   C1B63523  41.517  19.565   6.453
10003POPC   C2B63524  41.478  19.570   6.753
10003POPC   C3B63525  41.530  19.595   7.053
10003POPC   C4B63526  41.489  19.580   7.353
10004POPC   NC363527   1.228  37.683   5.553
10004POPC   PO463528   1.189  37.671   5.853
10004POPC   GL163529   1.255  37.675   6.153
10004POPC   GL263530   1.162  37.754   6.153
10004POPC   C1A63531   1.239  37.643   6.453
10004POPC   D2A63532   1.207  37.644   6.753
10004POPC   C3A63533   1.237  37.705   7.053
10004POPC   C4A63534   1.251  37.674   7.353
10004POPC   C1B63535   1.019  37.808   6.453
10004POPC   C2B63536   1.067  37.866   6.753
10004POPC   C3B63537   1.071  37.897   7.053
10004POPC   C4B63538   1.050  37.807   7.353
10005POPC   NC363539  23.689  29.960   5.553
10005POPC   PO463540  23.753  29.928   5.853
10005POPC   GL163541  23.691  29.927   6.153
10005POPC   GL263542  23.587  30.004   6.153
10005POPC   C1A63543  23.756  29.920   6.453
10005POPC   D2A63544  23.760  29.951   6.753
10005POPC   C3A63545  23.681  29.907   7.053
10005POPC   C4A63546  23.707  29.953   7.353
10005POPC   C1B63547  23.540  30.008   6.453
10005POPC   C2B63548  23.455  30.036   6.753
10005POPC   C3B63549  23.480  29.998   7.053
10005POPC   C4B63550  23.526  30.039   7.353
10006POPC   NC363551  15.918  26.827   5.553
10006POPC   PO463552  15.949  26.782   5.853
10006POPC   GL163553  15.964  26.797   6.153
10006POPC   GL263554  15.837  26.699   6.153
10006POPC   C1A63555  16.003  26.790   6.453
10006POPC   D2A63556  15.967  26.839   6.753
10006POPC   C3A63557  15.959  26.864   7.053
10006POPC   C4A63558  15.917  26.782   7.353
10006POPC   C1B63559  15.738  26.625   6.453
10006POPC   C2B63560  15.802  26.606   6.753
10006POPC   C3B63561  15.770  26.641   7.053
10006POPC   C4B63562  15.786  26.622   7.353
10007POPC   NC363563  30.741  38.419   5.553
10007POPC   PO463564  30.735  38.408   5.853
10007POPC   GL163565  30.726  38.410   6.153
10007POPC   GL263566  30.844  38.554   6.153
10007POPC   C1A63567  30.719  38.459   6.453
10007POPC   D2A63568  30.662  38.423   6.753
10007POPC   C3A63569  30.671  38.414   7.053
10007POPC   C4A63570  30.685  38.422   7.353
10007POPC   C1B63571  30.905  38.632   6.453
10007POPC   C2B63572  30.934  38.558   6.753
10007POPC   C3B63573  30.890  38.623   7.053
10007POPC   C4B63574  30.941  38.563   7.353
10008POPC   NC363575  36.169  15.917   5.553
10008POPC   PO463576  36.133  15.937   5.853
10008POPC   GL163577  36.127  15.933   6.153
10008POPC   GL263578  36.097  16.009   6.153
10008POPC   C1A63579  36.161  15.930   6.453
10008POPC   D2A63580  36.156  15.929   6.753
10008POPC   C3A63581  36.102  15.907   7.053
10008POPC   C4A63582  36.145  15.907   7.353
10008POPC   C1B63583  36.025  16.154   6.453
10008POPC   C2B63584  35.992  16.168   6.753
10008POPC   C3B63585  35.939  16.124   7.053
10008POPC   C4B63586  36.013  16.137   7.353
10009POPC   NC363587  37.703  38.473   5.553
10009POPC   PO463588  37.652  38.423   5.853
10009POPC   GL163589  37.680  38.421   6.153
10009POPC   GL263590  37.515  38.448   6.153
10009POPC   C1A63591  37.657  38.489   6.453
10009POPC   D2A63592  37.648  38.432   6.753
10009POPC   C3A63593  37.657  38.477   7.053
10009POPC   C4A63594  37.697  38.457   7.353
10009POPC   C1B63595  37.455  38.363   6.453
10009POPC   C2B63596  37.441  38.403   6.753
10009POPC   C3B63597  37.480  38.407   7.053
10009POPC   C4B63598  37.471  38.398   7.353
10010POPC   NC363599  37.687  40.737   5.553
10010POPC   PO463600  37.710  40.735   5.853
10010POPC   GL163601  37.634  40.782   6.153
10010POPC   GL263602  37.806  40.799   6.153
10010POPC   C1A63603  37.714  40.740   6.453
10010POPC   D2A63604  37.729  40.753   6.753
10010POPC   C3A63605  37.636  40.804   7.053
10010POPC   C4A63606  37.704  40.815   7.353
10010POPC   C1B63607  37.897  40.862   6.453
10010POPC   C2B63608  37.933  40.831   6.753
10010POPC   C3B63609  37.877  40.875   7.053
10010POPC   C4B63610  37.894  40.834   7.353
10011POPC   NC363611   9.784  27.583   5.553
10011POPC   PO463612   9.716  27.604   5.853
10011POPC   GL163613   9.764  27.558   6.153
10011POPC   GL263614   9.776  27.722   6.153
10011POPC   C1A63615   9.720  27.634   6.453
10011POPC   D2A63616   9.781  27.583   6.753
10011POPC   C3A63617   9.785  27.546   7.053
10011POPC   C4A63618   9.699  27.553   7.353
10011POPC   C1B63619   9.801  27.834   6.453
10011POPC   C2B63620   9.742  27.794   6.753
10011POPC   C3B63621   9.773  27.821   7.053
10011POPC   C4B63622   9.799  27.872   7.353
10012POPC   NC363623  19.802  26.834   5.553
10012POPC   PO463624  19.837  26.776   5.853
10012POPC   GL163625  19.802  26.789   6.153
10012POPC   GL263626  19.888  26.653   6.153
10012POPC   C1A63627  19.816  26.856   6.453
10012POPC   D2A63628  19.853  26.843   6.753
10012POPC   C3A63629  19.862  26.811   7.053
10012POPC   C4A63630  19.877  26.774   7.353
10012POPC   C1B63631  19.928  26.591   6.453
10012POPC   C2B63632  19.942  26.619   6.753
10012POPC   C3B63633  19.903  26.536   7.053
10012POPC   C4B63634  19.943  26.593   7.353
10013POPC   NC363635  43.883  36.865   5.553
10013POPC   PO463636  43.890  36.900   5.853
10013POPC   GL163637  43.895  36.891   6.153
10013POPC   GL263638  44.011  36.997   6.153
10013POPC   C1A63639  43.936  36.906   6.453
10013POPC   D2A63640  43.838  36.944   6.753
10013POPC   C3A63641  43.888  36.886   7.053
10013POPC   C4A63642  43.873  36.898   7.353
10013POPC   C1B63643  44.136  37.037   6.453
10013POPC   C2B63644  44.077  37.059   6.753
10013POPC   C3B63645  44.078  37.087   7.053
10013POPC   C4B63646  44.067  37.003   7.353
10014POPC   NC363647  32.220   7.432   5.553
10014POPC   PO463648  32.219   7.409   5.853
10014POPC   GL163649  32.298   7.409   6.153
10014POPC   GL263650  32.185   7.477   6.153
10014POPC   C1A63651  32.294   7.463   6.453
10014POPC   D2A63652  32.218   7.435   6.753
10014POPC   C3A63653  32.247   7.385   7.053
10014POPC   C4A63654  32.295   7.396   7.353
10014POPC   C1B63655  32.081   7.537   6.453
10014POPC   C2B63656  32.045   7.549   6.753
10014POPC   C3B63657  32.020   7.578   7.053
10014POPC   C4B63658  32.004   7.611   7.353
10015POPC   NC363659   0.424   2.761   5.553
10015POPC   PO463660   0.424   2.800   5.853
10015POPC   GL163661   0.417   2.734   6.153
10015POPC   GL263662   0.392   2.852   6.153
10015POPC   C1A63663   0.397   2.745   6.453
10015POPC   D2A63664   0.391   2.749   6.753
10015POPC   C3A63665   0.469   2.755   7.053
10015POPC   C4A63666   0.461   2.791   7.353
10015POPC   C1B63667   0.266   2.918   6.453
10015POPC   C2B63668   0.282   2.934   6.753
10015POPC   C3B63669   0.240   2.971   7.053
10015POPC   C4B63670   0.249   2.981   7.353
10016POPC   NC363671  30.669  25.247   5.553
10016POPC   PO463672  30.662  25.242   5.853
10016POPC   GL163673  30.680  25.289   6.153
10016POPC   GL263674  30.843  25.221   6.153
10016POPC   C1A63675  30.727  25.301   6.453
10016POPC   D2A63676  30.671  25.276   6.753
10016POPC   C3A63677  30.694  25.278   7.053
10016POPC   C4A63678  30.653  25.305   7.353
10016POPC   C1B63679  30.880  25.177   6.453
10016POPC   C2B63680  30.929  25.120   6.753
10016POPC   C3B63681  30.930  25.147   7.053
10016POPC   C4B63682  30.936  25.200   7.353
10017POPC   NC363683  32.227  34.571   5.553
10017POPC   PO463684  32.294  34.605   5.853
10017POPC   GL163685  32.250  34.574   6.153
10017POPC   GL263686  32.085  34.607   6.153
10017POPC   C1A63687  32.210  34.535   6.453
10017POPC   D2A63688  32.273  34.624   6.753
10017POPC   C3A63689  32.263  34.560   7.053
10017POPC   C4A63690  32.222  34.600   7.353
10017POPC   C1B63691  32.006  34.609   6.453
10017POPC   C2B63692  32.025  34.640   6.753
10017POPC   C3B63693  31.969  34.669   7.053
10017POPC   C4B63694  31.985  34.629   7.353
10018POPC   NC363695  36.932  17.465   5.553
10018POPC   PO463696  36.903  17.463   5.853
10018POPC   GL163697  36.917  17.548   6.153
10018POPC   GL263698  36.879  17.595   6.153
10018POPC   C1A63699  36.857  17.552   6.453
10018POPC   D2A63700  36.938  17.544   6.753
10018POPC   C3A63701  36.943  17.539   7.053
10018POPC   C4A63702  36.935  17.475   7.353
10018POPC   C1B63703  36.862  17.749   6.453
10018POPC   C2B63704  36.813  17.738   6.753
10018POPC   C3B63705  36.819  17.773   7.053
10018POPC   C4B63706  36.901  17.800   7.353
10019POPC   NC363707  17.530   8.193   5.553
10019POPC   PO463708  17.482   8.148   5.853
10019POPC   GL163709  17.503   8.156   6.153
10019POPC   GL263710  17.657   8.257   6.153
10019POPC   C1A63711  17.527   8.161   6.453
10019POPC   D2A63712  17.475   8.163   6.753
10019POPC   C3A63713  17.550   8.222   7.053
10019POPC   C4A63714  17.466   8.163   7.353
10019POPC   C1B63715  17.736   8.326   6.453
10019POPC   C2B63716  17.695   8.294   6.753
10019POPC   C3B63717  17.760   8.267   7.053
10019POPC   C4B63718  17.758   8.279   7.353
10020POPC   NC363719  40.033  26.047   5.553
10020POPC   PO463720  40.025  25.992   5.853
10020POPC   GL163721  39.958  26.051   6.153
10020POPC   GL263722  39.947  26.152   6.153
10020POPC   C1A63723  39.978  26.077   6.453
10020POPC   D2A63724  40.035  26.027   6.753
10020POPC   C3A63725  39.974  26.059   7.053
10020POPC   C4A63726  39.974  26.043   7.353
10020POPC   C1B63727  39.828  26.228   6.453
10020POPC   C2B63728  39.776  26.239   6.753
10020POPC   C3B63729  39.836  26.204   7.053
10020POPC   C4B63730  39.808  26.184   7.353
10021POPC   NC363731  19.082  30.665   5.553
10021POPC   PO463732  19.089  30.681   5.853
10021POPC   GL163733  19.053  30.725   6.153
10021POPC   GL263734  19.007  30.827   6.153
10021POPC   C1A63735  19.103  30.709   6.453
10021POPC   D2A63736  19.031  30.697   6.753
10021POPC   C3A63737  19.087  30.722   7.053
10021POPC   C4A63738  19.081  30.683   7.353
10021POPC   C1B63739  18.886  30.887   6.453
10021POPC   C2B63740  18.882  30.879   6.753
10021POPC   C3B63741  18.906  30.853   7.053
10021POPC   C4B63742  18.862  30.838   7.353
10022POPC   NC363743  39.968  22.131   5.553
10022POPC   PO463744  39.971  22.124   5.853
10022POPC   GL163745  39.983  22.155   6.153
10022POPC   GL263746  39.926  22.055   6.153
10022POPC   C1A63747  39.965  22.137   6.453
10022POPC   D2A63748  40.043  22.175   6.753
10022POPC   C3A63749  39.959  22.140   7.053
10022POPC   C4A63750  40.029  22.160   7.353
10022POPC   C1B63751  39.803  22.054   6.453
10022POPC   C2B63752  39.772  22.018   6.753
10022POPC   C3B63753  39.794  22.061   7.053
10022POPC   C4B63754  39.803  22.020   7.353
10023POPC   NC363755  26.782  38.468   5.553
10023POPC   PO463756  26.794  38.474   5.853
10023POPC   GL163757  26.831  38.474   6.153
10023POPC   GL263758  26.769  38.550   6.153
10023POPC   C1A63759  26.866  38.421   6.453
10023POPC   D2A63760  26.768  38.475   6.753
10023POPC   C3A63761  26.852  38.496   7.053
10023POPC   C4A63762  26.840  38.432   7.353
10023POPC   C1B63763  26.777  38.743   6.453
10023POPC   C2B63764  26.718  38.710   6.753
10023POPC   C3B63765  26.764  38.700   7.053
10023POPC   C4B63766  26.735  38.681   7.353
10024POPC   NC363767  36.884  12.860   5.553
10024POPC   PO463768  36.892  12.887   5.853
10024POPC   GL163769  36.896  12.896   6.153
10024POPC   GL263770  36.775  12.777   6.153
10024POPC   C1A63771  36.950  12.834   6.453
10024POPC   D2A63772  36.881  12.846   6.753
10024POPC   C3A63773  36.881  12.900   7.053
10024POPC   C4A63774  36.870  12.810   7.353
10024POPC   C1B63775  36.759  12.691   6.453
10024POPC   C2B63776  36.766  12.639   6.753
10024POPC   C3B63777  36.780  12.674   7.053
10024POPC   C4B63778  36.724  12.684   7.353
10025POPC   NC363779  44.656   2.808   5.553
10025POPC   PO463780  44.628   2.723   5.853
10025POPC   GL163781  44.707   2.738   6.153
10025POPC   GL263782  44.762   2.747   6.153
10025POPC   C1A63783  44.701   2.720   6.453
10025POPC   D2A63784  44.694   2.777   6.753
10025POPC   C3A63785  44.658   2.764   7.053
10025POPC   C4A63786  44.627   2.796   7.353
10025POPC   C1B63787  44.876   2.768   6.453
10025POPC   C2B63788  44.959   2.776   6.753
10025POPC   C3B63789  44.957   2.709   7.053
10025POPC   C4B63790  44.869   2.727   7.353
10026POPC   NC363791   6.661  18.297   5.553
10026POPC   PO463792   6.634  18.256   5.853
10026POPC   GL163793   6.621  18.293   6.153
10026POPC   GL263794   6.702  18.185   6.153
10026POPC   C1A63795   6.668  18.259   6.453
10026POPC   D2A63796   6.641  18.299   6.753
10026POPC   C3A63797   6.690  18.306   7.053
10026POPC   C4A63798   6.679  18.291   7.353
10026POPC   C1B63799   6.809  18.105   6.453
10026POPC   C2B63800   6.769  18.114   6.753
10026POPC   C3B63801   6.793  18.071   7.053
10026POPC   C4B63802   6.760  18.082   7.353
10027POPC   NC363803  28.372  21.421   5.553
10027POPC   PO463804  28.406  21.341   5.853
10027POPC   GL163805  28.388  21.353   6.153
10027POPC   GL263806  28.257  21.397   6.153
10027POPC   C1A63807  28.359  21.340   6.453
10027POPC   D2A63808  28.353  21.371   6.753
10027POPC   C3A63809  28.404  21.376   7.053
10027POPC   C4A63810  28.376  21.406   7.353
10027POPC   C1B63811  28.165  21.549   6.453
10027POPC   C2B63812  28.114  21.473   6.753
10027POPC   C3B63813  28.136  21.494   7.053
10027POPC   C4B63814  28.103  21.506   7.353
10028POPC   NC363815  33.820  36.117   5.553
10028POPC   PO463816  33.849  36.079   5.853
10028POPC   GL163817  33.774  36.127   6.153
10028POPC   GL263818  33.792  36.266   6.153
10028POPC   C1A63819  33.810  36.119   6.453
10028POPC   D2A63820  33.841  36.086   6.753
10028POPC   C3A63821  33.762  36.094   7.053
10028POPC   C4A63822  33.842  36.091   7.353
10028POPC   C1B63823  33.817  36.386   6.453
10028POPC   C2B63824  33.757  36.403   6.753
10028POPC   C3B63825  33.743  36.364   7.053
10028POPC   C4B63826  33.751  36.361   7.353
10029POPC   NC363827  44.634  33.042   5.553
10029POPC   PO463828  44.641  33.028   5.853
10029POPC   GL163829  44.685  33.053   6.153
10029POPC   GL263830  44.668  32.908   6.153
10029POPC   C1A63831  44.683  33.017   6.453
10029POPC   D2A63832  44.651  33.027   6.753
10029POPC   C3A63833  44.671  32.989   7.053
10029POPC   C4A63834  44.627  33.001   7.353
10029POPC   C1B63835  44.673  32.765   6.453
10029POPC   C2B63836  44.653  32.768   6.753
10029POPC   C3B63837  44.602  32.779   7.053
10029POPC   C4B63838  44.679  32.816   7.353
10030POPC   NC363839  29.172  22.169   5.553
10030POPC   PO463840  29.122  22.210   5.853
10030POPC   GL163841  29.180  22.140   6.153
10030POPC   GL263842  29.197  22.049   6.153
10030POPC   C1A63843  29.157  22.158   6.453
10030POPC   D2A63844  29.099  22.121   6.753
10030POPC   C3A63845  29.169  22.112   7.053
10030POPC   C4A63846  29.114  22.122   7.353
10030POPC   C1B63847  29.182  21.951   6.453
10030POPC   C2B63848  29.209  21.946   6.753
10030POPC   C3B63849  29.218  21.875   7.053
10030POPC   C4B63850  29.182  21.892   7.353
10031POPC   NC363851  31.462  41.591   5.553
10031POPC   PO463852  31.434  41.576   5.853
10031POPC   GL163853  31.453  41.585   6.153
10031POPC   GL263854  31.453  41.713   6.153
10031POPC   C1A63855  31.498  41.592   6.453
10031POPC   D2A63856  31.427  41.540   6.753
10031POPC   C3A63857  31.509  41.588   7.053
10031POPC   C4A63858  31.462  41.527   7.353
10031POPC   C1B63859  31.389  41.818   6.453
10031POPC   C2B63860  31.371  41.791   6.753
10031POPC   C3B63861  31.404  41.758   7.053
10031POPC   C4B63862  31.370  41.789   7.353
10032POPC   NC363863  43.118  43.145   5.553
10032POPC   PO463864  43.089  43.077   5.853
10032POPC   GL163865  43.139  43.062   6.153
10032POPC   GL263866  43.042  43.022   6.153
10032POPC   C1A63867  43.148  43.126   6.453
10032POPC   D2A63868  43.156  43.152   6.753
10032POPC   C3A63869  43.127  43.117   7.053
10032POPC   C4A63870  43.083  43.128   7.353
10032POPC   C1B63871  43.035  42.822   6.453
10032POPC   C2B63872  43.014  42.872   6.753
10032POPC   C3B63873  43.057  42.825   7.053
10032POPC   C4B63874  43.040  42.836   7.353
10033POPC   NC363875   2.761  41.596   5.553
10033POPC   PO463876   2.751  41.574   5.853
10033POPC   GL163877   2.797  41.531   6.153
10033POPC   GL263878   2.818  41.645   6.153
10033POPC   C1A63879   2.785  41.587   6.453
10033POPC   D2A63880   2.725  41.550   6.753
10033POPC   C3A63881   2.799  41.596   7.053
10033POPC   C4A63882   2.791  41.517   7.353
10033POPC   C1B63883   2.860  41.802   6.453
10033POPC   C2B63884   2.859  41.822   6.753
10033POPC   C3B63885   2.920  41.756   7.053
10033POPC   C4B63886   2.931  41.763   7.353
10034POPC   NC363887  43.847  35.392   5.553
10034POPC   PO463888  43.864  35.359   5.853
10034POPC   GL163889  43.931  35.390   6.153
10034POPC   GL263890  43.774  35.316   6.153
10034POPC   C1A63891  43.909  35.324   6.453
10034POPC   D2A63892  43.867  35.343   6.753
10034POPC   C3A63893  43.896  35.329   7.053
10034POPC   C4A63894  43.923  35.332   7.353
10034POPC   C1B63895  43.675  35.380   6.453
10034POPC   C2B63896  43.611  35.347   6.753
10034POPC   C3B63897  43.679  35.302   7.053
10034POPC   C4B63898  43.639  35.335   7.353
10035POPC   NC363899   0.416  37.632   5.553
10035POPC   PO463900   0.481  37.698   5.853
10035POPC   GL163901   0.462  37.641   6.153
10035POPC   GL263902   0.531  37.621   6.153
10035POPC   C1A63903   0.418  37.631   6.453
10035POPC   D2A63904   0.409  37.713   6.753
10035POPC   C3A63905   0.439  37.669   7.053
10035POPC   C4A63906   0.399  37.631   7.353
10035POPC   C1B63907   0.633  37.535   6.453
10035POPC   C2B63908   0.660  37.585   6.753
10035POPC   C3B63909   0.654  37.505   7.053
10035POPC   C4B63910   0.630  37.585   7.353
10036POPC   NC363911  41.599  26.839   5.553
10036POPC   PO463912  41.562  26.865   5.853
10036POPC   GL163913  41.551  26.819   6.153
10036POPC   GL263914  41.495  26.706   6.153
10036POPC   C1A63915  41.576  26.840   6.453
10036POPC   D2A63916  41.530  26.812   6.753
10036POPC   C3A63917  41.538  26.768   7.053
10036POPC   C4A63918  41.547  26.855   7.353
10036POPC   C1B63919  41.424  26.674   6.453
10036POPC   C2B63920  41.426  26.675   6.753
10036POPC   C3B63921  41.367  26.627   7.053
10036POPC   C4B63922  41.436  26.673   7.353
10037POPC   NC363923   7.459  15.227   5.553
10037POPC   PO463924   7.383  15.198   5.853
10037POPC   GL163925   7.422  15.214   6.153
10037POPC   GL263926   7.351  15.071   6.153
10037POPC   C1A63927   7.432  15.191   6.453
10037POPC   D2A63928   7.458  15.173   6.753
10037POPC   C3A63929   7.423  15.130   7.053
10037POPC   C4A63930   7.405  15.207   7.353
10037POPC   C1B63931   7.311  14.945   6.453
10037POPC   C2B63932   7.299  14.950   6.753
10037POPC   C3B63933   7.297  15.030   7.053
10037POPC   C4B63934   7.220  15.014   7.353
10038POPC   NC363935  33.776  44.693   5.553
10038POPC   PO463936  33.766  44.706   5.853
10038POPC   GL163937  33.788  44.655   6.153
10038POPC   GL263938  33.634  44.626   6.153
10038POPC   C1A63939  33.850  44.658   6.453
10038POPC   D2A63940  33.839  44.680   6.753
10038POPC   C3A63941  33.775  44.663   7.053
10038POPC   C4A63942  33.841  44.649   7.353
10038POPC   C1B63943  33.557  44.599   6.453
10038POPC   C2B63944  33.563  44.633   6.753
10038POPC   C3B63945  33.571  44.606   7.053
10038POPC   C4B63946  33.516  44.631   7.353
10039POPC   NC363947   8.191  33.035   5.553
10039POPC   PO463948   8.201  32.979   5.853
10039POPC   GL163949   8.183  32.992   6.153
10039POPC   GL263950   8.248  33.057   6.153
10039POPC   C1A63951   8.245  33.033   6.453
10039POPC   D2A63952   8.168  33.010   6.753
10039POPC   C3A63953   8.211  33.019   7.053
10039POPC   C4A63954   8.178  33.050   7.353
10039POPC   C1B63955   8.438  33.215   6.453
10039POPC   C2B63956   8.402  33.166   6.753
10039POPC   C3B63957   8.397  33.173   7.053
10039POPC   C4B63958   8.374  33.142   7.353
10040POPC   NC363959  30.656   2.815   5.553
10040POPC   PO463960  30.649   2.779   5.853
10040POPC   GL163961  30.658   2.809   6.153
10040POPC   GL263962  30.537   2.728   6.153
10040POPC   C1A63963  30.685   2.744   6.453
10040POPC   D2A63964  30.739   2.791   6.753
10040POPC   C3A63965  30.651   2.717   7.053
10040POPC   C4A63966  30.648   2.793   7.353
10040POPC   C1B63967  30.489   2.767   6.453
10040POPC   C2B63968  30.444   2.722   6.753
10040POPC   C3B63969  30.431   2.741   7.053
10040POPC   C4B63970  30.464   2.752   7.353
10041POPC   NC363971  13.661  12.868   5.553
10041POPC   PO463972  13.668  12.890   5.853
10041POPC   GL163973  13.677  12.862   6.153
10041POPC   GL263974  13.741  12.795   6.153
10041POPC   C1A63975  13.600  12.850   6.453
10041POPC   D2A63976  13.593  12.868   6.753
10041POPC   C3A63977  13.650  12.860   7.053
10041POPC   C4A63978  13.634  12.880   7.353
10041POPC   C1B63979  13.811  12.727   6.453
10041POPC   C2B63980  13.846  12.712   6.753
10041POPC   C3B63981  13.828  12.723   7.053
10041POPC   C4B63982  13.817  12.748   7.353
10042POPC   NC363983   8.202  21.368   5.553
10042POPC   PO463984   8.198  21.386   5.853
10042POPC   GL163985   8.180  21.405   6.153
10042POPC   GL263986   8.111  21.405   6.153
10042POPC   C1A63987   8.211  21.385   6.453
10042POPC   D2A63988   8.147  21.378   6.753
10042POPC   C3A63989   8.205  21.428   7.053
10042POPC   C4A63990   8.169  21.352   7.353
10042POPC   C1B63991   7.925  21.497   6.453
10042POPC   C2B63992   7.937  21.435   6.753
10042POPC   C3B63993   7.987  21.527   7.053
10042POPC   C4B63994   7.980  21.445   7.353
10043POPC   NC363995   9.720   3.581   5.553
10043POPC   PO463996   9.760   3.580   5.853
10043POPC   GL163997   9.781   3.522   6.153
10043POPC   GL263998   9.894   3.582   6.153
10043POPC   C1A63999   9.724   3.524   6.453
10043POPC   D2A64000   9.705   3.563   6.753
10043POPC   C3A64001   9.769   3.492   7.053
10043POPC   C4A64002   9.715   3.502   7.353
10043POPC   C1B64003  10.003   3.596   6.453
10043POPC   C2B64004  10.017   3.642   6.753
10043POPC   C3B64005  10.030   3.603   7.053
10043POPC   C4B64006   9.932   3.592   7.353
10044POPC   NC364007  35.322  40.051   5.553
10044POPC   PO464008  35.369  39.966   5.853
10044POPC   GL164009  35.376  40.020   6.153
10044POPC   GL264010  35.480  39.900   6.153
10044POPC   C1A64011  35.400  40.051   6.453
10044POPC   D2A64012  35.368  39.968   6.753
10044POPC   C3A64013  35.322  40.041   7.053
10044POPC   C4A64014  35.308  40.055   7.353
10044POPC   C1B64015  35.553  39.840   6.453
10044POPC   C2B64016  35.607  39.895   6.753
10044POPC   C3B64017  35.605  39.839   7.053
10044POPC   C4B64018  35.595  39.903   7.353
10045POPC   NC364019   2.033  13.663   5.553
10045POPC   PO464020   1.955  13.592   5.853
10045POPC   GL164021   1.948  13.666   6.153
10045POPC   GL264022   2.109  13.690   6.153
10045POPC   C1A64023   1.946  13.648   6.453
10045POPC   D2A64024   1.961  13.664   6.753
10045POPC   C3A64025   1.966  13.645   7.053
10045POPC   C4A64026   1.980  13.667   7.353
10045POPC   C1B64027   2.249  13.715   6.453
10045POPC   C2B64028   2.207  13.743   6.753
10045POPC   C3B64029   2.167  13.776   7.053
10045POPC   C4B64030   2.207  13.763   7.353
10046POPC   NC364031  37.668  23.750   5.553
10046POPC   PO464032  37.699  23.722   5.853
10046POPC   GL164033  37.699  23.706   6.153
10046POPC   GL264034  37.623  23.846   6.153
10046POPC   C1A64035  37.650  23.709   6.453
10046POPC   D2A64036  37.677  23.713   6.753
10046POPC   C3A64037  37.671  23.679   7.053
10046POPC   C4A64038  37.725  23.747   7.353
10046POPC   C1B64039  37.607  23.920   6.453
10046POPC   C2B64040  37.678  24.009   6.753
10046POPC   C3B64041  37.633  23.992   7.053
10046POPC   C4B64042  37.678  23.983   7.353
10047POPC   NC364043  19.063  44.640   5.553
10047POPC   PO464044  19.033  44.704   5.853
10047POPC   GL164045  19.013  44.668   6.153
10047POPC   GL264046  19.196  44.759   6.153
10047POPC   C1A64047  19.035  44.666   6.453
10047POPC   D2A64048  19.022  44.660   6.753
10047POPC   C3A64049  19.090  44.673   7.053
10047POPC   C4A64050  19.079  44.665   7.353
10047POPC   C1B64051  19.297  44.808   6.453
10047POPC   C2B64052  19.275  44.794   6.753
10047POPC   C3B64053  19.232  44.767   7.053
10047POPC   C4B64054  19.222  44.821   7.353
10048POPC   NC364055   8.201  44.654   5.553
10048POPC   PO464056   8.242  44.614   5.853
10048POPC   GL164057   8.232  44.677   6.153
10048POPC   GL264058   8.189  44.817   6.153
10048POPC   C1A64059   8.177  44.691   6.453
10048POPC   D2A64060   8.205  44.701   6.753
10048POPC   C3A64061   8.212  44.617   7.053
10048POPC   C4A64062   8.238  44.644   7.353
10048POPC   C1B64063   8.169  44.900   6.453
10048POPC   C2B64064   8.137  44.938   6.753
10048POPC   C3B64065   8.206  44.927   7.053
10048POPC   C4B64066   8.226  44.875   7.353
10049POPC   NC364067  21.377  18.311   5.553
10049POPC   PO464068  21.376  18.268   5.853
10049POPC   GL164069  21.355  18.238   6.153
10049POPC   GL264070  21.435  18.407   6.153
10049POPC   C1A64071  21.408  18.293   6.453
10049POPC   D2A64072  21.415  18.326   6.753
10049POPC   C3A64073  21.397  18.301   7.053
10049POPC   C4A64074  21.363  18.243   7.353
10049POPC   C1B64075  21.446  18.478   6.453
10049POPC   C2B64076  21.487  18.524   6.753
10049POPC   C3B64077  21.482  18.539   7.053
10049POPC   C4B64078  21.441  18.552   7.353
10050POPC   NC364079  29.959  43.930   5.553
10050POPC   PO464080  29.965  43.866   5.853
10050POPC   GL164081  29.890  43.887   6.153
10050POPC   GL264082  29.895  43.747   6.153
10050POPC   C1A64083  29.931  43.899   6.453
10050POPC   D2A64084  29.918  43.881   6.753
10050POPC   C3A64085  29.933  43.908   7.053
10050POPC   C4A64086  29.917  43.876   7.353
10050POPC   C1B64087  29.922  43.610   6.453
10050POPC   C2B64088  29.896  43.642   6.753
10050POPC   C3B64089  29.934  43.669   7.053
10050POPC   C4B64090  29.910  43.622   7.353
10051POPC   NC364091   8.164  20.591   5.553
10051POPC   PO464092   8.206  20.568   5.853
10051POPC   GL164093   8.184  20.658   6.153
10051POPC   GL264094   8.257  20.544   6.153
10051POPC   C1A64095   8.177  20.656   6.453
10051POPC   D2A64096   8.218  20.622   6.753
10051POPC   C3A64097   8.178  20.642   7.053
10051POPC   C4A64098   8.158  20.597   7.353
10051POPC   C1B64099   8.373  20.411   6.453
10051POPC   C2B64100   8.313  20.384   6.753
10051POPC   C3B64101   8.344  20.390   7.053
10051POPC   C4B64102   8.369  20.457   7.353
10052POPC   NC364103  40.015  19.102   5.553
10052POPC   PO464104  40.002  19.063   5.853
10052POPC   GL164105  39.996  19.050   6.153
10052POPC   GL264106  39.873  18.980   6.153
10052POPC   C1A64107  39.986  19.009   6.453
10052POPC   D2A64108  39.977  19.089   6.753
10052POPC   C3A64109  40.054  19.012   7.053
10052POPC   C4A64110  39.957  19.055   7.353
10052POPC   C1B64111  39.828  18.899   6.453
10052POPC   C2B64112  39.793  18.907   6.753
10052POPC   C3B64113  39.814  18.887   7.053
10052POPC   C4B64114  39.865  18.910   7.353
10053POPC   NC364115  22.127  10.512   5.553
10053POPC   PO464116  22.153  10.503   5.853
10053POPC   GL164117  22.132  10.570   6.153
10053POPC   GL264118  22.029  10.514   6.153
10053POPC   C1A64119  22.193  10.569   6.453
10053POPC   D2A64120  22.153  10.518   6.753
10053POPC   C3A64121  22.118  10.560   7.053
10053POPC   C4A64122  22.128  10.487   7.353
10053POPC   C1B64123  21.942  10.519   6.453
10053POPC   C2B64124  21.864  10.505   6.753
10053POPC   C3B64125  21.916  10.473   7.053
10053POPC   C4B64126  21.939  10.536   7.353
10054POPC   NC364127  17.513   9.015   5.553
10054POPC   PO464128  17.541   8.941   5.853
10054POPC   GL164129  17.477   8.939   6.153
10054POPC   GL264130  17.353   8.893   6.153
10054POPC   C1A64131  17.509   8.980   6.453
10054POPC   D2A64132  17.530   8.987   6.753
10054POPC   C3A64133  17.490   8.958   7.053
10054POPC   C4A64134  17.529   8.969   7.353
10054POPC   C1B64135  17.274   8.833   6.453
10054POPC   C2B64136  17.282   8.879   6.753
10054POPC   C3B64137  17.285   8.794   7.053
10054POPC   C4B64138  17.265   8.886   7.353
10055POPC   NC364139  19.792  40.043   5.553
10055POPC   PO464140  19.794  39.996   5.853
10055POPC   GL164141  19.882  40.017   6.153
10055POPC   GL264142  19.925  39.943   6.153
10055POPC   C1A64143  19.835  39.966   6.453
10055POPC   D2A64144  19.793  40.021   6.753
10055POPC   C3A64145  19.829  39.983   7.053
10055POPC   C4A64146  19.855  39.988   7.353
10055POPC   C1B64147  19.972  39.754   6.453
10055POPC   C2B64148  20.002  39.769   6.753
10055POPC   C3B64149  19.930  39.803   7.053
10055POPC   C4B64150  19.995  39.751   7.353
10056POPC   NC364151   8.176  40.832   5.553
10056POPC   PO464152   8.190  40.804   5.853
10056POPC   GL164153   8.227  40.812   6.153
10056POPC   GL264154   8.274  40.686   6.153
10056POPC   C1A64155   8.219  40.823   6.453
10056POPC   D2A64156   8.233  40.803   6.753
10056POPC   C3A64157   8.198  40.815   7.053
10056POPC   C4A64158   8.218  40.816   7.353
10056POPC   C1B64159   8.296  40.608   6.453
10056POPC   C2B64160   8.366  40.590   6.753
10056POPC   C3B64161   8.362  40.567   7.053
10056POPC   C4B64162   8.311  40.600   7.353
10057POPC   NC364163   4.312  41.522   5.553
10057POPC   PO464164   4.285  41.595   5.853
10057POPC   GL164165   4.334  41.572   6.153
10057POPC   GL264166   4.273  41.636   6.153
10057POPC   C1A64167   4.299  41.594   6.453
10057POPC   D2A64168   4.350  41.552   6.753
10057POPC   C3A64169   4.349  41.538   7.053
10057POPC   C4A64170   4.353  41.568   7.353
10057POPC   C1B64171   4.188  41.799   6.453
10057POPC   C2B64172   4.164  41.794   6.753
10057POPC   C3B64173   4.188  41.724   7.053
10057POPC   C4B64174   4.149  41.722   7.353
10058POPC   NC364175  13.625   5.082   5.553
10058POPC   PO464176  13.673   5.102   5.853
10058POPC   GL164177  13.622   5.062   6.153
10058POPC   GL264178  13.578   5.183   6.153
10058POPC   C1A64179  13.657   5.101   6.453
10058POPC   D2A64180  13.672   5.057   6.753
10058POPC   C3A64181  13.630   5.047   7.053
10058POPC   C4A64182  13.650   5.089   7.353
10058POPC   C1B64183  13.452   5.316   6.453
10058POPC   C2B64184  13.477   5.313   6.753
10058POPC   C3B64185  13.481   5.339   7.053
10058POPC   C4B64186  13.435   5.265   7.353
10059POPC   NC364187  30.650  43.100   5.553
10059POPC   PO464188  30.694  43.128   5.853
10059POPC   GL164189  30.679  43.079   6.153
10059POPC   GL264190  30.678  43.051   6.153
10059POPC   C1A64191  30.679  43.074   6.453
10059POPC   D2A64192  30.716  43.104   6.753
10059POPC   C3A64193  30.711  43.116   7.053
10059POPC   C4A64194  30.686  43.132   7.353
10059POPC   C1B64195  30.616  42.876   6.453
10059POPC   C2B64196  30.556  42.884   6.753
10059POPC   C3B64197  30.569  42.894   7.053
10059POPC   C4B64198  30.557  42.853   7.353
10060POPC   NC364199  26.088  34.603   5.553
10060POPC   PO464200  26.053  34.586   5.853
10060POPC   GL164201  26.008  34.604   6.153
10060POPC   GL264202  25.970  34.634   6.153
10060POPC   C1A64203  26.054  34.588   6.453
10060POPC   D2A64204  25.999  34.586   6.753
10060POPC   C3A64205  26.061  34.586   7.053
10060POPC   C4A64206  26.090  34.528   7.353
10060POPC   C1B64207  25.955  34.825   6.453
10060POPC   C2B64208  25.899  34.798   6.753
10060POPC   C3B64209  25.954  34.757   7.053
10060POPC   C4B64210  25.921  34.781   7.353
10061POPC   NC364211  19.010   3.590   5.553
10061POPC   PO464212  19.035   3.560   5.853
10061POPC   GL164213  19.036   3.548   6.153
10061POPC   GL264214  18.921   3.598   6.153
10061POPC   C1A64215  19.013   3.587   6.453
10061POPC   D2A64216  19.018   3.505   6.753
10061POPC   C3A64217  19.056   3.508   7.053
10061POPC   C4A64218  19.081   3.509   7.353
10061POPC   C1B64219  18.886   3.698   6.453
10061POPC   C2B64220  18.836   3.747   6.753
10061POPC   C3B64221  18.861   3.679   7.053
10061POPC   C4B64222  18.894   3.715   7.353
10062POPC   NC364223  38.424  19.044   5.553
10062POPC   PO464224  38.462  19.012   5.853
10062POPC   GL164225  38.421  19.051   6.153
10062POPC   GL264226  38.483  18.947   6.153
10062POPC   C1A64227  38.436  19.061   6.453
10062POPC   D2A64228  38.502  19.012   6.753
10062POPC   C3A64229  38.409  19.088   7.053
10062POPC   C4A64230  38.479  19.102   7.353
10062POPC   C1B64231  38.568  18.826   6.453
10062POPC   C2B64232  38.541  18.779   6.753
10062POPC   C3B64233  38.522  18.798   7.053
10062POPC   C4B64234  38.526  18.828   7.353
10063POPC   NC364235  21.384  40.783   5.553
10063POPC   PO464236  21.407  40.742   5.853
10063POPC   GL164237  21.392  40.747   6.153
10063POPC   GL264238  21.514  40.774   6.153
10063POPC   C1A64239  21.338  40.787   6.453
10063POPC   D2A64240  21.346  40.796   6.753
10063POPC   C3A64241  21.405  40.745   7.053
10063POPC   C4A64242  21.400  40.786   7.353
10063POPC   C1B64243  21.617  40.830   6.453
10063POPC   C2B64244  21.670  40.785   6.753
10063POPC   C3B64245  21.620  40.814   7.053
10063POPC   C4B64246  21.596  40.863   7.353
10064POPC   NC364247   3.587  15.188   5.553
10064POPC   PO464248   3.588  15.146   5.853
10064POPC   GL164249   3.562  15.153   6.153
10064POPC   GL264250   3.520  15.267   6.153
10064POPC   C1A64251   3.591  15.179   6.453
10064POPC   D2A64252   3.498  15.166   6.753
10064POPC   C3A64253   3.563  15.188   7.053
10064POPC   C4A64254   3.585  15.223   7.353
10064POPC   C1B64255   3.500  15.375   6.453
10064POPC   C2B64256   3.512  15.421   6.753
10064POPC   C3B64257   3.441  15.444   7.053
10064POPC   C4B64258   3.509  15.389   7.353
10065POPC   NC364259  25.247  32.208   5.553
10065POPC   PO464260  25.241  32.239   5.853
10065POPC   GL164261  25.250  32.212   6.153
10065POPC   GL264262  25.173  32.215   6.153
10065POPC   C1A64263  25.236  32.290   6.453
10065POPC   D2A64264  25.250  32.242   6.753
10065POPC   C3A64265  25.271  32.234   7.053
10065POPC   C4A64266  25.257  32.224   7.353
10065POPC   C1B64267  25.083  32.145   6.453
10065POPC   C2B64268  25.004  32.132   6.753
10065POPC   C3B64269  25.046  32.100   7.053
10065POPC   C4B64270  25.064  32.168   7.353
10066POPC   NC364271  12.858   2.010   5.553
10066POPC   PO464272  12.865   1.972   5.853
10066POPC   GL164273  12.853   1.957   6.153
10066POPC   GL264274  12.958   2.111   6.153
10066POPC   C1A64275  12.807   1.945   6.453
10066POPC   D2A64276  12.804   2.032   6.753
10066POPC   C3A64277  12.815   1.945   7.053
10066POPC   C4A64278  12.855   2.035   7.353
10066POPC   C1B64279  13.086   2.177   6.453
10066POPC   C2B64280  12.997   2.141   6.753
10066POPC   C3B64281  13.010   2.162   7.053
10066POPC   C4B64282  13.052   2.194   7.353
10067POPC   NC364283   1.241  40.828   5.553
10067POPC   PO464284   1.203  40.791   5.853
10067POPC   GL164285   1.226  40.793   6.153
10067POPC   GL264286   1.333  40.809   6.153
10067POPC   C1A64287   1.259  40.741   6.453
10067POPC   D2A64288   1.193  40.764   6.753
10067POPC   C3A64289   1.168  40.819   7.053
10067POPC   C4A64290   1.165  40.806   7.353
10067POPC   C1B64291   1.464  40.881   6.453
10067POPC   C2B64292   1.433  40.892   6.753
10067POPC   C3B64293   1.383  40.898   7.053
10067POPC   C4B64294   1.391  40.964   7.353
10068POPC   NC364295   4.313  24.499   5.553
10068POPC   PO464296   4.303  24.454   5.853
10068POPC   GL164297   4.318  24.494   6.153
10068POPC   GL264298   4.376  24.596   6.153
10068POPC   C1A64299   4.334  24.519   6.453
10068POPC   D2A64300   4.272  24.468   6.753
10068POPC   C3A64301   4.284  24.494   7.053
10068POPC   C4A64302   4.330  24.536   7.353
10068POPC   C1B64303   4.534  24.692   6.453
10068POPC   C2B64304   4.489  24.615   6.753
10068POPC   C3B64305   4.527  24.657   7.053
10068POPC   C4B64306   4.522  24.685   7.353
10069POPC   NC364307  26.835  12.077   5.553
10069POPC   PO464308  26.788  12.033   5.853
10069POPC   GL164309  26.855  12.098   6.153
10069POPC   GL264310  26.897  12.143   6.153
10069POPC   C1A64311  26.783  12.087   6.453
10069POPC   D2A64312  26.773  12.086   6.753
10069POPC   C3A64313  26.801  12.039   7.053
10069POPC   C4A64314  26.797  12.039   7.353
10069POPC   C1B64315  27.024  12.184   6.453
10069POPC   C2B64316  27.040  12.135   6.753
10069POPC   C3B64317  27.040  12.138   7.053
10069POPC   C4B64318  27.090  12.163   7.353
10070POPC   NC364319  20.578   8.237   5.553
10070POPC   PO464320  20.590   8.218   5.853
10070POPC   GL164321  20.581   8.245   6.153
10070POPC   GL264322  20.707   8.240   6.153
10070POPC   C1A64323  20.633   8.230   6.453
10070POPC   D2A64324  20.623   8.201   6.753
10070POPC   C3A64325  20.626   8.218   7.053
10070POPC   C4A64326  20.631   8.206   7.353
10070POPC   C1B64327  20.840   8.281   6.453
10070POPC   C2B64328  20.810   8.228   6.753
10070POPC   C3B64329  20.849   8.250   7.053
10070POPC   C4B64330  20.833   8.227   7.353
10071POPC   NC364331   5.117  29.910   5.553
10071POPC   PO464332   5.111  29.891   5.853
10071POPC   GL164333   5.125  29.924   6.153
10071POPC   GL264334   5.111  29.794   6.153
10071POPC   C1A64335   5.063  29.900   6.453
10071POPC   D2A64336   5.124  29.957   6.753
10071POPC   C3A64337   5.136  29.965   7.053
10071POPC   C4A64338   5.084  29.924   7.353
10071POPC   C1B64339   5.175  29.664   6.453
10071POPC   C2B64340   5.195  29.639   6.753
10071POPC   C3B64341   5.144  29.697   7.053
10071POPC   C4B64342   5.206  29.707   7.353
10072POPC   NC364343  40.053  29.920   5.553
10072POPC   PO464344  39.959  29.876   5.853
10072POPC   GL164345  39.970  29.946   6.153
10072POPC   GL264346  39.926  29.978   6.153
10072POPC   C1A64347  40.022  29.930   6.453
10072POPC   D2A64348  40.050  29.926   6.753
10072POPC   C3A64349  39.985  29.916   7.053
10072POPC   C4A64350  40.049  29.899   7.353
10072POPC   C1B64351  39.756  29.961   6.453
10072POPC   C2B64352  39.719  29.979   6.753
10072POPC   C3B64353  39.746  29.948   7.053
10072POPC   C4B64354  39.788  29.944   7.353
10073POPC   NC364355  29.898   1.990   5.553
10073POPC   PO464356  29.879   2.033   5.853
10073POPC   GL164357  29.944   2.019   6.153
10073POPC   GL264358  30.044   1.886   6.153
10073POPC   C1A64359  29.899   2.029   6.453
10073POPC   D2A64360  29.924   1.988   6.753
10073POPC   C3A64361  29.959   1.980   7.053
10073POPC   C4A64362  29.959   1.949   7.353
10073POPC   C1B64363  30.154   1.864   6.453
10073POPC   C2B64364  30.174   1.894   6.753
10073POPC   C3B64365  30.146   1.911   7.053
10073POPC   C4B64366  30.154   1.824   7.353
10074POPC   NC364367  44.661  17.514   5.553
10074POPC   PO464368  44.617  17.547   5.853
10074POPC   GL164369  44.666  17.548   6.153
10074POPC   GL264370  44.531  17.562   6.153
10074POPC   C1A64371  44.685  17.462   6.453
10074POPC   D2A64372  44.635  17.470   6.753
10074POPC   C3A64373  44.639  17.553   7.053
10074POPC   C4A64374  44.662  17.538   7.353
10074POPC   C1B64375  44.511  17.713   6.453
10074POPC   C2B64376  44.533  17.659   6.753
10074POPC   C3B64377  44.539  17.701   7.053
10074POPC   C4B64378  44.507  17.687   7.353
10075POPC   NC364379  40.768  43.932   5.553
10075POPC   PO464380  40.789  43.843   5.853
10075POPC   GL164381  40.826  43.873   6.153
10075POPC   GL264382  40.756  44.022   6.153
10075POPC   C1A64383  40.799  43.896   6.453
10075POPC   D2A64384  40.780  43.932   6.753
10075POPC   C3A64385  40.751  43.867   7.053
10075POPC   C4A64386  40.741  43.904   7.353
10075POPC   C1B64387  40.788  44.145   6.453
10075POPC   C2B64388  40.773  44.102   6.753
10075POPC   C3B64389  40.717  44.184   7.053
10075POPC   C4B64390  40.733  44.132   7.353
10076POPC   NC364391  39.986  36.131   5.553
10076POPC   PO464392  40.043  36.119   5.853
10076POPC   GL164393  40.016  36.095   6.153
10076POPC   GL264394  40.103  36.173   6.153
10076POPC   C1A64395  40.054  36.127   6.453
10076POPC   D2A64396  40.019  36.151   6.753
10076POPC   C3A64397  39.981  36.145   7.053
10076POPC   C4A64398  40.012  36.103   7.353
10076POPC   C1B64399  40.259  36.228   6.453
10076POPC   C2B64400  40.273  36.218   6.753
10076POPC   C3B64401  40.227  36.140   7.053
10076POPC   C4B64402  40.290  36.211   7.353
10077POPC   NC364403   9.756  34.538   5.553
10077POPC   PO464404   9.757  34.547   5.853
10077POPC   GL164405   9.753  34.562   6.153
10077POPC   GL264406   9.641  34.554   6.153
10077POPC   C1A64407   9.700  34.577   6.453
10077POPC   D2A64408   9.713  34.601   6.753
10077POPC   C3A64409   9.731  34.559   7.053
10077POPC   C4A64410   9.771  34.572   7.353
10077POPC   C1B64411   9.449  34.581   6.453
10077POPC   C2B64412   9.498  34.549   6.753
10077POPC   C3B64413   9.476  34.545   7.053
10077POPC   C4B64414   9.512  34.586   7.353
10078POPC   NC364415  18.287  29.150   5.553
10078POPC   PO464416  18.243  29.117   5.853
10078POPC   GL164417  18.292  29.140   6.153
10078POPC   GL264418  18.208  29.044   6.153
10078POPC   C1A64419  18.266  29.148   6.453
10078POPC   D2A64420  18.283  29.153   6.753
10078POPC   C3A64421  18.237  29.098   7.053
10078POPC   C4A64422  18.256  29.175   7.353
10078POPC   C1B64423  18.182  28.971   6.453
10078POPC   C2B64424  18.130  28.893   6.753
10078POPC   C3B64425  18.132  28.907   7.053
10078POPC   C4B64426  18.186  28.962   7.353
10079POPC   NC364427  19.834  41.593   5.553
10079POPC   PO464428  19.875  41.565   5.853
10079POPC   GL164429  19.792  41.526   6.153
10079POPC   GL264430  19.966  41.508   6.153
10079POPC   C1A64431  19.812  41.526   6.453
10079POPC   D2A64432  19.871  41.537   6.753
10079POPC   C3A64433  19.829  41.527   7.053
10079POPC   C4A64434  19.866  41.587   7.353
10079POPC   C1B64435  20.028  41.387   6.453
10079POPC   C2B64436  20.071  41.401   6.753
10079POPC   C3B64437  20.041  41.474   7.053
10079POPC   C4B64438  20.021  41.482   7.353
10080POPC   NC364439  12.878  32.247   5.553
10080POPC   PO464440  12.834  32.199   5.853
10080POPC   GL164441  12.817  32.274   6.153
10080POPC   GL264442  12.989  32.241   6.153
10080POPC   C1A64443  12.871  32.258   6.453
10080POPC   D2A64444  12.859  32.268   6.753
10080POPC   C3A64445  12.899  32.235   7.053
10080POPC   C4A64446  12.902  32.226   7.353
10080POPC   C1B64447  13.099  32.194   6.453
10080POPC   C2B64448  13.114  32.274   6.753
10080POPC   C3B64449  13.140  32.220   7.053
10080POPC   C4B64450  13.111  32.205   7.353
10081POPC   NC364451  20.623  39.225   5.553
10081POPC   PO464452  20.626  39.251   5.853
10081POPC   GL164453  20.595  39.221   6.153
10081POPC   GL264454  20.468  39.141   6.153
10081POPC   C1A64455  20.587  39.253   6.453
10081POPC   D2A64456  20.650  39.206   6.753
10081POPC   C3A64457  20.637  39.271   7.053
10081POPC   C4A64458  20.631  39.247   7.353
10081POPC   C1B64459  20.429  39.026   6.453
10081POPC   C2B64460  20.469  39.068   6.753
10081POPC   C3B64461  20.409  39.055   7.053
10081POPC   C4B64462  20.446  39.084   7.353
10082POPC   NC364463  29.116   8.226   5.553
10082POPC   PO464464  29.189   8.196   5.853
10082POPC   GL164465  29.111   8.156   6.153
10082POPC   GL264466  29.150   8.316   6.153
10082POPC   C1A64467  29.175   8.242   6.453
10082POPC   D2A64468  29.190   8.226   6.753
10082POPC   C3A64469  29.130   8.186   7.053
10082POPC   C4A64470  29.140   8.197   7.353
10082POPC   C1B64471  29.089   8.444   6.453
10082POPC   C2B64472  29.102   8.418   6.753
10082POPC   C3B64473  29.129   8.480   7.053
10082POPC   C4B64474  29.107   8.447   7.353
10083POPC   NC364475   5.054  27.574   5.553
10083POPC   PO464476   5.139  27.584   5.853
10083POPC   GL164477   5.084  27.598   6.153
10083POPC   GL264478   5.231  27.713   6.153
10083POPC   C1A64479   5.049  27.608   6.453
10083POPC   D2A64480   5.109  27.625   6.753
10083POPC   C3A64481   5.136  27.593   7.053
10083POPC   C4A64482   5.142  27.556   7.353
10083POPC   C1B64483   5.321  27.797   6.453
10083POPC   C2B64484   5.260  27.788   6.753
10083POPC   C3B64485   5.264  27.792   7.053
10083POPC   C4B64486   5.304  27.780   7.353
10084POPC   NC364487  27.634  13.591   5.553
10084POPC   PO464488  27.614  13.611   5.853
10084POPC   GL164489  27.629  13.634   6.153
10084POPC   GL264490  27.741  13.644   6.153
10084POPC   C1A64491  27.574  13.662   6.453
10084POPC   D2A64492  27.595  13.631   6.753
10084POPC   C3A64493  27.591  13.588   7.053
10084POPC   C4A64494  27.609  13.646   7.353
10084POPC   C1B64495  27.853  13.610   6.453
10084POPC   C2B64496  27.840  13.585   6.753
10084POPC   C3B64497  27.812  13.598   7.053
10084POPC   C4B64498  27.815  13.572   7.353
10085POPC   NC364499  16.005  29.874   5.553
10085POPC   PO464500  16.001  29.913   5.853
10085POPC   GL164501  15.916  29.896   6.153
10085POPC   GL264502  15.903  29.995   6.153
10085POPC   C1A64503  15.930  29.967   6.453
10085POPC   D2A64504  15.945  29.890   6.753
10085POPC   C3A64505  15.953  29.898   7.053
10085POPC   C4A64506  15.918  29.889   7.353
10085POPC   C1B64507  15.725  30.105   6.453
10085POPC   C2B64508  15.758  30.077   6.753
10085POPC   C3B64509  15.806  30.134   7.053
10085POPC   C4B64510  15.784  30.069   7.353
10086POPC   NC364511  15.223  41.576   5.553
10086POPC   PO464512  15.227  41.589   5.853
10086POPC   GL164513  15.167  41.566   6.153
10086POPC   GL264514  15.335  41.501   6.153
10086POPC   C1A64515  15.158  41.557   6.453
10086POPC   D2A64516  15.222  41.581   6.753
10086POPC   C3A64517  15.223  41.594   7.053
10086POPC   C4A64518  15.195  41.571   7.353
10086POPC   C1B64519  15.442  41.424   6.453
10086POPC   C2B64520  15.373  41.469   6.753
10086POPC   C3B64521  15.367  41.459   7.053
10086POPC   C4B64522  15.374  41.392   7.353
10087POPC   NC364523  17.475  27.589   5.553
10087POPC   PO464524  17.546  27.639   5.853
10087POPC   GL164525  17.499  27.587   6.153
10087POPC   GL264526  17.369  27.573   6.153
10087POPC   C1A64527  17.472  27.565   6.453
10087POPC   D2A64528  17.552  27.626   6.753
10087POPC   C3A64529  17.472  27.592   7.053
10087POPC   C4A64530  17.540  27.589   7.353
10087POPC   C1B64531  17.284  27.416   6.453
10087POPC   C2B64532  17.329  27.411   6.753
10087POPC   C3B64533  17.289  27.437   7.053
10087POPC   C4B64534  17.304  27.474   7.353
10088POPC   NC364535  34.568  16.707   5.553
10088POPC   PO464536  34.585  16.723   5.853
10088POPC   GL164537  34.545  16.722   6.153
10088POPC   GL264538  34.508  16.639   6.153
10088POPC   C1A64539  34.605  16.771   6.453
10088POPC   D2A64540  34.615  16.756   6.753
10088POPC   C3A64541  34.597  16.740   7.053
10088POPC   C4A64542  34.598  16.728   7.353
10088POPC   C1B64543  34.550  16.456   6.453
10088POPC   C2B64544  34.552  16.460   6.753
10088POPC   C3B64545  34.486  16.514   7.053
10088POPC   C4B64546  34.538  16.521   7.353
10089POPC   NC364547  25.275  36.896   5.553
10089POPC   PO464548  25.311  36.883   5.853
10089POPC   GL164549  25.245  36.873   6.153
10089POPC   GL264550  25.234  37.043   6.153
10089POPC   C1A64551  25.242  36.872   6.453
10089POPC   D2A64552  25.293  36.873   6.753
10089POPC   C3A64553  25.235  36.888   7.053
10089POPC   C4A64554  25.224  36.858   7.353
10089POPC   C1B64555  25.183  37.164   6.453
10089POPC   C2B64556  25.218  37.152   6.753
10089POPC   C3B64557  25.230  37.149   7.053
10089POPC   C4B64558  25.171  37.184   7.353
10090POPC   NC364559  37.632   8.966   5.553
10090POPC   PO464560  37.697   9.019   5.853
10090POPC   GL164561  37.662   8.994   6.153
10090POPC   GL264562  37.750   9.025   6.153
10090POPC   C1A64563  37.649   8.978   6.453
10090POPC   D2A64564  37.700   9.020   6.753
10090POPC   C3A64565  37.729   9.001   7.053
10090POPC   C4A64566  37.688   8.941   7.353
10090POPC   C1B64567  37.897   9.119   6.453
10090POPC   C2B64568  37.914   9.173   6.753
10090POPC   C3B64569  37.919   9.100   7.053
10090POPC   C4B64570  37.845   9.157   7.353
10091POPC   NC364571  15.983  22.936   5.553
10091POPC   PO464572  15.974  22.955   5.853
10091POPC   GL164573  15.995  22.893   6.153
10091POPC   GL264574  15.938  23.010   6.153
10091POPC   C1A64575  15.986  22.918   6.453
10091POPC   D2A64576  15.981  22.936   6.753
10091POPC   C3A64577  15.939  22.977   7.053
10091POPC   C4A64578  15.979  22.981   7.353
10091POPC   C1B64579  15.849  23.123   6.453
10091POPC   C2B64580  15.800  23.115   6.753
10091POPC   C3B64581  15.827  23.200   7.053
10091POPC   C4B64582  15.879  23.158   7.353
10092POPC   NC364583  31.463  31.432   5.553
10092POPC   PO464584  31.502  31.468   5.853
10092POPC   GL164585  31.456  31.463   6.153
10092POPC   GL264586  31.559  31.345   6.153
10092POPC   C1A64587  31.479  31.453   6.453
10092POPC   D2A64588  31.439  31.436   6.753
10092POPC   C3A64589  31.448  31.476   7.053
10092POPC   C4A64590  31.456  31.434   7.353
10092POPC   C1B64591  31.626  31.256   6.453
10092POPC   C2B64592  31.549  31.286   6.753
10092POPC   C3B64593  31.613  31.290   7.053
10092POPC   C4B64594  31.576  31.264   7.353
10093POPC   NC364595  42.362  40.746   5.553
10093POPC   PO464596  42.286  40.825   5.853
10093POPC   GL164597  42.343  40.765   6.153
10093POPC   GL264598  42.397  40.734   6.153
10093POPC   C1A64599  42.325  40.752   6.453
10093POPC   D2A64600  42.306  40.770   6.753
10093POPC   C3A64601  42.298  40.806   7.053
10093POPC   C4A64602  42.324  40.793   7.353
10093POPC   C1B64603  42.590  40.662   6.453
10093POPC   C2B64604  42.540  40.646   6.753
10093POPC   C3B64605  42.596  40.667   7.053
10093POPC   C4B64606  42.529  40.651   7.353
10094POPC   NC364607   5.861  19.082   5.553
10094POPC   PO464608   5.891  19.049   5.853
10094POPC   GL164609   5.904  19.073   6.153
10094POPC   GL264610   5.915  18.956   6.153
10094POPC   C1A64611   5.859  19.077   6.453
10094POPC   D2A64612   5.876  19.074   6.753
10094POPC   C3A64613   5.873  19.068   7.053
10094POPC   C4A64614   5.889  19.106   7.353
10094POPC   C1B64615   5.894  18.829   6.453
10094POPC   C2B64616   5.930  18.776   6.753
10094POPC   C3B64617   5.907  18.781   7.053
10094POPC   C4B64618   5.921  18.764   7.353
10095POPC   NC364619   5.870  19.859   5.553
10095POPC   PO464620   5.869  19.859   5.853
10095POPC   GL164621   5.890  19.807   6.153
10095POPC   GL264622   5.699  19.823   6.153
10095POPC   C1A64623   5.870  19.866   6.453
10095POPC   D2A64624   5.907  19.804   6.753
10095POPC   C3A64625   5.898  19.874   7.053
10095POPC   C4A64626   5.857  19.823   7.353
10095POPC   C1B64627   5.583  19.887   6.453
10095POPC   C2B64628   5.598  19.901   6.753
10095POPC   C3B64629   5.608  19.897   7.053
10095POPC   C4B64630   5.658  19.863   7.353
10096POPC   NC364631  29.145  34.546   5.553
10096POPC   PO464632  29.145  34.561   5.853
10096POPC   GL164633  29.168  34.544   6.153
10096POPC   GL264634  29.067  34.441   6.153
10096POPC   C1A64635  29.143  34.588   6.453
10096POPC   D2A64636  29.170  34.555   6.753
10096POPC   C3A64637  29.193  34.553   7.053
10096POPC   C4A64638  29.139  34.563   7.353
10096POPC   C1B64639  28.988  34.434   6.453
10096POPC   C2B64640  28.983  34.358   6.753
10096POPC   C3B64641  28.919  34.365   7.053
10096POPC   C4B64642  28.952  34.417   7.353
10097POPC   NC364643   4.295  22.958   5.553
10097POPC   PO464644   4.340  22.980   5.853
10097POPC   GL164645   4.312  22.983   6.153
10097POPC   GL264646   4.193  23.004   6.153
10097POPC   C1A64647   4.355  22.902   6.453
10097POPC   D2A64648   4.356  22.974   6.753
10097POPC   C3A64649   4.359  22.919   7.053
10097POPC   C4A64650   4.329  22.959   7.353
10097POPC   C1B64651   4.117  23.092   6.453
10097POPC   C2B64652   4.125  23.141   6.753
10097POPC   C3B64653   4.153  23.123   7.053
10097POPC   C4B64654   4.156  23.080   7.353
10098POPC   NC364655   5.832  32.294   5.553
10098POPC   PO464656   5.883  32.218   5.853
10098POPC   GL164657   5.823  32.228   6.153
10098POPC   GL264658   5.916  32.097   6.153
10098POPC   C1A64659   5.877  32.269   6.453
10098POPC   D2A64660   5.869  32.225   6.753
10098POPC   C3A64661   5.895  32.293   7.053
10098POPC   C4A64662   5.840  32.201   7.353
10098POPC   C1B64663   5.977  31.972   6.453
10098POPC   C2B64664   5.913  31.964   6.753
10098POPC   C3B64665   5.898  32.010   7.053
10098POPC   C4B64666   5.949  32.003   7.353
10099POPC   NC364667  40.745  21.420   5.553
10099POPC   PO464668  40.773  21.357   5.853
10099POPC   GL164669  40.760  21.383   6.153
10099POPC   GL264670  40.670  21.413   6.153
10099POPC   C1A64671  40.769  21.371   6.453
10099POPC   D2A64672  40.776  21.413   6.753
10099POPC   C3A64673  40.798  21.375   7.053
10099POPC   C4A64674  40.813  21.364   7.353
10099POPC   C1B64675  40.542  21.471   6.453
10099POPC   C2B64676  40.610  21.543   6.753
10099POPC   C3B64677  40.528  21.538   7.053
10099POPC   C4B64678  40.587  21.541   7.353
10100POPC   NC364679  41.598  28.399   5.553
10100POPC   PO464680  41.565  28.404   5.853
10100POPC   GL164681  41.530  28.399   6.153
10100POPC   GL264682  41.567  28.273   6.153
10100POPC   C1A64683  41.592  28.339   6.453
10100POPC   D2A64684  41.564  28.325   6.753
10100POPC   C3A64685  41.523  28.401   7.053
10100POPC   C4A64686  41.517  28.332   7.353
10100POPC   C1B64687  41.549  28.167   6.453
10100POPC   C2B64688  41.551  28.101   6.753
10100POPC   C3B64689  41.570  28.157   7.053
10100POPC   C4B64690  41.592  28.134   7.353
10101POPC   NC364691  38.447  42.380   5.553
10101POPC   PO464692  38.465  42.339   5.853
10101POPC   GL164693  38.408  42.366   6.153
10101POPC   GL264694  38.454  42.257   6.153
10101POPC   C1A64695  38.451  42.376   6.453
10101POPC   D2A64696  38.439  42.311   6.753
10101POPC   C3A64697  38.440  42.304   7.053
10101POPC   C4A64698  38.447  42.337   7.353
10101POPC   C1B64699  38.381  42.113   6.453
10101POPC   C2B64700  38.380  42.137   6.753
10101POPC   C3B64701  38.425  42.040   7.053
10101POPC   C4B64702  38.419  42.080   7.353
10102POPC   NC364703  40.783  29.902   5.553
10102POPC   PO464704  40.789  29.889   5.853
10102POPC   GL164705  40.771  29.873   6.153
10102POPC   GL264706  40.746  29.766   6.153
10102POPC   C1A64707  40.742  29.943   6.453
10102POPC   D2A64708  40.765  29.877   6.753
10102POPC   C3A64709  40.772  29.960   7.053
10102POPC   C4A64710  40.734  29.884   7.353
10102POPC   C1B64711  40.746  29.703   6.453
10102POPC   C2B64712  40.742  29.709   6.753
10102POPC   C3B64713  40.765  29.668   7.053
10102POPC   C4B64714  40.775  29.671   7.353
10103POPC   NC364715  36.109  39.182   5.553
10103POPC   PO464716  36.083  39.244   5.853
10103POPC   GL164717  36.078  39.185   6.153
10103POPC   GL264718  36.221  39.265   6.153
10103POPC   C1A64719  36.170  39.215   6.453
10103POPC   D2A64720  36.170  39.243   6.753
10103POPC   C3A64721  36.117  39.237   7.053
10103POPC   C4A64722  36.142  39.251   7.353
10103POPC   C1B64723  36.326  39.301   6.453
10103POPC   C2B64724  36.382  39.228   6.753
10103POPC   C3B64725  36.376  39.251   7.053
10103POPC   C4B64726  36.421  39.244   7.353
10104POPC   NC364727   8.939  21.357   5.553
10104POPC   PO464728   8.979  21.363   5.853
10104POPC   GL164729   8.949  21.338   6.153
10104POPC   GL264730   8.876  21.452   6.153
10104POPC   C1A64731   8.933  21.343   6.453
10104POPC   D2A64732   9.006  21.338   6.753
10104POPC   C3A64733   8.927  21.358   7.053
10104POPC   C4A64734   8.963  21.344   7.353
10104POPC   C1B64735   8.691  21.499   6.453
10104POPC   C2B64736   8.749  21.435   6.753
10104POPC   C3B64737   8.695  21.445   7.053
10104POPC   C4B64738   8.776  21.470   7.353
10105POPC   NC364739  36.948  22.892   5.553
10105POPC   PO464740  36.939  22.925   5.853
10105POPC   GL164741  36.883  22.944   6.153
10105POPC   GL264742  36.879  22.825   6.153
10105POPC   C1A64743  36.892  22.907   6.453
10105POPC   D2A64744  36.898  22.981   6.753
10105POPC   C3A64745  36.905  22.971   7.053
10105POPC   C4A64746  36.912  22.979   7.353
10105POPC   C1B64747  36.791  22.676   6.453
10105POPC   C2B64748  36.743  22.704   6.753
10105POPC   C3B64749  36.806  22.684   7.053
10105POPC   C4B64750  36.729  22.685   7.353
10106POPC   NC364751  13.593  19.817   5.553
10106POPC   PO464752  13.580  19.879   5.853
10106POPC   GL164753  13.642  19.881   6.153
10106POPC   GL264754  13.597  19.939   6.153
10106POPC   C1A64755  13.621  19.882   6.453
10106POPC   D2A64756  13.615  19.813   6.753
10106POPC   C3A64757  13.640  19.870   7.053
10106POPC   C4A64758  13.641  19.811   7.353
10106POPC   C1B64759  13.465  20.063   6.453
10106POPC   C2B64760  13.478  20.048   6.753
10106POPC   C3B64761  13.530  20.081   7.053
10106POPC   C4B64762  13.515  20.074   7.353
10107POPC   NC364763  27.625   3.587   5.553
10107POPC   PO464764  27.543   3.542   5.853
10107POPC   GL164765  27.557   3.507   6.153
10107POPC   GL264766  27.554   3.687   6.153
10107POPC   C1A64767  27.604   3.583   6.453
10107POPC   D2A64768  27.626   3.505   6.753
10107POPC   C3A64769  27.585   3.590   7.053
10107POPC   C4A64770  27.578   3.589   7.353
10107POPC   C1B64771  27.516   3.803   6.453
10107POPC   C2B64772  27.514   3.742   6.753
10107POPC   C3B64773  27.508   3.756   7.053
10107POPC   C4B64774  27.520   3.804   7.353
10108POPC   NC364775   7.379  22.952   5.553
10108POPC   PO464776   7.395  22.920   5.853
10108POPC   GL164777   7.424  22.897   6.153
10108POPC   GL264778   7.337  23.027   6.153
10108POPC   C1A64779   7.432  22.933   6.453
10108POPC   D2A64780   7.376  22.968   6.753
10108POPC   C3A64781   7.388  22.981   7.053
10108POPC   C4A64782   7.422  22.966   7.353
10108POPC   C1B64783   7.340  23.185   6.453
10108POPC   C2B64784   7.253  23.168   6.753
10108POPC   C3B64785   7.300  23.150   7.053
10108POPC   C4B64786   7.258  23.177   7.353
10109POPC   NC364787   4.296  23.762   5.553
10109POPC   PO464788   4.290  23.697   5.853
10109POPC   GL164789   4.307  23.681   6.153
10109POPC   GL264790   4.381  23.636   6.153
10109POPC   C1A64791   4.294  23.692   6.453
10109POPC   D2A64792   4.302  23.670   6.753
10109POPC   C3A64793   4.333  23.667   7.053
10109POPC   C4A64794   4.289  23.675   7.353
10109POPC   C1B64795   4.521  23.553   6.453
10109POPC   C2B64796   4.501  23.577   6.753
10109POPC   C3B64797   4.518  23.512   7.053
10109POPC   C4B64798   4.491  23.543   7.353
10110POPC   NC364799  21.424  22.939   5.553
10110POPC   PO464800  21.339  22.931   5.853
10110POPC   GL164801  21.385  22.896   6.153
10110POPC   GL264802  21.316  23.000   6.153
10110POPC   C1A64803  21.360  22.934   6.453
10110POPC   D2A64804  21.376  22.915   6.753
10110POPC   C3A64805  21.414  22.896   7.053
10110POPC   C4A64806  21.392  22.958   7.353
10110POPC   C1B64807  21.249  23.183   6.453
10110POPC   C2B64808  21.250  23.097   6.753
10110POPC   C3B64809  21.246  23.147   7.053
10110POPC   C4B64810  21.275  23.123   7.353
10111POPC   NC364811  25.221  44.631   5.553
10111POPC   PO464812  25.295  44.700   5.853
10111POPC   GL164813  25.237  44.627   6.153
10111POPC   GL264814  25.119  44.653   6.153
10111POPC   C1A64815  25.221  44.622   6.453
10111POPC   D2A64816  25.282  44.690   6.753
10111POPC   C3A64817  25.221  44.687   7.053
10111POPC   C4A64818  25.293  44.710   7.353
10111POPC   C1B64819  25.044  44.573   6.453
10111POPC   C2B64820  25.044  44.594   6.753
10111POPC   C3B64821  25.057  44.630   7.053
10111POPC   C4B64822  25.010  44.630   7.353
10112POPC   NC364823  15.939   8.944   5.553
10112POPC   PO464824  15.937   8.948   5.853
10112POPC   GL164825  15.960   8.928   6.153
10112POPC   GL264826  16.056   8.856   6.153
10112POPC   C1A64827  15.975   8.966   6.453
10112POPC   D2A64828  15.983   8.966   6.753
10112POPC   C3A64829  15.918   8.961   7.053
10112POPC   C4A64830  15.989   8.953   7.353
10112POPC   C1B64831  16.105   8.815   6.453
10112POPC   C2B64832  16.161   8.773   6.753
10112POPC   C3B64833  16.194   8.778   7.053
10112POPC   C4B64834  16.147   8.837   7.353
10113POPC   NC364835  30.653  32.296   5.553
10113POPC   PO464836  30.681  32.251   5.853
10113POPC   GL164837  30.673  32.256   6.153
10113POPC   GL264838  30.684  32.099   6.153
10113POPC   C1A64839  30.675  32.230   6.453
10113POPC   D2A64840  30.713  32.210   6.753
10113POPC   C3A64841  30.735  32.284   7.053
10113POPC   C4A64842  30.746  32.228   7.353
10113POPC   C1B64843  30.705  32.007   6.453
10113POPC   C2B64844  30.700  32.001   6.753
10113POPC   C3B64845  30.711  32.013   7.053
10113POPC   C4B64846  30.657  32.020   7.353
10114POPC   NC364847  27.563   0.411   5.553
10114POPC   PO464848  27.613   0.471   5.853
10114POPC   GL164849  27.573   0.463   6.153
10114POPC   GL264850  27.607   0.343   6.153
10114POPC   C1A64851  27.554   0.487   6.453
10114POPC   D2A64852  27.618   0.423   6.753
10114POPC   C3A64853  27.635   0.457   7.053
10114POPC   C4A64854  27.611   0.482   7.353
10114POPC   C1B64855  27.653   0.183   6.453
10114POPC   C2B64856  27.719   0.254   6.753
10114POPC   C3B64857  27.724   0.236   7.053
10114POPC   C4B64858  27.724   0.240   7.353
10115POPC   NC364859  44.662   5.062   5.553
10115POPC   PO464860  44.667   5.092   5.853
10115POPC   GL164861  44.668   5.087   6.153
10115POPC   GL264862  44.608   5.184   6.153
10115POPC   C1A64863  44.660   5.064   6.453
10115POPC   D2A64864  44.637   5.126   6.753
10115POPC   C3A64865  44.647   5.110   7.053
10115POPC   C4A64866  44.621   5.074   7.353
10115POPC   C1B64867  44.585   5.313   6.453
10115POPC   C2B64868  44.619   5.335   6.753
10115POPC   C3B64869  44.557   5.364   7.053
10115POPC   C4B64870  44.546   5.344   7.353
10116POPC   NC364871  12.117  12.893   5.553
10116POPC   PO464872  12.090  12.857   5.853
10116POPC   GL164873  12.114  12.809   6.153
10116POPC   GL264874  12.164  12.709   6.153
10116POPC   C1A64875  12.048  12.810   6.453
10116POPC   D2A64876  12.088  12.809   6.753
10116POPC   C3A64877  12.042  12.808   7.053
10116POPC   C4A64878  12.124  12.845   7.353
10116POPC   C1B64879  12.194  12.691   6.453
10116POPC   C2B64880  12.177  12.594   6.753
10116POPC   C3B64881  12.247  12.622   7.053
10116POPC   C4B64882  12.233  12.676   7.353
10117POPC   NC364883  15.152  19.083   5.553
10117POPC   PO464884  15.141  19.043   5.853
10117POPC   GL164885  15.175  19.108   6.153
10117POPC   GL264886  15.288  19.081   6.153
10117POPC   C1A64887  15.191  19.063   6.453
10117POPC   D2A64888  15.133  19.051   6.753
10117POPC   C3A64889  15.191  19.030   7.053
10117POPC   C4A64890  15.210  19.090   7.353
10117POPC   C1B64891  15.368  19.181   6.453
10117POPC   C2B64892  15.410  19.140   6.753
10117POPC   C3B64893  15.387  19.175   7.053
10117POPC   C4B64894  15.401  19.198   7.353
10118POPC   NC364895   2.036   2.722   5.553
10118POPC   PO464896   1.940   2.802   5.853
10118POPC   GL164897   1.981   2.753   6.153
10118POPC   GL264898   2.079   2.797   6.153
10118POPC   C1A64899   1.971   2.808   6.453
10118POPC   D2A64900   1.963   2.763   6.753
10118POPC   C3A64901   2.009   2.814   7.053
10118POPC   C4A64902   1.976   2.760   7.353
10118POPC   C1B64903   2.240   2.714   6.453
10118POPC   C2B64904   2.228   2.783   6.753
10118POPC   C3B64905   2.236   2.713   7.053
10118POPC   C4B64906   2.259   2.723   7.353
10119POPC   NC364907   6.596  42.323   5.553
10119POPC   PO464908   6.606  42.381   5.853
10119POPC   GL164909   6.603  42.377   6.153
10119POPC   GL264910   6.810  42.356   6.153
10119POPC   C1A64911   6.642  42.370   6.453
10119POPC   D2A64912   6.638  42.326   6.753
10119POPC   C3A64913   6.605  42.289   7.053
10119POPC   C4A64914   6.623  42.383   7.353
10119POPC   C1B64915   6.916  42.373   6.453
10119POPC   C2B64916   6.878  42.427   6.753
10119POPC   C3B64917   6.838  42.470   7.053
10119POPC   C4B64918   6.907  42.378   7.353
10120POPC   NC364919  16.751  28.333   5.553
10120POPC   PO464920  16.768  28.402   5.853
10120POPC   GL164921  16.701  28.401   6.153
10120POPC   GL264922  16.618  28.301   6.153
10120POPC   C1A64923  16.690  28.335   6.453
10120POPC   D2A64924  16.763  28.403   6.753
10120POPC   C3A64925  16.695  28.338   7.053
10120POPC   C4A64926  16.739  28.408   7.353
10120POPC   C1B64927  16.542  28.184   6.453
10120POPC   C2B64928  16.547  28.187   6.753
10120POPC   C3B64929  16.507  28.245   7.053
10120POPC   C4B64930  16.561  28.224   7.353
10121POPC   NC364931  44.641  19.093   5.553
10121POPC   PO464932  44.712  19.082   5.853
10121POPC   GL164933  44.651  19.015   6.153
10121POPC   GL264934  44.768  18.972   6.153
10121POPC   C1A64935  44.660  19.030   6.453
10121POPC   D2A64936  44.657  19.032   6.753
10121POPC   C3A64937  44.646  19.056   7.053
10121POPC   C4A64938  44.687  19.104   7.353
10121POPC   C1B64939  44.906  18.923   6.453
10121POPC   C2B64940  44.847  19.009   6.753
10121POPC   C3B64941  44.854  18.923   7.053
10121POPC   C4B64942  44.876  19.009   7.353
10122POPC   NC364943  38.496  36.945   5.553
10122POPC   PO464944  38.458  36.921   5.853
10122POPC   GL164945  38.409  36.865   6.153
10122POPC   GL264946  38.428  36.797   6.153
10122POPC   C1A64947  38.481  36.882   6.453
10122POPC   D2A64948  38.489  36.860   6.753
10122POPC   C3A64949  38.416  36.908   7.053
10122POPC   C4A64950  38.431  36.881   7.353
10122POPC   C1B64951  38.392  36.668   6.453
10122POPC   C2B64952  38.399  36.683   6.753
10122POPC   C3B64953  38.423  36.692   7.053
10122POPC   C4B64954  38.396  36.643   7.353
10123POPC   NC364955  36.137  10.521   5.553
10123POPC   PO464956  36.129  10.534   5.853
10123POPC   GL164957  36.164  10.505   6.153
10123POPC   GL264958  35.996  10.546   6.153
10123POPC   C1A64959  36.145  10.529   6.453
10123POPC   D2A64960  36.116  10.567   6.753
10123POPC   C3A64961  36.113  10.523   7.053
10123POPC   C4A64962  36.159  10.509   7.353
10123POPC   C1B64963  35.940  10.650   6.453
10123POPC   C2B64964  35.914  10.664   6.753
10123POPC   C3B64965  35.889  10.643   7.053
10123POPC   C4B64966  35.871  10.683   7.353
10124POPC   NC364967  10.547  38.500   5.553
10124POPC   PO464968  10.540  38.410   5.853
10124POPC   GL164969  10.538  38.411   6.153
10124POPC   GL264970  10.591  38.543   6.153
10124POPC   C1A64971  10.489  38.422   6.453
10124POPC   D2A64972  10.497  38.436   6.753
10124POPC   C3A64973  10.571  38.421   7.053
10124POPC   C4A64974  10.475  38.446   7.353
10124POPC   C1B64975  10.574  38.657   6.453
10124POPC   C2B64976  10.599  38.741   6.753
10124POPC   C3B64977  10.654  38.658   7.053
10124POPC   C4B64978  10.584  38.680   7.353
10125POPC   NC364979  29.131  31.424   5.553
10125POPC   PO464980  29.132  31.470   5.853
10125POPC   GL164981  29.183  31.470   6.153
10125POPC   GL264982  29.048  31.574   6.153
10125POPC   C1A64983  29.126  31.443   6.453
10125POPC   D2A64984  29.098  31.504   6.753
10125POPC   C3A64985  29.194  31.455   7.053
10125POPC   C4A64986  29.140  31.468   7.353
10125POPC   C1B64987  28.964  31.637   6.453
10125POPC   C2B64988  29.050  31.673   6.753
10125POPC   C3B64989  29.041  31.702   7.053
10125POPC   C4B64990  29.047  31.726   7.353
10126POPC   NC364991   5.048  32.275   5.553
10126POPC   PO464992   5.137  32.206   5.853
10126POPC   GL164993   5.070  32.250   6.153
10126POPC   GL264994   5.182  32.329   6.153
10126POPC   C1A64995   5.068  32.226   6.453
10126POPC   D2A64996   5.085  32.292   6.753
10126POPC   C3A64997   5.141  32.262   7.053
10126POPC   C4A64998   5.054  32.240   7.353
10126POPC   C1B64999   5.204  32.525   6.453
10126POPC   C2B65000   5.162  32.512   6.753
10126POPC   C3B65001   5.178  32.469   7.053
10126POPC   C4B65002   5.147  32.494   7.353
10127POPC   NC365003  31.436  15.181   5.553
10127POPC   PO465004  31.441  15.140   5.853
10127POPC   GL165005  31.500  15.190   6.153
10127POPC   GL265006  31.548  15.162   6.153
10127POPC   C1A65007  31.504  15.198   6.453
10127POPC   D2A65008  31.510  15.163   6.753
10127POPC   C3A65009  31.443  15.207   7.053
10127POPC   C4A65010  31.495  15.170   7.353
10127POPC   C1B65011  31.734  15.142   6.453
10127POPC   C2B65012  31.690  15.177   6.753
10127POPC   C3B65013  31.736  15.203   7.053
10127POPC   C4B65014  31.738  15.221   7.353
10128POPC   NC365015  43.931  21.387   5.553
10128POPC   PO465016  43.904  21.361   5.853
10128POPC   GL165017  43.895  21.412   6.153
10128POPC   GL265018  43.989  21.456   6.153
10128POPC   C1A65019  43.902  21.419   6.453
10128POPC   D2A65020  43.860  21.369   6.753
10128POPC   C3A65021  43.935  21.407   7.053
10128POPC   C4A65022  43.860  21.433   7.353
10128POPC   C1B65023  44.073  21.531   6.453
10128POPC   C2B65024  44.120  21.459   6.753
10128POPC   C3B65025  44.105  21.468   7.053
10128POPC   C4B65026  44.064  21.558   7.353
10129POPC   NC365027  11.286  18.287   5.553
10129POPC   PO465028  11.259  18.300   5.853
10129POPC   GL165029  11.333  18.307   6.153
10129POPC   GL265030  11.226  18.201   6.153
10129POPC   C1A65031  11.267  18.329   6.453
10129POPC   D2A65032  11.271  18.271   6.753
10129POPC   C3A65033  11.350  18.268   7.053
10129POPC   C4A65034  11.295  18.322   7.353
10129POPC   C1B65035  11.120  18.162   6.453
10129POPC   C2B65036  11.071  18.175   6.753
10129POPC   C3B65037  11.081  18.192   7.053
10129POPC   C4B65038  11.094  18.135   7.353
10130POPC   NC365039  40.822  34.618   5.553
10130POPC   PO465040  40.803  34.618   5.853
10130POPC   GL165041  40.821  34.552   6.153
10130POPC   GL265042  40.701  34.658   6.153
10130POPC   C1A65043  40.740  34.573   6.453
10130POPC   D2A65044  40.809  34.527   6.753
10130POPC   C3A65045  40.751  34.599   7.053
10130POPC   C4A65046  40.740  34.622   7.353
10130POPC   C1B65047  40.652  34.792   6.453
10130POPC   C2B65048  40.575  34.744   6.753
10130POPC   C3B65049  40.619  34.792   7.053
10130POPC   C4B65050  40.572  34.759   7.353
10131POPC   NC365051  33.781  43.904   5.553
10131POPC   PO465052  33.840  43.907   5.853
10131POPC   GL165053  33.784  43.931   6.153
10131POPC   GL265054  33.634  43.821   6.153
10131POPC   C1A65055  33.843  43.908   6.453
10131POPC   D2A65056  33.832  43.878   6.753
10131POPC   C3A65057  33.814  43.838   7.053
10131POPC   C4A65058  33.753  43.911   7.353
10131POPC   C1B65059  33.518  43.879   6.453
10131POPC   C2B65060  33.559  43.871   6.753
10131POPC   C3B65061  33.510  43.786   7.053
10131POPC   C4B65062  33.556  43.810   7.353
10132POPC   NC365063  22.152   8.154   5.553
10132POPC   PO465064  22.161   8.233   5.853
10132POPC   GL165065  22.203   8.174   6.153
10132POPC   GL265066  21.998   8.259   6.153
10132POPC   C1A65067  22.117   8.226   6.453
10132POPC   D2A65068  22.115   8.165   6.753
10132POPC   C3A65069  22.185   8.186   7.053
10132POPC   C4A65070  22.145   8.191   7.353
10132POPC   C1B65071  21.937   8.217   6.453
10132POPC   C2B65072  21.891   8.231   6.753
10132POPC   C3B65073  21.957   8.280   7.053
10132POPC   C4B65074  21.919   8.222   7.353
10133POPC   NC365075  12.882   4.314   5.553
10133POPC   PO465076  12.832   4.342   5.853
10133POPC   GL165077  12.878   4.366   6.153
10133POPC   GL265078  12.965   4.274   6.153
10133POPC   C1A65079  12.816   4.331   6.453
10133POPC   D2A65080  12.883   4.310   6.753
10133POPC   C3A65081  12.842   4.344   7.053
10133POPC   C4A65082  12.821   4.324   7.353
10133POPC   C1B65083  13.093   4.286   6.453
10133POPC   C2B65084  13.093   4.329   6.753
10133POPC   C3B65085  13.092   4.312   7.053
10133POPC   C4B65086  13.068   4.286   7.353
10134POPC   NC365087  18.321   3.525   5.553
10134POPC   PO465088  18.257   3.581   5.853
10134POPC   GL165089  18.234   3.562   6.153
10134POPC   GL265090  18.158   3.609   6.153
10134POPC   C1A65091  18.327   3.546   6.453
10134POPC   D2A65092  18.233   3.522   6.753
10134POPC   C3A65093  18.322   3.574   7.053
10134POPC   C4A65094  18.290   3.569   7.353
10134POPC   C1B65095  18.144   3.726   6.453
10134POPC   C2B65096  18.128   3.660   6.753
10134POPC   C3B65097  18.104   3.727   7.053
10134POPC   C4B65098  18.105   3.696   7.353
10135POPC   NC365099  26.010   9.774   5.553
10135POPC   PO465100  26.020   9.705   5.853
10135POPC   GL165101  26.066   9.732   6.153
10135POPC   GL265102  26.123   9.812   6.153
10135POPC   C1A65103  26.030   9.707   6.453
10135POPC   D2A65104  26.058   9.705   6.753
10135POPC   C3A65105  26.022   9.735   7.053
10135POPC   C4A65106  26.036   9.711   7.353
10135POPC   C1B65107  26.303   9.848   6.453
10135POPC   C2B65108  26.280   9.831   6.753
10135POPC   C3B65109  26.226   9.879   7.053
10135POPC   C4B65110  26.279   9.888   7.353
10136POPC   NC365111  43.871   1.215   5.553
10136POPC   PO465112  43.906   1.228   5.853
10136POPC   GL165113  43.934   1.180   6.153
10136POPC   GL265114  43.891   1.309   6.153
10136POPC   C1A65115  43.885   1.212   6.453
10136POPC   D2A65116  43.843   1.177   6.753
10136POPC   C3A65117  43.916   1.173   7.053
10136POPC   C4A65118  43.893   1.234   7.353
10136POPC   C1B65119  43.943   1.437   6.453
10136POPC   C2B65120  43.982   1.432   6.753
10136POPC   C3B65121  43.966   1.445   7.053
10136POPC   C4B65122  43.945   1.438   7.353
10137POPC   NC365123  39.274  31.489   5.553
10137POPC   PO465124  39.195  31.499   5.853
10137POPC   GL165125  39.230  31.482   6.153
10137POPC   GL265126  39.078  31.505   6.153
10137POPC   C1A65127  39.256  31.456   6.453
10137POPC   D2A65128  39.221  31.519   6.753
10137POPC   C3A65129  39.229  31.486   7.053
10137POPC   C4A65130  39.194  31.445   7.353
10137POPC   C1B65131  39.004  31.462   6.453
10137POPC   C2B65132  38.976  31.396   6.753
10137POPC   C3B65133  38.999  31.458   7.053
10137POPC   C4B65134  38.977  31.400   7.353
10138POPC   NC365135  23.680  33.762   5.553
10138POPC   PO465136  23.677  33.776   5.853
10138POPC   GL165137  23.666  33.802   6.153
10138POPC   GL265138  23.877  33.803   6.153
10138POPC   C1A65139  23.681  33.757   6.453
10138POPC   D2A65140  23.729  33.773   6.753
10138POPC   C3A65141  23.705  33.758   7.053
10138POPC   C4A65142  23.683  33.792   7.353
10138POPC   C1B65143  23.984  33.891   6.453
10138POPC   C2B65144  23.988  33.903   6.753
10138POPC   C3B65145  23.898  33.934   7.053
10138POPC   C4B65146  23.966  33.869   7.353
10139POPC   NC365147  40.796  43.109   5.553
10139POPC   PO465148  40.742  43.155   5.853
10139POPC   GL165149  40.760  43.138   6.153
10139POPC   GL265150  40.743  43.192   6.153
10139POPC   C1A65151  40.815  43.132   6.453
10139POPC   D2A65152  40.734  43.066   6.753
10139POPC   C3A65153  40.793  43.067   7.053
10139POPC   C4A65154  40.794  43.141   7.353
10139POPC   C1B65155  40.651  43.301   6.453
10139POPC   C2B65156  40.719  43.307   6.753
10139POPC   C3B65157  40.648  43.339   7.053
10139POPC   C4B65158  40.692  43.300   7.353
10140POPC   NC365159  43.903  40.734   5.553
10140POPC   PO465160  43.867  40.772   5.853
10140POPC   GL165161  43.868  40.754   6.153
10140POPC   GL265162  43.835  40.664   6.153
10140POPC   C1A65163  43.847  40.789   6.453
10140POPC   D2A65164  43.920  40.828   6.753
10140POPC   C3A65165  43.901  40.776   7.053
10140POPC   C4A65166  43.858  40.815   7.353
10140POPC   C1B65167  43.876  40.577   6.453
10140POPC   C2B65168  43.882  40.550   6.753
10140POPC   C3B65169  43.897  40.580   7.053
10140POPC   C4B65170  43.886  40.583   7.353
10141POPC   NC365171  24.455  16.758   5.553
10141POPC   PO465172  24.518  16.710   5.853
10141POPC   GL165173  24.477  16.752   6.153
10141POPC   GL265174  24.595  16.773   6.153
10141POPC   C1A65175  24.475  16.730   6.453
10141POPC   D2A65176  24.463  16.697   6.753
10141POPC   C3A65177  24.522  16.729   7.053
10141POPC   C4A65178  24.458  16.755   7.353
10141POPC   C1B65179  24.746  16.784   6.453
10141POPC   C2B65180  24.725  16.730   6.753
10141POPC   C3B65181  24.749  16.774   7.053
10141POPC   C4B65182  24.751  16.733   7.353
10142POPC   NC365183  36.926  40.055   5.553
10142POPC   PO465184  36.882  39.971   5.853
10142POPC   GL165185  36.863  40.034   6.153
10142POPC   GL265186  36.907  39.869   6.153
10142POPC   C1A65187  36.868  39.998   6.453
10142POPC   D2A65188  36.909  40.003   6.753
10142POPC   C3A65189  36.904  39.969   7.053
10142POPC   C4A65190  36.948  40.006   7.353
10142POPC   C1B65191  36.945  39.742   6.453
10142POPC   C2B65192  36.960  39.789   6.753
10142POPC   C3B65193  36.960  39.727   7.053
10142POPC   C4B65194  37.011  39.797   7.353
10143POPC   NC365195   2.805  17.464   5.553
10143POPC   PO465196   2.717  17.457   5.853
10143POPC   GL165197   2.801  17.527   6.153
10143POPC   GL265198   2.827  17.665   6.153
10143POPC   C1A65199   2.784  17.513   6.453
10143POPC   D2A65200   2.771  17.466   6.753
10143POPC   C3A65201   2.808  17.508   7.053
10143POPC   C4A65202   2.788  17.505   7.353
10143POPC   C1B65203   2.788  17.796   6.453
10143POPC   C2B65204   2.742  17.791   6.753
10143POPC   C3B65205   2.787  17.793   7.053
10143POPC   C4B65206   2.788  17.774   7.353
10144POPC   NC365207   8.236  41.584   5.553
10144POPC   PO465208   8.165  41.597   5.853
10144POPC   GL165209   8.159  41.604   6.153
10144POPC   GL265210   8.095  41.700   6.153
10144POPC   C1A65211   8.220  41.569   6.453
10144POPC   D2A65212   8.224  41.511   6.753
10144POPC   C3A65213   8.222  41.543   7.053
10144POPC   C4A65214   8.245  41.573   7.353
10144POPC   C1B65215   8.066  41.735   6.453
10144POPC   C2B65216   8.038  41.776   6.753
10144POPC   C3B65217   8.034  41.763   7.053
10144POPC   C4B65218   8.078  41.761   7.353
10145POPC   NC365219  28.333  15.925   5.553
10145POPC   PO465220  28.384  15.934   5.853
10145POPC   GL165221  28.381  15.928   6.153
10145POPC   GL265222  28.279  15.803   6.153
10145POPC   C1A65223  28.413  15.928   6.453
10145POPC   D2A65224  28.377  15.911   6.753
10145POPC   C3A65225  28.358  15.971   7.053
10145POPC   C4A65226  28.350  15.930   7.353
10145POPC   C1B65227  28.209  15.787   6.453
10145POPC   C2B65228  28.219  15.791   6.753
10145POPC   C3B65229  28.255  15.710   7.053
10145POPC   C4B65230  28.272  15.719   7.353
10146POPC   NC365231  44.634   4.326   5.553
10146POPC   PO465232  44.665   4.268   5.853
10146POPC   GL165233  44.669   4.328   6.153
10146POPC   GL265234  44.759   4.439   6.153
10146POPC   C1A65235  44.628   4.296   6.453
10146POPC   D2A65236  44.665   4.316   6.753
10146POPC   C3A65237  44.633   4.273   7.053
10146POPC   C4A65238  44.691   4.344   7.353
10146POPC   C1B65239  44.774   4.561   6.453
10146POPC   C2B65240  44.784   4.498   6.753
10146POPC   C3B65241  44.809   4.584   7.053
10146POPC   C4B65242  44.767   4.574   7.353
10147POPC   NC365243  21.359  36.925   5.553
10147POPC   PO465244  21.340  36.904   5.853
10147POPC   GL165245  21.340  36.947   6.153
10147POPC   GL265246  21.512  36.840   6.153
10147POPC   C1A65247  21.424  36.858   6.453
10147POPC   D2A65248  21.365  36.940   6.753
10147POPC   C3A65249  21.419  36.929   7.053
10147POPC   C4A65250  21.400  36.904   7.353
10147POPC   C1B65251  21.590  36.761   6.453
10147POPC   C2B65252  21.559  36.731   6.753
10147POPC   C3B65253  21.575  36.771   7.053
10147POPC   C4B65254  21.545  36.723   7.353
10148POPC   NC365255  14.388  19.019   5.553
10148POPC   PO465256  14.445  19.050   5.853
10148POPC   GL165257  14.393  19.106   6.153
10148POPC   GL265258  14.264  18.952   6.153
10148POPC   C1A65259  14.366  19.064   6.453
10148POPC   D2A65260  14.388  19.092   6.753
10148POPC   C3A65261  14.414  19.071   7.053
10148POPC   C4A65262  14.398  19.023   7.353
10148POPC   C1B65263  14.232  18.978   6.453
10148POPC   C2B65264  14.201  18.944   6.753
10148POPC   C3B65265  14.161  18.919   7.053
10148POPC   C4B65266  14.226  18.929   7.353
10149POPC   NC365267   7.418  12.835   5.553
10149POPC   PO465268   7.391  12.846   5.853
10149POPC   GL165269   7.378  12.807   6.153
10149POPC   GL265270   7.564  12.863   6.153
10149POPC   C1A65271   7.443  12.860   6.453
10149POPC   D2A65272   7.404  12.895   6.753
10149POPC   C3A65273   7.380  12.873   7.053
10149POPC   C4A65274   7.417  12.845   7.353
10149POPC   C1B65275   7.700  12.773   6.453
10149POPC   C2B65276   7.649  12.785   6.753
10149POPC   C3B65277   7.679  12.788   7.053
10149POPC   C4B65278   7.628  12.767   7.353
10150POPC   NC365279  41.522   5.833   5.553
10150POPC   PO465280  41.588   5.863   5.853
10150POPC   GL165281  41.599   5.918   6.153
10150POPC   GL265282  41.559   6.016   6.153
10150POPC   C1A65283  41.537   5.867   6.453
10150POPC   D2A65284  41.541   5.893   6.753
10150POPC   C3A65285  41.556   5.888   7.053
10150POPC   C4A65286  41.557   5.890   7.353
10150POPC   C1B65287  41.498   6.072   6.453
10150POPC   C2B65288  41.548   6.088   6.753
10150POPC   C3B65289  41.554   6.070   7.053
10150POPC   C4B65290  41.515   6.129   7.353
10151POPC   NC365291  36.090  36.171   5.553
10151POPC   PO465292  36.121  36.131   5.853
10151POPC   GL165293  36.174  36.086   6.153
10151POPC   GL265294  36.193  36.023   6.153
10151POPC   C1A65295  36.147  36.174   6.453
10151POPC   D2A65296  36.113  36.088   6.753
10151POPC   C3A65297  36.146  36.086   7.053
10151POPC   C4A65298  36.110  36.166   7.353
10151POPC   C1B65299  36.222  35.941   6.453
10151POPC   C2B65300  36.261  35.923   6.753
10151POPC   C3B65301  36.210  35.937   7.053
10151POPC   C4B65302  36.232  35.863   7.353
10152POPC   NC365303  20.632  35.363   5.553
10152POPC   PO465304  20.600  35.368   5.853
10152POPC   GL165305  20.569  35.374   6.153
10152POPC   GL265306  20.534  35.361   6.153
10152POPC   C1A65307  20.642  35.354   6.453
10152POPC   D2A65308  20.604  35.398   6.753
10152POPC   C3A65309  20.634  35.325   7.053
10152POPC   C4A65310  20.628  35.334   7.353
10152POPC   C1B65311  20.380  35.251   6.453
10152POPC   C2B65312  20.327  35.337   6.753
10152POPC   C3B65313  20.404  35.280   7.053
10152POPC   C4B65314  20.411  35.279   7.353
10153POPC   NC365315   3.573  40.776   5.553
10153POPC   PO465316   3.577  40.790   5.853
10153POPC   GL165317   3.589  40.750   6.153
10153POPC   GL265318   3.676  40.842   6.153
10153POPC   C1A65319   3.502  40.762   6.453
10153POPC   D2A65320   3.500  40.747   6.753
10153POPC   C3A65321   3.561  40.826   7.053
10153POPC   C4A65322   3.540  40.818   7.353
10153POPC   C1B65323   3.768  40.843   6.453
10153POPC   C2B65324   3.821  40.891   6.753
10153POPC   C3B65325   3.803  40.907   7.053
10153POPC   C4B65326   3.770  40.814   7.353
10154POPC   NC365327  34.570  26.000   5.553
10154POPC   PO465328  34.537  26.016   5.853
10154POPC   GL165329  34.528  25.996   6.153
10154POPC   GL265330  34.481  25.977   6.153
10154POPC   C1A65331  34.531  26.048   6.453
10154POPC   D2A65332  34.602  25.999   6.753
10154POPC   C3A65333  34.565  25.993   7.053
10154POPC   C4A65334  34.586  26.063   7.353
10154POPC   C1B65335  34.318  25.997   6.453
10154POPC   C2B65336  34.337  26.002   6.753
10154POPC   C3B65337  34.360  25.969   7.053
10154POPC   C4B65338  34.350  26.014   7.353
10155POPC   NC365339   9.768  17.496   5.553
10155POPC   PO465340   9.712  17.524   5.853
10155POPC   GL165341   9.788  17.535   6.153
10155POPC   GL265342   9.667  17.348   6.153
10155POPC   C1A65343   9.698  17.470   6.453
10155POPC   D2A65344   9.786  17.463   6.753
10155POPC   C3A65345   9.785  17.512   7.053
10155POPC   C4A65346   9.776  17.546   7.353
10155POPC   C1B65347   9.626  17.303   6.453
10155POPC   C2B65348   9.619  17.281   6.753
10155POPC   C3B65349   9.675  17.322   7.053
10155POPC   C4B65350   9.665  17.248   7.353
10156POPC   NC365351  14.434  31.436   5.553
10156POPC   PO465352  14.446  31.424   5.853
10156POPC   GL165353  14.447  31.438   6.153
10156POPC   GL265354  14.462  31.534   6.153
10156POPC   C1A65355  14.363  31.431   6.453
10156POPC   D2A65356  14.366  31.506   6.753
10156POPC   C3A65357  14.446  31.456   7.053
10156POPC   C4A65358  14.428  31.490   7.353
10156POPC   C1B65359  14.598  31.612   6.453
10156POPC   C2B65360  14.569  31.671   6.753
10156POPC   C3B65361  14.597  31.684   7.053
10156POPC   C4B65362  14.641  31.651   7.353
10157POPC   NC365363  20.660  11.340   5.553
10157POPC   PO465364  20.599  11.267   5.853
10157POPC   GL165365  20.571  11.305   6.153
10157POPC   GL265366  20.730  11.295   6.153
10157POPC   C1A65367  20.654  11.252   6.453
10157POPC   D2A65368  20.619  11.343   6.753
10157POPC   C3A65369  20.582  11.253   7.053
10157POPC   C4A65370  20.580  11.291   7.353
10157POPC   C1B65371  20.813  11.169   6.453
10157POPC   C2B65372  20.806  11.238   6.753
10157POPC   C3B65373  20.806  11.201   7.053
10157POPC   C4B65374  20.849  11.238   7.353
10158POPC   NC365375  23.678   9.711   5.553
10158POPC   PO465376  23.753   9.748   5.853
10158POPC   GL165377  23.704   9.732   6.153
10158POPC   GL265378  23.873   9.775   6.153
10158POPC   C1A65379  23.676   9.711   6.453
10158POPC   D2A65380  23.669   9.729   6.753
10158POPC   C3A65381  23.688   9.749   7.053
10158POPC   C4A65382  23.675   9.751   7.353
10158POPC   C1B65383  23.958   9.815   6.453
10158POPC   C2B65384  23.961   9.814   6.753
10158POPC   C3B65385  23.997   9.869   7.053
10158POPC   C4B65386  23.934   9.841   7.353
10159POPC   NC365387  26.088   5.831   5.553
10159POPC   PO465388  26.077   5.848   5.853
10159POPC   GL165389  26.002   5.847   6.153
10159POPC   GL265390  26.144   5.872   6.153
10159POPC   C1A65391  26.078   5.900   6.453
10159POPC   D2A65392  26.045   5.907   6.753
10159POPC   C3A65393  26.078   5.820   7.053
10159POPC   C4A65394  26.011   5.834   7.353
10159POPC   C1B65395  26.233   5.920   6.453
10159POPC   C2B65396  26.302   5.936   6.753
10159POPC   C3B65397  26.326   5.925   7.053
10159POPC   C4B65398  26.288   5.920   7.353
10160POPC   NC365399  31.517   9.717   5.553
10160POPC   PO465400  31.464   9.702   5.853
10160POPC   GL165401  31.506   9.752   6.153
10160POPC   GL265402  31.471   9.620   6.153
10160POPC   C1A65403  31.465   9.716   6.453
10160POPC   D2A65404  31.498   9.747   6.753
10160POPC   C3A65405  31.473   9.720   7.053
10160POPC   C4A65406  31.446   9.713   7.353
10160POPC   C1B65407  31.426   9.507   6.453
10160POPC   C2B65408  31.398   9.477   6.753
10160POPC   C3B65409  31.409   9.486   7.053
10160POPC   C4B65410  31.384   9.453   7.353
10161POPC   NC365411  10.501  41.585   5.553
10161POPC   PO465412  10.552  41.592   5.853
10161POPC   GL165413  10.540  41.528   6.153
10161POPC   GL265414  10.672  41.519   6.153
10161POPC   C1A65415  10.569  41.600   6.453
10161POPC   D2A65416  10.477  41.526   6.753
10161POPC   C3A65417  10.564  41.544   7.053
10161POPC   C4A65418  10.564  41.558   7.353
10161POPC   C1B65419  10.739  41.519   6.453
10161POPC   C2B65420  10.801  41.514   6.753
10161POPC   C3B65421  10.765  41.522   7.053
10161POPC   C4B65422  10.753  41.531   7.353
10162POPC   NC365423  29.104  43.906   5.553
10162POPC   PO465424  29.176  43.887   5.853
10162POPC   GL165425  29.191  43.875   6.153
10162POPC   GL265426  29.270  43.942   6.153
10162POPC   C1A65427  29.170  43.866   6.453
10162POPC   D2A65428  29.155  43.898   6.753
10162POPC   C3A65429  29.123  43.890   7.053
10162POPC   C4A65430  29.126  43.927   7.353
10162POPC   C1B65431  29.283  44.057   6.453
10162POPC   C2B65432  29.301  44.037   6.753
10162POPC   C3B65433  29.284  44.012   7.053
10162POPC   C4B65434  29.301  44.105   7.353
10163POPC   NC365435  29.149   9.019   5.553
10163POPC   PO465436  29.188   9.009   5.853
10163POPC   GL165437  29.129   9.004   6.153
10163POPC   GL265438  29.059   9.093   6.153
10163POPC   C1A65439  29.159   8.945   6.453
10163POPC   D2A65440  29.101   8.984   6.753
10163POPC   C3A65441  29.171   8.926   7.053
10163POPC   C4A65442  29.145   8.983   7.353
10163POPC   C1B65443  29.027   9.161   6.453
10163POPC   C2B65444  28.976   9.197   6.753
10163POPC   C3B65445  28.992   9.145   7.053
10163POPC   C4B65446  28.985   9.242   7.353
10164POPC   NC365447   8.232  15.910   5.553
10164POPC   PO465448   8.200  15.969   5.853
10164POPC   GL165449   8.170  15.910   6.153
10164POPC   GL265450   8.318  16.076   6.153
10164POPC   C1A65451   8.156  15.937   6.453
10164POPC   D2A65452   8.234  15.951   6.753
10164POPC   C3A65453   8.206  15.988   7.053
10164POPC   C4A65454   8.154  15.947   7.353
10164POPC   C1B65455   8.359  16.165   6.453
10164POPC   C2B65456   8.328  16.146   6.753
10164POPC   C3B65457   8.337  16.137   7.053
10164POPC   C4B65458   8.334  16.133   7.353
10165POPC   NC365459  28.359  37.678   5.553
10165POPC   PO465460  28.412  37.718   5.853
10165POPC   GL165461  28.394  37.715   6.153
10165POPC   GL265462  28.426  37.776   6.153
10165POPC   C1A65463  28.319  37.666   6.453
10165POPC   D2A65464  28.375  37.671   6.753
10165POPC   C3A65465  28.335  37.652   7.053
10165POPC   C4A65466  28.379  37.724   7.353
10165POPC   C1B65467  28.512  37.857   6.453
10165POPC   C2B65468  28.510  37.908   6.753
10165POPC   C3B65469  28.488  37.871   7.053
10165POPC   C4B65470  28.547  37.921   7.353
10166POPC   NC365471  14.400  40.753   5.553
10166POPC   PO465472  14.408  40.807   5.853
10166POPC   GL165473  14.444  40.793   6.153
10166POPC   GL265474  14.395  40.682   6.153
10166POPC   C1A65475  14.388  40.783   6.453
10166POPC   D2A65476  14.354  40.766   6.753
10166POPC   C3A65477  14.368  40.752   7.053
10166POPC   C4A65478  14.398  40.807   7.353
10166POPC   C1B65479  14.273  40.576   6.453
10166POPC   C2B65480  14.352  40.592   6.753
10166POPC   C3B65481  14.272  40.540   7.053
10166POPC   C4B65482  14.339  40.576   7.353
10167POPC   NC365483  33.786   0.451   5.553
10167POPC   PO465484  33.750   0.436   5.853
10167POPC   GL165485  33.813   0.434   6.153
10167POPC   GL265486  33.914   0.555   6.153
10167POPC   C1A65487  33.826   0.405   6.453
10167POPC   D2A65488  33.753   0.481   6.753
10167POPC   C3A65489  33.760   0.474   7.053
10167POPC   C4A65490  33.775   0.483   7.353
10167POPC   C1B65491  33.977   0.566   6.453
10167POPC   C2B65492  33.959   0.597   6.753
10167POPC   C3B65493  33.992   0.576   7.053
10167POPC   C4B65494  33.985   0.558   7.353
10168POPC   NC365495  40.009   4.338   5.553
10168POPC   PO465496  39.992   4.339   5.853
10168POPC   GL165497  40.032   4.292   6.153
10168POPC   GL265498  40.140   4.252   6.153
10168POPC   C1A65499  39.980   4.310   6.453
10168POPC   D2A65500  40.039   4.276   6.753
10168POPC   C3A65501  39.995   4.297   7.053
10168POPC   C4A65502  40.012   4.330   7.353
10168POPC   C1B65503  40.274   4.241   6.453
10168POPC   C2B65504  40.243   4.191   6.753
10168POPC   C3B65505  40.178   4.159   7.053
10168POPC   C4B65506  40.246   4.182   7.353
10169POPC   NC365507   2.776  14.393   5.553
10169POPC   PO465508   2.719  14.354   5.853
10169POPC   GL165509   2.787  14.379   6.153
10169POPC   GL265510   2.846  14.464   6.153
10169POPC   C1A65511   2.805  14.363   6.453
10169POPC   D2A65512   2.738  14.398   6.753
10169POPC   C3A65513   2.769  14.358   7.053
10169POPC   C4A65514   2.723  14.374   7.353
10169POPC   C1B65515   2.983  14.539   6.453
10169POPC   C2B65516   2.951  14.531   6.753
10169POPC   C3B65517   2.975  14.512   7.053
10169POPC   C4B65518   3.006  14.554   7.353
10170POPC   NC365519  31.515  12.115   5.553
10170POPC   PO465520  31.520  12.079   5.853
10170POPC   GL165521  31.454  12.036   6.153
10170POPC   GL265522  31.510  12.005   6.153
10170POPC   C1A65523  31.459  12.095   6.453
10170POPC   D2A65524  31.496  12.069   6.753
10170POPC   C3A65525  31.443  12.063   7.053
10170POPC   C4A65526  31.503  12.112   7.353
10170POPC   C1B65527  31.498  11.884   6.453
10170POPC   C2B65528  31.491  11.837   6.753
10170POPC   C3B65529  31.585  11.862   7.053
10170POPC   C4B65530  31.512  11.809   7.353
10171POPC   NC365531  44.623  31.465   5.553
10171POPC   PO465532  44.683  31.485   5.853
10171POPC   GL165533  44.641  31.456   6.153
10171POPC   GL265534  44.753  31.545   6.153
10171POPC   C1A65535  44.650  31.488   6.453
10171POPC   D2A65536  44.632  31.461   6.753
10171POPC   C3A65537  44.615  31.493   7.053
10171POPC   C4A65538  44.667  31.490   7.353
10171POPC   C1B65539  44.891  31.513   6.453
10171POPC   C2B65540  44.873  31.581   6.753
10171POPC   C3B65541  44.860  31.542   7.053
10171POPC   C4B65542  44.867  31.568   7.353
10172POPC   NC365543   5.841  41.520   5.553
10172POPC   PO465544   5.911  41.542   5.853
10172POPC   GL165545   5.864  41.575   6.153
10172POPC   GL265546   5.816  41.421   6.153
10172POPC   C1A65547   5.860  41.603   6.453
10172POPC   D2A65548   5.854  41.533   6.753
10172POPC   C3A65549   5.881  41.554   7.053
10172POPC   C4A65550   5.858  41.534   7.353
10172POPC   C1B65551   5.693  41.393   6.453
10172POPC   C2B65552   5.669  41.375   6.753
10172POPC   C3B65553   5.676  41.413   7.053
10172POPC   C4B65554   5.700  41.322   7.353
10173POPC   NC365555  34.621  36.893   5.553
10173POPC   PO465556  34.558  36.902   5.853
10173POPC   GL165557  34.618  36.867   6.153
10173POPC   GL265558  34.729  36.850   6.153
10173POPC   C1A65559  34.598  36.896   6.453
10173POPC   D2A65560  34.530  36.869   6.753
10173POPC   C3A65561  34.588  36.922   7.053
10173POPC   C4A65562  34.578  36.944   7.353
10173POPC   C1B65563  34.824  36.856   6.453
10173POPC   C2B65564  34.787  36.881   6.753
10173POPC   C3B65565  34.814  36.820   7.053
10173POPC   C4B65566  34.799  36.813   7.353
10174POPC   NC365567  10.522   1.975   5.553
10174POPC   PO465568  10.482   1.975   5.853
10174POPC   GL165569  10.529   1.985   6.153
10174POPC   GL265570  10.442   1.966   6.153
10174POPC   C1A65571  10.528   1.942   6.453
10174POPC   D2A65572  10.488   1.953   6.753
10174POPC   C3A65573  10.489   1.943   7.053
10174POPC   C4A65574  10.537   1.941   7.353
10174POPC   C1B65575  10.307   1.962   6.453
10174POPC   C2B65576  10.302   1.948   6.753
10174POPC   C3B65577  10.293   1.947   7.053
10174POPC   C4B65578  10.253   1.909   7.353
10175POPC   NC365579  14.355  15.163   5.553
10175POPC   PO465580  14.446  15.211   5.853
10175POPC   GL165581  14.412  15.228   6.153
10175POPC   GL265582  14.493  15.175   6.153
10175POPC   C1A65583  14.430  15.226   6.453
10175POPC   D2A65584  14.402  15.178   6.753
10175POPC   C3A65585  14.388  15.147   7.053
10175POPC   C4A65586  14.453  15.142   7.353
10175POPC   C1B65587  14.619  15.125   6.453
10175POPC   C2B65588  14.659  15.144   6.753
10175POPC   C3B65589  14.647  15.073   7.053
10175POPC   C4B65590  14.624  15.076   7.353
10176POPC   NC365591   1.994  16.756   5.553
10176POPC   PO465592   1.978  16.693   5.853
10176POPC   GL165593   1.979  16.765   6.153
10176POPC   GL265594   1.954  16.600   6.153
10176POPC   C1A65595   2.011  16.690   6.453
10176POPC   D2A65596   1.960  16.708   6.753
10176POPC   C3A65597   1.952  16.751   7.053
10176POPC   C4A65598   1.955  16.719   7.353
10176POPC   C1B65599   1.850  16.522   6.453
10176POPC   C2B65600   1.884  16.507   6.753
10176POPC   C3B65601   1.910  16.544   7.053
10176POPC   C4B65602   1.943  16.512   7.353
10177POPC   NC365603  23.694  21.377   5.553
10177POPC   PO465604  23.726  21.399   5.853
10177POPC   GL165605  23.709  21.395   6.153
10177POPC   GL265606  23.594  21.347   6.153
10177POPC   C1A65607  23.667  21.378   6.453
10177POPC   D2A65608  23.757  21.404   6.753
10177POPC   C3A65609  23.729  21.384   7.053
10177POPC   C4A65610  23.739  21.378   7.353
10177POPC   C1B65611  23.432  21.340   6.453
10177POPC   C2B65612  23.441  21.326   6.753
10177POPC   C3B65613  23.503  21.337   7.053
10177POPC   C4B65614  23.497  21.342   7.353
10178POPC   NC365615  39.193  34.598   5.553
10178POPC   PO465616  39.212  34.535   5.853
10178POPC   GL165617  39.258  34.607   6.153
10178POPC   GL265618  39.156  34.682   6.153
10178POPC   C1A65619  39.223  34.567   6.453
10178POPC   D2A65620  39.206  34.614   6.753
10178POPC   C3A65621  39.255  34.544   7.053
10178POPC   C4A65622  39.219  34.580   7.353
10178POPC   C1B65623  39.012  34.701   6.453
10178POPC   C2B65624  38.994  34.746   6.753
10178POPC   C3B65625  39.043  34.661   7.053
10178POPC   C4B65626  39.039  34.686   7.353
10179POPC   NC365627  17.492  23.718   5.553
10179POPC   PO465628  17.532  23.762   5.853
10179POPC   GL165629  17.511  23.701   6.153
10179POPC   GL265630  17.645  23.777   6.153
10179POPC   C1A65631  17.505  23.743   6.453
10179POPC   D2A65632  17.476  23.730   6.753
10179POPC   C3A65633  17.479  23.686   7.053
10179POPC   C4A65634  17.530  23.721   7.353
10179POPC   C1B65635  17.763  23.843   6.453
10179POPC   C2B65636  17.710  23.850   6.753
10179POPC   C3B65637  17.744  23.872   7.053
10179POPC   C4B65638  17.701  23.842   7.353
10180POPC   NC365639  35.314  12.057   5.553
10180POPC   PO465640  35.364  12.100   5.853
10180POPC   GL165641  35.358  12.125   6.153
10180POPC   GL265642  35.217  12.061   6.153
10180POPC   C1A65643  35.357  12.056   6.453
10180POPC   D2A65644  35.302  12.105   6.753
10180POPC   C3A65645  35.352  12.045   7.053
10180POPC   C4A65646  35.362  12.105   7.353
10180POPC   C1B65647  35.095  11.957   6.453
10180POPC   C2B65648  35.091  12.018   6.753
10180POPC   C3B65649  35.067  11.983   7.053
10180POPC   C4B65650  35.081  12.008   7.353
10181POPC   NC365651  43.890  19.831   5.553
10181POPC   PO465652  43.845  19.832   5.853
10181POPC   GL165653  43.873  19.844   6.153
10181POPC   GL265654  43.915  19.736   6.153
10181POPC   C1A65655  43.874  19.869   6.453
10181POPC   D2A65656  43.886  19.797   6.753
10181POPC   C3A65657  43.891  19.812   7.053
10181POPC   C4A65658  43.901  19.830   7.353
10181POPC   C1B65659  43.964  19.555   6.453
10181POPC   C2B65660  43.928  19.572   6.753
10181POPC   C3B65661  43.938  19.573   7.053
10181POPC   C4B65662  43.965  19.602   7.353
10182POPC   NC365663  37.715  42.290   5.553
10182POPC   PO465664  37.656  42.376   5.853
10182POPC   GL165665  37.665  42.301   6.153
10182POPC   GL265666  37.791  42.350   6.153
10182POPC   C1A65667  37.721  42.348   6.453
10182POPC   D2A65668  37.697  42.384   6.753
10182POPC   C3A65669  37.666  42.375   7.053
10182POPC   C4A65670  37.722  42.318   7.353
10182POPC   C1B65671  37.919  42.368   6.453
10182POPC   C2B65672  37.937  42.357   6.753
10182POPC   C3B65673  37.890  42.328   7.053
10182POPC   C4B65674  37.882  42.364   7.353
10183POPC   NC365675   7.457  27.599   5.553
10183POPC   PO465676   7.392  27.570   5.853
10183POPC   GL165677   7.376  27.629   6.153
10183POPC   GL265678   7.316  27.453   6.153
10183POPC   C1A65679   7.457  27.599   6.453
10183POPC   D2A65680   7.445  27.601   6.753
10183POPC   C3A65681   7.395  27.580   7.053
10183POPC   C4A65682   7.426  27.578   7.353
10183POPC   C1B65683   7.302  27.422   6.453
10183POPC   C2B65684   7.235  27.418   6.753
10183POPC   C3B65685   7.299  27.342   7.053
10183POPC   C4B65686   7.288  27.378   7.353
10184POPC   NC365687  16.691   3.550   5.553
10184POPC   PO465688  16.739   3.583   5.853
10184POPC   GL165689  16.762   3.520   6.153
10184POPC   GL265690  16.586   3.485   6.153
10184POPC   C1A65691  16.706   3.503   6.453
10184POPC   D2A65692  16.688   3.517   6.753
10184POPC   C3A65693  16.769   3.492   7.053
10184POPC   C4A65694  16.764   3.561   7.353
10184POPC   C1B65695  16.572   3.413   6.453
10184POPC   C2B65696  16.562   3.414   6.753
10184POPC   C3B65697  16.488   3.345   7.053
10184POPC   C4B65698  16.508   3.389   7.353
10185POPC   NC365699   5.046   6.630   5.553
10185POPC   PO465700   5.084   6.632   5.853
10185POPC   GL165701   5.060   6.629   6.153
10185POPC   GL265702   5.204   6.671   6.153
10185POPC   C1A65703   5.078   6.614   6.453
10185POPC   D2A65704   5.108   6.599   6.753
10185POPC   C3A65705   5.069   6.660   7.053
10185POPC   C4A65706   5.121   6.598   7.353
10185POPC   C1B65707   5.306   6.771   6.453
10185POPC   C2B65708   5.298   6.761   6.753
10185POPC   C3B65709   5.348   6.699   7.053
10185POPC   C4B65710   5.326   6.778   7.353
10186POPC   NC365711  29.893  38.442   5.553
10186POPC   PO465712  29.914  38.467   5.853
10186POPC   GL165713  29.958  38.429   6.153
10186POPC   GL265714  30.071  38.442   6.153
10186POPC   C1A65715  29.924  38.448   6.453
10186POPC   D2A65716  29.938  38.431   6.753
10186POPC   C3A65717  29.903  38.426   7.053
10186POPC   C4A65718  29.910  38.498   7.353
10186POPC   C1B65719  30.161  38.437   6.453
10186POPC   C2B65720  30.191  38.452   6.753
10186POPC   C3B65721  30.129  38.415   7.053
10186POPC   C4B65722  30.203  38.414   7.353
10187POPC   NC365723  43.147  22.115   5.553
10187POPC   PO465724  43.123  22.182   5.853
10187POPC   GL165725  43.131  22.152   6.153
10187POPC   GL265726  43.220  22.240   6.153
10187POPC   C1A65727  43.160  22.130   6.453
10187POPC   D2A65728  43.103  22.203   6.753
10187POPC   C3A65729  43.093  22.148   7.053
10187POPC   C4A65730  43.123  22.129   7.353
10187POPC   C1B65731  43.276  22.305   6.453
10187POPC   C2B65732  43.303  22.328   6.753
10187POPC   C3B65733  43.333  22.366   7.053
10187POPC   C4B65734  43.312  22.281   7.353
10188POPC   NC365735  38.449  32.253   5.553
10188POPC   PO465736  38.499  32.201   5.853
10188POPC   GL165737  38.452  32.225   6.153
10188POPC   GL265738  38.408  32.181   6.153
10188POPC   C1A65739  38.456  32.276   6.453
10188POPC   D2A65740  38.481  32.262   6.753
10188POPC   C3A65741  38.495  32.258   7.053
10188POPC   C4A65742  38.436  32.250   7.353
10188POPC   C1B65743  38.319  32.001   6.453
10188POPC   C2B65744  38.339  31.976   6.753
10188POPC   C3B65745  38.399  32.027   7.053
10188POPC   C4B65746  38.383  31.987   7.353
10189POPC   NC365747  22.150   9.021   5.553
10189POPC   PO465748  22.188   8.950   5.853
10189POPC   GL165749  22.206   8.963   6.153
10189POPC   GL265750  22.275   8.995   6.153
10189POPC   C1A65751  22.139   8.945   6.453
10189POPC   D2A65752  22.209   8.996   6.753
10189POPC   C3A65753  22.115   8.938   7.053
10189POPC   C4A65754  22.120   9.002   7.353
10189POPC   C1B65755  22.389   9.087   6.453
10189POPC   C2B65756  22.426   9.088   6.753
10189POPC   C3B65757  22.346   9.054   7.053
10189POPC   C4B65758  22.382   9.124   7.353
10190POPC   NC365759  12.862  33.008   5.553
10190POPC   PO465760  12.854  33.074   5.853
10190POPC   GL165761  12.830  33.025   6.153
10190POPC   GL265762  12.890  32.958   6.153
10190POPC   C1A65763  12.878  33.058   6.453
10190POPC   D2A65764  12.860  33.070   6.753
10190POPC   C3A65765  12.814  33.045   7.053
10190POPC   C4A65766  12.858  33.006   7.353
10190POPC   C1B65767  13.026  32.823   6.453
10190POPC   C2B65768  12.991  32.810   6.753
10190POPC   C3B65769  13.039  32.876   7.053
10190POPC   C4B65770  13.039  32.825   7.353
10191POPC   NC365771   3.498  36.864   5.553
10191POPC   PO465772   3.578  36.888   5.853
10191POPC   GL165773   3.544  36.927   6.153
10191POPC   GL265774   3.711  36.892   6.153
10191POPC   C1A65775   3.543  36.868   6.453
10191POPC   D2A65776   3.570  36.949   6.753
10191POPC   C3A65777   3.532  36.927   7.053
10191POPC   C4A65778   3.534  36.920   7.353
10191POPC   C1B65779   3.775  36.891   6.453
10191POPC   C2B65780   3.806  36.882   6.753
10191POPC   C3B65781   3.796  36.835   7.053
10191POPC   C4B65782   3.786  36.860   7.353
10192POPC   NC365783  24.506  33.029   5.553
10192POPC   PO465784  24.453  33.007   5.853
10192POPC   GL165785  24.460  33.000   6.153
10192POPC   GL265786  24.559  33.063   6.153
10192POPC   C1A65787  24.481  32.990   6.453
10192POPC   D2A65788  24.470  33.007   6.753
10192POPC   C3A65789  24.458  33.006   7.053
10192POPC   C4A65790  24.508  33.051   7.353
10192POPC   C1B65791  24.751  33.168   6.453
10192POPC   C2B65792  24.731  33.109   6.753
10192POPC   C3B65793  24.748  33.164   7.053
10192POPC   C4B65794  24.665  33.192   7.353
10193POPC   NC365795   9.791  21.380   5.553
10193POPC   PO465796   9.720  21.416   5.853
10193POPC   GL165797   9.704  21.421   6.153
10193POPC   GL265798   9.756  21.523   6.153
10193POPC   C1A65799   9.731  21.371   6.453
10193POPC   D2A65800   9.760  21.419   6.753
10193POPC   C3A65801   9.769  21.422   7.053
10193POPC   C4A65802   9.730  21.381   7.353
10193POPC   C1B65803   9.740  21.672   6.453
10193POPC   C2B65804   9.775  21.668   6.753
10193POPC   C3B65805   9.752  21.620   7.053
10193POPC   C4B65806   9.729  21.589   7.353
10194POPC   NC365807  12.819  15.945   5.553
10194POPC   PO465808  12.833  15.987   5.853
10194POPC   GL165809  12.901  15.927   6.153
10194POPC   GL265810  12.779  16.032   6.153
10194POPC   C1A65811  12.854  15.959   6.453
10194POPC   D2A65812  12.900  15.977   6.753
10194POPC   C3A65813  12.847  15.966   7.053
10194POPC   C4A65814  12.856  16.000   7.353
10194POPC   C1B65815  12.711  16.202   6.453
10194POPC   C2B65816  12.701  16.161   6.753
10194POPC   C3B65817  12.753  16.143   7.053
10194POPC   C4B65818  12.693  16.175   7.353
10195POPC   NC365819  17.538  19.100   5.553
10195POPC   PO465820  17.474  19.013   5.853
10195POPC   GL165821  17.458  19.018   6.153
10195POPC   GL265822  17.422  19.169   6.153
10195POPC   C1A65823  17.547  19.105   6.453
10195POPC   D2A65824  17.503  19.013   6.753
10195POPC   C3A65825  17.543  19.028   7.053
10195POPC   C4A65826  17.464  19.041   7.353
10195POPC   C1B65827  17.304  19.216   6.453
10195POPC   C2B65828  17.369  19.217   6.753
10195POPC   C3B65829  17.293  19.278   7.053
10195POPC   C4B65830  17.317  19.215   7.353
10196POPC   NC365831  29.936  36.113   5.553
10196POPC   PO465832  29.902  36.132   5.853
10196POPC   GL165833  29.953  36.171   6.153
10196POPC   GL265834  29.800  36.187   6.153
10196POPC   C1A65835  29.933  36.092   6.453
10196POPC   D2A65836  29.945  36.141   6.753
10196POPC   C3A65837  29.963  36.124   7.053
10196POPC   C4A65838  29.931  36.144   7.353
10196POPC   C1B65839  29.651  36.191   6.453
10196POPC   C2B65840  29.671  36.259   6.753
10196POPC   C3B65841  29.665  36.247   7.053
10196POPC   C4B65842  29.652  36.194   7.353
10197POPC   NC365843  29.138  10.571   5.553
10197POPC   PO465844  29.097  10.500   5.853
10197POPC   GL165845  29.138  10.513   6.153
10197POPC   GL265846  29.277  10.480   6.153
10197POPC   C1A65847  29.191  10.565   6.453
10197POPC   D2A65848  29.147  10.569   6.753
10197POPC   C3A65849  29.179  10.560   7.053
10197POPC   C4A65850  29.189  10.554   7.353
10197POPC   C1B65851  29.418  10.496   6.453
10197POPC   C2B65852  29.434  10.454   6.753
10197POPC   C3B65853  29.376  10.473   7.053
10197POPC   C4B65854  29.346  10.475   7.353
10198POPC   NC365855  21.410  35.346   5.553
10198POPC   PO465856  21.338  35.327   5.853
10198POPC   GL165857  21.415  35.334   6.153
10198POPC   GL265858  21.312  35.494   6.153
10198POPC   C1A65859  21.401  35.326   6.453
10198POPC   D2A65860  21.421  35.305   6.753
10198POPC   C3A65861  21.375  35.394   7.053
10198POPC   C4A65862  21.387  35.362   7.353
10198POPC   C1B65863  21.230  35.538   6.453
10198POPC   C2B65864  21.247  35.560   6.753
10198POPC   C3B65865  21.274  35.555   7.053
10198POPC   C4B65866  21.233  35.554   7.353
10199POPC   NC365867  32.982  12.803   5.553
10199POPC   PO465868  33.068  12.808   5.853
10199POPC   GL165869  33.043  12.892   6.153
10199POPC   GL265870  33.015  12.689   6.153
10199POPC   C1A65871  33.032  12.831   6.453
10199POPC   D2A65872  33.072  12.820   6.753
10199POPC   C3A65873  32.980  12.844   7.053
10199POPC   C4A65874  33.036  12.864   7.353
10199POPC   C1B65875  33.017  12.626   6.453
10199POPC   C2B65876  33.011  12.581   6.753
10199POPC   C3B65877  33.008  12.634   7.053
10199POPC   C4B65878  32.939  12.621   7.353
10200POPC   NC365879  32.243   9.767   5.553
10200POPC   PO465880  32.218   9.700   5.853
10200POPC   GL165881  32.295   9.785   6.153
10200POPC   GL265882  32.330   9.611   6.153
10200POPC   C1A65883  32.201   9.763   6.453
10200POPC   D2A65884  32.298   9.749   6.753
10200POPC   C3A65885  32.239   9.794   7.053
10200POPC   C4A65886  32.247   9.778   7.353
10200POPC   C1B65887  32.376   9.587   6.453
10200POPC   C2B65888  32.432   9.505   6.753
10200POPC   C3B65889  32.372   9.521   7.053
10200POPC   C4B65890  32.378   9.512   7.353
10201POPC   NC365891   5.846   6.675   5.553
10201POPC   PO465892   5.824   6.677   5.853
10201POPC   GL165893   5.894   6.649   6.153
10201POPC   GL265894   6.021   6.647   6.153
10201POPC   C1A65895   5.907   6.664   6.453
10201POPC   D2A65896   5.901   6.613   6.753
10201POPC   C3A65897   5.846   6.613   7.053
10201POPC   C4A65898   5.854   6.651   7.353
10201POPC   C1B65899   6.123   6.626   6.453
10201POPC   C2B65900   6.096   6.659   6.753
10201POPC   C3B65901   6.088   6.632   7.053
10201POPC   C4B65902   6.105   6.688   7.353
10202POPC   NC365903  39.990  42.346   5.553
10202POPC   PO465904  39.964  42.325   5.853
10202POPC   GL165905  39.998  42.314   6.153
10202POPC   GL265906  39.921  42.356   6.153
10202POPC   C1A65907  40.011  42.360   6.453
10202POPC   D2A65908  39.970  42.377   6.753
10202POPC   C3A65909  40.048  42.291   7.053
10202POPC   C4A65910  39.983  42.295   7.353
10202POPC   C1B65911  39.713  42.380   6.453
10202POPC   C2B65912  39.802  42.373   6.753
10202POPC   C3B65913  39.790  42.306   7.053
10202POPC   C4B65914  39.778  42.298   7.353
10203POPC   NC365915  14.429   5.835   5.553
10203POPC   PO465916  14.417   5.875   5.853
10203POPC   GL165917  14.358   5.833   6.153
10203POPC   GL265918  14.271   5.774   6.153
10203POPC   C1A65919  14.391   5.874   6.453
10203POPC   D2A65920  14.449   5.836   6.753
10203POPC   C3A65921  14.446   5.893   7.053
10203POPC   C4A65922  14.362   5.914   7.353
10203POPC   C1B65923  14.266   5.690   6.453
10203POPC   C2B65924  14.268   5.731   6.753
10203POPC   C3B65925  14.269   5.665   7.053
10203POPC   C4B65926  14.230   5.646   7.353
10204POPC   NC365927   0.437  18.294   5.553
10204POPC   PO465928   0.433  18.252   5.853
10204POPC   GL165929   0.433  18.320   6.153
10204POPC   GL265930   0.526  18.356   6.153
10204POPC   C1A65931   0.477  18.308   6.453
10204POPC   D2A65932   0.439  18.240   6.753
10204POPC   C3A65933   0.427  18.244   7.053
10204POPC   C4A65934   0.390  18.289   7.353
10204POPC   C1B65935   0.623  18.415   6.453
10204POPC   C2B65936   0.657  18.396   6.753
10204POPC   C3B65937   0.626  18.448   7.053
10204POPC   C4B65938   0.649  18.431   7.353
10205POPC   NC365939   7.414   5.065   5.553
10205POPC   PO465940   7.425   5.122   5.853
10205POPC   GL165941   7.430   5.071   6.153
10205POPC   GL265942   7.567   5.114   6.153
10205POPC   C1A65943   7.390   5.121   6.453
10205POPC   D2A65944   7.461   5.047   6.753
10205POPC   C3A65945   7.420   5.074   7.053
10205POPC   C4A65946   7.428   5.097   7.353
10205POPC   C1B65947   7.594   5.228   6.453
10205POPC   C2B65948   7.672   5.264   6.753
10205POPC   C3B65949   7.588   5.196   7.053
10205POPC   C4B65950   7.646   5.254   7.353
10206POPC   NC365951   8.947  13.640   5.553
10206POPC   PO465952   8.977  13.659   5.853
10206POPC   GL165953   8.963  13.653   6.153
10206POPC   GL265954   9.035  13.556   6.153
10206POPC   C1A65955   8.983  13.656   6.453
10206POPC   D2A65956   8.946  13.581   6.753
10206POPC   C3A65957   8.924  13.623   7.053
10206POPC   C4A65958   8.996  13.609   7.353
10206POPC   C1B65959   9.209  13.491   6.453
10206POPC   C2B65960   9.175  13.454   6.753
10206POPC   C3B65961   9.131  13.520   7.053
10206POPC   C4B65962   9.136  13.485   7.353
10207POPC   NC365963  35.319  29.924   5.553
10207POPC   PO465964  35.366  29.956   5.853
10207POPC   GL165965  35.381  29.886   6.153
10207POPC   GL265966  35.348  29.765   6.153
10207POPC   C1A65967  35.374  29.916   6.453
10207POPC   D2A65968  35.389  29.901   6.753
10207POPC   C3A65969  35.353  29.878   7.053
10207POPC   C4A65970  35.343  29.884   7.353
10207POPC   C1B65971  35.310  29.680   6.453
10207POPC   C2B65972  35.278  29.644   6.753
10207POPC   C3B65973  35.284  29.659   7.053
10207POPC   C4B65974  35.296  29.632   7.353
10208POPC   NC365975   5.839  12.048   5.553
10208POPC   PO465976   5.889  12.123   5.853
10208POPC   GL165977   5.823  12.108   6.153
10208POPC   GL265978   6.025  11.967   6.153
10208POPC   C1A65979   5.912  12.087   6.453
10208POPC   D2A65980   5.860  12.065   6.753
10208POPC   C3A65981   5.857  12.030   7.053
10208POPC   C4A65982   5.910  12.064   7.353
10208POPC   C1B65983   6.124  11.924   6.453
10208POPC   C2B65984   6.062  11.976   6.753
10208POPC   C3B65985   6.088  11.954   7.053
10208POPC   C4B65986   6.046  11.940   7.353
10209POPC   NC365987  19.015  31.466   5.553
10209POPC   PO465988  19.099  31.494   5.853
10209POPC   GL165989  19.061  31.469   6.153
10209POPC   GL265990  18.959  31.567   6.153
10209POPC   C1A65991  19.014  31.476   6.453
10209POPC   D2A65992  19.084  31.482   6.753
10209POPC   C3A65993  19.063  31.443   7.053
10209POPC   C4A65994  19.058  31.476   7.353
10209POPC   C1B65995  18.827  31.635   6.453
10209POPC   C2B65996  18.863  31.594   6.753
10209POPC   C3B65997  18.907  31.635   7.053
10209POPC   C4B65998  18.911  31.647   7.353
10210POPC   NC365999  20.609  26.796   5.553
10210POPC   PO466000  20.594  26.788   5.853
10210POPC   GL166001  20.639  26.778   6.153
10210POPC   GL266002  20.738  26.884   6.153
10210POPC   C1A66003  20.624  26.790   6.453
10210POPC   D2A66004  20.659  26.796   6.753
10210POPC   C3A66005  20.658  26.826   7.053
10210POPC   C4A66006  20.601  26.855   7.353
10210POPC   C1B66007  20.805  26.973   6.453
10210POPC   C2B66008  20.780  26.996   6.753
10210POPC   C3B66009  20.803  26.956   7.053
10210POPC   C4B66010  20.760  26.970   7.353
10211POPC   NC366011  43.107  26.074   5.553
10211POPC   PO466012  43.081  26.024   5.853
10211POPC   GL166013  43.151  26.026   6.153
10211POPC   GL266014  43.040  26.114   6.153
10211POPC   C1A66015  43.083  26.048   6.453
10211POPC   D2A66016  43.090  26.089   6.753
10211POPC   C3A66017  43.061  26.027   7.053
10211POPC   C4A66018  43.128  26.058   7.353
10211POPC   C1B66019  43.009  26.287   6.453
10211POPC   C2B66020  42.920  26.199   6.753
10211POPC   C3B66021  42.973  26.285   7.053
10211POPC   C4B66022  42.928  26.261   7.353
10212POPC   NC366023  15.198   2.794   5.553
10212POPC   PO466024  15.141   2.737   5.853
10212POPC   GL166025  15.136   2.756   6.153
10212POPC   GL266026  15.057   2.673   6.153
10212POPC   C1A66027  15.214   2.806   6.453
10212POPC   D2A66028  15.135   2.795   6.753
10212POPC   C3A66029  15.183   2.810   7.053
10212POPC   C4A66030  15.216   2.782   7.353
10212POPC   C1B66031  15.010   2.665   6.453
10212POPC   C2B66032  14.993   2.647   6.753
10212POPC   C3B66033  14.936   2.573   7.053
10212POPC   C4B66034  14.992   2.664   7.353
10213POPC   NC366035  37.679  21.346   5.553
10213POPC   PO466036  37.721  21.378   5.853
10213POPC   GL166037  37.711  21.414   6.153
10213POPC   GL266038  37.850  21.428   6.153
10213POPC   C1A66039  37.671  21.352   6.453
10213POPC   D2A66040  37.721  21.376   6.753
10213POPC   C3A66041  37.691  21.422   7.053
10213POPC   C4A66042  37.724  21.395   7.353
10213POPC   C1B66043  37.961  21.423   6.453
10213POPC   C2B66044  37.911  21.406   6.753
10213POPC   C3B66045  37.978  21.392   7.053
10213POPC   C4B66046  37.902  21.426   7.353
10214POPC   NC366047  27.593  29.178   5.553
10214POPC   PO466048  27.562  29.120   5.853
10214POPC   GL166049  27.547  29.135   6.153
10214POPC   GL266050  27.661  29.222   6.153
10214POPC   C1A66051  27.544  29.154   6.453
10214POPC   D2A66052  27.576  29.113   6.753
10214POPC   C3A66053  27.547  29.164   7.053
10214POPC   C4A66054  27.642  29.149   7.353
10214POPC   C1B66055  27.688  29.376   6.453
10214POPC   C2B66056  27.692  29.383   6.753
10214POPC   C3B66057  27.714  29.346   7.053
10214POPC   C4B66058  27.678  29.400   7.353
10215POPC   NC366059  39.218  32.228   5.553
10215POPC   PO466060  39.261  32.242   5.853
10215POPC   GL166061  39.262  32.257   6.153
10215POPC   GL266062  39.239  32.095   6.153
10215POPC   C1A66063  39.182  32.247   6.453
10215POPC   D2A66064  39.189  32.270   6.753
10215POPC   C3A66065  39.225  32.217   7.053
10215POPC   C4A66066  39.199  32.248   7.353
10215POPC   C1B66067  39.164  32.032   6.453
10215POPC   C2B66068  39.190  32.045   6.753
10215POPC   C3B66069  39.148  32.001   7.053
10215POPC   C4B66070  39.200  32.040   7.353
10216POPC   NC366071  28.386  43.882   5.553
10216POPC   PO466072  28.394  43.858   5.853
10216POPC   GL166073  28.374  43.889   6.153
10216POPC   GL266074  28.362  43.986   6.153
10216POPC   C1A66075  28.363  43.931   6.453
10216POPC   D2A66076  28.327  43.838   6.753
10216POPC   C3A66077  28.334  43.925   7.053
10216POPC   C4A66078  28.400  43.859   7.353
10216POPC   C1B66079  28.280  44.155   6.453
10216POPC   C2B66080  28.309  44.156   6.753
10216POPC   C3B66081  28.249  44.136   7.053
10216POPC   C4B66082  28.233  44.083   7.353
10217POPC   NC366083  17.492  24.499   5.553
10217POPC   PO466084  17.547  24.517   5.853
10217POPC   GL166085  17.462  24.497   6.153
10217POPC   GL266086  17.514  24.582   6.153
10217POPC   C1A66087  17.487  24.494   6.453
10217POPC   D2A66088  17.494  24.514   6.753
10217POPC   C3A66089  17.523  24.453   7.053
10217POPC   C4A66090  17.466  24.489   7.353
10217POPC   C1B66091  17.492  24.766   6.453
10217POPC   C2B66092  17.524  24.707   6.753
10217POPC   C3B66093  17.553  24.773   7.053
10217POPC   C4B66094  17.519  24.736   7.353
10218POPC   NC366095  41.521  27.628   5.553
10218POPC   PO466096  41.574  27.612   5.853
10218POPC   GL166097  41.593  27.550   6.153
10218POPC   GL266098  41.427  27.477   6.153
10218POPC   C1A66099  41.607  27.601   6.453
10218POPC   D2A66100  41.549  27.553   6.753
10218POPC   C3A66101  41.587  27.586   7.053
10218POPC   C4A66102  41.545  27.641   7.353
10218POPC   C1B66103  41.392  27.401   6.453
10218POPC   C2B66104  41.325  27.415   6.753
10218POPC   C3B66105  41.352  27.492   7.053
10218POPC   C4B66106  41.333  27.485   7.353
10219POPC   NC366107  20.641  21.399   5.553
10219POPC   PO466108  20.563  21.432   5.853
10219POPC   GL166109  20.573  21.371   6.153
10219POPC   GL266110  20.661  21.455   6.153
10219POPC   C1A66111  20.600  21.378   6.453
10219POPC   D2A66112  20.571  21.423   6.753
10219POPC   C3A66113  20.633  21.434   7.053
10219POPC   C4A66114  20.575  21.341   7.353
10219POPC   C1B66115  20.696  21.619   6.453
10219POPC   C2B66116  20.698  21.585   6.753
10219POPC   C3B66117  20.706  21.620   7.053
10219POPC   C4B66118  20.722  21.564   7.353
10220POPC   NC366119  34.577  28.354   5.553
10220POPC   PO466120  34.608  28.328   5.853
10220POPC   GL166121  34.571  28.355   6.153
10220POPC   GL266122  34.717  28.323   6.153
10220POPC   C1A66123  34.625  28.358   6.453
10220POPC   D2A66124  34.527  28.407   6.753
10220POPC   C3A66125  34.589  28.400   7.053
10220POPC   C4A66126  34.599  28.411   7.353
10220POPC   C1B66127  34.861  28.334   6.453
10220POPC   C2B66128  34.831  28.388   6.753
10220POPC   C3B66129  34.806  28.387   7.053
10220POPC   C4B66130  34.817  28.409   7.353
10221POPC   NC366131  35.317  28.389   5.553
10221POPC   PO466132  35.401  28.350   5.853
10221POPC   GL166133  35.318  28.324   6.153
10221POPC   GL266134  35.358  28.533   6.153
10221POPC   C1A66135  35.358  28.350   6.453
10221POPC   D2A66136  35.374  28.379   6.753
10221POPC   C3A66137  35.351  28.413   7.053
10221POPC   C4A66138  35.356  28.389   7.353
10221POPC   C1B66139  35.381  28.640   6.453
10221POPC   C2B66140  35.321  28.614   6.753
10221POPC   C3B66141  35.340  28.630   7.053
10221POPC   C4B66142  35.346  28.646   7.353
10222POPC   NC366143  13.667  23.715   5.553
10222POPC   PO466144  13.630  23.747   5.853
10222POPC   GL166145  13.677  23.748   6.153
10222POPC   GL266146  13.482  23.763   6.153
10222POPC   C1A66147  13.609  23.696   6.453
10222POPC   D2A66148  13.618  23.683   6.753
10222POPC   C3A66149  13.633  23.750   7.053
10222POPC   C4A66150  13.662  23.695   7.353
10222POPC   C1B66151  13.353  23.774   6.453
10222POPC   C2B66152  13.404  23.767   6.753
10222POPC   C3B66153  13.395  23.698   7.053
10222POPC   C4B66154  13.342  23.757   7.353
10223POPC   NC366155   8.208  12.862   5.553
10223POPC   PO466156   8.168  12.802   5.853
10223POPC   GL166157   8.152  12.891   6.153
10223POPC   GL266158   8.352  12.826   6.153
10223POPC   C1A66159   8.181  12.891   6.453
10223POPC   D2A66160   8.155  12.809   6.753
10223POPC   C3A66161   8.160  12.898   7.053
10223POPC   C4A66162   8.225  12.811   7.353
10223POPC   C1B66163   8.425  12.838   6.453
10223POPC   C2B66164   8.448  12.809   6.753
10223POPC   C3B66165   8.484  12.808   7.053
10223POPC   C4B66166   8.421  12.840   7.353
10224POPC   NC366167   2.781   4.336   5.553
10224POPC   PO466168   2.812   4.344   5.853
10224POPC   GL166169   2.750   4.365   6.153
10224POPC   GL266170   2.696   4.150   6.153
10224POPC   C1A66171   2.720   4.335   6.453
10224POPC   D2A66172   2.773   4.353   6.753
10224POPC   C3A66173   2.739   4.281   7.053
10224POPC   C4A66174   2.786   4.351   7.353
10224POPC   C1B66175   2.645   4.099   6.453
10224POPC   C2B66176   2.701   4.075   6.753
10224POPC   C3B66177   2.712   4.065   7.053
10224POPC   C4B66178   2.705   4.096   7.353
10225POPC   NC366179  39.278  27.584   5.553
10225POPC   PO466180  39.269  27.635   5.853
10225POPC   GL166181  39.222  27.574   6.153
10225POPC   GL266182  39.373  27.639   6.153
10225POPC   C1A66183  39.244  27.580   6.453
10225POPC   D2A66184  39.206  27.555   6.753
10225POPC   C3A66185  39.273  27.626   7.053
10225POPC   C4A66186  39.209  27.596   7.353
10225POPC   C1B66187  39.495  27.688   6.453
10225POPC   C2B66188  39.405  27.670   6.753
10225POPC   C3B66189  39.447  27.761   7.053
10225POPC   C4B66190  39.444  27.769   7.353
10226POPC   NC366191  41.561  21.407   5.553
10226POPC   PO466192  41.586  21.406   5.853
10226POPC   GL166193  41.531  21.377   6.153
10226POPC   GL266194  41.690  21.399   6.153
10226POPC   C1A66195  41.517  21.344   6.453
10226POPC   D2A66196  41.551  21.363   6.753
10226POPC   C3A66197  41.569  21.397   7.053
10226POPC   C4A66198  41.563  21.364   7.353
10226POPC   C1B66199  41.774  21.350   6.453
10226POPC   C2B66200  41.792  21.277   6.753
10226POPC   C3B66201  41.789  21.346   7.053
10226POPC   C4B66202  41.809  21.295   7.353
10227POPC   NC366203  40.042   2.012   5.553
10227POPC   PO466204  39.984   2.002   5.853
10227POPC   GL166205  40.034   1.990   6.153
10227POPC   GL266206  39.935   2.023   6.153
10227POPC   C1A66207  39.967   1.960   6.453
10227POPC   D2A66208  40.044   2.012   6.753
10227POPC   C3A66209  40.013   1.945   7.053
10227POPC   C4A66210  39.990   1.964   7.353
10227POPC   C1B66211  39.761   2.061   6.453
10227POPC   C2B66212  39.717   2.018   6.753
10227POPC   C3B66213  39.794   2.012   7.053
10227POPC   C4B66214  39.780   2.096   7.353
10228POPC   NC366215  39.981   2.767   5.553
10228POPC   PO466216  40.040   2.733   5.853
10228POPC   GL166217  39.967   2.773   6.153
10228POPC   GL266218  39.955   2.703   6.153
10228POPC   C1A66219  39.997   2.815   6.453
10228POPC   D2A66220  40.047   2.809   6.753
10228POPC   C3A66221  39.962   2.767   7.053
10228POPC   C4A66222  40.050   2.736   7.353
10228POPC   C1B66223  39.919   2.567   6.453
10228POPC   C2B66224  39.836   2.550   6.753
10228POPC   C3B66225  39.884   2.548   7.053
10228POPC   C4B66226  39.921   2.555   7.353
10229POPC   NC366227   6.618  31.454   5.553
10229POPC   PO466228   6.625  31.450   5.853
10229POPC   GL166229   6.636  31.498   6.153
10229POPC   GL266230   6.641  31.383   6.153
10229POPC   C1A66231   6.683  31.488   6.453
10229POPC   D2A66232   6.634  31.460   6.753
10229POPC   C3A66233   6.684  31.431   7.053
10229POPC   C4A66234   6.608  31.520   7.353
10229POPC   C1B66235   6.649  31.187   6.453
10229POPC   C2B66236   6.668  31.184   6.753
10229POPC   C3B66237   6.674  31.272   7.053
10229POPC   C4B66238   6.656  31.179   7.353
10230POPC   NC366239  38.466  37.721   5.553
10230POPC   PO466240  38.468  37.673   5.853
10230POPC   GL166241  38.421  37.637   6.153
10230POPC   GL266242  38.522  37.556   6.153
10230POPC   C1A66243  38.408  37.635   6.453
10230POPC   D2A66244  38.451  37.702   6.753
10230POPC   C3A66245  38.446  37.671   7.053
10230POPC   C4A66246  38.505  37.719   7.353
10230POPC   C1B66247  38.645  37.490   6.453
10230POPC   C2B66248  38.588  37.488   6.753
10230POPC   C3B66249  38.636  37.494   7.053
10230POPC   C4B66250  38.640  37.517   7.353
10231POPC   NC366251  36.890  38.409   5.553
10231POPC   PO466252  36.871  38.441   5.853
10231POPC   GL166253  36.857  38.490   6.153
10231POPC   GL266254  36.819  38.457   6.153
10231POPC   C1A66255  36.908  38.477   6.453
10231POPC   D2A66256  36.901  38.467   6.753
10231POPC   C3A66257  36.924  38.457   7.053
10231POPC   C4A66258  36.916  38.409   7.353
10231POPC   C1B66259  36.703  38.562   6.453
10231POPC   C2B66260  36.626  38.533   6.753
10231POPC   C3B66261  36.647  38.564   7.053
10231POPC   C4B66262  36.700  38.509   7.353
10232POPC   NC366263  10.571  10.572   5.553
10232POPC   PO466264  10.486  10.547   5.853
10232POPC   GL166265  10.490  10.572   6.153
10232POPC   GL266266  10.591  10.402   6.153
10232POPC   C1A66267  10.537  10.498   6.453
10232POPC   D2A66268  10.485  10.558   6.753
10232POPC   C3A66269  10.528  10.508   7.053
10232POPC   C4A66270  10.532  10.550   7.353
10232POPC   C1B66271  10.579  10.252   6.453
10232POPC   C2B66272  10.579  10.308   6.753
10232POPC   C3B66273  10.601  10.304   7.053
10232POPC   C4B66274  10.615  10.244   7.353
10233POPC   NC366275  18.244  26.864   5.553
10233POPC   PO466276  18.314  26.852   5.853
10233POPC   GL166277  18.288  26.774   6.153
10233POPC   GL266278  18.254  26.651   6.153
10233POPC   C1A66279  18.332  26.782   6.453
10233POPC   D2A66280  18.316  26.828   6.753
10233POPC   C3A66281  18.294  26.823   7.053
10233POPC   C4A66282  18.250  26.778   7.353
10233POPC   C1B66283  18.294  26.564   6.453
10233POPC   C2B66284  18.250  26.526   6.753
10233POPC   C3B66285  18.274  26.566   7.053
10233POPC   C4B66286  18.264  26.542   7.353
10234POPC   NC366287  29.164  29.880   5.553
10234POPC   PO466288  29.158  29.962   5.853
10234POPC   GL166289  29.118  29.947   6.153
10234POPC   GL266290  29.240  29.848   6.153
10234POPC   C1A66291  29.192  29.871   6.453
10234POPC   D2A66292  29.175  29.927   6.753
10234POPC   C3A66293  29.194  29.911   7.053
10234POPC   C4A66294  29.193  29.940   7.353
10234POPC   C1B66295  29.342  29.846   6.453
10234POPC   C2B66296  29.337  29.838   6.753
10234POPC   C3B66297  29.336  29.770   7.053
10234POPC   C4B66298  29.361  29.800   7.353
10235POPC   NC366299  19.014  43.144   5.553
10235POPC   PO466300  19.093  43.132   5.853
10235POPC   GL166301  19.071  43.071   6.153
10235POPC   GL266302  18.983  43.202   6.153
10235POPC   C1A66303  19.076  43.063   6.453
10235POPC   D2A66304  19.068  43.157   6.753
10235POPC   C3A66305  19.025  43.069   7.053
10235POPC   C4A66306  19.094  43.082   7.353
10235POPC   C1B66307  19.040  43.308   6.453
10235POPC   C2B66308  18.961  43.386   6.753
10235POPC   C3B66309  18.960  43.364   7.053
10235POPC   C4B66310  19.003  43.400   7.353
10236POPC   NC366311   8.237  32.272   5.553
10236POPC   PO466312   8.243  32.201   5.853
10236POPC   GL166313   8.227  32.235   6.153
10236POPC   GL266314   8.115  32.340   6.153
10236POPC   C1A66315   8.196  32.265   6.453
10236POPC   D2A66316   8.205  32.222   6.753
10236POPC   C3A66317   8.170  32.254   7.053
10236POPC   C4A66318   8.173  32.284   7.353
10236POPC   C1B66319   8.013  32.477   6.453
10236POPC   C2B66320   8.098  32.462   6.753
10236POPC   C3B66321   8.036  32.475   7.053
10236POPC   C4B66322   8.025  32.475   7.353
10237POPC   NC366323  39.187  16.766   5.553
10237POPC   PO466324  39.276  16.764   5.853
10237POPC   GL166325  39.187  16.744   6.153
10237POPC   GL266326  39.269  16.652   6.153
10237POPC   C1A66327  39.195  16.725   6.453
10237POPC   D2A66328  39.273  16.708   6.753
10237POPC   C3A66329  39.275  16.700   7.053
10237POPC   C4A66330  39.254  16.731   7.353
10237POPC   C1B66331  39.214  16.485   6.453
10237POPC   C2B66332  39.240  16.459   6.753
10237POPC   C3B66333  39.280  16.495   7.053
10237POPC   C4B66334  39.245  16.459   7.353
10238POPC   NC366335  39.207   8.188   5.553
10238POPC   PO466336  39.248   8.238   5.853
10238POPC   GL166337  39.194   8.152   6.153
10238POPC   GL266338  39.087   8.131   6.153
10238POPC   C1A66339  39.244   8.193   6.453
10238POPC   D2A66340  39.267   8.195   6.753
10238POPC   C3A66341  39.209   8.203   7.053
10238POPC   C4A66342  39.276   8.193   7.353
10238POPC   C1B66343  39.036   8.109   6.453
10238POPC   C2B66344  38.977   8.166   6.753
10238POPC   C3B66345  39.004   8.116   7.053
10238POPC   C4B66346  38.944   8.172   7.353
10239POPC   NC366347  19.798  20.588   5.553
10239POPC   PO466348  19.872  20.578   5.853
10239POPC   GL166349  19.786  20.609   6.153
10239POPC   GL266350  19.963  20.588   6.153
10239POPC   C1A66351  19.786  20.639   6.453
10239POPC   D2A66352  19.819  20.620   6.753
10239POPC   C3A66353  19.822  20.592   7.053
10239POPC   C4A66354  19.819  20.613   7.353
10239POPC   C1B66355  20.106  20.522   6.453
10239POPC   C2B66356  20.074  20.512   6.753
10239POPC   C3B66357  20.053  20.576   7.053
10239POPC   C4B66358  20.087  20.496   7.353
10240POPC   NC366359  20.608   3.522   5.553
10240POPC   PO466360  20.602   3.549   5.853
10240POPC   GL166361  20.600   3.585   6.153
10240POPC   GL266362  20.736   3.591   6.153
10240POPC   C1A66363  20.652   3.566   6.453
10240POPC   D2A66364  20.600   3.502   6.753
10240POPC   C3A66365  20.654   3.568   7.053
10240POPC   C4A66366  20.602   3.530   7.353
10240POPC   C1B66367  20.796   3.686   6.453
10240POPC   C2B66368  20.841   3.605   6.753
10240POPC   C3B66369  20.842   3.684   7.053
10240POPC   C4B66370  20.833   3.638   7.353
10241POPC   NC366371  12.846  33.835   5.553
10241POPC   PO466372  12.803  33.769   5.853
10241POPC   GL166373  12.857  33.846   6.153
10241POPC   GL266374  12.963  33.852   6.153
10241POPC   C1A66375  12.814  33.765   6.453
10241POPC   D2A66376  12.822  33.821   6.753
10241POPC   C3A66377  12.871  33.799   7.053
10241POPC   C4A66378  12.867  33.755   7.353
10241POPC   C1B66379  13.049  33.961   6.453
10241POPC   C2B66380  13.040  33.910   6.753
10241POPC   C3B66381  13.068  33.928   7.053
10241POPC   C4B66382  13.033  33.891   7.353
10242POPC   NC366383  25.249  11.334   5.553
10242POPC   PO466384  25.216  11.346   5.853
10242POPC   GL166385  25.298  11.266   6.153
10242POPC   GL266386  25.173  11.210   6.153
10242POPC   C1A66387  25.276  11.261   6.453
10242POPC   D2A66388  25.284  11.294   6.753
10242POPC   C3A66389  25.269  11.278   7.053
10242POPC   C4A66390  25.246  11.251   7.353
10242POPC   C1B66391  25.087  11.120   6.453
10242POPC   C2B66392  25.175  11.117   6.753
10242POPC   C3B66393  25.143  11.080   7.053
10242POPC   C4B66394  25.113  11.064   7.353
10243POPC   NC366395  29.131  22.928   5.553
10243POPC   PO466396  29.131  22.922   5.853
10243POPC   GL166397  29.122  22.943   6.153
10243POPC   GL266398  29.274  23.048   6.153
10243POPC   C1A66399  29.123  22.931   6.453
10243POPC   D2A66400  29.102  22.927   6.753
10243POPC   C3A66401  29.105  22.978   7.053
10243POPC   C4A66402  29.195  22.898   7.353
10243POPC   C1B66403  29.375  23.151   6.453
10243POPC   C2B66404  29.378  23.130   6.753
10243POPC   C3B66405  29.328  23.149   7.053
10243POPC   C4B66406  29.381  23.120   7.353
10244POPC   NC366407  35.344  37.670   5.553
10244POPC   PO466408  35.324  37.666   5.853
10244POPC   GL166409  35.401  37.654   6.153
10244POPC   GL266410  35.362  37.538   6.153
10244POPC   C1A66411  35.356  37.697   6.453
10244POPC   D2A66412  35.309  37.671   6.753
10244POPC   C3A66413  35.308  37.644   7.053
10244POPC   C4A66414  35.395  37.676   7.353
10244POPC   C1B66415  35.375  37.405   6.453
10244POPC   C2B66416  35.426  37.437   6.753
10244POPC   C3B66417  35.397  37.407   7.053
10244POPC   C4B66418  35.412  37.397   7.353
10245POPC   NC366419  37.723   1.944   5.553
10245POPC   PO466420  37.669   1.984   5.853
10245POPC   GL166421  37.647   2.030   6.153
10245POPC   GL266422  37.571   1.998   6.153
10245POPC   C1A66423  37.709   1.992   6.453
10245POPC   D2A66424  37.705   1.997   6.753
10245POPC   C3A66425  37.632   1.958   7.053
10245POPC   C4A66426  37.630   2.029   7.353
10245POPC   C1B66427  37.465   1.970   6.453
10245POPC   C2B66428  37.390   1.913   6.753
10245POPC   C3B66429  37.443   1.908   7.053
10245POPC   C4B66430  37.411   1.981   7.353
10246POPC   NC366431  44.619  44.628   5.553
10246POPC   PO466432  44.631  44.705   5.853
10246POPC   GL166433  44.636  44.647   6.153
10246POPC   GL266434  44.596  44.585   6.153
10246POPC   C1A66435  44.618  44.705   6.453
10246POPC   D2A66436  44.642  44.654   6.753
10246POPC   C3A66437  44.673  44.674   7.053
10246POPC   C4A66438  44.695  44.615   7.353
10246POPC   C1B66439  44.497  44.495   6.453
10246POPC   C2B66440  44.448  44.483   6.753
10246POPC   C3B66441  44.440  44.462   7.053
10246POPC   C4B66442  44.470  44.506   7.353
10247POPC   NC366443  27.629   5.853   5.553
10247POPC   PO466444  27.642   5.832   5.853
10247POPC   GL166445  27.621   5.915   6.153
10247POPC   GL266446  27.749   5.834   6.153
10247POPC   C1A66447  27.630   5.826   6.453
10247POPC   D2A66448  27.615   5.845   6.753
10247POPC   C3A66449  27.552   5.821   7.053
10247POPC   C4A66450  27.586   5.845   7.353
10247POPC   C1B66451  27.824   5.878   6.453
10247POPC   C2B66452  27.806   5.834   6.753
10247POPC   C3B66453  27.881   5.832   7.053
10247POPC   C4B66454  27.835   5.848   7.353
10248POPC   NC366455  30.672   9.016   5.553
10248POPC   PO466456  30.744   9.002   5.853
10248POPC   GL166457  30.728   9.013   6.153
10248POPC   GL266458  30.704   8.821   6.153
10248POPC   C1A66459  30.704   9.000   6.453
10248POPC   D2A66460  30.698   9.009   6.753
10248POPC   C3A66461  30.739   9.007   7.053
10248POPC   C4A66462  30.660   8.947   7.353
10248POPC   C1B66463  30.744   8.697   6.453
10248POPC   C2B66464  30.716   8.709   6.753
10248POPC   C3B66465  30.667   8.706   7.053
10248POPC   C4B66466  30.700   8.699   7.353
10249POPC   NC366467   1.974   2.036   5.553
10249POPC   PO466468   1.987   2.003   5.853
10249POPC   GL166469   2.009   1.977   6.153
10249POPC   GL266470   1.834   1.941   6.153
10249POPC   C1A66471   2.025   1.991   6.453
10249POPC   D2A66472   2.033   2.002   6.753
10249POPC   C3A66473   1.992   1.943   7.053
10249POPC   C4A66474   1.978   2.018   7.353
10249POPC   C1B66475   1.739   1.989   6.453
10249POPC   C2B66476   1.729   1.998   6.753
10249POPC   C3B66477   1.737   1.984   7.053
10249POPC   C4B66478   1.780   2.012   7.353
10250POPC   NC366479  19.884  18.260   5.553
10250POPC   PO466480  19.788  18.270   5.853
10250POPC   GL166481  19.794  18.288   6.153
10250POPC   GL266482  19.743  18.311   6.153
10250POPC   C1A66483  19.803  18.290   6.453
10250POPC   D2A66484  19.821  18.246   6.753
10250POPC   C3A66485  19.805  18.291   7.053
10250POPC   C4A66486  19.787  18.293   7.353
10250POPC   C1B66487  19.587  18.356   6.453
10250POPC   C2B66488  19.582  18.363   6.753
10250POPC   C3B66489  19.597  18.442   7.053
10250POPC   C4B66490  19.636  18.383   7.353
10251POPC   NC366491  26.845  14.393   5.553
10251POPC   PO466492  26.789  14.395   5.853
10251POPC   GL166493  26.777  14.362   6.153
10251POPC   GL266494  26.791  14.542   6.153
10251POPC   C1A66495  26.811  14.422   6.453
10251POPC   D2A66496  26.809  14.362   6.753
10251POPC   C3A66497  26.839  14.419   7.053
10251POPC   C4A66498  26.785  14.452   7.353
10251POPC   C1B66499  26.684  14.605   6.453
10251POPC   C2B66500  26.656  14.628   6.753
10251POPC   C3B66501  26.653  14.562   7.053
10251POPC   C4B66502  26.676  14.638   7.353
10252POPC   NC366503  16.765  23.721   5.553
10252POPC   PO466504  16.694  23.677   5.853
10252POPC   GL166505  16.683  23.666   6.153
10252POPC   GL266506  16.873  23.779   6.153
10252POPC   C1A66507  16.775  23.756   6.453
10252POPC   D2A66508  16.696  23.671   6.753
10252POPC   C3A66509  16.701  23.750   7.053
10252POPC   C4A66510  16.688  23.735   7.353
10252POPC   C1B66511  16.925  23.881   6.453
10252POPC   C2B66512  16.941  23.816   6.753
10252POPC   C3B66513  16.941  23.882   7.053
10252POPC   C4B66514  16.958  23.824   7.353
10253POPC   NC366515  10.559   0.460   5.553
10253POPC   PO466516  10.522   0.460   5.853
10253POPC   GL166517  10.516   0.420   6.153
10253POPC   GL266518  10.638   0.454   6.153
10253POPC   C1A66519  10.534   0.390   6.453
10253POPC   D2A66520  10.474   0.404   6.753
10253POPC   C3A66521  10.483   0.478   7.053
10253POPC   C4A66522  10.535   0.456   7.353
10253POPC   C1B66523  10.711   0.525   6.453
10253POPC   C2B66524  10.803   0.490   6.753
10253POPC   C3B66525  10.799   0.511   7.053
10253POPC   C4B66526  10.781   0.568   7.353
10254POPC   NC366527   8.964  29.936   5.553
10254POPC   PO466528   8.953  29.916   5.853
10254POPC   GL166529   8.984  29.931   6.153
10254POPC   GL266530   9.026  29.751   6.153
10254POPC   C1A66531   8.986  29.933   6.453
10254POPC   D2A66532   9.014  29.940   6.753
10254POPC   C3A66533   8.926  29.922   7.053
10254POPC   C4A66534   8.972  29.925   7.353
10254POPC   C1B66535   9.068  29.638   6.453
10254POPC   C2B66536   9.001  29.673   6.753
10254POPC   C3B66537   9.070  29.717   7.053
10254POPC   C4B66538   8.997  29.723   7.353
10255POPC   NC366539  33.837  36.891   5.553
10255POPC   PO466540  33.760  36.857   5.853
10255POPC   GL166541  33.813  36.857   6.153
10255POPC   GL266542  33.790  36.780   6.153
10255POPC   C1A66543  33.752  36.910   6.453
10255POPC   D2A66544  33.782  36.918   6.753
10255POPC   C3A66545  33.843  36.862   7.053
10255POPC   C4A66546  33.768  36.857   7.353
10255POPC   C1B66547  33.748  36.636   6.453
10255POPC   C2B66548  33.746  36.625   6.753
10255POPC   C3B66549  33.774  36.661   7.053
10255POPC   C4B66550  33.715  36.642   7.353
10256POPC   NC366551  43.115  32.279   5.553
10256POPC   PO466552  43.148  32.296   5.853
10256POPC   GL166553  43.143  32.215   6.153
10256POPC   GL266554  43.054  32.159   6.153
10256POPC   C1A66555  43.090  32.213   6.453
10256POPC   D2A66556  43.095  32.286   6.753
10256POPC   C3A66557  43.147  32.248   7.053
10256POPC   C4A66558  43.072  32.236   7.353
10256POPC   C1B66559  42.949  32.077   6.453
10256POPC   C2B66560  42.941  32.028   6.753
10256POPC   C3B66561  42.996  32.075   7.053
10256POPC   C4B66562  42.997  32.034   7.353
10257POPC   NC366563  26.846   0.429   5.553
10257POPC   PO466564  26.842   0.422   5.853
10257POPC   GL166565  26.783   0.419   6.153
10257POPC   GL266566  26.737   0.578   6.153
10257POPC   C1A66567  26.807   0.411   6.453
10257POPC   D2A66568  26.865   0.460   6.753
10257POPC   C3A66569  26.858   0.468   7.053
10257POPC   C4A66570  26.811   0.432   7.353
10257POPC   C1B66571  26.693   0.612   6.453
10257POPC   C2B66572  26.670   0.681   6.753
10257POPC   C3B66573  26.643   0.586   7.053
10257POPC   C4B66574  26.616   0.650   7.353
10258POPC   NC366575   8.202   8.219   5.553
10258POPC   PO466576   8.244   8.168   5.853
10258POPC   GL166577   8.204   8.222   6.153
10258POPC   GL266578   8.105   8.169   6.153
10258POPC   C1A66579   8.195   8.210   6.453
10258POPC   D2A66580   8.163   8.229   6.753
10258POPC   C3A66581   8.168   8.164   7.053
10258POPC   C4A66582   8.221   8.182   7.353
10258POPC   C1B66583   7.982   8.117   6.453
10258POPC   C2B66584   7.940   8.088   6.753
10258POPC   C3B66585   7.991   8.115   7.053
10258POPC   C4B66586   7.995   8.064   7.353
10259POPC   NC366587  34.581  29.143   5.553
10259POPC   PO466588  34.619  29.109   5.853
10259POPC   GL166589  34.562  29.131   6.153
10259POPC   GL266590  34.547  29.046   6.153
10259POPC   C1A66591  34.591  29.165   6.453
10259POPC   D2A66592  34.625  29.166   6.753
10259POPC   C3A66593  34.591  29.104   7.053
10259POPC   C4A66594  34.556  29.116   7.353
10259POPC   C1B66595  34.522  28.878   6.453
10259POPC   C2B66596  34.592  28.849   6.753
10259POPC   C3B66597  34.562  28.881   7.053
10259POPC   C4B66598  34.598  28.852   7.353
10260POPC   NC366599  14.358  23.687   5.553
10260POPC   PO466600  14.407  23.679   5.853
10260POPC   GL166601  14.430  23.764   6.153
10260POPC   GL266602  14.343  23.614   6.153
10260POPC   C1A66603  14.367  23.686   6.453
10260POPC   D2A66604  14.361  23.736   6.753
10260POPC   C3A66605  14.449  23.703   7.053
10260POPC   C4A66606  14.380  23.666   7.353
10260POPC   C1B66607  14.362  23.449   6.453
10260POPC   C2B66608  14.351  23.499   6.753
10260POPC   C3B66609  14.353  23.487   7.053
10260POPC   C4B66610  14.385  23.507   7.353
10261POPC   NC366611   0.438  22.122   5.553
10261POPC   PO466612   0.460  22.173   5.853
10261POPC   GL166613   0.453  22.144   6.153
10261POPC   GL266614   0.369  22.080   6.153
10261POPC   C1A66615   0.441  22.149   6.453
10261POPC   D2A66616   0.431  22.205   6.753
10261POPC   C3A66617   0.459  22.184   7.053
10261POPC   C4A66618   0.420  22.175   7.353
10261POPC   C1B66619   0.286  21.947   6.453
10261POPC   C2B66620   0.305  22.035   6.753
10261POPC   C3B66621   0.289  22.020   7.053
10261POPC   C4B66622   0.240  21.999   7.353
10262POPC   NC366623  40.758  10.565   5.553
10262POPC   PO466624  40.751  10.532   5.853
10262POPC   GL166625  40.777  10.549   6.153
10262POPC   GL266626  40.716  10.590   6.153
10262POPC   C1A66627  40.792  10.549   6.453
10262POPC   D2A66628  40.792  10.483   6.753
10262POPC   C3A66629  40.746  10.495   7.053
10262POPC   C4A66630  40.736  10.512   7.353
10262POPC   C1B66631  40.600  10.634   6.453
10262POPC   C2B66632  40.604  10.696   6.753
10262POPC   C3B66633  40.565  10.630   7.053
10262POPC   C4B66634  40.530  10.657   7.353
10263POPC   NC366635  27.563  32.243   5.553
10263POPC   PO466636  27.568  32.252   5.853
10263POPC   GL166637  27.594  32.281   6.153
10263POPC   GL266638  27.667  32.113   6.153
10263POPC   C1A66639  27.578  32.251   6.453
10263POPC   D2A66640  27.615  32.260   6.753
10263POPC   C3A66641  27.632  32.201   7.053
10263POPC   C4A66642  27.570  32.282   7.353
10263POPC   C1B66643  27.705  32.061   6.453
10263POPC   C2B66644  27.683  32.032   6.753
10263POPC   C3B66645  27.681  31.984   7.053
10263POPC   C4B66646  27.695  32.060   7.353
10264POPC   NC366647  25.222  12.809   5.553
10264POPC   PO466648  25.259  12.877   5.853
10264POPC   GL166649  25.239  12.846   6.153
10264POPC   GL266650  25.245  12.972   6.153
10264POPC   C1A66651  25.307  12.873   6.453
10264POPC   D2A66652  25.250  12.812   6.753
10264POPC   C3A66653  25.247  12.884   7.053
10264POPC   C4A66654  25.263  12.863   7.353
10264POPC   C1B66655  25.292  13.062   6.453
10264POPC   C2B66656  25.295  13.068   6.753
10264POPC   C3B66657  25.339  13.067   7.053
10264POPC   C4B66658  25.310  13.111   7.353
10265POPC   NC366659  16.738   5.864   5.553
10265POPC   PO466660  16.699   5.827   5.853
10265POPC   GL166661  16.746   5.831   6.153
10265POPC   GL266662  16.752   5.753   6.153
10265POPC   C1A66663  16.708   5.863   6.453
10265POPC   D2A66664  16.743   5.913   6.753
10265POPC   C3A66665  16.694   5.834   7.053
10265POPC   C4A66666  16.745   5.890   7.353
10265POPC   C1B66667  16.691   5.599   6.453
10265POPC   C2B66668  16.717   5.573   6.753
10265POPC   C3B66669  16.659   5.620   7.053
10265POPC   C4B66670  16.707   5.611   7.353
10266POPC   NC366671  32.982  35.345   5.553
10266POPC   PO466672  33.074  35.305   5.853
10266POPC   GL166673  32.975  35.360   6.153
10266POPC   GL266674  33.068  35.222   6.153
10266POPC   C1A66675  33.068  35.315   6.453
10266POPC   D2A66676  32.979  35.324   6.753
10266POPC   C3A66677  32.998  35.310   7.053
10266POPC   C4A66678  33.010  35.314   7.353
10266POPC   C1B66679  33.086  35.102   6.453
10266POPC   C2B66680  33.034  35.129   6.753
10266POPC   C3B66681  33.124  35.065   7.053
10266POPC   C4B66682  33.047  35.064   7.353
10267POPC   NC366683  32.293  44.660   5.553
10267POPC   PO466684  32.203  44.695   5.853
10267POPC   GL166685  32.251  44.639   6.153
10267POPC   GL266686  32.331  44.798   6.153
10267POPC   C1A66687  32.228  44.686   6.453
10267POPC   D2A66688  32.287  44.627   6.753
10267POPC   C3A66689  32.290  44.691   7.053
10267POPC   C4A66690  32.220  44.672   7.353
10267POPC   C1B66691  32.464  44.834   6.453
10267POPC   C2B66692  32.397  44.795   6.753
10267POPC   C3B66693  32.419  44.855   7.053
10267POPC   C4B66694  32.390  44.825   7.353
10268POPC   NC366695  26.019  20.644   5.553
10268POPC   PO466696  26.077  20.599   5.853
10268POPC   GL166697  26.002  20.648   6.153
10268POPC   GL266698  25.988  20.712   6.153
10268POPC   C1A66699  26.069  20.569   6.453
10268POPC   D2A66700  26.071  20.647   6.753
10268POPC   C3A66701  26.047  20.605   7.053
10268POPC   C4A66702  26.053  20.633   7.353
10268POPC   C1B66703  26.006  20.864   6.453
10268POPC   C2B66704  25.948  20.846   6.753
10268POPC   C3B66705  25.978  20.904   7.053
10268POPC   C4B66706  26.000  20.825   7.353
10269POPC   NC366707  39.975  35.369   5.553
10269POPC   PO466708  39.960  35.365   5.853
10269POPC   GL166709  39.968  35.309   6.153
10269POPC   GL266710  39.946  35.232   6.153
10269POPC   C1A66711  40.000  35.339   6.453
10269POPC   D2A66712  40.019  35.370   6.753
10269POPC   C3A66713  39.984  35.313   7.053
10269POPC   C4A66714  40.011  35.302   7.353
10269POPC   C1B66715  39.985  35.068   6.453
10269POPC   C2B66716  39.909  35.099   6.753
10269POPC   C3B66717  39.955  35.116   7.053
10269POPC   C4B66718  39.968  35.123   7.353
10270POPC   NC366719  26.041   7.410   5.553
10270POPC   PO466720  26.076   7.458   5.853
10270POPC   GL166721  26.042   7.422   6.153
10270POPC   GL266722  26.062   7.507   6.153
10270POPC   C1A66723  26.087   7.431   6.453
10270POPC   D2A66724  26.020   7.419   6.753
10270POPC   C3A66725  25.995   7.372   7.053
10270POPC   C4A66726  26.008   7.406   7.353
10270POPC   C1B66727  26.082   7.678   6.453
10270POPC   C2B66728  26.040   7.653   6.753
10270POPC   C3B66729  26.062   7.660   7.053
10270POPC   C4B66730  26.011   7.624   7.353
10271POPC   NC366731   8.976  20.608   5.553
10271POPC   PO466732   9.021  20.647   5.853
10271POPC   GL166733   8.982  20.593   6.153
10271POPC   GL266734   8.971  20.518   6.153
10271POPC   C1A66735   8.952  20.633   6.453
10271POPC   D2A66736   8.928  20.581   6.753
10271POPC   C3A66737   8.957  20.592   7.053
10271POPC   C4A66738   8.955  20.597   7.353
10271POPC   C1B66739   9.093  20.358   6.453
10271POPC   C2B66740   9.082  20.368   6.753
10271POPC   C3B66741   9.089  20.404   7.053
10271POPC   C4B66742   9.009  20.395   7.353
10272POPC   NC366743   7.399  43.075   5.553
10272POPC   PO466744   7.457  43.108   5.853
10272POPC   GL166745   7.395  43.147   6.153
10272POPC   GL266746   7.425  43.256   6.153
10272POPC   C1A66747   7.372  43.076   6.453
10272POPC   D2A66748   7.439  43.121   6.753
10272POPC   C3A66749   7.452  43.117   7.053
10272POPC   C4A66750   7.376  43.113   7.353
10272POPC   C1B66751   7.291  43.395   6.453
10272POPC   C2B66752   7.349  43.348   6.753
10272POPC   C3B66753   7.338  43.374   7.053
10272POPC   C4B66754   7.356  43.338   7.353
10273POPC   NC366755  40.769   4.279   5.553
10273POPC   PO466756  40.800   4.332   5.853
10273POPC   GL166757  40.755   4.336   6.153
10273POPC   GL266758  40.838   4.233   6.153
10273POPC   C1A66759  40.739   4.325   6.453
10273POPC   D2A66760  40.789   4.311   6.753
10273POPC   C3A66761  40.813   4.366   7.053
10273POPC   C4A66762  40.808   4.268   7.353
10273POPC   C1B66763  40.871   4.073   6.453
10273POPC   C2B66764  40.810   4.094   6.753
10273POPC   C3B66765  40.782   4.099   7.053
10273POPC   C4B66766  40.781   4.048   7.353
10274POPC   NC366767  29.099  32.268   5.553
10274POPC   PO466768  29.156  32.205   5.853
10274POPC   GL166769  29.101  32.218   6.153
10274POPC   GL266770  29.122  32.382   6.153
10274POPC   C1A66771  29.124  32.208   6.453
10274POPC   D2A66772  29.106  32.295   6.753
10274POPC   C3A66773  29.100  32.214   7.053
10274POPC   C4A66774  29.147  32.202   7.353
10274POPC   C1B66775  29.108  32.475   6.453
10274POPC   C2B66776  29.056  32.444   6.753
10274POPC   C3B66777  29.061  32.437   7.053
10274POPC   C4B66778  29.031  32.442   7.353
10275POPC   NC366779  19.791  44.693   5.553
10275POPC   PO466780  19.806  44.667   5.853
10275POPC   GL166781  19.882  44.662   6.153
10275POPC   GL266782  19.967  44.736   6.153
10275POPC   C1A66783  19.837  44.698   6.453
10275POPC   D2A66784  19.810  44.671   6.753
10275POPC   C3A66785  19.871  44.635   7.053
10275POPC   C4A66786  19.884  44.709   7.353
10275POPC   C1B66787  20.059  44.850   6.453
10275POPC   C2B66788  20.019  44.833   6.753
10275POPC   C3B66789  20.043  44.801   7.053
10275POPC   C4B66790  20.062  44.873   7.353
10276POPC   NC366791   1.225   5.090   5.553
10276POPC   PO466792   1.262   5.128   5.853
10276POPC   GL166793   1.224   5.132   6.153
10276POPC   GL266794   1.318   5.157   6.153
10276POPC   C1A66795   1.254   5.050   6.453
10276POPC   D2A66796   1.243   5.057   6.753
10276POPC   C3A66797   1.183   5.073   7.053
10276POPC   C4A66798   1.223   5.127   7.353
10276POPC   C1B66799   1.360   5.269   6.453
10276POPC   C2B66800   1.358   5.304   6.753
10276POPC   C3B66801   1.317   5.333   7.053
10276POPC   C4B66802   1.308   5.315   7.353
10277POPC   NC366803   5.890   5.060   5.553
10277POPC   PO466804   5.891   5.073   5.853
10277POPC   GL166805   5.840   5.094   6.153
10277POPC   GL266806   5.737   5.014   6.153
10277POPC   C1A66807   5.847   5.093   6.453
10277POPC   D2A66808   5.857   5.112   6.753
10277POPC   C3A66809   5.844   5.083   7.053
10277POPC   C4A66810   5.881   5.051   7.353
10277POPC   C1B66811   5.640   4.880   6.453
10277POPC   C2B66812   5.637   4.891   6.753
10277POPC   C3B66813   5.638   4.922   7.053
10277POPC   C4B66814   5.689   4.906   7.353
10278POPC   NC366815   3.584  19.838   5.553
10278POPC   PO466816   3.558  19.836   5.853
10278POPC   GL166817   3.502  19.800   6.153
10278POPC   GL266818   3.633  19.750   6.153
10278POPC   C1A66819   3.556  19.818   6.453
10278POPC   D2A66820   3.584  19.876   6.753
10278POPC   C3A66821   3.583  19.824   7.053
10278POPC   C4A66822   3.519  19.877   7.353
10278POPC   C1B66823   3.727  19.601   6.453
10278POPC   C2B66824   3.664  19.610   6.753
10278POPC   C3B66825   3.636  19.599   7.053
10278POPC   C4B66826   3.690  19.599   7.353
10279POPC   NC366827  11.255  13.662   5.553
10279POPC   PO466828  11.331  13.628   5.853
10279POPC   GL166829  11.348  13.650   6.153
10279POPC   GL266830  11.342  13.726   6.153
10279POPC   C1A66831  11.256  13.635   6.453
10279POPC   D2A66832  11.326  13.641   6.753
10279POPC   C3A66833  11.348  13.659   7.053
10279POPC   C4A66834  11.293  13.667   7.353
10279POPC   C1B66835  11.368  13.881   6.453
10279POPC   C2B66836  11.411  13.864   6.753
10279POPC   C3B66837  11.443  13.878   7.053
10279POPC   C4B66838  11.417  13.895   7.353
10280POPC   NC366839  13.586  26.086   5.553
10280POPC   PO466840  13.660  26.000   5.853
10280POPC   GL166841  13.641  25.997   6.153
10280POPC   GL266842  13.770  26.024   6.153
10280POPC   C1A66843  13.619  26.055   6.453
10280POPC   D2A66844  13.649  26.026   6.753
10280POPC   C3A66845  13.656  26.063   7.053
10280POPC   C4A66846  13.583  26.064   7.353
10280POPC   C1B66847  13.866  26.083   6.453
10280POPC   C2B66848  13.900  26.086   6.753
10280POPC   C3B66849  13.854  26.091   7.053
10280POPC   C4B66850  13.865  26.098   7.353
10281POPC   NC366851   8.930  27.637   5.553
10281POPC   PO466852   8.928  27.612   5.853
10281POPC   GL166853   8.958  27.556   6.153
10281POPC   GL266854   9.050  27.547   6.153
10281POPC   C1A66855   8.967  27.633   6.453
10281POPC   D2A66856   8.961  27.547   6.753
10281POPC   C3A66857   8.989  27.547   7.053
10281POPC   C4A66858   8.943  27.563   7.353
10281POPC   C1B66859   9.183  27.453   6.453
10281POPC   C2B66860   9.187  27.420   6.753
10281POPC   C3B66861   9.162  27.373   7.053
10281POPC   C4B66862   9.176  27.411   7.353
10282POPC   NC366863  26.045  15.131   5.553
10282POPC   PO466864  26.022  15.138   5.853
10282POPC   GL166865  26.073  15.192   6.153
10282POPC   GL266866  26.146  15.074   6.153
10282POPC   C1A66867  26.062  15.156   6.453
10282POPC   D2A66868  26.062  15.211   6.753
10282POPC   C3A66869  26.002  15.214   7.053
10282POPC   C4A66870  26.074  15.175   7.353
10282POPC   C1B66871  26.271  15.051   6.453
10282POPC   C2B66872  26.285  15.074   6.753
10282POPC   C3B66873  26.216  15.008   7.053
10282POPC   C4B66874  26.280  14.981   7.353
10283POPC   NC366875   7.422  26.795   5.553
10283POPC   PO466876   7.379  26.777   5.853
10283POPC   GL166877   7.436  26.855   6.153
10283POPC   GL266878   7.282  26.845   6.153
10283POPC   C1A66879   7.468  26.812   6.453
10283POPC   D2A66880   7.419  26.860   6.753
10283POPC   C3A66881   7.462  26.813   7.053
10283POPC   C4A66882   7.441  26.846   7.353
10283POPC   C1B66883   7.140  26.852   6.453
10283POPC   C2B66884   7.160  26.812   6.753
10283POPC   C3B66885   7.218  26.817   7.053
10283POPC   C4B66886   7.186  26.850   7.353
10284POPC   NC366887  22.146  21.380   5.553
10284POPC   PO466888  22.140  21.416   5.853
10284POPC   GL166889  22.133  21.428   6.153
10284POPC   GL266890  22.231  21.487   6.153
10284POPC   C1A66891  22.149  21.366   6.453
10284POPC   D2A66892  22.142  21.402   6.753
10284POPC   C3A66893  22.165  21.377   7.053
10284POPC   C4A66894  22.180  21.343   7.353
10284POPC   C1B66895  22.348  21.535   6.453
10284POPC   C2B66896  22.320  21.612   6.753
10284POPC   C3B66897  22.266  21.570   7.053
10284POPC   C4B66898  22.307  21.624   7.353
10285POPC   NC366899  28.409   0.392   5.553
10285POPC   PO466900  28.367   0.431   5.853
10285POPC   GL166901  28.363   0.477   6.153
10285POPC   GL266902  28.444   0.524   6.153
10285POPC   C1A66903  28.349   0.423   6.453
10285POPC   D2A66904  28.366   0.389   6.753
10285POPC   C3A66905  28.344   0.459   7.053
10285POPC   C4A66906  28.409   0.427   7.353
10285POPC   C1B66907  28.475   0.668   6.453
10285POPC   C2B66908  28.551   0.599   6.753
10285POPC   C3B66909  28.491   0.642   7.053
10285POPC   C4B66910  28.563   0.609   7.353
10286POPC   NC366911  15.218  30.733   5.553
10286POPC   PO466912  15.160  30.724   5.853
10286POPC   GL166913  15.150  30.744   6.153
10286POPC   GL266914  15.218  30.570   6.153
10286POPC   C1A66915  15.221  30.663   6.453
10286POPC   D2A66916  15.197  30.689   6.753
10286POPC   C3A66917  15.153  30.647   7.053
10286POPC   C4A66918  15.226  30.714   7.353
10286POPC   C1B66919  15.168  30.487   6.453
10286POPC   C2B66920  15.111  30.472   6.753
10286POPC   C3B66921  15.160  30.437   7.053
10286POPC   C4B66922  15.125  30.422   7.353
10287POPC   NC366923  29.961   1.253   5.553
10287POPC   PO466924  29.944   1.254   5.853
10287POPC   GL166925  29.886   1.225   6.153
10287POPC   GL266926  30.017   1.247   6.153
10287POPC   C1A66927  29.883   1.221   6.453
10287POPC   D2A66928  29.898   1.181   6.753
10287POPC   C3A66929  29.954   1.259   7.053
10287POPC   C4A66930  29.890   1.204   7.353
10287POPC   C1B66931  30.079   1.397   6.453
10287POPC   C2B66932  30.125   1.381   6.753
10287POPC   C3B66933  30.090   1.384   7.053
10287POPC   C4B66934  30.143   1.400   7.353
10288POPC   NC366935  14.426  26.781   5.553
10288POPC   PO466936  14.374  26.836   5.853
10288POPC   GL166937  14.398  26.800   6.153
10288POPC   GL266938  14.323  26.711   6.153
10288POPC   C1A66939  14.440  26.862   6.453
10288POPC   D2A66940  14.369  26.818   6.753
10288POPC   C3A66941  14.449  26.856   7.053
10288POPC   C4A66942  14.433  26.819   7.353
10288POPC   C1B66943  14.243  26.587   6.453
10288POPC   C2B66944  14.276  26.624   6.753
10288POPC   C3B66945  14.198  26.588   7.053
10288POPC   C4B66946  14.191  26.656   7.353
10289POPC   NC366947  24.532   7.436   5.553
10289POPC   PO466948  24.467   7.435   5.853
10289POPC   GL166949  24.480   7.383   6.153
10289POPC   GL266950  24.349   7.339   6.153
10289POPC   C1A66951  24.473   7.372   6.453
10289POPC   D2A66952  24.491   7.467   6.753
10289POPC   C3A66953  24.509   7.440   7.053
10289POPC   C4A66954  24.487   7.374   7.353
10289POPC   C1B66955  24.310   7.235   6.453
10289POPC   C2B66956  24.271   7.282   6.753
10289POPC   C3B66957  24.301   7.256   7.053
10289POPC   C4B66958  24.305   7.263   7.353
10290POPC   NC366959  22.980  13.634   5.553
10290POPC   PO466960  22.919  13.677   5.853
10290POPC   GL166961  22.923  13.640   6.153
10290POPC   GL266962  23.028  13.675   6.153
10290POPC   C1A66963  22.907  13.657   6.453
10290POPC   D2A66964  22.910  13.655   6.753
10290POPC   C3A66965  22.945  13.627   7.053
10290POPC   C4A66966  22.935  13.663   7.353
10290POPC   C1B66967  23.210  13.603   6.453
10290POPC   C2B66968  23.194  13.646   6.753
10290POPC   C3B66969  23.162  13.690   7.053
10290POPC   C4B66970  23.228  13.649   7.353
10291POPC   NC366971  27.641  37.728   5.553
10291POPC   PO466972  27.596  37.653   5.853
10291POPC   GL166973  27.544  37.680   6.153
10291POPC   GL266974  27.680  37.761   6.153
10291POPC   C1A66975  27.614  37.710   6.453
10291POPC   D2A66976  27.548  37.726   6.753
10291POPC   C3A66977  27.578  37.642   7.053
10291POPC   C4A66978  27.577  37.671   7.353
10291POPC   C1B66979  27.765  37.804   6.453
10291POPC   C2B66980  27.754  37.838   6.753
10291POPC   C3B66981  27.768  37.903   7.053
10291POPC   C4B66982  27.816  37.873   7.353
10292POPC   NC366983   3.588  43.862   5.553
10292POPC   PO466984   3.515  43.878   5.853
10292POPC   GL166985   3.508  43.934   6.153
10292POPC   GL266986   3.617  43.904   6.153
10292POPC   C1A66987   3.508  43.879   6.453
10292POPC   D2A66988   3.523  43.845   6.753
10292POPC   C3A66989   3.554  43.911   7.053
10292POPC   C4A66990   3.524  43.856   7.353
10292POPC   C1B66991   3.794  43.943   6.453
10292POPC   C2B66992   3.771  43.954   6.753
10292POPC   C3B66993   3.760  43.899   7.053
10292POPC   C4B66994   3.825  43.967   7.353
10293POPC   NC366995  39.255   9.784   5.553
10293POPC   PO466996  39.236   9.755   5.853
10293POPC   GL166997  39.279   9.703   6.153
10293POPC   GL266998  39.105   9.736   6.153
10293POPC   C1A66999  39.247   9.787   6.453
10293POPC   D2A67000  39.254   9.793   6.753
10293POPC   C3A67001  39.271   9.772   7.053
10293POPC   C4A67002  39.196   9.706   7.353
10293POPC   C1B67003  39.019   9.804   6.453
10293POPC   C2B67004  38.952   9.794   6.753
10293POPC   C3B67005  38.935   9.810   7.053
10293POPC   C4B67006  39.021   9.801   7.353
10294POPC   NC367007  16.712  25.278   5.553
10294POPC   PO467008  16.701  25.270   5.853
10294POPC   GL167009  16.733  25.310   6.153
10294POPC   GL267010  16.570  25.268   6.153
10294POPC   C1A67011  16.721  25.227   6.453
10294POPC   D2A67012  16.705  25.264   6.753
10294POPC   C3A67013  16.770  25.226   7.053
10294POPC   C4A67014  16.780  25.274   7.353
10294POPC   C1B67015  16.518  25.322   6.453
10294POPC   C2B67016  16.477  25.260   6.753
10294POPC   C3B67017  16.528  25.306   7.053
10294POPC   C4B67018  16.456  25.272   7.353
10295POPC   NC367019  43.862  31.484   5.553
10295POPC   PO467020  43.873  31.468   5.853
10295POPC   GL167021  43.840  31.461   6.153
10295POPC   GL267022  43.854  31.343   6.153
10295POPC   C1A67023  43.851  31.460   6.453
10295POPC   D2A67024  43.841  31.479   6.753
10295POPC   C3A67025  43.931  31.506   7.053
10295POPC   C4A67026  43.851  31.494   7.353
10295POPC   C1B67027  43.716  31.283   6.453
10295POPC   C2B67028  43.735  31.287   6.753
10295POPC   C3B67029  43.754  31.232   7.053
10295POPC   C4B67030  43.730  31.248   7.353
10296POPC   NC367031  10.521  33.796   5.553
10296POPC   PO467032  10.500  33.768   5.853
10296POPC   GL167033  10.541  33.799   6.153
10296POPC   GL267034  10.560  33.931   6.153
10296POPC   C1A67035  10.566  33.755   6.453
10296POPC   D2A67036  10.561  33.828   6.753
10296POPC   C3A67037  10.552  33.843   7.053
10296POPC   C4A67038  10.483  33.848   7.353
10296POPC   C1B67039  10.623  34.025   6.453
10296POPC   C2B67040  10.672  33.999   6.753
10296POPC   C3B67041  10.661  34.022   7.053
10296POPC   C4B67042  10.658  33.969   7.353
10297POPC   NC367043   8.244  11.308   5.553
10297POPC   PO467044   8.163  11.275   5.853
10297POPC   GL167045   8.184  11.286   6.153
10297POPC   GL267046   8.247  11.374   6.153
10297POPC   C1A67047   8.213  11.282   6.453
10297POPC   D2A67048   8.210  11.343   6.753
10297POPC   C3A67049   8.155  11.306   7.053
10297POPC   C4A67050   8.240  11.266   7.353
10297POPC   C1B67051   8.423  11.409   6.453
10297POPC   C2B67052   8.413  11.428   6.753
10297POPC   C3B67053   8.386  11.442   7.053
10297POPC   C4B67054   8.399  11.457   7.353
10298POPC   NC367055   6.687  40.057   5.553
10298POPC   PO467056   6.650  39.966   5.853
10298POPC   GL167057   6.639  40.034   6.153
10298POPC   GL267058   6.703  40.037   6.153
10298POPC   C1A67059   6.610  39.960   6.453
10298POPC   D2A67060   6.690  40.047   6.753
10298POPC   C3A67061   6.660  40.023   7.053
10298POPC   C4A67062   6.644  40.053   7.353
10298POPC   C1B67063   6.846  40.184   6.453
10298POPC   C2B67064   6.827  40.146   6.753
10298POPC   C3B67065   6.861  40.190   7.053
10298POPC   C4B67066   6.850  40.200   7.353
10299POPC   NC367067  29.915  26.828   5.553
10299POPC   PO467068  29.906  26.842   5.853
10299POPC   GL167069  29.930  26.786   6.153
10299POPC   GL267070  29.886  26.722   6.153
10299POPC   C1A67071  29.945  26.787   6.453
10299POPC   D2A67072  29.909  26.810   6.753
10299POPC   C3A67073  29.906  26.780   7.053
10299POPC   C4A67074  29.878  26.809   7.353
10299POPC   C1B67075  29.846  26.645   6.453
10299POPC   C2B67076  29.777  26.573   6.753
10299POPC   C3B67077  29.760  26.608   7.053
10299POPC   C4B67078  29.809  26.555   7.353
10300POPC   NC367079  39.265  36.153   5.553
10300POPC   PO467080  39.186  36.161   5.853
10300POPC   GL167081  39.256  36.082   6.153
10300POPC   GL267082  39.233  36.289   6.153
10300POPC   C1A67083  39.241  36.123   6.453
10300POPC   D2A67084  39.224  36.101   6.753
10300POPC   C3A67085  39.255  36.113   7.053
10300POPC   C4A67086  39.270  36.161   7.353
10300POPC   C1B67087  39.247  36.392   6.453
10300POPC   C2B67088  39.233  36.380   6.753
10300POPC   C3B67089  39.276  36.384   7.053
10300POPC   C4B67090  39.249  36.411   7.353
10301POPC   NC367091  26.027   6.658   5.553
10301POPC   PO467092  26.037   6.627   5.853
10301POPC   GL167093  26.035   6.658   6.153
10301POPC   GL267094  26.049   6.722   6.153
10301POPC   C1A67095  26.058   6.691   6.453
10301POPC   D2A67096  26.069   6.662   6.753
10301POPC   C3A67097  26.076   6.688   7.053
10301POPC   C4A67098  26.083   6.632   7.353
10301POPC   C1B67099  26.017   6.844   6.453
10301POPC   C2B67100  26.025   6.866   6.753
10301POPC   C3B67101  26.090   6.909   7.053
10301POPC   C4B67102  26.096   6.897   7.353
10302POPC   NC367103   1.957   5.848   5.553
10302POPC   PO467104   2.031   5.901   5.853
10302POPC   GL167105   1.960   5.824   6.153
10302POPC   GL267106   1.945   5.755   6.153
10302POPC   C1A67107   2.027   5.832   6.453
10302POPC   D2A67108   1.941   5.880   6.753
10302POPC   C3A67109   1.944   5.888   7.053
10302POPC   C4A67110   2.021   5.866   7.353
10302POPC   C1B67111   1.824   5.654   6.453
10302POPC   C2B67112   1.886   5.633   6.753
10302POPC   C3B67113   1.833   5.690   7.053
10302POPC   C4B67114   1.813   5.664   7.353
10303POPC   NC367115   7.447  43.918   5.553
10303POPC   PO467116   7.386  43.914   5.853
10303POPC   GL167117   7.377  43.898   6.153
10303POPC   GL267118   7.473  43.978   6.153
10303POPC   C1A67119   7.429  43.883   6.453
10303POPC   D2A67120   7.378  43.921   6.753
10303POPC   C3A67121   7.399  43.902   7.053
10303POPC   C4A67122   7.395  43.909   7.353
10303POPC   C1B67123   7.549  44.060   6.453
10303POPC   C2B67124   7.609  44.119   6.753
10303POPC   C3B67125   7.574  44.076   7.053
10303POPC   C4B67126   7.574  44.106   7.353
10304POPC   NC367127  31.440   8.987   5.553
10304POPC   PO467128  31.424   8.999   5.853
10304POPC   GL167129  31.509   8.986   6.153
10304POPC   GL267130  31.364   8.899   6.153
10304POPC   C1A67131  31.423   8.972   6.453
10304POPC   D2A67132  31.501   9.018   6.753
10304POPC   C3A67133  31.494   8.934   7.053
10304POPC   C4A67134  31.514   8.999   7.353
10304POPC   C1B67135  31.310   8.815   6.453
10304POPC   C2B67136  31.289   8.800   6.753
10304POPC   C3B67137  31.268   8.765   7.053
10304POPC   C4B67138  31.337   8.791   7.353
10305POPC   NC367139  19.871  19.832   5.553
10305POPC   PO467140  19.827  19.810   5.853
10305POPC   GL167141  19.846  19.785   6.153
10305POPC   GL267142  19.894  19.734   6.153
10305POPC   C1A67143  19.870  19.879   6.453
10305POPC   D2A67144  19.832  19.846   6.753
10305POPC   C3A67145  19.873  19.826   7.053
10305POPC   C4A67146  19.859  19.788   7.353
10305POPC   C1B67147  20.045  19.667   6.453
10305POPC   C2B67148  20.011  19.660   6.753
10305POPC   C3B67149  19.999  19.664   7.053
10305POPC   C4B67150  20.073  19.646   7.353
10306POPC   NC367151  40.001   1.213   5.553
10306POPC   PO467152  40.053   1.188   5.853
10306POPC   GL167153  40.020   1.259   6.153
10306POPC   GL267154  39.892   1.073   6.153
10306POPC   C1A67155  39.964   1.231   6.453
10306POPC   D2A67156  39.994   1.221   6.753
10306POPC   C3A67157  39.962   1.191   7.053
10306POPC   C4A67158  40.012   1.185   7.353
10306POPC   C1B67159  39.897   1.046   6.453
10306POPC   C2B67160  39.836   0.983   6.753
10306POPC   C3B67161  39.899   0.997   7.053
10306POPC   C4B67162  39.903   0.992   7.353
10307POPC   NC367163  21.430  26.054   5.553
10307POPC   PO467164  21.397  26.089   5.853
10307POPC   GL167165  21.423  26.018   6.153
10307POPC   GL267166  21.283  26.094   6.153
10307POPC   C1A67167  21.405  26.085   6.453
10307POPC   D2A67168  21.349  26.052   6.753
10307POPC   C3A67169  21.426  26.024   7.053
10307POPC   C4A67170  21.354  26.074   7.353
10307POPC   C1B67171  21.166  26.062   6.453
10307POPC   C2B67172  21.178  26.020   6.753
10307POPC   C3B67173  21.097  26.086   7.053
10307POPC   C4B67174  21.143  26.071   7.353
10308POPC   NC367175   0.462   3.543   5.553
10308POPC   PO467176   0.437   3.566   5.853
10308POPC   GL167177   0.404   3.509   6.153
10308POPC   GL267178   0.610   3.576   6.153
10308POPC   C1A67179   0.452   3.559   6.453
10308POPC   D2A67180   0.445   3.518   6.753
10308POPC   C3A67181   0.414   3.501   7.053
10308POPC   C4A67182   0.458   3.560   7.353
10308POPC   C1B67183   0.651   3.568   6.453
10308POPC   C2B67184   0.708   3.571   6.753
10308POPC   C3B67185   0.638   3.567   7.053
10308POPC   C4B67186   0.640   3.617   7.353
10309POPC   NC367187   6.672  25.264   5.553
10309POPC   PO467188   6.667  25.256   5.853
10309POPC   GL167189   6.608  25.218   6.153
10309POPC   GL267190   6.579  25.305   6.153
10309POPC   C1A67191   6.646  25.304   6.453
10309POPC   D2A67192   6.657  25.220   6.753
10309POPC   C3A67193   6.629  25.253   7.053
10309POPC   C4A67194   6.661  25.268   7.353
10309POPC   C1B67195   6.431  25.478   6.453
10309POPC   C2B67196   6.432  25.467   6.753
10309POPC   C3B67197   6.461  25.424   7.053
10309POPC   C4B67198   6.490  25.410   7.353
10310POPC   NC367199  15.985  11.336   5.553
10310POPC   PO467200  15.970  11.294   5.853
10310POPC   GL167201  15.989  11.305   6.153
10310POPC   GL267202  16.045  11.413   6.153
10310POPC   C1A67203  15.974  11.265   6.453
10310POPC   D2A67204  15.944  11.344   6.753
10310POPC   C3A67205  15.945  11.328   7.053
10310POPC   C4A67206  15.921  11.283   7.353
10310POPC   C1B67207  16.134  11.466   6.453
10310POPC   C2B67208  16.058  11.528   6.753
10310POPC   C3B67209  16.121  11.499   7.053
10310POPC   C4B67210  16.055  11.528   7.353
10311POPC   NC367211  40.050  22.935   5.553
10311POPC   PO467212  39.989  22.969   5.853
10311POPC   GL167213  40.040  22.899   6.153
10311POPC   GL267214  40.062  23.005   6.153
10311POPC   C1A67215  39.979  22.987   6.453
10311POPC   D2A67216  40.013  22.911   6.753
10311POPC   C3A67217  40.048  22.955   7.053
10311POPC   C4A67218  40.049  22.948   7.353
10311POPC   C1B67219  40.196  23.164   6.453
10311POPC   C2B67220  40.195  23.126   6.753
10311POPC   C3B67221  40.210  23.173   7.053
10311POPC   C4B67222  40.132  23.089   7.353
10312POPC   NC367223  30.668  15.997   5.553
10312POPC   PO467224  30.690  15.942   5.853
10312POPC   GL167225  30.663  15.982   6.153
10312POPC   GL267226  30.853  15.960   6.153
10312POPC   C1A67227  30.675  15.925   6.453
10312POPC   D2A67228  30.691  15.989   6.753
10312POPC   C3A67229  30.732  15.932   7.053
10312POPC   C4A67230  30.706  15.982   7.353
10312POPC   C1B67231  30.958  15.865   6.453
10312POPC   C2B67232  30.982  15.911   6.753
10312POPC   C3B67233  30.915  15.864   7.053
10312POPC   C4B67234  30.928  15.844   7.353
10313POPC   NC367235  18.331   6.655   5.553
10313POPC   PO467236  18.239   6.684   5.853
10313POPC   GL167237  18.249   6.667   6.153
10313POPC   GL267238  18.358   6.763   6.153
10313POPC   C1A67239  18.327   6.689   6.453
10313POPC   D2A67240  18.286   6.618   6.753
10313POPC   C3A67241  18.243   6.616   7.053
10313POPC   C4A67242  18.310   6.619   7.353
10313POPC   C1B67243  18.366   6.886   6.453
10313POPC   C2B67244  18.387   6.883   6.753
10313POPC   C3B67245  18.357   6.903   7.053
10313POPC   C4B67246  18.400   6.865   7.353
10314POPC   NC367247   8.244  40.031   5.553
10314POPC   PO467248   8.173  40.021   5.853
10314POPC   GL167249   8.232  40.023   6.153
10314POPC   GL267250   8.276  40.079   6.153
10314POPC   C1A67251   8.237  39.984   6.453
10314POPC   D2A67252   8.243  40.029   6.753
10314POPC   C3A67253   8.240  40.016   7.053
10314POPC   C4A67254   8.235  40.029   7.353
10314POPC   C1B67255   8.354  40.210   6.453
10314POPC   C2B67256   8.384  40.169   6.753
10314POPC   C3B67257   8.314  40.165   7.053
10314POPC   C4B67258   8.373  40.236   7.353
10315POPC   NC367259  30.727  24.456   5.553
10315POPC   PO467260  30.672  24.501   5.853
10315POPC   GL167261  30.725  24.508   6.153
10315POPC   GL267262  30.692  24.318   6.153
10315POPC   C1A67263  30.701  24.450   6.453
10315POPC   D2A67264  30.652  24.483   6.753
10315POPC   C3A67265  30.660  24.488   7.053
10315POPC   C4A67266  30.726  24.519   7.353
10315POPC   C1B67267  30.716  24.247   6.453
10315POPC   C2B67268  30.655  24.270   6.753
10315POPC   C3B67269  30.708  24.212   7.053
10315POPC   C4B67270  30.691  24.246   7.353
10316POPC   NC367271  28.384  26.797   5.553
10316POPC   PO467272  28.407  26.797   5.853
10316POPC   GL167273  28.379  26.785   6.153
10316POPC   GL267274  28.526  26.737   6.153
10316POPC   C1A67275  28.366  26.818   6.453
10316POPC   D2A67276  28.340  26.803   6.753
10316POPC   C3A67277  28.366  26.839   7.053
10316POPC   C4A67278  28.319  26.795   7.353
10316POPC   C1B67279  28.629  26.727   6.453
10316POPC   C2B67280  28.598  26.726   6.753
10316POPC   C3B67281  28.570  26.676   7.053
10316POPC   C4B67282  28.600  26.683   7.353
10317POPC   NC367283  12.029   4.278   5.553
10317POPC   PO467284  12.056   4.358   5.853
10317POPC   GL167285  12.089   4.313   6.153
10317POPC   GL267286  12.140   4.261   6.153
10317POPC   C1A67287  12.113   4.267   6.453
10317POPC   D2A67288  12.037   4.315   6.753
10317POPC   C3A67289  12.089   4.280   7.053
10317POPC   C4A67290  12.074   4.277   7.353
10317POPC   C1B67291  12.308   4.182   6.453
10317POPC   C2B67292  12.302   4.186   6.753
10317POPC   C3B67293  12.288   4.178   7.053
10317POPC   C4B67294  12.253   4.201   7.353
10318POPC   NC367295   6.639  44.706   5.553
10318POPC   PO467296   6.672  44.642   5.853
10318POPC   GL167297   6.649  44.649   6.153
10318POPC   GL267298   6.650  44.565   6.153
10318POPC   C1A67299   6.648  44.623   6.453
10318POPC   D2A67300   6.617  44.644   6.753
10318POPC   C3A67301   6.609  44.675   7.053
10318POPC   C4A67302   6.680  44.645   7.353
10318POPC   C1B67303   6.736  44.380   6.453
10318POPC   C2B67304   6.670  44.444   6.753
10318POPC   C3B67305   6.668  44.455   7.053
10318POPC   C4B67306   6.733  44.460   7.353
10319POPC   NC367307  19.842  35.317   5.553
10319POPC   PO467308  19.884  35.314   5.853
10319POPC   GL167309  19.786  35.356   6.153
10319POPC   GL267310  19.958  35.204   6.153
10319POPC   C1A67311  19.837  35.395   6.453
10319POPC   D2A67312  19.824  35.348   6.753
10319POPC   C3A67313  19.826  35.340   7.053
10319POPC   C4A67314  19.829  35.328   7.353
10319POPC   C1B67315  20.006  35.126   6.453
10319POPC   C2B67316  20.027  35.199   6.753
10319POPC   C3B67317  19.960  35.127   7.053
10319POPC   C4B67318  19.965  35.199   7.353
10320POPC   NC367319   8.207  36.875   5.553
10320POPC   PO467320   8.203  36.932   5.853
10320POPC   GL167321   8.211  36.919   6.153
10320POPC   GL267322   8.079  36.923   6.153
10320POPC   C1A67323   8.153  36.881   6.453
10320POPC   D2A67324   8.224  36.932   6.753
10320POPC   C3A67325   8.223  36.887   7.053
10320POPC   C4A67326   8.168  36.872   7.353
10320POPC   C1B67327   7.994  36.952   6.453
10320POPC   C2B67328   7.930  36.910   6.753
10320POPC   C3B67329   7.959  36.903   7.053
10320POPC   C4B67330   7.958  36.977   7.353
10321POPC   NC367331  39.269  39.261   5.553
10321POPC   PO467332  39.211  39.214   5.853
10321POPC   GL167333  39.266  39.213   6.153
10321POPC   GL267334  39.294  39.131   6.153
10321POPC   C1A67335  39.212  39.197   6.453
10321POPC   D2A67336  39.229  39.188   6.753
10321POPC   C3A67337  39.209  39.254   7.053
10321POPC   C4A67338  39.263  39.261   7.353
10321POPC   C1B67339  39.275  38.988   6.453
10321POPC   C2B67340  39.286  38.950   6.753
10321POPC   C3B67341  39.272  39.000   7.053
10321POPC   C4B67342  39.266  38.958   7.353
10322POPC   NC367343  26.799  34.556   5.553
10322POPC   PO467344  26.828  34.533   5.853
10322POPC   GL167345  26.831  34.555   6.153
10322POPC   GL267346  26.967  34.587   6.153
10322POPC   C1A67347  26.825  34.625   6.453
10322POPC   D2A67348  26.791  34.550   6.753
10322POPC   C3A67349  26.833  34.528   7.053
10322POPC   C4A67350  26.821  34.594   7.353
10322POPC   C1B67351  27.072  34.682   6.453
10322POPC   C2B67352  27.021  34.660   6.753
10322POPC   C3B67353  27.029  34.654   7.053
10322POPC   C4B67354  27.024  34.664   7.353
10323POPC   NC367355  29.928   4.305   5.553
10323POPC   PO467356  29.894   4.294   5.853
10323POPC   GL167357  29.922   4.337   6.153
10323POPC   GL267358  29.848   4.383   6.153
10323POPC   C1A67359  29.874   4.289   6.453
10323POPC   D2A67360  29.967   4.353   6.753
10323POPC   C3A67361  29.949   4.342   7.053
10323POPC   C4A67362  29.938   4.356   7.353
10323POPC   C1B67363  29.634   4.368   6.453
10323POPC   C2B67364  29.662   4.339   6.753
10323POPC   C3B67365  29.694   4.409   7.053
10323POPC   C4B67366  29.657   4.395   7.353
10324POPC   NC367367  37.668  32.247   5.553
10324POPC   PO467368  37.689  32.210   5.853
10324POPC   GL167369  37.630  32.261   6.153
10324POPC   GL267370  37.836  32.212   6.153
10324POPC   C1A67371  37.691  32.229   6.453
10324POPC   D2A67372  37.678  32.292   6.753
10324POPC   C3A67373  37.691  32.294   7.053
10324POPC   C4A67374  37.699  32.224   7.353
10324POPC   C1B67375  37.940  32.122   6.453
10324POPC   C2B67376  37.870  32.115   6.753
10324POPC   C3B67377  37.927  32.192   7.053
10324POPC   C4B67378  37.912  32.195   7.353
10325POPC   NC367379   7.379   2.029   5.553
10325POPC   PO467380   7.448   1.944   5.853
10325POPC   GL167381   7.445   2.023   6.153
10325POPC   GL267382   7.517   2.120   6.153
10325POPC   C1A67383   7.437   1.945   6.453
10325POPC   D2A67384   7.389   1.985   6.753
10325POPC   C3A67385   7.371   2.011   7.053
10325POPC   C4A67386   7.392   1.944   7.353
10325POPC   C1B67387   7.562   2.187   6.453
10325POPC   C2B67388   7.584   2.170   6.753
10325POPC   C3B67389   7.526   2.189   7.053
10325POPC   C4B67390   7.572   2.140   7.353
10326POPC   NC367391  15.933  27.589   5.553
10326POPC   PO467392  15.907  27.602   5.853
10326POPC   GL167393  15.948  27.632   6.153
10326POPC   GL267394  15.808  27.623   6.153
10326POPC   C1A67395  15.990  27.589   6.453
10326POPC   D2A67396  15.988  27.582   6.753
10326POPC   C3A67397  15.958  27.609   7.053
10326POPC   C4A67398  15.957  27.622   7.353
10326POPC   C1B67399  15.700  27.538   6.453
10326POPC   C2B67400  15.723  27.574   6.753
10326POPC   C3B67401  15.659  27.547   7.053
10326POPC   C4B67402  15.752  27.587   7.353
10327POPC   NC367403   0.472  34.580   5.553
10327POPC   PO467404   0.473  34.614   5.853
10327POPC   GL167405   0.445  34.584   6.153
10327POPC   GL267406   0.373  34.487   6.153
10327POPC   C1A67407   0.467  34.532   6.453
10327POPC   D2A67408   0.393  34.581   6.753
10327POPC   C3A67409   0.400  34.590   7.053
10327POPC   C4A67410   0.442  34.615   7.353
10327POPC   C1B67411   0.329  34.332   6.453
10327POPC   C2B67412   0.330  34.319   6.753
10327POPC   C3B67413   0.301  34.308   7.053
10327POPC   C4B67414   0.283  34.350   7.353
10328POPC   NC367415   5.047  36.161   5.553
10328POPC   PO467416   5.110  36.085   5.853
10328POPC   GL167417   5.055  36.138   6.153
10328POPC   GL267418   5.072  36.280   6.153
10328POPC   C1A67419   5.129  36.166   6.453
10328POPC   D2A67420   5.119  36.160   6.753
10328POPC   C3A67421   5.046  36.156   7.053
10328POPC   C4A67422   5.068  36.115   7.353
10328POPC   C1B67423   4.935  36.336   6.453
10328POPC   C2B67424   4.924  36.365   6.753
10328POPC   C3B67425   4.971  36.381   7.053
10328POPC   C4B67426   4.924  36.335   7.353
10329POPC   NC367427  40.798  11.304   5.553
10329POPC   PO467428  40.775  11.302   5.853
10329POPC   GL167429  40.770  11.342   6.153
10329POPC   GL267430  40.649  11.215   6.153
10329POPC   C1A67431  40.765  11.344   6.453
10329POPC   D2A67432  40.768  11.287   6.753
10329POPC   C3A67433  40.810  11.291   7.053
10329POPC   C4A67434  40.761  11.265   7.353
10329POPC   C1B67435  40.578  11.201   6.453
10329POPC   C2B67436  40.610  11.121   6.753
10329POPC   C3B67437  40.574  11.208   7.053
10329POPC   C4B67438  40.528  11.190   7.353
10330POPC   NC367439  29.106  12.071   5.553
10330POPC   PO467440  29.124  12.094   5.853
10330POPC   GL167441  29.129  12.084   6.153
10330POPC   GL267442  29.232  11.990   6.153
10330POPC   C1A67443  29.134  12.055   6.453
10330POPC   D2A67444  29.177  12.047   6.753
10330POPC   C3A67445  29.177  12.067   7.053
10330POPC   C4A67446  29.110  12.029   7.353
10330POPC   C1B67447  29.248  11.897   6.453
10330POPC   C2B67448  29.251  11.910   6.753
10330POPC   C3B67449  29.310  11.851   7.053
10330POPC   C4B67450  29.259  11.841   7.353
10331POPC   NC367451  19.059   1.260   5.553
10331POPC   PO467452  19.051   1.185   5.853
10331POPC   GL167453  19.044   1.250   6.153
10331POPC   GL267454  18.942   1.202   6.153
10331POPC   C1A67455  19.066   1.238   6.453
10331POPC   D2A67456  19.022   1.237   6.753
10331POPC   C3A67457  19.049   1.214   7.053
10331POPC   C4A67458  19.055   1.228   7.353
10331POPC   C1B67459  18.796   1.288   6.453
10331POPC   C2B67460  18.844   1.236   6.753
10331POPC   C3B67461  18.836   1.286   7.053
10331POPC   C4B67462  18.807   1.261   7.353
10332POPC   NC367463   8.176  43.933   5.553
10332POPC   PO467464   8.147  43.929   5.853
10332POPC   GL167465   8.180  43.930   6.153
10332POPC   GL267466   8.249  43.775   6.153
10332POPC   C1A67467   8.154  43.886   6.453
10332POPC   D2A67468   8.161  43.886   6.753
10332POPC   C3A67469   8.206  43.879   7.053
10332POPC   C4A67470   8.243  43.914   7.353
10332POPC   C1B67471   8.378  43.642   6.453
10332POPC   C2B67472   8.297  43.682   6.753
10332POPC   C3B67473   8.374  43.711   7.053
10332POPC   C4B67474   8.390  43.703   7.353
10333POPC   NC367475  39.986  10.507   5.553
10333POPC   PO467476  40.005  10.562   5.853
10333POPC   GL167477  40.034  10.515   6.153
10333POPC   GL267478  40.154  10.478   6.153
10333POPC   C1A67479  40.055  10.519   6.453
10333POPC   D2A67480  39.962  10.499   6.753
10333POPC   C3A67481  39.960  10.506   7.053
10333POPC   C4A67482  39.993  10.547   7.353
10333POPC   C1B67483  40.269  10.563   6.453
10333POPC   C2B67484  40.293  10.537   6.753
10333POPC   C3B67485  40.242  10.535   7.053
10333POPC   C4B67486  40.235  10.521   7.353
10334POPC   NC367487  15.170  17.469   5.553
10334POPC   PO467488  15.197  17.512   5.853
10334POPC   GL167489  15.168  17.531   6.153
10334POPC   GL267490  15.097  17.415   6.153
10334POPC   C1A67491  15.143  17.464   6.453
10334POPC   D2A67492  15.152  17.489   6.753
10334POPC   C3A67493  15.171  17.478   7.053
10334POPC   C4A67494  15.163  17.505   7.353
10334POPC   C1B67495  14.946  17.397   6.453
10334POPC   C2B67496  14.994  17.423   6.753
10334POPC   C3B67497  14.955  17.343   7.053
10334POPC   C4B67498  14.997  17.409   7.353
10335POPC   NC367499  18.327  41.571   5.553
10335POPC   PO467500  18.274  41.587   5.853
10335POPC   GL167501  18.246  41.578   6.153
10335POPC   GL267502  18.401  41.580   6.153
10335POPC   C1A67503  18.255  41.566   6.453
10335POPC   D2A67504  18.262  41.577   6.753
10335POPC   C3A67505  18.291  41.570   7.053
10335POPC   C4A67506  18.250  41.541   7.353
10335POPC   C1B67507  18.580  41.592   6.453
10335POPC   C2B67508  18.492  41.632   6.753
10335POPC   C3B67509  18.538  41.590   7.053
10335POPC   C4B67510  18.544  41.586   7.353
10336POPC   NC367511  27.560  16.759   5.553
10336POPC   PO467512  27.579  16.712   5.853
10336POPC   GL167513  27.546  16.705   6.153
10336POPC   GL267514  27.430  16.736   6.153
10336POPC   C1A67515  27.553  16.750   6.453
10336POPC   D2A67516  27.562  16.744   6.753
10336POPC   C3A67517  27.545  16.685   7.053
10336POPC   C4A67518  27.608  16.681   7.353
10336POPC   C1B67519  27.362  16.872   6.453
10336POPC   C2B67520  27.344  16.878   6.753
10336POPC   C3B67521  27.373  16.861   7.053
10336POPC   C4B67522  27.360  16.796   7.353
10337POPC   NC367523  13.657  31.511   5.553
10337POPC   PO467524  13.673  31.423   5.853
10337POPC   GL167525  13.621  31.467   6.153
10337POPC   GL267526  13.461  31.547   6.153
10337POPC   C1A67527  13.676  31.503   6.453
10337POPC   D2A67528  13.623  31.434   6.753
10337POPC   C3A67529  13.653  31.474   7.053
10337POPC   C4A67530  13.603  31.512   7.353
10337POPC   C1B67531  13.396  31.539   6.453
10337POPC   C2B67532  13.343  31.560   6.753
10337POPC   C3B67533  13.391  31.553   7.053
10337POPC   C4B67534  13.435  31.516   7.353
10338POPC   NC367535  40.034  25.286   5.553
10338POPC   PO467536  40.007  25.233   5.853
10338POPC   GL167537  39.966  25.226   6.153
10338POPC   GL267538  40.060  25.178   6.153
10338POPC   C1A67539  39.968  25.300   6.453
10338POPC   D2A67540  39.968  25.310   6.753
10338POPC   C3A67541  39.958  25.283   7.053
10338POPC   C4A67542  39.981  25.314   7.353
10338POPC   C1B67543  40.201  25.109   6.453
10338POPC   C2B67544  40.111  25.082   6.753
10338POPC   C3B67545  40.140  25.043   7.053
10338POPC   C4B67546  40.137  25.023   7.353
10339POPC   NC367547  29.151  26.823   5.553
10339POPC   PO467548  29.154  26.858   5.853
10339POPC   GL167549  29.097  26.846   6.153
10339POPC   GL267550  29.194  26.891   6.153
10339POPC   C1A67551  29.186  26.818   6.453
10339POPC   D2A67552  29.131  26.865   6.753
10339POPC   C3A67553  29.124  26.823   7.053
10339POPC   C4A67554  29.111  26.784   7.353
10339POPC   C1B67555  29.168  27.079   6.453
10339POPC   C2B67556  29.248  27.097   6.753
10339POPC   C3B67557  29.227  27.073   7.053
10339POPC   C4B67558  29.242  27.093   7.353
10340POPC   NC367559  37.659  36.949   5.553
10340POPC   PO467560  37.724  36.925   5.853
10340POPC   GL167561  37.649  36.922   6.153
10340POPC   GL267562  37.784  36.822   6.153
10340POPC   C1A67563  37.669  36.913   6.453
10340POPC   D2A67564  37.649  36.890   6.753
10340POPC   C3A67565  37.667  36.895   7.053
10340POPC   C4A67566  37.633  36.931   7.353
10340POPC   C1B67567  37.872  36.788   6.453
10340POPC   C2B67568  37.851  36.758   6.753
10340POPC   C3B67569  37.895  36.803   7.053
10340POPC   C4B67570  37.928  36.811   7.353
10341POPC   NC367571  29.936   0.474   5.553
10341POPC   PO467572  29.913   0.472   5.853
10341POPC   GL167573  29.944   0.462   6.153
10341POPC   GL267574  30.040   0.536   6.153
10341POPC   C1A67575  29.894   0.471   6.453
10341POPC   D2A67576  29.921   0.412   6.753
10341POPC   C3A67577  29.889   0.396   7.053
10341POPC   C4A67578  29.962   0.406   7.353
10341POPC   C1B67579  30.168   0.574   6.453
10341POPC   C2B67580  30.097   0.569   6.753
10341POPC   C3B67581  30.149   0.606   7.053
10341POPC   C4B67582  30.183   0.608   7.353
10342POPC   NC367583  26.010  16.692   5.553
10342POPC   PO467584  26.066  16.725   5.853
10342POPC   GL167585  26.016  16.733   6.153
10342POPC   GL267586  25.935  16.802   6.153
10342POPC   C1A67587  26.079  16.710   6.453
10342POPC   D2A67588  26.088  16.732   6.753
10342POPC   C3A67589  26.046  16.713   7.053
10342POPC   C4A67590  26.049  16.711   7.353
10342POPC   C1B67591  25.783  16.784   6.453
10342POPC   C2B67592  25.794  16.768   6.753
10342POPC   C3B67593  25.843  16.783   7.053
10342POPC   C4B67594  25.839  16.829   7.353
10343POPC   NC367595  21.376  37.676   5.553
10343POPC   PO467596  21.426  37.725   5.853
10343POPC   GL167597  21.376  37.701   6.153
10343POPC   GL267598  21.390  37.789   6.153
10343POPC   C1A67599  21.403  37.706   6.453
10343POPC   D2A67600  21.426  37.685   6.753
10343POPC   C3A67601  21.430  37.632   7.053
10343POPC   C4A67602  21.342  37.688   7.353
10343POPC   C1B67603  21.353  37.887   6.453
10343POPC   C2B67604  21.328  37.937   6.753
10343POPC   C3B67605  21.371  37.917   7.053
10343POPC   C4B67606  21.365  37.927   7.353
10344POPC   NC367607   2.771  24.491   5.553
10344POPC   PO467608   2.753  24.490   5.853
10344POPC   GL167609   2.815  24.471   6.153
10344POPC   GL267610   2.869  24.486   6.153
10344POPC   C1A67611   2.729  24.498   6.453
10344POPC   D2A67612   2.811  24.461   6.753
10344POPC   C3A67613   2.747  24.522   7.053
10344POPC   C4A67614   2.717  24.529   7.353
10344POPC   C1B67615   3.045  24.411   6.453
10344POPC   C2B67616   3.017  24.382   6.753
10344POPC   C3B67617   2.967  24.443   7.053
10344POPC   C4B67618   2.978  24.472   7.353
10345POPC   NC367619   7.391   3.526   5.553
10345POPC   PO467620   7.419   3.556   5.853
10345POPC   GL167621   7.470   3.577   6.153
10345POPC   GL267622   7.464   3.478   6.153
10345POPC   C1A67623   7.407   3.523   6.453
10345POPC   D2A67624   7.436   3.548   6.753
10345POPC   C3A67625   7.405   3.530   7.053
10345POPC   C4A67626   7.371   3.564   7.353
10345POPC   C1B67627   7.500   3.344   6.453
10345POPC   C2B67628   7.501   3.286   6.753
10345POPC   C3B67629   7.499   3.301   7.053
10345POPC   C4B67630   7.518   3.363   7.353
10346POPC   NC367631  21.403  15.209   5.553
10346POPC   PO467632  21.417  15.187   5.853
10346POPC   GL167633  21.421  15.143   6.153
10346POPC   GL267634  21.400  15.093   6.153
10346POPC   C1A67635  21.425  15.217   6.453
10346POPC   D2A67636  21.428  15.214   6.753
10346POPC   C3A67637  21.336  15.134   7.053
10346POPC   C4A67638  21.417  15.227   7.353
10346POPC   C1B67639  21.479  14.892   6.453
10346POPC   C2B67640  21.439  14.886   6.753
10346POPC   C3B67641  21.475  14.884   7.053
10346POPC   C4B67642  21.464  14.906   7.353
10347POPC   NC367643  22.202  38.441   5.553
10347POPC   PO467644  22.157  38.481   5.853
10347POPC   GL167645  22.138  38.479   6.153
10347POPC   GL267646  22.122  38.313   6.153
10347POPC   C1A67647  22.156  38.426   6.453
10347POPC   D2A67648  22.123  38.450   6.753
10347POPC   C3A67649  22.207  38.479   7.053
10347POPC   C4A67650  22.188  38.427   7.353
10347POPC   C1B67651  22.082  38.194   6.453
10347POPC   C2B67652  22.140  38.170   6.753
10347POPC   C3B67653  22.106  38.196   7.053
10347POPC   C4B67654  22.103  38.224   7.353
10348POPC   NC367655  19.873  10.500   5.553
10348POPC   PO467656  19.822  10.525   5.853
10348POPC   GL167657  19.839  10.561   6.153
10348POPC   GL267658  19.718  10.648   6.153
10348POPC   C1A67659  19.838  10.533   6.453
10348POPC   D2A67660  19.789  10.546   6.753
10348POPC   C3A67661  19.844  10.568   7.053
10348POPC   C4A67662  19.850  10.552   7.353
10348POPC   C1B67663  19.715  10.734   6.453
10348POPC   C2B67664  19.632  10.698   6.753
10348POPC   C3B67665  19.692  10.698   7.053
10348POPC   C4B67666  19.728  10.711   7.353
10349POPC   NC367667  36.941  44.694   5.553
10349POPC   PO467668  36.889  44.707   5.853
10349POPC   GL167669  36.898  44.710   6.153
10349POPC   GL267670  36.972  44.547   6.153
10349POPC   C1A67671  36.935  44.709   6.453
10349POPC   D2A67672  36.952  44.628   6.753
10349POPC   C3A67673  36.945  44.674   7.053
10349POPC   C4A67674  36.880  44.658   7.353
10349POPC   C1B67675  37.045  44.480   6.453
10349POPC   C2B67676  36.978  44.445   6.753
10349POPC   C3B67677  37.031  44.398   7.053
10349POPC   C4B67678  37.050  44.475   7.353
10350POPC   NC367679  29.966  32.209   5.553
10350POPC   PO467680  29.933  32.200   5.853
10350POPC   GL167681  29.947  32.281   6.153
10350POPC   GL267682  29.758  32.214   6.153
10350POPC   C1A67683  29.968  32.245   6.453
10350POPC   D2A67684  29.877  32.219   6.753
10350POPC   C3A67685  29.945  32.204   7.053
10350POPC   C4A67686  29.962  32.219   7.353
10350POPC   C1B67687  29.621  32.264   6.453
10350POPC   C2B67688  29.633  32.314   6.753
10350POPC   C3B67689  29.652  32.277   7.053
10350POPC   C4B67690  29.624  32.276   7.353
10351POPC   NC367691  10.564  26.828   5.553
10351POPC   PO467692  10.522  26.775   5.853
10351POPC   GL167693  10.531  26.853   6.153
10351POPC   GL267694  10.455  26.928   6.153
10351POPC   C1A67695  10.547  26.801   6.453
10351POPC   D2A67696  10.475  26.836   6.753
10351POPC   C3A67697  10.533  26.785   7.053
10351POPC   C4A67698  10.523  26.786   7.353
10351POPC   C1B67699  10.417  27.022   6.453
10351POPC   C2B67700  10.374  26.983   6.753
10351POPC   C3B67701  10.433  26.999   7.053
10351POPC   C4B67702  10.363  26.976   7.353
10352POPC   NC367703   5.820  44.681   5.553
10352POPC   PO467704   5.856  44.667   5.853
10352POPC   GL167705   5.844  44.620   6.153
10352POPC   GL267706   5.863  44.550   6.153
10352POPC   C1A67707   5.837  44.613   6.453
10352POPC   D2A67708   5.900  44.680   6.753
10352POPC   C3A67709   5.821  44.689   7.053
10352POPC   C4A67710   5.889  44.671   7.353
10352POPC   C1B67711   5.811  44.464   6.453
10352POPC   C2B67712   5.799  44.451   6.753
10352POPC   C3B67713   5.811  44.446   7.053
10352POPC   C4B67714   5.838  44.399   7.353
10353POPC   NC367715  10.568  34.561   5.553
10353POPC   PO467716  10.574  34.614   5.853
10353POPC   GL167717  10.530  34.608   6.153
10353POPC   GL267718  10.632  34.510   6.153
10353POPC   C1A67719  10.548  34.594   6.453
10353POPC   D2A67720  10.528  34.563   6.753
10353POPC   C3A67721  10.543  34.606   7.053
10353POPC   C4A67722  10.564  34.600   7.353
10353POPC   C1B67723  10.704  34.364   6.453
10353POPC   C2B67724  10.668  34.351   6.753
10353POPC   C3B67725  10.648  34.425   7.053
10353POPC   C4B67726  10.650  34.364   7.353
10354POPC   NC367727  28.353   6.624   5.553
10354POPC   PO467728  28.333   6.607   5.853
10354POPC   GL167729  28.407   6.661   6.153
10354POPC   GL267730  28.436   6.768   6.153
10354POPC   C1A67731  28.345   6.649   6.453
10354POPC   D2A67732  28.354   6.627   6.753
10354POPC   C3A67733  28.332   6.612   7.053
10354POPC   C4A67734  28.380   6.633   7.353
10354POPC   C1B67735  28.440   6.883   6.453
10354POPC   C2B67736  28.484   6.852   6.753
10354POPC   C3B67737  28.446   6.899   7.053
10354POPC   C4B67738  28.468   6.869   7.353
10355POPC   NC367739  12.870  43.152   5.553
10355POPC   PO467740  12.838  43.103   5.853
10355POPC   GL167741  12.843  43.084   6.153
10355POPC   GL267742  12.950  42.964   6.153
10355POPC   C1A67743  12.894  43.160   6.453
10355POPC   D2A67744  12.896  43.134   6.753
10355POPC   C3A67745  12.883  43.153   7.053
10355POPC   C4A67746  12.890  43.131   7.353
10355POPC   C1B67747  12.968  42.948   6.453
10355POPC   C2B67748  13.038  42.920   6.753
10355POPC   C3B67749  13.011  42.917   7.053
10355POPC   C4B67750  13.029  42.919   7.353
10356POPC   NC367751  36.866  23.758   5.553
10356POPC   PO467752  36.914  23.676   5.853
10356POPC   GL167753  36.875  23.711   6.153
10356POPC   GL267754  36.802  23.842   6.153
10356POPC   C1A67755  36.857  23.665   6.453
10356POPC   D2A67756  36.882  23.740   6.753
10356POPC   C3A67757  36.860  23.665   7.053
10356POPC   C4A67758  36.864  23.673   7.353
10356POPC   C1B67759  36.765  23.920   6.453
10356POPC   C2B67760  36.738  23.914   6.753
10356POPC   C3B67761  36.728  23.898   7.053
10356POPC   C4B67762  36.744  23.928   7.353
10357POPC   NC367763  15.163   7.443   5.553
10357POPC   PO467764  15.154   7.377   5.853
10357POPC   GL167765  15.170   7.373   6.153
10357POPC   GL267766  15.090   7.463   6.153
10357POPC   C1A67767  15.158   7.371   6.453
10357POPC   D2A67768  15.159   7.444   6.753
10357POPC   C3A67769  15.191   7.437   7.053
10357POPC   C4A67770  15.185   7.441   7.353
10357POPC   C1B67771  14.992   7.591   6.453
10357POPC   C2B67772  14.954   7.553   6.753
10357POPC   C3B67773  15.027   7.595   7.053
10357POPC   C4B67774  14.991   7.547   7.353
10358POPC   NC367775  33.798  28.376   5.553
10358POPC   PO467776  33.845  28.355   5.853
10358POPC   GL167777  33.761  28.400   6.153
10358POPC   GL267778  33.918  28.375   6.153
10358POPC   C1A67779  33.823  28.380   6.453
10358POPC   D2A67780  33.782  28.325   6.753
10358POPC   C3A67781  33.753  28.368   7.053
10358POPC   C4A67782  33.841  28.391   7.353
10358POPC   C1B67783  34.068  28.337   6.453
10358POPC   C2B67784  34.011  28.328   6.753
10358POPC   C3B67785  34.037  28.330   7.053
10358POPC   C4B67786  34.092  28.365   7.353
10359POPC   NC367787  30.677   9.746   5.553
10359POPC   PO467788  30.705   9.716   5.853
10359POPC   GL167789  30.659   9.716   6.153
10359POPC   GL267790  30.788   9.763   6.153
10359POPC   C1A67791  30.651   9.700   6.453
10359POPC   D2A67792  30.723   9.723   6.753
10359POPC   C3A67793  30.685   9.716   7.053
10359POPC   C4A67794  30.718   9.742   7.353
10359POPC   C1B67795  30.991   9.716   6.453
10359POPC   C2B67796  30.982   9.739   6.753
10359POPC   C3B67797  30.907   9.697   7.053
10359POPC   C4B67798  30.932   9.773   7.353
10360POPC   NC367799  23.760  19.015   5.553
10360POPC   PO467800  23.706  19.030   5.853
10360POPC   GL167801  23.694  19.009   6.153
10360POPC   GL267802  23.794  19.126   6.153
10360POPC   C1A67803  23.708  19.089   6.453
10360POPC   D2A67804  23.702  19.063   6.753
10360POPC   C3A67805  23.702  19.012   7.053
10360POPC   C4A67806  23.704  19.022   7.353
10360POPC   C1B67807  23.898  19.182   6.453
10360POPC   C2B67808  23.874  19.215   6.753
10360POPC   C3B67809  23.896  19.168   7.053
10360POPC   C4B67810  23.925  19.232   7.353
10361POPC   NC367811   4.290  11.343   5.553
10361POPC   PO467812   4.356  11.284   5.853
10361POPC   GL167813   4.306  11.303   6.153
10361POPC   GL267814   4.382  11.395   6.153
10361POPC   C1A67815   4.282  11.335   6.453
10361POPC   D2A67816   4.345  11.297   6.753
10361POPC   C3A67817   4.317  11.328   7.053
10361POPC   C4A67818   4.267  11.340   7.353
10361POPC   C1B67819   4.403  11.543   6.453
10361POPC   C2B67820   4.479  11.486   6.753
10361POPC   C3B67821   4.416  11.562   7.053
10361POPC   C4B67822   4.475  11.478   7.353
10362POPC   NC367823   2.779   6.687   5.553
10362POPC   PO467824   2.766   6.619   5.853
10362POPC   GL167825   2.767   6.660   6.153
10362POPC   GL267826   2.858   6.591   6.153
10362POPC   C1A67827   2.768   6.694   6.453
10362POPC   D2A67828   2.760   6.674   6.753
10362POPC   C3A67829   2.790   6.623   7.053
10362POPC   C4A67830   2.747   6.692   7.353
10362POPC   C1B67831   3.024   6.593   6.453
10362POPC   C2B67832   3.052   6.574   6.753
10362POPC   C3B67833   2.969   6.544   7.053
10362POPC   C4B67834   3.005   6.560   7.353
10363POPC   NC367835  40.056   3.524   5.553
10363POPC   PO467836  40.035   3.555   5.853
10363POPC   GL167837  40.022   3.583   6.153
10363POPC   GL267838  40.161   3.529   6.153
10363POPC   C1A67839  40.022   3.545   6.453
10363POPC   D2A67840  39.982   3.584   6.753
10363POPC   C3A67841  40.000   3.569   7.053
10363POPC   C4A67842  39.967   3.553   7.353
10363POPC   C1B67843  40.236   3.478   6.453
10363POPC   C2B67844  40.305   3.562   6.753
10363POPC   C3B67845  40.276   3.568   7.053
10363POPC   C4B67846  40.210   3.549   7.353
10364POPC   NC367847   9.005  33.806   5.553
10364POPC   PO467848   8.952  33.850   5.853
10364POPC   GL167849   9.005  33.795   6.153
10364POPC   GL267850   8.967  33.638   6.153
10364POPC   C1A67851   8.987  33.753   6.453
10364POPC   D2A67852   8.946  33.810   6.753
10364POPC   C3A67853   8.990  33.846   7.053
10364POPC   C4A67854   8.982  33.790   7.353
10364POPC   C1B67855   8.997  33.533   6.453
10364POPC   C2B67856   9.066  33.550   6.753
10364POPC   C3B67857   9.084  33.557   7.053
10364POPC   C4B67858   9.051  33.561   7.353
10365POPC   NC367859   8.166  34.530   5.553
10365POPC   PO467860   8.241  34.622   5.853
10365POPC   GL167861   8.163  34.598   6.153
10365POPC   GL267862   8.133  34.501   6.153
10365POPC   C1A67863   8.158  34.597   6.453
10365POPC   D2A67864   8.245  34.568   6.753
10365POPC   C3A67865   8.238  34.564   7.053
10365POPC   C4A67866   8.216  34.547   7.353
10365POPC   C1B67867   8.147  34.344   6.453
10365POPC   C2B67868   8.163  34.320   6.753
10365POPC   C3B67869   8.086  34.332   7.053
10365POPC   C4B67870   8.088  34.358   7.353
10366POPC   NC367871  12.084  16.756   5.553
10366POPC   PO467872  12.078  16.701   5.853
10366POPC   GL167873  12.087  16.723   6.153
10366POPC   GL267874  12.041  16.894   6.153
10366POPC   C1A67875  12.110  16.699   6.453
10366POPC   D2A67876  12.072  16.730   6.753
10366POPC   C3A67877  12.061  16.778   7.053
10366POPC   C4A67878  12.069  16.696   7.353
10366POPC   C1B67879  12.017  16.946   6.453
10366POPC   C2B67880  11.985  16.929   6.753
10366POPC   C3B67881  11.974  16.985   7.053
10366POPC   C4B67882  11.972  16.986   7.353
10367POPC   NC367883   3.525  42.296   5.553
10367POPC   PO467884   3.522  42.340   5.853
10367POPC   GL167885   3.536  42.309   6.153
10367POPC   GL267886   3.504  42.409   6.153
10367POPC   C1A67887   3.512  42.294   6.453
10367POPC   D2A67888   3.499  42.376   6.753
10367POPC   C3A67889   3.508  42.313   7.053
10367POPC   C4A67890   3.513  42.349   7.353
10367POPC   C1B67891   3.411  42.551   6.453
10367POPC   C2B67892   3.413  42.541   6.753
10367POPC   C3B67893   3.400  42.516   7.053
10367POPC   C4B67894   3.429  42.503   7.353
10368POPC   NC367895   5.888  13.602   5.553
10368POPC   PO467896   5.822  13.653   5.853
10368POPC   GL167897   5.832  13.596   6.153
10368POPC   GL267898   5.783  13.755   6.153
10368POPC   C1A67899   5.828  13.633   6.453
10368POPC   D2A67900   5.904  13.674   6.753
10368POPC   C3A67901   5.892  13.600   7.053
10368POPC   C4A67902   5.883  13.634   7.353
10368POPC   C1B67903   5.688  13.782   6.453
10368POPC   C2B67904   5.729  13.753   6.753
10368POPC   C3B67905   5.679  13.772   7.053
10368POPC   C4B67906   5.665  13.802   7.353
10369POPC   NC367907  38.454  35.400   5.553
10369POPC   PO467908  38.485  35.339   5.853
10369POPC   GL167909  38.496  35.382   6.153
10369POPC   GL267910  38.600  35.361   6.153
10369POPC   C1A67911  38.410  35.345   6.453
10369POPC   D2A67912  38.433  35.370   6.753
10369POPC   C3A67913  38.444  35.309   7.053
10369POPC   C4A67914  38.435  35.337   7.353
10369POPC   C1B67915  38.679  35.310   6.453
10369POPC   C2B67916  38.705  35.273   6.753
10369POPC   C3B67917  38.674  35.359   7.053
10369POPC   C4B67918  38.678  35.316   7.353
10370POPC   NC367919  11.327  15.913   5.553
10370POPC   PO467920  11.345  15.925   5.853
10370POPC   GL167921  11.271  15.912   6.153
10370POPC   GL267922  11.228  16.052   6.153
10370POPC   C1A67923  11.325  15.996   6.453
10370POPC   D2A67924  11.332  15.961   6.753
10370POPC   C3A67925  11.250  15.938   7.053
10370POPC   C4A67926  11.294  15.965   7.353
10370POPC   C1B67927  11.080  16.098   6.453
10370POPC   C2B67928  11.067  16.109   6.753
10370POPC   C3B67929  11.081  16.055   7.053
10370POPC   C4B67930  11.130  16.118   7.353
10371POPC   NC367931  27.634  34.542   5.553
10371POPC   PO467932  27.579  34.610   5.853
10371POPC   GL167933  27.630  34.614   6.153
10371POPC   GL267934  27.606  34.423   6.153
10371POPC   C1A67935  27.574  34.580   6.453
10371POPC   D2A67936  27.603  34.562   6.753
10371POPC   C3A67937  27.629  34.606   7.053
10371POPC   C4A67938  27.605  34.605   7.353
10371POPC   C1B67939  27.744  34.311   6.453
10371POPC   C2B67940  27.665  34.354   6.753
10371POPC   C3B67941  27.665  34.385   7.053
10371POPC   C4B67942  27.732  34.368   7.353
10372POPC   NC367943  18.299  43.117   5.553
10372POPC   PO467944  18.290  43.070   5.853
10372POPC   GL167945  18.309  43.100   6.153
10372POPC   GL267946  18.359  43.011   6.153
10372POPC   C1A67947  18.293  43.080   6.453
10372POPC   D2A67948  18.311  43.098   6.753
10372POPC   C3A67949  18.309  43.069   7.053
10372POPC   C4A67950  18.323  43.082   7.353
10372POPC   C1B67951  18.457  42.933   6.453
10372POPC   C2B67952  18.367  42.853   6.753
10372POPC   C3B67953  18.406  42.915   7.053
10372POPC   C4B67954  18.380  42.895   7.353
10373POPC   NC367955  37.713   6.603   5.553
10373POPC   PO467956  37.697   6.666   5.853
10373POPC   GL167957  37.648   6.613   6.153
10373POPC   GL267958  37.643   6.751   6.153
10373POPC   C1A67959  37.679   6.681   6.453
10373POPC   D2A67960  37.700   6.669   6.753
10373POPC   C3A67961  37.657   6.683   7.053
10373POPC   C4A67962  37.716   6.600   7.353
10373POPC   C1B67963  37.667   6.847   6.453
10373POPC   C2B67964  37.689   6.898   6.753
10373POPC   C3B67965  37.623   6.880   7.053
10373POPC   C4B67966  37.626   6.925   7.353
10374POPC   NC367967  33.797  10.547   5.553
10374POPC   PO467968  33.791  10.572   5.853
10374POPC   GL167969  33.756  10.522   6.153
10374POPC   GL267970  33.809  10.359   6.153
10374POPC   C1A67971  33.820  10.566   6.453
10374POPC   D2A67972  33.786  10.501   6.753
10374POPC   C3A67973  33.813  10.501   7.053
10374POPC   C4A67974  33.800  10.556   7.353
10374POPC   C1B67975  33.729  10.248   6.453
10374POPC   C2B67976  33.780  10.265   6.753
10374POPC   C3B67977  33.800  10.237   7.053
10374POPC   C4B67978  33.789  10.289   7.353
10375POPC   NC367979  21.372  11.280   5.553
10375POPC   PO467980  21.341  11.342   5.853
10375POPC   GL167981  21.373  11.297   6.153
10375POPC   GL267982  21.372  11.146   6.153
10375POPC   C1A67983  21.390  11.272   6.453
10375POPC   D2A67984  21.341  11.266   6.753
10375POPC   C3A67985  21.398  11.310   7.053
10375POPC   C4A67986  21.374  11.256   7.353
10375POPC   C1B67987  21.464  11.003   6.453
10375POPC   C2B67988  21.374  11.010   6.753
10375POPC   C3B67989  21.467  11.034   7.053
10375POPC   C4B67990  21.408  11.044   7.353
10376POPC   NC367991   3.533  22.117   5.553
10376POPC   PO467992   3.531  22.112   5.853
10376POPC   GL167993   3.569  22.152   6.153
10376POPC   GL267994   3.638  22.214   6.153
10376POPC   C1A67995   3.519  22.180   6.453
10376POPC   D2A67996   3.570  22.199   6.753
10376POPC   C3A67997   3.503  22.183   7.053
10376POPC   C4A67998   3.568  22.201   7.353
10376POPC   C1B67999   3.780  22.268   6.453
10376POPC   C2B68000   3.791  22.224   6.753
10376POPC   C3B68001   3.737  22.239   7.053
10376POPC   C4B68002   3.816  22.263   7.353
10377POPC   NC368003  26.065  19.837   5.553
10377POPC   PO468004  26.034  19.821   5.853
10377POPC   GL168005  25.996  19.879   6.153
10377POPC   GL268006  25.931  19.756   6.153
10377POPC   C1A68007  26.026  19.865   6.453
10377POPC   D2A68008  25.995  19.840   6.753
10377POPC   C3A68009  26.071  19.811   7.053
10377POPC   C4A68010  26.074  19.828   7.353
10377POPC   C1B68011  25.813  19.688   6.453
10377POPC   C2B68012  25.832  19.727   6.753
10377POPC   C3B68013  25.847  19.680   7.053
10377POPC   C4B68014  25.865  19.682   7.353
10378POPC   NC368015  22.164  36.950   5.553
10378POPC   PO468016  22.200  36.870   5.853
10378POPC   GL168017  22.209  36.861   6.153
10378POPC   GL268018  22.167  36.778   6.153
10378POPC   C1A68019  22.194  36.950   6.453
10378POPC   D2A68020  22.161  36.888   6.753
10378POPC   C3A68021  22.116  36.908   7.053
10378POPC   C4A68022  22.182  36.883   7.353
10378POPC   C1B68023  22.237  36.666   6.453
10378POPC   C2B68024  22.181  36.619   6.753
10378POPC   C3B68025  22.208  36.660   7.053
10378POPC   C4B68026  22.192  36.690   7.353
10379POPC   NC368027  28.409  19.042   5.553
10379POPC   PO468028  28.389  19.040   5.853
10379POPC   GL168029  28.351  19.017   6.153
10379POPC   GL268030  28.395  19.211   6.153
10379POPC   C1A68031  28.356  19.026   6.453
10379POPC   D2A68032  28.417  19.033   6.753
10379POPC   C3A68033  28.353  19.043   7.053
10379POPC   C4A68034  28.372  19.075   7.353
10379POPC   C1B68035  28.445  19.299   6.453
10379POPC   C2B68036  28.458  19.279   6.753
10379POPC   C3B68037  28.475  19.292   7.053
10379POPC   C4B68038  28.497  19.281   7.353
10380POPC   NC368039  28.335   7.414   5.553
10380POPC   PO468040  28.326   7.411   5.853
10380POPC   GL168041  28.377   7.428   6.153
10380POPC   GL268042  28.307   7.344   6.153
10380POPC   C1A68043  28.418   7.453   6.453
10380POPC   D2A68044  28.340   7.377   6.753
10380POPC   C3A68045  28.366   7.413   7.053
10380POPC   C4A68046  28.347   7.425   7.353
10380POPC   C1B68047  28.157   7.234   6.453
10380POPC   C2B68048  28.205   7.213   6.753
10380POPC   C3B68049  28.168   7.238   7.053
10380POPC   C4B68050  28.187   7.241   7.353
10381POPC   NC368051   2.720  28.364   5.553
10381POPC   PO468052   2.746  28.405   5.853
10381POPC   GL168053   2.769  28.346   6.153
10381POPC   GL268054   2.744  28.203   6.153
10381POPC   C1A68055   2.735  28.339   6.453
10381POPC   D2A68056   2.742  28.381   6.753
10381POPC   C3A68057   2.734  28.326   7.053
10381POPC   C4A68058   2.732  28.368   7.353
10381POPC   C1B68059   2.797  28.112   6.453
10381POPC   C2B68060   2.735  28.136   6.753
10381POPC   C3B68061   2.774  28.087   7.053
10381POPC   C4B68062   2.743  28.076   7.353
10382POPC   NC368063  40.022  19.795   5.553
10382POPC   PO468064  39.995  19.839   5.853
10382POPC   GL168065  39.963  19.884   6.153
10382POPC   GL268066  40.029  19.947   6.153
10382POPC   C1A68067  39.973  19.863   6.453
10382POPC   D2A68068  40.010  19.844   6.753
10382POPC   C3A68069  39.973  19.793   7.053
10382POPC   C4A68070  40.022  19.882   7.353
10382POPC   C1B68071  39.991  20.082   6.453
10382POPC   C2B68072  40.017  20.113   6.753
10382POPC   C3B68073  39.988  20.053   7.053
10382POPC   C4B68074  40.057  20.105   7.353
10383POPC   NC368075  43.902  43.838   5.553
10383POPC   PO468076  43.838  43.876   5.853
10383POPC   GL168077  43.893  43.905   6.153
10383POPC   GL268078  43.955  43.802   6.153
10383POPC   C1A68079  43.912  43.894   6.453
10383POPC   D2A68080  43.936  43.885   6.753
10383POPC   C3A68081  43.916  43.897   7.053
10383POPC   C4A68082  43.871  43.908   7.353
10383POPC   C1B68083  44.081  43.647   6.453
10383POPC   C2B68084  44.077  43.686   6.753
10383POPC   C3B68085  44.037  43.681   7.053
10383POPC   C4B68086  44.002  43.681   7.353
10384POPC   NC368087   4.326  21.343   5.553
10384POPC   PO468088   4.268  21.342   5.853
10384POPC   GL168089   4.305  21.354   6.153
10384POPC   GL268090   4.445  21.450   6.153
10384POPC   C1A68091   4.292  21.421   6.453
10384POPC   D2A68092   4.301  21.422   6.753
10384POPC   C3A68093   4.313  21.336   7.053
10384POPC   C4A68094   4.293  21.345   7.353
10384POPC   C1B68095   4.533  21.614   6.453
10384POPC   C2B68096   4.459  21.570   6.753
10384POPC   C3B68097   4.463  21.551   7.053
10384POPC   C4B68098   4.536  21.532   7.353
10385POPC   NC368099  27.610  43.872   5.553
10385POPC   PO468100  27.594  43.917   5.853
10385POPC   GL168101  27.630  43.867   6.153
10385POPC   GL268102  27.580  43.753   6.153
10385POPC   C1A68103  27.559  43.858   6.453
10385POPC   D2A68104  27.623  43.846   6.753
10385POPC   C3A68105  27.611  43.906   7.053
10385POPC   C4A68106  27.558  43.895   7.353
10385POPC   C1B68107  27.571  43.682   6.453
10385POPC   C2B68108  27.553  43.596   6.753
10385POPC   C3B68109  27.636  43.626   7.053
10385POPC   C4B68110  27.627  43.647   7.353
10386POPC   NC368111  30.720   6.686   5.553
10386POPC   PO468112  30.734   6.597   5.853
10386POPC   GL168113  30.719   6.602   6.153
10386POPC   GL268114  30.559   6.697   6.153
10386POPC   C1A68115  30.698   6.621   6.453
10386POPC   D2A68116  30.739   6.611   6.753
10386POPC   C3A68117  30.710   6.626   7.053
10386POPC   C4A68118  30.667   6.603   7.353
10386POPC   C1B68119  30.447   6.740   6.453
10386POPC   C2B68120  30.499   6.737   6.753
10386POPC   C3B68121  30.432   6.736   7.053
10386POPC   C4B68122  30.435   6.764   7.353
10387POPC   NC368123   5.886  16.774   5.553
10387POPC   PO468124   5.898  16.717   5.853
10387POPC   GL168125   5.903  16.768   6.153
10387POPC   GL268126   5.982  16.823   6.153
10387POPC   C1A68127   5.880  16.728   6.453
10387POPC   D2A68128   5.871  16.687   6.753
10387POPC   C3A68129   5.873  16.718   7.053
10387POPC   C4A68130   5.916  16.770   7.353
10387POPC   C1B68131   6.012  16.964   6.453
10387POPC   C2B68132   5.963  16.977   6.753
10387POPC   C3B68133   6.006  16.923   7.053
10387POPC   C4B68134   6.010  16.975   7.353
10388POPC   NC368135  18.237  39.992   5.553
10388POPC   PO468136  18.255  39.999   5.853
10388POPC   GL168137  18.243  39.972   6.153
10388POPC   GL268138  18.424  40.038   6.153
10388POPC   C1A68139  18.246  39.988   6.453
10388POPC   D2A68140  18.293  40.049   6.753
10388POPC   C3A68141  18.262  39.975   7.053
10388POPC   C4A68142  18.314  39.980   7.353
10388POPC   C1B68143  18.531  40.098   6.453
10388POPC   C2B68144  18.480  40.026   6.753
10388POPC   C3B68145  18.549  40.059   7.053
10388POPC   C4B68146  18.500  40.025   7.353
10389POPC   NC368147  22.187  14.444   5.553
10389POPC   PO468148  22.190  14.407   5.853
10389POPC   GL168149  22.199  14.436   6.153
10389POPC   GL268150  22.207  14.518   6.153
10389POPC   C1A68151  22.128  14.381   6.453
10389POPC   D2A68152  22.126  14.373   6.753
10389POPC   C3A68153  22.133  14.361   7.053
10389POPC   C4A68154  22.202  14.402   7.353
10389POPC   C1B68155  22.212  14.652   6.453
10389POPC   C2B68156  22.228  14.662   6.753
10389POPC   C3B68157  22.258  14.632   7.053
10389POPC   C4B68158  22.258  14.680   7.353
10390POPC   NC368159  24.476  13.600   5.553
10390POPC   PO468160  24.478  13.660   5.853
10390POPC   GL168161  24.459  13.587   6.153
10390POPC   GL268162  24.443  13.736   6.153
10390POPC   C1A68163  24.467  13.651   6.453
10390POPC   D2A68164  24.527  13.644   6.753
10390POPC   C3A68165  24.473  13.630   7.053
10390POPC   C4A68166  24.490  13.667   7.353
10390POPC   C1B68167  24.404  13.830   6.453
10390POPC   C2B68168  24.406  13.901   6.753
10390POPC   C3B68169  24.398  13.859   7.053
10390POPC   C4B68170  24.446  13.861   7.353
10391POPC   NC368171   1.185  27.552   5.553
10391POPC   PO468172   1.182  27.592   5.853
10391POPC   GL168173   1.236  27.597   6.153
10391POPC   GL268174   1.113  27.570   6.153
10391POPC   C1A68175   1.164  27.636   6.453
10391POPC   D2A68176   1.175  27.612   6.753
10391POPC   C3A68177   1.217  27.637   7.053
10391POPC   C4A68178   1.258  27.545   7.353
10391POPC   C1B68179   0.978  27.475   6.453
10391POPC   C2B68180   1.033  27.456   6.753
10391POPC   C3B68181   0.989  27.456   7.053
10391POPC   C4B68182   0.982  27.507   7.353
10392POPC   NC368183  31.513  10.492   5.553
10392POPC   PO468184  31.443  10.533   5.853
10392POPC   GL168185  31.505  10.493   6.153
10392POPC   GL268186  31.550  10.377   6.153
10392POPC   C1A68187  31.447  10.486   6.453
10392POPC   D2A68188  31.491  10.515   6.753
10392POPC   C3A68189  31.472  10.504   7.053
10392POPC   C4A68190  31.456  10.553   7.353
10392POPC   C1B68191  31.537  10.248   6.453
10392POPC   C2B68192  31.524  10.266   6.753
10392POPC   C3B68193  31.523  10.292   7.053
10392POPC   C4B68194  31.512  10.275   7.353
10393POPC   NC368195  35.365  40.795   5.553
10393POPC   PO468196  35.321  40.785   5.853
10393POPC   GL168197  35.318  40.815   6.153
10393POPC   GL268198  35.258  40.917   6.153
10393POPC   C1A68199  35.354  40.748   6.453
10393POPC   D2A68200  35.339  40.828   6.753
10393POPC   C3A68201  35.324  40.816   7.053
10393POPC   C4A68202  35.384  40.795   7.353
10393POPC   C1B68203  35.191  41.007   6.453
10393POPC   C2B68204  35.184  40.973   6.753
10393POPC   C3B68205  35.195  40.973   7.053
10393POPC   C4B68206  35.205  41.024   7.353
10394POPC   NC368207  12.027  13.677   5.553
10394POPC   PO468208  12.064  13.591   5.853
10394POPC   GL168209  12.073  13.598   6.153
10394POPC   GL268210  12.009  13.713   6.153
10394POPC   C1A68211  12.088  13.580   6.453
10394POPC   D2A68212  12.112  13.645   6.753
10394POPC   C3A68213  12.090  13.630   7.053
10394POPC   C4A68214  12.107  13.634   7.353
10394POPC   C1B68215  12.012  13.908   6.453
10394POPC   C2B68216  12.041  13.916   6.753
10394POPC   C3B68217  12.030  13.900   7.053
10394POPC   C4B68218  12.081  13.830   7.353
10395POPC   NC368219  15.145   5.864   5.553
10395POPC   PO468220  15.227   5.900   5.853
10395POPC   GL168221  15.222   5.861   6.153
10395POPC   GL268222  15.115   6.034   6.153
10395POPC   C1A68223  15.191   5.881   6.453
10395POPC   D2A68224  15.190   5.833   6.753
10395POPC   C3A68225  15.217   5.853   7.053
10395POPC   C4A68226  15.171   5.898   7.353
10395POPC   C1B68227  15.124   6.100   6.453
10395POPC   C2B68228  15.140   6.141   6.753
10395POPC   C3B68229  15.098   6.130   7.053
10395POPC   C4B68230  15.149   6.151   7.353
10396POPC   NC368231  33.847  26.020   5.553
10396POPC   PO468232  33.846  26.041   5.853
10396POPC   GL168233  33.796  26.050   6.153
10396POPC   GL268234  33.713  26.039   6.153
10396POPC   C1A68235  33.835  25.992   6.453
10396POPC   D2A68236  33.773  26.079   6.753
10396POPC   C3A68237  33.794  26.088   7.053
10396POPC   C4A68238  33.773  26.036   7.353
10396POPC   C1B68239  33.516  26.039   6.453
10396POPC   C2B68240  33.569  26.040   6.753
10396POPC   C3B68241  33.509  26.043   7.053
10396POPC   C4B68242  33.535  26.030   7.353
10397POPC   NC368243  24.517  34.582   5.553
10397POPC   PO468244  24.538  34.578   5.853
10397POPC   GL168245  24.479  34.540   6.153
10397POPC   GL268246  24.433  34.505   6.153
10397POPC   C1A68247  24.460  34.576   6.453
10397POPC   D2A68248  24.467  34.551   6.753
10397POPC   C3A68249  24.477  34.564   7.053
10397POPC   C4A68250  24.501  34.549   7.353
10397POPC   C1B68251  24.364  34.377   6.453
10397POPC   C2B68252  24.368  34.364   6.753
10397POPC   C3B68253  24.421  34.308   7.053
10397POPC   C4B68254  24.348  34.351   7.353
10398POPC   NC368255  22.155  39.210   5.553
10398POPC   PO468256  22.137  39.185   5.853
10398POPC   GL168257  22.173  39.186   6.153
10398POPC   GL268258  22.276  39.147   6.153
10398POPC   C1A68259  22.188  39.231   6.453
10398POPC   D2A68260  22.125  39.188   6.753
10398POPC   C3A68261  22.202  39.252   7.053
10398POPC   C4A68262  22.141  39.184   7.353
10398POPC   C1B68263  22.264  39.056   6.453
10398POPC   C2B68264  22.338  39.036   6.753
10398POPC   C3B68265  22.280  39.038   7.053
10398POPC   C4B68266  22.311  39.036   7.353
10399POPC   NC368267  14.407  33.791   5.553
10399POPC   PO468268  14.406  33.768   5.853
10399POPC   GL168269  14.417  33.766   6.153
10399POPC   GL268270  14.291  33.746   6.153
10399POPC   C1A68271  14.446  33.777   6.453
10399POPC   D2A68272  14.364  33.751   6.753
10399POPC   C3A68273  14.445  33.812   7.053
10399POPC   C4A68274  14.373  33.761   7.353
10399POPC   C1B68275  14.207  33.702   6.453
10399POPC   C2B68276  14.140  33.730   6.753
10399POPC   C3B68277  14.131  33.670   7.053
10399POPC   C4B68278  14.227  33.696   7.353
10400POPC   NC368279   2.759  19.044   5.553
10400POPC   PO468280   2.810  19.105   5.853
10400POPC   GL168281   2.732  19.038   6.153
10400POPC   GL268282   2.750  18.966   6.153
10400POPC   C1A68283   2.756  19.063   6.453
10400POPC   D2A68284   2.733  19.094   6.753
10400POPC   C3A68285   2.732  19.031   7.053
10400POPC   C4A68286   2.739  19.034   7.353
10400POPC   C1B68287   2.676  18.884   6.453
10400POPC   C2B68288   2.694  18.800   6.753
10400POPC   C3B68289   2.610  18.797   7.053
10400POPC   C4B68290   2.671  18.882   7.353
10401POPC   NC368291  12.881  13.640   5.553
10401POPC   PO468292  12.852  13.600   5.853
10401POPC   GL168293  12.827  13.603   6.153
10401POPC   GL268294  12.820  13.722   6.153
10401POPC   C1A68295  12.900  13.646   6.453
10401POPC   D2A68296  12.855  13.632   6.753
10401POPC   C3A68297  12.846  13.606   7.053
10401POPC   C4A68298  12.828  13.591   7.353
10401POPC   C1B68299  12.858  13.872   6.453
10401POPC   C2B68300  12.812  13.832   6.753
10401POPC   C3B68301  12.897  13.857   7.053
10401POPC   C4B68302  12.812  13.923   7.353
10402POPC   NC368303  13.590  39.992   5.553
10402POPC   PO468304  13.661  40.037   5.853
10402POPC   GL168305  13.672  40.015   6.153
10402POPC   GL268306  13.543  39.891   6.153
10402POPC   C1A68307  13.639  39.988   6.453
10402POPC   D2A68308  13.613  40.053   6.753
10402POPC   C3A68309  13.596  39.958   7.053
10402POPC   C4A68310  13.653  40.009   7.353
10402POPC   C1B68311  13.401  39.888   6.453
10402POPC   C2B68312  13.405  39.910   6.753
10402POPC   C3B68313  13.403  39.922   7.053
10402POPC   C4B68314  13.381  39.846   7.353
10403POPC   NC368315  39.183  33.064   5.553
10403POPC   PO468316  39.250  33.036   5.853
10403POPC   GL168317  39.270  33.070   6.153
10403POPC   GL268318  39.347  33.042   6.153
10403POPC   C1A68319  39.204  33.067   6.453
10403POPC   D2A68320  39.224  33.028   6.753
10403POPC   C3A68321  39.249  32.981   7.053
10403POPC   C4A68322  39.265  32.999   7.353
10403POPC   C1B68323  39.517  33.039   6.453
10403POPC   C2B68324  39.465  33.057   6.753
10403POPC   C3B68325  39.528  33.042   7.053
10403POPC   C4B68326  39.460  32.987   7.353
10404POPC   NC368327  27.579  22.138   5.553
10404POPC   PO468328  27.547  22.142   5.853
10404POPC   GL168329  27.639  22.168   6.153
10404POPC   GL268330  27.674  22.205   6.153
10404POPC   C1A68331  27.601  22.153   6.453
10404POPC   D2A68332  27.622  22.162   6.753
10404POPC   C3A68333  27.573  22.143   7.053
10404POPC   C4A68334  27.634  22.134   7.353
10404POPC   C1B68335  27.757  22.272   6.453
10404POPC   C2B68336  27.807  22.280   6.753
10404POPC   C3B68337  27.770  22.281   7.053
10404POPC   C4B68338  27.787  22.274   7.353
10405POPC   NC368339   5.839  12.853   5.553
10405POPC   PO468340   5.845  12.867   5.853
10405POPC   GL168341   5.859  12.874   6.153
10405POPC   GL268342   5.911  12.749   6.153
10405POPC   C1A68343   5.825  12.828   6.453
10405POPC   D2A68344   5.861  12.877   6.753
10405POPC   C3A68345   5.851  12.847   7.053
10405POPC   C4A68346   5.824  12.841   7.353
10405POPC   C1B68347   5.972  12.624   6.453
10405POPC   C2B68348   5.970  12.594   6.753
10405POPC   C3B68349   5.958  12.639   7.053
10405POPC   C4B68350   5.977  12.646   7.353
10406POPC   NC368351   1.220  22.168   5.553
10406POPC   PO468352   1.214  22.163   5.853
10406POPC   GL168353   1.179  22.165   6.153
10406POPC   GL268354   1.292  22.198   6.153
10406POPC   C1A68355   1.200  22.133   6.453
10406POPC   D2A68356   1.261  22.175   6.753
10406POPC   C3A68357   1.166  22.155   7.053
10406POPC   C4A68358   1.219  22.211   7.353
10406POPC   C1B68359   1.509  22.111   6.453
10406POPC   C2B68360   1.440  22.117   6.753
10406POPC   C3B68361   1.511  22.142   7.053
10406POPC   C4B68362   1.476  22.114   7.353
10407POPC   NC368363  36.897  32.291   5.553
10407POPC   PO468364  36.866  32.251   5.853
10407POPC   GL168365  36.934  32.210   6.153
10407POPC   GL268366  36.840  32.396   6.153
10407POPC   C1A68367  36.884  32.277   6.453
10407POPC   D2A68368  36.876  32.222   6.753
10407POPC   C3A68369  36.950  32.294   7.053
10407POPC   C4A68370  36.938  32.244   7.353
10407POPC   C1B68371  36.826  32.459   6.453
10407POPC   C2B68372  36.845  32.474   6.753
10407POPC   C3B68373  36.876  32.528   7.053
10407POPC   C4B68374  36.847  32.490   7.353
10408POPC   NC368375  14.436  22.920   5.553
10408POPC   PO468376  14.364  22.957   5.853
10408POPC   GL168377  14.377  22.957   6.153
10408POPC   GL268378  14.530  23.054   6.153
10408POPC   C1A68379  14.386  22.929   6.453
10408POPC   D2A68380  14.419  22.912   6.753
10408POPC   C3A68381  14.430  22.953   7.053
10408POPC   C4A68382  14.410  22.889   7.353
10408POPC   C1B68383  14.575  23.063   6.453
10408POPC   C2B68384  14.539  23.117   6.753
10408POPC   C3B68385  14.565  23.079   7.053
10408POPC   C4B68386  14.544  23.113   7.353
10409POPC   NC368387  16.757  40.038   5.553
10409POPC   PO468388  16.765  39.969   5.853
10409POPC   GL168389  16.719  39.981   6.153
10409POPC   GL268390  16.583  40.000   6.153
10409POPC   C1A68391  16.709  40.021   6.453
10409POPC   D2A68392  16.734  39.997   6.753
10409POPC   C3A68393  16.687  40.016   7.053
10409POPC   C4A68394  16.688  40.019   7.353
10409POPC   C1B68395  16.479  39.945   6.453
10409POPC   C2B68396  16.517  39.939   6.753
10409POPC   C3B68397  16.535  39.918   7.053
10409POPC   C4B68398  16.479  39.961   7.353
10410POPC   NC368399   2.722  40.043   5.553
10410POPC   PO468400   2.792  39.969   5.853
10410POPC   GL168401   2.798  39.999   6.153
10410POPC   GL268402   2.806  40.129   6.153
10410POPC   C1A68403   2.806  39.974   6.453
10410POPC   D2A68404   2.810  40.018   6.753
10410POPC   C3A68405   2.789  39.982   7.053
10410POPC   C4A68406   2.749  40.047   7.353
10410POPC   C1B68407   2.803  40.210   6.453
10410POPC   C2B68408   2.794  40.253   6.753
10410POPC   C3B68409   2.774  40.280   7.053
10410POPC   C4B68410   2.798  40.304   7.353
10411POPC   NC368411  36.153  32.252   5.553
10411POPC   PO468412  36.144  32.265   5.853
10411POPC   GL168413  36.103  32.203   6.153
10411POPC   GL268414  36.212  32.370   6.153
10411POPC   C1A68415  36.172  32.256   6.453
10411POPC   D2A68416  36.094  32.240   6.753
10411POPC   C3A68417  36.148  32.245   7.053
10411POPC   C4A68418  36.162  32.297   7.353
10411POPC   C1B68419  36.274  32.484   6.453
10411POPC   C2B68420  36.300  32.418   6.753
10411POPC   C3B68421  36.259  32.492   7.053
10411POPC   C4B68422  36.295  32.497   7.353
10412POPC   NC368423  18.267  38.441   5.553
10412POPC   PO468424  18.256  38.415   5.853
10412POPC   GL168425  18.325  38.460   6.153
10412POPC   GL268426  18.280  38.620   6.153
10412POPC   C1A68427  18.294  38.466   6.453
10412POPC   D2A68428  18.263  38.450   6.753
10412POPC   C3A68429  18.233  38.446   7.053
10412POPC   C4A68430  18.268  38.503   7.353
10412POPC   C1B68431  18.314  38.651   6.453
10412POPC   C2B68432  18.328  38.659   6.753
10412POPC   C3B68433  18.377  38.721   7.053
10412POPC   C4B68434  18.318  38.715   7.353
10413POPC   NC368435  38.488  29.126   5.553
10413POPC   PO468436  38.481  29.193   5.853
10413POPC   GL168437  38.496  29.175   6.153
10413POPC   GL268438  38.511  29.313   6.153
10413POPC   C1A68439  38.448  29.184   6.453
10413POPC   D2A68440  38.423  29.128   6.753
10413POPC   C3A68441  38.451  29.115   7.053
10413POPC   C4A68442  38.498  29.172   7.353
10413POPC   C1B68443  38.509  29.363   6.453
10413POPC   C2B68444  38.541  29.354   6.753
10413POPC   C3B68445  38.541  29.429   7.053
10413POPC   C4B68446  38.568  29.401   7.353
10414POPC   NC368447  18.302  40.737   5.553
10414POPC   PO468448  18.305  40.830   5.853
10414POPC   GL168449  18.315  40.751   6.153
10414POPC   GL268450  18.121  40.771   6.153
10414POPC   C1A68451  18.290  40.826   6.453
10414POPC   D2A68452  18.332  40.797   6.753
10414POPC   C3A68453  18.282  40.821   7.053
10414POPC   C4A68454  18.330  40.765   7.353
10414POPC   C1B68455  18.048  40.683   6.453
10414POPC   C2B68456  18.014  40.702   6.753
10414POPC   C3B68457  18.028  40.717   7.053
10414POPC   C4B68458  18.018  40.665   7.353
10415POPC   NC368459  12.823  43.900   5.553
10415POPC   PO468460  12.879  43.868   5.853
10415POPC   GL168461  12.830  43.887   6.153
10415POPC   GL268462  12.971  43.851   6.153
10415POPC   C1A68463  12.873  43.891   6.453
10415POPC   D2A68464  12.850  43.904   6.753
10415POPC   C3A68465  12.832  43.894   7.053
10415POPC   C4A68466  12.848  43.915   7.353
10415POPC   C1B68467  13.125  43.909   6.453
10415POPC   C2B68468  13.060  43.848   6.753
10415POPC   C3B68469  13.054  43.817   7.053
10415POPC   C4B68470  13.058  43.818   7.353
10416POPC   NC368471   8.984  35.326   5.553
10416POPC   PO468472   8.966  35.331   5.853
10416POPC   GL168473   9.003  35.304   6.153
10416POPC   GL268474   9.118  35.296   6.153
10416POPC   C1A68475   8.972  35.354   6.453
10416POPC   D2A68476   9.004  35.311   6.753
10416POPC   C3A68477   8.926  35.335   7.053
10416POPC   C4A68478   8.959  35.384   7.353
10416POPC   C1B68479   9.154  35.168   6.453
10416POPC   C2B68480   9.167  35.171   6.753
10416POPC   C3B68481   9.201  35.159   7.053
10416POPC   C4B68482   9.144  35.184   7.353
10417POPC   NC368483  27.632  15.999   5.553
10417POPC   PO468484  27.626  15.921   5.853
10417POPC   GL168485  27.625  15.911   6.153
10417POPC   GL268486  27.541  15.837   6.153
10417POPC   C1A68487  27.607  16.002   6.453
10417POPC   D2A68488  27.571  15.920   6.753
10417POPC   C3A68489  27.580  15.997   7.053
10417POPC   C4A68490  27.586  15.970   7.353
10417POPC   C1B68491  27.504  15.735   6.453
10417POPC   C2B68492  27.500  15.758   6.753
10417POPC   C3B68493  27.574  15.718   7.053
10417POPC   C4B68494  27.510  15.754   7.353
10418POPC   NC368495  43.935   0.405   5.553
10418POPC   PO468496  43.878   0.458   5.853
10418POPC   GL168497  43.907   0.444   6.153
10418POPC   GL268498  43.922   0.586   6.153
10418POPC   C1A68499  43.901   0.406   6.453
10418POPC   D2A68500  43.930   0.446   6.753
10418POPC   C3A68501  43.875   0.436   7.053
10418POPC   C4A68502  43.873   0.465   7.353
10418POPC   C1B68503  43.880   0.726   6.453
10418POPC   C2B68504  43.907   0.650   6.753
10418POPC   C3B68505  43.876   0.646   7.053
10418POPC   C4B68506  43.954   0.692   7.353
10419POPC   NC368507  16.743  19.075   5.553
10419POPC   PO468508  16.764  19.025   5.853
10419POPC   GL168509  16.725  19.019   6.153
10419POPC   GL268510  16.718  18.921   6.153
10419POPC   C1A68511  16.761  19.060   6.453
10419POPC   D2A68512  16.732  19.039   6.753
10419POPC   C3A68513  16.778  19.073   7.053
10419POPC   C4A68514  16.721  19.061   7.353
10419POPC   C1B68515  16.662  18.852   6.453
10419POPC   C2B68516  16.696  18.852   6.753
10419POPC   C3B68517  16.707  18.850   7.053
10419POPC   C4B68518  16.691  18.826   7.353
10420POPC   NC368519  36.920  22.120   5.553
10420POPC   PO468520  36.923  22.115   5.853
10420POPC   GL168521  36.876  22.203   6.153
10420POPC   GL268522  36.969  22.089   6.153
10420POPC   C1A68523  36.868  22.185   6.453
10420POPC   D2A68524  36.901  22.131   6.753
10420POPC   C3A68525  36.928  22.181   7.053
10420POPC   C4A68526  36.944  22.156   7.353
10420POPC   C1B68527  37.132  21.979   6.453
10420POPC   C2B68528  37.085  22.029   6.753
10420POPC   C3B68529  37.116  22.023   7.053
10420POPC   C4B68530  37.125  22.002   7.353
10421POPC   NC368531  37.663  27.614   5.553
10421POPC   PO468532  37.699  27.591   5.853
10421POPC   GL168533  37.679  27.580   6.153
10421POPC   GL268534  37.763  27.633   6.153
10421POPC   C1A68535  37.675  27.554   6.453
10421POPC   D2A68536  37.648  27.588   6.753
10421POPC   C3A68537  37.694  27.629   7.053
10421POPC   C4A68538  37.683  27.609   7.353
10421POPC   C1B68539  37.851  27.750   6.453
10421POPC   C2B68540  37.872  27.699   6.753
10421POPC   C3B68541  37.873  27.729   7.053
10421POPC   C4B68542  37.890  27.754   7.353
10422POPC   NC368543  33.769  26.865   5.553
10422POPC   PO468544  33.780  26.785   5.853
10422POPC   GL168545  33.843  26.802   6.153
10422POPC   GL268546  33.789  26.718   6.153
10422POPC   C1A68547  33.833  26.843   6.453
10422POPC   D2A68548  33.812  26.848   6.753
10422POPC   C3A68549  33.764  26.782   7.053
10422POPC   C4A68550  33.779  26.792   7.353
10422POPC   C1B68551  33.746  26.551   6.453
10422POPC   C2B68552  33.693  26.551   6.753
10422POPC   C3B68553  33.718  26.610   7.053
10422POPC   C4B68554  33.737  26.563   7.353
10423POPC   NC368555  12.815  21.367   5.553
10423POPC   PO468556  12.880  21.411   5.853
10423POPC   GL168557  12.864  21.399   6.153
10423POPC   GL268558  12.945  21.510   6.153
10423POPC   C1A68559  12.835  21.429   6.453
10423POPC   D2A68560  12.896  21.430   6.753
10423POPC   C3A68561  12.841  21.432   7.053
10423POPC   C4A68562  12.900  21.375   7.353
10423POPC   C1B68563  12.937  21.661   6.453
10423POPC   C2B68564  12.929  21.609   6.753
10423POPC   C3B68565  12.942  21.601   7.053
10423POPC   C4B68566  12.991  21.634   7.353
10424POPC   NC368567  26.011  18.294   5.553
10424POPC   PO468568  26.086  18.304   5.853
10424POPC   GL168569  26.019  18.237   6.153
10424POPC   GL268570  26.087  18.155   6.153
10424POPC   C1A68571  26.065  18.303   6.453
10424POPC   D2A68572  26.018  18.267   6.753
10424POPC   C3A68573  26.023  18.241   7.053
10424POPC   C4A68574  26.067  18.277   7.353
10424POPC   C1B68575  26.176  18.040   6.453
10424POPC   C2B68576  26.172  18.088   6.753
10424POPC   C3B68577  26.181  18.059   7.053
10424POPC   C4B68578  26.167  18.044   7.353
10425POPC   NC368579   4.330  10.493   5.553
10425POPC   PO468580   4.336  10.512   5.853
10425POPC   GL168581   4.328  10.485   6.153
10425POPC   GL268582   4.270  10.594   6.153
10425POPC   C1A68583   4.288  10.490   6.453
10425POPC   D2A68584   4.289  10.479   6.753
10425POPC   C3A68585   4.334  10.546   7.053
10425POPC   C4A68586   4.293  10.527   7.353
10425POPC   C1B68587   4.148  10.747   6.453
10425POPC   C2B68588   4.195  10.760   6.753
10425POPC   C3B68589   4.112  10.679   7.053
10425POPC   C4B68590   4.161  10.717   7.353
10426POPC   NC368591  36.908   2.758   5.553
10426POPC   PO468592  36.917   2.804   5.853
10426POPC   GL168593  36.871   2.730   6.153
10426POPC   GL268594  36.799   2.853   6.153
10426POPC   C1A68595  36.917   2.774   6.453
10426POPC   D2A68596  36.878   2.751   6.753
10426POPC   C3A68597  36.894   2.754   7.053
10426POPC   C4A68598  36.945   2.804   7.353
10426POPC   C1B68599  36.658   2.902   6.453
10426POPC   C2B68600  36.710   2.934   6.753
10426POPC   C3B68601  36.729   2.882   7.053
10426POPC   C4B68602  36.714   2.903   7.353
10427POPC   NC368603  36.906  39.265   5.553
10427POPC   PO468604  36.883  39.256   5.853
10427POPC   GL168605  36.891  39.227   6.153
10427POPC   GL268606  36.861  39.368   6.153
10427POPC   C1A68607  36.911  39.239   6.453
10427POPC   D2A68608  36.861  39.209   6.753
10427POPC   C3A68609  36.884  39.222   7.053
10427POPC   C4A68610  36.951  39.260   7.353
10427POPC   C1B68611  36.837  39.516   6.453
10427POPC   C2B68612  36.826  39.495   6.753
10427POPC   C3B68613  36.797  39.422   7.053
10427POPC   C4B68614  36.794  39.424   7.353
10428POPC   NC368615   3.518   9.755   5.553
10428POPC   PO468616   3.532   9.775   5.853
10428POPC   GL168617   3.557   9.745   6.153
10428POPC   GL268618   3.520   9.601   6.153
10428POPC   C1A68619   3.581   9.729   6.453
10428POPC   D2A68620   3.551   9.787   6.753
10428POPC   C3A68621   3.544   9.752   7.053
10428POPC   C4A68622   3.546   9.746   7.353
10428POPC   C1B68623   3.537   9.455   6.453
10428POPC   C2B68624   3.467   9.541   6.753
10428POPC   C3B68625   3.519   9.542   7.053
10428POPC   C4B68626   3.542   9.495   7.353
10429POPC   NC368627  15.154  43.150   5.553
10429POPC   PO468628  15.190  43.156   5.853
10429POPC   GL168629  15.135  43.079   6.153
10429POPC   GL268630  15.111  42.956   6.153
10429POPC   C1A68631  15.130  43.091   6.453
10429POPC   D2A68632  15.194  43.078   6.753
10429POPC   C3A68633  15.139  43.138   7.053
10429POPC   C4A68634  15.153  43.070   7.353
10429POPC   C1B68635  15.027  42.852   6.453
10429POPC   C2B68636  15.078  42.913   6.753
10429POPC   C3B68637  15.092  42.852   7.053
10429POPC   C4B68638  15.061  42.846   7.353
10430POPC   NC368639  39.231  43.917   5.553
10430POPC   PO468640  39.272  43.842   5.853
10430POPC   GL168641  39.226  43.845   6.153
10430POPC   GL268642  39.226  43.965   6.153
10430POPC   C1A68643  39.281  43.890   6.453
10430POPC   D2A68644  39.274  43.848   6.753
10430POPC   C3A68645  39.264  43.856   7.053
10430POPC   C4A68646  39.236  43.894   7.353
10430POPC   C1B68647  39.286  44.123   6.453
10430POPC   C2B68648  39.257  44.172   6.753
10430POPC   C3B68649  39.267  44.175   7.053
10430POPC   C4B68650  39.274  44.166   7.353
10431POPC   NC368651  35.355  23.673   5.553
10431POPC   PO468652  35.380  23.758   5.853
10431POPC   GL168653  35.337  23.691   6.153
10431POPC   GL268654  35.226  23.629   6.153
10431POPC   C1A68655  35.358  23.756   6.453
10431POPC   D2A68656  35.336  23.726   6.753
10431POPC   C3A68657  35.332  23.685   7.053
10431POPC   C4A68658  35.321  23.668   7.353
10431POPC   C1B68659  35.140  23.620   6.453
10431POPC   C2B68660  35.092  23.684   6.753
10431POPC   C3B68661  35.105  23.658   7.053
10431POPC   C4B68662  35.110  23.651   7.353
10432POPC   NC368663  37.679  25.225   5.553
10432POPC   PO468664  37.708  25.278   5.853
10432POPC   GL168665  37.662  25.275   6.153
10432POPC   GL268666  37.705  25.400   6.153
10432POPC   C1A68667  37.633  25.288   6.453
10432POPC   D2A68668  37.671  25.237   6.753
10432POPC   C3A68669  37.646  25.216   7.053
10432POPC   C4A68670  37.727  25.219   7.353
10432POPC   C1B68671  37.750  25.478   6.453
10432POPC   C2B68672  37.741  25.547   6.753
10432POPC   C3B68673  37.736  25.467   7.053
10432POPC   C4B68674  37.731  25.472   7.353
10433POPC   NC368675  16.005  29.171   5.553
10433POPC   PO468676  15.968  29.151   5.853
10433POPC   GL168677  15.963  29.138   6.153
10433POPC   GL268678  15.864  29.180   6.153
10433POPC   C1A68679  15.944  29.177   6.453
10433POPC   D2A68680  15.963  29.163   6.753
10433POPC   C3A68681  15.961  29.172   7.053
10433POPC   C4A68682  16.000  29.140   7.353
10433POPC   C1B68683  15.719  29.116   6.453
10433POPC   C2B68684  15.708  29.134   6.753
10433POPC   C3B68685  15.701  29.194   7.053
10433POPC   C4B68686  15.746  29.155   7.353
10434POPC   NC368687  39.985  40.760   5.553
10434POPC   PO468688  39.990  40.759   5.853
10434POPC   GL168689  39.971  40.769   6.153
10434POPC   GL268690  40.047  40.663   6.153
10434POPC   C1A68691  39.995  40.785   6.453
10434POPC   D2A68692  39.970  40.809   6.753
10434POPC   C3A68693  40.000  40.762   7.053
10434POPC   C4A68694  40.034  40.750   7.353
10434POPC   C1B68695  40.033  40.505   6.453
10434POPC   C2B68696  39.987  40.526   6.753
10434POPC   C3B68697  39.954  40.572   7.053
10434POPC   C4B68698  40.002  40.532   7.353
10435POPC   NC368699  27.595  36.138   5.553
10435POPC   PO468700  27.602  36.085   5.853
10435POPC   GL168701  27.596  36.087   6.153
10435POPC   GL268702  27.548  36.212   6.153
10435POPC   C1A68703  27.573  36.153   6.453
10435POPC   D2A68704  27.607  36.125   6.753
10435POPC   C3A68705  27.602  36.094   7.053
10435POPC   C4A68706  27.546  36.131   7.353
10435POPC   C1B68707  27.382  36.331   6.453
10435POPC   C2B68708  27.423  36.278   6.753
10435POPC   C3B68709  27.432  36.296   7.053
10435POPC   C4B68710  27.413  36.335   7.353
10436POPC   NC368711  28.377  25.250   5.553
10436POPC   PO468712  28.375  25.276   5.853
10436POPC   GL168713  28.336  25.230   6.153
10436POPC   GL268714  28.434  25.349   6.153
10436POPC   C1A68715  28.374  25.259   6.453
10436POPC   D2A68716  28.364  25.231   6.753
10436POPC   C3A68717  28.384  25.302   7.053
10436POPC   C4A68718  28.361  25.310   7.353
10436POPC   C1B68719  28.535  25.457   6.453
10436POPC   C2B68720  28.610  25.390   6.753
10436POPC   C3B68721  28.617  25.379   7.053
10436POPC   C4B68722  28.578  25.446   7.353
10437POPC   NC368723  42.300  26.772   5.553
10437POPC   PO468724  42.337  26.865   5.853
10437POPC   GL168725  42.329  26.810   6.153
10437POPC   GL268726  42.319  26.951   6.153
10437POPC   C1A68727  42.348  26.791   6.453
10437POPC   D2A68728  42.315  26.818   6.753
10437POPC   C3A68729  42.306  26.798   7.053
10437POPC   C4A68730  42.287  26.784   7.353
10437POPC   C1B68731  42.340  27.022   6.453
10437POPC   C2B68732  42.377  27.053   6.753
10437POPC   C3B68733  42.348  27.089   7.053
10437POPC   C4B68734  42.315  27.026   7.353
10438POPC   NC368735  43.143  25.255   5.553
10438POPC   PO468736  43.146  25.301   5.853
10438POPC   GL168737  43.103  25.296   6.153
10438POPC   GL268738  43.170  25.360   6.153
10438POPC   C1A68739  43.138  25.291   6.453
10438POPC   D2A68740  43.119  25.311   6.753
10438POPC   C3A68741  43.061  25.228   7.053
10438POPC   C4A68742  43.121  25.271   7.353
10438POPC   C1B68743  43.304  25.441   6.453
10438POPC   C2B68744  43.293  25.508   6.753
10438POPC   C3B68745  43.300  25.480   7.053
10438POPC   C4B68746  43.243  25.428   7.353
10439POPC   NC368747  22.120  26.036   5.553
10439POPC   PO468748  22.152  26.068   5.853
10439POPC   GL168749  22.138  26.021   6.153
10439POPC   GL268750  22.087  26.032   6.153
10439POPC   C1A68751  22.159  26.008   6.453
10439POPC   D2A68752  22.120  26.038   6.753
10439POPC   C3A68753  22.160  26.084   7.053
10439POPC   C4A68754  22.116  26.068   7.353
10439POPC   C1B68755  21.942  26.062   6.453
10439POPC   C2B68756  21.889  26.027   6.753
10439POPC   C3B68757  21.905  26.089   7.053
10439POPC   C4B68758  21.926  26.059   7.353
10440POPC   NC368759   5.067  23.740   5.553
10440POPC   PO468760   5.053  23.671   5.853
10440POPC   GL168761   5.128  23.687   6.153
10440POPC   GL268762   4.935  23.701   6.153
10440POPC   C1A68763   5.125  23.688   6.453
10440POPC   D2A68764   5.097  23.676   6.753
10440POPC   C3A68765   5.050  23.736   7.053
10440POPC   C4A68766   5.046  23.673   7.353
10440POPC   C1B68767   4.831  23.690   6.453
10440POPC   C2B68768   4.823  23.712   6.753
10440POPC   C3B68769   4.822  23.747   7.053
10440POPC   C4B68770   4.892  23.676   7.353
10441POPC   NC368771  44.671  21.347   5.553
10441POPC   PO468772  44.661  21.381   5.853
10441POPC   GL168773  44.688  21.411   6.153
10441POPC   GL268774  44.573  21.300   6.153
10441POPC   C1A68775  44.647  21.421   6.453
10441POPC   D2A68776  44.619  21.382   6.753
10441POPC   C3A68777  44.658  21.343   7.053
10441POPC   C4A68778  44.616  21.367   7.353
10441POPC   C1B68779  44.483  21.189   6.453
10441POPC   C2B68780  44.572  21.195   6.753
10441POPC   C3B68781  44.475  21.160   7.053
10441POPC   C4B68782  44.538  21.161   7.353
10442POPC   NC368783   9.775  35.360   5.553
10442POPC   PO468784   9.713  35.383   5.853
10442POPC   GL168785   9.704  35.318   6.153
10442POPC   GL268786   9.662  35.382   6.153
10442POPC   C1A68787   9.782  35.373   6.453
10442POPC   D2A68788   9.767  35.392   6.753
10442POPC   C3A68789   9.782  35.313   7.053
10442POPC   C4A68790   9.701  35.305   7.353
10442POPC   C1B68791   9.547  35.348   6.453
10442POPC   C2B68792   9.534  35.380   6.753
10442POPC   C3B68793   9.514  35.388   7.053
10442POPC   C4B68794   9.514  35.419   7.353
10443POPC   NC368795  33.074  36.935   5.553
10443POPC   PO468796  33.048  36.947   5.853
10443POPC   GL168797  32.978  36.886   6.153
10443POPC   GL268798  32.875  36.951   6.153
10443POPC   C1A68799  33.033  36.891   6.453
10443POPC   D2A68800  33.031  36.862   6.753
10443POPC   C3A68801  33.032  36.920   7.053
10443POPC   C4A68802  33.045  36.891   7.353
10443POPC   C1B68803  32.825  36.994   6.453
10443POPC   C2B68804  32.809  36.989   6.753
10443POPC   C3B68805  32.737  36.914   7.053
10443POPC   C4B68806  32.786  36.914   7.353
10444POPC   NC368807   8.173  39.244   5.553
10444POPC   PO468808   8.179  39.261   5.853
10444POPC   GL168809   8.203  39.207   6.153
10444POPC   GL268810   8.072  39.192   6.153
10444POPC   C1A68811   8.229  39.247   6.453
10444POPC   D2A68812   8.171  39.238   6.753
10444POPC   C3A68813   8.220  39.230   7.053
10444POPC   C4A68814   8.161  39.198   7.353
10444POPC   C1B68815   7.973  39.129   6.453
10444POPC   C2B68816   7.977  39.181   6.753
10444POPC   C3B68817   7.960  39.143   7.053
10444POPC   C4B68818   7.987  39.150   7.353
10445POPC   NC368819  17.479   9.787   5.553
10445POPC   PO468820  17.487   9.773   5.853
10445POPC   GL168821  17.482   9.703   6.153
10445POPC   GL268822  17.371   9.787   6.153
10445POPC   C1A68823  17.464   9.762   6.453
10445POPC   D2A68824  17.502   9.707   6.753
10445POPC   C3A68825  17.500   9.795   7.053
10445POPC   C4A68826  17.529   9.707   7.353
10445POPC   C1B68827  17.321   9.817   6.453
10445POPC   C2B68828  17.234   9.819   6.753
10445POPC   C3B68829  17.233   9.862   7.053
10445POPC   C4B68830  17.274   9.842   7.353
10446POPC   NC368831  28.379  16.689   5.553
10446POPC   PO468832  28.352  16.767   5.853
10446POPC   GL168833  28.343  16.701   6.153
10446POPC   GL268834  28.398  16.883   6.153
10446POPC   C1A68835  28.365  16.726   6.453
10446POPC   D2A68836  28.419  16.758   6.753
10446POPC   C3A68837  28.358  16.774   7.053
10446POPC   C4A68838  28.323  16.688   7.353
10446POPC   C1B68839  28.461  16.948   6.453
10446POPC   C2B68840  28.531  16.952   6.753
10446POPC   C3B68841  28.498  16.966   7.053
10446POPC   C4B68842  28.471  16.891   7.353
10447POPC   NC368843   6.658  39.202   5.553
10447POPC   PO468844   6.640  39.267   5.853
10447POPC   GL168845   6.606  39.271   6.153
10447POPC   GL268846   6.582  39.074   6.153
10447POPC   C1A68847   6.683  39.212   6.453
10447POPC   D2A68848   6.657  39.239   6.753
10447POPC   C3A68849   6.673  39.200   7.053
10447POPC   C4A68850   6.616  39.222   7.353
10447POPC   C1B68851   6.499  39.057   6.453
10447POPC   C2B68852   6.581  39.037   6.753
10447POPC   C3B68853   6.561  38.959   7.053
10447POPC   C4B68854   6.549  39.013   7.353
10448POPC   NC368855   4.344  39.209   5.553
10448POPC   PO468856   4.278  39.221   5.853
10448POPC   GL168857   4.335  39.221   6.153
10448POPC   GL268858   4.396  39.159   6.153
10448POPC   C1A68859   4.331  39.278   6.453
10448POPC   D2A68860   4.354  39.229   6.753
10448POPC   C3A68861   4.348  39.187   7.053
10448POPC   C4A68862   4.282  39.187   7.353
10448POPC   C1B68863   4.504  39.014   6.453
10448POPC   C2B68864   4.461  38.987   6.753
10448POPC   C3B68865   4.512  39.043   7.053
10448POPC   C4B68866   4.513  39.012   7.353
10449POPC   NC368867  44.675  24.490   5.553
10449POPC   PO468868  44.675  24.496   5.853
10449POPC   GL168869  44.702  24.471   6.153
10449POPC   GL268870  44.698  24.372   6.153
10449POPC   C1A68871  44.694  24.512   6.453
10449POPC   D2A68872  44.650  24.499   6.753
10449POPC   C3A68873  44.633  24.526   7.053
10449POPC   C4A68874  44.711  24.536   7.353
10449POPC   C1B68875  44.820  24.301   6.453
10449POPC   C2B68876  44.810  24.346   6.753
10449POPC   C3B68877  44.866  24.349   7.053
10449POPC   C4B68878  44.781  24.256   7.353
10450POPC   NC368879   1.176  42.320   5.553
10450POPC   PO468880   1.200  42.362   5.853
10450POPC   GL168881   1.217  42.296   6.153
10450POPC   GL268882   1.303  42.251   6.153
10450POPC   C1A68883   1.188  42.377   6.453
10450POPC   D2A68884   1.204  42.380   6.753
10450POPC   C3A68885   1.196  42.359   7.053
10450POPC   C4A68886   1.221  42.374   7.353
10450POPC   C1B68887   1.466  42.262   6.453
10450POPC   C2B68888   1.473  42.190   6.753
10450POPC   C3B68889   1.434  42.170   7.053
10450POPC   C4B68890   1.457  42.197   7.353
10451POPC   NC368891  21.364  33.795   5.553
10451POPC   PO468892  21.390  33.786   5.853
10451POPC   GL168893  21.350  33.760   6.153
10451POPC   GL268894  21.451  33.731   6.153
10451POPC   C1A68895  21.404  33.795   6.453
10451POPC   D2A68896  21.362  33.796   6.753
10451POPC   C3A68897  21.430  33.790   7.053
10451POPC   C4A68898  21.395  33.760   7.353
10451POPC   C1B68899  21.483  33.620   6.453
10451POPC   C2B68900  21.500  33.575   6.753
10451POPC   C3B68901  21.545  33.587   7.053
10451POPC   C4B68902  21.485  33.625   7.353
10452POPC   NC368903  40.754  23.751   5.553
10452POPC   PO468904  40.825  23.683   5.853
10452POPC   GL168905  40.810  23.734   6.153
10452POPC   GL268906  40.763  23.592   6.153
10452POPC   C1A68907  40.831  23.671   6.453
10452POPC   D2A68908  40.736  23.697   6.753
10452POPC   C3A68909  40.806  23.672   7.053
10452POPC   C4A68910  40.816  23.692   7.353
10452POPC   C1B68911  40.700  23.541   6.453
10452POPC   C2B68912  40.623  23.507   6.753
10452POPC   C3B68913  40.653  23.457   7.053
10452POPC   C4B68914  40.648  23.470   7.353
10453POPC   NC368915  22.961   8.163   5.553
10453POPC   PO468916  22.906   8.220   5.853
10453POPC   GL168917  22.977   8.178   6.153
10453POPC   GL268918  22.841   8.188   6.153
10453POPC   C1A68919  22.958   8.158   6.453
10453POPC   D2A68920  22.927   8.222   6.753
10453POPC   C3A68921  22.969   8.228   7.053
10453POPC   C4A68922  22.973   8.209   7.353
10453POPC   C1B68923  22.691   8.163   6.453
10453POPC   C2B68924  22.722   8.171   6.753
10453POPC   C3B68925  22.727   8.118   7.053
10453POPC   C4B68926  22.725   8.101   7.353
10454POPC   NC368927  17.545  41.518   5.553
10454POPC   PO468928  17.462  41.569   5.853
10454POPC   GL168929  17.467  41.599   6.153
10454POPC   GL268930  17.485  41.699   6.153
10454POPC   C1A68931  17.486  41.588   6.453
10454POPC   D2A68932  17.482  41.547   6.753
10454POPC   C3A68933  17.512  41.509   7.053
10454POPC   C4A68934  17.552  41.564   7.353
10454POPC   C1B68935  17.487  41.816   6.453
10454POPC   C2B68936  17.536  41.840   6.753
10454POPC   C3B68937  17.481  41.779   7.053
10454POPC   C4B68938  17.453  41.805   7.353
10455POPC   NC368939  34.610  27.551   5.553
10455POPC   PO468940  34.561  27.570   5.853
10455POPC   GL168941  34.529  27.546   6.153
10455POPC   GL268942  34.418  27.544   6.153
10455POPC   C1A68943  34.584  27.576   6.453
10455POPC   D2A68944  34.539  27.567   6.753
10455POPC   C3A68945  34.603  27.548   7.053
10455POPC   C4A68946  34.546  27.553   7.353
10455POPC   C1B68947  34.314  27.466   6.453
10455POPC   C2B68948  34.347  27.514   6.753
10455POPC   C3B68949  34.333  27.506   7.053
10455POPC   C4B68950  34.360  27.537   7.353
10456POPC   NC368951  24.495  15.196   5.553
10456POPC   PO468952  24.477  15.224   5.853
10456POPC   GL168953  24.519  15.203   6.153
10456POPC   GL268954  24.423  15.286   6.153
10456POPC   C1A68955  24.451  15.221   6.453
10456POPC   D2A68956  24.512  15.226   6.753
10456POPC   C3A68957  24.512  15.224   7.053
10456POPC   C4A68958  24.527  15.209   7.353
10456POPC   C1B68959  24.249  15.365   6.453
10456POPC   C2B68960  24.317  15.304   6.753
10456POPC   C3B68961  24.250  15.288   7.053
10456POPC   C4B68962  24.313  15.316   7.353
10457POPC   NC368963  33.068  31.427   5.553
10457POPC   PO468964  32.975  31.484   5.853
10457POPC   GL168965  33.027  31.436   6.153
10457POPC   GL268966  33.126  31.325   6.153
10457POPC   C1A68967  32.984  31.449   6.453
10457POPC   D2A68968  33.010  31.440   6.753
10457POPC   C3A68969  33.055  31.429   7.053
10457POPC   C4A68970  33.038  31.463   7.353
10457POPC   C1B68971  33.129  31.225   6.453
10457POPC   C2B68972  33.166  31.311   6.753
10457POPC   C3B68973  33.183  31.264   7.053
10457POPC   C4B68974  33.199  31.301   7.353
10458POPC   NC368975  29.946  36.928   5.553
10458POPC   PO468976  29.952  36.865   5.853
10458POPC   GL168977  29.886  36.878   6.153
10458POPC   GL268978  29.978  36.748   6.153
10458POPC   C1A68979  29.933  36.858   6.453
10458POPC   D2A68980  29.970  36.902   6.753
10458POPC   C3A68981  29.916  36.895   7.053
10458POPC   C4A68982  29.884  36.874   7.353
10458POPC   C1B68983  29.934  36.703   6.453
10458POPC   C2B68984  29.983  36.634   6.753
10458POPC   C3B68985  29.933  36.610   7.053
10458POPC   C4B68986  29.933  36.702   7.353
10459POPC   NC368987  29.890  14.414   5.553
10459POPC   PO468988  29.901  14.388   5.853
10459POPC   GL168989  29.933  14.453   6.153
10459POPC   GL268990  29.999  14.355   6.153
10459POPC   C1A68991  29.949  14.422   6.453
10459POPC   D2A68992  29.895  14.394   6.753
10459POPC   C3A68993  29.930  14.390   7.053
10459POPC   C4A68994  29.944  14.417   7.353
10459POPC   C1B68995  30.136  14.362   6.453
10459POPC   C2B68996  30.132  14.299   6.753
10459POPC   C3B68997  30.207  14.381   7.053
10459POPC   C4B68998  30.193  14.355   7.353
10460POPC   NC368999  20.564  27.555   5.553
10460POPC   PO469000  20.593  27.639   5.853
10460POPC   GL169001  20.585  27.627   6.153
10460POPC   GL269002  20.685  27.658   6.153
10460POPC   C1A69003  20.639  27.595   6.453
10460POPC   D2A69004  20.651  27.574   6.753
10460POPC   C3A69005  20.593  27.600   7.053
10460POPC   C4A69006  20.565  27.629   7.353
10460POPC   C1B69007  20.794  27.847   6.453
10460POPC   C2B69008  20.734  27.816   6.753
10460POPC   C3B69009  20.706  27.803   7.053
10460POPC   C4B69010  20.759  27.777   7.353
10461POPC   NC369011   4.359   2.027   5.553
10461POPC   PO469012   4.351   2.036   5.853
10461POPC   GL169013   4.337   1.975   6.153
10461POPC   GL269014   4.169   1.889   6.153
10461POPC   C1A69015   4.289   1.967   6.453
10461POPC   D2A69016   4.346   1.951   6.753
10461POPC   C3A69017   4.294   1.972   7.053
10461POPC   C4A69018   4.322   1.982   7.353
10461POPC   C1B69019   4.138   1.872   6.453
10461POPC   C2B69020   4.109   1.907   6.753
10461POPC   C3B69021   4.131   1.867   7.053
10461POPC   C4B69022   4.130   1.879   7.353
10462POPC   NC369023  28.390  30.735   5.553
10462POPC   PO469024  28.372  30.689   5.853
10462POPC   GL169025  28.337  30.669   6.153
10462POPC   GL269026  28.303  30.591   6.153
10462POPC   C1A69027  28.405  30.680   6.453
10462POPC   D2A69028  28.396  30.675   6.753
10462POPC   C3A69029  28.372  30.661   7.053
10462POPC   C4A69030  28.403  30.650   7.353
10462POPC   C1B69031  28.347  30.483   6.453
10462POPC   C2B69032  28.270  30.414   6.753
10462POPC   C3B69033  28.308  30.482   7.053
10462POPC   C4B69034  28.321  30.505   7.353
10463POPC   NC369035  42.346  36.912   5.553
10463POPC   PO469036  42.381  36.861   5.853
10463POPC   GL169037  42.310  36.945   6.153
10463POPC   GL269038  42.429  36.973   6.153
10463POPC   C1A69039  42.287  36.886   6.453
10463POPC   D2A69040  42.364  36.931   6.753
10463POPC   C3A69041  42.330  36.900   7.053
10463POPC   C4A69042  42.327  36.939   7.353
10463POPC   C1B69043  42.455  37.116   6.453
10463POPC   C2B69044  42.435  37.112   6.753
10463POPC   C3B69045  42.413  37.100   7.053
10463POPC   C4B69046  42.463  37.128   7.353
10464POPC   NC369047  40.775  33.060   5.553
10464POPC   PO469048  40.759  32.986   5.853
10464POPC   GL169049  40.765  32.995   6.153
10464POPC   GL269050  40.832  32.946   6.153
10464POPC   C1A69051  40.781  33.039   6.453
10464POPC   D2A69052  40.822  32.991   6.753
10464POPC   C3A69053  40.793  33.062   7.053
10464POPC   C4A69054  40.736  32.994   7.353
10464POPC   C1B69055  40.917  32.812   6.453
10464POPC   C2B69056  40.879  32.818   6.753
10464POPC   C3B69057  40.876  32.763   7.053
10464POPC   C4B69058  40.914  32.814   7.353
10465POPC   NC369059  19.056  35.368   5.553
10465POPC   PO469060  19.089  35.303   5.853
10465POPC   GL169061  19.060  35.354   6.153
10465POPC   GL269062  19.174  35.358   6.153
10465POPC   C1A69063  19.022  35.380   6.453
10465POPC   D2A69064  19.033  35.371   6.753
10465POPC   C3A69065  19.042  35.327   7.053
10465POPC   C4A69066  19.024  35.401   7.353
10465POPC   C1B69067  19.284  35.437   6.453
10465POPC   C2B69068  19.327  35.361   6.753
10465POPC   C3B69069  19.267  35.411   7.053
10465POPC   C4B69070  19.318  35.387   7.353
10466POPC   NC369071  39.214   9.013   5.553
10466POPC   PO469072  39.205   9.008   5.853
10466POPC   GL169073  39.200   8.980   6.153
10466POPC   GL269074  39.225   8.868   6.153
10466POPC   C1A69075  39.186   8.937   6.453
10466POPC   D2A69076  39.232   9.017   6.753
10466POPC   C3A69077  39.243   8.932   7.053
10466POPC   C4A69078  39.192   8.992   7.353
10466POPC   C1B69079  39.228   8.738   6.453
10466POPC   C2B69080  39.214   8.750   6.753
10466POPC   C3B69081  39.217   8.687   7.053
10466POPC   C4B69082  39.206   8.757   7.353
10467POPC   NC369083  23.668  12.846   5.553
10467POPC   PO469084  23.716  12.896   5.853
10467POPC   GL169085  23.734  12.883   6.153
10467POPC   GL269086  23.566  12.778   6.153
10467POPC   C1A69087  23.680  12.843   6.453
10467POPC   D2A69088  23.754  12.827   6.753
10467POPC   C3A69089  23.739  12.809   7.053
10467POPC   C4A69090  23.755  12.831   7.353
10467POPC   C1B69091  23.456  12.748   6.453
10467POPC   C2B69092  23.520  12.742   6.753
10467POPC   C3B69093  23.427  12.764   7.053
10467POPC   C4B69094  23.446  12.729   7.353
10468POPC   NC369095  12.114   1.169   5.553
10468POPC   PO469096  12.102   1.191   5.853
10468POPC   GL169097  12.034   1.170   6.153
10468POPC   GL269098  11.989   1.232   6.153
10468POPC   C1A69099  12.097   1.168   6.453
10468POPC   D2A69100  12.033   1.247   6.753
10468POPC   C3A69101  12.062   1.262   7.053
10468POPC   C4A69102  12.036   1.241   7.353
10468POPC   C1B69103  11.806   1.195   6.453
10468POPC   C2B69104  11.808   1.152   6.753
10468POPC   C3B69105  11.790   1.162   7.053
10468POPC   C4B69106  11.855   1.167   7.353
10469POPC   NC369107   4.309  38.436   5.553
10469POPC   PO469108   4.314  38.416   5.853
10469POPC   GL169109   4.337  38.477   6.153
10469POPC   GL269110   4.227  38.386   6.153
10469POPC   C1A69111   4.351  38.439   6.453
10469POPC   D2A69112   4.363  38.406   6.753
10469POPC   C3A69113   4.276  38.502   7.053
10469POPC   C4A69114   4.333  38.413   7.353
10469POPC   C1B69115   4.123  38.345   6.453
10469POPC   C2B69116   4.124  38.266   6.753
10469POPC   C3B69117   4.117  38.261   7.053
10469POPC   C4B69118   4.157  38.301   7.353
10470POPC   NC369119  33.804  12.845   5.553
10470POPC   PO469120  33.838  12.846   5.853
10470POPC   GL169121  33.806  12.872   6.153
10470POPC   GL269122  33.903  12.965   6.153
10470POPC   C1A69123  33.786  12.818   6.453
10470POPC   D2A69124  33.841  12.830   6.753
10470POPC   C3A69125  33.792  12.897   7.053
10470POPC   C4A69126  33.830  12.826   7.353
10470POPC   C1B69127  33.951  13.022   6.453
10470POPC   C2B69128  33.944  13.026   6.753
10470POPC   C3B69129  33.908  13.112   7.053
10470POPC   C4B69130  33.905  13.102   7.353
10471POPC   NC369131  27.580  23.732   5.553
10471POPC   PO469132  27.597  23.671   5.853
10471POPC   GL169133  27.548  23.695   6.153
10471POPC   GL269134  27.433  23.714   6.153
10471POPC   C1A69135  27.587  23.755   6.453
10471POPC   D2A69136  27.631  23.682   6.753
10471POPC   C3A69137  27.617  23.675   7.053
10471POPC   C4A69138  27.548  23.694   7.353
10471POPC   C1B69139  27.377  23.764   6.453
10471POPC   C2B69140  27.327  23.839   6.753
10471POPC   C3B69141  27.320  23.767   7.053
10471POPC   C4B69142  27.346  23.814   7.353
10472POPC   NC369143   7.391  33.028   5.553
10472POPC   PO469144   7.382  32.986   5.853
10472POPC   GL169145   7.423  32.994   6.153
10472POPC   GL269146   7.466  33.169   6.153
10472POPC   C1A69147   7.444  33.035   6.453
10472POPC   D2A69148   7.404  33.030   6.753
10472POPC   C3A69149   7.413  33.038   7.053
10472POPC   C4A69150   7.417  32.993   7.353
10472POPC   C1B69151   7.592  33.204   6.453
10472POPC   C2B69152   7.569  33.260   6.753
10472POPC   C3B69153   7.581  33.190   7.053
10472POPC   C4B69154   7.594  33.224   7.353
10473POPC   NC369155   8.961  37.644   5.553
10473POPC   PO469156   8.924  37.703   5.853
10473POPC   GL169157   9.008  37.703   6.153
10473POPC   GL269158   8.870  37.571   6.153
10473POPC   C1A69159   8.954  37.696   6.453
10473POPC   D2A69160   8.951  37.637   6.753
10473POPC   C3A69161   8.947  37.654   7.053
10473POPC   C4A69162   8.932  37.679   7.353
10473POPC   C1B69163   8.804  37.488   6.453
10473POPC   C2B69164   8.787  37.480   6.753
10473POPC   C3B69165   8.876  37.476   7.053
10473POPC   C4B69166   8.791  37.466   7.353
10474POPC   NC369167  41.572  39.272   5.553
10474POPC   PO469168  41.525  39.189   5.853
10474POPC   GL169169  41.566  39.197   6.153
10474POPC   GL269170  41.459  39.323   6.153
10474POPC   C1A69171  41.608  39.193   6.453
10474POPC   D2A69172  41.562  39.279   6.753
10474POPC   C3A69173  41.572  39.250   7.053
10474POPC   C4A69174  41.535  39.206   7.353
10474POPC   C1B69175  41.386  39.337   6.453
10474POPC   C2B69176  41.375  39.407   6.753
10474POPC   C3B69177  41.380  39.381   7.053
10474POPC   C4B69178  41.337  39.396   7.353
10475POPC   NC369179   1.235  36.155   5.553
10475POPC   PO469180   1.170  36.136   5.853
10475POPC   GL169181   1.192  36.129   6.153
10475POPC   GL269182   1.117  36.053   6.153
10475POPC   C1A69183   1.184  36.122   6.453
10475POPC   D2A69184   1.192  36.104   6.753
10475POPC   C3A69185   1.203  36.102   7.053
10475POPC   C4A69186   1.252  36.081   7.353
10475POPC   C1B69187   1.011  35.980   6.453
10475POPC   C2B69188   0.992  35.981   6.753
10475POPC   C3B69189   1.030  36.008   7.053
10475POPC   C4B69190   1.038  36.000   7.353
10476POPC   NC369191   7.417  31.512   5.553
10476POPC   PO469192   7.387  31.451   5.853
10476POPC   GL169193   7.418  31.505   6.153
10476POPC   GL269194   7.431  31.557   6.153
10476POPC   C1A69195   7.395  31.511   6.453
10476POPC   D2A69196   7.374  31.429   6.753
10476POPC   C3A69197   7.413  31.442   7.053
10476POPC   C4A69198   7.467  31.459   7.353
10476POPC   C1B69199   7.454  31.704   6.453
10476POPC   C2B69200   7.484  31.700   6.753
10476POPC   C3B69201   7.440  31.729   7.053
10476POPC   C4B69202   7.415  31.718   7.353
10477POPC   NC369203  26.036  29.898   5.553
10477POPC   PO469204  26.076  29.881   5.853
10477POPC   GL169205  26.076  29.953   6.153
10477POPC   GL269206  26.157  29.893   6.153
10477POPC   C1A69207  26.059  29.898   6.453
10477POPC   D2A69208  26.002  29.889   6.753
10477POPC   C3A69209  26.030  29.911   7.053
10477POPC   C4A69210  26.017  29.921   7.353
10477POPC   C1B69211  26.320  29.981   6.453
10477POPC   C2B69212  26.311  29.935   6.753
10477POPC   C3B69213  26.288  29.965   7.053
10477POPC   C4B69214  26.256  29.898   7.353
10478POPC   NC369215  38.497  18.310   5.553
10478POPC   PO469216  38.422  18.250   5.853
10478POPC   GL169217  38.458  18.259   6.153
10478POPC   GL269218  38.521  18.354   6.153
10478POPC   C1A69219  38.467  18.302   6.453
10478POPC   D2A69220  38.462  18.323   6.753
10478POPC   C3A69221  38.489  18.268   7.053
10478POPC   C4A69222  38.415  18.279   7.353
10478POPC   C1B69223  38.585  18.520   6.453
10478POPC   C2B69224  38.515  18.494   6.753
10478POPC   C3B69225  38.589  18.519   7.053
10478POPC   C4B69226  38.501  18.564   7.353
10479POPC   NC369227   9.722  36.931   5.553
10479POPC   PO469228   9.698  36.866   5.853
10479POPC   GL169229   9.779  36.946   6.153
10479POPC   GL269230   9.640  36.827   6.153
10479POPC   C1A69231   9.715  36.875   6.453
10479POPC   D2A69232   9.755  36.889   6.753
10479POPC   C3A69233   9.785  36.899   7.053
10479POPC   C4A69234   9.738  36.905   7.353
10479POPC   C1B69235   9.570  36.770   6.453
10479POPC   C2B69236   9.542  36.795   6.753
10479POPC   C3B69237   9.503  36.803   7.053
10479POPC   C4B69238   9.488  36.734   7.353
10480POPC   NC369239  19.839  33.814   5.553
10480POPC   PO469240  19.791  33.825   5.853
10480POPC   GL169241  19.811  33.789   6.153
10480POPC   GL269242  19.823  33.715   6.153
10480POPC   C1A69243  19.811  33.825   6.453
10480POPC   D2A69244  19.795  33.777   6.753
10480POPC   C3A69245  19.846  33.830   7.053
10480POPC   C4A69246  19.788  33.765   7.353
10480POPC   C1B69247  19.846  33.600   6.453
10480POPC   C2B69248  19.859  33.538   6.753
10480POPC   C3B69249  19.805  33.598   7.053
10480POPC   C4B69250  19.854  33.590   7.353
10481POPC   NC369251  36.920  25.301   5.553
10481POPC   PO469252  36.925  25.225   5.853
10481POPC   GL169253  36.929  25.265   6.153
10481POPC   GL269254  36.962  25.411   6.153
10481POPC   C1A69255  36.892  25.283   6.453
10481POPC   D2A69256  36.899  25.294   6.753
10481POPC   C3A69257  36.885  25.220   7.053
10481POPC   C4A69258  36.878  25.236   7.353
10481POPC   C1B69259  37.038  25.507   6.453
10481POPC   C2B69260  36.992  25.515   6.753
10481POPC   C3B69261  36.992  25.511   7.053
10481POPC   C4B69262  37.056  25.450   7.353
10482POPC   NC369263  44.698  34.529   5.553
10482POPC   PO469264  44.710  34.592   5.853
10482POPC   GL169265  44.698  34.551   6.153
10482POPC   GL269266  44.540  34.575   6.153
10482POPC   C1A69267  44.652  34.536   6.453
10482POPC   D2A69268  44.704  34.616   6.753
10482POPC   C3A69269  44.707  34.568   7.053
10482POPC   C4A69270  44.624  34.572   7.353
10482POPC   C1B69271  44.397  34.536   6.453
10482POPC   C2B69272  44.440  34.481   6.753
10482POPC   C3B69273  44.419  34.468   7.053
10482POPC   C4B69274  44.427  34.459   7.353
10483POPC   NC369275  12.881  34.564   5.553
10483POPC   PO469276  12.807  34.559   5.853
10483POPC   GL169277  12.846  34.584   6.153
10483POPC   GL269278  12.805  34.690   6.153
10483POPC   C1A69279  12.832  34.526   6.453
10483POPC   D2A69280  12.862  34.551   6.753
10483POPC   C3A69281  12.893  34.600   7.053
10483POPC   C4A69282  12.883  34.603   7.353
10483POPC   C1B69283  12.703  34.812   6.453
10483POPC   C2B69284  12.678  34.740   6.753
10483POPC   C3B69285  12.707  34.754   7.053
10483POPC   C4B69286  12.649  34.771   7.353
10484POPC   NC369287  20.650  34.610   5.553
10484POPC   PO469288  20.624  34.603   5.853
10484POPC   GL169289  20.633  34.576   6.153
10484POPC   GL269290  20.507  34.434   6.153
10484POPC   C1A69291  20.614  34.619   6.453
10484POPC   D2A69292  20.588  34.607   6.753
10484POPC   C3A69293  20.566  34.583   7.053
10484POPC   C4A69294  20.597  34.570   7.353
10484POPC   C1B69295  20.409  34.406   6.453
10484POPC   C2B69296  20.422  34.403   6.753
10484POPC   C3B69297  20.438  34.385   7.053
10484POPC   C4B69298  20.430  34.388   7.353
10485POPC   NC369299  32.258  28.393   5.553
10485POPC   PO469300  32.297  28.377   5.853
10485POPC   GL169301  32.250  28.329   6.153
10485POPC   GL269302  32.130  28.281   6.153
10485POPC   C1A69303  32.254  28.411   6.453
10485POPC   D2A69304  32.241  28.396   6.753
10485POPC   C3A69305  32.218  28.392   7.053
10485POPC   C4A69306  32.293  28.367   7.353
10485POPC   C1B69307  32.063  28.232   6.453
10485POPC   C2B69308  32.007  28.171   6.753
10485POPC   C3B69309  32.088  28.249   7.053
10485POPC   C4B69310  32.045  28.234   7.353
10486POPC   NC369311   1.951   3.582   5.553
10486POPC   PO469312   1.946   3.497   5.853
10486POPC   GL169313   1.999   3.547   6.153
10486POPC   GL269314   1.927   3.377   6.153
10486POPC   C1A69315   1.954   3.495   6.453
10486POPC   D2A69316   1.962   3.573   6.753
10486POPC   C3A69317   2.009   3.525   7.053
10486POPC   C4A69318   2.029   3.537   7.353
10486POPC   C1B69319   1.931   3.254   6.453
10486POPC   C2B69320   1.931   3.266   6.753
10486POPC   C3B69321   1.934   3.276   7.053
10486POPC   C4B69322   1.902   3.323   7.353
10487POPC   NC369323  18.306   9.001   5.553
10487POPC   PO469324  18.307   8.989   5.853
10487POPC   GL169325  18.313   8.991   6.153
10487POPC   GL269326  18.307   9.111   6.153
10487POPC   C1A69327  18.270   8.997   6.453
10487POPC   D2A69328  18.265   8.949   6.753
10487POPC   C3A69329  18.299   9.008   7.053
10487POPC   C4A69330  18.271   8.985   7.353
10487POPC   C1B69331  18.397   9.209   6.453
10487POPC   C2B69332  18.321   9.197   6.753
10487POPC   C3B69333  18.350   9.226   7.053
10487POPC   C4B69334  18.375   9.242   7.353
10488POPC   NC369335   0.402   8.185   5.553
10488POPC   PO469336   0.442   8.182   5.853
10488POPC   GL169337   0.389   8.208   6.153
10488POPC   GL269338   0.412   8.325   6.153
10488POPC   C1A69339   0.477   8.206   6.453
10488POPC   D2A69340   0.486   8.148   6.753
10488POPC   C3A69341   0.470   8.229   7.053
10488POPC   C4A69342   0.437   8.217   7.353
10488POPC   C1B69343   0.341   8.471   6.453
10488POPC   C2B69344   0.390   8.451   6.753
10488POPC   C3B69345   0.372   8.393   7.053
10488POPC   C4B69346   0.307   8.480   7.353
10489POPC   NC369347  22.933  22.911   5.553
10489POPC   PO469348  22.950  22.895   5.853
10489POPC   GL169349  22.948  22.900   6.153
10489POPC   GL269350  22.820  22.937   6.153
10489POPC   C1A69351  22.917  22.932   6.453
10489POPC   D2A69352  22.902  22.971   6.753
10489POPC   C3A69353  22.910  22.889   7.053
10489POPC   C4A69354  22.978  22.930   7.353
10489POPC   C1B69355  22.727  22.955   6.453
10489POPC   C2B69356  22.709  22.946   6.753
10489POPC   C3B69357  22.664  22.921   7.053
10489POPC   C4B69358  22.723  22.984   7.353
10490POPC   NC369359   2.024  41.593   5.553
10490POPC   PO469360   2.021  41.583   5.853
10490POPC   GL169361   1.978  41.512   6.153
10490POPC   GL269362   1.942  41.682   6.153
10490POPC   C1A69363   1.989  41.512   6.453
10490POPC   D2A69364   1.948  41.524   6.753
10490POPC   C3A69365   1.993  41.549   7.053
10490POPC   C4A69366   1.998  41.603   7.353
10490POPC   C1B69367   1.956  41.759   6.453
10490POPC   C2B69368   1.950  41.760   6.753
10490POPC   C3B69369   1.918  41.853   7.053
10490POPC   C4B69370   1.950  41.766   7.353
10491POPC   NC369371  20.571  40.804   5.553
10491POPC   PO469372  20.656  40.797   5.853
10491POPC   GL169373  20.600  40.740   6.153
10491POPC   GL269374  20.487  40.754   6.153
10491POPC   C1A69375  20.576  40.735   6.453
10491POPC   D2A69376  20.643  40.786   6.753
10491POPC   C3A69377  20.654  40.817   7.053
10491POPC   C4A69378  20.589  40.776   7.353
10491POPC   C1B69379  20.371  40.832   6.453
10491POPC   C2B69380  20.392  40.788   6.753
10491POPC   C3B69381  20.316  40.832   7.053
10491POPC   C4B69382  20.384  40.777   7.353
10492POPC   NC369383  35.342  36.169   5.553
10492POPC   PO469384  35.397  36.085   5.853
10492POPC   GL169385  35.372  36.141   6.153
10492POPC   GL269386  35.207  36.083   6.153
10492POPC   C1A69387  35.313  36.131   6.453
10492POPC   D2A69388  35.313  36.146   6.753
10492POPC   C3A69389  35.390  36.122   7.053
10492POPC   C4A69390  35.364  36.128   7.353
10492POPC   C1B69391  35.149  36.007   6.453
10492POPC   C2B69392  35.091  36.053   6.753
10492POPC   C3B69393  35.111  36.021   7.053
10492POPC   C4B69394  35.133  36.024   7.353
10493POPC   NC369395  37.664   5.096   5.553
10493POPC   PO469396  37.647   5.110   5.853
10493POPC   GL169397  37.705   5.130   6.153
10493POPC   GL269398  37.770   5.149   6.153
10493POPC   C1A69399  37.645   5.129   6.453
10493POPC   D2A69400  37.687   5.069   6.753
10493POPC   C3A69401  37.637   5.048   7.053
10493POPC   C4A69402  37.688   5.088   7.353
10493POPC   C1B69403  37.907   5.181   6.453
10493POPC   C2B69404  37.886   5.247   6.753
10493POPC   C3B69405  37.882   5.209   7.053
10493POPC   C4B69406  37.855   5.230   7.353
10494POPC   NC369407  30.717  26.852   5.553
10494POPC   PO469408  30.656  26.825   5.853
10494POPC   GL169409  30.651  26.808   6.153
10494POPC   GL269410  30.846  26.819   6.153
10494POPC   C1A69411  30.721  26.811   6.453
10494POPC   D2A69412  30.742  26.786   6.753
10494POPC   C3A69413  30.707  26.820   7.053
10494POPC   C4A69414  30.740  26.846   7.353
10494POPC   C1B69415  30.920  26.842   6.453
10494POPC   C2B69416  30.958  26.848   6.753
10494POPC   C3B69417  30.942  26.909   7.053
10494POPC   C4B69418  30.987  26.864   7.353
10495POPC   NC369419  32.216  41.599   5.553
10495POPC   PO469420  32.198  41.555   5.853
10495POPC   GL169421  32.253  41.562   6.153
10495POPC   GL269422  32.105  41.486   6.153
10495POPC   C1A69423  32.231  41.536   6.453
10495POPC   D2A69424  32.217  41.515   6.753
10495POPC   C3A69425  32.291  41.543   7.053
10495POPC   C4A69426  32.243  41.537   7.353
10495POPC   C1B69427  32.080  41.400   6.453
10495POPC   C2B69428  32.065  41.384   6.753
10495POPC   C3B69429  32.019  41.430   7.053
10495POPC   C4B69430  32.028  41.357   7.353
10496POPC   NC369431  37.686  16.778   5.553
10496POPC   PO469432  37.644  16.718   5.853
10496POPC   GL169433  37.634  16.769   6.153
10496POPC   GL269434  37.589  16.831   6.153
10496POPC   C1A69435  37.676  16.760   6.453
10496POPC   D2A69436  37.708  16.698   6.753
10496POPC   C3A69437  37.704  16.769   7.053
10496POPC   C4A69438  37.703  16.757   7.353
10496POPC   C1B69439  37.473  16.922   6.453
10496POPC   C2B69440  37.560  16.887   6.753
10496POPC   C3B69441  37.469  16.966   7.053
10496POPC   C4B69442  37.506  16.919   7.353
10497POPC   NC369443  22.121  13.601   5.553
10497POPC   PO469444  22.201  13.634   5.853
10497POPC   GL169445  22.178  13.582   6.153
10497POPC   GL269446  22.220  13.497   6.153
10497POPC   C1A69447  22.154  13.634   6.453
10497POPC   D2A69448  22.203  13.624   6.753
10497POPC   C3A69449  22.118  13.602   7.053
10497POPC   C4A69450  22.138  13.615   7.353
10497POPC   C1B69451  22.362  13.446   6.453
10497POPC   C2B69452  22.335  13.445   6.753
10497POPC   C3B69453  22.338  13.444   7.053
10497POPC   C4B69454  22.280  13.395   7.353
10498POPC   NC369455  38.449   5.052   5.553
10498POPC   PO469456  38.504   5.045   5.853
10498POPC   GL169457  38.477   5.076   6.153
10498POPC   GL269458  38.430   5.187   6.153
10498POPC   C1A69459  38.465   5.104   6.453
10498POPC   D2A69460  38.427   5.070   6.753
10498POPC   C3A69461  38.409   5.108   7.053
10498POPC   C4A69462  38.482   5.139   7.353
10498POPC   C1B69463  38.468   5.380   6.453
10498POPC   C2B69464  38.399   5.347   6.753
10498POPC   C3B69465  38.444   5.346   7.053
10498POPC   C4B69466  38.478   5.359   7.353
10499POPC   NC369467   5.141  29.097   5.553
10499POPC   PO469468   5.103  29.148   5.853
10499POPC   GL169469   5.093  29.158   6.153
10499POPC   GL269470   5.206  29.098   6.153
10499POPC   C1A69471   5.094  29.155   6.453
10499POPC   D2A69472   5.104  29.134   6.753
10499POPC   C3A69473   5.112  29.116   7.053
10499POPC   C4A69474   5.106  29.145   7.353
10499POPC   C1B69475   5.350  28.995   6.453
10499POPC   C2B69476   5.369  29.064   6.753
10499POPC   C3B69477   5.344  29.014   7.053
10499POPC   C4B69478   5.364  28.995   7.353
10500POPC   NC369479  41.529   1.940   5.553
10500POPC   PO469480  41.585   2.025   5.853
10500POPC   GL169481  41.596   2.023   6.153
10500POPC   GL269482  41.482   2.076   6.153
10500POPC   C1A69483  41.581   2.032   6.453
10500POPC   D2A69484  41.594   2.015   6.753
10500POPC   C3A69485  41.536   2.025   7.053
10500POPC   C4A69486  41.518   2.033   7.353
10500POPC   C1B69487  41.455   2.251   6.453
10500POPC   C2B69488  41.487   2.176   6.753
10500POPC   C3B69489  41.454   2.256   7.053
10500POPC   C4B69490  41.441   2.262   7.353
10501POPC   NC369491  37.643  29.965   5.553
10501POPC   PO469492  37.650  29.960   5.853
10501POPC   GL169493  37.646  29.951   6.153
10501POPC   GL269494  37.718  30.037   6.153
10501POPC   C1A69495  37.715  29.886   6.453
10501POPC   D2A69496  37.675  29.951   6.753
10501POPC   C3A69497  37.655  29.961   7.053
10501POPC   C4A69498  37.641  29.889   7.353
10501POPC   C1B69499  37.762  30.145   6.453
10501POPC   C2B69500  37.733  30.182   6.753
10501POPC   C3B69501  37.690  30.193   7.053
10501POPC   C4B69502  37.700  30.173   7.353
10502POPC   NC369503  39.213  23.738   5.553
10502POPC   PO469504  39.216  23.711   5.853
10502POPC   GL169505  39.274  23.683   6.153
10502POPC   GL269506  39.346  23.708   6.153
10502POPC   C1A69507  39.199  23.676   6.453
10502POPC   D2A69508  39.224  23.688   6.753
10502POPC   C3A69509  39.226  23.759   7.053
10502POPC   C4A69510  39.260  23.726   7.353
10502POPC   C1B69511  39.526  23.638   6.453
10502POPC   C2B69512  39.458  23.703   6.753
10502POPC   C3B69513  39.486  23.668   7.053
10502POPC   C4B69514  39.528  23.718   7.353
10503POPC   NC369515   3.534  44.622   5.553
10503POPC   PO469516   3.529  44.659   5.853
10503POPC   GL169517   3.528  44.658   6.153
10503POPC   GL269518   3.578  44.527   6.153
10503POPC   C1A69519   3.499  44.677   6.453
10503POPC   D2A69520   3.589  44.685   6.753
10503POPC   C3A69521   3.501  44.696   7.053
10503POPC   C4A69522   3.546  44.660   7.353
10503POPC   C1B69523   3.648  44.422   6.453
10503POPC   C2B69524   3.713  44.450   6.753
10503POPC   C3B69525   3.703  44.462   7.053
10503POPC   C4B69526   3.691  44.442   7.353
10504POPC   NC369527  22.976   9.704   5.553
10504POPC   PO469528  22.980   9.781   5.853
10504POPC   GL169529  22.962   9.760   6.153
10504POPC   GL269530  22.843   9.764   6.153
10504POPC   C1A69531  22.985   9.723   6.453
10504POPC   D2A69532  22.910   9.720   6.753
10504POPC   C3A69533  22.977   9.731   7.053
10504POPC   C4A69534  22.940   9.708   7.353
10504POPC   C1B69535  22.693   9.830   6.453
10504POPC   C2B69536  22.738   9.860   6.753
10504POPC   C3B69537  22.736   9.860   7.053
10504POPC   C4B69538  22.687   9.894   7.353
10505POPC   NC369539   7.426  16.761   5.553
10505POPC   PO469540   7.444  16.781   5.853
10505POPC   GL169541   7.450  16.749   6.153
10505POPC   GL269542   7.314  16.742   6.153
10505POPC   C1A69543   7.452  16.759   6.453
10505POPC   D2A69544   7.422  16.683   6.753
10505POPC   C3A69545   7.443  16.766   7.053
10505POPC   C4A69546   7.403  16.712   7.353
10505POPC   C1B69547   7.161  16.688   6.453
10505POPC   C2B69548   7.152  16.640   6.753
10505POPC   C3B69549   7.216  16.659   7.053
10505POPC   C4B69550   7.142  16.681   7.353
10506POPC   NC369551  26.034  15.983   5.553
10506POPC   PO469552  25.991  15.910   5.853
10506POPC   GL169553  26.028  15.928   6.153
10506POPC   GL269554  25.960  15.840   6.153
10506POPC   C1A69555  26.088  16.003   6.453
10506POPC   D2A69556  26.046  15.971   6.753
10506POPC   C3A69557  26.071  15.924   7.053
10506POPC   C4A69558  26.000  15.911   7.353
10506POPC   C1B69559  25.909  15.805   6.453
10506POPC   C2B69560  25.879  15.775   6.753
10506POPC   C3B69561  25.855  15.753   7.053
10506POPC   C4B69562  25.879  15.728   7.353
10507POPC   NC369563  38.489  19.832   5.553
10507POPC   PO469564  38.434  19.872   5.853
10507POPC   GL169565  38.428  19.791   6.153
10507POPC   GL269566  38.427  19.956   6.153
10507POPC   C1A69567  38.460  19.853   6.453
10507POPC   D2A69568  38.491  19.841   6.753
10507POPC   C3A69569  38.490  19.788   7.053
10507POPC   C4A69570  38.411  19.878   7.353
10507POPC   C1B69571  38.340  20.023   6.453
10507POPC   C2B69572  38.376  20.051   6.753
10507POPC   C3B69573  38.374  20.040   7.053
10507POPC   C4B69574  38.415  20.021   7.353
10508POPC   NC369575   1.165   3.581   5.553
10508POPC   PO469576   1.213   3.544   5.853
10508POPC   GL169577   1.239   3.572   6.153
10508POPC   GL269578   1.261   3.635   6.153
10508POPC   C1A69579   1.247   3.514   6.453
10508POPC   D2A69580   1.243   3.528   6.753
10508POPC   C3A69581   1.175   3.579   7.053
10508POPC   C4A69582   1.201   3.584   7.353
10508POPC   C1B69583   1.223   3.809   6.453
10508POPC   C2B69584   1.257   3.805   6.753
10508POPC   C3B69585   1.183   3.779   7.053
10508POPC   C4B69586   1.193   3.815   7.353
10509POPC   NC369587   2.797  37.676   5.553
10509POPC   PO469588   2.808  37.633   5.853
10509POPC   GL169589   2.807  37.665   6.153
10509POPC   GL269590   2.746  37.591   6.153
10509POPC   C1A69591   2.750  37.672   6.453
10509POPC   D2A69592   2.770  37.666   6.753
10509POPC   C3A69593   2.808  37.716   7.053
10509POPC   C4A69594   2.779  37.710   7.353
10509POPC   C1B69595   2.643  37.447   6.453
10509POPC   C2B69596   2.660  37.472   6.753
10509POPC   C3B69597   2.697  37.434   7.053
10509POPC   C4B69598   2.676  37.471   7.353
10510POPC   NC369599   1.242  15.963   5.553
10510POPC   PO469600   1.171  15.935   5.853
10510POPC   GL169601   1.225  15.930   6.153
10510POPC   GL269602   1.267  16.103   6.153
10510POPC   C1A69603   1.252  15.933   6.453
10510POPC   D2A69604   1.255  15.981   6.753
10510POPC   C3A69605   1.230  15.909   7.053
10510POPC   C4A69606   1.166  15.965   7.353
10510POPC   C1B69607   1.255  16.169   6.453
10510POPC   C2B69608   1.305  16.236   6.753
10510POPC   C3B69609   1.236  16.233   7.053
10510POPC   C4B69610   1.279  16.246   7.353
10511POPC   NC369611  17.532   6.657   5.553
10511POPC   PO469612  17.499   6.684   5.853
10511POPC   GL169613  17.473   6.617   6.153
10511POPC   GL269614  17.632   6.509   6.153
10511POPC   C1A69615  17.537   6.596   6.453
10511POPC   D2A69616  17.524   6.674   6.753
10511POPC   C3A69617  17.469   6.647   7.053
10511POPC   C4A69618  17.505   6.690   7.353
10511POPC   C1B69619  17.660   6.503   6.453
10511POPC   C2B69620  17.718   6.456   6.753
10511POPC   C3B69621  17.695   6.439   7.053
10511POPC   C4B69622  17.721   6.462   7.353
10512POPC   NC369623  33.029  26.818   5.553
10512POPC   PO469624  32.993  26.831   5.853
10512POPC   GL169625  33.030  26.859   6.153
10512POPC   GL269626  33.034  26.737   6.153
10512POPC   C1A69627  33.073  26.806   6.453
10512POPC   D2A69628  32.987  26.826   6.753
10512POPC   C3A69629  33.046  26.794   7.053
10512POPC   C4A69630  33.046  26.791   7.353
10512POPC   C1B69631  33.115  26.623   6.453
10512POPC   C2B69632  33.127  26.589   6.753
10512POPC   C3B69633  33.183  26.616   7.053
10512POPC   C4B69634  33.095  26.608   7.353
10513POPC   NC369635  38.488  15.977   5.553
10513POPC   PO469636  38.442  15.983   5.853
10513POPC   GL169637  38.422  15.991   6.153
10513POPC   GL269638  38.596  16.038   6.153
10513POPC   C1A69639  38.466  15.912   6.453
10513POPC   D2A69640  38.431  15.981   6.753
10513POPC   C3A69641  38.457  15.931   7.053
10513POPC   C4A69642  38.492  16.001   7.353
10513POPC   C1B69643  38.689  16.042   6.453
10513POPC   C2B69644  38.709  16.032   6.753
10513POPC   C3B69645  38.703  16.025   7.053
10513POPC   C4B69646  38.692  16.030   7.353
10514POPC   NC369647   2.736  33.769   5.553
10514POPC   PO469648   2.776  33.833   5.853
10514POPC   GL169649   2.763  33.830   6.153
10514POPC   GL269650   2.784  33.890   6.153
10514POPC   C1A69651   2.806  33.824   6.453
10514POPC   D2A69652   2.812  33.790   6.753
10514POPC   C3A69653   2.804  33.760   7.053
10514POPC   C4A69654   2.797  33.788   7.353
10514POPC   C1B69655   2.926  34.000   6.453
10514POPC   C2B69656   2.890  34.050   6.753
10514POPC   C3B69657   2.862  34.028   7.053
10514POPC   C4B69658   2.940  34.052   7.353
10515POPC   NC369659   7.388  40.738   5.553
10515POPC   PO469660   7.381  40.808   5.853
10515POPC   GL169661   7.375  40.795   6.153
10515POPC   GL269662   7.383  40.904   6.153
10515POPC   C1A69663   7.466  40.750   6.453
10515POPC   D2A69664   7.457  40.744   6.753
10515POPC   C3A69665   7.422  40.746   7.053
10515POPC   C4A69666   7.422  40.768   7.353
10515POPC   C1B69667   7.379  41.032   6.453
10515POPC   C2B69668   7.435  41.034   6.753
10515POPC   C3B69669   7.392  40.995   7.053
10515POPC   C4B69670   7.360  41.009   7.353
10516POPC   NC369671   6.648  11.257   5.553
10516POPC   PO469672   6.629  11.305   5.853
10516POPC   GL169673   6.655  11.334   6.153
10516POPC   GL269674   6.592  11.257   6.153
10516POPC   C1A69675   6.667  11.275   6.453
10516POPC   D2A69676   6.649  11.271   6.753
10516POPC   C3A69677   6.627  11.338   7.053
10516POPC   C4A69678   6.668  11.326   7.353
10516POPC   C1B69679   6.490  11.112   6.453
10516POPC   C2B69680   6.440  11.118   6.753
10516POPC   C3B69681   6.503  11.108   7.053
10516POPC   C4B69682   6.428  11.080   7.353
10517POPC   NC369683  31.508  29.125   5.553
10517POPC   PO469684  31.519  29.101   5.853
10517POPC   GL169685  31.465  29.186   6.153
10517POPC   GL269686  31.541  29.230   6.153
10517POPC   C1A69687  31.455  29.159   6.453
10517POPC   D2A69688  31.435  29.147   6.753
10517POPC   C3A69689  31.462  29.137   7.053
10517POPC   C4A69690  31.448  29.143   7.353
10517POPC   C1B69691  31.575  29.417   6.453
10517POPC   C2B69692  31.520  29.385   6.753
10517POPC   C3B69693  31.521  29.362   7.053
10517POPC   C4B69694  31.529  29.338   7.353
10518POPC   NC369695  14.418   6.655   5.553
10518POPC   PO469696  14.367   6.596   5.853
10518POPC   GL169697  14.417   6.629   6.153
10518POPC   GL269698  14.480   6.513   6.153
10518POPC   C1A69699  14.361   6.621   6.453
10518POPC   D2A69700  14.409   6.608   6.753
10518POPC   C3A69701  14.353   6.653   7.053
10518POPC   C4A69702  14.359   6.601   7.353
10518POPC   C1B69703  14.497   6.404   6.453
10518POPC   C2B69704  14.503   6.483   6.753
10518POPC   C3B69705  14.522   6.461   7.053
10518POPC   C4B69706  14.519   6.457   7.353
10519POPC   NC369707  25.281  13.594   5.553
10519POPC   PO469708  25.247  13.604   5.853
10519POPC   GL169709  25.224  13.665   6.153
10519POPC   GL269710  25.345  13.640   6.153
10519POPC   C1A69711  25.309  13.617   6.453
10519POPC   D2A69712  25.223  13.604   6.753
10519POPC   C3A69713  25.260  13.636   7.053
10519POPC   C4A69714  25.216  13.622   7.353
10519POPC   C1B69715  25.465  13.678   6.453
10519POPC   C2B69716  25.495  13.662   6.753
10519POPC   C3B69717  25.544  13.641   7.053
10519POPC   C4B69718  25.495  13.645   7.353
10520POPC   NC369719  29.114  25.222   5.553
10520POPC   PO469720  29.102  25.250   5.853
10520POPC   GL169721  29.162  25.311   6.153
10520POPC   GL269722  29.293  25.296   6.153
10520POPC   C1A69723  29.183  25.304   6.453
10520POPC   D2A69724  29.137  25.220   6.753
10520POPC   C3A69725  29.133  25.230   7.053
10520POPC   C4A69726  29.141  25.302   7.353
10520POPC   C1B69727  29.410  25.293   6.453
10520POPC   C2B69728  29.357  25.316   6.753
10520POPC   C3B69729  29.428  25.276   7.053
10520POPC   C4B69730  29.426  25.325   7.353
10521POPC   NC369731  23.742  32.227   5.553
10521POPC   PO469732  23.688  32.204   5.853
10521POPC   GL169733  23.717  32.248   6.153
10521POPC   GL269734  23.768  32.198   6.153
10521POPC   C1A69735  23.689  32.255   6.453
10521POPC   D2A69736  23.735  32.242   6.753
10521POPC   C3A69737  23.682  32.291   7.053
10521POPC   C4A69738  23.720  32.282   7.353
10521POPC   C1B69739  23.884  32.048   6.453
10521POPC   C2B69740  23.863  32.015   6.753
10521POPC   C3B69741  23.912  32.007   7.053
10521POPC   C4B69742  23.831  32.046   7.353
10522POPC   NC369743  35.318  26.809   5.553
10522POPC   PO469744  35.308  26.817   5.853
10522POPC   GL169745  35.306  26.866   6.153
10522POPC   GL269746  35.503  26.821   6.153
10522POPC   C1A69747  35.309  26.813   6.453
10522POPC   D2A69748  35.361  26.811   6.753
10522POPC   C3A69749  35.392  26.825   7.053
10522POPC   C4A69750  35.382  26.778   7.353
10522POPC   C1B69751  35.616  26.767   6.453
10522POPC   C2B69752  35.606  26.789   6.753
10522POPC   C3B69753  35.606  26.805   7.053
10522POPC   C4B69754  35.602  26.801   7.353
10523POPC   NC369755  40.758  33.774   5.553
10523POPC   PO469756  40.787  33.772   5.853
10523POPC   GL169757  40.738  33.806   6.153
10523POPC   GL269758  40.769  33.712   6.153
10523POPC   C1A69759  40.821  33.831   6.453
10523POPC   D2A69760  40.744  33.803   6.753
10523POPC   C3A69761  40.777  33.769   7.053
10523POPC   C4A69762  40.787  33.814   7.353
10523POPC   C1B69763  40.835  33.535   6.453
10523POPC   C2B69764  40.847  33.587   6.753
10523POPC   C3B69765  40.869  33.510   7.053
10523POPC   C4B69766  40.804  33.540   7.353
10524POPC   NC369767  29.903  25.270   5.553
10524POPC   PO469768  29.964  25.284   5.853
10524POPC   GL169769  29.921  25.236   6.153
10524POPC   GL269770  30.063  25.248   6.153
10524POPC   C1A69771  29.891  25.304   6.453
10524POPC   D2A69772  29.924  25.295   6.753
10524POPC   C3A69773  29.945  25.235   7.053
10524POPC   C4A69774  29.968  25.304   7.353
10524POPC   C1B69775  30.141  25.285   6.453
10524POPC   C2B69776  30.204  25.281   6.753
10524POPC   C3B69777  30.156  25.340   7.053
10524POPC   C4B69778  30.201  25.272   7.353
10525POPC   NC369779  29.156   3.499   5.553
10525POPC   PO469780  29.101   3.551   5.853
10525POPC   GL169781  29.149   3.499   6.153
10525POPC   GL269782  29.034   3.560   6.153
10525POPC   C1A69783  29.121   3.579   6.453
10525POPC   D2A69784  29.129   3.493   6.753
10525POPC   C3A69785  29.099   3.563   7.053
10525POPC   C4A69786  29.096   3.582   7.353
10525POPC   C1B69787  28.849   3.510   6.453
10525POPC   C2B69788  28.931   3.532   6.753
10525POPC   C3B69789  28.874   3.553   7.053
10525POPC   C4B69790  28.910   3.530   7.353
10526POPC   NC369791  12.898  14.360   5.553
10526POPC   PO469792  12.881  14.399   5.853
10526POPC   GL169793  12.860  14.392   6.153
10526POPC   GL269794  12.998  14.427   6.153
10526POPC   C1A69795  12.832  14.397   6.453
10526POPC   D2A69796  12.815  14.358   6.753
10526POPC   C3A69797  12.807  14.365   7.053
10526POPC   C4A69798  12.809  14.394   7.353
10526POPC   C1B69799  13.114  14.481   6.453
10526POPC   C2B69800  13.068  14.410   6.753
10526POPC   C3B69801  13.062  14.466   7.053
10526POPC   C4B69802  13.143  14.405   7.353
10527POPC   NC369803  40.017  33.015   5.553
10527POPC   PO469804  39.996  33.033   5.853
10527POPC   GL169805  39.958  33.064   6.153
10527POPC   GL269806  40.128  33.039   6.153
10527POPC   C1A69807  40.017  33.063   6.453
10527POPC   D2A69808  40.000  33.073   6.753
10527POPC   C3A69809  39.995  33.036   7.053
10527POPC   C4A69810  40.056  33.019   7.353
10527POPC   C1B69811  40.259  32.969   6.453
10527POPC   C2B69812  40.261  32.987   6.753
10527POPC   C3B69813  40.211  32.942   7.053
10527POPC   C4B69814  40.277  32.968   7.353
10528POPC   NC369815  12.065  40.018   5.553
10528POPC   PO469816  12.044  40.053   5.853
10528POPC   GL169817  12.060  39.973   6.153
10528POPC   GL269818  12.199  39.981   6.153
10528POPC   C1A69819  12.049  39.996   6.453
10528POPC   D2A69820  12.075  40.031   6.753
10528POPC   C3A69821  12.036  40.038   7.053
10528POPC   C4A69822  12.052  39.972   7.353
10528POPC   C1B69823  12.327  39.899   6.453
10528POPC   C2B69824  12.350  39.872   6.753
10528POPC   C3B69825  12.269  39.908   7.053
10528POPC   C4B69826  12.349  39.932   7.353
10529POPC   NC369827  33.021  27.551   5.553
10529POPC   PO469828  33.033  27.595   5.853
10529POPC   GL169829  33.014  27.605   6.153
10529POPC   GL269830  32.902  27.470   6.153
10529POPC   C1A69831  33.036  27.587   6.453
10529POPC   D2A69832  33.006  27.629   6.753
10529POPC   C3A69833  33.027  27.559   7.053
10529POPC   C4A69834  32.982  27.582   7.353
10529POPC   C1B69835  32.903  27.362   6.453
10529POPC   C2B69836  32.819  27.377   6.753
10529POPC   C3B69837  32.879  27.386   7.053
10529POPC   C4B69838  32.903  27.356   7.353
10530POPC   NC369839   2.016  19.810   5.553
10530POPC   PO469840   1.990  19.790   5.853
10530POPC   GL169841   2.001  19.796   6.153
10530POPC   GL269842   1.988  19.989   6.153
10530POPC   C1A69843   2.026  19.873   6.453
10530POPC   D2A69844   1.944  19.803   6.753
10530POPC   C3A69845   1.996  19.824   7.053
10530POPC   C4A69846   1.968  19.829   7.353
10530POPC   C1B69847   2.030  20.119   6.453
10530POPC   C2B69848   2.106  20.058   6.753
10530POPC   C3B69849   2.102  20.035   7.053
10530POPC   C4B69850   2.052  20.068   7.353
10531POPC   NC369851   3.515  33.846   5.553
10531POPC   PO469852   3.554  33.754   5.853
10531POPC   GL169853   3.512  33.807   6.153
10531POPC   GL269854   3.511  33.696   6.153
10531POPC   C1A69855   3.557  33.844   6.453
10531POPC   D2A69856   3.573  33.771   6.753
10531POPC   C3A69857   3.492  33.758   7.053
10531POPC   C4A69858   3.499  33.768   7.353
10531POPC   C1B69859   3.518  33.561   6.453
10531POPC   C2B69860   3.435  33.530   6.753
10531POPC   C3B69861   3.513  33.574   7.053
10531POPC   C4B69862   3.433  33.564   7.353
10532POPC   NC369863  14.405  29.887   5.553
10532POPC   PO469864  14.447  29.883   5.853
10532POPC   GL169865  14.450  29.947   6.153
10532POPC   GL269866  14.534  30.027   6.153
10532POPC   C1A69867  14.372  29.873   6.453
10532POPC   D2A69868  14.413  29.893   6.753
10532POPC   C3A69869  14.381  29.887   7.053
10532POPC   C4A69870  14.435  29.970   7.353
10532POPC   C1B69871  14.575  30.083   6.453
10532POPC   C2B69872  14.553  30.109   6.753
10532POPC   C3B69873  14.548  30.143   7.053
10532POPC   C4B69874  14.584  30.092   7.353
10533POPC   NC369875  32.279  40.782   5.553
10533POPC   PO469876  32.199  40.742   5.853
10533POPC   GL169877  32.261  40.743   6.153
10533POPC   GL269878  32.165  40.824   6.153
10533POPC   C1A69879  32.263  40.743   6.453
10533POPC   D2A69880  32.261  40.800   6.753
10533POPC   C3A69881  32.224  40.763   7.053
10533POPC   C4A69882  32.202  40.792   7.353
10533POPC   C1B69883  32.053  40.976   6.453
10533POPC   C2B69884  32.025  40.920   6.753
10533POPC   C3B69885  32.095  40.915   7.053
10533POPC   C4B69886  32.084  40.967   7.353
10534POPC   NC369887  39.188  29.142   5.553
10534POPC   PO469888  39.238  29.103   5.853
10534POPC   GL169889  39.266  29.180   6.153
10534POPC   GL269890  39.062  29.117   6.153
10534POPC   C1A69891  39.218  29.096   6.453
10534POPC   D2A69892  39.226  29.134   6.753
10534POPC   C3A69893  39.214  29.120   7.053
10534POPC   C4A69894  39.257  29.187   7.353
10534POPC   C1B69895  39.012  29.159   6.453
10534POPC   C2B69896  38.952  29.100   6.753
10534POPC   C3B69897  38.993  29.106   7.053
10534POPC   C4B69898  38.994  29.130   7.353
10535POPC   NC369899  25.993  19.077   5.553
10535POPC   PO469900  26.042  19.035   5.853
10535POPC   GL169901  26.069  19.063   6.153
10535POPC   GL269902  25.916  18.923   6.153
10535POPC   C1A69903  26.052  19.020   6.453
10535POPC   D2A69904  26.029  19.062   6.753
10535POPC   C3A69905  26.056  19.057   7.053
10535POPC   C4A69906  26.034  19.018   7.353
10535POPC   C1B69907  25.863  18.869   6.453
10535POPC   C2B69908  25.924  18.887   6.753
10535POPC   C3B69909  25.870  18.865   7.053
10535POPC   C4B69910  25.841  18.848   7.353
10536POPC   NC369911  25.264   9.016   5.553
10536POPC   PO469912  25.253   8.931   5.853
10536POPC   GL169913  25.298   8.990   6.153
10536POPC   GL269914  25.351   9.099   6.153
10536POPC   C1A69915  25.300   9.010   6.453
10536POPC   D2A69916  25.272   8.955   6.753
10536POPC   C3A69917  25.259   8.980   7.053
10536POPC   C4A69918  25.267   8.982   7.353
10536POPC   C1B69919  25.488   9.103   6.453
10536POPC   C2B69920  25.421   9.145   6.753
10536POPC   C3B69921  25.413   9.183   7.053
10536POPC   C4B69922  25.465   9.163   7.353
10537POPC   NC369923  19.863   5.052   5.553
10537POPC   PO469924  19.789   5.109   5.853
10537POPC   GL169925  19.877   5.128   6.153
10537POPC   GL269926  19.681   5.076   6.153
10537POPC   C1A69927  19.830   5.079   6.453
10537POPC   D2A69928  19.830   5.100   6.753
10537POPC   C3A69929  19.787   5.045   7.053
10537POPC   C4A69930  19.843   5.087   7.353
10537POPC   C1B69931  19.656   4.990   6.453
10537POPC   C2B69932  19.654   4.951   6.753
10537POPC   C3B69933  19.606   4.956   7.053
10537POPC   C4B69934  19.623   4.933   7.353
10538POPC   NC369935  28.345   5.866   5.553
10538POPC   PO469936  28.385   5.842   5.853
10538POPC   GL169937  28.372   5.888   6.153
10538POPC   GL269938  28.212   5.864   6.153
10538POPC   C1A69939  28.357   5.881   6.453
10538POPC   D2A69940  28.384   5.828   6.753
10538POPC   C3A69941  28.367   5.867   7.053
10538POPC   C4A69942  28.335   5.859   7.353
10538POPC   C1B69943  28.157   5.788   6.453
10538POPC   C2B69944  28.128   5.788   6.753
10538POPC   C3B69945  28.138   5.809   7.053
10538POPC   C4B69946  28.170   5.794   7.353
10539POPC   NC369947  23.698  38.414   5.553
10539POPC   PO469948  23.697  38.473   5.853
10539POPC   GL169949  23.685  38.490   6.153
10539POPC   GL269950  23.637  38.345   6.153
10539POPC   C1A69951  23.735  38.448   6.453
10539POPC   D2A69952  23.688  38.504   6.753
10539POPC   C3A69953  23.762  38.423   7.053
10539POPC   C4A69954  23.695  38.437   7.353
10539POPC   C1B69955  23.503  38.253   6.453
10539POPC   C2B69956  23.510  38.250   6.753
10539POPC   C3B69957  23.493  38.287   7.053
10539POPC   C4B69958  23.560  38.325   7.353
10540POPC   NC369959   7.466   2.813   5.553
10540POPC   PO469960   7.376   2.778   5.853
10540POPC   GL169961   7.377   2.749   6.153
10540POPC   GL269962   7.495   2.894   6.153
10540POPC   C1A69963   7.414   2.755   6.453
10540POPC   D2A69964   7.378   2.793   6.753
10540POPC   C3A69965   7.456   2.726   7.053
10540POPC   C4A69966   7.402   2.733   7.353
10540POPC   C1B69967   7.496   2.968   6.453
10540POPC   C2B69968   7.464   2.973   6.753
10540POPC   C3B69969   7.515   3.044   7.053
10540POPC   C4B69970   7.524   3.000   7.353
10541POPC   NC369971  10.540  31.472   5.553
10541POPC   PO469972  10.487  31.470   5.853
10541POPC   GL169973  10.524  31.478   6.153
10541POPC   GL269974  10.598  31.524   6.153
10541POPC   C1A69975  10.563  31.519   6.453
10541POPC   D2A69976  10.531  31.429   6.753
10541POPC   C3A69977  10.497  31.509   7.053
10541POPC   C4A69978  10.515  31.443   7.353
10541POPC   C1B69979  10.772  31.550   6.453
10541POPC   C2B69980  10.770  31.552   6.753
10541POPC   C3B69981  10.791  31.544   7.053
10541POPC   C4B69982  10.728  31.564   7.353
10542POPC   NC369983   5.836  30.717   5.553
10542POPC   PO469984   5.836  30.745   5.853
10542POPC   GL169985   5.889  30.699   6.153
10542POPC   GL269986   5.795  30.787   6.153
10542POPC   C1A69987   5.883  30.686   6.453
10542POPC   D2A69988   5.878  30.718   6.753
10542POPC   C3A69989   5.907  30.693   7.053
10542POPC   C4A69990   5.917  30.672   7.353
10542POPC   C1B69991   5.662  30.773   6.453
10542POPC   C2B69992   5.609  30.790   6.753
10542POPC   C3B69993   5.645  30.813   7.053
10542POPC   C4B69994   5.635  30.776   7.353
10543POPC   NC369995  27.570   2.744   5.553
10543POPC   PO469996  27.609   2.784   5.853
10543POPC   GL169997  27.603   2.721   6.153
10543POPC   GL269998  27.499   2.718   6.153
10543POPC   C1A69999  27.545   2.771   6.453
10543POPC   D2A70000  27.615   2.762   6.753
10543POPC   C3A70001  27.543   2.792   7.053
10543POPC   C4A70002  27.567   2.746   7.353
10543POPC   C1B70003  27.396   2.730   6.453
10543POPC   C2B70004  27.387   2.672   6.753
10543POPC   C3B70005  27.397   2.734   7.053
10543POPC   C4B70006  27.315   2.671   7.353
10544POPC   NC370007  35.370  33.017   5.553
10544POPC   PO470008  35.375  32.998   5.853
10544POPC   GL170009  35.374  32.987   6.153
10544POPC   GL270010  35.225  33.138   6.153
10544POPC   C1A70011  35.307  33.049   6.453
10544POPC   D2A70012  35.376  33.055   6.753
10544POPC   C3A70013  35.378  33.006   7.053
10544POPC   C4A70014  35.328  32.978   7.353
10544POPC   C1B70015  35.097  33.185   6.453
10544POPC   C2B70016  35.124  33.148   6.753
10544POPC   C3B70017  35.100  33.124   7.053
10544POPC   C4B70018  35.179  33.192   7.353
10545POPC   NC370019  26.001  22.905   5.553
10545POPC   PO470020  26.051  22.912   5.853
10545POPC   GL170021  26.050  22.986   6.153
10545POPC   GL270022  26.129  23.070   6.153
10545POPC   C1A70023  26.057  22.942   6.453
10545POPC   D2A70024  26.004  22.924   6.753
10545POPC   C3A70025  26.015  22.948   7.053
10545POPC   C4A70026  26.009  22.894   7.353
10545POPC   C1B70027  26.154  23.146   6.453
10545POPC   C2B70028  26.163  23.091   6.753
10545POPC   C3B70029  26.243  23.165   7.053
10545POPC   C4B70030  26.206  23.168   7.353
10546POPC   NC370031  10.560  14.413   5.553
10546POPC   PO470032  10.492  14.408   5.853
10546POPC   GL170033  10.550  14.354   6.153
10546POPC   GL270034  10.648  14.408   6.153
10546POPC   C1A70035  10.522  14.411   6.453
10546POPC   D2A70036  10.528  14.427   6.753
10546POPC   C3A70037  10.568  14.411   7.053
10546POPC   C4A70038  10.555  14.359   7.353
10546POPC   C1B70039  10.763  14.325   6.453
10546POPC   C2B70040  10.750  14.399   6.753
10546POPC   C3B70041  10.818  14.317   7.053
10546POPC   C4B70042  10.762  14.331   7.353
10547POPC   NC370043   2.745  18.244   5.553
10547POPC   PO470044   2.764  18.269   5.853
10547POPC   GL170045   2.794  18.314   6.153
10547POPC   GL270046   2.721  18.438   6.153
10547POPC   C1A70047   2.811  18.302   6.453
10547POPC   D2A70048   2.732  18.233   6.753
10547POPC   C3A70049   2.804  18.277   7.053
10547POPC   C4A70050   2.721  18.303   7.353
10547POPC   C1B70051   2.725  18.544   6.453
10547POPC   C2B70052   2.703  18.502   6.753
10547POPC   C3B70053   2.720  18.519   7.053
10547POPC   C4B70054   2.697  18.514   7.353
10548POPC   NC370055  29.925  18.267   5.553
10548POPC   PO470056  29.887  18.295   5.853
10548POPC   GL170057  29.884  18.310   6.153
10548POPC   GL270058  30.004  18.173   6.153
10548POPC   C1A70059  29.904  18.330   6.453
10548POPC   D2A70060  29.874  18.293   6.753
10548POPC   C3A70061  29.881  18.277   7.053
10548POPC   C4A70062  29.930  18.289   7.353
10548POPC   C1B70063  29.970  18.082   6.453
10548POPC   C2B70064  30.000  18.096   6.753
10548POPC   C3B70065  30.004  18.086   7.053
10548POPC   C4B70066  29.969  18.044   7.353
10549POPC   NC370067  13.586  29.121   5.553
10549POPC   PO470068  13.667  29.114   5.853
10549POPC   GL170069  13.628  29.177   6.153
10549POPC   GL270070  13.592  29.058   6.153
10549POPC   C1A70071  13.586  29.110   6.453
10549POPC   D2A70072  13.587  29.146   6.753
10549POPC   C3A70073  13.590  29.124   7.053
10549POPC   C4A70074  13.636  29.175   7.353
10549POPC   C1B70075  13.624  28.901   6.453
10549POPC   C2B70076  13.586  28.902   6.753
10549POPC   C3B70077  13.602  28.904   7.053
10549POPC   C4B70078  13.558  28.851   7.353
10550POPC   NC370079   5.074  40.019   5.553
10550POPC   PO470080   5.073  40.009   5.853
10550POPC   GL170081   5.117  39.985   6.153
10550POPC   GL270082   5.005  39.851   6.153
10550POPC   C1A70083   5.117  39.976   6.453
10550POPC   D2A70084   5.084  40.005   6.753
10550POPC   C3A70085   5.073  40.048   7.053
10550POPC   C4A70086   5.110  40.022   7.353
10550POPC   C1B70087   5.052  39.761   6.453
10550POPC   C2B70088   4.979  39.741   6.753
10550POPC   C3B70089   4.969  39.805   7.053
10550POPC   C4B70090   5.051  39.807   7.353
10551POPC   NC370091  15.162  10.538   5.553
10551POPC   PO470092  15.131  10.522   5.853
10551POPC   GL170093  15.196  10.555   6.153
10551POPC   GL270094  15.201  10.382   6.153
10551POPC   C1A70095  15.162  10.530   6.453
10551POPC   D2A70096  15.202  10.498   6.753
10551POPC   C3A70097  15.223  10.512   7.053
10551POPC   C4A70098  15.163  10.554   7.353
10551POPC   C1B70099  15.300  10.321   6.453
10551POPC   C2B70100  15.306  10.276   6.753
10551POPC   C3B70101  15.298  10.347   7.053
10551POPC   C4B70102  15.274  10.324   7.353
10552POPC   NC370103   7.380  23.739   5.553
10552POPC   PO470104   7.373  23.665   5.853
10552POPC   GL170105   7.411  23.763   6.153
10552POPC   GL270106   7.358  23.686   6.153
10552POPC   C1A70107   7.373  23.689   6.453
10552POPC   D2A70108   7.459  23.672   6.753
10552POPC   C3A70109   7.377  23.725   7.053
10552POPC   C4A70110   7.436  23.703   7.353
10552POPC   C1B70111   7.259  23.614   6.453
10552POPC   C2B70112   7.217  23.586   6.753
10552POPC   C3B70113   7.176  23.569   7.053
10552POPC   C4B70114   7.176  23.590   7.353
10553POPC   NC370115  29.114  27.572   5.553
10553POPC   PO470116  29.144  27.635   5.853
10553POPC   GL170117  29.153  27.602   6.153
10553POPC   GL270118  29.190  27.648   6.153
10553POPC   C1A70119  29.113  27.602   6.453
10553POPC   D2A70120  29.132  27.569   6.753
10553POPC   C3A70121  29.132  27.564   7.053
10553POPC   C4A70122  29.100  27.621   7.353
10553POPC   C1B70123  29.285  27.757   6.453
10553POPC   C2B70124  29.283  27.799   6.753
10553POPC   C3B70125  29.374  27.735   7.053
10553POPC   C4B70126  29.340  27.769   7.353
10554POPC   NC370127   9.752  16.740   5.553
10554POPC   PO470128   9.740  16.759   5.853
10554POPC   GL170129   9.712  16.756   6.153
10554POPC   GL270130   9.626  16.728   6.153
10554POPC   C1A70131   9.746  16.686   6.453
10554POPC   D2A70132   9.741  16.697   6.753
10554POPC   C3A70133   9.720  16.733   7.053
10554POPC   C4A70134   9.791  16.771   7.353
10554POPC   C1B70135   9.454  16.740   6.453
10554POPC   C2B70136   9.462  16.701   6.753
10554POPC   C3B70137   9.535  16.774   7.053
10554POPC   C4B70138   9.459  16.738   7.353
10555POPC   NC370139  38.422  33.043   5.553
10555POPC   PO470140  38.476  33.061   5.853
10555POPC   GL170141  38.451  33.038   6.153
10555POPC   GL270142  38.560  32.972   6.153
10555POPC   C1A70143  38.413  32.998   6.453
10555POPC   D2A70144  38.437  33.052   6.753
10555POPC   C3A70145  38.414  33.026   7.053
10555POPC   C4A70146  38.485  33.008   7.353
10555POPC   C1B70147  38.625  32.875   6.453
10555POPC   C2B70148  38.665  32.840   6.753
10555POPC   C3B70149  38.625  32.803   7.053
10555POPC   C4B70150  38.628  32.808   7.353
10556POPC   NC370151  24.465   2.778   5.553
10556POPC   PO470152  24.507   2.754   5.853
10556POPC   GL170153  24.530   2.804   6.153
10556POPC   GL270154  24.403   2.597   6.153
10556POPC   C1A70155  24.453   2.717   6.453
10556POPC   D2A70156  24.537   2.814   6.753
10556POPC   C3A70157  24.492   2.760   7.053
10556POPC   C4A70158  24.470   2.802   7.353
10556POPC   C1B70159  24.389   2.562   6.453
10556POPC   C2B70160  24.414   2.551   6.753
10556POPC   C3B70161  24.417   2.485   7.053
10556POPC   C4B70162  24.439   2.519   7.353
10557POPC   NC370163  29.901  40.790   5.553
10557POPC   PO470164  29.896  40.793   5.853
10557POPC   GL170165  29.943  40.746   6.153
10557POPC   GL270166  29.832  40.760   6.153
10557POPC   C1A70167  29.896  40.812   6.453
10557POPC   D2A70168  29.872  40.768   6.753
10557POPC   C3A70169  29.896  40.817   7.053
10557POPC   C4A70170  29.968  40.785   7.353
10557POPC   C1B70171  29.719  40.649   6.453
10557POPC   C2B70172  29.731  40.630   6.753
10557POPC   C3B70173  29.709  40.602   7.053
10557POPC   C4B70174  29.710  40.634   7.353
10558POPC   NC370175  32.216  14.421   5.553
10558POPC   PO470176  32.263  14.440   5.853
10558POPC   GL170177  32.205  14.374   6.153
10558POPC   GL270178  32.187  14.245   6.153
10558POPC   C1A70179  32.261  14.403   6.453
10558POPC   D2A70180  32.238  14.433   6.753
10558POPC   C3A70181  32.266  14.388   7.053
10558POPC   C4A70182  32.243  14.453   7.353
10558POPC   C1B70183  32.210  14.175   6.453
10558POPC   C2B70184  32.221  14.165   6.753
10558POPC   C3B70185  32.210  14.122   7.053
10558POPC   C4B70186  32.253  14.163   7.353
10559POPC   NC370187  16.731   9.021   5.553
10559POPC   PO470188  16.769   9.012   5.853
10559POPC   GL170189  16.745   8.979   6.153
10559POPC   GL270190  16.772   9.066   6.153
10559POPC   C1A70191  16.724   8.952   6.453
10559POPC   D2A70192  16.753   8.976   6.753
10559POPC   C3A70193  16.760   8.980   7.053
10559POPC   C4A70194  16.693   8.982   7.353
10559POPC   C1B70195  16.938   9.124   6.453
10559POPC   C2B70196  16.933   9.142   6.753
10559POPC   C3B70197  16.939   9.127   7.053
10559POPC   C4B70198  16.914   9.151   7.353
10560POPC   NC370199  33.020   2.769   5.553
10560POPC   PO470200  33.050   2.752   5.853
10560POPC   GL170201  33.023   2.815   6.153
10560POPC   GL270202  32.957   2.647   6.153
10560POPC   C1A70203  33.026   2.773   6.453
10560POPC   D2A70204  33.037   2.745   6.753
10560POPC   C3A70205  32.989   2.792   7.053
10560POPC   C4A70206  32.988   2.807   7.353
10560POPC   C1B70207  32.949   2.480   6.453
10560POPC   C2B70208  32.922   2.514   6.753
10560POPC   C3B70209  32.941   2.519   7.053
10560POPC   C4B70210  32.932   2.497   7.353
10561POPC   NC370211  25.219  15.217   5.553
10561POPC   PO470212  25.258  15.177   5.853
10561POPC   GL170213  25.280  15.208   6.153
10561POPC   GL270214  25.342  15.084   6.153
10561POPC   C1A70215  25.315  15.187   6.453
10561POPC   D2A70216  25.303  15.147   6.753
10561POPC   C3A70217  25.220  15.138   7.053
10561POPC   C4A70218  25.296  15.193   7.353
10561POPC   C1B70219  25.484  15.050   6.453
10561POPC   C2B70220  25.501  14.988   6.753
10561POPC   C3B70221  25.488  14.970   7.053
10561POPC   C4B70222  25.462  15.028   7.353
10562POPC   NC370223  29.123  39.217   5.553
10562POPC   PO470224  29.174  39.200   5.853
10562POPC   GL170225  29.142  39.259   6.153
10562POPC   GL270226  29.061  39.327   6.153
10562POPC   C1A70227  29.149  39.246   6.453
10562POPC   D2A70228  29.180  39.230   6.753
10562POPC   C3A70229  29.152  39.237   7.053
10562POPC   C4A70230  29.176  39.234   7.353
10562POPC   C1B70231  28.893  39.312   6.453
10562POPC   C2B70232  28.876  39.335   6.753
10562POPC   C3B70233  28.906  39.342   7.053
10562POPC   C4B70234  28.897  39.362   7.353
10563POPC   NC370235  36.915  43.864   5.553
10563POPC   PO470236  36.870  43.880   5.853
10563POPC   GL170237  36.925  43.852   6.153
10563POPC   GL270238  36.823  43.835   6.153
10563POPC   C1A70239  36.878  43.859   6.453
10563POPC   D2A70240  36.946  43.920   6.753
10563POPC   C3A70241  36.897  43.900   7.053
10563POPC   C4A70242  36.856  43.872   7.353
10563POPC   C1B70243  36.684  43.807   6.453
10563POPC   C2B70244  36.732  43.780   6.753
10563POPC   C3B70245  36.705  43.745   7.053
10563POPC   C4B70246  36.653  43.715   7.353
10564POPC   NC370247  18.244  22.932   5.553
10564POPC   PO470248  18.307  22.955   5.853
10564POPC   GL170249  18.265  22.898   6.153
10564POPC   GL270250  18.318  23.026   6.153
10564POPC   C1A70251  18.284  22.895   6.453
10564POPC   D2A70252  18.291  22.984   6.753
10564POPC   C3A70253  18.322  22.926   7.053
10564POPC   C4A70254  18.324  22.981   7.353
10564POPC   C1B70255  18.291  23.227   6.453
10564POPC   C2B70256  18.349  23.215   6.753
10564POPC   C3B70257  18.345  23.233   7.053
10564POPC   C4B70258  18.303  23.187   7.353
10565POPC   NC370259   8.965  43.839   5.553
10565POPC   PO470260   8.950  43.849   5.853
10565POPC   GL170261   8.974  43.929   6.153
10565POPC   GL270262   8.892  43.952   6.153
10565POPC   C1A70263   8.998  43.851   6.453
10565POPC   D2A70264   8.948  43.842   6.753
10565POPC   C3A70265   8.989  43.853   7.053
10565POPC   C4A70266   8.934  43.867   7.353
10565POPC   C1B70267   8.795  43.998   6.453
10565POPC   C2B70268   8.774  43.999   6.753
10565POPC   C3B70269   8.729  43.990   7.053
10565POPC   C4B70270   8.738  43.974   7.353
10566POPC   NC370271  15.158  22.118   5.553
10566POPC   PO470272  15.173  22.139   5.853
10566POPC   GL170273  15.209  22.120   6.153
10566POPC   GL270274  15.113  22.083   6.153
10566POPC   C1A70275  15.192  22.120   6.453
10566POPC   D2A70276  15.131  22.172   6.753
10566POPC   C3A70277  15.185  22.169   7.053
10566POPC   C4A70278  15.205  22.121   7.353
10566POPC   C1B70279  15.014  22.003   6.453
10566POPC   C2B70280  14.972  22.028   6.753
10566POPC   C3B70281  15.019  22.015   7.053
10566POPC   C4B70282  15.026  21.973   7.353
10567POPC   NC370283  39.971  26.799   5.553
10567POPC   PO470284  40.020  26.768   5.853
10567POPC   GL170285  40.043  26.809   6.153
10567POPC   GL270286  40.115  26.891   6.153
10567POPC   C1A70287  39.998  26.834   6.453
10567POPC   D2A70288  40.038  26.864   6.753
10567POPC   C3A70289  39.980  26.819   7.053
10567POPC   C4A70290  39.980  26.837   7.353
10567POPC   C1B70291  40.245  26.882   6.453
10567POPC   C2B70292  40.247  26.939   6.753
10567POPC   C3B70293  40.230  26.936   7.053
10567POPC   C4B70294  40.221  26.940   7.353
10568POPC   NC370295  23.755  36.898   5.553
10568POPC   PO470296  23.721  36.918   5.853
10568POPC   GL170297  23.729  36.926   6.153
10568POPC   GL270298  23.584  36.873   6.153
10568POPC   C1A70299  23.726  36.858   6.453
10568POPC   D2A70300  23.738  36.897   6.753
10568POPC   C3A70301  23.696  36.880   7.053
10568POPC   C4A70302  23.693  36.866   7.353
10568POPC   C1B70303  23.509  36.824   6.453
10568POPC   C2B70304  23.503  36.823   6.753
10568POPC   C3B70305  23.471  36.804   7.053
10568POPC   C4B70306  23.453  36.790   7.353
10569POPC   NC370307   9.020  43.143   5.553
10569POPC   PO470308   8.991  43.151   5.853
10569POPC   GL170309   8.966  43.112   6.153
10569POPC   GL270310   8.927  43.214   6.153
10569POPC   C1A70311   8.944  43.100   6.453
10569POPC   D2A70312   8.996  43.117   6.753
10569POPC   C3A70313   9.000  43.070   7.053
10569POPC   C4A70314   8.969  43.080   7.353
10569POPC   C1B70315   8.753  43.239   6.453
10569POPC   C2B70316   8.755  43.268   6.753
10569POPC   C3B70317   8.739  43.307   7.053
10569POPC   C4B70318   8.813  43.274   7.353
10570POPC   NC370319   2.000  29.123   5.553
10570POPC   PO470320   2.006  29.159   5.853
10570POPC   GL170321   2.035  29.131   6.153
10570POPC   GL270322   1.994  29.015   6.153
10570POPC   C1A70323   1.968  29.168   6.453
10570POPC   D2A70324   1.945  29.180   6.753
10570POPC   C3A70325   1.995  29.156   7.053
10570POPC   C4A70326   1.941  29.170   7.353
10570POPC   C1B70327   1.926  28.859   6.453
10570POPC   C2B70328   1.928  28.866   6.753
10570POPC   C3B70329   1.907  28.911   7.053
10570POPC   C4B70330   1.944  28.945   7.353
10571POPC   NC370331  22.136  40.735   5.553
10571POPC   PO470332  22.141  40.797   5.853
10571POPC   GL170333  22.149  40.784   6.153
10571POPC   GL270334  22.315  40.763   6.153
10571POPC   C1A70335  22.202  40.830   6.453
10571POPC   D2A70336  22.120  40.788   6.753
10571POPC   C3A70337  22.122  40.777   7.053
10571POPC   C4A70338  22.180  40.828   7.353
10571POPC   C1B70339  22.455  40.786   6.453
10571POPC   C2B70340  22.382  40.764   6.753
10571POPC   C3B70341  22.435  40.830   7.053
10571POPC   C4B70342  22.451  40.814   7.353
10572POPC   NC370343  23.694  35.328   5.553
10572POPC   PO470344  23.684  35.336   5.853
10572POPC   GL170345  23.693  35.391   6.153
10572POPC   GL270346  23.677  35.220   6.153
10572POPC   C1A70347  23.672  35.385   6.453
10572POPC   D2A70348  23.737  35.308   6.753
10572POPC   C3A70349  23.697  35.306   7.053
10572POPC   C4A70350  23.684  35.336   7.353
10572POPC   C1B70351  23.621  35.176   6.453
10572POPC   C2B70352  23.625  35.119   6.753
10572POPC   C3B70353  23.607  35.126   7.053
10572POPC   C4B70354  23.548  35.163   7.353
10573POPC   NC370355  10.566  19.025   5.553
10573POPC   PO470356  10.518  19.089   5.853
10573POPC   GL170357  10.525  19.049   6.153
10573POPC   GL270358  10.400  19.185   6.153
10573POPC   C1A70359  10.496  19.089   6.453
10573POPC   D2A70360  10.513  19.011   6.753
10573POPC   C3A70361  10.478  19.064   7.053
10573POPC   C4A70362  10.560  19.013   7.353
10573POPC   C1B70363  10.397  19.221   6.453
10573POPC   C2B70364  10.370  19.231   6.753
10573POPC   C3B70365  10.377  19.279   7.053
10573POPC   C4B70366  10.350  19.250   7.353
10574POPC   NC370367  29.192  12.836   5.553
10574POPC   PO470368  29.119  12.853   5.853
10574POPC   GL170369  29.173  12.901   6.153
10574POPC   GL270370  29.269  12.783   6.153
10574POPC   C1A70371  29.182  12.834   6.453
10574POPC   D2A70372  29.146  12.885   6.753
10574POPC   C3A70373  29.137  12.802   7.053
10574POPC   C4A70374  29.123  12.881   7.353
10574POPC   C1B70375  29.291  12.670   6.453
10574POPC   C2B70376  29.341  12.725   6.753
10574POPC   C3B70377  29.348  12.725   7.053
10574POPC   C4B70378  29.291  12.691   7.353
10575POPC   NC370379  10.552  21.396   5.553
10575POPC   PO470380  10.491  21.423   5.853
10575POPC   GL170381  10.546  21.377   6.153
10575POPC   GL270382  10.424  21.325   6.153
10575POPC   C1A70383  10.485  21.378   6.453
10575POPC   D2A70384  10.544  21.343   6.753
10575POPC   C3A70385  10.483  21.401   7.053
10575POPC   C4A70386  10.494  21.393   7.353
10575POPC   C1B70387  10.276  21.270   6.453
10575POPC   C2B70388  10.372  21.254   6.753
10575POPC   C3B70389  10.342  21.226   7.053
10575POPC   C4B70390  10.296  21.271   7.353
10576POPC   NC370391  31.515  35.400   5.553
10576POPC   PO470392  31.498  35.363   5.853
10576POPC   GL170393  31.436  35.400   6.153
10576POPC   GL270394  31.477  35.272   6.153
10576POPC   C1A70395  31.462  35.395   6.453
10576POPC   D2A70396  31.514  35.362   6.753
10576POPC   C3A70397  31.456  35.320   7.053
10576POPC   C4A70398  31.442  35.363   7.353
10576POPC   C1B70399  31.467  35.137   6.453
10576POPC   C2B70400  31.432  35.146   6.753
10576POPC   C3B70401  31.512  35.086   7.053
10576POPC   C4B70402  31.478  35.114   7.353
10577POPC   NC370403  29.153  14.434   5.553
10577POPC   PO470404  29.152  14.410   5.853
10577POPC   GL170405  29.152  14.442   6.153
10577POPC   GL270406  29.202  14.519   6.153
10577POPC   C1A70407  29.194  14.358   6.453
10577POPC   D2A70408  29.134  14.401   6.753
10577POPC   C3A70409  29.169  14.425   7.053
10577POPC   C4A70410  29.131  14.440   7.353
10577POPC   C1B70411  29.331  14.542   6.453
10577POPC   C2B70412  29.363  14.539   6.753
10577POPC   C3B70413  29.349  14.568   7.053
10577POPC   C4B70414  29.317  14.608   7.353
10578POPC   NC370415  13.588  26.809   5.553
10578POPC   PO470416  13.626  26.797   5.853
10578POPC   GL170417  13.609  26.865   6.153
10578POPC   GL270418  13.582  26.914   6.153
10578POPC   C1A70419  13.622  26.838   6.453
10578POPC   D2A70420  13.640  26.844   6.753
10578POPC   C3A70421  13.662  26.854   7.053
10578POPC   C4A70422  13.607  26.856   7.353
10578POPC   C1B70423  13.608  27.010   6.453
10578POPC   C2B70424  13.536  27.027   6.753
10578POPC   C3B70425  13.597  27.095   7.053
10578POPC   C4B70426  13.568  27.017   7.353
10579POPC   NC370427   2.019  20.615   5.553
10579POPC   PO470428   1.948  20.580   5.853
10579POPC   GL170429   1.966  20.624   6.153
10579POPC   GL270430   1.899  20.670   6.153
10579POPC   C1A70431   2.008  20.624   6.453
10579POPC   D2A70432   1.978  20.639   6.753
10579POPC   C3A70433   2.038  20.636   7.053
10579POPC   C4A70434   2.031  20.570   7.353
10579POPC   C1B70435   1.815  20.759   6.453
10579POPC   C2B70436   1.736  20.680   6.753
10579POPC   C3B70437   1.720  20.731   7.053
10579POPC   C4B70438   1.779  20.744   7.353
10580POPC   NC370439   4.284  16.721   5.553
10580POPC   PO470440   4.298  16.699   5.853
10580POPC   GL170441   4.292  16.716   6.153
10580POPC   GL270442   4.353  16.591   6.153
10580POPC   C1A70443   4.269  16.696   6.453
10580POPC   D2A70444   4.274  16.690   6.753
10580POPC   C3A70445   4.318  16.747   7.053
10580POPC   C4A70446   4.311  16.718   7.353
10580POPC   C1B70447   4.446  16.543   6.453
10580POPC   C2B70448   4.391  16.488   6.753
10580POPC   C3B70449   4.376  16.493   7.053
10580POPC   C4B70450   4.371  16.491   7.353
10581POPC   NC370451   8.987  44.687   5.553
10581POPC   PO470452   8.941  44.682   5.853
10581POPC   GL170453   8.945  44.697   6.153
10581POPC   GL270454   9.121  44.623   6.153
10581POPC   C1A70455   8.971  44.619   6.453
10581POPC   D2A70456   8.959  44.689   6.753
10581POPC   C3A70457   8.949  44.702   7.053
10581POPC   C4A70458   9.011  44.664   7.353
10581POPC   C1B70459   9.225  44.621   6.453
10581POPC   C2B70460   9.218  44.695   6.753
10581POPC   C3B70461   9.220  44.630   7.053
10581POPC   C4B70462   9.254  44.712   7.353
10582POPC   NC370463  32.975  32.276   5.553
10582POPC   PO470464  33.058  32.294   5.853
10582POPC   GL170465  33.015  32.220   6.153
10582POPC   GL270466  33.043  32.151   6.153
10582POPC   C1A70467  33.010  32.286   6.453
10582POPC   D2A70468  33.034  32.294   6.753
10582POPC   C3A70469  33.064  32.297   7.053
10582POPC   C4A70470  32.985  32.278   7.353
10582POPC   C1B70471  33.093  32.040   6.453
10582POPC   C2B70472  33.135  31.992   6.753
10582POPC   C3B70473  33.134  32.048   7.053
10582POPC   C4B70474  33.144  32.016   7.353
10583POPC   NC370475   3.582  23.677   5.553
10583POPC   PO470476   3.565  23.760   5.853
10583POPC   GL170477   3.586  23.744   6.153
10583POPC   GL270478   3.471  23.646   6.153
10583POPC   C1A70479   3.506  23.698   6.453
10583POPC   D2A70480   3.494  23.726   6.753
10583POPC   C3A70481   3.555  23.739   7.053
10583POPC   C4A70482   3.551  23.742   7.353
10583POPC   C1B70483   3.301  23.543   6.453
10583POPC   C2B70484   3.346  23.522   6.753
10583POPC   C3B70485   3.359  23.587   7.053
10583POPC   C4B70486   3.335  23.563   7.353
10584POPC   NC370487  10.506  13.652   5.553
10584POPC   PO470488  10.548  13.672   5.853
10584POPC   GL170489  10.478  13.614   6.153
10584POPC   GL270490  10.520  13.513   6.153
10584POPC   C1A70491  10.532  13.675   6.453
10584POPC   D2A70492  10.496  13.666   6.753
10584POPC   C3A70493  10.494  13.598   7.053
10584POPC   C4A70494  10.524  13.586   7.353
10584POPC   C1B70495  10.488  13.335   6.453
10584POPC   C2B70496  10.475  13.367   6.753
10584POPC   C3B70497  10.473  13.420   7.053
10584POPC   C4B70498  10.525  13.401   7.353
10585POPC   NC370499  43.073  26.849   5.553
10585POPC   PO470500  43.145  26.824   5.853
10585POPC   GL170501  43.077  26.833   6.153
10585POPC   GL270502  43.223  26.871   6.153
10585POPC   C1A70503  43.078  26.799   6.453
10585POPC   D2A70504  43.066  26.861   6.753
10585POPC   C3A70505  43.142  26.853   7.053
10585POPC   C4A70506  43.061  26.863   7.353
10585POPC   C1B70507  43.224  27.043   6.453
10585POPC   C2B70508  43.234  27.023   6.753
10585POPC   C3B70509  43.231  27.001   7.053
10585POPC   C4B70510  43.246  27.029   7.353
10586POPC   NC370511  21.435  13.600   5.553
10586POPC   PO470512  21.338  13.600   5.853
10586POPC   GL170513  21.375  13.608   6.153
10586POPC   GL270514  21.542  13.612   6.153
10586POPC   C1A70515  21.344  13.595   6.453
10586POPC   D2A70516  21.394  13.602   6.753
10586POPC   C3A70517  21.398  13.666   7.053
10586POPC   C4A70518  21.364  13.664   7.353
10586POPC   C1B70519  21.635  13.536   6.453
10586POPC   C2B70520  21.610  13.572   6.753
10586POPC   C3B70521  21.642  13.570   7.053
10586POPC   C4B70522  21.646  13.547   7.353
10587POPC   NC370523   0.459  25.289   5.553
10587POPC   PO470524   0.430  25.302   5.853
10587POPC   GL170525   0.455  25.243   6.153
10587POPC   GL270526   0.336  25.394   6.153
10587POPC   C1A70527   0.417  25.243   6.453
10587POPC   D2A70528   0.480  25.274   6.753
10587POPC   C3A70529   0.460  25.313   7.053
10587POPC   C4A70530   0.426  25.218   7.353
10587POPC   C1B70531   0.257  25.431   6.453
10587POPC   C2B70532   0.267  25.428   6.753
10587POPC   C3B70533   0.329  25.483   7.053
10587POPC   C4B70534   0.279  25.493   7.353
10588POPC   NC370535   3.569  25.268   5.553
10588POPC   PO470536   3.538  25.217   5.853
10588POPC   GL170537   3.500  25.267   6.153
10588POPC   GL270538   3.553  25.435   6.153
10588POPC   C1A70539   3.529  25.267   6.453
10588POPC   D2A70540   3.577  25.276   6.753
10588POPC   C3A70541   3.557  25.229   7.053
10588POPC   C4A70542   3.503  25.309   7.353
10588POPC   C1B70543   3.534  25.541   6.453
10588POPC   C2B70544   3.582  25.501   6.753
10588POPC   C3B70545   3.594  25.480   7.053
10588POPC   C4B70546   3.554  25.557   7.353
10589POPC   NC370547   1.217  12.062   5.553
10589POPC   PO470548   1.168  12.037   5.853
10589POPC   GL170549   1.166  12.075   6.153
10589POPC   GL270550   1.224  11.984   6.153
10589POPC   C1A70551   1.220  12.081   6.453
10589POPC   D2A70552   1.169  12.104   6.753
10589POPC   C3A70553   1.196  12.042   7.053
10589POPC   C4A70554   1.259  12.070   7.353
10589POPC   C1B70555   1.236  11.820   6.453
10589POPC   C2B70556   1.254  11.854   6.753
10589POPC   C3B70557   1.304  11.821   7.053
10589POPC   C4B70558   1.236  11.813   7.353
10590POPC   NC370559   5.825   5.902   5.553
10590POPC   PO470560   5.887   5.912   5.853
10590POPC   GL170561   5.903   5.847   6.153
10590POPC   GL270562   5.795   5.820   6.153
10590POPC   C1A70563   5.830   5.908   6.453
10590POPC   D2A70564   5.912   5.900   6.753
10590POPC   C3A70565   5.899   5.883   7.053
10590POPC   C4A70566   5.880   5.858   7.353
10590POPC   C1B70567   5.656   5.862   6.453
10590POPC   C2B70568   5.643   5.831   6.753
10590POPC   C3B70569   5.663   5.826   7.053
10590POPC   C4B70570   5.583   5.797   7.353
10591POPC   NC370571  11.265  24.494   5.553
10591POPC   PO470572  11.271  24.520   5.853
10591POPC   GL170573  11.347  24.469   6.153
10591POPC   GL270574  11.268  24.421   6.153
10591POPC   C1A70575  11.305  24.440   6.453
10591POPC   D2A70576  11.252  24.518   6.753
10591POPC   C3A70577  11.297  24.451   7.053
10591POPC   C4A70578  11.308  24.537   7.353
10591POPC   C1B70579  11.207  24.220   6.453
10591POPC   C2B70580  11.211  24.212   6.753
10591POPC   C3B70581  11.154  24.243   7.053
10591POPC   C4B70582  11.169  24.271   7.353
10592POPC   NC370583  15.981   1.255   5.553
10592POPC   PO470584  15.924   1.199   5.853
10592POPC   GL170585  15.912   1.176   6.153
10592POPC   GL270586  16.019   1.123   6.153
10592POPC   C1A70587  15.971   1.181   6.453
10592POPC   D2A70588  15.922   1.263   6.753
10592POPC   C3A70589  15.991   1.172   7.053
10592POPC   C4A70590  15.938   1.196   7.353
10592POPC   C1B70591  16.043   1.000   6.453
10592POPC   C2B70592  15.987   0.938   6.753
10592POPC   C3B70593  16.029   1.014   7.053
10592POPC   C4B70594  16.005   1.020   7.353
10593POPC   NC370595  11.291  22.170   5.553
10593POPC   PO470596  11.271  22.146   5.853
10593POPC   GL170597  11.335  22.160   6.153
10593POPC   GL270598  11.325  22.043   6.153
10593POPC   C1A70599  11.282  22.161   6.453
10593POPC   D2A70600  11.350  22.160   6.753
10593POPC   C3A70601  11.298  22.134   7.053
10593POPC   C4A70602  11.271  22.176   7.353
10593POPC   C1B70603  11.270  21.892   6.453
10593POPC   C2B70604  11.279  21.955   6.753
10593POPC   C3B70605  11.314  21.891   7.053
10593POPC   C4B70606  11.288  21.947   7.353
10594POPC   NC370607  15.913   9.773   5.553
10594POPC   PO470608  16.003   9.751   5.853
10594POPC   GL170609  15.913   9.759   6.153
10594POPC   GL270610  15.990   9.907   6.153
10594POPC   C1A70611  15.925   9.747   6.453
10594POPC   D2A70612  15.926   9.751   6.753
10594POPC   C3A70613  15.912   9.786   7.053
10594POPC   C4A70614  15.943   9.729   7.353
10594POPC   C1B70615  15.929   9.957   6.453
10594POPC   C2B70616  15.949   9.996   6.753
10594POPC   C3B70617  15.981  10.006   7.053
10594POPC   C4B70618  15.898   9.995   7.353
10595POPC   NC370619  36.094   1.206   5.553
10595POPC   PO470620  36.167   1.244   5.853
10595POPC   GL170621  36.125   1.181   6.153
10595POPC   GL270622  36.129   1.086   6.153
10595POPC   C1A70623  36.117   1.263   6.453
10595POPC   D2A70624  36.145   1.173   6.753
10595POPC   C3A70625  36.088   1.187   7.053
10595POPC   C4A70626  36.136   1.195   7.353
10595POPC   C1B70627  36.191   1.006   6.453
10595POPC   C2B70628  36.155   0.964   6.753
10595POPC   C3B70629  36.136   0.978   7.053
10595POPC   C4B70630  36.198   1.017   7.353
10596POPC   NC370631  39.186  19.044   5.553
10596POPC   PO470632  39.266  19.079   5.853
10596POPC   GL170633  39.278  19.052   6.153
10596POPC   GL270634  39.269  18.926   6.153
10596POPC   C1A70635  39.221  19.021   6.453
10596POPC   D2A70636  39.191  19.053   6.753
10596POPC   C3A70637  39.280  19.083   7.053
10596POPC   C4A70638  39.204  19.067   7.353
10596POPC   C1B70639  39.214  18.856   6.453
10596POPC   C2B70640  39.293  18.837   6.753
10596POPC   C3B70641  39.238  18.765   7.053
10596POPC   C4B70642  39.245  18.836   7.353
10597POPC   NC370643   6.627   7.377   5.553
10597POPC   PO470644   6.596   7.430   5.853
10597POPC   GL170645   6.616   7.400   6.153
10597POPC   GL270646   6.772   7.504   6.153
10597POPC   C1A70647   6.666   7.445   6.453
10597POPC   D2A70648   6.633   7.456   6.753
10597POPC   C3A70649   6.600   7.395   7.053
10597POPC   C4A70650   6.601   7.401   7.353
10597POPC   C1B70651   6.840   7.593   6.453
10597POPC   C2B70652   6.859   7.541   6.753
10597POPC   C3B70653   6.830   7.582   7.053
10597POPC   C4B70654   6.810   7.558   7.353
10598POPC   NC370655  28.400  23.752   5.553
10598POPC   PO470656  28.402  23.673   5.853
10598POPC   GL170657  28.342  23.711   6.153
10598POPC   GL270658  28.220  23.738   6.153
10598POPC   C1A70659  28.384  23.681   6.453
10598POPC   D2A70660  28.401  23.690   6.753
10598POPC   C3A70661  28.323  23.712   7.053
10598POPC   C4A70662  28.411  23.697   7.353
10598POPC   C1B70663  28.119  23.719   6.453
10598POPC   C2B70664  28.085  23.713   6.753
10598POPC   C3B70665  28.107  23.697   7.053
10598POPC   C4B70666  28.162  23.691   7.353
10599POPC   NC370667  36.882  28.335   5.553
10599POPC   PO470668  36.937  28.412   5.853
10599POPC   GL170669  36.942  28.391   6.153
10599POPC   GL270670  36.996  28.310   6.153
10599POPC   C1A70671  36.875  28.350   6.453
10599POPC   D2A70672  36.932  28.412   6.753
10599POPC   C3A70673  36.937  28.340   7.053
10599POPC   C4A70674  36.890  28.375   7.353
10599POPC   C1B70675  37.143  28.209   6.453
10599POPC   C2B70676  37.147  28.287   6.753
10599POPC   C3B70677  37.096  28.271   7.053
10599POPC   C4B70678  37.113  28.232   7.353
10600POPC   NC370679  22.972   7.448   5.553
10600POPC   PO470680  22.911   7.395   5.853
10600POPC   GL170681  22.986   7.466   6.153
10600POPC   GL270682  22.913   7.296   6.153
10600POPC   C1A70683  22.969   7.385   6.453
10600POPC   D2A70684  22.927   7.379   6.753
10600POPC   C3A70685  22.927   7.417   7.053
10600POPC   C4A70686  22.905   7.451   7.353
10600POPC   C1B70687  23.011   7.184   6.453
10600POPC   C2B70688  22.966   7.199   6.753
10600POPC   C3B70689  23.018   7.151   7.053
10600POPC   C4B70690  23.018   7.212   7.353
10601POPC   NC370691   8.952  30.661   5.553
10601POPC   PO470692   8.929  30.694   5.853
10601POPC   GL170693   8.956  30.673   6.153
10601POPC   GL270694   9.057  30.727   6.153
10601POPC   C1A70695   8.955  30.711   6.453
10601POPC   D2A70696   9.010  30.676   6.753
10601POPC   C3A70697   8.988  30.677   7.053
10601POPC   C4A70698   8.992  30.686   7.353
10601POPC   C1B70699   9.181  30.764   6.453
10601POPC   C2B70700   9.246  30.821   6.753
10601POPC   C3B70701   9.238  30.763   7.053
10601POPC   C4B70702   9.155  30.763   7.353
10602POPC   NC370703  43.090  38.431   5.553
10602POPC   PO470704  43.093  38.463   5.853
10602POPC   GL170705  43.153  38.468   6.153
10602POPC   GL270706  43.050  38.345   6.153
10602POPC   C1A70707  43.087  38.482   6.453
10602POPC   D2A70708  43.070  38.445   6.753
10602POPC   C3A70709  43.151  38.449   7.053
10602POPC   C4A70710  43.105  38.484   7.353
10602POPC   C1B70711  42.944  38.207   6.453
10602POPC   C2B70712  42.969  38.238   6.753
10602POPC   C3B70713  43.028  38.221   7.053
10602POPC   C4B70714  42.971  38.270   7.353
10603POPC   NC370715  16.739  31.499   5.553
10603POPC   PO470716  16.756  31.429   5.853
10603POPC   GL170717  16.723  31.471   6.153
10603POPC   GL270718  16.683  31.344   6.153
10603POPC   C1A70719  16.715  31.479   6.453
10603POPC   D2A70720  16.773  31.471   6.753
10603POPC   C3A70721  16.685  31.468   7.053
10603POPC   C4A70722  16.758  31.443   7.353
10603POPC   C1B70723  16.721  31.192   6.453
10603POPC   C2B70724  16.715  31.236   6.753
10603POPC   C3B70725  16.670  31.264   7.053
10603POPC   C4B70726  16.681  31.195   7.353
10604POPC   NC370727  32.266  29.898   5.553
10604POPC   PO470728  32.289  29.872   5.853
10604POPC   GL170729  32.279  29.915   6.153
10604POPC   GL270730  32.164  30.000   6.153
10604POPC   C1A70731  32.205  29.915   6.453
10604POPC   D2A70732  32.232  29.882   6.753
10604POPC   C3A70733  32.296  29.889   7.053
10604POPC   C4A70734  32.223  29.881   7.353
10604POPC   C1B70735  32.192  30.186   6.453
10604POPC   C2B70736  32.206  30.172   6.753
10604POPC   C3B70737  32.184  30.179   7.053
10604POPC   C4B70738  32.128  30.195   7.353
10605POPC   NC370739   6.680   8.170   5.553
10605POPC   PO470740   6.651   8.233   5.853
10605POPC   GL170741   6.689   8.244   6.153
10605POPC   GL270742   6.786   8.208   6.153
10605POPC   C1A70743   6.644   8.179   6.453
10605POPC   D2A70744   6.649   8.216   6.753
10605POPC   C3A70745   6.654   8.221   7.053
10605POPC   C4A70746   6.619   8.177   7.353
10605POPC   C1B70747   6.897   8.298   6.453
10605POPC   C2B70748   6.925   8.248   6.753
10605POPC   C3B70749   6.901   8.235   7.053
10605POPC   C4B70750   6.845   8.254   7.353
10606POPC   NC370751  22.976  43.848   5.553
10606POPC   PO470752  22.986  43.893   5.853
10606POPC   GL170753  22.930  43.911   6.153
10606POPC   GL270754  23.032  44.020   6.153
10606POPC   C1A70755  22.953  43.860   6.453
10606POPC   D2A70756  22.945  43.843   6.753
10606POPC   C3A70757  22.897  43.925   7.053
10606POPC   C4A70758  22.904  43.925   7.353
10606POPC   C1B70759  23.081  44.151   6.453
10606POPC   C2B70760  23.025  44.147   6.753
10606POPC   C3B70761  23.052  44.135   7.053
10606POPC   C4B70762  23.018  44.130   7.353
10607POPC   NC370763   8.235   1.261   5.553
10607POPC   PO470764   8.185   1.215   5.853
10607POPC   GL170765   8.191   1.179   6.153
10607POPC   GL270766   8.109   1.247   6.153
10607POPC   C1A70767   8.194   1.197   6.453
10607POPC   D2A70768   8.192   1.223   6.753
10607POPC   C3A70769   8.158   1.262   7.053
10607POPC   C4A70770   8.223   1.261   7.353
10607POPC   C1B70771   8.009   1.408   6.453
10607POPC   C2B70772   8.031   1.323   6.753
10607POPC   C3B70773   7.993   1.375   7.053
10607POPC   C4B70774   7.954   1.411   7.353
10608POPC   NC370775  18.283   5.820   5.553
10608POPC   PO470776  18.319   5.828   5.853
10608POPC   GL170777  18.283   5.882   6.153
10608POPC   GL270778  18.167   5.845   6.153
10608POPC   C1A70779  18.298   5.879   6.453
10608POPC   D2A70780  18.313   5.860   6.753
10608POPC   C3A70781  18.269   5.912   7.053
10608POPC   C4A70782  18.292   5.871   7.353
10608POPC   C1B70783  18.066   5.921   6.453
10608POPC   C2B70784  17.995   5.858   6.753
10608POPC   C3B70785  18.000   5.834   7.053
10608POPC   C4B70786  18.045   5.905   7.353
10609POPC   NC370787  24.509  19.027   5.553
10609POPC   PO470788  24.478  19.078   5.853
10609POPC   GL170789  24.488  19.013   6.153
10609POPC   GL270790  24.523  18.973   6.153
10609POPC   C1A70791  24.530  19.096   6.453
10609POPC   D2A70792  24.482  19.085   6.753
10609POPC   C3A70793  24.441  19.082   7.053
10609POPC   C4A70794  24.524  19.024   7.353
10609POPC   C1B70795  24.431  18.781   6.453
10609POPC   C2B70796  24.482  18.771   6.753
10609POPC   C3B70797  24.495  18.810   7.053
10609POPC   C4B70798  24.503  18.815   7.353
10610POPC   NC370799  26.824  19.828   5.553
10610POPC   PO470800  26.805  19.833   5.853
10610POPC   GL170801  26.803  19.840   6.153
10610POPC   GL270802  26.852  19.925   6.153
10610POPC   C1A70803  26.790  19.869   6.453
10610POPC   D2A70804  26.860  19.796   6.753
10610POPC   C3A70805  26.855  19.836   7.053
10610POPC   C4A70806  26.837  19.830   7.353
10610POPC   C1B70807  26.924  20.094   6.453
10610POPC   C2B70808  26.966  20.062   6.753
10610POPC   C3B70809  26.952  20.062   7.053
10610POPC   C4B70810  26.936  20.005   7.353
10611POPC   NC370811   5.842  31.451   5.553
10611POPC   PO470812   5.918  31.440   5.853
10611POPC   GL170813   5.908  31.430   6.153
10611POPC   GL270814   5.850  31.559   6.153
10611POPC   C1A70815   5.851  31.521   6.453
10611POPC   D2A70816   5.863  31.501   6.753
10611POPC   C3A70817   5.864  31.472   7.053
10611POPC   C4A70818   5.863  31.458   7.353
10611POPC   C1B70819   5.850  31.719   6.453
10611POPC   C2B70820   5.881  31.770   6.753
10611POPC   C3B70821   5.839  31.752   7.053
10611POPC   C4B70822   5.864  31.683   7.353
10612POPC   NC370823  19.068  29.187   5.553
10612POPC   PO470824  19.041  29.187   5.853
10612POPC   GL170825  19.021  29.103   6.153
10612POPC   GL270826  18.918  29.126   6.153
10612POPC   C1A70827  19.090  29.160   6.453
10612POPC   D2A70828  19.041  29.162   6.753
10612POPC   C3A70829  19.036  29.104   7.053
10612POPC   C4A70830  19.064  29.141   7.353
10612POPC   C1B70831  18.827  29.223   6.453
10612POPC   C2B70832  18.786  29.237   6.753
10612POPC   C3B70833  18.812  29.247   7.053
10612POPC   C4B70834  18.810  29.172   7.353
10613POPC   NC370835  36.169  42.375   5.553
10613POPC   PO470836  36.169  42.363   5.853
10613POPC   GL170837  36.149  42.290   6.153
10613POPC   GL270838  36.174  42.480   6.153
10613POPC   C1A70839  36.100  42.323   6.453
10613POPC   D2A70840  36.157  42.368   6.753
10613POPC   C3A70841  36.161  42.358   7.053
10613POPC   C4A70842  36.121  42.336   7.353
10613POPC   C1B70843  36.265  42.553   6.453
10613POPC   C2B70844  36.319  42.531   6.753
10613POPC   C3B70845  36.266  42.515   7.053
10613POPC   C4B70846  36.265  42.557   7.353
10614POPC   NC370847  33.761  18.310   5.553
10614POPC   PO470848  33.805  18.328   5.853
10614POPC   GL170849  33.812  18.306   6.153
10614POPC   GL270850  33.737  18.383   6.153
10614POPC   C1A70851  33.833  18.284   6.453
10614POPC   D2A70852  33.769  18.276   6.753
10614POPC   C3A70853  33.758  18.286   7.053
10614POPC   C4A70854  33.839  18.297   7.353
10614POPC   C1B70855  33.589  18.470   6.453
10614POPC   C2B70856  33.636  18.501   6.753
10614POPC   C3B70857  33.651  18.425   7.053
10614POPC   C4B70858  33.650  18.498   7.353
10615POPC   NC370859  36.150  13.676   5.553
10615POPC   PO470860  36.113  13.620   5.853
10615POPC   GL170861  36.145  13.643   6.153
10615POPC   GL270862  36.181  13.724   6.153
10615POPC   C1A70863  36.151  13.615   6.453
10615POPC   D2A70864  36.176  13.655   6.753
10615POPC   C3A70865  36.110  13.641   7.053
10615POPC   C4A70866  36.098  13.583   7.353
10615POPC   C1B70867  36.278  13.833   6.453
10615POPC   C2B70868  36.282  13.789   6.753
10615POPC   C3B70869  36.258  13.809   7.053
10615POPC   C4B70870  36.317  13.844   7.353
10616POPC   NC370871  31.458  39.183   5.553
10616POPC   PO470872  31.435  39.223   5.853
10616POPC   GL170873  31.454  39.228   6.153
10616POPC   GL270874  31.525  39.114   6.153
10616POPC   C1A70875  31.431  39.224   6.453
10616POPC   D2A70876  31.447  39.231   6.753
10616POPC   C3A70877  31.436  39.197   7.053
10616POPC   C4A70878  31.497  39.196   7.353
10616POPC   C1B70879  31.523  38.995   6.453
10616POPC   C2B70880  31.581  38.968   6.753
10616POPC   C3B70881  31.526  39.023   7.053
10616POPC   C4B70882  31.590  38.943   7.353
10617POPC   NC370883  13.647  22.124   5.553
10617POPC   PO470884  13.614  22.115   5.853
10617POPC   GL170885  13.649  22.191   6.153
10617POPC   GL270886  13.552  22.171   6.153
10617POPC   C1A70887  13.582  22.170   6.453
10617POPC   D2A70888  13.593  22.183   6.753
10617POPC   C3A70889  13.590  22.182   7.053
10617POPC   C4A70890  13.650  22.118   7.353
10617POPC   C1B70891  13.361  22.097   6.453
10617POPC   C2B70892  13.343  22.176   6.753
10617POPC   C3B70893  13.374  22.185   7.053
10617POPC   C4B70894  13.340  22.177   7.353
10618POPC   NC370895  16.731  32.231   5.553
10618POPC   PO470896  16.746  32.271   5.853
10618POPC   GL170897  16.757  32.276   6.153
10618POPC   GL270898  16.890  32.210   6.153
10618POPC   C1A70899  16.757  32.244   6.453
10618POPC   D2A70900  16.750  32.238   6.753
10618POPC   C3A70901  16.702  32.260   7.053
10618POPC   C4A70902  16.688  32.298   7.353
10618POPC   C1B70903  16.943  32.155   6.453
10618POPC   C2B70904  16.952  32.160   6.753
10618POPC   C3B70905  17.022  32.204   7.053
10618POPC   C4B70906  17.017  32.195   7.353
10619POPC   NC370907   4.300  33.005   5.553
10619POPC   PO470908   4.294  33.004   5.853
10619POPC   GL170909   4.302  33.023   6.153
10619POPC   GL270910   4.240  32.962   6.153
10619POPC   C1A70911   4.353  33.019   6.453
10619POPC   D2A70912   4.278  33.023   6.753
10619POPC   C3A70913   4.351  33.043   7.053
10619POPC   C4A70914   4.367  33.073   7.353
10619POPC   C1B70915   4.112  32.935   6.453
10619POPC   C2B70916   4.066  32.974   6.753
10619POPC   C3B70917   4.102  32.906   7.053
10619POPC   C4B70918   4.114  32.950   7.353
10620POPC   NC370919  33.022  26.022   5.553
10620POPC   PO470920  32.997  26.006   5.853
10620POPC   GL170921  33.001  26.001   6.153
10620POPC   GL270922  32.906  26.095   6.153
10620POPC   C1A70923  32.987  26.072   6.453
10620POPC   D2A70924  33.055  26.012   6.753
10620POPC   C3A70925  33.010  26.080   7.053
10620POPC   C4A70926  32.981  25.995   7.353
10620POPC   C1B70927  32.814  26.092   6.453
10620POPC   C2B70928  32.776  26.092   6.753
10620POPC   C3B70929  32.794  26.098   7.053
10620POPC   C4B70930  32.749  26.034   7.353
10621POPC   NC370931  36.170  44.670   5.553
10621POPC   PO470932  36.161  44.671   5.853
10621POPC   GL170933  36.103  44.686   6.153
10621POPC   GL270934  36.160  44.794   6.153
10621POPC   C1A70935  36.086  44.652   6.453
10621POPC   D2A70936  36.163  44.708   6.753
10621POPC   C3A70937  36.100  44.646   7.053
10621POPC   C4A70938  36.139  44.667   7.353
10621POPC   C1B70939  36.057  44.883   6.453
10621POPC   C2B70940  36.108  44.921   6.753
10621POPC   C3B70941  36.102  44.942   7.053
10621POPC   C4B70942  36.118  44.874   7.353
10622POPC   NC370943  41.562   4.360   5.553
10622POPC   PO470944  41.531   4.291   5.853
10622POPC   GL170945  41.522   4.291   6.153
10622POPC   GL270946  41.574   4.188   6.153
10622POPC   C1A70947  41.513   4.340   6.453
10622POPC   D2A70948  41.550   4.336   6.753
10622POPC   C3A70949  41.558   4.331   7.053
10622POPC   C4A70950  41.595   4.312   7.353
10622POPC   C1B70951  41.673   4.121   6.453
10622POPC   C2B70952  41.711   4.048   6.753
10622POPC   C3B70953  41.667   4.130   7.053
10622POPC   C4B70954  41.632   4.100   7.353
10623POPC   NC370955   4.310  22.137   5.553
10623POPC   PO470956   4.275  22.182   5.853
10623POPC   GL170957   4.332  22.126   6.153
10623POPC   GL270958   4.297  22.277   6.153
10623POPC   C1A70959   4.322  22.150   6.453
10623POPC   D2A70960   4.358  22.210   6.753
10623POPC   C3A70961   4.318  22.181   7.053
10623POPC   C4A70962   4.292  22.130   7.353
10623POPC   C1B70963   4.302  22.363   6.453
10623POPC   C2B70964   4.377  22.418   6.753
10623POPC   C3B70965   4.373  22.408   7.053
10623POPC   C4B70966   4.325  22.437   7.353
10624POPC   NC370967  10.543  36.131   5.553
10624POPC   PO470968  10.569  36.118   5.853
10624POPC   GL170969  10.494  36.134   6.153
10624POPC   GL270970  10.421  36.033   6.153
10624POPC   C1A70971  10.475  36.107   6.453
10624POPC   D2A70972  10.570  36.122   6.753
10624POPC   C3A70973  10.539  36.105   7.053
10624POPC   C4A70974  10.503  36.120   7.353
10624POPC   C1B70975  10.270  36.072   6.453
10624POPC   C2B70976  10.317  36.067   6.753
10624POPC   C3B70977  10.260  35.988   7.053
10624POPC   C4B70978  10.263  35.989   7.353
10625POPC   NC370979  21.345  29.909   5.553
10625POPC   PO470980  21.342  29.968   5.853
10625POPC   GL170981  21.370  29.901   6.153
10625POPC   GL270982  21.328  29.978   6.153
10625POPC   C1A70983  21.390  29.900   6.453
10625POPC   D2A70984  21.360  29.903   6.753
10625POPC   C3A70985  21.416  29.885   7.053
10625POPC   C4A70986  21.392  29.914   7.353
10625POPC   C1B70987  21.277  30.128   6.453
10625POPC   C2B70988  21.231  30.129   6.753
10625POPC   C3B70989  21.239  30.099   7.053
10625POPC   C4B70990  21.239  30.128   7.353
10626POPC   NC370991  15.912  34.543   5.553
10626POPC   PO470992  15.908  34.599   5.853
10626POPC   GL170993  15.982  34.550   6.153
10626POPC   GL270994  16.073  34.541   6.153
10626POPC   C1A70995  15.929  34.577   6.453
10626POPC   D2A70996  15.935  34.593   6.753
10626POPC   C3A70997  15.988  34.566   7.053
10626POPC   C4A70998  15.916  34.532   7.353
10626POPC   C1B70999  16.208  34.522   6.453
10626POPC   C2B71000  16.206  34.538   6.753
10626POPC   C3B71001  16.248  34.492   7.053
10626POPC   C4B71002  16.170  34.541   7.353
10627POPC   NC371003  30.722  15.194   5.553
10627POPC   PO471004  30.674  15.180   5.853
10627POPC   GL171005  30.725  15.190   6.153
10627POPC   GL271006  30.846  15.137   6.153
10627POPC   C1A71007  30.746  15.140   6.453
10627POPC   D2A71008  30.726  15.172   6.753
10627POPC   C3A71009  30.713  15.183   7.053
10627POPC   C4A71010  30.655  15.212   7.353
10627POPC   C1B71011  30.944  15.132   6.453
10627POPC   C2B71012  30.945  15.036   6.753
10627POPC   C3B71013  30.907  15.119   7.053
10627POPC   C4B71014  30.947  15.081   7.353
10628POPC   NC371015  13.652  32.241   5.553
10628POPC   PO471016  13.659  32.214   5.853
10628POPC   GL171017  13.581  32.244   6.153
10628POPC   GL271018  13.732  32.317   6.153
10628POPC   C1A71019  13.637  32.283   6.453
10628POPC   D2A71020  13.580  32.202   6.753
10628POPC   C3A71021  13.626  32.259   7.053
10628POPC   C4A71022  13.614  32.239   7.353
10628POPC   C1B71023  13.819  32.309   6.453
10628POPC   C2B71024  13.912  32.292   6.753
10628POPC   C3B71025  13.868  32.294   7.053
10628POPC   C4B71026  13.842  32.285   7.353
10629POPC   NC371027  10.560  12.057   5.553
10629POPC   PO471028  10.558  12.102   5.853
10629POPC   GL171029  10.534  12.053   6.153
10629POPC   GL271030  10.623  12.036   6.153
10629POPC   C1A71031  10.515  12.066   6.453
10629POPC   D2A71032  10.495  12.050   6.753
10629POPC   C3A71033  10.503  12.105   7.053
10629POPC   C4A71034  10.507  12.121   7.353
10629POPC   C1B71035  10.718  11.987   6.453
10629POPC   C2B71036  10.750  11.983   6.753
10629POPC   C3B71037  10.769  11.965   7.053
10629POPC   C4B71038  10.764  11.935   7.353
10630POPC   NC371039  40.020  15.916   5.553
10630POPC   PO471040  40.026  15.961   5.853
10630POPC   GL171041  39.975  15.908   6.153
10630POPC   GL271042  39.974  16.059   6.153
10630POPC   C1A71043  39.996  15.938   6.453
10630POPC   D2A71044  40.042  15.943   6.753
10630POPC   C3A71045  40.022  15.989   7.053
10630POPC   C4A71046  39.961  15.994   7.353
10630POPC   C1B71047  39.960  16.203   6.453
10630POPC   C2B71048  40.023  16.251   6.753
10630POPC   C3B71049  40.003  16.166   7.053
10630POPC   C4B71050  40.014  16.154   7.353
10631POPC   NC371051  36.107  20.611   5.553
10631POPC   PO471052  36.115  20.608   5.853
10631POPC   GL171053  36.109  20.652   6.153
10631POPC   GL271054  36.192  20.761   6.153
10631POPC   C1A71055  36.110  20.610   6.453
10631POPC   D2A71056  36.128  20.655   6.753
10631POPC   C3A71057  36.137  20.606   7.053
10631POPC   C4A71058  36.171  20.660   7.353
10631POPC   C1B71059  36.184  20.858   6.453
10631POPC   C2B71060  36.269  20.808   6.753
10631POPC   C3B71061  36.246  20.843   7.053
10631POPC   C4B71062  36.192  20.821   7.353
10632POPC   NC371063  28.344  12.824   5.553
10632POPC   PO471064  28.373  12.807   5.853
10632POPC   GL171065  28.374  12.863   6.153
10632POPC   GL271066  28.396  13.006   6.153
10632POPC   C1A71067  28.354  12.841   6.453
10632POPC   D2A71068  28.418  12.886   6.753
10632POPC   C3A71069  28.335  12.819   7.053
10632POPC   C4A71070  28.418  12.833   7.353
10632POPC   C1B71071  28.298  13.121   6.453
10632POPC   C2B71072  28.340  13.064   6.753
10632POPC   C3B71073  28.347  13.069   7.053
10632POPC   C4B71074  28.341  13.049   7.353
10633POPC   NC371075  16.001  14.387   5.553
10633POPC   PO471076  15.933  14.402   5.853
10633POPC   GL171077  15.912  14.401   6.153
10633POPC   GL271078  16.003  14.317   6.153
10633POPC   C1A71079  15.982  14.391   6.453
10633POPC   D2A71080  15.973  14.393   6.753
10633POPC   C3A71081  15.952  14.381   7.053
10633POPC   C4A71082  15.923  14.444   7.353
10633POPC   C1B71083  16.001  14.206   6.453
10633POPC   C2B71084  16.046  14.138   6.753
10633POPC   C3B71085  16.024  14.166   7.053
10633POPC   C4B71086  15.991  14.178   7.353
10634POPC   NC371087  39.993  40.030   5.553
10634POPC   PO471088  40.038  40.052   5.853
10634POPC   GL171089  39.974  40.021   6.153
10634POPC   GL271090  40.071  40.135   6.153
10634POPC   C1A71091  40.049  39.962   6.453
10634POPC   D2A71092  40.035  39.968   6.753
10634POPC   C3A71093  40.047  39.973   7.053
10634POPC   C4A71094  39.978  40.024   7.353
10634POPC   C1B71095  40.215  40.176   6.453
10634POPC   C2B71096  40.140  40.210   6.753
10634POPC   C3B71097  40.225  40.160   7.053
10634POPC   C4B71098  40.196  40.169   7.353
10635POPC   NC371099  22.986  37.675   5.553
10635POPC   PO471100  22.952  37.692   5.853
10635POPC   GL171101  22.939  37.637   6.153
10635POPC   GL271102  23.024  37.569   6.153
10635POPC   C1A71103  22.900  37.644   6.453
10635POPC   D2A71104  22.930  37.663   6.753
10635POPC   C3A71105  22.896  37.663   7.053
10635POPC   C4A71106  22.977  37.723   7.353
10635POPC   C1B71107  23.129  37.490   6.453
10635POPC   C2B71108  23.116  37.452   6.753
10635POPC   C3B71109  23.118  37.504   7.053
10635POPC   C4B71110  23.132  37.488   7.353
10636POPC   NC371111  15.931  30.700   5.553
10636POPC   PO471112  16.003  30.726   5.853
10636POPC   GL171113  15.906  30.690   6.153
10636POPC   GL271114  15.918  30.836   6.153
10636POPC   C1A71115  15.912  30.663   6.453
10636POPC   D2A71116  15.984  30.691   6.753
10636POPC   C3A71117  15.921  30.680   7.053
10636POPC   C4A71118  15.906  30.705   7.353
10636POPC   C1B71119  15.934  30.944   6.453
10636POPC   C2B71120  15.941  30.907   6.753
10636POPC   C3B71121  15.971  30.938   7.053
10636POPC   C4B71122  15.921  30.957   7.353
10637POPC   NC371123  14.383   1.954   5.553
10637POPC   PO471124  14.449   1.975   5.853
10637POPC   GL171125  14.441   1.952   6.153
10637POPC   GL271126  14.491   1.926   6.153
10637POPC   C1A71127  14.375   1.956   6.453
10637POPC   D2A71128  14.390   1.975   6.753
10637POPC   C3A71129  14.397   1.969   7.053
10637POPC   C4A71130  14.382   1.984   7.353
10637POPC   C1B71131  14.666   1.883   6.453
10637POPC   C2B71132  14.688   1.919   6.753
10637POPC   C3B71133  14.622   1.879   7.053
10637POPC   C4B71134  14.631   1.925   7.353
10638POPC   NC371135  20.578   6.647   5.553
10638POPC   PO471136  20.562   6.640   5.853
10638POPC   GL171137  20.592   6.686   6.153
10638POPC   GL271138  20.528   6.510   6.153
10638POPC   C1A71139  20.617   6.613   6.453
10638POPC   D2A71140  20.643   6.685   6.753
10638POPC   C3A71141  20.575   6.686   7.053
10638POPC   C4A71142  20.633   6.646   7.353
10638POPC   C1B71143  20.457   6.445   6.453
10638POPC   C2B71144  20.445   6.501   6.753
10638POPC   C3B71145  20.477   6.426   7.053
10638POPC   C4B71146  20.383   6.481   7.353
10639POPC   NC371147  13.615  25.309   5.553
10639POPC   PO471148  13.635  25.236   5.853
10639POPC   GL171149  13.651  25.266   6.153
10639POPC   GL271150  13.773  25.160   6.153
10639POPC   C1A71151  13.620  25.284   6.453
10639POPC   D2A71152  13.591  25.233   6.753
10639POPC   C3A71153  13.606  25.228   7.053
10639POPC   C4A71154  13.628  25.263   7.353
10639POPC   C1B71155  13.819  25.188   6.453
10639POPC   C2B71156  13.843  25.142   6.753
10639POPC   C3B71157  13.837  25.146   7.053
10639POPC   C4B71158  13.885  25.159   7.353
10640POPC   NC371159  37.686  26.088   5.553
10640POPC   PO471160  37.694  26.088   5.853
10640POPC   GL171161  37.648  26.009   6.153
10640POPC   GL271162  37.740  25.872   6.153
10640POPC   C1A71163  37.646  26.033   6.453
10640POPC   D2A71164  37.648  26.037   6.753
10640POPC   C3A71165  37.646  26.090   7.053
10640POPC   C4A71166  37.670  26.057   7.353
10640POPC   C1B71167  37.741  25.779   6.453
10640POPC   C2B71168  37.699  25.776   6.753
10640POPC   C3B71169  37.753  25.836   7.053
10640POPC   C4B71170  37.705  25.825   7.353
10641POPC   NC371171  14.397  13.644   5.553
10641POPC   PO471172  14.405  13.613   5.853
10641POPC   GL171173  14.415  13.632   6.153
10641POPC   GL271174  14.477  13.533   6.153
10641POPC   C1A71175  14.420  13.619   6.453
10641POPC   D2A71176  14.441  13.621   6.753
10641POPC   C3A71177  14.369  13.652   7.053
10641POPC   C4A71178  14.385  13.601   7.353
10641POPC   C1B71179  14.618  13.437   6.453
10641POPC   C2B71180  14.630  13.480   6.753
10641POPC   C3B71181  14.598  13.473   7.053
10641POPC   C4B71182  14.572  13.485   7.353
10642POPC   NC371183  22.897  33.021   5.553
10642POPC   PO471184  22.910  33.051   5.853
10642POPC   GL171185  22.888  32.988   6.153
10642POPC   GL271186  23.016  33.036   6.153
10642POPC   C1A71187  22.901  33.055   6.453
10642POPC   D2A71188  22.918  33.047   6.753
10642POPC   C3A71189  22.902  33.005   7.053
10642POPC   C4A71190  22.905  33.070   7.353
10642POPC   C1B71191  23.192  33.120   6.453
10642POPC   C2B71192  23.154  33.070   6.753
10642POPC   C3B71193  23.150  33.093   7.053
10642POPC   C4B71194  23.166  33.042   7.353
10643POPC   NC371195  26.785  20.659   5.553
10643POPC   PO471196  26.799  20.569   5.853
10643POPC   GL171197  26.841  20.606   6.153
10643POPC   GL271198  26.748  20.619   6.153
10643POPC   C1A71199  26.798  20.640   6.453
10643POPC   D2A71200  26.808  20.585   6.753
10643POPC   C3A71201  26.828  20.612   7.053
10643POPC   C4A71202  26.857  20.586   7.353
10643POPC   C1B71203  26.623  20.738   6.453
10643POPC   C2B71204  26.550  20.693   6.753
10643POPC   C3B71205  26.599  20.740   7.053
10643POPC   C4B71206  26.569  20.649   7.353
10644POPC   NC371207  43.117  29.103   5.553
10644POPC   PO471208  43.132  29.145   5.853
10644POPC   GL171209  43.069  29.183   6.153
10644POPC   GL271210  43.081  29.210   6.153
10644POPC   C1A71211  43.122  29.112   6.453
10644POPC   D2A71212  43.069  29.115   6.753
10644POPC   C3A71213  43.106  29.102   7.053
10644POPC   C4A71214  43.116  29.116   7.353
10644POPC   C1B71215  42.971  29.422   6.453
10644POPC   C2B71216  43.014  29.387   6.753
10644POPC   C3B71217  43.037  29.367   7.053
10644POPC   C4B71218  42.971  29.328   7.353
10645POPC   NC371219   4.342  20.566   5.553
10645POPC   PO471220   4.328  20.639   5.853
10645POPC   GL171221   4.286  20.601   6.153
10645POPC   GL271222   4.416  20.453   6.153
10645POPC   C1A71223   4.298  20.657   6.453
10645POPC   D2A71224   4.276  20.576   6.753
10645POPC   C3A71225   4.268  20.622   7.053
10645POPC   C4A71226   4.282  20.575   7.353
10645POPC   C1B71227   4.399  20.406   6.453
10645POPC   C2B71228   4.398  20.370   6.753
10645POPC   C3B71229   4.438  20.372   7.053
10645POPC   C4B71230   4.379  20.355   7.353
10646POPC   NC371231  21.430  22.201   5.553
10646POPC   PO471232  21.361  22.145   5.853
10646POPC   GL171233  21.396  22.130   6.153
10646POPC   GL271234  21.415  22.006   6.153
10646POPC   C1A71235  21.412  22.123   6.453
10646POPC   D2A71236  21.407  22.155   6.753
10646POPC   C3A71237  21.393  22.153   7.053
10646POPC   C4A71238  21.426  22.144   7.353
10646POPC   C1B71239  21.479  21.876   6.453
10646POPC   C2B71240  21.494  21.874   6.753
10646POPC   C3B71241  21.476  21.925   7.053
10646POPC   C4B71242  21.421  21.875   7.353
10647POPC   NC371243   3.498   2.010   5.553
10647POPC   PO471244   3.535   1.982   5.853
10647POPC   GL171245   3.535   2.016   6.153
10647POPC   GL271246   3.469   2.122   6.153
10647POPC   C1A71247   3.503   1.990   6.453
10647POPC   D2A71248   3.537   2.000   6.753
10647POPC   C3A71249   3.590   1.954   7.053
10647POPC   C4A71250   3.515   1.976   7.353
10647POPC   C1B71251   3.513   2.264   6.453
10647POPC   C2B71252   3.508   2.266   6.753
10647POPC   C3B71253   3.501   2.279   7.053
10647POPC   C4B71254   3.472   2.235   7.353
10648POPC   NC371255  12.887   0.473   5.553
10648POPC   PO471256  12.847   0.398   5.853
10648POPC   GL171257  12.876   0.389   6.153
10648POPC   GL271258  12.895   0.298   6.153
10648POPC   C1A71259  12.820   0.437   6.453
10648POPC   D2A71260  12.854   0.400   6.753
10648POPC   C3A71261  12.892   0.409   7.053
10648POPC   C4A71262  12.883   0.398   7.353
10648POPC   C1B71263  12.984   0.235   6.453
10648POPC   C2B71264  12.967   0.238   6.753
10648POPC   C3B71265  12.918   0.209   7.053
10648POPC   C4B71266  12.945   0.179   7.353
10649POPC   NC371267  22.202   5.122   5.553
10649POPC   PO471268  22.143   5.058   5.853
10649POPC   GL171269  22.187   5.118   6.153
10649POPC   GL271270  22.260   5.226   6.153
10649POPC   C1A71271  22.183   5.063   6.453
10649POPC   D2A71272  22.129   5.075   6.753
10649POPC   C3A71273  22.133   5.096   7.053
10649POPC   C4A71274  22.158   5.078   7.353
10649POPC   C1B71275  22.305   5.253   6.453
10649POPC   C2B71276  22.350   5.270   6.753
10649POPC   C3B71277  22.338   5.246   7.053
10649POPC   C4B71278  22.271   5.296   7.353
10650POPC   NC371279  15.205  29.881   5.553
10650POPC   PO471280  15.226  29.949   5.853
10650POPC   GL171281  15.188  29.896   6.153
10650POPC   GL271282  15.192  29.771   6.153
10650POPC   C1A71283  15.151  29.877   6.453
10650POPC   D2A71284  15.146  29.963   6.753
10650POPC   C3A71285  15.152  29.914   7.053
10650POPC   C4A71286  15.138  29.924   7.353
10650POPC   C1B71287  15.193  29.660   6.453
10650POPC   C2B71288  15.183  29.643   6.753
10650POPC   C3B71289  15.171  29.697   7.053
10650POPC   C4B71290  15.172  29.662   7.353
10651POPC   NC371291  39.273  42.354   5.553
10651POPC   PO471292  39.187  42.360   5.853
10651POPC   GL171293  39.186  42.328   6.153
10651POPC   GL271294  39.060  42.335   6.153
10651POPC   C1A71295  39.244  42.341   6.453
10651POPC   D2A71296  39.225  42.359   6.753
10651POPC   C3A71297  39.267  42.361   7.053
10651POPC   C4A71298  39.271  42.306   7.353
10651POPC   C1B71299  38.982  42.361   6.453
10651POPC   C2B71300  38.973  42.339   6.753
10651POPC   C3B71301  38.940  42.329   7.053
10651POPC   C4B71302  39.028  42.353   7.353
10652POPC   NC371303  43.902  27.598   5.553
10652POPC   PO471304  43.935  27.623   5.853
10652POPC   GL171305  43.930  27.616   6.153
10652POPC   GL271306  43.960  27.621   6.153
10652POPC   C1A71307  43.842  27.584   6.453
10652POPC   D2A71308  43.903  27.622   6.753
10652POPC   C3A71309  43.837  27.582   7.053
10652POPC   C4A71310  43.880  27.549   7.353
10652POPC   C1B71311  44.137  27.651   6.453
10652POPC   C2B71312  44.170  27.700   6.753
10652POPC   C3B71313  44.176  27.647   7.053
10652POPC   C4B71314  44.133  27.690   7.353
10653POPC   NC371315  39.223  21.425   5.553
10653POPC   PO471316  39.241  21.339   5.853
10653POPC   GL171317  39.267  21.379   6.153
10653POPC   GL271318  39.203  21.552   6.153
10653POPC   C1A71319  39.257  21.355   6.453
10653POPC   D2A71320  39.218  21.381   6.753
10653POPC   C3A71321  39.280  21.419   7.053
10653POPC   C4A71322  39.257  21.390   7.353
10653POPC   C1B71323  39.273  21.637   6.453
10653POPC   C2B71324  39.266  21.652   6.753
10653POPC   C3B71325  39.269  21.665   7.053
10653POPC   C4B71326  39.193  21.684   7.353
10654POPC   NC371327  20.589  12.050   5.553
10654POPC   PO471328  20.620  12.103   5.853
10654POPC   GL171329  20.647  12.122   6.153
10654POPC   GL271330  20.744  11.978   6.153
10654POPC   C1A71331  20.564  12.076   6.453
10654POPC   D2A71332  20.636  12.106   6.753
10654POPC   C3A71333  20.584  12.103   7.053
10654POPC   C4A71334  20.648  12.095   7.353
10654POPC   C1B71335  20.829  11.905   6.453
10654POPC   C2B71336  20.792  11.945   6.753
10654POPC   C3B71337  20.769  11.904   7.053
10654POPC   C4B71338  20.748  11.867   7.353
10655POPC   NC371339  10.523  32.289   5.553
10655POPC   PO471340  10.505  32.259   5.853
10655POPC   GL171341  10.475  32.282   6.153
10655POPC   GL271342  10.489  32.136   6.153
10655POPC   C1A71343  10.515  32.225   6.453
10655POPC   D2A71344  10.503  32.295   6.753
10655POPC   C3A71345  10.518  32.226   7.053
10655POPC   C4A71346  10.523  32.285   7.353
10655POPC   C1B71347  10.534  31.958   6.453
10655POPC   C2B71348  10.521  32.009   6.753
10655POPC   C3B71349  10.473  32.023   7.053
10655POPC   C4B71350  10.502  32.000   7.353
10656POPC   NC371351  21.422  31.456   5.553
10656POPC   PO471352  21.425  31.478   5.853
10656POPC   GL171353  21.404  31.520   6.153
10656POPC   GL271354  21.354  31.596   6.153
10656POPC   C1A71355  21.365  31.444   6.453
10656POPC   D2A71356  21.411  31.456   6.753
10656POPC   C3A71357  21.382  31.476   7.053
10656POPC   C4A71358  21.390  31.438   7.353
10656POPC   C1B71359  21.333  31.693   6.453
10656POPC   C2B71360  21.368  31.714   6.753
10656POPC   C3B71361  21.307  31.695   7.053
10656POPC   C4B71362  21.306  31.718   7.353
10657POPC   NC371363  33.800  43.071   5.553
10657POPC   PO471364  33.847  43.083   5.853
10657POPC   GL171365  33.826  43.062   6.153
10657POPC   GL271366  33.680  43.174   6.153
10657POPC   C1A71367  33.788  43.071   6.453
10657POPC   D2A71368  33.810  43.097   6.753
10657POPC   C3A71369  33.752  43.093   7.053
10657POPC   C4A71370  33.823  43.075   7.353
10657POPC   C1B71371  33.511  43.185   6.453
10657POPC   C2B71372  33.590  43.193   6.753
10657POPC   C3B71373  33.574  43.101   7.053
10657POPC   C4B71374  33.566  43.187   7.353
10658POPC   NC371375  13.671   2.030   5.553
10658POPC   PO471376  13.647   2.025   5.853
10658POPC   GL171377  13.586   2.002   6.153
10658POPC   GL271378  13.639   1.918   6.153
10658POPC   C1A71379  13.594   1.976   6.453
10658POPC   D2A71380  13.581   1.999   6.753
10658POPC   C3A71381  13.624   2.013   7.053
10658POPC   C4A71382  13.594   1.946   7.353
10658POPC   C1B71383  13.518   1.755   6.453
10658POPC   C2B71384  13.527   1.801   6.753
10658POPC   C3B71385  13.589   1.725   7.053
10658POPC   C4B71386  13.534   1.781   7.353
10659POPC   NC371387  28.390  18.315   5.553
10659POPC   PO471388  28.380  18.298   5.853
10659POPC   GL171389  28.342  18.300   6.153
10659POPC   GL271390  28.339  18.212   6.153
10659POPC   C1A71391  28.384  18.235   6.453
10659POPC   D2A71392  28.361  18.329   6.753
10659POPC   C3A71393  28.382  18.327   7.053
10659POPC   C4A71394  28.394  18.280   7.353
10659POPC   C1B71395  28.342  18.034   6.453
10659POPC   C2B71396  28.261  18.015   6.753
10659POPC   C3B71397  28.321  18.019   7.053
10659POPC   C4B71398  28.346  18.061   7.353
10660POPC   NC371399   5.868  29.900   5.553
10660POPC   PO471400   5.913  29.932   5.853
10660POPC   GL171401   5.867  29.927   6.153
10660POPC   GL271402   5.724  29.926   6.153
10660POPC   C1A71403   5.895  29.910   6.453
10660POPC   D2A71404   5.884  29.934   6.753
10660POPC   C3A71405   5.885  29.959   7.053
10660POPC   C4A71406   5.911  29.872   7.353
10660POPC   C1B71407   5.647  29.900   6.453
10660POPC   C2B71408   5.622  29.885   6.753
10660POPC   C3B71409   5.654  29.896   7.053
10660POPC   C4B71410   5.645  29.860   7.353
10661POPC   NC371411  29.949  16.695   5.553
10661POPC   PO471412  29.927  16.778   5.853
10661POPC   GL171413  29.964  16.719   6.153
10661POPC   GL271414  30.038  16.718   6.153
10661POPC   C1A71415  29.893  16.721   6.453
10661POPC   D2A71416  29.911  16.772   6.753
10661POPC   C3A71417  29.957  16.748   7.053
10661POPC   C4A71418  29.871  16.691   7.353
10661POPC   C1B71419  30.187  16.783   6.453
10661POPC   C2B71420  30.170  16.797   6.753
10661POPC   C3B71421  30.154  16.748   7.053
10661POPC   C4B71422  30.203  16.776   7.353
10662POPC   NC371423  19.036   7.423   5.553
10662POPC   PO471424  19.027   7.398   5.853
10662POPC   GL171425  19.009   7.381   6.153
10662POPC   GL271426  19.110   7.299   6.153
10662POPC   C1A71427  19.066   7.448   6.453
10662POPC   D2A71428  19.046   7.459   6.753
10662POPC   C3A71429  19.013   7.389   7.053
10662POPC   C4A71430  19.059   7.460   7.353
10662POPC   C1B71431  19.247   7.274   6.453
10662POPC   C2B71432  19.181   7.204   6.753
10662POPC   C3B71433  19.196   7.227   7.053
10662POPC   C4B71434  19.253   7.235   7.353
10663POPC   NC371435  17.529  33.789   5.553
10663POPC   PO471436  17.537  33.829   5.853
10663POPC   GL171437  17.484  33.840   6.153
10663POPC   GL271438  17.365  33.709   6.153
10663POPC   C1A71439  17.528  33.843   6.453
10663POPC   D2A71440  17.467  33.767   6.753
10663POPC   C3A71441  17.532  33.849   7.053
10663POPC   C4A71442  17.479  33.836   7.353
10663POPC   C1B71443  17.275  33.623   6.453
10663POPC   C2B71444  17.322  33.621   6.753
10663POPC   C3B71445  17.342  33.666   7.053
10663POPC   C4B71446  17.293  33.598   7.353
10664POPC   NC371447  21.348  43.909   5.553
10664POPC   PO471448  21.434  43.913   5.853
10664POPC   GL171449  21.374  43.903   6.153
10664POPC   GL271450  21.385  43.771   6.153
10664POPC   C1A71451  21.399  43.856   6.453
10664POPC   D2A71452  21.341  43.934   6.753
10664POPC   C3A71453  21.352  43.908   7.053
10664POPC   C4A71454  21.338  43.854   7.353
10664POPC   C1B71455  21.329  43.646   6.453
10664POPC   C2B71456  21.349  43.593   6.753
10664POPC   C3B71457  21.311  43.596   7.053
10664POPC   C4B71458  21.357  43.621   7.353
10665POPC   NC371459  12.040  30.655   5.553
10665POPC   PO471460  12.055  30.659   5.853
10665POPC   GL171461  12.060  30.678   6.153
10665POPC   GL271462  11.911  30.703   6.153
10665POPC   C1A71463  12.073  30.674   6.453
10665POPC   D2A71464  12.073  30.744   6.753
10665POPC   C3A71465  12.097  30.651   7.053
10665POPC   C4A71466  12.096  30.699   7.353
10665POPC   C1B71467  11.816  30.694   6.453
10665POPC   C2B71468  11.873  30.665   6.753
10665POPC   C3B71469  11.856  30.705   7.053
10665POPC   C4B71470  11.806  30.653   7.353
10666POPC   NC371471   5.103  38.410   5.553
10666POPC   PO471472   5.065  38.480   5.853
10666POPC   GL171473   5.084  38.409   6.153
10666POPC   GL271474   5.081  38.615   6.153
10666POPC   C1A71475   5.108  38.466   6.453
10666POPC   D2A71476   5.133  38.479   6.753
10666POPC   C3A71477   5.048  38.470   7.053
10666POPC   C4A71478   5.133  38.481   7.353
10666POPC   C1B71479   5.142  38.666   6.453
10666POPC   C2B71480   5.092  38.660   6.753
10666POPC   C3B71481   5.131  38.723   7.053
10666POPC   C4B71482   5.150  38.710   7.353
10667POPC   NC371483  43.091  20.567   5.553
10667POPC   PO471484  43.145  20.604   5.853
10667POPC   GL171485  43.071  20.577   6.153
10667POPC   GL271486  43.117  20.472   6.153
10667POPC   C1A71487  43.118  20.613   6.453
10667POPC   D2A71488  43.108  20.622   6.753
10667POPC   C3A71489  43.105  20.580   7.053
10667POPC   C4A71490  43.123  20.580   7.353
10667POPC   C1B71491  43.217  20.390   6.453
10667POPC   C2B71492  43.155  20.343   6.753
10667POPC   C3B71493  43.142  20.392   7.053
10667POPC   C4B71494  43.189  20.341   7.353
10668POPC   NC371495  31.429  29.891   5.553
10668POPC   PO471496  31.455  29.953   5.853
10668POPC   GL171497  31.480  29.941   6.153
10668POPC   GL271498  31.595  30.026   6.153
10668POPC   C1A71499  31.519  29.878   6.453
10668POPC   D2A71500  31.455  29.954   6.753
10668POPC   C3A71501  31.451  29.969   7.053
10668POPC   C4A71502  31.521  29.877   7.353
10668POPC   C1B71503  31.647  30.069   6.453
10668POPC   C2B71504  31.733  30.027   6.753
10668POPC   C3B71505  31.694  30.086   7.053
10668POPC   C4B71506  31.713  29.998   7.353
10669POPC   NC371507  25.241  19.873   5.553
10669POPC   PO471508  25.298  19.873   5.853
10669POPC   GL171509  25.283  19.851   6.153
10669POPC   GL271510  25.189  19.845   6.153
10669POPC   C1A71511  25.271  19.829   6.453
10669POPC   D2A71512  25.219  19.870   6.753
10669POPC   C3A71513  25.279  19.794   7.053
10669POPC   C4A71514  25.228  19.825   7.353
10669POPC   C1B71515  25.045  19.823   6.453
10669POPC   C2B71516  24.981  19.834   6.753
10669POPC   C3B71517  25.047  19.852   7.053
10669POPC   C4B71518  25.062  19.852   7.353
10670POPC   NC371519   3.535   4.348   5.553
10670POPC   PO471520   3.546   4.348   5.853
10670POPC   GL171521   3.576   4.355   6.153
10670POPC   GL271522   3.402   4.377   6.153
10670POPC   C1A71523   3.492   4.313   6.453
10670POPC   D2A71524   3.589   4.293   6.753
10670POPC   C3A71525   3.528   4.365   7.053
10670POPC   C4A71526   3.517   4.270   7.353
10670POPC   C1B71527   3.297   4.467   6.453
10670POPC   C2B71528   3.364   4.464   6.753
10670POPC   C3B71529   3.364   4.465   7.053
10670POPC   C4B71530   3.342   4.422   7.353
10671POPC   NC371531  16.711   9.766   5.553
10671POPC   PO471532  16.710   9.760   5.853
10671POPC   GL171533  16.715   9.752   6.153
10671POPC   GL271534  16.753   9.917   6.153
10671POPC   C1A71535  16.749   9.720   6.453
10671POPC   D2A71536  16.777   9.786   6.753
10671POPC   C3A71537  16.746   9.708   7.053
10671POPC   C4A71538  16.691   9.705   7.353
10671POPC   C1B71539  16.748  10.003   6.453
10671POPC   C2B71540  16.700   9.969   6.753
10671POPC   C3B71541  16.707  10.045   7.053
10671POPC   C4B71542  16.706   9.952   7.353
10672POPC   NC371543  28.340  22.154   5.553
10672POPC   PO471544  28.362  22.135   5.853
10672POPC   GL171545  28.332  22.116   6.153
10672POPC   GL271546  28.325  22.262   6.153
10672POPC   C1A71547  28.322  22.141   6.453
10672POPC   D2A71548  28.342  22.123   6.753
10672POPC   C3A71549  28.414  22.180   7.053
10672POPC   C4A71550  28.359  22.156   7.353
10672POPC   C1B71551  28.241  22.428   6.453
10672POPC   C2B71552  28.288  22.387   6.753
10672POPC   C3B71553  28.261  22.418   7.053
10672POPC   C4B71554  28.237  22.407   7.353
10673POPC   NC371555  16.772  40.821   5.553
10673POPC   PO471556  16.724  40.784   5.853
10673POPC   GL171557  16.711  40.733   6.153
10673POPC   GL271558  16.615  40.712   6.153
10673POPC   C1A71559  16.768  40.779   6.453
10673POPC   D2A71560  16.726  40.813   6.753
10673POPC   C3A71561  16.737  40.812   7.053
10673POPC   C4A71562  16.713  40.751   7.353
10673POPC   C1B71563  16.553  40.623   6.453
10673POPC   C2B71564  16.530  40.589   6.753
10673POPC   C3B71565  16.523  40.655   7.053
10673POPC   C4B71566  16.560  40.610   7.353
10674POPC   NC371567  37.662  34.590   5.553
10674POPC   PO471568  37.711  34.554   5.853
10674POPC   GL171569  37.635  34.576   6.153
10674POPC   GL271570  37.793  34.525   6.153
10674POPC   C1A71571  37.691  34.555   6.453
10674POPC   D2A71572  37.686  34.528   6.753
10674POPC   C3A71573  37.694  34.536   7.053
10674POPC   C4A71574  37.634  34.560   7.353
10674POPC   C1B71575  37.947  34.501   6.453
10674POPC   C2B71576  37.891  34.493   6.753
10674POPC   C3B71577  37.940  34.550   7.053
10674POPC   C4B71578  37.900  34.511   7.353
10675POPC   NC371579   2.809   3.531   5.553
10675POPC   PO471580   2.724   3.493   5.853
10675POPC   GL171581   2.764   3.518   6.153
10675POPC   GL271582   2.798   3.433   6.153
10675POPC   C1A71583   2.803   3.501   6.453
10675POPC   D2A71584   2.733   3.571   6.753
10675POPC   C3A71585   2.765   3.556   7.053
10675POPC   C4A71586   2.724   3.514   7.353
10675POPC   C1B71587   2.739   3.285   6.453
10675POPC   C2B71588   2.713   3.308   6.753
10675POPC   C3B71589   2.721   3.334   7.053
10675POPC   C4B71590   2.767   3.279   7.353
10676POPC   NC371591  22.923  20.640   5.553
10676POPC   PO471592  22.954  20.604   5.853
10676POPC   GL171593  22.947  20.659   6.153
10676POPC   GL271594  22.911  20.752   6.153
10676POPC   C1A71595  22.934  20.589   6.453
10676POPC   D2A71596  22.967  20.646   6.753
10676POPC   C3A71597  22.976  20.608   7.053
10676POPC   C4A71598  22.907  20.564   7.353
10676POPC   C1B71599  22.929  20.897   6.453
10676POPC   C2B71600  22.936  20.814   6.753
10676POPC   C3B71601  22.884  20.815   7.053
10676POPC   C4B71602  22.900  20.904   7.353
10677POPC   NC371603  43.878  32.225   5.553
10677POPC   PO471604  43.880  32.200   5.853
10677POPC   GL171605  43.856  32.255   6.153
10677POPC   GL271606  43.968  32.154   6.153
10677POPC   C1A71607  43.840  32.217   6.453
10677POPC   D2A71608  43.854  32.268   6.753
10677POPC   C3A71609  43.840  32.288   7.053
10677POPC   C4A71610  43.877  32.209   7.353
10677POPC   C1B71611  44.046  32.037   6.453
10677POPC   C2B71612  43.992  32.018   6.753
10677POPC   C3B71613  44.013  32.059   7.053
10677POPC   C4B71614  44.037  32.009   7.353
10678POPC   NC371615  14.434  16.763   5.553
10678POPC   PO471616  14.395  16.684   5.853
10678POPC   GL171617  14.358  16.730   6.153
10678POPC   GL271618  14.384  16.664   6.153
10678POPC   C1A71619  14.447  16.702   6.453
10678POPC   D2A71620  14.363  16.704   6.753
10678POPC   C3A71621  14.449  16.719   7.053
10678POPC   C4A71622  14.393  16.757   7.353
10678POPC   C1B71623  14.354  16.539   6.453
10678POPC   C2B71624  14.297  16.460   6.753
10678POPC   C3B71625  14.274  16.462   7.053
10678POPC   C4B71626  14.258  16.520   7.353
10679POPC   NC371627  30.739   1.957   5.553
10679POPC   PO471628  30.704   2.001   5.853
10679POPC   GL171629  30.647   2.010   6.153
10679POPC   GL271630  30.559   2.052   6.153
10679POPC   C1A71631  30.708   2.007   6.453
10679POPC   D2A71632  30.701   1.972   6.753
10679POPC   C3A71633  30.694   2.022   7.053
10679POPC   C4A71634  30.665   2.000   7.353
10679POPC   C1B71635  30.482   2.027   6.453
10679POPC   C2B71636  30.446   2.036   6.753
10679POPC   C3B71637  30.483   2.027   7.053
10679POPC   C4B71638  30.455   2.119   7.353
10680POPC   NC371639  17.518  17.517   5.553
10680POPC   PO471640  17.494  17.494   5.853
10680POPC   GL171641  17.548  17.488   6.153
10680POPC   GL271642  17.568  17.353   6.153
10680POPC   C1A71643  17.552  17.496   6.453
10680POPC   D2A71644  17.539  17.489   6.753
10680POPC   C3A71645  17.527  17.550   7.053
10680POPC   C4A71646  17.520  17.516   7.353
10680POPC   C1B71647  17.574  17.292   6.453
10680POPC   C2B71648  17.528  17.224   6.753
10680POPC   C3B71649  17.534  17.249   7.053
10680POPC   C4B71650  17.581  17.239   7.353
10681POPC   NC371651   9.785  31.477   5.553
10681POPC   PO471652   9.749  31.519   5.853
10681POPC   GL171653   9.708  31.455   6.153
10681POPC   GL271654   9.682  31.376   6.153
10681POPC   C1A71655   9.701  31.428   6.453
10681POPC   D2A71656   9.740  31.450   6.753
10681POPC   C3A71657   9.702  31.435   7.053
10681POPC   C4A71658   9.757  31.462   7.353
10681POPC   C1B71659   9.651  31.232   6.453
10681POPC   C2B71660   9.668  31.226   6.753
10681POPC   C3B71661   9.661  31.205   7.053
10681POPC   C4B71662   9.734  31.179   7.353
10682POPC   NC371663  18.318  36.892   5.553
10682POPC   PO471664  18.279  36.887   5.853
10682POPC   GL171665  18.325  36.928   6.153
10682POPC   GL271666  18.166  36.932   6.153
10682POPC   C1A71667  18.246  36.952   6.453
10682POPC   D2A71668  18.310  36.937   6.753
10682POPC   C3A71669  18.309  36.930   7.053
10682POPC   C4A71670  18.257  36.889   7.353
10682POPC   C1B71671  18.090  37.006   6.453
10682POPC   C2B71672  18.111  37.014   6.753
10682POPC   C3B71673  18.067  37.098   7.053
10682POPC   C4B71674  18.124  37.093   7.353
10683POPC   NC371675  13.645  22.963   5.553
10683POPC   PO471676  13.583  22.981   5.853
10683POPC   GL171677  13.621  22.980   6.153
10683POPC   GL271678  13.595  23.021   6.153
10683POPC   C1A71679  13.634  22.899   6.453
10683POPC   D2A71680  13.618  22.920   6.753
10683POPC   C3A71681  13.609  22.982   7.053
10683POPC   C4A71682  13.620  22.950   7.353
10683POPC   C1B71683  13.497  23.163   6.453
10683POPC   C2B71684  13.476  23.114   6.753
10683POPC   C3B71685  13.529  23.118   7.053
10683POPC   C4B71686  13.447  23.163   7.353
10684POPC   NC371687  34.583  33.758   5.553
10684POPC   PO471688  34.529  33.823   5.853
10684POPC   GL171689  34.600  33.782   6.153
10684POPC   GL271690  34.646  33.870   6.153
10684POPC   C1A71691  34.591  33.752   6.453
10684POPC   D2A71692  34.556  33.775   6.753
10684POPC   C3A71693  34.599  33.782   7.053
10684POPC   C4A71694  34.582  33.815   7.353
10684POPC   C1B71695  34.732  33.936   6.453
10684POPC   C2B71696  34.812  33.927   6.753
10684POPC   C3B71697  34.767  33.942   7.053
10684POPC   C4B71698  34.771  33.915   7.353
10685POPC   NC371699  43.924  33.014   5.553
10685POPC   PO471700  43.888  32.999   5.853
10685POPC   GL171701  43.910  33.054   6.153
10685POPC   GL271702  43.942  33.146   6.153
10685POPC   C1A71703  43.850  33.058   6.453
10685POPC   D2A71704  43.840  32.980   6.753
10685POPC   C3A71705  43.906  33.024   7.053
10685POPC   C4A71706  43.855  32.998   7.353
10685POPC   C1B71707  44.116  33.168   6.453
10685POPC   C2B71708  44.100  33.219   6.753
10685POPC   C3B71709  44.052  33.174   7.053
10685POPC   C4B71710  44.022  33.162   7.353
10686POPC   NC371711  29.906  43.083   5.553
10686POPC   PO471712  29.925  43.151   5.853
10686POPC   GL171713  29.968  43.116   6.153
10686POPC   GL271714  29.834  42.982   6.153
10686POPC   C1A71715  29.903  43.069   6.453
10686POPC   D2A71716  29.881  43.087   6.753
10686POPC   C3A71717  29.883  43.153   7.053
10686POPC   C4A71718  29.930  43.080   7.353
10686POPC   C1B71719  29.853  42.850   6.453
10686POPC   C2B71720  29.769  42.877   6.753
10686POPC   C3B71721  29.812  42.889   7.053
10686POPC   C4B71722  29.792  42.934   7.353
10687POPC   NC371723  20.585  43.895   5.553
10687POPC   PO471724  20.568  43.899   5.853
10687POPC   GL171725  20.574  43.843   6.153
10687POPC   GL271726  20.604  44.024   6.153
10687POPC   C1A71727  20.653  43.858   6.453
10687POPC   D2A71728  20.591  43.923   6.753
10687POPC   C3A71729  20.620  43.931   7.053
10687POPC   C4A71730  20.600  43.936   7.353
10687POPC   C1B71731  20.535  44.071   6.453
10687POPC   C2B71732  20.501  44.097   6.753
10687POPC   C3B71733  20.548  44.163   7.053
10687POPC   C4B71734  20.498  44.112   7.353
10688POPC   NC371735  44.633  39.217   5.553
10688POPC   PO471736  44.651  39.232   5.853
10688POPC   GL171737  44.631  39.242   6.153
10688POPC   GL271738  44.757  39.157   6.153
10688POPC   C1A71739  44.693  39.278   6.453
10688POPC   D2A71740  44.673  39.185   6.753
10688POPC   C3A71741  44.612  39.221   7.053
10688POPC   C4A71742  44.652  39.261   7.353
10688POPC   C1B71743  44.758  39.018   6.453
10688POPC   C2B71744  44.812  39.017   6.753
10688POPC   C3B71745  44.796  38.973   7.053
10688POPC   C4B71746  44.764  39.033   7.353
10689POPC   NC371747   1.171   1.193   5.553
10689POPC   PO471748   1.202   1.239   5.853
10689POPC   GL171749   1.186   1.194   6.153
10689POPC   GL271750   1.127   1.310   6.153
10689POPC   C1A71751   1.234   1.248   6.453
10689POPC   D2A71752   1.256   1.237   6.753
10689POPC   C3A71753   1.227   1.167   7.053
10689POPC   C4A71754   1.187   1.246   7.353
10689POPC   C1B71755   1.105   1.420   6.453
10689POPC   C2B71756   1.094   1.453   6.753
10689POPC   C3B71757   1.025   1.398   7.053
10689POPC   C4B71758   1.034   1.418   7.353
10690POPC   NC371759   6.605  34.594   5.553
10690POPC   PO471760   6.609  34.623   5.853
10690POPC   GL171761   6.611  34.606   6.153
10690POPC   GL271762   6.627  34.663   6.153
10690POPC   C1A71763   6.680  34.528   6.453
10690POPC   D2A71764   6.691  34.602   6.753
10690POPC   C3A71765   6.665  34.602   7.053
10690POPC   C4A71766   6.664  34.599   7.353
10690POPC   C1B71767   6.607  34.825   6.453
10690POPC   C2B71768   6.571  34.803   6.753
10690POPC   C3B71769   6.580  34.827   7.053
10690POPC   C4B71770   6.614  34.835   7.353
10691POPC   NC371771  42.287  43.878   5.553
10691POPC   PO471772  42.288  43.902   5.853
10691POPC   GL171773  42.308  43.844   6.153
10691POPC   GL271774  42.459  43.885   6.153
10691POPC   C1A71775  42.296  43.882   6.453
10691POPC   D2A71776  42.369  43.904   6.753
10691POPC   C3A71777  42.312  43.867   7.053
10691POPC   C4A71778  42.369  43.861   7.353
10691POPC   C1B71779  42.534  43.944   6.453
10691POPC   C2B71780  42.539  43.953   6.753
10691POPC   C3B71781  42.562  43.905   7.053
10691POPC   C4B71782  42.561  43.957   7.353
10692POPC   NC371783   9.775  33.021   5.553
10692POPC   PO471784   9.735  33.001   5.853
10692POPC   GL171785   9.754  33.004   6.153
10692POPC   GL271786   9.652  33.111   6.153
10692POPC   C1A71787   9.702  33.026   6.453
10692POPC   D2A71788   9.768  33.013   6.753
10692POPC   C3A71789   9.720  33.050   7.053
10692POPC   C4A71790   9.731  33.020   7.353
10692POPC   C1B71791   9.606  33.275   6.453
10692POPC   C2B71792   9.640  33.241   6.753
10692POPC   C3B71793   9.639  33.226   7.053
10692POPC   C4B71794   9.584  33.220   7.353
10693POPC   NC371795  22.961  15.145   5.553
10693POPC   PO471796  22.913  15.167   5.853
10693POPC   GL171797  22.958  15.145   6.153
10693POPC   GL271798  23.047  15.151   6.153
10693POPC   C1A71799  22.968  15.163   6.453
10693POPC   D2A71800  22.967  15.227   6.753
10693POPC   C3A71801  22.892  15.139   7.053
10693POPC   C4A71802  22.896  15.187   7.353
10693POPC   C1B71803  23.152  15.057   6.453
10693POPC   C2B71804  23.207  15.051   6.753
10693POPC   C3B71805  23.172  15.118   7.053
10693POPC   C4B71806  23.182  15.089   7.353
10694POPC   NC371807  44.635  22.120   5.553
10694POPC   PO471808  44.674  22.158   5.853
10694POPC   GL171809  44.619  22.169   6.153
10694POPC   GL271810  44.557  22.212   6.153
10694POPC   C1A71811  44.711  22.119   6.453
10694POPC   D2A71812  44.676  22.193   6.753
10694POPC   C3A71813  44.711  22.154   7.053
10694POPC   C4A71814  44.631  22.158   7.353
10694POPC   C1B71815  44.429  22.120   6.453
10694POPC   C2B71816  44.433  22.163   6.753
10694POPC   C3B71817  44.454  22.182   7.053
10694POPC   C4B71818  44.455  22.167   7.353
10695POPC   NC371819  43.856  20.606   5.553
10695POPC   PO471820  43.933  20.656   5.853
10695POPC   GL171821  43.881  20.592   6.153
10695POPC   GL271822  43.740  20.598   6.153
10695POPC   C1A71823  43.866  20.615   6.453
10695POPC   D2A71824  43.860  20.600   6.753
10695POPC   C3A71825  43.862  20.642   7.053
10695POPC   C4A71826  43.850  20.595   7.353
10695POPC   C1B71827  43.630  20.515   6.453
10695POPC   C2B71828  43.672  20.551   6.753
10695POPC   C3B71829  43.608  20.551   7.053
10695POPC   C4B71830  43.637  20.559   7.353
10696POPC   NC371831  33.066  37.679   5.553
10696POPC   PO471832  32.977  37.705   5.853
10696POPC   GL171833  33.007  37.726   6.153
10696POPC   GL271834  33.142  37.684   6.153
10696POPC   C1A71835  33.035  37.692   6.453
10696POPC   D2A71836  33.071  37.681   6.753
10696POPC   C3A71837  32.998  37.724   7.053
10696POPC   C4A71838  32.981  37.708   7.353
10696POPC   C1B71839  33.321  37.655   6.453
10696POPC   C2B71840  33.301  37.664   6.753
10696POPC   C3B71841  33.274  37.731   7.053
10696POPC   C4B71842  33.299  37.670   7.353
10697POPC   NC371843  15.169  26.867   5.553
10697POPC   PO471844  15.196  26.847   5.853
10697POPC   GL171845  15.147  26.841   6.153
10697POPC   GL271846  15.048  26.915   6.153
10697POPC   C1A71847  15.228  26.866   6.453
10697POPC   D2A71848  15.162  26.843   6.753
10697POPC   C3A71849  15.156  26.827   7.053
10697POPC   C4A71850  15.197  26.819   7.353
10697POPC   C1B71851  14.935  26.932   6.453
10697POPC   C2B71852  14.947  26.923   6.753
10697POPC   C3B71853  14.986  26.944   7.053
10697POPC   C4B71854  15.003  26.944   7.353
10698POPC   NC371855  37.719  20.633   5.553
10698POPC   PO471856  37.686  20.591   5.853
10698POPC   GL171857  37.717  20.602   6.153
10698POPC   GL271858  37.755  20.493   6.153
10698POPC   C1A71859  37.715  20.645   6.453
10698POPC   D2A71860  37.629  20.579   6.753
10698POPC   C3A71861  37.651  20.612   7.053
10698POPC   C4A71862  37.631  20.658   7.353
10698POPC   C1B71863  37.774  20.319   6.453
10698POPC   C2B71864  37.730  20.363   6.753
10698POPC   C3B71865  37.700  20.386   7.053
10698POPC   C4B71866  37.781  20.323   7.353
10699POPC   NC371867   1.988  26.042   5.553
10699POPC   PO471868   1.961  26.054   5.853
10699POPC   GL171869   2.039  26.045   6.153
10699POPC   GL271870   2.023  25.878   6.153
10699POPC   C1A71871   2.011  26.064   6.453
10699POPC   D2A71872   1.986  26.020   6.753
10699POPC   C3A71873   1.947  26.084   7.053
10699POPC   C4A71874   2.028  26.059   7.353
10699POPC   C1B71875   1.977  25.779   6.453
10699POPC   C2B71876   2.007  25.832   6.753
10699POPC   C3B71877   1.985  25.810   7.053
10699POPC   C4B71878   2.041  25.811   7.353
10700POPC   NC371879  22.114  12.822   5.553
10700POPC   PO471880  22.114  12.826   5.853
10700POPC   GL171881  22.165  12.840   6.153
10700POPC   GL271882  22.116  12.785   6.153
10700POPC   C1A71883  22.199  12.841   6.453
10700POPC   D2A71884  22.129  12.809   6.753
10700POPC   C3A71885  22.122  12.831   7.053
10700POPC   C4A71886  22.134  12.838   7.353
10700POPC   C1B71887  21.972  12.671   6.453
10700POPC   C2B71888  21.987  12.624   6.753
10700POPC   C3B71889  21.959  12.620   7.053
10700POPC   C4B71890  21.968  12.709   7.353
10701POPC   NC371891   9.721  23.736   5.553
10701POPC   PO471892   9.795  23.761   5.853
10701POPC   GL171893   9.753  23.723   6.153
10701POPC   GL271894   9.777  23.542   6.153
10701POPC   C1A71895   9.778  23.723   6.453
10701POPC   D2A71896   9.782  23.735   6.753
10701POPC   C3A71897   9.778  23.668   7.053
10701POPC   C4A71898   9.783  23.695   7.353
10701POPC   C1B71899   9.791  23.452   6.453
10701POPC   C2B71900   9.745  23.431   6.753
10701POPC   C3B71901   9.810  23.455   7.053
10701POPC   C4B71902   9.801  23.516   7.353
10702POPC   NC371903  10.523  22.932   5.553
10702POPC   PO471904  10.486  22.982   5.853
10702POPC   GL171905  10.493  22.929   6.153
10702POPC   GL271906  10.450  23.002   6.153
10702POPC   C1A71907  10.482  22.982   6.453
10702POPC   D2A71908  10.480  22.954   6.753
10702POPC   C3A71909  10.534  22.937   7.053
10702POPC   C4A71910  10.550  22.958   7.353
10702POPC   C1B71911  10.248  22.955   6.453
10702POPC   C2B71912  10.240  22.964   6.753
10702POPC   C3B71913  10.243  23.023   7.053
10702POPC   C4B71914  10.313  23.016   7.353
10703POPC   NC371915   4.350  15.219   5.553
10703POPC   PO471916   4.365  15.158   5.853
10703POPC   GL171917   4.297  15.133   6.153
10703POPC   GL271918   4.166  15.209   6.153
10703POPC   C1A71919   4.346  15.159   6.453
10703POPC   D2A71920   4.310  15.222   6.753
10703POPC   C3A71921   4.331  15.171   7.053
10703POPC   C4A71922   4.269  15.194   7.353
10703POPC   C1B71923   4.105  15.299   6.453
10703POPC   C2B71924   4.108  15.272   6.753
10703POPC   C3B71925   4.137  15.304   7.053
10703POPC   C4B71926   4.122  15.300   7.353
10704POPC   NC371927  12.070  32.258   5.553
10704POPC   PO471928  12.073  32.273   5.853
10704POPC   GL171929  12.033  32.257   6.153
10704POPC   GL271930  11.951  32.153   6.153
10704POPC   C1A71931  12.093  32.258   6.453
10704POPC   D2A71932  12.117  32.228   6.753
10704POPC   C3A71933  12.113  32.258   7.053
10704POPC   C4A71934  12.051  32.291   7.353
10704POPC   C1B71935  11.882  32.060   6.453
10704POPC   C2B71936  11.935  32.016   6.753
10704POPC   C3B71937  11.898  32.101   7.053
10704POPC   C4B71938  11.955  32.033   7.353
10705POPC   NC371939   4.334   9.705   5.553
10705POPC   PO471940   4.296   9.761   5.853
10705POPC   GL171941   4.303   9.747   6.153
10705POPC   GL271942   4.391   9.741   6.153
10705POPC   C1A71943   4.302   9.776   6.453
10705POPC   D2A71944   4.346   9.753   6.753
10705POPC   C3A71945   4.279   9.763   7.053
10705POPC   C4A71946   4.354   9.791   7.353
10705POPC   C1B71947   4.579   9.706   6.453
10705POPC   C2B71948   4.528   9.670   6.753
10705POPC   C3B71949   4.526   9.637   7.053
10705POPC   C4B71950   4.582   9.653   7.353
10706POPC   NC371951  11.297  15.208   5.553
10706POPC   PO471952  11.260  15.202   5.853
10706POPC   GL171953  11.270  15.209   6.153
10706POPC   GL271954  11.199  15.120   6.153
10706POPC   C1A71955  11.307  15.159   6.453
10706POPC   D2A71956  11.251  15.191   6.753
10706POPC   C3A71957  11.276  15.203   7.053
10706POPC   C4A71958  11.326  15.202   7.353
10706POPC   C1B71959  11.154  15.049   6.453
10706POPC   C2B71960  11.085  15.053   6.753
10706POPC   C3B71961  11.152  15.033   7.053
10706POPC   C4B71962  11.074  15.034   7.353
10707POPC   NC371963  29.903  15.973   5.553
10707POPC   PO471964  29.898  15.974   5.853
10707POPC   GL171965  29.942  15.998   6.153
10707POPC   GL271966  30.005  16.069   6.153
10707POPC   C1A71967  29.944  15.913   6.453
10707POPC   D2A71968  29.875  15.934   6.753
10707POPC   C3A71969  29.923  15.936   7.053
10707POPC   C4A71970  29.879  15.920   7.353
10707POPC   C1B71971  30.062  16.083   6.453
10707POPC   C2B71972  30.139  16.157   6.753
10707POPC   C3B71973  30.098  16.159   7.053
10707POPC   C4B71974  30.089  16.180   7.353
10708POPC   NC371975   9.003  34.545   5.553
10708POPC   PO471976   8.993  34.613   5.853
10708POPC   GL171977   8.947  34.561   6.153
10708POPC   GL271978   9.125  34.666   6.153
10708POPC   C1A71979   8.954  34.540   6.453
10708POPC   D2A71980   8.923  34.599   6.753
10708POPC   C3A71981   8.942  34.620   7.053
10708POPC   C4A71982   8.962  34.580   7.353
10708POPC   C1B71983   9.224  34.665   6.453
10708POPC   C2B71984   9.200  34.693   6.753
10708POPC   C3B71985   9.170  34.666   7.053
10708POPC   C4B71986   9.228  34.634   7.353
10709POPC   NC371987   9.787   1.183   5.553
10709POPC   PO471988   9.758   1.258   5.853
10709POPC   GL171989   9.738   1.210   6.153
10709POPC   GL271990   9.901   1.239   6.153
10709POPC   C1A71991   9.751   1.174   6.453
10709POPC   D2A71992   9.703   1.230   6.753
10709POPC   C3A71993   9.753   1.186   7.053
10709POPC   C4A71994   9.778   1.198   7.353
10709POPC   C1B71995   9.953   1.252   6.453
10709POPC   C2B71996   9.975   1.192   6.753
10709POPC   C3B71997   9.978   1.237   7.053
10709POPC   C4B71998  10.040   1.269   7.353
10710POPC   NC371999  41.533  20.627   5.553
10710POPC   PO472000  41.533  20.602   5.853
10710POPC   GL172001  41.555  20.652   6.153
10710POPC   GL272002  41.642  20.516   6.153
10710POPC   C1A72003  41.581  20.631   6.453
10710POPC   D2A72004  41.510  20.573   6.753
10710POPC   C3A72005  41.598  20.607   7.053
10710POPC   C4A72006  41.560  20.622   7.353
10710POPC   C1B72007  41.712  20.471   6.453
10710POPC   C2B72008  41.746  20.458   6.753
10710POPC   C3B72009  41.695  20.405   7.053
10710POPC   C4B72010  41.765  20.469   7.353
10711POPC   NC372011  33.039  12.082   5.553
10711POPC   PO472012  33.031  12.101   5.853
10711POPC   GL172013  33.050  12.071   6.153
10711POPC   GL272014  32.873  12.045   6.153
10711POPC   C1A72015  32.980  12.113   6.453
10711POPC   D2A72016  33.003  12.096   6.753
10711POPC   C3A72017  33.035  12.091   7.053
10711POPC   C4A72018  32.982  12.091   7.353
10711POPC   C1B72019  32.792  12.076   6.453
10711POPC   C2B72020  32.802  12.100   6.753
10711POPC   C3B72021  32.784  12.029   7.053
10711POPC   C4B72022  32.769  12.082   7.353
10712POPC   NC372023  35.359  42.293   5.553
10712POPC   PO472024  35.325  42.345   5.853
10712POPC   GL172025  35.374  42.323   6.153
10712POPC   GL272026  35.241  42.316   6.153
10712POPC   C1A72027  35.342  42.309   6.453
10712POPC   D2A72028  35.350  42.383   6.753
10712POPC   C3A72029  35.334  42.330   7.053
10712POPC   C4A72030  35.305  42.355   7.353
10712POPC   C1B72031  35.117  42.302   6.453
10712POPC   C2B72032  35.145  42.276   6.753
10712POPC   C3B72033  35.058  42.354   7.053
10712POPC   C4B72034  35.096  42.347   7.353
10713POPC   NC372035   5.873  26.054   5.553
10713POPC   PO472036   5.870  25.992   5.853
10713POPC   GL172037   5.839  26.084   6.153
10713POPC   GL272038   6.005  26.026   6.153
10713POPC   C1A72039   5.863  26.073   6.453
10713POPC   D2A72040   5.887  25.994   6.753
10713POPC   C3A72041   5.834  26.033   7.053
10713POPC   C4A72042   5.883  26.000   7.353
10713POPC   C1B72043   6.155  26.118   6.453
10713POPC   C2B72044   6.161  26.044   6.753
10713POPC   C3B72045   6.138  26.130   7.053
10713POPC   C4B72046   6.135  26.130   7.353
10714POPC   NC372047  11.320   3.584   5.553
10714POPC   PO472048  11.342   3.517   5.853
10714POPC   GL172049  11.321   3.524   6.153
10714POPC   GL272050  11.300   3.393   6.153
10714POPC   C1A72051  11.275   3.502   6.453
10714POPC   D2A72052  11.252   3.522   6.753
10714POPC   C3A72053  11.253   3.518   7.053
10714POPC   C4A72054  11.331   3.523   7.353
10714POPC   C1B72055  11.307   3.291   6.453
10714POPC   C2B72056  11.348   3.260   6.753
10714POPC   C3B72057  11.335   3.273   7.053
10714POPC   C4B72058  11.325   3.260   7.353
10715POPC   NC372059   8.164  29.932   5.553
10715POPC   PO472060   8.165  29.940   5.853
10715POPC   GL172061   8.216  29.965   6.153
10715POPC   GL272062   8.246  30.048   6.153
10715POPC   C1A72063   8.225  29.941   6.453
10715POPC   D2A72064   8.227  29.873   6.753
10715POPC   C3A72065   8.180  29.926   7.053
10715POPC   C4A72066   8.232  29.882   7.353
10715POPC   C1B72067   8.324  30.123   6.453
10715POPC   C2B72068   8.307  30.132   6.753
10715POPC   C3B72069   8.389  30.120   7.053
10715POPC   C4B72070   8.322  30.169   7.353
10716POPC   NC372071   1.196  43.853   5.553
10716POPC   PO472072   1.223  43.857   5.853
10716POPC   GL172073   1.184  43.924   6.153
10716POPC   GL272074   1.312  43.991   6.153
10716POPC   C1A72075   1.254  43.928   6.453
10716POPC   D2A72076   1.244  43.879   6.753
10716POPC   C3A72077   1.235  43.868   7.053
10716POPC   C4A72078   1.214  43.899   7.353
10716POPC   C1B72079   1.389  43.955   6.453
10716POPC   C2B72080   1.431  43.950   6.753
10716POPC   C3B72081   1.397  44.046   7.053
10716POPC   C4B72082   1.485  44.048   7.353
10717POPC   NC372083   2.719   1.262   5.553
10717POPC   PO472084   2.721   1.241   5.853
10717POPC   GL172085   2.724   1.180   6.153
10717POPC   GL272086   2.652   1.093   6.153
10717POPC   C1A72087   2.744   1.230   6.453
10717POPC   D2A72088   2.760   1.226   6.753
10717POPC   C3A72089   2.802   1.175   7.053
10717POPC   C4A72090   2.734   1.172   7.353
10717POPC   C1B72091   2.523   1.063   6.453
10717POPC   C2B72092   2.555   1.059   6.753
10717POPC   C3B72093   2.586   1.034   7.053
10717POPC   C4B72094   2.545   1.024   7.353
10718POPC   NC372095  36.879  16.768   5.553
10718POPC   PO472096  36.949  16.740   5.853
10718POPC   GL172097  36.858  16.760   6.153
10718POPC   GL272098  36.790  16.695   6.153
10718POPC   C1A72099  36.943  16.701   6.453
10718POPC   D2A72100  36.884  16.754   6.753
10718POPC   C3A72101  36.915  16.754   7.053
10718POPC   C4A72102  36.941  16.712   7.353
10718POPC   C1B72103  36.696  16.522   6.453
10718POPC   C2B72104  36.688  16.583   6.753
10718POPC   C3B72105  36.731  16.585   7.053
10718POPC   C4B72106  36.699  16.611   7.353
10719POPC   NC372107  39.995  32.218   5.553
10719POPC   PO472108  39.979  32.223   5.853
10719POPC   GL172109  40.036  32.252   6.153
10719POPC   GL272110  39.925  32.347   6.153
10719POPC   C1A72111  39.975  32.251   6.453
10719POPC   D2A72112  40.034  32.243   6.753
10719POPC   C3A72113  40.011  32.286   7.053
10719POPC   C4A72114  39.981  32.271   7.353
10719POPC   C1B72115  39.929  32.471   6.453
10719POPC   C2B72116  39.863  32.433   6.753
10719POPC   C3B72117  39.904  32.514   7.053
10719POPC   C4B72118  39.945  32.442   7.353
10720POPC   NC372119  10.527  16.700   5.553
10720POPC   PO472120  10.559  16.759   5.853
10720POPC   GL172121  10.506  16.710   6.153
10720POPC   GL272122  10.385  16.672   6.153
10720POPC   C1A72123  10.530  16.741   6.453
10720POPC   D2A72124  10.515  16.764   6.753
10720POPC   C3A72125  10.532  16.697   7.053
10720POPC   C4A72126  10.534  16.721   7.353
10720POPC   C1B72127  10.285  16.608   6.453
10720POPC   C2B72128  10.288  16.624   6.753
10720POPC   C3B72129  10.285  16.577   7.053
10720POPC   C4B72130  10.305  16.573   7.353
10721POPC   NC372131   0.445  12.062   5.553
10721POPC   PO472132   0.402  12.095   5.853
10721POPC   GL172133   0.438  12.053   6.153
10721POPC   GL272134   0.502  12.188   6.153
10721POPC   C1A72135   0.454  12.033   6.453
10721POPC   D2A72136   0.448  12.065   6.753
10721POPC   C3A72137   0.450  12.091   7.053
10721POPC   C4A72138   0.414  12.046   7.353
10721POPC   C1B72139   0.560  12.277   6.453
10721POPC   C2B72140   0.542  12.280   6.753
10721POPC   C3B72141   0.584  12.315   7.053
10721POPC   C4B72142   0.599  12.318   7.353
10722POPC   NC372143  33.754  29.154   5.553
10722POPC   PO472144  33.847  29.136   5.853
10722POPC   GL172145  33.827  29.125   6.153
10722POPC   GL272146  33.837  29.231   6.153
10722POPC   C1A72147  33.757  29.165   6.453
10722POPC   D2A72148  33.763  29.133   6.753
10722POPC   C3A72149  33.780  29.117   7.053
10722POPC   C4A72150  33.768  29.119   7.353
10722POPC   C1B72151  33.931  29.309   6.453
10722POPC   C2B72152  33.953  29.313   6.753
10722POPC   C3B72153  33.948  29.344   7.053
10722POPC   C4B72154  33.943  29.349   7.353
10723POPC   NC372155  22.953  29.126   5.553
10723POPC   PO472156  22.934  29.118   5.853
10723POPC   GL172157  22.927  29.160   6.153
10723POPC   GL272158  23.008  29.267   6.153
10723POPC   C1A72159  22.969  29.141   6.453
10723POPC   D2A72160  22.964  29.187   6.753
10723POPC   C3A72161  22.917  29.107   7.053
10723POPC   C4A72162  22.930  29.144   7.353
10723POPC   C1B72163  22.973  29.388   6.453
10723POPC   C2B72164  23.053  29.424   6.753
10723POPC   C3B72165  22.997  29.423   7.053
10723POPC   C4B72166  23.028  29.348   7.353
10724POPC   NC372167  23.760  11.289   5.553
10724POPC   PO472168  23.736  11.348   5.853
10724POPC   GL172169  23.669  11.298   6.153
10724POPC   GL272170  23.750  11.363   6.153
10724POPC   C1A72171  23.725  11.350   6.453
10724POPC   D2A72172  23.721  11.285   6.753
10724POPC   C3A72173  23.666  11.278   7.053
10724POPC   C4A72174  23.674  11.336   7.353
10724POPC   C1B72175  23.853  11.499   6.453
10724POPC   C2B72176  23.887  11.509   6.753
10724POPC   C3B72177  23.855  11.557   7.053
10724POPC   C4B72178  23.856  11.544   7.353
10725POPC   NC372179  14.411  19.790   5.553
10725POPC   PO472180  14.384  19.818   5.853
10725POPC   GL172181  14.357  19.863   6.153
10725POPC   GL272182  14.425  19.948   6.153
10725POPC   C1A72183  14.453  19.791   6.453
10725POPC   D2A72184  14.422  19.786   6.753
10725POPC   C3A72185  14.355  19.874   7.053
10725POPC   C4A72186  14.432  19.789   7.353
10725POPC   C1B72187  14.450  20.089   6.453
10725POPC   C2B72188  14.511  20.087   6.753
10725POPC   C3B72189  14.508  20.059   7.053
10725POPC   C4B72190  14.499  20.095   7.353
10726POPC   NC372191   1.948   5.138   5.553
10726POPC   PO472192   2.004   5.124   5.853
10726POPC   GL172193   1.953   5.143   6.153
10726POPC   GL272194   2.011   5.231   6.153
10726POPC   C1A72195   2.024   5.107   6.453
10726POPC   D2A72196   2.031   5.128   6.753
10726POPC   C3A72197   1.958   5.083   7.053
10726POPC   C4A72198   1.977   5.053   7.353
10726POPC   C1B72199   1.996   5.315   6.453
10726POPC   C2B72200   1.946   5.301   6.753
10726POPC   C3B72201   1.976   5.318   7.053
10726POPC   C4B72202   1.998   5.324   7.353
10727POPC   NC372203  16.740  29.133   5.553
10727POPC   PO472204  16.698  29.111   5.853
10727POPC   GL172205  16.698  29.123   6.153
10727POPC   GL272206  16.785  29.224   6.153
10727POPC   C1A72207  16.777  29.187   6.453
10727POPC   D2A72208  16.739  29.095   6.753
10727POPC   C3A72209  16.735  29.182   7.053
10727POPC   C4A72210  16.711  29.098   7.353
10727POPC   C1B72211  16.909  29.295   6.453
10727POPC   C2B72212  16.878  29.322   6.753
10727POPC   C3B72213  16.879  29.322   7.053
10727POPC   C4B72214  16.913  29.302   7.353
10728POPC   NC372215   2.806   2.774   5.553
10728POPC   PO472216   2.728   2.759   5.853
10728POPC   GL172217   2.717   2.785   6.153
10728POPC   GL272218   2.709   2.679   6.153
10728POPC   C1A72219   2.754   2.810   6.453
10728POPC   D2A72220   2.783   2.756   6.753
10728POPC   C3A72221   2.758   2.765   7.053
10728POPC   C4A72222   2.719   2.766   7.353
10728POPC   C1B72223   2.692   2.563   6.453
10728POPC   C2B72224   2.752   2.480   6.753
10728POPC   C3B72225   2.714   2.550   7.053
10728POPC   C4B72226   2.709   2.504   7.353
10729POPC   NC372227  37.693   0.483   5.553
10729POPC   PO472228  37.652   0.447   5.853
10729POPC   GL172229  37.720   0.452   6.153
10729POPC   GL272230  37.648   0.524   6.153
10729POPC   C1A72231  37.654   0.452   6.453
10729POPC   D2A72232  37.709   0.440   6.753
10729POPC   C3A72233  37.706   0.430   7.053
10729POPC   C4A72234  37.704   0.399   7.353
10729POPC   C1B72235  37.504   0.601   6.453
10729POPC   C2B72236  37.545   0.631   6.753
10729POPC   C3B72237  37.567   0.613   7.053
10729POPC   C4B72238  37.542   0.611   7.353
10730POPC   NC372239  38.476   9.763   5.553
10730POPC   PO472240  38.422   9.735   5.853
10730POPC   GL172241  38.445   9.719   6.153
10730POPC   GL272242  38.469   9.840   6.153
10730POPC   C1A72243  38.491   9.719   6.453
10730POPC   D2A72244  38.449   9.782   6.753
10730POPC   C3A72245  38.408   9.738   7.053
10730POPC   C4A72246  38.441   9.768   7.353
10730POPC   C1B72247  38.433  10.013   6.453
10730POPC   C2B72248  38.447   9.962   6.753
10730POPC   C3B72249  38.380  10.034   7.053
10730POPC   C4B72250  38.356  10.025   7.353
10731POPC   NC372251   7.470  24.488   5.553
10731POPC   PO472252   7.414  24.508   5.853
10731POPC   GL172253   7.439  24.465   6.153
10731POPC   GL272254   7.336  24.605   6.153
10731POPC   C1A72255   7.428  24.453   6.453
10731POPC   D2A72256   7.386  24.483   6.753
10731POPC   C3A72257   7.372  24.506   7.053
10731POPC   C4A72258   7.429  24.519   7.353
10731POPC   C1B72259   7.217  24.683   6.453
10731POPC   C2B72260   7.192  24.675   6.753
10731POPC   C3B72261   7.233  24.659   7.053
10731POPC   C4B72262   7.211  24.669   7.353
10732POPC   NC372263  36.127  43.873   5.553
10732POPC   PO472264  36.160  43.891   5.853
10732POPC   GL172265  36.145  43.853   6.153
10732POPC   GL272266  36.235  43.801   6.153
10732POPC   C1A72267  36.098  43.918   6.453
10732POPC   D2A72268  36.122  43.926   6.753
10732POPC   C3A72269  36.122  43.932   7.053
10732POPC   C4A72270  36.129  43.911   7.353
10732POPC   C1B72271  36.318  43.841   6.453
10732POPC   C2B72272  36.367  43.784   6.753
10732POPC   C3B72273  36.351  43.798   7.053
10732POPC   C4B72274  36.340  43.817   7.353
10733POPC   NC372275  28.379  33.052   5.553
10733POPC   PO472276  28.358  32.977   5.853
10733POPC   GL172277  28.321  32.984   6.153
10733POPC   GL272278  28.249  32.997   6.153
10733POPC   C1A72279  28.344  32.992   6.453
10733POPC   D2A72280  28.415  33.060   6.753
10733POPC   C3A72281  28.393  33.057   7.053
10733POPC   C4A72282  28.392  33.019   7.353
10733POPC   C1B72283  28.144  33.056   6.453
10733POPC   C2B72284  28.092  33.075   6.753
10733POPC   C3B72285  28.152  33.105   7.053
10733POPC   C4B72286  28.075  33.069   7.353
10734POPC   NC372287   8.990  12.849   5.553
10734POPC   PO472288   8.964  12.853   5.853
10734POPC   GL172289   8.934  12.825   6.153
10734POPC   GL272290   8.859  12.977   6.153
10734POPC   C1A72291   9.017  12.835   6.453
10734POPC   D2A72292   8.952  12.821   6.753
10734POPC   C3A72293   8.978  12.828   7.053
10734POPC   C4A72294   8.961  12.894   7.353
10734POPC   C1B72295   8.821  13.040   6.453
10734POPC   C2B72296   8.808  13.041   6.753
10734POPC   C3B72297   8.751  13.026   7.053
10734POPC   C4B72298   8.744  13.035   7.353
10735POPC   NC372299  22.171   9.753   5.553
10735POPC   PO472300  22.133   9.793   5.853
10735POPC   GL172301  22.205   9.782   6.153
10735POPC   GL272302  22.037   9.760   6.153
10735POPC   C1A72303  22.157   9.733   6.453
10735POPC   D2A72304  22.128   9.740   6.753
10735POPC   C3A72305  22.195   9.711   7.053
10735POPC   C4A72306  22.177   9.730   7.353
10735POPC   C1B72307  21.951   9.708   6.453
10735POPC   C2B72308  21.961   9.728   6.753
10735POPC   C3B72309  21.900   9.693   7.053
10735POPC   C4B72310  21.881   9.734   7.353
10736POPC   NC372311  32.283  15.148   5.553
10736POPC   PO472312  32.200  15.141   5.853
10736POPC   GL172313  32.274  15.158   6.153
10736POPC   GL272314  32.232  15.327   6.153
10736POPC   C1A72315  32.229  15.225   6.453
10736POPC   D2A72316  32.250  15.205   6.753
10736POPC   C3A72317  32.230  15.212   7.053
10736POPC   C4A72318  32.238  15.149   7.353
10736POPC   C1B72319  32.078  15.423   6.453
10736POPC   C2B72320  32.150  15.380   6.753
10736POPC   C3B72321  32.148  15.415   7.053
10736POPC   C4B72322  32.132  15.410   7.353
10737POPC   NC372323  34.554  12.877   5.553
10737POPC   PO472324  34.582  12.837   5.853
10737POPC   GL172325  34.531  12.810   6.153
10737POPC   GL272326  34.710  12.720   6.153
10737POPC   C1A72327  34.614  12.835   6.453
10737POPC   D2A72328  34.586  12.818   6.753
10737POPC   C3A72329  34.573  12.823   7.053
10737POPC   C4A72330  34.576  12.803   7.353
10737POPC   C1B72331  34.724  12.730   6.453
10737POPC   C2B72332  34.735  12.714   6.753
10737POPC   C3B72333  34.730  12.651   7.053
10737POPC   C4B72334  34.799  12.687   7.353
10738POPC   NC372335  30.686  23.748   5.553
10738POPC   PO472336  30.653  23.757   5.853
10738POPC   GL172337  30.681  23.669   6.153
10738POPC   GL272338  30.785  23.788   6.153
10738POPC   C1A72339  30.712  23.762   6.453
10738POPC   D2A72340  30.647  23.702   6.753
10738POPC   C3A72341  30.694  23.735   7.053
10738POPC   C4A72342  30.706  23.763   7.353
10738POPC   C1B72343  30.828  23.953   6.453
10738POPC   C2B72344  30.799  23.899   6.753
10738POPC   C3B72345  30.798  23.907   7.053
10738POPC   C4B72346  30.796  23.941   7.353
10739POPC   NC372347  19.838   8.954   5.553
10739POPC   PO472348  19.802   8.986   5.853
10739POPC   GL172349  19.867   8.983   6.153
10739POPC   GL272350  19.942   8.895   6.153
10739POPC   C1A72351  19.823   9.014   6.453
10739POPC   D2A72352  19.794   8.928   6.753
10739POPC   C3A72353  19.865   9.020   7.053
10739POPC   C4A72354  19.798   8.992   7.353
10739POPC   C1B72355  20.070   8.870   6.453
10739POPC   C2B72356  20.101   8.820   6.753
10739POPC   C3B72357  20.041   8.858   7.053
10739POPC   C4B72358  20.045   8.911   7.353
10740POPC   NC372359  28.401  34.549   5.553
10740POPC   PO472360  28.362  34.554   5.853
10740POPC   GL172361  28.384  34.542   6.153
10740POPC   GL272362  28.243  34.533   6.153
10740POPC   C1A72363  28.334  34.589   6.453
10740POPC   D2A72364  28.393  34.582   6.753
10740POPC   C3A72365  28.413  34.561   7.053
10740POPC   C4A72366  28.362  34.541   7.353
10740POPC   C1B72367  28.090  34.571   6.453
10740POPC   C2B72368  28.092  34.613   6.753
10740POPC   C3B72369  28.125  34.587   7.053
10740POPC   C4B72370  28.152  34.548   7.353
10741POPC   NC372371   5.115   5.820   5.553
10741POPC   PO472372   5.069   5.854   5.853
10741POPC   GL172373   5.111   5.820   6.153
10741POPC   GL272374   4.985   5.928   6.153
10741POPC   C1A72375   5.071   5.893   6.453
10741POPC   D2A72376   5.080   5.854   6.753
10741POPC   C3A72377   5.100   5.855   7.053
10741POPC   C4A72378   5.089   5.819   7.353
10741POPC   C1B72379   4.921   6.055   6.453
10741POPC   C2B72380   4.883   6.025   6.753
10741POPC   C3B72381   4.876   6.079   7.053
10741POPC   C4B72382   4.926   6.017   7.353
10742POPC   NC372383  38.476   5.835   5.553
10742POPC   PO472384  38.421   5.829   5.853
10742POPC   GL172385  38.466   5.847   6.153
10742POPC   GL272386  38.429   5.949   6.153
10742POPC   C1A72387  38.451   5.838   6.453
10742POPC   D2A72388  38.431   5.864   6.753
10742POPC   C3A72389  38.452   5.850   7.053
10742POPC   C4A72390  38.467   5.865   7.353
10742POPC   C1B72391  38.448   6.155   6.453
10742POPC   C2B72392  38.471   6.130   6.753
10742POPC   C3B72393  38.463   6.117   7.053
10742POPC   C4B72394  38.498   6.152   7.353
10743POPC   NC372395  24.447  12.040   5.553
10743POPC   PO472396  24.527  12.033   5.853
10743POPC   GL172397  24.475  12.122   6.153
10743POPC   GL272398  24.608  12.164   6.153
10743POPC   C1A72399  24.499  12.110   6.453
10743POPC   D2A72400  24.475  12.080   6.753
10743POPC   C3A72401  24.502  12.106   7.053
10743POPC   C4A72402  24.465  12.057   7.353
10743POPC   C1B72403  24.771  12.142   6.453
10743POPC   C2B72404  24.723  12.181   6.753
10743POPC   C3B72405  24.677  12.175   7.053
10743POPC   C4B72406  24.757  12.165   7.353
10744W        W72407  23.674  16.579   4.142
10745W        W72408  21.250   5.377   0.948
10746W        W72409  36.452  30.529  11.571
10747W        W72410  11.714  44.350  14.987
10748W        W72411  40.381  19.281  13.876
10749W        W72412   6.191   6.194  12.560
10750W        W72413  21.205  19.566   4.131
10751W        W72414   7.850  43.879  13.018
10752W        W72415  23.053  29.038  12.988
10753W        W72416   5.930  16.748   3.331
10754W        W72417  24.556  41.318   5.303
10755W        W72418  15.730  34.970  13.418
10756W        W72419  30.489  25.709   1.823
10757W        W72420  16.125  39.832  11.396
10758W        W72421  40.506  36.422   4.651
10759W        W72422  38.009   9.675  12.054
10760W        W72423  42.804  30.914   0.845
10761W        W72424  28.506  26.191   4.300
10762W        W72425   8.245  22.202   2.234
10763W        W72426  32.459   4.867  12.887
10764W        W72427  44.755   7.767  11.885
10765W        W72428  22.652   9.188  12.389
10766W        W72429  42.315  41.043   2.801
10767W        W72430  44.368   2.736   1.264
10768W        W72431  30.627  27.457   0.272
10769W        W72432   5.411  10.734  14.005
10770W        W72433  35.853  32.565  14.978
10771W        W72434   0.778  35.874   0.273
10772W        W72435  31.647   6.917   4.819
10773W        W72436  25.985  22.074   0.321
10774W        W72437  38.980  10.142   1.427
10775W        W72438   7.733  31.537   1.212
10776W        W72439   0.839  26.518  10.071
10777W        W72440   2.386  33.894   2.869
10778W        W72441  27.112   4.901   2.219
10779W        W72442   9.820   3.351   2.724
10780W        W72443   1.743  22.155  10.920
10781W        W72444   4.889  25.600  14.484
10782W        W72445  12.287  10.263   0.827
10783W        W72446  13.803  29.623  12.580
10784W        W72447  40.458  26.521  13.511
10785W        W72448  26.669  12.684   4.130
10786W        W72449  12.177  15.633   2.297
10787W        W72450  44.374  40.546  14.398
10788W        W72451  39.472  25.046  13.843
10789W        W72452   3.276  44.430  12.875
10790W        W72453   8.780  44.482  14.765
10791W        W72454  43.333  44.799  11.589
10792W        W72455  12.312  44.420  11.105
10793W        W72456  41.377   1.835  12.388
10794W        W72457  32.080  41.473   2.727
10795W        W72458  10.715  19.718   1.772
10796W        W72459   6.377  26.547   2.254
10797W        W72460   1.428  18.609   0.944
10798W        W72461  34.473  34.882  13.838
10799W        W72462  13.755   0.409   0.313
10800W        W72463  11.166   7.798  14.998
10801W        W72464  42.979   8.405  14.826
10802W        W72465  38.568   4.207   4.180
10803W        W72466  35.603  24.047  14.946
10804W        W72467   1.807   4.364  11.383
10805W        W72468  15.649   4.935  13.399
10806W        W72469   6.908  24.143   4.159
10807W        W72470  36.045  10.761   0.428
10808W        W72471  25.066  43.853  12.917
10809W        W72472  10.287  22.060  14.942
10810W        W72473  35.915  27.618   1.879
10811W        W72474  28.499  23.209  12.058
10812W        W72475  16.753  22.573   0.825
10813W        W72476  42.496  28.106  13.922
10814W        W72477   6.408  22.016  11.874
10815W        W72478  41.893   7.227  12.926
10816W        W72479  24.548  21.041  10.431
10817W        W72480  29.541  20.159   0.916
10818W        W72481  39.392  34.896  11.015
10819W        W72482  13.647  24.129   0.798
10820W        W72483  32.460  19.541   2.362
10821W        W72484  36.975  29.059  10.953
10822W        W72485  12.126  12.828   2.846
10823W        W72486  37.017  26.468  10.990
10824W        W72487  35.045  19.706  11.493
10825W        W72488   1.799  30.645  12.459
10826W        W72489  42.481   1.901  11.045
10827W        W72490  23.127   8.671   0.764
10828W        W72491  13.325  23.704   2.842
10829W        W72492   6.790  29.515   4.831
10830W        W72493  23.642  10.162  13.479
10831W        W72494   5.857   5.429   0.368
10832W        W72495  24.624  25.714  11.057
10833W        W72496   5.347  19.245  14.347
10834W        W72497  10.208  22.584  14.379
10835W        W72498  41.493  21.263  12.067
10836W        W72499  44.464   9.197   2.374
10837W        W72500  16.599  10.790   3.342
10838W        W72501  17.295  27.516  12.468
10839W        W72502   9.860  17.171  14.778
10840W        W72503   8.723  29.944   0.927
10841W        W72504   5.362  23.999  14.817
10842W        W72505  25.009   9.170   1.746
10843W        W72506   9.790   7.906   3.195
10844W        W72507  36.481   9.276   1.301
10845W        W72508   8.393   3.916  13.014
10846W        W72509  29.109  19.139  13.036
10847W        W72510   6.416  14.737  10.408
10848W        W72511  34.910  29.436   0.811
10849W        W72512  20.119   9.266   0.287
10850W        W72513  39.036   2.320   4.253
10851W        W72514  35.050  33.132  14.795
10852W        W72515  44.418  12.241  13.457
10853W        W72516  30.556  16.672   4.297
10854W        W72517  21.249  29.966   0.804
10855W        W72518   2.243  29.052  10.065
10856W        W72519  24.662   9.186  11.991
10857W        W72520  23.161  37.080   4.726
10858W        W72521  18.111  33.027   0.267
10859W        W72522  44.386  39.006   4.796
10860W        W72523  24.211  38.354  12.541
10861W        W72524   4.403  13.707  12.382
10862W        W72525  24.512  11.169   4.287
10863W        W72526  39.477  28.526  12.473
10864W        W72527  30.937  41.941   0.333
10865W        W72528   8.792   5.846   1.378
10866W        W72529  21.519  35.895   4.722
10867W        W72530  19.752  35.404   0.392
10868W        W72531  18.100   0.270  12.381
10869W        W72532   3.771  37.555  10.977
10870W        W72533   8.228   7.182   4.142
10871W        W72534  32.512  32.416   0.441
10872W        W72535  43.804  10.356  13.477
10873W        W72536  43.970  18.268   1.445
10874W        W72537  38.930  38.333  12.085
10875W        W72538  21.220  17.772  11.593
10876W        W72539  37.995  18.248  12.937
10877W        W72540  27.691   3.251   3.227
10878W        W72541  39.974  14.332   5.190
10879W        W72542  30.479  14.130  10.525
10880W        W72543   1.879   4.717   3.855
10881W        W72544  21.049  35.041  13.334
10882W        W72545  31.055  44.434  13.427
10883W        W72546  26.467  33.602  11.855
10884W        W72547  14.281  43.276  13.978
10885W        W72548  20.273  18.667   2.184
10886W        W72549   8.233  30.644  10.981
10887W        W72550  23.673  24.225  14.954
10888W        W72551  36.055  38.428  12.432
10889W        W72552  33.047   1.340   0.911
10890W        W72553  12.650   2.449  11.023
10891W        W72554  43.377  18.108   1.331
10892W        W72555  38.842  19.633   0.741
10893W        W72556  11.151  19.595  14.477
10894W        W72557  20.100  14.326   0.408
10895W        W72558  20.740   9.744   0.892
10896W        W72559  22.679  33.492   0.816
10897W        W72560  36.866  31.601  11.999
10898W        W72561  18.768  39.424   2.180
10899W        W72562   3.941  23.701   2.318
10900W        W72563  30.002   3.397  14.462
10901W        W72564  20.114  12.203  12.485
10902W        W72565   3.778   5.413  12.873
10903W        W72566  13.165   3.259   5.287
10904W        W72567  13.651  14.322   4.814
10905W        W72568  11.763  16.313  14.812
10906W        W72569   5.432  37.963  14.365
10907W        W72570  21.256  29.132   2.688
10908W        W72571  27.531  34.532  12.565
10909W        W72572  11.323  16.594   2.730
10910W        W72573  42.784  18.075   3.240
10911W        W72574   6.303  21.116   4.208
10912W        W72575  32.622  29.926  13.544
10913W        W72576  27.496   4.923   3.699
10914W        W72577   3.339  27.996   3.640
10915W        W72578  18.605  34.612   4.351
10916W        W72579  23.221  13.338  11.384
10917W        W72580  19.704  13.162   3.772
10918W        W72581  10.879   8.275   3.257
10919W        W72582  30.164  26.080  11.122
10920W        W72583  34.540   1.877   4.653
10921W        W72584  36.437  23.033   4.118
10922W        W72585   7.202   6.825   4.165
10923W        W72586   2.396  24.641   3.776
10924W        W72587  43.412  31.536  13.428
10925W        W72588   9.724  12.684   4.819
10926W        W72589   6.746   6.292   1.912
10927W        W72590  28.675  13.322  12.027
10928W        W72591  18.226  17.206  12.526
10929W        W72592  20.632  25.053  10.471
10930W        W72593  22.167  20.732   4.618
10931W        W72594  33.070  32.539  14.795
10932W        W72595  24.222  17.602  11.949
10933W        W72596   6.726  44.894   3.186
10934W        W72597  10.355   6.223  14.971
10935W        W72598   5.345  34.063  11.563
10936W        W72599  13.648  43.857  13.498
10937W        W72600  30.503  16.159   0.808
10938W        W72601  38.850  26.203  11.055
10939W        W72602  37.536  23.561  13.821
10940W        W72603  38.447  13.149  14.930
10941W        W72604  11.142  29.092  14.890
10942W        W72605  10.787  13.173   2.236
10943W        W72606  36.031  18.586   0.343
10944W        W72607  24.059  11.263  14.896
10945W        W72608  43.907  38.440  13.461
10946W        W72609  10.635  30.081   3.663
10947W        W72610  20.047  19.269   3.631
10948W        W72611  31.018  12.333  11.525
10949W        W72612  19.205  20.230   2.419
10950W        W72613  25.527  22.688  14.282
10951W        W72614   2.808  18.616   1.226
10952W        W72615  44.334   3.936   0.735
10953W        W72616  36.920  20.118   0.850
10954W        W72617   8.178  24.487  11.419
10955W        W72618   3.436   1.934   3.274
10956W        W72619   5.767  25.572   3.690
10957W        W72620   1.342  13.695  11.122
10958W        W72621   4.236  42.953  11.965
10959W        W72622  34.452  37.432  11.953
10960W        W72623  44.923  30.994   3.309
10961W        W72624  26.952  17.218  12.924
10962W        W72625  22.124  44.493  10.601
10963W        W72626  14.233  11.844   4.277
10964W        W72627  38.452  36.923   1.816
10965W        W72628  44.424  13.247  14.435
10966W        W72629  42.891  24.720   0.323
10967W        W72630  36.395  25.990   3.386
10968W        W72631  24.685  16.756  14.765
10969W        W72632   5.844   2.838  12.455
10970W        W72633  30.071  18.654  14.413
10971W        W72634  31.603   2.763   1.260
10972W        W72635   6.278  43.340  11.082
10973W        W72636  30.160  23.729  12.920
10974W        W72637  29.551  37.481  14.375
10975W        W72638  38.564  34.988  10.586
10976W        W72639  36.575  31.049  10.977
10977W        W72640   6.759   5.268   4.745
10978W        W72641  43.000  19.152   2.811
10979W        W72642   5.435   5.724   0.954
10980W        W72643   3.372  22.747  12.571
10981W        W72644  44.876  28.549   2.356
10982W        W72645  38.486  25.666   4.115
10983W        W72646  44.413  42.922   0.838
10984W        W72647  31.644  23.541  12.849
10985W        W72648  42.894   1.976  13.311
10986W        W72649  38.054  19.552   1.333
10987W        W72650  30.033  31.512   3.689
10988W        W72651  33.554  42.990   2.415
10989W        W72652  16.094  33.040  14.933
10990W        W72653  28.581  38.566   9.969
10991W        W72654  30.481  26.604  12.975
10992W        W72655  36.577  20.092   3.351
10993W        W72656  32.532   4.218   0.934
10994W        W72657  31.022   4.358   1.774
10995W        W72658  29.126   0.934   1.365
10996W        W72659  30.650  16.649   2.772
10997W        W72660  31.934  19.066   2.312
10998W        W72661  43.022  31.923  13.528
10999W        W72662   9.330  40.370   3.703
11000W        W72663  29.002  11.737   0.371
11001W        W72664  10.351  14.141   2.701
11002W        W72665  32.467   8.687  12.947
11003W        W72666  35.867  31.546  13.993
11004W        W72667  33.397  35.475   1.254
11005W        W72668   3.386   5.840  14.339
11006W        W72669  33.896  27.517  10.942
11007W        W72670  19.281   0.857  13.020
11008W        W72671  19.564  38.989  10.612
11009W        W72672  20.123  42.415  14.798
11010W        W72673  30.987  17.700   1.444
11011W        W72674  11.732   5.839   3.748
11012W        W72675   5.711  12.685  12.515
11013W        W72676   6.364  18.606  12.485
11014W        W72677  39.992  22.117   4.644
11015W        W72678   2.922  14.717  11.588
11016W        W72679   4.222  24.718  12.384
11017W        W72680  34.475  25.034   2.405
11018W        W72681  44.498   8.297  12.018
11019W        W72682  27.537  13.690  14.775
11020W        W72683  44.382  33.390   4.794
11021W        W72684  33.577  16.627  12.553
11022W        W72685  30.067  33.561   2.809
11023W        W72686  41.408  32.928   0.743
11024W        W72687  28.125  34.943   0.792
11025W        W72688   4.933  39.832  11.602
11026W        W72689  14.652  23.553   4.737
11027W        W72690  18.637   1.950   3.778
11028W        W72691  23.126   9.241   3.634
11029W        W72692  36.515  11.842  11.535
11030W        W72693   3.394  33.387   2.201
11031W        W72694  29.038  15.287  10.571
11032W        W72695  19.776  27.956  12.937
11033W        W72696  19.688  26.458   3.796
11034W        W72697  19.043   0.483   1.875
11035W        W72698   1.461   1.772  10.967
11036W        W72699  33.057  42.505   3.315
11037W        W72700  27.031  41.879  13.011
11038W        W72701  31.001  19.669   4.273
11039W        W72702  35.368  13.725   0.886
11040W        W72703  11.648  17.636   2.773
11041W        W72704  40.004  30.435  11.079
11042W        W72705   9.310  33.495  13.805
11043W        W72706   8.884  39.419  11.017
11044W        W72707  44.808  18.654  11.013
11045W        W72708  28.572   0.855  14.825
11046W        W72709   1.840  34.912  10.480
11047W        W72710  26.159  43.000  12.001
11048W        W72711  22.634  19.590  10.989
11049W        W72712  31.079   9.235   3.763
11050W        W72713  39.319  29.936   4.203
11051W        W72714  42.379  15.650   3.236
11052W        W72715  25.533  43.772  11.899
11053W        W72716  34.461  39.445  14.341
11054W        W72717  40.380  21.129  14.333
11055W        W72718  26.678  37.086   3.773
11056W        W72719  39.382  21.232   2.823
11057W        W72720  26.681   9.249   4.789
11058W        W72721  18.296  22.698  11.945
11059W        W72722  17.095  17.305  14.460
11060W        W72723  33.091   1.858   1.387
11061W        W72724  31.473  21.242  14.921
11062W        W72725   0.319  27.488  10.452
11063W        W72726  23.577  12.815   1.256
11064W        W72727  42.858  26.040  12.938
11065W        W72728  22.694   1.773   4.644
11066W        W72729   1.324  24.986  14.030
11067W        W72730  22.244  37.028  12.431
11068W        W72731  26.597  28.636  11.125
11069W        W72732   7.399  22.590  14.995
11070W        W72733  24.227  22.039  13.905
11071W        W72734  29.920   0.941  10.620
11072W        W72735  37.869  10.869  14.487
11073W        W72736  22.527  22.024  10.955
11074W        W72737  20.555   8.674  12.381
11075W        W72738  29.091  25.197  10.507
11076W        W72739   1.340  12.673   0.419
11077W        W72740  28.143  44.831   0.792
11078W        W72741  22.222   0.821   3.843
11079W        W72742  33.106   3.804  12.021
11080W        W72743   7.817  14.190  11.986
11081W        W72744  43.460   2.358  10.448
11082W        W72745  16.780  37.872  10.499
11083W        W72746  43.346  23.080  13.822
11084W        W72747  23.613   1.238   0.242
11085W        W72748  10.147  29.026  10.556
11086W        W72749  10.148  25.620   1.831
11087W        W72750  38.014  27.165   0.778
11088W        W72751  32.102  10.752  10.955
11089W        W72752  13.811   7.263  11.908
11090W        W72753   1.766  36.932   3.191
11091W        W72754   3.746  12.615   1.862
11092W        W72755  23.594  14.728  12.453
11093W        W72756  35.087  19.546  13.899
11094W        W72757  35.548  41.994  14.847
11095W        W72758  33.026   7.864   1.288
11096W        W72759  21.698  37.482  10.605
11097W        W72760  16.692  21.707  12.876
11098W        W72761  29.482   0.259   0.815
11099W        W72762  12.136  30.418  13.880
11100W        W72763  32.894  44.815   4.212
11101W        W72764   9.657  29.054  12.556
11102W        W72765  13.637  13.328  14.786
11103W        W72766  25.047  38.046   0.962
11104W        W72767  33.549  34.405   2.374
11105W        W72768  15.220  13.279  11.052
11106W        W72769  33.469  43.908  11.427
11107W        W72770  23.190  41.425   4.243
11108W        W72771   1.853  37.489   3.792
11109W        W72772   6.292  25.714   3.172
11110W        W72773  43.510  23.586  12.862
11111W        W72774  18.621  15.083  13.882
11112W        W72775   3.430  24.143  12.409
11113W        W72776  26.587  41.870   1.383
11114W        W72777   4.858  18.766   4.748
11115W        W72778  33.506  31.992   2.902
11116W        W72779   6.218  35.941   4.285
11117W        W72780  25.078  42.925   4.338
11118W        W72781  40.382  42.343  14.994
11119W        W72782   3.733  22.125   1.857
11120W        W72783  35.413  34.872  11.424
11121W        W72784  11.831  40.873  10.951
11122W        W72785  22.147  10.770   3.676
11123W        W72786  26.972   6.408   2.398
11124W        W72787  21.747  28.077  10.627
11125W        W72788   3.714  35.585   1.385
11126W        W72789  36.395  35.853   4.154
11127W        W72790  25.042  17.652   3.197
11128W        W72791  39.361   2.443  10.586
11129W        W72792  44.469  40.473   2.191
11130W        W72793  22.546  39.012  10.410
11131W        W72794  21.102  43.013  14.762
11132W        W72795  21.132  22.038   2.259
11133W        W72796  12.120  14.167  11.510
11134W        W72797  21.079  32.089  10.599
11135W        W72798  31.992  34.471  10.473
11136W        W72799   2.876   7.223  11.384
11137W        W72800  32.576  18.082  14.858
11138W        W72801  10.291  21.074   2.774
11139W        W72802  41.332  34.448   3.146
11140W        W72803  23.520  33.443  11.439
11141W        W72804  11.145  34.420  14.965
11142W        W72805  35.445  29.119   3.740
11143W        W72806  32.464  38.076   2.728
11144W        W72807  32.404  13.826  11.900
11145W        W72808  17.269  24.499  12.364
11146W        W72809  34.047  26.639   3.384
11147W        W72810  29.967  43.020   3.664
11148W        W72811   0.383  27.137   1.212
11149W        W72812   7.750  42.394  13.540
11150W        W72813  22.006  16.799  11.423
11151W        W72814  31.614  41.015  13.012
11152W        W72815   8.315  31.010  10.468
11153W        W72816  27.044   6.686   0.369
11154W        W72817   5.412   8.265  14.314
11155W        W72818  27.014  21.549  11.425
11156W        W72819  36.987  14.157  11.070
11157W        W72820  12.246  12.304  11.871
11158W        W72821  12.128  39.978  13.054
11159W        W72822  24.073   9.162   1.745
11160W        W72823  35.028  24.022  14.363
11161W        W72824  12.175  30.558   3.683
11162W        W72825  41.983  24.997   3.307
11163W        W72826  43.304  44.270  14.795
11164W        W72827   1.817  23.716   3.854
11165W        W72828  32.535   9.192  14.770
11166W        W72829  36.924  36.402  14.345
11167W        W72830  24.709  31.528  13.943
11168W        W72831  40.472  30.549   3.848
11169W        W72832  41.945  37.347   4.269
11170W        W72833  30.425  23.071  10.542
11171W        W72834  44.769  31.108  14.338
11172W        W72835  28.493   5.769  14.412
11173W        W72836  33.889  32.595  14.825
11174W        W72837  38.459  28.056   3.189
11175W        W72838  42.974  22.681  11.007
11176W        W72839   3.309   1.843  14.307
11177W        W72840  42.299  11.748   3.868
11178W        W72841   4.899   1.418  10.495
11179W        W72842  33.518  39.449   3.789
11180W        W72843  23.138  40.457  13.986
11181W        W72844   2.778  15.298   1.397
11182W        W72845  18.553  15.820  12.523
11183W        W72846   8.338  17.661  11.977
11184W        W72847  19.634  20.541   1.739
11185W        W72848  10.702  15.629  12.865
11186W        W72849  22.137   2.895  14.480
11187W        W72850  24.594   2.887  11.897
11188W        W72851  40.827  22.009   3.740
11189W        W72852  20.692  15.675  10.119
11190W        W72853  15.249  27.172  14.296
11191W        W72854  28.990  16.079   2.225
11192W        W72855  18.614  28.662  11.557
11193W        W72856   8.854  40.371  14.489
11194W        W72857  19.627  31.562  10.926
11195W        W72858  29.567  16.191  13.406
11196W        W72859  21.193   9.692  10.920
11197W        W72860  22.642  20.698   0.321
11198W        W72861  12.277  25.512   1.861
11199W        W72862  19.214  13.626   4.833
11200W        W72863   8.193  33.485  12.939
11201W        W72864  10.811  12.740  10.596
11202W        W72865  15.317  25.111  11.407
11203W        W72866   2.872  15.755  11.869
11204W        W72867  37.915  16.099  13.390
11205W        W72868  26.687  25.673   3.242
11206W        W72869  13.137  31.114  10.543
11207W        W72870  22.612  39.033   2.218
11208W        W72871  41.534  28.666   3.220
11209W        W72872  17.562  11.316  13.499
11210W        W72873  17.685  36.442   0.479
11211W        W72874  36.474  32.944   2.865
11212W        W72875  29.564  38.438   2.665
11213W        W72876   4.940   2.263  11.499
11214W        W72877  23.719  19.772  12.987
11215W        W72878  32.456  14.247  14.974
11216W        W72879  24.111  32.595  14.371
11217W        W72880   5.876  16.735  14.380
11218W        W72881  21.214  33.990  14.945
11219W        W72882  32.548  27.613  11.576
11220W        W72883  14.157  34.381  11.412
11221W        W72884  17.161  12.840  10.460
11222W        W72885  22.207  19.664  13.939
11223W        W72886   1.838  32.986  14.319
11224W        W72887   0.280  40.515  13.314
11225W        W72888  16.203  25.007  11.863
11226W        W72889  40.803  44.350  11.573
11227W        W72890  34.002  38.906  14.479
11228W        W72891  31.472  30.555   2.379
11229W        W72892  37.422  15.119   0.873
11230W        W72893   6.744  41.810   3.825
11231W        W72894  37.934  16.713   0.326
11232W        W72895   7.856  27.681  14.950
11233W        W72896  34.578   0.489  11.098
11234W        W72897  44.401  33.874  11.977
11235W        W72898  28.462  30.975  12.353
11236W        W72899  11.137  25.677   0.874
11237W        W72900  44.784   0.266   2.224
11238W        W72901  39.433  37.038   1.751
11239W        W72902  40.543  34.457   4.350
11240W        W72903  25.668   1.780   2.762
11241W        W72904  18.218  11.793  12.503
11242W        W72905  34.091  16.096  13.020
11243W        W72906   8.327  44.359   0.390
11244W        W72907  18.747  15.109  11.122
11245W        W72908   7.370  37.495   4.149
11246W        W72909  32.063  19.620  12.518
11247W        W72910  40.977  38.529  10.620
11248W        W72911   6.797  21.640   2.347
11249W        W72912   3.283   4.206   0.280
11250W        W72913   0.300  15.764   1.281
11251W        W72914  12.125  21.552  11.547
11252W        W72915  10.379  21.188  13.866
11253W        W72916  43.946  16.638   3.763
11254W        W72917  14.656  34.533  13.404
11255W        W72918  24.620  39.489  10.471
11256W        W72919   0.368  14.641   5.185
11257W        W72920  33.021  19.640   2.181
11258W        W72921  26.521  15.819  14.901
11259W        W72922  33.590  38.332   3.680
11260W        W72923   0.470   5.410  14.280
11261W        W72924  29.994  44.939  12.529
11262W        W72925  32.557  18.783   2.407
11263W        W72926  19.628  11.707  14.891
11264W        W72927  10.165  10.244   2.730
11265W        W72928  19.109  13.736   5.112
11266W        W72929  38.974  33.422  13.831
11267W        W72930  25.491  44.827   4.780
11268W        W72931  19.275   4.324   1.803
11269W        W72932  28.154   4.306  14.926
11270W        W72933  14.617  23.238  10.601
11271W        W72934  12.214  26.032   3.290
11272W        W72935  13.159  24.100  12.473
11273W        W72936  31.539  25.182   1.369
11274W        W72937  32.625  36.008   2.293
11275W        W72938  10.163  43.856   0.245
11276W        W72939  30.579  18.124  12.442
11277W        W72940  11.245   5.430  10.435
11278W        W72941  27.690  22.618  11.471
11279W        W72942  33.433  16.664  14.497
11280W        W72943  32.613  38.538  12.411
11281W        W72944  22.195   6.845   9.637
11282W        W72945   2.311  14.136  11.373
11283W        W72946  25.111  41.802  13.973
11284W        W72947  31.631   6.414   3.810
11285W        W72948  11.820   1.940  10.536
11286W        W72949  12.236  16.708  11.435
11287W        W72950  11.810  16.214  13.850
11288W        W72951  18.176  16.613   4.179
11289W        W72952  27.471  13.623  11.999
11290W        W72953   8.763  19.655   1.839
11291W        W72954  12.346  19.280   0.828
11292W        W72955  35.505  41.945   2.392
11293W        W72956  38.495   7.286   0.861
11294W        W72957  29.941  35.034  10.483
11295W        W72958  10.204  24.011  12.414
11296W        W72959  20.760  25.121  13.815
11297W        W72960  21.176  35.072  10.895
11298W        W72961  41.527  36.900   4.114
11299W        W72962   2.914  10.839  12.502
11300W        W72963   9.731  24.133   2.380
11301W        W72964   0.347  39.498  12.943
11302W        W72965  44.323  42.026  10.463
11303W        W72966  16.745  14.311  11.899
11304W        W72967  23.028  12.130   0.735
11305W        W72968  37.501  13.203  14.877
11306W        W72969  21.201   9.646  11.555
11307W        W72970   5.874  43.802   4.638
11308W        W72971  41.358   9.821  11.532
11309W        W72972  24.520  13.293   1.391
11310W        W72973  17.730   9.249  13.447
11311W        W72974  23.210  36.884  11.480
11312W        W72975  34.952  40.052   3.218
11313W        W72976  28.967  22.159   4.232
11314W        W72977  40.992   2.849  10.507
11315W        W72978  14.288  33.455  13.980
11316W        W72979  26.974  16.765  12.974
11317W        W72980   7.276  41.428  13.340
11318W        W72981  36.938  34.379   2.323
11319W        W72982  28.547   4.782  11.923
11320W        W72983  10.753  37.871   2.689
11321W        W72984  27.551  28.481  13.423
11322W        W72985  10.222  20.698   0.352
11323W        W72986   4.944  15.740  12.926
11324W        W72987  28.566  27.071   0.436
11325W        W72988  29.522  40.470   0.368
11326W        W72989  43.926  38.409  13.970
11327W        W72990  42.382  32.585   0.836
11328W        W72991  21.050  22.566  11.075
11329W        W72992   6.232   0.340  10.963
11330W        W72993  41.943  28.531   1.713
11331W        W72994  29.480  36.535   0.781
11332W        W72995  40.905  32.500  13.848
11333W        W72996  12.769  36.357  13.488
11334W        W72997   4.887  23.007   3.262
11335W        W72998   6.737   0.933   0.322
11336W        W72999   9.653   0.300   0.779
11337W        W73000  24.535  39.938   4.202
11338W        W73001  43.337  15.312  13.534
11339W        W73002  28.932  12.278   4.651
11340W        W73003  17.667   8.326   1.433
11341W        W73004  36.564   4.324   3.655
11342W        W73005  14.232  42.853   0.834
11343W        W73006  39.538  30.109  14.460
11344W        W73007  33.102   3.765  12.532
11345W        W73008  42.397  43.946   4.654
11346W        W73009  19.659   0.858  14.004
11347W        W73010  26.677   5.314   3.337
11348W        W73011  42.478   3.875  11.057
11349W        W73012  42.297  26.060   0.759
11350W        W73013  29.018   3.444  12.574
11351W        W73014  44.350  27.522   4.633
11352W        W73015  33.448   5.376  12.917
11353W        W73016  31.489  20.698  11.962
11354W        W73017  13.249  38.381  11.895
11355W        W73018   6.210  23.049   3.685
11356W        W73019  10.782  12.762  11.918
11357W        W73020  44.891  10.825   3.719
11358W        W73021  42.319  38.999  12.458
11359W        W73022  16.749  35.885  10.607
11360W        W73023  14.757  39.060   2.748
11361W        W73024   4.807   6.751  13.450
11362W        W73025  18.564   7.862   4.625
11363W        W73026  38.888  25.965   3.726
11364W        W73027  22.557   9.827   3.672
11365W        W73028  13.728  13.700  13.030
11366W        W73029  16.757  15.608   2.674
11367W        W73030  10.225  31.567  13.840
11368W        W73031  24.025  39.519  14.917
11369W        W73032  19.060  44.443  12.516
11370W        W73033  37.945  15.219  14.314
11371W        W73034  15.235  18.121  11.065
11372W        W73035  28.954  23.708  10.564
11373W        W73036  44.261  24.005   0.883
11374W        W73037  25.586  13.619  11.460
11375W        W73038  10.329  25.585   1.221
11376W        W73039  44.963   6.413   2.381
11377W        W73040  27.950  12.346   2.348
11378W        W73041  18.250  23.088   4.727
11379W        W73042  29.601  17.103   3.327
11380W        W73043  36.946  16.781  13.036
11381W        W73044  20.247   9.738  14.783
11382W        W73045  32.002  30.920  10.627
11383W        W73046  14.181  21.238   4.649
11384W        W73047  44.497  34.502  13.487
11385W        W73048   8.322   7.285  13.490
11386W        W73049  10.803  36.353  12.492
11387W        W73050  12.821  27.459  12.046
11388W        W73051  18.739  10.169   5.220
11389W        W73052  25.617  33.519   4.346
11390W        W73053  37.353  10.339   0.243
11391W        W73054  31.620  16.097   2.317
11392W        W73055  34.405   8.306   4.172
11393W        W73056  38.044   1.446   1.413
11394W        W73057  17.638   7.875  13.032
11395W        W73058   4.244   9.704  11.465
11396W        W73059  41.394  27.096  14.865
11397W        W73060  25.964   7.175  12.924
11398W        W73061  34.936  17.631   2.704
11399W        W73062  34.112   7.363  14.925
11400W        W73063  42.306  13.283  10.935
11401W        W73064  33.998  22.669  13.037
11402W        W73065  38.418  11.303   2.801
11403W        W73066  27.998  24.717   0.355
11404W        W73067  18.712  39.395  11.906
11405W        W73068   2.882  13.678  12.064
11406W        W73069  37.070  38.491  14.821
11407W        W73070  20.684  32.542   4.281
11408W        W73071   1.383  25.524   2.371
11409W        W73072  14.299  32.515   0.465
11410W        W73073  10.183  44.919  14.008
11411W        W73074  25.550  39.019   0.804
11412W        W73075   5.889   9.270   0.774
11413W        W73076   0.293  19.200   4.143
11414W        W73077  25.185  41.824  12.400
11415W        W73078  38.061  15.304   4.138
11416W        W73079   9.192  15.596   4.126
11417W        W73080  39.897  33.424   4.662
11418W        W73081  15.614   8.753   1.294
11419W        W73082  38.026  17.151  14.951
11420W        W73083  27.450  23.669   1.758
11421W        W73084  26.499  37.918   5.154
11422W        W73085   4.875   3.284   4.788
11423W        W73086  32.018  30.573  13.861
11424W        W73087  39.987  36.985   0.830
11425W        W73088  41.489  12.301   9.661
11426W        W73089  37.931   4.710  14.895
11427W        W73090  43.812  44.318   1.391
11428W        W73091  34.049   3.835   1.885
11429W        W73092  31.021  41.497   4.630
11430W        W73093  17.143  26.016   0.315
11431W        W73094  10.841  22.743  11.124
11432W        W73095  42.925   9.152   4.749
11433W        W73096  12.744  21.533   1.872
11434W        W73097  19.627  13.129  12.513
11435W        W73098   9.153  35.445  13.316
11436W        W73099  24.157   1.755  13.318
11437W        W73100   5.438  25.185  13.948
11438W        W73101  37.989  37.957  13.863
11439W        W73102  42.507  15.798   0.727
11440W        W73103  27.112  23.995   0.405
11441W        W73104   4.362  28.936  10.903
11442W        W73105   3.393  12.680  11.964
11443W        W73106  19.246   9.164  14.946
11444W        W73107  29.923  41.331  12.498
11445W        W73108  11.632  13.123   0.966
11446W        W73109  12.732  15.173   2.193
11447W        W73110  38.398   4.901  10.945
11448W        W73111   4.380   4.270   3.824
11449W        W73112  25.052  29.613  13.028
11450W        W73113  28.959  32.001   0.952
11451W        W73114  43.314  16.610   2.860
11452W        W73115  18.194  26.654  10.913
11453W        W73116   1.415  32.392   1.764
11454W        W73117  17.299  19.207   1.898
11455W        W73118  37.845  31.489   4.687
11456W        W73119  26.014  43.325  10.407
11457W        W73120   9.309  34.543   2.758
11458W        W73121  20.265  14.297   0.911
11459W        W73122  41.519   6.912   2.859
11460W        W73123  15.147  23.157   1.825
11461W        W73124  23.130   8.287  10.639
11462W        W73125  32.925  40.497   2.854
11463W        W73126  38.906  26.546  12.945
11464W        W73127  36.554  33.891   2.891
11465W        W73128  19.266  28.037  11.106
11466W        W73129  14.282   5.214   1.299
11467W        W73130   9.777  43.886  11.567
11468W        W73131   8.294  25.985   1.275
11469W        W73132  44.474  19.120  10.136
11470W        W73133  31.568  41.936   4.814
11471W        W73134  22.063  39.825   2.759
11472W        W73135  28.143  32.493   3.307
11473W        W73136  31.065  37.448  14.424
11474W        W73137  32.560  40.000   4.599
11475W        W73138  19.110   6.894  12.470
11476W        W73139   6.864  21.048   0.925
11477W        W73140  30.983   1.953   3.199
11478W        W73141  31.638  40.458   1.325
11479W        W73142  33.417  10.268  11.936
11480W        W73143  36.593  29.501  13.364
11481W        W73144   8.251   7.368  14.832
11482W        W73145   5.198  32.469  13.922
11483W        W73146  24.081   8.256   0.402
11484W        W73147  37.379  19.638   1.743
11485W        W73148  19.181  44.000   3.217
11486W        W73149   2.723  32.500  12.989
11487W        W73150  25.012  36.909   1.896
11488W        W73151  34.930  15.637  11.461
11489W        W73152  33.076  28.457  11.052
11490W        W73153  13.173  17.627   0.243
11491W        W73154  35.524   8.677   9.570
11492W        W73155  17.178  34.036  14.410
11493W        W73156   4.899  37.900  12.910
11494W        W73157  32.485  14.163   4.685
11495W        W73158  43.400  21.093   2.286
11496W        W73159   2.902  19.162  12.394
11497W        W73160   5.324  44.795  10.943
11498W        W73161  25.534  20.718   0.933
11499W        W73162   4.372  16.167  12.040
11500W        W73163  29.666  39.395  11.985
11501W        W73164   1.746  10.858  14.965
11502W        W73165  39.410  22.538   1.443
11503W        W73166   6.739  23.526   1.834
11504W        W73167  29.441   7.329   1.935
11505W        W73168  43.438   5.701   1.790
11506W        W73169  18.708   8.735   1.318
11507W        W73170  26.191   4.795  10.040
11508W        W73171  12.144  20.080  11.892
11509W        W73172  31.435   4.880  11.984
11510W        W73173  27.043  35.903  10.532
11511W        W73174  33.451  28.439   0.925
11512W        W73175   0.489  11.188  11.015
11513W        W73176  41.806   4.706  10.413
11514W        W73177  41.347  16.736  13.841
11515W        W73178   8.396  28.110   0.898
11516W        W73179  21.134  40.331   1.334
11517W        W73180   3.418  14.313   9.947
11518W        W73181  16.103  43.316  10.954
11519W        W73182  26.654  27.508  11.931
11520W        W73183  42.776  13.349   2.243
11521W        W73184  30.608  27.637  14.508
11522W        W73185  21.597  24.072   3.275
11523W        W73186  20.759  37.960  10.972
11524W        W73187   0.762  19.617   0.312
11525W        W73188  18.664   3.255  10.084
11526W        W73189  17.683  23.717  13.828
11527W        W73190   7.706   9.730   0.765
11528W        W73191  13.820   2.768  12.077
11529W        W73192   4.349  20.236   1.927
11530W        W73193  13.114   2.402   2.830
11531W        W73194   8.804   4.215   3.383
11532W        W73195  37.080  29.998  13.310
11533W        W73196   2.771  44.971  13.914
11534W        W73197  33.598  35.511  14.497
11535W        W73198   1.423   4.294   4.707
11536W        W73199  37.347  40.799   1.222
11537W        W73200  20.063   5.749   1.250
11538W        W73201   0.899  28.002   0.323
11539W        W73202  22.645  22.587  14.311
11540W        W73203  38.900  25.506  11.386
11541W        W73204  42.991  12.613   3.300
11542W        W73205  20.083  10.752  12.545
11543W        W73206  44.762  13.302   4.713
11544W        W73207  16.257  27.031  14.859
11545W        W73208  18.683  19.163  12.471
11546W        W73209  24.100  36.442   3.785
11547W        W73210  13.303  42.033   0.898
11548W        W73211  11.251  27.044  12.897
11549W        W73212  11.793  32.458   0.833
11550W        W73213  43.996  34.907  11.003
11551W        W73214  42.872  13.632   0.807
11552W        W73215   3.318  35.049  13.956
11553W        W73216   3.257  42.485  12.969
11554W        W73217  13.199   7.287  11.445
11555W        W73218  23.553  37.912  10.578
11556W        W73219  42.403  30.533   3.852
11557W        W73220  12.767  28.065  13.329
11558W        W73221  43.885  39.942  10.477
11559W        W73222  31.903  39.968   2.826
11560W        W73223  39.040   9.724   2.675
11561W        W73224   1.875  16.251   3.692
11562W        W73225  25.668  10.781   1.850
11563W        W73226  35.867  17.559  14.787
11564W        W73227   1.820   0.918   0.477
11565W        W73228  15.757  31.141   2.398
11566W        W73229  11.228  40.892  11.498
11567W        W73230  25.052  14.767  14.347
11568W        W73231  12.816  12.766  14.502
11569W        W73232  27.639   5.402   3.853
11570W        W73233  16.257   6.361   1.853
11571W        W73234   5.920  11.698   1.828
11572W        W73235   6.359  44.335  12.838
11573W        W73236  11.312   4.796  13.034
11574W        W73237  35.467  11.839  11.115
11575W        W73238  15.281  15.144  10.545
11576W        W73239  40.896   9.159   2.402
11577W        W73240  39.003  33.496   2.289
11578W        W73241  36.904   5.828   3.804
11579W        W73242  43.508   0.894   4.196
11580W        W73243  43.310  21.080   5.142
11581W        W73244  23.095  24.571  12.374
11582W        W73245   4.350  13.775   0.938
11583W        W73246   6.908   3.816   1.889
11584W        W73247  39.036  36.526   4.301
11585W        W73248  32.134  15.585   3.751
11586W        W73249   8.160   2.426   0.400
11587W        W73250  39.993  18.248  12.534
11588W        W73251   1.419  34.863   0.254
11589W        W73252  34.945   8.196  12.079
11590W        W73253  43.499   4.228  14.397
11591W        W73254  16.588  42.493  14.835
11592W        W73255   7.183  29.635  10.641
11593W        W73256  23.632  39.047  11.469
11594W        W73257  20.226   2.798  12.504
11595W        W73258  22.243  12.348  13.335
11596W        W73259   6.402   6.310  14.839
11597W        W73260  18.135  16.278  11.868
11598W        W73261  18.253  26.177   0.748
11599W        W73262   4.215  30.497   0.478
11600W        W73263  11.867  29.481   2.332
11601W        W73264  32.973  11.756  13.469
11602W        W73265   7.774  19.648  10.542
11603W        W73266  36.356  28.485   2.774
11604W        W73267  35.939  21.063   2.857
11605W        W73268  21.692   0.351  11.477
11606W        W73269   1.975  41.975  11.475
11607W        W73270  19.079  11.311  11.956
11608W        W73271  44.493  16.164   1.390
11609W        W73272  24.627  22.034  11.940
11610W        W73273   1.423  37.935  13.876
11611W        W73274  17.090  42.400   1.788
11612W        W73275   5.418  29.647   0.271
11613W        W73276  29.643  14.150  10.913
11614W        W73277  10.742   3.405   0.416
11615W        W73278   5.381  11.628  11.612
11616W        W73279   1.350  40.316   2.818
11617W        W73280  37.375  23.553   0.358
11618W        W73281   5.328  43.453   3.369
11619W        W73282  25.572  37.478  12.469
11620W        W73283   4.825  24.479   4.165
11621W        W73284  16.150  38.947  11.439
11622W        W73285   9.240   5.212   1.355
11623W        W73286   4.778  37.403  13.794
11624W        W73287   9.152  24.184  10.408
11625W        W73288  16.136   0.351  10.481
11626W        W73289  18.729  18.224   4.288
11627W        W73290   8.339  44.271  12.510
11628W        W73291  22.743  36.548   4.700
11629W        W73292  31.427  17.757  10.895
11630W        W73293  29.604  40.805   4.222
11631W        W73294  36.379  25.484  13.389
11632W        W73295  41.822  25.016   0.329
11633W        W73296  36.928  42.430  10.915
11634W        W73297  18.764  35.028   0.841
11635W        W73298  20.194  28.037  11.857
11636W        W73299   8.267   1.746   4.332
11637W        W73300  12.647  15.227  11.863
11638W        W73301  44.883   4.933   4.338
11639W        W73302  39.825   6.209   1.907
11640W        W73303  16.255  22.711  10.949
11641W        W73304   8.783  17.589  13.026
11642W        W73305   2.248  38.837  13.417
11643W        W73306  31.032  28.676  14.319
11644W        W73307  40.506  23.203  12.440
11645W        W73308  39.533  10.256   0.739
11646W        W73309  32.102  35.018  13.534
11647W        W73310  10.855  31.607  11.554
11648W        W73311  27.977  15.325  14.765
11649W        W73312  27.946  41.032   3.334
11650W        W73313  37.958  42.390   3.665
11651W        W73314  40.891  41.968  10.525
11652W        W73315  29.450  22.235  10.626
11653W        W73316  33.568  37.413  12.342
11654W        W73317  31.644  24.582   2.726
11655W        W73318  12.182  20.616  12.888
11656W        W73319  17.099  18.267  14.928
11657W        W73320  22.995  14.102  13.061
11658W        W73321  26.676  41.849   1.896
11659W        W73322  29.521   0.836   2.835
11660W        W73323  23.583   2.308  12.061
11661W        W73324  37.575  12.681  12.430
11662W        W73325  17.644   6.835  14.859
11663W        W73326  17.650  20.253  14.813
11664W        W73327   6.718  24.531  10.926
11665W        W73328  29.619  29.615   0.919
11666W        W73329  24.657   4.868  12.032
11667W        W73330  32.020   4.911  13.507
11668W        W73331  17.143  24.063   2.876
11669W        W73332  44.873   2.428   2.190
11670W        W73333  36.566   0.809  10.475
11671W        W73334  38.325  13.747  10.525
11672W        W73335   7.865  39.828   0.356
11673W        W73336  19.780  37.354  14.847
11674W        W73337  39.481  10.722  11.442
11675W        W73338  23.022  13.633   2.365
11676W        W73339   0.316  33.890   4.815
11677W        W73340  27.085  44.488  11.117
11678W        W73341  12.181  15.753  11.094
11679W        W73342  38.485  12.209  11.504
11680W        W73343  16.179   7.787   3.349
11681W        W73344  34.567  28.660  10.562
11682W        W73345  29.483  14.596  11.981
11683W        W73346  27.190  15.781  11.416
11684W        W73347   3.816  41.854   3.272
11685W        W73348  22.144   0.416   9.547
11686W        W73349  40.879   7.319  14.827
11687W        W73350   7.702  16.100   2.310
11688W        W73351  13.194  23.620  14.862
11689W        W73352  37.561  38.458  12.942
11690W        W73353  33.556  41.318   4.747
11691W        W73354  26.171   8.896  13.829
11692W        W73355  31.152  25.475   4.745
11693W        W73356  10.264  43.900   9.936
11694W        W73357  13.330   1.768  10.087
11695W        W73358  34.055  30.947   3.629
11696W        W73359  36.073   4.793   0.780
11697W        W73360  30.907  40.532   5.176
11698W        W73361  34.868  38.388  12.933
11699W        W73362  10.820  27.445   0.268
11700W        W73363  10.344  15.767   1.400
11701W        W73364  14.281  44.470   5.167
11702W        W73365  28.111  17.568  12.907
11703W        W73366  35.548  11.682  14.491
11704W        W73367  16.608   8.249  11.423
11705W        W73368  42.448  43.348  11.909
11706W        W73369   6.725  22.723  14.414
11707W        W73370  27.652  13.667   2.225
11708W        W73371  28.012  22.170   3.829
11709W        W73372   1.795  43.005   4.745
11710W        W73373  34.003  38.376   4.782
11711W        W73374  19.135   6.238  10.940
11712W        W73375   1.767  17.675   3.165
11713W        W73376  11.636  40.015  13.792
11714W        W73377  21.694  30.107   3.870
11715W        W73378  24.976  34.377   3.629
11716W        W73379  29.606  37.895   1.815
11717W        W73380   1.437  15.120   2.794
11718W        W73381  32.014  37.396   2.846
11719W        W73382   6.221   4.281  13.315
11720W        W73383  39.337   0.324  11.029
11721W        W73384  22.131  18.164  10.991
11722W        W73385  35.895   4.232  11.096
11723W        W73386  44.775   9.703   3.856
11724W        W73387  20.568  23.567   3.791
11725W        W73388   3.277  24.986   3.169
11726W        W73389  11.353   5.839  13.338
11727W        W73390  41.964   7.838   0.862
11728W        W73391  34.489  33.562  14.916
11729W        W73392  26.996  34.925   2.407
11730W        W73393  24.068  32.969  11.888
11731W        W73394  19.170  33.527  14.020
11732W        W73395   0.463  41.003  14.896
11733W        W73396  39.477  28.082  14.433
11734W        W73397   4.897  40.933   4.773
11735W        W73398  11.213  42.916  13.871
11736W        W73399  21.641  33.521  10.475
11737W        W73400  36.507  23.153  11.939
11738W        W73401  39.861  35.993  14.030
11739W        W73402  36.844  18.631  11.111
11740W        W73403  42.357  31.145   4.669
11741W        W73404   6.784  25.696  14.446
11742W        W73405  19.566  15.603  12.021
11743W        W73406   7.362  28.633   3.282
11744W        W73407  37.935   4.438   2.188
11745W        W73408  20.154   7.692  11.938
11746W        W73409  43.305  34.893   2.675
11747W        W73410   3.438  37.429   2.824
11748W        W73411   8.176  44.323   4.195
11749W        W73412  24.992  44.289  11.996
11750W        W73413  28.681   5.754   4.292
11751W        W73414  44.313  18.104   0.772
11752W        W73415   6.863  29.003   0.331
11753W        W73416  40.346  27.542   1.408
11754W        W73417  32.408  16.163  11.994
11755W        W73418  37.445   3.295  13.493
11756W        W73419  20.569  40.313   3.296
11757W        W73420  36.021  39.488   1.905
11758W        W73421  27.942  33.434   0.862
11759W        W73422  13.631  13.689   0.473
11760W        W73423  12.218   3.910   0.954
11761W        W73424  19.284  16.575  12.476
11762W        W73425  37.055  25.706   4.767
11763W        W73426  18.755  26.135   3.162
11764W        W73427  15.328  12.786  14.808
11765W        W73428  38.011   3.792  14.902
11766W        W73429  42.928  32.634   0.477
11767W        W73430  33.503   9.297   0.891
11768W        W73431  11.288  33.029   2.310
11769W        W73432  42.456   3.758  13.501
11770W        W73433  27.190   7.847   3.678
11771W        W73434  15.769   3.804   1.362
11772W        W73435  23.652  14.711  10.410
11773W        W73436  14.664   5.267   4.259
11774W        W73437  23.622  30.023   1.903
11775W        W73438   0.434  42.002   0.926
11776W        W73439  17.148  33.939   0.273
11777W        W73440  13.630  17.145   4.801
11778W        W73441  35.979   3.420   5.090
11779W        W73442  27.449   5.252   0.429
11780W        W73443  27.172   6.807   3.839
11781W        W73444   4.848  27.166   4.765
11782W        W73445  16.808  37.561  11.079
11783W        W73446  13.109  42.367  10.952
11784W        W73447   4.371  41.345  10.496
11785W        W73448  12.612  26.981  10.447
11786W        W73449  37.975  20.748  12.440
11787W        W73450   1.239  43.021  12.830
11788W        W73451   1.783  40.856   1.809
11789W        W73452   5.845  44.832  14.372
11790W        W73453  26.573  43.780  10.939
11791W        W73454  32.052  34.017  10.530
11792W        W73455  39.051   5.727   3.297
11793W        W73456  29.972   7.721   3.761
11794W        W73457  24.131   8.222  11.446
11795W        W73458  12.772  38.952   0.959
11796W        W73459  29.994  43.330  12.515
11797W        W73460   6.360   1.429   3.757
11798W        W73461  29.551   0.297   0.345
11799W        W73462   1.329  28.626  11.908
11800W        W73463  25.985  38.053   4.719
11801W        W73464  31.515  30.103   2.758
11802W        W73465  20.736  24.676  12.579
11803W        W73466   2.443  24.208   1.754
11804W        W73467   7.709  24.616  10.504
11805W        W73468  24.538  23.556   0.350
11806W        W73469   6.902   8.830  13.458
11807W        W73470  40.858  33.882  11.524
11808W        W73471  26.567  13.818  13.548
11809W        W73472  19.262  38.057  14.383
11810W        W73473  44.371  44.336   4.762
11811W        W73474  37.856  21.061  10.412
11812W        W73475  21.080   2.374   5.282
11813W        W73476  21.736  13.742   1.238
11814W        W73477  40.312  27.558  13.949
11815W        W73478  18.720  23.515   0.896
11816W        W73479  28.581  40.828  11.940
11817W        W73480  28.025  34.522  10.616
11818W        W73481  15.234   0.784   3.650
11819W        W73482  35.043   1.474  11.876
11820W        W73483  21.738  16.075   0.828
11821W        W73484   0.984  18.262  11.102
11822W        W73485  30.546  23.228  14.820
11823W        W73486  39.941  14.741   1.708
11824W        W73487  33.624  35.022  12.398
11825W        W73488  14.250  29.464  10.568
11826W        W73489  12.637   2.296   3.715
11827W        W73490   8.186  15.227  14.412
11828W        W73491  12.265   1.835   1.440
11829W        W73492  23.577  26.698   3.182
11830W        W73493  24.114   5.829   9.954
11831W        W73494  19.173  19.581  10.966
11832W        W73495  17.142  11.189  11.058
11833W        W73496  22.600  21.020   5.144
11834W        W73497  16.762  38.065   2.791
11835W        W73498  24.037  35.964  13.858
11836W        W73499  35.498  27.462  14.910
11837W        W73500   3.779  37.423   2.715
11838W        W73501  40.503  22.610  11.565
11839W        W73502  28.071  28.527  13.936
11840W        W73503  36.061  19.210  13.395
11841W        W73504   9.868  19.144  11.980
11842W        W73505  30.144  19.165   2.902
11843W        W73506   7.883   8.214  11.376
11844W        W73507  28.098  11.810   4.776
11845W        W73508  24.186  33.538  14.410
11846W        W73509  32.964  19.097  11.955
11847W        W73510   7.390   9.221   0.291
11848W        W73511  25.074  37.020   4.240
11849W        W73512   3.377  39.932  12.427
11850W        W73513  31.966  19.166   1.836
11851W        W73514  16.089  26.571   2.379
11852W        W73515  25.033  11.208  11.902
11853W        W73516  21.141   6.341  13.009
11854W        W73517  44.495   0.785   5.155
11855W        W73518  22.612  40.838   3.201
11856W        W73519  34.008  34.374   2.271
11857W        W73520   8.813  41.969  12.431
11858W        W73521  28.658  23.236   2.729
11859W        W73522  24.647  13.341   2.390
11860W        W73523  33.991   9.385   0.322
11861W        W73524  39.520  14.671  14.848
11862W        W73525  25.164  38.542  14.421
11863W        W73526  14.703  24.528   4.225
11864W        W73527   7.797  19.049   1.871
11865W        W73528  17.240  23.576  12.414
11866W        W73529  41.380  38.513   4.647
11867W        W73530  40.053   7.746  11.939
11868W        W73531  18.646  14.650   3.768
11869W        W73532  12.238  13.245  11.516
11870W        W73533  29.126  10.845   0.881
11871W        W73534  36.464   5.746   1.700
11872W        W73535  36.566  31.927   3.247
11873W        W73536   5.292  17.093   0.269
11874W        W73537  31.992   6.763   5.761
11875W        W73538  17.278   0.369  12.367
11876W        W73539   9.707  26.169   1.830
11877W        W73540   8.276  23.716  14.505
11878W        W73541   8.344   7.401  11.491
11879W        W73542  39.951  23.023   3.800
11880W        W73543  39.971  29.135   0.258
11881W        W73544  10.655  21.736  12.063
11882W        W73545  12.222  31.114   3.377
11883W        W73546  23.561  26.132   2.256
11884W        W73547  23.527   6.298   5.180
11885W        W73548  38.568  36.009   4.631
11886W        W73549  10.329  12.217  14.952
11887W        W73550  27.089   1.329   2.755
11888W        W73551  35.007  22.674   0.265
11889W        W73552  25.186  12.328  11.467
11890W        W73553  37.869  15.821   1.327
11891W        W73554   6.356  39.032  13.926
11892W        W73555  44.281   4.867   1.433
11893W        W73556   7.841   9.267   4.640
11894W        W73557   1.472  34.509   4.198
11895W        W73558  15.148  36.086   5.173
11896W        W73559  33.620  44.915   1.319
11897W        W73560   6.819  31.508  14.303
11898W        W73561  18.599  35.970   0.354
11899W        W73562  36.032   5.876  12.027
11900W        W73563  38.067  23.618  11.954
11901W        W73564   7.781  19.658  14.877
11902W        W73565  42.516  40.445  14.342
11903W        W73566   9.712   4.879   1.892
11904W        W73567   5.373  29.585  12.445
11905W        W73568  20.662  33.420  10.626
11906W        W73569  19.181  21.070   0.274
11907W        W73570  41.458   4.323   4.176
11908W        W73571  32.132  19.697   4.624
11909W        W73572  12.736  36.953  13.520
11910W        W73573  20.541  13.184  12.903
11911W        W73574  18.599  32.968  10.508
11912W        W73575  27.561  30.932   0.319
11913W        W73576  23.713  22.647  13.345
11914W        W73577  20.182  34.437   4.302
11915W        W73578  44.905  40.944   2.187
11916W        W73579  11.794  30.955  14.989
11917W        W73580   6.422  32.953   1.225
11918W        W73581  31.132   2.436   3.748
11919W        W73582   7.366   8.220  12.534
11920W        W73583   9.241  17.659   4.812
11921W        W73584  10.808  41.296  14.945
11922W        W73585  30.491  15.597  13.941
11923W        W73586   8.763  10.292   0.765
11924W        W73587  27.598  37.954  12.862
11925W        W73588  40.380   9.765  10.902
11926W        W73589  38.453  16.275  12.965
11927W        W73590  43.919   8.767   2.751
11928W        W73591  40.521  41.904   1.875
11929W        W73592  43.441   5.832  14.320
11930W        W73593  10.378  41.364  10.918
11931W        W73594  31.024  16.195  11.435
11932W        W73595  16.660   4.712  11.962
11933W        W73596  15.310  44.435   1.717
11934W        W73597   4.719  31.991   4.823
11935W        W73598  19.069  31.078  14.355
11936W        W73599  33.447  42.302   4.772
11937W        W73600  14.813  32.014   0.271
11938W        W73601   9.770  23.591   3.221
11939W        W73602   8.806  33.452   2.897
11940W        W73603  25.487  16.623  11.503
11941W        W73604  24.030   8.727  10.491
11942W        W73605  25.184   1.266   4.254
11943W        W73606  14.238  26.510   2.358
11944W        W73607  37.073  40.337  14.889
11945W        W73608   1.426  37.336   1.358
11946W        W73609  20.557  32.440  12.940
11947W        W73610   2.376   3.867   3.801
11948W        W73611  32.910   6.699  13.519
11949W        W73612   3.264   7.351  11.108
11950W        W73613   5.695  24.599   1.330
11951W        W73614  11.828  39.496  13.860
11952W        W73615  19.556   0.412   4.716
11953W        W73616  41.416  33.416  13.831
11954W        W73617  24.508  29.490  13.977
11955W        W73618  44.829  33.500  10.960
11956W        W73619  41.520  12.733  13.456
11957W        W73620  34.385  41.391  10.521
11958W        W73621  19.667   1.850   9.939
11959W        W73622  37.082  26.001  13.804
11960W        W73623  15.143  34.386  13.525
11961W        W73624  19.072   4.801   2.270
11962W        W73625  36.537  22.600  10.030
11963W        W73626  42.405  36.850   2.352
11964W        W73627  31.572   3.371  14.912
11965W        W73628  31.969  15.211  14.016
11966W        W73629  32.098  10.702  12.464
11967W        W73630   8.284  14.116  12.067
11968W        W73631   4.911   6.208   4.598
11969W        W73632  44.793  18.085  11.471
11970W        W73633  18.724   8.697  14.838
11971W        W73634   8.873  32.890  13.863
11972W        W73635  16.627  33.962  11.952
11973W        W73636  25.069  41.906   1.352
11974W        W73637  27.569  10.328   1.311
11975W        W73638  21.638  22.746   0.807
11976W        W73639  27.521  16.805  14.001
11977W        W73640  16.251  28.634  11.487
11978W        W73641  42.368  19.733   0.421
11979W        W73642  24.490  18.272  12.407
11980W        W73643  25.537  41.335  12.433
11981W        W73644  31.441  33.946   1.250
11982W        W73645  28.487  22.112   3.664
11983W        W73646  23.089  33.059  10.483
11984W        W73647  27.076  16.689   2.846
11985W        W73648  15.674   8.834  14.315
11986W        W73649  29.103  12.234  10.504
11987W        W73650  12.824  32.015   0.909
11988W        W73651  32.582   8.774  12.472
11989W        W73652  41.929  14.798   0.309
11990W        W73653  44.448   1.473  12.006
11991W        W73654  19.252  15.594  11.959
11992W        W73655  34.014  37.033  10.495
11993W        W73656  21.255   5.746   1.864
11994W        W73657  20.579  33.385  11.079
11995W        W73658  10.831   1.475   1.348
11996W        W73659  29.935  34.078  12.079
11997W        W73660  43.354  23.661   0.729
11998W        W73661  44.776  39.893   3.655
11999W        W73662   3.890  18.170  12.407
12000W        W73663  23.575  20.143   3.801
12001W        W73664   5.756  26.556  12.975
12002W        W73665  34.595  19.048  14.515
12003W        W73666  17.266  13.213  10.574
12004W        W73667  24.035  22.122   0.424
12005W        W73668  25.561   3.914   2.902
12006W        W73669  14.323  43.339  13.031
12007W        W73670   4.816  23.720  14.758
12008W        W73671  31.124  27.453  11.492
12009W        W73672   4.849  41.303   2.745
12010W        W73673   4.279  41.928  11.068
12011W        W73674  30.093  39.971   5.190
12012W        W73675   3.364  28.511   3.772
12013W        W73676  38.828  21.554  12.884
12014W        W73677  37.487  37.506  11.926
12015W        W73678   9.806  41.876  12.520
12016W        W73679  25.684  33.042   2.264
12017W        W73680   9.720  36.064  10.455
12018W        W73681  43.879  10.703  10.887
12019W        W73682  31.572   8.690   2.831
12020W        W73683  17.074  44.989  11.022
12021W        W73684  32.956   6.818  12.526
12022W        W73685  15.182  33.424   4.251
12023W        W73686  29.049  27.160  12.508
12024W        W73687  42.454  40.916  10.595
12025W        W73688  43.407   6.840  12.406
12026W        W73689   2.230  41.830  13.927
12027W        W73690  40.813   3.795  12.397
12028W        W73691   9.797  28.536   1.836
12029W        W73692  29.468  18.612   2.777
12030W        W73693  11.216  15.145  12.353
12031W        W73694  25.552   2.923   0.397
12032W        W73695  39.810  32.633   1.267
12033W        W73696   4.879  43.311   2.762
12034W        W73697  20.597   7.314   4.657
12035W        W73698   9.159  43.019   4.679
12036W        W73699  17.177  29.508  10.639
12037W        W73700  44.920   1.365   2.790
12038W        W73701  19.758  16.704  12.367
12039W        W73702  10.196  33.052   3.713
12040W        W73703  43.366   3.323   2.347
12041W        W73704  13.846  10.212   0.475
12042W        W73705  37.971  41.327   4.604
12043W        W73706  16.579  27.461   1.751
12044W        W73707  20.577  29.030   4.309
12045W        W73708  19.263  19.574   2.298
12046W        W73709   5.930  22.576  12.475
12047W        W73710  15.253   3.836   1.745
12048W        W73711   4.393  37.473  13.046
12049W        W73712  14.796  33.619   4.656
12050W        W73713  10.333   7.242  13.933
12051W        W73714  23.678  35.427   4.800
12052W        W73715  24.509  16.708  12.827
12053W        W73716  32.614  20.251  12.364
12054W        W73717  23.728  35.970  11.952
12055W        W73718  25.996  38.477   0.943
12056W        W73719  36.986  38.862  12.912
12057W        W73720  35.027  24.090  14.965
12058W        W73721  16.699  21.195   2.241
12059W        W73722  15.790   7.323   0.300
12060W        W73723   3.929  36.864   3.244
12061W        W73724  16.096  36.849   2.299
12062W        W73725  42.839  25.678   1.285
12063W        W73726  28.171  41.859   0.880
12064W        W73727  24.128  20.160  13.387
12065W        W73728   1.425  36.914   0.919
12066W        W73729  39.876  31.407   4.723
12067W        W73730  39.060  43.951   1.740
12068W        W73731  18.183  22.735   0.753
12069W        W73732  31.635  19.553   4.811
12070W        W73733   8.215   6.236  13.958
12071W        W73734   6.740  40.355   1.420
12072W        W73735  34.075  10.834   0.863
12073W        W73736  40.959  42.953   0.423
12074W        W73737  24.578  22.058   2.682
12075W        W73738  28.057  14.266   4.283
12076W        W73739   1.421  25.573  14.299
12077W        W73740   3.247  23.544   2.885
12078W        W73741  40.365  10.277  12.485
12079W        W73742  26.128  13.606   2.211
12080W        W73743  35.532   3.349   1.745
12081W        W73744   8.328  13.728   2.349
12082W        W73745  42.423  44.804  13.525
12083W        W73746  42.978  33.434   5.160
12084W        W73747  43.340   7.383   2.302
12085W        W73748  20.037  35.510   2.362
12086W        W73749  33.919  42.789  11.079
12087W        W73750  24.649   8.333  12.986
12088W        W73751   5.875  42.850   2.366
12089W        W73752  20.042  31.121   4.702
12090W        W73753   7.839  34.563   0.456
12091W        W73754  40.304   1.373   3.745
12092W        W73755  40.967  42.994   5.276
12093W        W73756  39.469   4.832  14.330
12094W        W73757  35.874  21.047  14.378
12095W        W73758  25.501  21.154  12.557
12096W        W73759  44.866   2.932  10.532
12097W        W73760  36.081  37.391   4.295
12098W        W73761  20.684  42.398  10.433
12099W        W73762  24.229   8.245   3.633
12100W        W73763  35.962  31.152  10.434
12101W        W73764  41.797  27.466  10.590
12102W        W73765  23.589  14.115  13.048
12103W        W73766   5.341  14.660   3.263
12104W        W73767  26.558  42.874   0.400
12105W        W73768   4.944   5.855  13.046
12106W        W73769   1.268   1.732   0.432
12107W        W73770  21.570  23.994  13.943
12108W        W73771  33.579  22.734   3.216
12109W        W73772   0.314  36.415   2.854
12110W        W73773  43.823  26.660   4.139
12111W        W73774  22.743  32.417   3.273
12112W        W73775   4.913  32.548  14.005
12113W        W73776   7.214   2.352  11.968
12114W        W73777   1.855  15.095   3.375
12115W        W73778  43.813  44.912  13.994
12116W        W73779  11.190  17.109   1.248
12117W        W73780  28.594  18.076  11.528
12118W        W73781  17.777  28.446   4.311
12119W        W73782   9.177  30.501  13.375
12120W        W73783  33.597  27.065   3.256
12121W        W73784  41.921  30.938   1.315
12122W        W73785   3.736  36.404   4.347
12123W        W73786  36.357  13.682   4.114
12124W        W73787  25.219  35.448   2.726
12125W        W73788  34.404  19.192  12.035
12126W        W73789  35.966  33.483  10.971
12127W        W73790  34.514   9.348  10.416
12128W        W73791   0.910  27.617   0.342
12129W        W73792  34.999   5.782  14.898
12130W        W73793  34.094   2.360   0.839
12131W        W73794  31.004  30.971  12.517
12132W        W73795  26.197  44.835   2.413
12133W        W73796  44.299   2.885  10.970
12134W        W73797  35.034  29.033  11.501
12135W        W73798  38.331  19.205   3.732
12136W        W73799  20.698  25.170   2.831
12137W        W73800   5.346   0.765  11.928
12138W        W73801  41.974  19.576   1.861
12139W        W73802  23.541  17.228  11.441
12140W        W73803  33.609  15.107   2.183
12141W        W73804   5.243   9.231   2.342
12142W        W73805   1.907   7.874   5.196
12143W        W73806   8.840  11.652  10.937
12144W        W73807  33.123   2.934  11.996
12145W        W73808  33.967  41.854  14.808
12146W        W73809  17.234   6.864  11.536
12147W        W73810  23.634  28.673  10.962
12148W        W73811  18.291  34.874  11.863
12149W        W73812   7.241  32.957   3.750
12150W        W73813  19.203  39.392  14.325
12151W        W73814   0.835  31.133  13.028
12152W        W73815  27.448  19.101   1.318
12153W        W73816   3.823   5.390   1.734
12154W        W73817  42.331  35.521  10.989
12155W        W73818  39.907  17.083  11.887
12156W        W73819  29.457   7.368  13.331
12157W        W73820  13.339   7.231  10.459
12158W        W73821  24.082   2.737   3.687
12159W        W73822  10.694  31.526   4.715
12160W        W73823  12.131   3.895   3.324
12161W        W73824  34.990  37.982  13.811
12162W        W73825  35.503   9.211  12.498
12163W        W73826  20.668  12.284   4.252
12164W        W73827   7.834  12.653  11.462
12165W        W73828  38.523  20.630   3.167
12166W        W73829  29.968  41.847   5.717
12167W        W73830  19.690  26.172  11.589
12168W        W73831  22.718  41.914  14.316
12169W        W73832  20.168  42.342  11.450
12170W        W73833   5.891   6.751  10.898
12171W        W73834  38.978  22.142   4.134
12172W        W73835  41.355  40.408   1.437
12173W        W73836  11.623   1.337   2.882
12174W        W73837  15.116   1.961   4.247
12175W        W73838  17.656  22.094  10.962
12176W        W73839  21.043   0.928  12.066
12177W        W73840  17.735  10.225  14.413
12178W        W73841  41.472  26.983  11.081
12179W        W73842  17.113   7.260   1.915
12180W        W73843   4.799  12.294   1.380
12181W        W73844  27.566  42.877   3.214
12182W        W73845  23.092  35.433  13.972
12183W        W73846  35.966  16.676   2.207
12184W        W73847  40.407  39.940   1.698
12185W        W73848  31.633   2.906  11.077
12186W        W73849  38.428   8.841  12.460
12187W        W73850  24.519   2.804   3.690
12188W        W73851  22.080  23.719  11.883
12189W        W73852  30.454  28.994   0.456
12190W        W73853  14.670  29.647   4.828
12191W        W73854  27.542  10.259   0.959
12192W        W73855   5.877   2.288  11.903
12193W        W73856  23.722  33.623  14.414
12194W        W73857  25.192  31.133   5.181
12195W        W73858   8.886  37.072  11.099
12196W        W73859   8.244  26.570   4.237
12197W        W73860   2.425  24.154   1.244
12198W        W73861   1.237  22.247   3.707
12199W        W73862  41.426   5.847   0.802
12200W        W73863  41.458  13.210  11.559
12201W        W73864  13.114  41.485  11.612
12202W        W73865   7.722  13.630   3.839
12203W        W73866   1.948  13.138  14.422
12204W        W73867  15.813  13.174   0.787
12205W        W73868  33.926  11.634  10.899
12206W        W73869  31.102  11.685  13.493
12207W        W73870   3.451  13.273  13.477
12208W        W73871  35.923  44.942   1.297
12209W        W73872  38.436  38.912   3.223
12210W        W73873  33.102  20.216  11.547
12211W        W73874  22.218  11.646  11.986
12212W        W73875  33.503   9.860  10.955
12213W        W73876  32.444  10.763  14.960
12214W        W73877   7.233  37.891  11.540
12215W        W73878  12.160   4.769  13.799
12216W        W73879  10.698   9.161   4.600
12217W        W73880  40.467  33.087  14.416
12218W        W73881  31.038  43.495   1.401
12219W        W73882  23.081  44.874  13.426
12220W        W73883   5.279  23.722  11.574
12221W        W73884  13.710   9.179  11.054
12222W        W73885  42.513  11.133   2.685
12223W        W73886  30.080  22.602  11.430
12224W        W73887  14.320   4.721   0.954
12225W        W73888   6.783  41.886   1.861
12226W        W73889  27.999  44.828   2.747
12227W        W73890  25.540  16.738   3.655
12228W        W73891  44.917   1.826   4.350
12229W        W73892  30.550  24.506  13.875
12230W        W73893  10.267  14.714  13.053
12231W        W73894   6.768  28.121   4.784
12232W        W73895   0.940  14.636  13.958
12233W        W73896  33.888  23.568  10.539
12234W        W73897  22.628  40.030  14.393
12235W        W73898  29.133   3.864  14.915
12236W        W73899  42.290   3.907   3.864
12237W        W73900   8.704  27.080  10.604
12238W        W73901  11.245   2.937  14.344
12239W        W73902  23.492  35.382  14.390
12240W        W73903   7.826  18.181  11.977
12241W        W73904  29.572  42.868   0.468
12242W        W73905  37.950  36.588  12.488
12243W        W73906   6.837  20.269   2.282
12244W        W73907   4.813   9.787   0.335
12245W        W73908  19.081   0.986  11.482
12246W        W73909  44.266  14.808   2.289
12247W        W73910  26.011  29.107   4.825
12248W        W73911  39.848   0.303  13.001
12249W        W73912  23.733  12.170  14.790
12250W        W73913  42.828   4.262  10.899
12251W        W73914  18.213  28.986   3.159
12252W        W73915  38.409  23.110   2.179
12253W        W73916  24.608  35.435   3.310
12254W        W73917  36.427  44.891   4.285
12255W        W73918   3.871  43.959  14.865
12256W        W73919  39.959  10.163  14.326
12257W        W73920   6.305  37.468  10.536
12258W        W73921  38.891  31.530   4.249
12259W        W73922  13.736  36.361   0.887
12260W        W73923  37.429  34.951   2.861
12261W        W73924  34.058  34.964  10.606
12262W        W73925   9.237  14.193   1.844
12263W        W73926  41.009  24.574  12.033
12264W        W73927  24.213   8.194   1.375
12265W        W73928  17.106  16.147   2.336
12266W        W73929  22.072  12.806  13.316
12267W        W73930  29.542  21.193   2.281
12268W        W73931  42.330  31.561  12.010
12269W        W73932  33.446  33.027   4.294
12270W        W73933   3.374  33.442  10.421
12271W        W73934  23.184  19.198  13.385
12272W        W73935  13.234  18.116   0.265
12273W        W73936  13.732   1.939  13.867
12274W        W73937  28.035  36.046   1.782
12275W        W73938  39.923   4.309  14.927
12276W        W73939   7.374  27.457  12.080
12277W        W73940  44.327   3.869   2.751
12278W        W73941  21.640  34.581   4.819
12279W        W73942  39.330  18.748  14.943
12280W        W73943  31.141   1.432  11.003
12281W        W73944   3.784  43.419  10.889
12282W        W73945   0.471  28.606   2.347
12283W        W73946   2.810  16.294  11.073
12284W        W73947  11.351  29.617  13.868
12285W        W73948  39.863  12.288   4.620
12286W        W73949   9.385  36.884   4.798
12287W        W73950  22.250  15.764   1.767
12288W        W73951  35.877  27.027  12.365
12289W        W73952  30.120  38.478   3.217
12290W        W73953  41.340  28.477   0.404
12291W        W73954  28.082   4.775  10.640
12292W        W73955  43.350  33.511  12.987
12293W        W73956   3.459  27.629  13.022
12294W        W73957  36.577   6.854   1.276
12295W        W73958   6.778  37.392   1.216
12296W        W73959   8.734  24.001   2.877
12297W        W73960  34.496   2.231   2.189
12298W        W73961  40.003   2.270  14.778
12299W        W73962  43.808  12.195   1.302
12300W        W73963  41.325  22.656  11.531
12301W        W73964  35.880  15.127   2.664
12302W        W73965  24.534  38.392  11.052
12303W        W73966  13.775  30.462   0.731
12304W        W73967  36.095   8.382   1.908
12305W        W73968  32.417   5.392   5.123
12306W        W73969  34.950  24.057   5.232
12307W        W73970   0.257  23.106   0.324
12308W        W73971  30.629  28.933   4.692
12309W        W73972  23.112  15.819   5.206
12310W        W73973  30.558  24.501   4.709
12311W        W73974  22.546   0.826  10.605
12312W        W73975  42.924  16.076   0.345
12313W        W73976  32.934  34.554  11.079
12314W        W73977   0.483  29.479  10.464
12315W        W73978  35.432  14.138  14.441
12316W        W73979   5.921  32.516  12.350
12317W        W73980   3.759  39.382   4.303
12318W        W73981  35.471  30.005   0.280
12319W        W73982  38.023  12.168   2.364
12320W        W73983   0.854  41.340   3.809
12321W        W73984   0.256  23.687   1.711
12322W        W73985  18.774  20.220  13.023
12323W        W73986  19.209  34.407  11.026
12324W        W73987  16.594  26.504   0.323
12325W        W73988   8.794   3.315   3.661
12326W        W73989  11.773   2.938   3.327
12327W        W73990  35.585   7.356  11.074
12328W        W73991  33.520   5.777  12.047
12329W        W73992  40.039  29.618  10.487
12330W        W73993  16.622  18.741  13.919
12331W        W73994  27.076  39.021  14.885
12332W        W73995  41.339  12.703  10.994
12333W        W73996  27.093  10.370   0.953
12334W        W73997  40.510   7.831   1.286
12335W        W73998  34.390  13.808   3.760
12336W        W73999  41.495  33.072  13.803
12337W        W74000  35.477   8.184  12.364
12338W        W74001  35.575   9.323   4.618
12339W        W74002  36.885  10.333  14.872
12340W        W74003  19.599  32.554   0.409
12341W        W74004  43.302  17.281   5.599
12342W        W74005   6.355  34.963   5.123
12343W        W74006  26.522   7.884  11.882
12344W        W74007   3.364  12.298  10.428
12345W        W74008  15.249  12.133   2.369
12346W        W74009  32.405  26.081   3.238
12347W        W74010  33.573  28.104   3.838
12348W        W74011   5.336  31.480   0.434
12349W        W74012  19.169  26.183  12.441
12350W        W74013  41.950  28.491   3.168
12351W        W74014  40.465   5.901   3.163
12352W        W74015  16.649  38.850   3.783
12353W        W74016   8.882  23.241   4.777
12354W        W74017  23.589  38.861   0.299
12355W        W74018  12.174   6.385   0.731
12356W        W74019   3.439  41.416  13.432
12357W        W74020  21.245  13.179   0.415
12358W        W74021  16.203  18.083   0.411
12359W        W74022  15.754  13.169  11.059
12360W        W74023  43.369  12.693  14.442
12361W        W74024   4.784  22.189   0.343
12362W        W74025   5.732  31.432  11.933
12363W        W74026  23.127   4.702  12.038
12364W        W74027   4.352  32.926   3.701
12365W        W74028  36.406  14.108   1.803
12366W        W74029  31.471  10.300  11.113
12367W        W74030   0.987   0.902   2.335
12368W        W74031  32.995  38.027   1.220
12369W        W74032  27.621  44.974  11.873
12370W        W74033  31.618  27.966  13.520
12371W        W74034  10.284  38.569  11.038
12372W        W74035  40.047  34.469   2.229
12373W        W74036   4.906   3.372  14.508
12374W        W74037  19.587  13.747   0.740
12375W        W74038  14.807  29.094   0.449
12376W        W74039  40.979  28.659   0.948
12377W        W74040  16.581  27.113  13.473
12378W        W74041  13.773  11.780   2.808
12379W        W74042   9.362  43.983  11.594
12380W        W74043   0.973  32.000  11.010
12381W        W74044  15.239  19.105   1.842
12382W        W74045  20.739  15.754  11.611
12383W        W74046  42.998  26.036  13.842
12384W        W74047  42.971  18.263  12.886
12385W        W74048  38.519  26.663   3.672
12386W        W74049   7.274   5.812   1.768
12387W        W74050  16.744  27.514   2.687
12388W        W74051  15.294  31.619   1.730
12389W        W74052  21.631   2.724   2.695
12390W        W74053   2.286  22.020  13.406
12391W        W74054   9.772  39.985  12.992
12392W        W74055  12.260  24.185   3.301
12393W        W74056  15.112  10.306   3.338
12394W        W74057  40.049  39.456  14.336
12395W        W74058  31.597   0.880   3.640
12396W        W74059  28.051  32.552  12.089
12397W        W74060  27.670  25.610  13.054
12398W        W74061   7.784   0.926  11.869
12399W        W74062  16.077  32.563  12.824
12400W        W74063  38.059  33.096  13.945
12401W        W74064   3.790  14.156   3.289
12402W        W74065  11.168   2.754   3.786
12403W        W74066  21.046  35.540  12.876
12404W        W74067  37.470  18.713  11.951
12405W        W74068  23.564  17.069  13.930
12406W        W74069  35.430   8.282  11.605
12407W        W74070   9.308  40.913  13.536
12408W        W74071   0.354  21.051   2.769
12409W        W74072  11.258  31.146   3.248
12410W        W74073  15.144  19.191   0.348
12411W        W74074  13.147  44.891  11.925
12412W        W74075  40.407  25.962  13.538
12413W        W74076   1.764  28.500  12.005
12414W        W74077   1.378   2.291  12.058
12415W        W74078  37.015  36.954  12.037
12416W        W74079  41.484   6.772  10.516
12417W        W74080   4.430  19.064  12.874
12418W        W74081  23.588  37.366   4.244
12419W        W74082  27.456  24.166   2.418
12420W        W74083  13.276  43.815   1.429
12421W        W74084   8.337  21.655   0.457
12422W        W74085   6.308  28.009  13.844
12423W        W74086  33.126   9.741   2.352
12424W        W74087  37.532  42.872   1.698
12425W        W74088  10.668   0.949   4.323
12426W        W74089  12.630  27.183   0.730
12427W        W74090  14.266  35.426   1.841
12428W        W74091   7.823  29.047  13.972
12429W        W74092  39.919  15.267  14.016
12430W        W74093   3.296  43.484  14.825
12431W        W74094  39.832  43.990  13.424
12432W        W74095  13.700   9.166   0.834
12433W        W74096  17.133  21.513   4.160
12434W        W74097  30.110  20.584   2.714
12435W        W74098  34.369  14.161   5.171
12436W        W74099  18.288  36.931  12.006
12437W        W74100  39.956  28.123   0.886
12438W        W74101  14.730  19.673   1.917
12439W        W74102  36.848  34.931   4.634
12440W        W74103  15.106  41.838   0.771
12441W        W74104  10.660  33.623   2.383
12442W        W74105   6.227  24.511   2.177
12443W        W74106  34.977  36.400  10.419
12444W        W74107  16.244  16.094   3.834
12445W        W74108   1.333   8.779   1.906
12446W        W74109  44.378  13.608  13.950
12447W        W74110  24.634   8.841  14.827
12448W        W74111  22.704  41.992  13.373
12449W        W74112  28.033   6.221   1.385
12450W        W74113   8.173   0.404  14.924
12451W        W74114  20.073  12.613  11.998
12452W        W74115   8.270   5.198  14.798
12453W        W74116  36.496  18.641  10.917
12454W        W74117   2.440  36.877   0.731
12455W        W74118  26.049   2.794   0.857
12456W        W74119  40.389  32.045   2.862
12457W        W74120   7.237  42.005  11.917
12458W        W74121  27.148  11.233   2.304
12459W        W74122  13.799  44.280   3.703
12460W        W74123  30.941  31.403   2.816
12461W        W74124  43.278  24.134   4.836
12462W        W74125  36.951  19.181  11.450
12463W        W74126   4.340  29.638   1.813
12464W        W74127  12.206  16.303   3.649
12465W        W74128  43.410  37.426   0.388
12466W        W74129  21.201  13.693   0.885
12467W        W74130  41.854  44.896  12.567
12468W        W74131  17.624  23.628  14.367
12469W        W74132   3.273   4.298  13.484
12470W        W74133  39.896  44.935  11.098
12471W        W74134   0.325  16.685  13.888
12472W        W74135  20.202  16.642  14.007
12473W        W74136   4.940  21.734  12.948
12474W        W74137  40.907  33.554  13.006
12475W        W74138  32.045  35.430  10.612
12476W        W74139   0.785  12.626  13.978
12477W        W74140  32.550  34.972  10.989
12478W        W74141   4.429  26.107  11.900
12479W        W74142  39.012  19.261  12.567
12480W        W74143  25.560  23.215   3.251
12481W        W74144  17.109  29.925   2.837
12482W        W74145  27.506  23.520  12.903
12483W        W74146  23.236   3.460   1.416
12484W        W74147  26.552   9.771  12.473
12485W        W74148  28.064  13.203  13.791
12486W        W74149  42.387  35.396  13.397
12487W        W74150  37.385  34.441  11.424
12488W        W74151  36.885  39.811  12.023
12489W        W74152  11.364   6.843  12.978
12490W        W74153  29.999  17.746  14.962
12491W        W74154  28.124  26.598   2.816
12492W        W74155  26.549  10.294  12.994
12493W        W74156   2.914   4.700   1.838
12494W        W74157  21.259  38.330   3.719
12495W        W74158   0.337  44.759   0.783
12496W        W74159  30.644  41.467  11.450
12497W        W74160   4.235  28.604  12.937
12498W        W74161   4.415  15.730  12.485
12499W        W74162  11.235   7.716  13.541
12500W        W74163   0.787  28.479   2.819
12501W        W74164  14.150   4.330  14.323
12502W        W74165  38.354  27.076  14.814
12503W        W74166  34.118   8.300   3.801
12504W        W74167   5.790  19.540   0.771
12505W        W74168  27.579  43.302   4.208
12506W        W74169  38.883  40.834   4.817
12507W        W74170  36.063   7.341  14.509
12508W        W74171   0.798  42.877  10.003
12509W        W74172  42.867  20.704  14.430
12510W        W74173  33.964  42.015  12.406
12511W        W74174   8.221  31.006   3.838
12512W        W74175  15.727  13.731  14.809
12513W        W74176  30.939  30.106  11.033
12514W        W74177  19.541  39.878  13.448
12515W        W74178  19.774  25.147  13.514
12516W        W74179   8.688   5.748  14.348
12517W        W74180  30.032  21.715  14.396
12518W        W74181  38.565  22.507   0.854
12519W        W74182  20.100   5.277  12.356
12520W        W74183  38.428  15.254  12.932
12521W        W74184   0.450  34.575  13.409
12522W        W74185  23.984   2.370  11.575
12523W        W74186  36.967  17.127  12.931
12524W        W74187  31.471  11.231   4.334
12525W        W74188   7.839  14.133   0.304
12526W        W74189  39.373  43.966   4.618
12527W        W74190   5.812  30.591  11.514
12528W        W74191   3.754  21.532   2.777
12529W        W74192  36.974   3.856  11.373
12530W        W74193  39.524  13.296   4.726
12531W        W74194  10.338  24.138  11.605
12532W        W74195   7.858  28.668   3.636
12533W        W74196  17.288  26.144   0.889
12534W        W74197  39.838  16.238  12.929
12535W        W74198  26.678  27.072  13.795
12536W        W74199  29.013   7.836  11.940
12537W        W74200  39.016   0.983  12.351
12538W        W74201  42.033  19.727   3.818
12539W        W74202   7.784   6.389   0.854
12540W        W74203   5.342   0.979  14.989
12541W        W74204  33.502  16.294   0.403
12542W        W74205  31.585   9.758  13.965
12543W        W74206   6.315  13.607   3.151
12544W        W74207   5.796  18.256   2.270
12545W        W74208   1.883  20.258   1.694
12546W        W74209  22.503  19.093  10.048
12547W        W74210  24.018  13.751   4.646
12548W        W74211  34.602   6.834  12.398
12549W        W74212  42.942  23.030   4.349
12550W        W74213   2.464  26.104  14.867
12551W        W74214  19.182   1.765  13.805
12552W        W74215   0.333  25.600  13.942
12553W        W74216  12.662  18.724   1.859
12554W        W74217   2.423  38.837   4.673
12555W        W74218   5.328  30.473  12.834
12556W        W74219   7.298   7.264   4.625
12557W        W74220   7.332  31.546   0.465
12558W        W74221   4.780  22.673  13.862
12559W        W74222  21.578  38.932   3.173
12560W        W74223  14.206   3.930   4.749
12561W        W74224   5.888  10.275  11.877
12562W        W74225  24.582  38.448  13.986
12563W        W74226   5.897   6.336  10.510
12564W        W74227   1.332  19.161   3.824
12565W        W74228   8.888   5.732   2.725
12566W        W74229  30.141  12.760   4.125
12567W        W74230  17.093  31.614   3.243
12568W        W74231  17.246  41.807  12.394
12569W        W74232  36.985  11.670  14.021
12570W        W74233  35.465  13.155  12.040
12571W        W74234  14.240  16.139  11.954
12572W        W74235  12.152   9.749  11.493
12573W        W74236  35.909  34.507   0.818
12574W        W74237   2.363  32.058  12.453
12575W        W74238  28.936  37.452   0.936
12576W        W74239   7.905  26.508  11.426
12577W        W74240  14.287  30.994   1.733
12578W        W74241  34.897   5.359  13.478
12579W        W74242  12.229  44.766   3.303
12580W        W74243  14.186  19.717   2.302
12581W        W74244  34.066   1.764  14.466
12582W        W74245  34.464  32.012   3.702
12583W        W74246  43.850  13.337   2.381
12584W        W74247  44.944  39.898  14.401
12585W        W74248  44.459  12.614   4.266
12586W        W74249  21.544  31.495   4.662
12587W        W74250  31.635  36.547   3.262
12588W        W74251  33.586  14.226  13.347
12589W        W74252   0.476  31.554   0.964
12590W        W74253   9.813  44.298  11.073
12591W        W74254  26.014  25.001   2.755
12592W        W74255  20.127  20.099  13.829
12593W        W74256  20.623  38.928  10.634
12594W        W74257  44.267   4.312  10.474
12595W        W74258  43.291  10.186  13.832
12596W        W74259   6.798   3.834   0.440
12597W        W74260  23.665  42.939  10.105
12598W        W74261  35.429  16.278   0.274
12599W        W74262   0.470  42.951   3.387
12600W        W74263   2.770  14.805  13.396
12601W        W74264   0.392  37.916   3.655
12602W        W74265  41.031  27.651  14.346
12603W        W74266  44.396   3.390  10.139
12604W        W74267  44.481  27.519  14.023
12605W        W74268  28.609   2.315  14.996
12606W        W74269  35.051  12.843  11.121
12607W        W74270  34.949  24.096   2.889
12608W        W74271  27.636  26.569   0.901
12609W        W74272  31.908  33.120   2.304
12610W        W74273  35.393  33.075  11.972
12611W        W74274   7.402  44.390   1.786
12612W        W74275   8.881  44.869  12.888
12613W        W74276  15.156  22.111  13.440
12614W        W74277  32.949  16.153  10.578
12615W        W74278  20.677  37.056  11.022
12616W        W74279  39.882   6.226   0.288
12617W        W74280  29.106  44.935  11.985
12618W        W74281   4.849  40.033  10.615
12619W        W74282  43.906  32.449   2.238
12620W        W74283  28.576  11.294  12.417
12621W        W74284  11.862  17.635   1.217
12622W        W74285   6.821  33.017   4.323
12623W        W74286   1.450  40.867  14.325
12624W        W74287   1.309   9.880   4.323
12625W        W74288  42.976   2.737   2.811
12626W        W74289  20.168  12.260  13.840
12627W        W74290   3.716   9.888   4.759
12628W        W74291   8.756   9.782  12.569
12629W        W74292  42.863  43.303   0.809
12630W        W74293  23.718  33.454   3.654
12631W        W74294  15.244   8.813   1.781
12632W        W74295  39.010  43.945   1.397
12633W        W74296  25.503  34.904  11.467
12634W        W74297  38.026  22.240  12.407
12635W        W74298   9.214  34.411   1.392
12636W        W74299  16.179  22.725  12.907
12637W        W74300  42.439  12.633   0.466
12638W        W74301  43.385  28.012  11.400
12639W        W74302  28.473  25.968   0.332
12640W        W74303  37.441   0.986  10.560
12641W        W74304  33.608  37.858   0.352
12642W        W74305  34.487  16.717   2.891
12643W        W74306  19.115  28.635  11.096
12644W        W74307  30.581  17.110  14.387
12645W        W74308  31.993  27.666   5.256
12646W        W74309   8.727  18.622  13.540
12647W        W74310  16.663   1.939  13.808
12648W        W74311  39.335  31.951  10.408
12649W        W74312  30.152   1.845  10.976
12650W        W74313  41.505  25.963   3.695
12651W        W74314  12.760   9.685   3.208
12652W        W74315  11.368  35.924  12.034
12653W        W74316  14.274  31.536  13.453
12654W        W74317  17.578  26.007  14.920
12655W        W74318   9.340   4.743  13.450
12656W        W74319  18.275  29.019  13.018
12657W        W74320  31.018  37.383   1.707
12658W        W74321  20.234  17.287  11.860
12659W        W74322  15.655  28.949  14.847
12660W        W74323   0.902  15.323   1.231
12661W        W74324  23.649  43.328  10.417
12662W        W74325  12.233  12.246   1.418
12663W        W74326  29.922  27.655  14.842
12664W        W74327  33.899  13.245  12.999
12665W        W74328   1.250  11.780   4.348
12666W        W74329  27.032   8.752   2.805
12667W        W74330  44.764   5.748  14.848
12668W        W74331  19.627  22.132  10.415
12669W        W74332   6.374  43.965  11.077
12670W        W74333  36.487  38.425   0.866
12671W        W74334  37.069  40.516   0.310
12672W        W74335  21.537  13.841  13.345
12673W        W74336  41.043   4.366   0.476
12674W        W74337  17.750  33.957   1.217
12675W        W74338   3.373  19.247  14.937
12676W        W74339  40.367  27.106   2.412
12677W        W74340   8.228   7.268   2.674
12678W        W74341  35.922   3.240  11.033
12679W        W74342  18.762  26.042  11.560
12680W        W74343  40.997  25.986   2.202
12681W        W74344  39.857  34.404  12.890
12682W        W74345  16.588  17.727  13.528
12683W        W74346  23.040  17.213  14.456
12684W        W74347  12.804  18.736   1.345
12685W        W74348  10.327  24.156  10.435
12686W        W74349  33.493  39.833  14.803
12687W        W74350  15.725  13.160   5.132
12688W        W74351  33.471   9.797   0.242
12689W        W74352  19.175  10.750   2.316
12690W        W74353   2.441  13.261  11.401
12691W        W74354  23.993  19.188  11.611
12692W        W74355  28.579  43.361   2.331
12693W        W74356  34.380  30.118  12.508
12694W        W74357  32.941   2.812   3.377
12695W        W74358   1.265  36.480   3.223
12696W        W74359  42.353   7.809   1.835
12697W        W74360  33.398  15.609  11.381
12698W        W74361  31.537  23.639   2.204
12699W        W74362   2.751  19.657   3.852
12700W        W74363  14.315   1.461   3.843
12701W        W74364  25.143  14.785  13.808
12702W        W74365  13.277   8.763   2.817
12703W        W74366  15.237  11.240   1.750
12704W        W74367   8.273  44.326   1.739
12705W        W74368  32.123  33.418  11.588
12706W        W74369  32.089   7.223  13.962
12707W        W74370  34.069  18.692   4.725
12708W        W74371  10.803  27.989  13.911
12709W        W74372  21.569  20.603   2.329
12710W        W74373  27.967  30.153   0.473
12711W        W74374  17.097  24.988  13.533
12712W        W74375  42.019   3.857  10.409
12713W        W74376   0.436  25.470   0.282
12714W        W74377   2.831  11.155  13.318
12715W        W74378  40.328  20.559  14.832
12716W        W74379  18.156  39.978   0.803
12717W        W74380  12.775  36.490   2.787
12718W        W74381  34.560  19.053   2.378
12719W        W74382   1.896   4.915  14.925
12720W        W74383  27.011  33.405   4.806
12721W        W74384  10.639  25.575   2.735
12722W        W74385   5.760  19.717   4.779
12723W        W74386  21.093  19.627  14.359
12724W        W74387  16.750   3.850   2.850
12725W        W74388  38.404  27.476   2.258
12726W        W74389   6.836  41.480   3.784
12727W        W74390  10.255  12.227   2.679
12728W        W74391  12.313  42.955  10.079
12729W        W74392  39.468   8.817   5.169
12730W        W74393  40.456  28.093   3.861
12731W        W74394   4.752  36.548   1.367
12732W        W74395  27.030  22.238  13.535
12733W        W74396  44.370  28.497  14.293
12734W        W74397   2.833   6.426   4.159
12735W        W74398  31.561  19.584   2.717
12736W        W74399  36.531  44.906   1.235
12737W        W74400  35.469   0.822  11.543
12738W        W74401  12.210  13.613  10.567
12739W        W74402  28.645  38.831   2.402
12740W        W74403  13.142  42.009  14.839
12741W        W74404   6.318  21.053   5.118
12742W        W74405  20.166  17.242   1.217
12743W        W74406  15.737  38.060  14.786
12744W        W74407  32.907   8.177  12.491
12745W        W74408  33.458  39.479   2.665
12746W        W74409  14.326  20.572   0.479
12747W        W74410  10.157  29.104  14.391
12748W        W74411  38.861   6.743  10.446
12749W        W74412  15.745  22.227   0.779
12750W        W74413  30.053  10.143  13.952
12751W        W74414  30.024   4.752   2.823
12752W        W74415   0.308   5.903  11.439
12753W        W74416  23.988   2.320  13.514
12754W        W74417  10.239  37.869  14.894
12755W        W74418  18.768  22.248   0.427
12756W        W74419   7.795  26.557   4.815
12757W        W74420  38.058  20.733   4.170
12758W        W74421  27.063  35.455  14.781
12759W        W74422   4.943  26.605   1.927
12760W        W74423  31.002   8.173   2.278
12761W        W74424  31.031   7.397  13.946
12762W        W74425   0.301   0.860   0.290
12763W        W74426  43.973  33.582  13.348
12764W        W74427  13.178  31.016  14.288
12765W        W74428  33.499  20.665  13.852
12766W        W74429  20.140   2.266   0.837
12767W        W74430  14.614  10.756  10.971
12768W        W74431  30.492   8.379   4.836
12769W        W74432   8.847  33.444  11.895
12770W        W74433  36.068   4.742   0.465
12771W        W74434   1.464  33.009   4.224
12772W        W74435  39.413  28.155  13.794
12773W        W74436  15.153  16.587   4.334
12774W        W74437   6.750  26.684  14.863
12775W        W74438  21.746  11.348   0.323
12776W        W74439  26.629   0.486  13.035
12777W        W74440  12.790  23.641  14.960
12778W        W74441   9.785  23.189  12.464
12779W        W74442  10.143   3.320  12.981
12780W        W74443  39.878   6.220  12.492
12781W        W74444  26.592  22.658   2.344
12782W        W74445  22.104  38.341   1.393
12783W        W74446  41.986  17.681   2.273
12784W        W74447  12.833  43.345   4.812
12785W        W74448  30.499  42.399   4.737
12786W        W74449  31.986  39.987  14.779
12787W        W74450  36.358  25.640  11.555
12788W        W74451  18.258  20.191   2.820
12789W        W74452  17.132  31.992  12.514
12790W        W74453  41.445  21.225   2.282
12791W        W74454  26.007  14.140   4.700
12792W        W74455  11.330  23.564  10.470
12793W        W74456   0.755  31.604   3.803
12794W        W74457  44.825  31.482  13.803
12795W        W74458  15.789  21.693  11.890
12796W        W74459  24.626  25.593   1.447
12797W        W74460   0.424  11.188   1.731
12798W        W74461  30.452  44.868  12.543
12799W        W74462  22.183  27.462  10.960
12800W        W74463   0.984  32.547  11.931
12801W        W74464  10.680  22.067   4.775
12802W        W74465  44.457  19.098   2.376
12803W        W74466  31.905  33.986   0.782
12804W        W74467  17.264  14.668   2.198
12805W        W74468  32.972  32.451   1.332
12806W        W74469  19.065  11.660  14.435
12807W        W74470  31.505   7.700   2.901
12808W        W74471  15.133  38.026   1.392
12809W        W74472  33.527  39.384   0.302
12810W        W74473  37.897  11.765   1.379
12811W        W74474  14.713   2.471  14.958
12812W        W74475  27.975  15.210   0.272
12813W        W74476   0.816   2.340   2.836
12814W        W74477   6.255   1.781  11.394
12815W        W74478  40.819  43.976   4.701
12816W        W74479  22.122  19.544   4.746
12817W        W74480  23.200  42.824   3.844
12818W        W74481  42.806   8.694   1.783
12819W        W74482  14.682   7.214  12.006
12820W        W74483  35.905  24.537  10.556
12821W        W74484   1.337  18.762  12.828
12822W        W74485  28.571  11.204   3.861
12823W        W74486  15.280  44.431   2.880
12824W        W74487  22.602  28.105  10.136
12825W        W74488   8.897  13.721   1.923
12826W        W74489  43.896  35.559  13.830
12827W        W74490  32.089   1.366  14.818
12828W        W74491   3.381  21.699  12.371
12829W        W74492   5.881  33.458   3.869
12830W        W74493  41.430   3.930  12.023
12831W        W74494  30.965  20.704   3.235
12832W        W74495  15.662   7.859   1.221
12833W        W74496  44.851  26.462  13.853
12834W        W74497  38.837  12.321  10.465
12835W        W74498  18.282   4.213  13.971
12836W        W74499  29.539   1.970   1.427
12837W        W74500  23.081   5.885   3.220
12838W        W74501  31.441  29.113  10.406
12839W        W74502  36.974   4.282   2.705
12840W        W74503  36.468  25.980  13.504
12841W        W74504  28.019   2.353   2.823
12842W        W74505  23.580  38.878   2.277
12843W        W74506  17.231   6.392   3.222
12844W        W74507   9.248  33.951   4.807
12845W        W74508  21.566  24.123   4.167
12846W        W74509  33.388  25.104  10.002
12847W        W74510  18.705  17.779   0.279
12848W        W74511  15.632  27.549   1.302
12849W        W74512  25.637  11.744   3.758
12850W        W74513  40.955  11.334  13.377
12851W        W74514  14.113  39.934  12.395
12852W        W74515  42.776  34.420  12.062
12853W        W74516  21.035  39.526   4.200
12854W        W74517  28.058  15.723   2.843
12855W        W74518  15.782  27.143   4.280
12856W        W74519   8.169  44.000   0.783
12857W        W74520  32.390  31.041  11.073
12858W        W74521  21.746  19.265  13.440
12859W        W74522  37.534  11.775   3.375
12860W        W74523  17.071   7.762  13.452
12861W        W74524  38.877  33.004   4.808
12862W        W74525  32.092   4.768  10.988
12863W        W74526  31.609  33.412  13.386
12864W        W74527  36.062  34.942  11.083
12865W        W74528  31.638  42.488  14.771
12866W        W74529  38.995  44.322   0.814
12867W        W74530  11.647   6.879   3.668
12868W        W74531   2.376  17.619  13.387
12869W        W74532   9.862   9.239  12.387
12870W        W74533  35.425  32.482   4.193
12871W        W74534   6.813  20.618  13.791
12872W        W74535   2.445  25.064  13.473
12873W        W74536   7.272  15.292  10.932
12874W        W74537  25.102  36.934  12.382
12875W        W74538  34.922  42.512  14.008
12876W        W74539  40.047  22.146  13.526
12877W        W74540   3.457  37.442   0.905
12878W        W74541  19.747   0.332   1.795
12879W        W74542  40.355  27.185  14.862
12880W        W74543  43.845  17.784  13.881
12881W        W74544   1.791   7.183  13.805
12882W        W74545  28.961   5.337   0.340
12883W        W74546  37.360  43.476   2.781
12884W        W74547  17.689  16.655   3.775
12885W        W74548   9.729  19.775  14.861
12886W        W74549  13.125  16.696   1.241
12887W        W74550  41.802  15.724   0.800
12888W        W74551  34.064  38.912  11.507
12889W        W74552  29.070  20.084  10.944
12890W        W74553  12.730  24.714   1.250
12891W        W74554  23.048  41.496  13.544
12892W        W74555  30.030   6.298  14.455
12893W        W74556  37.083  19.217  14.867
12894W        W74557  22.594  16.622   3.198
12895W        W74558  17.094  44.843  10.149
12896W        W74559  25.125   2.318   1.741
12897W        W74560  20.621  28.568  11.989
12898W        W74561  43.878  28.012   1.356
12899W        W74562  16.783  19.102  14.954
12900W        W74563   3.400  21.601  11.112
12901W        W74564  24.021  29.654  11.075
12902W        W74565  35.877   2.749   2.750
12903W        W74566  30.428   0.914   4.700
12904W        W74567   5.247  35.468  10.424
12905W        W74568  20.582  30.130   2.411
12906W        W74569   4.763  43.413  12.508
12907W        W74570  44.943   1.824   3.361
12908W        W74571  27.007   0.980  13.924
12909W        W74572  15.720   0.471   3.347
12910W        W74573  31.997  44.997   1.762
12911W        W74574  15.287  19.630   1.249
12912W        W74575   4.402  25.165  10.979
12913W        W74576   0.324  11.688   2.796
12914W        W74577  22.586  39.843   0.326
12915W        W74578  36.476  40.497  11.461
12916W        W74579  36.449  22.222  13.881
12917W        W74580  42.401  42.344   0.444
12918W        W74581  32.930  12.808  11.503
12919W        W74582   6.903  33.930   1.228
12920W        W74583  13.149  10.383   3.851
12921W        W74584   1.758  38.971  13.028
12922W        W74585  41.828  19.544  12.473
12923W        W74586  15.723  35.958   5.256
12924W        W74587  32.579  42.897  13.475
12925W        W74588  17.239  34.990  10.940
12926W        W74589  16.765  16.202   4.324
12927W        W74590  12.254  33.928  11.519
12928W        W74591  15.728  18.263  12.037
12929W        W74592  29.078  25.624   1.850
12930W        W74593  21.262   0.378  14.356
12931W        W74594  24.027  25.515   1.811
12932W        W74595  27.521  40.048   1.829
12933W        W74596  11.262  29.612   1.234
12934W        W74597  13.190  31.421   1.867
12935W        W74598  38.460  17.101  14.925
12936W        W74599  13.135  35.052  10.624
12937W        W74600   4.850  12.142   4.836
12938W        W74601  21.154  27.007   0.457
12939W        W74602  20.122   7.731   0.802
12940W        W74603   5.705  21.018  14.925
12941W        W74604  15.312  37.529  10.928
12942W        W74605   4.298  28.179  12.442
12943W        W74606  17.294  22.592   0.483
12944W        W74607  40.850  43.913  13.500
12945W        W74608   1.852  37.495  12.459
12946W        W74609  19.716   6.817   1.807
12947W        W74610   6.758  28.175   1.250
12948W        W74611   7.176  17.727   1.387
12949W        W74612   5.880   4.770  13.437
12950W        W74613  43.297   9.738  14.926
12951W        W74614  18.227  37.538   3.636
12952W        W74615   7.666  24.632   1.268
12953W        W74616  17.661  40.985  12.386
12954W        W74617  12.833  19.683   0.467
12955W        W74618  31.896   6.804  12.376
12956W        W74619  42.480  39.509  11.878
12957W        W74620  42.804  39.021  10.576
12958W        W74621  36.516  17.134  11.102
12959W        W74622  27.119  41.943  13.513
12960W        W74623   0.885  40.328   2.721
12961W        W74624  14.589  37.492   0.311
12962W        W74625  38.026  34.929   2.835
12963W        W74626  30.621  41.004  13.536
12964W        W74627  11.163  11.713  13.861
12965W        W74628  32.016  30.603  10.931
12966W        W74629  33.386  41.346  10.624
12967W        W74630   5.204  30.031  10.493
12968W        W74631   7.738  33.518  12.826
12969W        W74632  25.169  30.434   4.748
12970W        W74633  23.658  30.937  12.930
12971W        W74634  39.884  37.926   1.349
12972W        W74635  18.778   9.690   1.447
12973W        W74636   4.714  13.763  12.580
12974W        W74637  13.686  30.536  11.516
12975W        W74638  34.953  40.526   3.213
12976W        W74639  39.505   1.325  10.616
12977W        W74640  31.572  37.378   4.694
12978W        W74641  16.316  22.681   1.304
12979W        W74642  28.028  25.020  11.535
12980W        W74643  40.931  28.529  10.931
12981W        W74644  44.925  29.559  10.508
12982W        W74645  28.562  34.891   2.303
12983W        W74646  17.196  16.146  12.351
12984W        W74647  18.719  44.957  11.471
12985W        W74648  31.923  17.062  12.848
12986W        W74649  26.498  14.154  13.524
12987W        W74650  22.188  18.625   0.813
12988W        W74651  14.156   3.872  12.534
12989W        W74652  17.735  17.776  12.391
12990W        W74653  31.135   0.398  12.564
12991W        W74654  30.446   2.795  14.919
12992W        W74655  20.660  19.136  11.917
12993W        W74656  38.332   3.854   3.323
12994W        W74657   4.388  10.671   3.858
12995W        W74658  32.602  27.122   4.805
12996W        W74659  19.735  12.742  10.461
12997W        W74660  25.178  11.675   4.722
12998W        W74661  27.579   2.403   3.664
12999W        W74662   1.763  40.478  13.956
13000W        W74663  20.550  23.709  14.913
13001W        W74664  34.867  40.334  13.470
13002W        W74665  36.363  29.424   3.290
13003W        W74666   3.273  36.875   0.901
13004W        W74667  37.955  41.320   0.429
13005W        W74668  41.516  23.503   2.233
13006W        W74669  35.107  40.042  14.871
13007W        W74670   6.400   4.440   1.223
13008W        W74671  40.361   6.280   1.432
13009W        W74672  16.077   3.350  11.550
13010W        W74673   0.253  18.209   4.118
13011W        W74674  34.546  41.483  11.500
13012W        W74675   2.241  23.578   0.755
13013W        W74676  10.192  24.096  14.822
13014W        W74677  23.170   0.280   0.839
13015W        W74678  31.440  32.487   3.147
13016W        W74679  13.208   9.654  11.094
13017W        W74680  18.196  11.642  13.533
13018W        W74681  36.059  14.695  14.817
13019W        W74682  18.624  44.862   0.774
13020W        W74683  13.256  36.891  11.535
13021W        W74684  42.456   4.879  10.457
13022W        W74685  17.678  27.470  11.984
13023W        W74686  38.500  13.682   1.779
13024W        W74687   0.401  22.735   0.855
13025W        W74688   1.924  39.426  10.604
13026W        W74689  34.897  33.497   2.670
13027W        W74690  42.997  32.001   3.679
13028W        W74691  21.233  40.973   0.810
13029W        W74692   4.228  23.731   1.740
13030W        W74693   8.162  23.176  10.905
13031W        W74694   8.262  39.837  12.378
13032W        W74695  17.574  26.973   4.295
13033W        W74696  17.089  41.333   1.332
13034W        W74697  22.656  38.035  11.527
13035W        W74698  44.331  37.474   0.964
13036W        W74699   4.715  27.150   1.790
13037W        W74700  41.351  23.544  10.596
13038W        W74701  42.916  13.154   1.254
13039W        W74702  15.793  12.855   2.857
13040W        W74703  44.292  24.998  10.552
13041W        W74704  13.725  26.980   3.269
13042W        W74705  33.410  25.671   2.896
13043W        W74706   7.410  26.648   4.243
13044W        W74707  34.034  10.868  11.855
13045W        W74708  10.239  27.500  10.460
13046W        W74709  35.381  27.660   3.246
13047W        W74710  32.546   2.835  10.995
13048W        W74711  18.170  25.987  14.487
13049W        W74712  23.577  18.791   3.813
13050W        W74713   4.323  42.520  11.021
13051W        W74714  29.509  33.381   1.863
13052W        W74715  42.500   9.692   0.338
13053W        W74716  41.367  23.023   2.872
13054W        W74717  26.098  17.279   1.772
13055W        W74718  13.691  25.522   0.266
13056W        W74719  15.170  29.134   2.669
13057W        W74720  32.988  26.634   1.727
13058W        W74721  42.782  10.874  10.147
13059W        W74722  31.977  42.863  14.409
13060W        W74723  42.366  12.296   3.327
13061W        W74724   4.850  39.458   1.760
13062W        W74725   8.248  37.553  12.970
13063W        W74726  15.157  22.514  13.455
13064W        W74727  33.523   1.357   3.769
13065W        W74728  36.520   7.873  11.598
13066W        W74729  29.451  42.827  10.541
13067W        W74730   0.403   5.721  13.438
13068W        W74731  24.523  10.852  10.623
13069W        W74732  17.304  25.503  11.577
13070W        W74733  33.445  16.267  12.385
13071W        W74734   1.263   5.371   1.837
13072W        W74735   5.881  10.242   3.699
13073W        W74736  16.308   8.376  13.947
13074W        W74737  16.135  19.713   2.897
13075W        W74738  29.938   2.419   4.772
13076W        W74739  42.294  23.581  11.960
13077W        W74740  33.919  36.558   0.450
13078W        W74741  20.523  34.418  11.471
13079W        W74742  17.114  42.467  12.989
13080W        W74743  19.584  24.185   3.206
13081W        W74744  19.125  28.644  12.511
13082W        W74745  28.628  23.619   3.330
13083W        W74746  15.140   1.739  10.489
13084W        W74747  37.575  19.058  11.470
13085W        W74748  19.599  25.203  11.883
13086W        W74749  24.017  35.548   1.756
13087W        W74750  43.848   4.898   4.824
13088W        W74751  14.249  39.965   4.764
13089W        W74752  26.561  40.978  11.012
13090W        W74753  14.325   9.326   4.167
13091W        W74754  28.107  34.589  10.121
13092W        W74755  11.753   0.852   4.640
13093W        W74756   2.776  42.392  13.333
13094W        W74757  37.467  19.145   1.811
13095W        W74758  11.159  28.174  12.542
13096W        W74759  36.500  44.334  11.465
13097W        W74760  20.541   5.824   3.295
13098W        W74761  28.980  26.988  14.879
13099W        W74762  13.107   1.850  10.499
13100W        W74763  26.955  40.399   2.849
13101W        W74764  44.821  13.166   0.259
13102W        W74765  24.590  32.476  14.407
13103W        W74766  43.305  26.961  13.518
13104W        W74767   2.270   2.349  11.861
13105W        W74768   5.417  16.255  13.369
13106W        W74769  23.985  44.914   1.762
13107W        W74770   3.291  28.479  14.920
13108W        W74771  43.429  43.774   0.447
13109W        W74772  10.645   7.684  12.512
13110W        W74773  37.470  18.099  11.989
13111W        W74774  39.444  34.872   3.816
13112W        W74775  23.523  39.339  12.502
13113W        W74776  33.109   6.410  13.360
13114W        W74777  15.707  31.097  12.045
13115W        W74778  38.350  40.400  11.042
13116W        W74779  37.984  13.174   2.376
13117W        W74780  22.143  12.277  11.933
13118W        W74781  15.217  22.606  10.475
13119W        W74782  38.911  41.409  12.424
13120W        W74783  10.717  34.371   0.964
13121W        W74784  44.354  14.312  13.794
13122W        W74785  20.680  43.492  13.029
13123W        W74786  16.190  27.484   4.162
13124W        W74787  40.959  26.192  10.406
13125W        W74788   8.803   4.330  11.591
13126W        W74789  43.782  41.345   2.677
13127W        W74790  38.949  36.038  12.420
13128W        W74791  32.463  32.465   4.210
13129W        W74792   4.326  24.655   1.913
13130W        W74793  25.168  39.041   4.599
13131W        W74794   5.881   8.260   4.646
13132W        W74795   7.395   7.330   3.284
13133W        W74796  21.091  31.079  13.361
13134W        W74797  31.536  14.259  10.445
13135W        W74798  34.076  19.693   0.745
13136W        W74799  14.106  40.373  13.801
13137W        W74800  33.558  22.570  14.377
13138W        W74801  30.940  37.371  11.966
13139W        W74802  19.772  16.101   5.141
13140W        W74803  14.250   8.193  11.589
13141W        W74804   6.869  14.161   2.797
13142W        W74805  27.160  37.954  11.531
13143W        W74806  18.709  15.599  14.365
13144W        W74807  16.676   5.238   2.239
13145W        W74808   6.345  22.650   2.236
13146W        W74809   9.353  32.627   0.409
13147W        W74810   7.207  22.129   4.240
13148W        W74811  34.990  44.806  12.552
13149W        W74812  15.214   3.761  13.331
13150W        W74813  32.967  41.300  13.041
13151W        W74814  44.283  13.195   3.157
13152W        W74815  18.651  21.632  11.945
13153W        W74816   9.700  41.962   4.662
13154W        W74817  15.696  25.568   3.756
13155W        W74818  40.471  16.184   1.817
13156W        W74819  18.578  35.449  10.493
13157W        W74820  36.082  31.067   0.931
13158W        W74821  18.108  38.554   3.334
13159W        W74822  28.459   9.168  11.102
13160W        W74823  34.071  33.083   0.407
13161W        W74824  28.947  40.875   4.258
13162W        W74825  24.044  31.516   1.883
13163W        W74826  29.991  10.278   4.833
13164W        W74827  16.794  23.509   4.646
13165W        W74828  15.732  28.127   4.217
13166W        W74829   1.763  40.004  14.846
13167W        W74830   6.243  37.880   2.318
13168W        W74831  24.680  33.561   1.902
13169W        W74832  17.779  39.513   4.194
13170W        W74833  32.623  33.480  11.916
13171W        W74834  32.457  37.915  13.429
13172W        W74835  43.439  25.971  13.041
13173W        W74836   5.718  22.211  13.923
13174W        W74837  43.774   4.267  10.991
13175W        W74838  36.083  37.494  10.617
13176W        W74839  32.054  31.081  11.508
13177W        W74840  32.143  18.196   3.772
13178W        W74841  43.454  34.993   1.921
13179W        W74842  14.628   3.275   0.429
13180W        W74843   4.227  34.961   4.698
13181W        W74844  41.904  26.183   4.777
13182W        W74845  17.596   1.465   3.756
13183W        W74846  40.457  10.315   1.866
13184W        W74847   9.331  33.920   1.266
13185W        W74848  28.945   7.344  11.462
13186W        W74849   1.933  43.408   3.367
13187W        W74850  36.022  41.933   1.728
13188W        W74851   7.751  13.306  11.891
13189W        W74852  10.873  20.259   2.264
13190W        W74853  32.580  41.483   5.211
13191W        W74854   9.887   6.287  14.980
13192W        W74855  35.078  27.982   5.271
13193W        W74856   1.245   8.273   4.700
13194W        W74857  39.361  14.209   0.473
13195W        W74858  15.219  14.167  12.073
13196W        W74859  13.349  42.298   4.351
13197W        W74860  29.522  22.136  14.938
13198W        W74861   9.730  19.078   3.328
13199W        W74862  17.243  22.057  10.974
13200W        W74863   9.370  21.034   1.227
13201W        W74864  44.007  17.593   4.760
13202W        W74865  23.661  13.699   1.235
13203W        W74866  11.341  29.131  13.805
13204W        W74867  35.485  18.790   9.637
13205W        W74868  33.975   7.339   1.382
13206W        W74869   6.345  41.503  11.603
13207W        W74870  12.637  38.058  10.117
13208W        W74871  36.469  28.102   0.273
13209W        W74872  35.892   0.767  12.915
13210W        W74873  22.687  43.450   3.352
13211W        W74874  25.144   9.676   2.884
13212W        W74875   3.869  13.836  13.007
13213W        W74876  33.889   4.360  12.555
13214W        W74877  36.457  37.065  13.026
13215W        W74878   3.890  20.669   3.368
13216W        W74879  31.550  33.625   1.855
13217W        W74880  24.492  24.006  12.089
13218W        W74881  13.784   4.210  11.898
13219W        W74882   5.881  15.722   4.195
13220W        W74883  20.073   5.397  11.962
13221W        W74884  28.506  25.546   2.667
13222W        W74885  17.715  39.463   0.931
13223W        W74886   5.293  27.469  11.395
13224W        W74887  26.028  34.434   0.760
13225W        W74888  28.173  25.205  10.449
13226W        W74889  44.861   1.826   2.236
13227W        W74890   7.244  39.423  13.500
13228W        W74891  13.720  33.390  10.469
13229W        W74892  23.009  22.578   4.624
13230W        W74893   2.247  12.791   4.810
13231W        W74894  14.776  20.558   1.772
13232W        W74895  22.181   9.375  11.437
13233W        W74896  22.610  17.287  13.919
13234W        W74897  20.752  36.975   3.169
13235W        W74898  43.413  27.151   1.337
13236W        W74899  14.304  21.212   1.288
13237W        W74900   3.291  23.236   3.692
13238W        W74901  33.593  17.199   3.282
13239W        W74902  35.391   5.421   3.868
13240W        W74903   9.664  25.534  10.488
13241W        W74904  35.999   7.743  13.541
13242W        W74905  30.947   0.362  13.403
13243W        W74906  26.592  13.206  11.116
13244W        W74907  12.144  22.730   2.667
13245W        W74908  15.722  39.491  14.008
13246W        W74909   9.716  12.673   3.820
13247W        W74910  22.715  35.061  12.827
13248W        W74911  14.216  40.029  10.547
13249W        W74912   0.330  26.609   3.861
13250W        W74913  29.528  16.784  11.496
13251W        W74914  27.673  21.106   0.483
13252W        W74915  26.672  25.613  14.832
13253W        W74916  26.060  17.665  11.601
13254W        W74917  34.574   8.375   3.346
13255W        W74918   5.823  41.310  12.427
13256W        W74919  43.775   9.260   1.821
13257W        W74920  11.824  28.939   1.383
13258W        W74921  21.184  33.122   0.759
13259W        W74922  21.733   0.253  12.892
13260W        W74923  42.293  25.579  11.998
13261W        W74924  14.250  32.545   1.882
13262W        W74925  17.801  27.016  10.495
13263W        W74926  17.665   2.341   4.144
13264W        W74927  39.400  34.088   4.716
13265W        W74928  27.984   4.303  11.569
13266W        W74929  15.269  13.623  13.829
13267W        W74930   0.773  27.532  10.624
13268W        W74931  35.603  32.592  11.450
13269W        W74932  20.537  24.090  10.564
13270W        W74933  41.424  11.718   3.344
13271W        W74934   3.755   1.930   1.763
13272W        W74935  43.802  13.249   0.804
13273W        W74936  33.457   8.300   4.156
13274W        W74937   1.325   6.213  13.793
13275W        W74938  31.910  27.626   0.455
13276W        W74939  33.119  26.459   4.169
13277W        W74940   8.308  23.126  11.471
13278W        W74941  36.895  22.612   2.243
13279W        W74942  32.086   2.308  10.978
13280W        W74943  23.007  26.647  10.634
13281W        W74944   9.691  25.672   2.738
13282W        W74945  23.514  34.016   0.960
13283W        W74946  13.179  20.153  11.126
13284W        W74947  42.512   6.365  12.405
13285W        W74948   0.844  10.834   3.371
13286W        W74949   7.797  35.886  13.045
13287W        W74950   9.812  14.710   4.182
13288W        W74951  35.106   4.331  12.020
13289W        W74952  23.650   1.758  10.492
13290W        W74953  13.827   2.912  13.969
13291W        W74954   4.880  22.622   3.716
13292W        W74955   4.321  37.512   1.283
13293W        W74956   4.741  35.450  13.018
13294W        W74957   7.676   4.208  12.961
13295W        W74958  39.827   9.817   3.758
13296W        W74959  17.242  32.886  10.935
13297W        W74960  14.816  22.721   0.782
13298W        W74961  26.101  26.658  13.435
13299W        W74962  31.422  29.171  11.960
13300W        W74963  39.995  27.162  14.384
13301W        W74964   7.787  38.903  11.028
13302W        W74965  10.748  27.681   2.749
13303W        W74966  39.518   4.396  12.054
13304W        W74967  16.660   5.784   0.464
13305W        W74968  10.139   9.866   1.755
13306W        W74969  16.692  28.651  10.633
13307W        W74970  44.410  18.136  11.440
13308W        W74971  35.462  38.005   2.371
13309W        W74972  24.126  38.854   5.160
13310W        W74973  20.170  19.737   0.925
13311W        W74974  28.118  39.468   3.781
13312W        W74975   4.232  18.077  11.085
13313W        W74976  21.067  25.627   9.949
13314W        W74977  11.206  11.762  13.438
13315W        W74978  41.786  14.233  11.082
13316W        W74979   5.800  37.995   3.199
13317W        W74980   4.882  20.560  13.812
13318W        W74981  20.645  21.608  12.004
13319W        W74982   3.738   7.196   2.761
13320W        W74983  36.059  38.436   0.805
13321W        W74984   1.976  41.886   0.780
13322W        W74985  19.276  12.747   1.281
13323W        W74986  18.249  33.876  11.395
13324W        W74987  36.887  44.464  12.521
13325W        W74988  24.532  23.633  12.572
13326W        W74989   6.289  35.961   2.346
13327W        W74990  37.541  34.928   2.246
13328W        W74991   6.878  27.943   2.861
13329W        W74992   9.679  31.129   4.143
13330W        W74993  17.603  13.105  10.064
13331W        W74994  17.655  36.943  11.041
13332W        W74995  38.061   1.422  14.959
13333W        W74996   1.914  32.048   2.725
13334W        W74997  31.036  25.548  11.963
13335W        W74998  27.581  40.533   1.763
13336W        W74999  37.501  28.459   3.842
13337W        W75000  28.508  37.564   0.848
13338W        W75001  30.125  36.089  10.511
13339W        W75002  35.500  34.510  14.366
13340W        W75003  34.898  20.566  13.370
13341W        W75004  15.728  11.797   2.382
13342W        W75005  33.062  13.293   0.923
13343W        W75006  21.586  29.928  14.010
13344W        W75007  26.544   9.862   2.722
13345W        W75008  10.363  27.630   2.808
13346W        W75009  21.537  14.137   3.192
13347W        W75010  24.636  38.475   2.294
13348W        W75011  29.979  28.162   4.800
13349W        W75012  22.143  34.420   3.362
13350W        W75013  33.900  15.182  11.579
13351W        W75014   5.332  37.354   1.697
13352W        W75015   8.781  10.235  13.903
13353W        W75016  38.929  27.993   0.457
13354W        W75017  37.865  38.518  12.339
13355W        W75018  16.757   5.370  11.540
13356W        W75019  21.577   0.384  10.507
13357W        W75020  41.392  24.482   4.598
13358W        W75021  29.669  36.548  12.513
13359W        W75022  11.358   1.940   4.708
13360W        W75023  14.716   0.821   0.793
13361W        W75024  21.229  44.312  13.331
13362W        W75025  31.946   2.335  14.314
13363W        W75026  27.195   4.261  12.410
13364W        W75027   8.265  40.303   1.929
13365W        W75028  27.547  39.512   5.289
13366W        W75029  35.942  34.972   0.920
13367W        W75030  40.029  29.064   0.855
13368W        W75031  28.615   1.884   5.292
13369W        W75032   2.851  28.149  14.390
13370W        W75033  41.002  19.717  13.404
13371W        W75034  37.864  43.475   2.896
13372W        W75035  21.077   3.438  11.546
13373W        W75036   2.891   4.369   1.894
13374W        W75037   9.773  26.485  11.565
13375W        W75038  25.470  37.869   1.791
13376W        W75039  41.345  34.004   0.347
13377W        W75040  30.414  41.990  13.541
13378W        W75041   7.180   0.977   1.725
13379W        W75042  11.797  21.652   1.748
13380W        W75043  16.617   0.422  13.308
13381W        W75044  18.638  18.064  14.315
13382W        W75045   4.295  27.587   2.897
13383W        W75046  37.570  37.506  14.514
13384W        W75047  26.061  35.419   2.807
13385W        W75048  14.190   2.468   1.769
13386W        W75049  23.989   7.212  14.979
13387W        W75050  31.128  36.865   0.320
13388W        W75051  11.665  18.767   1.340
13389W        W75052  11.244  11.265   4.192
13390W        W75053  41.878  12.815   2.755
13391W        W75054  37.487  35.061  10.496
13392W        W75055   6.358   6.419   1.415
13393W        W75056  18.773  34.983   4.115
13394W        W75057  12.138  10.849  12.465
13395W        W75058  18.772   3.842   2.334
13396W        W75059  39.471  27.539  14.375
13397W        W75060  23.553  27.155  13.522
13398W        W75061   5.700  17.712   3.655
13399W        W75062  16.217  39.318   4.231
13400W        W75063  21.594   4.409   4.728
13401W        W75064  17.244  41.920   2.709
13402W        W75065   7.769  37.888  14.277
13403W        W75066  31.432  19.652  13.457
13404W        W75067  39.443  31.452   3.800
13405W        W75068  13.688  44.834  13.045
13406W        W75069   4.702  41.979  10.606
13407W        W75070   7.732  34.531   4.783
13408W        W75071  23.082  39.363   3.253
13409W        W75072  25.657  39.992   2.785
13410W        W75073  36.997  34.910   3.869
13411W        W75074  19.542  41.435   4.130
13412W        W75075  17.129  39.540  12.016
13413W        W75076  23.561  22.011   3.777
13414W        W75077  18.295  26.479  11.471
13415W        W75078  38.920   1.950   4.342
13416W        W75079   3.405  41.972   0.303
13417W        W75080  42.381  15.306  14.977
13418W        W75081   8.202  34.117  14.860
13419W        W75082   9.150  14.818   1.363
13420W        W75083  38.977  35.926   9.954
13421W        W75084  34.032   6.336   2.737
13422W        W75085  26.158  11.669   3.344
13423W        W75086  16.161  10.356   0.321
13424W        W75087  44.949  22.675   1.347
13425W        W75088  37.499  28.637   4.777
13426W        W75089  13.226  17.162  10.619
13427W        W75090  28.071  44.913  14.909
13428W        W75091  10.186  29.655  11.931
13429W        W75092  25.968  32.633  12.549
13430W        W75093  36.475  11.177   1.766
13431W        W75094  38.874  24.630   3.368
13432W        W75095  13.160  17.769   2.677
13433W        W75096  12.135   0.892  14.286
13434W        W75097  15.705  38.351  11.586
13435W        W75098  32.533  32.900  10.949
13436W        W75099  19.677   2.384   4.750
13437W        W75100  29.445  44.292   0.783
13438W        W75101   1.335  40.013   1.229
13439W        W75102  28.106  11.133   0.333
13440W        W75103  19.134  32.463   4.760
13441W        W75104   2.765  39.446   2.379
13442W        W75105  27.998  34.865   4.820
13443W        W75106  29.984  32.424  11.577
13444W        W75107  26.500   7.417  10.584
13445W        W75108   6.192  11.349   3.163
13446W        W75109  31.481  33.012  12.844
13447W        W75110  21.222  24.015   0.943
13448W        W75111  37.004   7.849  13.410
13449W        W75112   4.737  41.932  13.892
13450W        W75113   3.758  24.555  14.871
13451W        W75114  10.252  28.060   1.802
13452W        W75115  25.666   8.261  14.942
13453W        W75116  11.661  34.455  11.999
13454W        W75117   6.826  37.431   4.150
13455W        W75118   7.229  15.294  13.983
13456W        W75119   1.850  12.137   4.724
13457W        W75120  40.521  12.153   2.232
13458W        W75121  20.042  32.594   0.958
13459W        W75122   0.799  23.566  11.105
13460W        W75123  18.544   7.411   4.122
13461W        W75124  27.945  24.487   4.310
13462W        W75125  12.669  42.793   1.403
13463W        W75126   4.825  13.630   3.283
13464W        W75127   8.333  43.787  10.897
13465W        W75128  22.123  38.335   3.840
13466W        W75129   8.682   3.856   2.232
13467W        W75130   9.240  43.484  14.978
13468W        W75131  41.516  26.951  11.378
13469W        W75132  17.662  18.580  11.418
13470W        W75133  37.910   0.888  13.883
13471W        W75134  37.064   1.351   4.142
13472W        W75135  22.090  17.094   2.236
13473W        W75136  40.468   7.415   2.382
13474W        W75137  18.734   3.844   1.340
13475W        W75138  22.240   0.287  14.802
13476W        W75139  32.096  20.140  14.825
13477W        W75140  37.928  43.485  11.865
13478W        W75141  10.656  42.515  12.486
13479W        W75142  17.664   2.354   1.296
13480W        W75143   1.883  37.857   1.703
13481W        W75144  29.558   6.729   1.433
13482W        W75145   8.180  14.738   2.826
13483W        W75146  34.107  39.348  10.542
13484W        W75147  34.089  29.151   0.327
13485W        W75148  39.404  23.668   1.711
13486W        W75149  42.029  12.680  14.380
13487W        W75150  14.791  30.947  12.908
13488W        W75151  31.536  14.284   1.418
13489W        W75152   0.877  32.566  10.552
13490W        W75153  28.076  19.543  12.018
13491W        W75154  11.257   7.299  11.433
13492W        W75155  32.906   1.325  10.467
13493W        W75156  29.542   2.912  14.373
13494W        W75157  10.242   8.266   3.813
13495W        W75158   8.310  25.483  14.332
13496W        W75159  15.648  19.549  14.478
13497W        W75160   2.810  24.143  10.462
13498W        W75161  38.378  37.901  14.444
13499W        W75162  26.098  30.032  12.377
13500W        W75163  30.442  18.081  14.325
13501W        W75164  41.928   0.981  11.877
13502W        W75165  17.584   1.242  13.805
13503W        W75166   5.349  40.322   1.896
13504W        W75167   3.309  30.462  14.504
13505W        W75168   7.259  24.144  11.525
13506W        W75169  10.713  36.421   1.757
13507W        W75170  24.039   2.792   2.769
13508W        W75171  33.013  14.155  14.851
13509W        W75172  15.681  43.306   5.309
13510W        W75173  33.512  15.265   1.730
13511W        W75174  24.055  41.890   3.815
13512W        W75175  38.927  44.999  11.492
13513W        W75176  23.198  42.013  14.377
13514W        W75177   5.806  39.827   2.336
13515W        W75178   3.941   4.208   1.694
13516W        W75179  13.191   0.903  13.308
13517W        W75180   4.363  13.649  11.033
13518W        W75181  10.791  24.009   0.894
13519W        W75182  10.196  10.213  10.451
13520W        W75183   4.415  16.181   0.368
13521W        W75184   1.288  15.085   1.910
13522W        W75185   3.751  24.723  10.596
13523W        W75186  31.585  35.520   1.921
13524W        W75187  15.605  38.428  13.794
13525W        W75188  21.088  21.516   1.382
13526W        W75189  32.491   3.400  13.977
13527W        W75190  22.601  33.391  12.903
13528W        W75191  31.946  35.489  12.016
13529W        W75192  40.852   0.744  14.877
13530W        W75193  18.550  23.124   1.809
13531W        W75194  26.107  25.566  11.611
13532W        W75195  42.779   3.270   4.752
13533W        W75196  21.065  27.614  14.418
13534W        W75197  39.883  18.770  13.033
13535W        W75198   5.815  41.390  12.076
13536W        W75199  24.217  24.079  14.361
13537W        W75200  25.166   1.942  12.414
13538W        W75201  31.069  40.043   0.327
13539W        W75202  39.905  29.053  14.297
13540W        W75203  28.011  26.171  12.030
13541W        W75204   5.893   8.835   3.808
13542W        W75205   8.761  40.933   3.371
13543W        W75206  19.705  32.973  14.964
13544W        W75207  28.010  25.140  14.332
13545W        W75208   7.728  30.616   2.752
13546W        W75209   9.214  38.393   2.725
13547W        W75210  41.375   0.799  12.519
13548W        W75211   1.947  34.450  14.007
13549W        W75212  11.270  16.732   0.260
13550W        W75213  27.123  15.217   3.670
13551W        W75214  26.508  13.732  12.011
13552W        W75215  18.559   1.336   4.127
13553W        W75216  24.527  12.843   2.302
13554W        W75217  18.128  29.586  11.519
13555W        W75218  42.030   0.976   1.866
13556W        W75219  24.521  10.658   3.698
13557W        W75220  38.903  13.743  10.136
13558W        W75221  37.459  40.922   3.270
13559W        W75222   6.854   9.245   3.677
13560W        W75223   2.877  39.896  12.363
13561W        W75224  12.359  21.529  14.767
13562W        W75225  28.569  31.611   0.734
13563W        W75226  36.865   9.825  13.051
13564W        W75227  24.569  42.418  12.033
13565W        W75228  38.963   1.942  11.596
13566W        W75229   2.884  32.441  11.060
13567W        W75230  17.147   7.704  12.912
13568W        W75231  36.879  30.440  12.533
13569W        W75232   4.397  27.536  11.412
13570W        W75233   1.868  38.443   2.332
13571W        W75234   7.899  20.565  12.866
13572W        W75235  20.642  29.632   0.300
13573W        W75236  43.304  10.373   3.273
13574W        W75237  16.568  42.413  12.445
13575W        W75238  27.622   7.750  11.079
13576W        W75239  37.894   9.722  13.000
13577W        W75240   1.806  39.922  12.576
13578W        W75241   7.297  26.621   9.969
13579W        W75242  38.546  32.450   1.929
13580W        W75243  39.039  27.016  13.989
13581W        W75244  28.148  24.583  11.424
13582W        W75245  36.525  20.147  12.838
13583W        W75246  13.208  36.992  12.468
13584W        W75247   5.325  38.489   0.814
13585W        W75248  35.994  23.020   2.869
13586W        W75249   8.735  36.896  14.937
13587W        W75250   6.363  22.063   4.254
13588W        W75251  11.242  10.225  14.013
13589W        W75252  20.530  11.855   1.242
13590W        W75253  34.484  36.592  11.916
13591W        W75254  28.529  34.997  11.954
13592W        W75255  14.770  15.654   2.672
13593W        W75256  21.598  30.547  12.987
13594W        W75257   0.917  30.962  12.391
13595W        W75258  11.629  18.154   3.740
13596W        W75259   4.885  18.136  14.360
13597W        W75260  22.189  12.158   3.336
13598W        W75261  35.548  22.646  12.384
13599W        W75262   7.678  39.035   5.235
13600W        W75263   2.927  33.883   0.395
13601W        W75264  21.644  36.502  12.575
13602W        W75265  10.690  44.274  10.521
13603W        W75266  44.829  30.459   4.617
13604W        W75267   1.321  16.259  11.117
13605W        W75268  43.768  11.322   3.833
13606W        W75269  44.835  39.882  13.058
13607W        W75270  23.103  37.569   1.264
13608W        W75271   0.361  22.135   0.407
13609W        W75272  18.235   3.447  12.079
13610W        W75273  10.849  11.317  10.499
13611W        W75274  17.136  41.421   3.814
13612W        W75275  27.157  15.285  14.485
13613W        W75276   3.877  25.525  14.974
13614W        W75277  15.639  36.363   0.737
13615W        W75278  33.047  13.693   1.331
13616W        W75279  34.085  40.444  12.510
13617W        W75280   0.915   9.231  14.834
13618W        W75281  41.391  34.922  10.583
13619W        W75282  17.202  39.010   4.791
13620W        W75283  35.857   5.425  12.030
13621W        W75284   6.740  40.315  10.629
13622W        W75285  15.252  33.030  13.949
13623W        W75286   2.390   0.839   3.698
13624W        W75287  22.690   3.447  13.819
13625W        W75288  39.537  14.740  10.431
13626W        W75289  42.927  12.688  12.513
13627W        W75290   4.777  36.426  11.020
13628W        W75291  18.715  40.029   3.338
13629W        W75292  25.134  28.184   3.682
13630W        W75293  38.900  20.150   0.877
13631W        W75294  18.193  43.381   0.411
13632W        W75295  38.350  20.141   3.668
13633W        W75296   8.823  29.160   3.815
13634W        W75297  19.098  13.768  14.814
13635W        W75298  12.852  40.324  12.084
13636W        W75299   1.855   1.864  12.365
13637W        W75300  37.039  34.054   2.690
13638W        W75301   3.275   6.251  11.432
13639W        W75302  31.496  19.195  14.966
13640W        W75303  16.606  42.456  12.014
13641W        W75304   8.277   1.350  12.358
13642W        W75305  39.971  21.211   5.241
13643W        W75306  43.469  40.378   2.262
13644W        W75307  18.565  18.597  12.842
13645W        W75308  44.482  10.655  14.975
13646W        W75309  20.529  11.713  12.527
13647W        W75310  39.315  36.587  14.940
13648W        W75311  44.006  44.333  12.996
13649W        W75312  21.254  14.711   2.779
13650W        W75313   9.867  36.397   1.760
13651W        W75314   4.406  15.205   1.801
13652W        W75315  34.581  12.280  12.478
13653W        W75316  43.420  39.952  14.296
13654W        W75317  23.588  20.161   4.710
13655W        W75318  30.935  26.533   5.217
13656W        W75319   1.971  44.844  14.837
13657W        W75320  11.712  36.029  12.917
13658W        W75321  25.611   0.280   4.259
13659W        W75322   6.677  14.593   2.785
13660W        W75323  42.818  10.293  11.373
13661W        W75324  25.026  28.558  14.976
13662W        W75325  44.755  36.030  14.458
13663W        W75326  43.329   9.698  13.027
13664W        W75327   9.834   7.888  11.598
13665W        W75328  34.504  41.024  11.458
13666W        W75329  34.954  37.428  14.977
13667W        W75330  34.571  43.381   3.283
13668W        W75331  11.276  35.079   3.785
13669W        W75332  37.530  43.373   5.277
13670W        W75333   6.206  36.978  12.449
13671W        W75334  23.628   6.676   0.433
13672W        W75335  28.076   5.702  10.549
13673W        W75336  29.649  41.871  10.621
13674W        W75337  36.549  22.019   4.659
13675W        W75338   1.799  37.467  12.009
13676W        W75339  39.858  22.166   3.299
13677W        W75340  15.726  40.914  11.449
13678W        W75341  38.454  30.647  13.411
13679W        W75342  39.968  10.154  11.477
13680W        W75343  19.200  36.420   1.334
13681W        W75344  11.785  10.246  10.132
13682W        W75345  14.302   0.744  13.905
13683W        W75346  28.667  14.125   3.827
13684W        W75347  41.309   8.762   4.159
13685W        W75348  25.185  31.531   2.249
13686W        W75349  39.535   3.435  12.485
13687W        W75350  23.019  20.096  11.444
13688W        W75351  15.157  14.747  14.310
13689W        W75352  34.481  27.138  11.865
13690W        W75353  13.120   8.329  14.314
13691W        W75354  38.390  22.686  13.939
13692W        W75355   4.394  29.062  10.558
13693W        W75356   2.368  18.669   1.869
13694W        W75357  22.098   2.821   2.783
13695W        W75358  41.826   8.720  11.545
13696W        W75359  41.821  18.089   3.323
13697W        W75360  12.328  23.156   0.813
13698W        W75361  16.120   3.927   2.860
13699W        W75362  31.419  29.148   4.813
13700W        W75363  34.901  25.507  14.340
13701W        W75364  30.142  38.072   3.361
13702W        W75365  24.622  19.211   4.122
13703W        W75366  43.412  39.910   2.238
13704W        W75367  23.045   5.921  10.434
13705W        W75368  20.616  14.256  11.913
13706W        W75369  14.191   2.234  13.049
13707W        W75370  13.259  41.908   1.369
13708W        W75371  21.061  19.566   0.320
13709W        W75372   0.388  34.553   0.913
13710W        W75373  22.688  16.084   1.403
13711W        W75374  24.493  11.174   1.309
13712W        W75375   1.820   5.405  14.318
13713W        W75376   3.825  35.436   3.826
13714W        W75377   9.793  11.178   1.798
13715W        W75378   9.309  14.825   2.687
13716W        W75379  18.582  18.093  11.378
13717W        W75380  19.595   0.407   1.327
13718W        W75381  19.219   0.481   4.291
13719W        W75382  24.480  44.781   3.222
13720W        W75383   8.893  41.371  11.501
13721W        W75384  24.017  39.933   2.375
13722W        W75385   5.324  42.903   0.889
13723W        W75386  27.055  42.883  11.002
13724W        W75387  20.556   9.230   2.221
13725W        W75388  11.140  25.680   3.316
13726W        W75389  12.285   6.689  10.935
13727W        W75390  28.627  32.512   0.346
13728W        W75391  17.133  22.135  10.636
13729W        W75392   8.395   5.852  10.467
13730W        W75393  35.450  12.186   4.694
13731W        W75394  15.630  40.013   0.874
13732W        W75395  21.691  22.528  14.799
13733W        W75396  26.591   8.862  13.857
13734W        W75397  37.564  24.984  11.413
13735W        W75398  14.758  26.144  14.279
13736W        W75399  42.799  39.484  12.576
13737W        W75400   8.222  16.582   0.283
13738W        W75401  18.743  40.912   3.209
13739W        W75402  29.605  36.411   2.269
13740W        W75403   5.861  29.958  12.968
13741W        W75404  25.133  39.549   0.429
13742W        W75405  44.421  17.790   3.366
13743W        W75406  35.075  26.120   2.884
13744W        W75407  36.049  27.114   0.783
13745W        W75408  27.116  13.825  14.779
13746W        W75409   0.894  42.872  14.277
13747W        W75410  18.746   6.414  13.414
13748W        W75411   6.283   3.862  12.477
13749W        W75412  41.944   9.372  12.546
13750W        W75413   6.258  30.600  14.372
13751W        W75414  27.460  34.971  13.380
13752W        W75415  44.313   5.806  12.574
13753W        W75416  20.708   3.740   3.258
13754W        W75417  38.825  34.949  11.051
13755W        W75418   7.849  23.106  10.423
13756W        W75419  11.271  31.481   4.330
13757W        W75420   0.280  12.795   0.288
13758W        W75421  28.981  11.128   4.603
13759W        W75422  28.493  21.031  12.889
13760W        W75423  33.878  40.049   1.809
13761W        W75424   1.414  13.207  11.526
13762W        W75425  32.494  29.131  13.538
13763W        W75426   0.838   4.865   3.675
13764W        W75427  19.123  18.634  12.024
13765W        W75428   9.728   7.359  12.503
13766W        W75429  10.672  13.193  12.923
13767W        W75430   4.295  38.938  12.067
13768W        W75431   7.868  19.696  12.429
13769W        W75432  14.126  33.109   1.443
13770W        W75433   8.883  42.010  14.960
13771W        W75434  23.612  23.649  13.017
13772W        W75435  34.887  17.614  14.402
13773W        W75436  36.449   9.854  12.856
13774W        W75437  27.133  16.148   0.831
13775W        W75438   8.318  14.300  13.968
13776W        W75439   4.422  44.449  12.022
13777W        W75440  15.189   7.750  11.545
13778W        W75441  33.024  23.622   3.737
13779W        W75442  30.575   0.441  13.338
13780W        W75443  28.535  24.997   3.307
13781W        W75444  31.991  10.679  14.397
13782W        W75445  27.081  34.415   1.412
13783W        W75446  31.998  30.126  11.497
13784W        W75447  29.984  21.697   1.835
13785W        W75448  10.341  25.671   0.301
13786W        W75449  23.523  21.233   2.664
13787W        W75450  44.498  41.875   5.165
13788W        W75451  44.284   8.748  11.400
13789W        W75452  31.471  29.435   3.635
13790W        W75453  36.047  11.315   2.409
13791W        W75454  14.326  38.995   5.313
13792W        W75455  36.555  30.118  14.776
13793W        W75456  31.554  44.820  14.924
13794W        W75457  18.176   6.744  13.057
13795W        W75458  36.541  31.006  10.517
13796W        W75459  15.662  30.093   2.245
13797W        W75460  34.897  33.893  13.529
13798W        W75461   3.428   8.859   1.376
13799W        W75462  29.533   8.861  13.325
13800W        W75463  10.825   6.775  10.571
13801W        W75464   3.714  30.490  10.091
13802W        W75465  18.683   4.933  12.532
13803W        W75466   3.912  37.515  12.933
13804W        W75467  44.793  18.203   1.885
13805W        W75468  31.094  17.767   4.206
13806W        W75469  43.980  41.946   2.900
13807W        W75470  42.874  14.313  14.381
13808W        W75471  35.988   8.738  11.929
13809W        W75472  29.473   3.752  12.925
13810W        W75473  41.944  28.591   2.782
13811W        W75474  11.824  43.885  14.882
13812W        W75475  42.840  10.729   2.334
13813W        W75476  30.018  40.812   3.813
13814W        W75477  15.323  14.792  13.486
13815W        W75478  20.758  28.578  13.388
13816W        W75479  12.645  30.618  12.492
13817W        W75480  37.005  31.088   0.889
13818W        W75481  24.026  14.202  13.491
13819W        W75482  23.132  27.088  13.822
13820W        W75483   1.282   3.821   1.756
13821W        W75484  17.647  28.144  12.094
13822W        W75485   0.955  41.294  14.945
13823W        W75486   8.790  11.701  13.977
13824W        W75487  41.888   2.230   3.374
13825W        W75488  32.438  42.906   4.336
13826W        W75489  36.571   4.286  12.528
13827W        W75490  25.604   4.300  10.434
13828W        W75491  15.103  36.545  12.339
13829W        W75492  31.511  31.418  13.852
13830W        W75493  33.945  18.697  14.405
13831W        W75494  20.632  20.076  13.331
13832W        W75495  42.897  38.922   4.663
13833W        W75496  29.423  37.951   3.859
13834W        W75497  40.813  37.541  13.501
13835W        W75498  35.389  36.539   2.358
13836W        W75499  34.893  31.637  12.843
13837W        W75500  42.520  34.069   0.764
13838W        W75501  32.451   8.656   4.244
13839W        W75502  19.168   0.474   2.790
13840W        W75503  11.310  20.765   2.331
13841W        W75504  40.818  41.352   0.909
13842W        W75505  43.774  35.462   3.707
13843W        W75506   7.713  31.016   4.613
13844W        W75507  32.009  14.765  13.538
13845W        W75508  15.230  29.934   2.840
13846W        W75509  44.344  15.750   1.811
13847W        W75510  15.630  30.129   4.190
13848W        W75511  25.705  17.576  12.871
13849W        W75512  22.564  25.183  11.559
13850W        W75513  20.670  16.748   4.233
13851W        W75514  29.033  23.015   2.383
13852W        W75515  42.428  14.132  13.961
13853W        W75516  26.578  31.599  12.044
13854W        W75517  40.870  13.781   0.433
13855W        W75518  13.800  39.906   1.839
13856W        W75519  13.700   6.795  12.531
13857W        W75520  34.989  22.725   4.631
13858W        W75521  39.864  25.492  14.296
13859W        W75522   0.257   3.763  14.819
13860W        W75523  21.568  29.936  12.037
13861W        W75524   6.204  35.062  11.386
13862W        W75525  21.749  29.166  13.797
13863W        W75526  17.153  18.665   1.345
13864W        W75527  18.205  33.420  12.371
13865W        W75528  42.379   0.324   3.805
13866W        W75529  37.923  34.977  12.999
13867W        W75530   7.824  38.903  13.868
13868W        W75531  30.161  41.986   0.286
13869W        W75532   2.254   2.735   4.672
13870W        W75533  22.725  27.166  13.525
13871W        W75534  12.243  20.693   2.238
13872W        W75535  13.249  22.650  14.963
13873W        W75536  14.712  14.789   0.474
13874W        W75537  33.038  39.953  10.420
13875W        W75538  21.042  14.299  12.022
13876W        W75539  30.920  35.541   2.228
13877W        W75540  14.230  11.762  10.636
13878W        W75541  36.070  36.430  14.397
13879W        W75542  10.662  15.218  10.610
13880W        W75543  18.185   3.876   4.709
13881W        W75544  37.932   5.745  12.428
13882W        W75545  36.522  35.892   1.252
13883W        W75546  41.474  29.602   5.300
13884W        W75547  13.599   5.881  11.086
13885W        W75548  20.188   6.762  11.597
13886W        W75549  31.608  20.727   2.318
13887W        W75550   7.245  43.970   1.407
13888W        W75551  22.135  12.161   1.407
13889W        W75552   4.250  16.232  13.529
13890W        W75553  38.986   6.830  13.478
13891W        W75554  39.540  41.386  14.949
13892W        W75555  31.143   0.790  11.018
13893W        W75556  14.109  12.262   3.347
13894W        W75557  30.575   3.834   1.413
13895W        W75558  29.152  16.738  13.380
13896W        W75559  39.404  22.110   4.196
13897W        W75560  40.897   6.243   2.801
13898W        W75561  11.206  41.901   2.704
13899W        W75562   7.751  23.565  14.938
13900W        W75563  23.703  42.340   2.295
13901W        W75564  29.944  39.407   0.877
13902W        W75565   5.196  13.274  12.849
13903W        W75566  40.979  40.849  14.985
13904W        W75567   8.714  42.360   4.223
13905W        W75568  35.386  40.540   0.469
13906W        W75569  13.169  21.188  14.422
13907W        W75570  43.468  34.990   1.297
13908W        W75571  38.377  32.620  11.918
13909W        W75572  40.801  37.404   1.376
13910W        W75573  21.646  36.565   1.845
13911W        W75574  27.946   9.205   3.712
13912W        W75575  11.791  16.079  11.386
13913W        W75576   4.789  27.968   4.188
13914W        W75577  26.489  12.132   0.802
13915W        W75578  30.412  31.986   3.658
13916W        W75579  44.780  33.596  13.424
13917W        W75580  18.636  44.887  14.975
13918W        W75581  31.473  37.833   2.367
13919W        W75582  36.983   0.480   2.199
13920W        W75583  32.993  14.694  11.908
13921W        W75584   5.908  24.557  14.315
13922W        W75585  27.106  13.183   4.748
13923W        W75586  24.489  38.386   3.364
13924W        W75587  28.016  15.296   0.837
13925W        W75588  26.634  19.706  11.932
13926W        W75589  23.033  43.944  11.016
13927W        W75590  24.543  38.821  11.564
13928W        W75591  40.433  41.822  11.415
13929W        W75592   4.298   1.357   2.327
13930W        W75593  16.080  25.588   1.384
13931W        W75594  36.517  29.003  10.433
13932W        W75595  27.646  13.706   1.381
13933W        W75596  11.826  27.947   4.619
13934W        W75597  39.050  12.157  13.380
13935W        W75598  38.435  33.596   1.355
13936W        W75599  14.594  13.691   4.662
13937W        W75600  22.091  40.501   3.763
13938W        W75601  23.128   9.878  11.537
13939W        W75602  35.966  35.499   3.372
13940W        W75603  19.598  44.425   3.384
13941W        W75604  41.361  40.879   4.833
13942W        W75605  43.963  27.539  11.987
13943W        W75606  13.240   5.417  11.426
13944W        W75607  37.025  24.619   0.284
13945W        W75608  40.385   2.402   4.689
13946W        W75609  22.112  10.182   4.820
13947W        W75610   0.926  30.924  11.856
13948W        W75611  25.546  17.271  12.428
13949W        W75612   2.748  32.494   2.765
13950W        W75613   0.378  33.041   4.177
13951W        W75614   0.456  43.475   2.682
13952W        W75615  37.494  36.958   0.364
13953W        W75616  16.182  16.621  13.816
13954W        W75617  24.020  18.251  11.082
13955W        W75618   4.411  29.596  11.898
13956W        W75619  44.774  20.652  11.981
13957W        W75620  22.666  42.438   4.685
13958W        W75621  33.446  34.901  13.375
13959W        W75622  26.034  20.607   3.774
13960W        W75623  22.172   4.425  12.096
13961W        W75624  16.121  21.060   1.823
13962W        W75625  13.141  19.592   4.828
13963W        W75626   9.771  32.616  11.104
13964W        W75627  44.389   7.850  11.401
13965W        W75628  33.426  39.035  10.150
13966W        W75629  18.638  39.934  11.602
13967W        W75630  31.595   9.367  11.376
13968W        W75631  26.557  13.796   2.894
13969W        W75632  10.838  16.662   3.167
13970W        W75633  29.456  22.018   0.381
13971W        W75634  10.746  12.266   3.781
13972W        W75635  37.440  35.525  13.055
13973W        W75636   4.910   9.661   1.791
13974W        W75637  25.018  19.673   0.748
13975W        W75638  25.009  41.035   3.639
13976W        W75639  37.527  11.301   3.186
13977W        W75640  23.599  22.117  10.019
13978W        W75641   0.875  25.706   1.412
13979W        W75642  11.232  30.077  10.413
13980W        W75643  34.000  44.439  11.891
13981W        W75644  15.189  21.596  10.994
13982W        W75645  18.693  15.328   0.789
13983W        W75646  43.391  42.449   4.283
13984W        W75647  37.941  16.175   1.397
13985W        W75648  13.301   6.909  10.981
13986W        W75649   7.325  25.026  13.493
13987W        W75650  35.559   8.302   2.222
13988W        W75651  38.352  26.067  14.290
13989W        W75652  41.035  27.610   2.263
13990W        W75653   9.170  16.262  12.989
13991W        W75654  16.667   0.357   1.285
13992W        W75655  40.461   9.168   4.333
13993W        W75656  23.536   4.857  12.484
13994W        W75657  18.713  16.587   3.352
13995W        W75658  12.146  31.547  11.999
13996W        W75659  13.137  10.182  11.041
13997W        W75660  10.328  40.957   3.788
13998W        W75661  22.736  40.925   3.837
13999W        W75662  35.595   8.309   2.828
14000W        W75663  28.154  35.949   4.141
14001W        W75664  28.141  11.727   1.265
14002W        W75665  39.933  11.656  14.446
14003W        W75666  27.650  32.474  13.312
14004W        W75667  18.272  37.444  11.105
14005W        W75668  13.154  26.108  14.471
14006W        W75669  22.175   3.894  14.375
14007W        W75670   9.693  38.068   4.693
14008W        W75671  34.499  24.560   4.784
14009W        W75672  21.119  20.209   1.835
14010W        W75673  33.904   5.928   2.742
14011W        W75674  17.757  12.162  11.609
14012W        W75675  22.701  44.264   0.244
14013W        W75676  23.564   6.249  10.419
14014W        W75677   0.264  34.542   4.642
14015W        W75678  21.185  37.541   0.959
14016W        W75679  39.387  19.062   1.376
14017W        W75680  13.163  30.996  14.883
14018W        W75681  16.302   3.940  13.499
14019W        W75682   3.233  37.549   0.339
14020W        W75683   4.942   0.490  10.640
14021W        W75684   8.359  13.631  12.442
14022W        W75685  17.746  37.893   0.278
14023W        W75686   3.732  11.250  14.893
14024W        W75687  18.113  25.974   1.342
14025W        W75688  38.821  11.791   4.775
14026W        W75689  28.507  25.604   2.338
14027W        W75690  32.510  41.015  13.809
14028W        W75691  27.518  44.361  11.498
14029W        W75692  37.563  19.192  13.973
14030W        W75693   9.266  30.510   1.283
14031W        W75694  20.538  39.975   2.761
14032W        W75695  38.829  13.236  11.861
14033W        W75696  35.482  39.834   3.659
14034W        W75697  16.624   7.848   4.705
14035W        W75698  39.959   2.456  13.480
14036W        W75699  20.540  42.895  12.849
14037W        W75700  32.614  33.510   0.467
14038W        W75701   8.890   7.400  12.971
14039W        W75702   3.871  27.610   0.760
14040W        W75703  24.584  15.193   1.863
14041W        W75704  33.884  29.102  11.490
14042W        W75705  33.481  12.319  11.491
14043W        W75706  33.534  31.507  12.367
14044W        W75707   8.786  26.031  12.034
14045W        W75708  27.176  22.138   4.667
14046W        W75709  28.929  11.311   1.271
14047W        W75710  17.103  31.473   1.363
14048W        W75711  34.964  15.607  14.899
14049W        W75712  39.487  32.394  12.906
14050W        W75713  21.132  19.244   1.384
14051W        W75714  27.521  31.631   1.386
14052W        W75715  22.677  43.878   4.736
14053W        W75716  42.353  21.609  10.531
14054W        W75717   5.779  28.970  14.877
14055W        W75718  16.652  34.897  12.025
14056W        W75719  21.641   2.457   2.887
14057W        W75720   3.350  38.961  13.509
14058W        W75721  14.760  24.606   2.343
14059W        W75722  37.369   0.401   1.391
14060W        W75723  32.954  39.052  12.035
14061W        W75724  20.165   6.861  11.039
14062W        W75725  21.185  10.310  11.418
14063W        W75726  19.660   0.889   0.865
14064W        W75727  14.303  19.156  14.001
14065W        W75728  37.983   9.795  11.094
14066W        W75729  21.711  30.508  11.451
14067W        W75730  19.670  25.090   3.722
14068W        W75731  41.507   9.860   3.639
14069W        W75732  44.409   6.819  11.596
14070W        W75733  32.072  42.859  10.002
14071W        W75734  29.538  36.525   3.242
14072W        W75735  20.531  36.410  10.519
14073W        W75736  30.582  37.518   4.717
14074W        W75737  37.984   9.205  14.345
14075W        W75738  41.297  42.376   0.795
14076W        W75739  26.033  21.032  13.947
14077W        W75740  38.943   7.178   9.965
14078W        W75741   9.785  21.656  14.393
14079W        W75742  12.282  23.095   0.478
14080W        W75743  22.242   9.756   4.650
14081W        W75744  31.015  13.684   3.188
14082W        W75745   7.213   1.260  12.997
14083W        W75746   0.929  41.478  12.956
14084W        W75747  42.352  26.653   3.344
14085W        W75748   9.313  22.612   4.619
14086W        W75749   3.792  29.032   3.341
14087W        W75750  44.947   8.189   0.775
14088W        W75751  12.217  34.586   0.730
14089W        W75752  13.136  33.462  13.811
14090W        W75753  23.985  37.481   3.769
14091W        W75754  14.217  23.082  14.279
14092W        W75755  11.209  36.878  12.905
14093W        W75756   0.949  41.462  11.931
14094W        W75757   0.761  31.958   1.221
14095W        W75758  22.648   7.724   0.965
14096W        W75759  28.080  30.545   5.165
14097W        W75760   4.803   3.240   0.819
14098W        W75761  43.365  34.873  14.876
14099W        W75762  31.131  36.361  14.902
14100W        W75763  16.590  32.567  12.419
14101W        W75764  17.674   5.433  14.806
14102W        W75765  32.093  43.981   0.330
14103W        W75766  11.260   2.246   4.236
14104W        W75767  36.517  14.118  10.972
14105W        W75768  42.811  27.956  13.822
14106W        W75769  21.531  22.533   3.870
14107W        W75770  23.678  20.709   2.233
14108W        W75771  10.675  43.448  10.516
14109W        W75772  17.786  21.677   0.252
14110W        W75773  29.940  17.723  12.366
14111W        W75774  17.781   3.841  12.036
14112W        W75775  11.240  25.583  14.464
14113W        W75776  42.456  28.000   1.417
14114W        W75777  34.433  44.900  10.534
14115W        W75778   3.717  13.182  13.397
14116W        W75779  32.954  13.152   2.785
14117W        W75780   7.382   4.942  11.541
14118W        W75781  23.158  42.288   4.264
14119W        W75782  36.542  33.521   2.846
14120W        W75783  40.913  27.969  10.443
14121W        W75784  19.579  39.041   5.232
14122W        W75785  42.452  25.603  14.327
14123W        W75786   8.386  13.145   3.840
14124W        W75787  16.164  32.077  11.438
14125W        W75788  18.180   8.277   4.661
14126W        W75789  28.169  44.296   3.795
14127W        W75790   9.873  32.933   3.658
14128W        W75791  17.114  40.508   0.809
14129W        W75792  33.088  20.274   2.667
14130W        W75793  13.314  43.516  12.510
14131W        W75794  11.350  32.988  10.478
14132W        W75795  42.961  34.963   1.261
14133W        W75796   4.446  44.377  13.374
14134W        W75797   8.347  10.690  14.018
14135W        W75798   4.706  26.494  11.951
14136W        W75799   3.219  31.575  11.982
14137W        W75800  23.620   3.897   3.776
14138W        W75801  42.303  43.954   4.167
14139W        W75802  39.376  33.086  13.950
14140W        W75803   1.399  21.029   0.376
14141W        W75804  10.757  37.973   4.148
14142W        W75805  18.292  43.401   2.688
14143W        W75806  18.286  34.102   0.479
14144W        W75807  31.532  16.237  12.568
14145W        W75808  17.301  25.613  10.434
14146W        W75809  32.997   2.962   0.923
14147W        W75810  40.920  23.117  13.857
14148W        W75811  24.029  32.491   0.899
14149W        W75812   8.728  30.455   3.368
14150W        W75813   1.459  13.281   1.391
14151W        W75814  43.361  10.268  14.439
14152W        W75815  26.477  43.827   3.380
14153W        W75816  18.212  25.621  10.498
14154W        W75817  13.280  22.126  13.850
14155W        W75818  33.459  29.020  11.927
14156W        W75819  18.235   6.267   3.681
14157W        W75820  28.942  11.160  12.932
14158W        W75821   7.838  13.782  11.945
14159W        W75822  44.344  37.015  10.919
14160W        W75823  30.511  18.586   0.814
14161W        W75824  24.005  42.858  12.889
14162W        W75825  42.456  37.385   0.962
14163W        W75826  32.981  15.684   1.383
14164W        W75827  33.061  41.373   0.848
14165W        W75828  28.673  12.330  14.463
14166W        W75829  32.001  37.525   1.749
14167W        W75830  41.912  21.257  14.425
14168W        W75831  16.652  38.542   2.313
14169W        W75832  11.165  14.282  13.061
14170W        W75833  10.754  20.258  14.473
14171W        W75834  43.828   9.308   3.302
14172W        W75835   6.402   9.842  13.986
14173W        W75836  25.623  31.422  10.901
14174W        W75837   2.282  15.649  13.434
14175W        W75838   0.977  27.191  11.028
14176W        W75839  32.036  36.432  12.944
14177W        W75840  23.127  12.224  12.424
14178W        W75841  21.171  21.047  10.563
14179W        W75842  17.257  36.443   3.307
14180W        W75843  22.018  44.428   2.667
14181W        W75844  20.237  21.232  13.391
14182W        W75845  41.935  24.548  14.025
14183W        W75846  25.174  31.952  14.350
14184W        W75847  17.648  25.566  14.306
14185W        W75848  13.195  42.485   2.669
14186W        W75849   8.179  39.445   2.317
14187W        W75850   8.804  16.230   3.195
14188W        W75851  24.061  18.595   2.231
14189W        W75852  10.324  24.145  10.909
14190W        W75853  44.306   8.293  14.297
14191W        W75854   4.206   4.766  14.311
14192W        W75855  26.075  37.382  12.500
14193W        W75856  31.423  19.282   1.902
14194W        W75857  16.165  43.893  12.995
14195W        W75858  35.531   7.186   2.391
14196W        W75859  32.045   8.259  10.504
14197W        W75860  17.180  32.966   2.218
14198W        W75861  18.151  42.971   4.814
14199W        W75862  20.758  25.046  12.869
14200W        W75863  28.072  31.119  14.789
14201W        W75864   8.716  12.262  12.952
14202W        W75865   2.270  37.837  12.947
14203W        W75866  10.709   1.877  14.908
14204W        W75867   5.404  17.724  14.509
14205W        W75868  36.493  14.658   2.197
14206W        W75869  39.982  20.625   2.693
14207W        W75870   7.677   5.369  12.010
14208W        W75871  44.925   8.698   3.814
14209W        W75872  21.069  41.481  12.377
14210W        W75873  39.822  35.036  10.623
14211W        W75874  33.532  14.785   2.409
14212W        W75875   6.703  25.055   3.337
14213W        W75876  23.504  26.649  11.870
14214W        W75877   6.740   9.238  10.418
14215W        W75878  15.260  24.579   0.295
14216W        W75879   9.297  14.334   2.731
14217W        W75880   8.753   6.845   0.283
14218W        W75881   4.865  34.606  10.494
14219W        W75882  21.215   5.756   3.674
14220W        W75883  44.909   0.275   0.833
14221W        W75884  43.284  42.006   1.447
14222W        W75885  30.624  16.221   4.166
14223W        W75886  32.117  39.043  14.810
14224W        W75887  30.097  17.603  10.537
14225W        W75888  40.915  44.986   3.160
14226W        W75889  19.258  38.442  10.995
14227W        W75890  38.018  43.847  14.758
14228W        W75891   4.296  18.181  13.016
14229W        W75892  29.543  26.522  13.475
14230W        W75893  20.113  36.879   4.353
14231W        W75894   0.930  17.745   1.221
14232W        W75895  25.004  33.412   2.769
14233W        W75896   6.695   8.243  14.878
14234W        W75897  27.986  28.633  11.922
14235W        W75898  42.400   2.345   2.237
14236W        W75899  33.507  17.689   4.766
14237W        W75900  11.352  12.686   2.404
14238W        W75901  38.540  33.109   0.855
14239W        W75902  40.479  30.466  13.886
14240W        W75903   7.200  19.598  13.958
14241W        W75904   5.201  38.492  13.825
14242W        W75905  15.307  25.604   3.779
14243W        W75906  35.525  41.905  12.910
14244W        W75907  28.181  16.110  10.443
14245W        W75908  15.781  28.117   1.237
14246W        W75909  11.209  36.914   0.314
14247W        W75910   1.945  40.495  11.095
14248W        W75911  24.027  41.449  11.600
14249W        W75912   2.298   6.423   4.763
14250W        W75913  28.452  20.642  11.988
14251W        W75914   3.951  43.487  12.841
14252W        W75915  26.969  10.330  14.499
14253W        W75916   9.680  26.997   4.319
14254W        W75917  29.996  13.129  13.955
14255W        W75918   5.731  18.064   2.806
14256W        W75919  43.486  17.791   0.338
14257W        W75920  15.736   5.829   4.115
14258W        W75921  25.126  33.010  14.769
14259W        W75922  33.392  25.566   4.190
14260W        W75923  17.170  16.721  14.784
14261W        W75924  25.536  37.481   2.381
14262W        W75925  40.305  22.076   1.855
14263W        W75926  31.039  21.186   0.315
14264W        W75927  10.160  28.639   0.880
14265W        W75928   6.719  42.517  13.020
14266W        W75929  32.019  11.210   2.722
14267W        W75930  28.932   1.254   1.731
14268W        W75931  36.058  31.938   3.774
14269W        W75932  16.579  11.299  10.617
14270W        W75933  40.899  41.041  11.510
14271W        W75934   1.272   6.404  10.534
14272W        W75935  10.199  21.171  13.510
14273W        W75936  41.843  23.618   4.793
14274W        W75937  12.738   8.821  11.124
14275W        W75938  15.095  15.617  12.074
14276W        W75939  20.236  10.150  12.926
14277W        W75940  15.581  19.631   0.825
14278W        W75941   4.216   0.393   2.742
14279W        W75942  32.437  34.542   0.934
14280W        W75943  18.081  43.998   3.717
14281W        W75944  33.437  32.023  10.594
14282W        W75945   8.282  41.364   2.691
14283W        W75946  19.047   1.275   2.712
14284W        W75947   2.270  33.941   1.714
14285W        W75948   8.877  42.287  13.997
14286W        W75949  29.665  28.463  10.581
14287W        W75950  17.098  28.498   1.746
14288W        W75951  36.963   8.202  14.860
14289W        W75952  15.592  25.036  12.520
14290W        W75953  32.961  41.454   1.443
14291W        W75954  41.436  40.351   0.783
14292W        W75955  36.539  22.608   0.414
14293W        W75956  31.905  32.427   1.449
14294W        W75957  36.984  35.427   4.705
14295W        W75958   6.304   3.392  11.029
14296W        W75959  44.412  28.067   5.105
14297W        W75960  31.490  35.571  12.427
14298W        W75961   6.865  12.705  11.605
14299W        W75962  27.583   7.354   2.239
14300W        W75963  14.318  20.749   4.647
14301W        W75964   3.454  35.041   3.177
14302W        W75965   5.873  33.606  14.801
14303W        W75966   6.892  17.783   1.922
14304W        W75967  27.136   4.355  14.290
14305W        W75968  31.972  41.008   1.733
14306W        W75969  14.740  27.189  14.896
14307W        W75970  37.966  35.574   1.310
14308W        W75971  23.695  31.602  14.335
14309W        W75972  10.368  36.478   2.778
14310W        W75973  42.775   1.956  12.886
14311W        W75974  11.310   4.764   0.284
14312W        W75975  20.546  35.004  12.942
14313W        W75976   7.222  43.377  10.437
14314W        W75977  36.568  12.837   4.780
14315W        W75978   5.380  40.345   3.765
14316W        W75979  21.219  34.967  12.845
14317W        W75980  40.548   2.871  10.644
14318W        W75981  29.552  38.936   3.778
14319W        W75982  44.859  15.321   3.761
14320W        W75983   6.274  36.069  14.317
14321W        W75984  37.960  11.712  10.890
14322W        W75985   7.374   8.706  14.401
14323W        W75986  30.430  41.305   3.150
14324W        W75987  25.618  18.656  14.966
14325W        W75988  20.097  24.987   0.777
14326W        W75989   0.427  38.065   4.756
14327W        W75990   6.183  26.651  11.610
14328W        W75991  42.393   9.385  14.825
14329W        W75992   3.791   4.274   4.736
14330W        W75993  23.051   5.853   4.195
14331W        W75994  41.806  25.086   2.349
14332W        W75995  19.251  30.517  13.459
14333W        W75996  35.593  23.513  12.084
14334W        W75997  28.166  14.652  11.484
14335W        W75998  43.941  28.477  13.896
14336W        W75999  29.464  44.368   5.315
14337W        W76000  21.171  38.524  14.414
14338W        W76001   9.235  43.387  10.905
14339W        W76002  18.590  17.776  10.614
14340W        W76003   9.809  39.418   2.679
14341W        W76004   3.765  16.645   2.702
14342W        W76005  42.990   3.762  14.953
14343W        W76006  35.997   5.890  11.092
14344W        W76007  35.452  17.646   4.217
14345W        W76008  29.007  22.248   3.255
14346W        W76009  25.068  41.292   3.252
14347W        W76010  36.489  26.515   2.273
14348W        W76011  12.736  29.136   4.684
14349W        W76012  15.602  25.087   4.656
14350W        W76013  38.524  12.688  14.763
14351W        W76014  33.127  26.158  13.930
14352W        W76015  23.500  29.126  13.534
14353W        W76016  43.915  39.883  12.442
14354W        W76017  10.248  12.310   2.186
14355W        W76018  43.772  25.217  10.644
14356W        W76019  32.899   4.409  11.375
14357W        W76020  40.430  19.223   2.308
14358W        W76021  36.867   1.335  13.810
14359W        W76022  17.226  19.578  10.102
14360W        W76023   0.409  24.213  13.372
14361W        W76024   2.934   5.777   1.886
14362W        W76025  39.008  38.823  14.298
14363W        W76026  35.085  21.183   1.820
14364W        W76027  44.905  34.971   3.355
14365W        W76028  29.502   5.409  14.375
14366W        W76029  24.124   6.763   3.716
14367W        W76030   4.208  37.881   0.282
14368W        W76031  26.572  23.157   0.255
14369W        W76032   9.252   1.858  10.598
14370W        W76033  23.066  14.644   3.159
14371W        W76034  19.103  42.854  14.943
14372W        W76035  14.745  29.667  14.428
14373W        W76036  44.967   3.884   4.803
14374W        W76037   2.263  25.527  10.917
14375W        W76038  40.967  38.820  11.934
14376W        W76039  14.117  33.478  12.498
14377W        W76040   5.884  27.178  12.445
14378W        W76041   7.812  21.645  11.539
14379W        W76042  40.870  39.547  12.884
14380W        W76043  39.370  19.138  14.335
14381W        W76044  15.199   8.181   4.755
14382W        W76045  36.047   0.917   0.853
14383W        W76046   3.912  28.949   2.899
14384W        W76047  24.565  12.303  14.774
14385W        W76048  10.220  43.839  14.903
14386W        W76049  40.484  26.521  10.514
14387W        W76050  24.012   2.754  12.478
14388W        W76051  26.612  16.606   1.372
14389W        W76052  28.438  42.378  13.950
14390W        W76053  15.705  42.310   3.780
14391W        W76054   7.822  29.090   0.415
14392W        W76055  13.277  33.592  11.936
14393W        W76056   7.753   5.719  12.566
14394W        W76057  19.649  17.628   4.680
14395W        W76058  21.206  14.177  13.013
14396W        W76059  17.125  35.539  11.893
14397W        W76060  13.271  26.037  11.017
14398W        W76061  12.348   4.393  11.597
14399W        W76062   0.391  19.170   1.927
14400W        W76063  31.466  34.099   4.833
14401W        W76064   3.851  14.161  12.405
14402W        W76065  39.808  40.395  11.422
14403W        W76066  38.435  31.505   1.277
14404W        W76067  16.114  39.554   2.807
14405W        W76068  16.806  40.949   4.301
14406W        W76069  35.555  38.409  12.841
14407W        W76070  18.675  26.007   1.803
14408W        W76071  44.844  17.685  11.412
14409W        W76072  38.343  29.446  12.553
14410W        W76073  15.650  22.198  10.022
14411W        W76074  40.353  36.083  14.956
14412W        W76075  15.794   3.919  11.498
14413W        W76076  39.981  41.525   2.307
14414W        W76077   4.913  13.699   2.831
14415W        W76078  21.143  13.199   1.295
14416W        W76079  41.914  43.478   3.640
14417W        W76080  16.233  22.706   3.386
14418W        W76081  39.543  17.283   3.665
14419W        W76082  14.708  29.038  11.382
14420W        W76083   8.268  38.865  10.977
14421W        W76084  26.598  32.517   5.273
14422W        W76085   3.375  34.607  13.489
14423W        W76086  36.034  13.768  14.976
14424W        W76087  19.533  39.039   1.865
14425W        W76088  22.647   6.295  11.091
14426W        W76089  23.624  14.732  11.505
14427W        W76090  39.061  30.933   4.277
14428W        W76091  12.223  28.990   4.275
14429W        W76092  28.950  16.701   4.319
14430W        W76093  40.034  26.589  13.430
14431W        W76094  35.947  41.402   1.422
14432W        W76095   5.751  40.952  14.837
14433W        W76096  18.285  31.046   0.758
14434W        W76097  40.048  19.691   1.432
14435W        W76098  31.644  31.979  14.373
14436W        W76099  35.517  41.833   0.438
14437W        W76100  28.075  27.602   9.957
14438W        W76101  39.441   5.923   0.760
14439W        W76102  38.429  21.235  12.825
14440W        W76103  44.323  17.694   0.414
14441W        W76104   7.818  37.368   1.379
14442W        W76105  19.582  11.338   0.420
14443W        W76106  20.139  41.355   3.200
14444W        W76107   8.324  37.021   2.869
14445W        W76108  33.008  29.539  11.008
14446W        W76109  38.050  44.848   4.180
14447W        W76110   6.217   2.376  13.034
14448W        W76111  37.580  14.302  10.948
14449W        W76112   5.812  37.441   1.855
14450W        W76113  30.585   2.831  10.522
14451W        W76114   9.266  35.521  12.463
14452W        W76115  28.557  42.974   1.245
14453W        W76116   6.708  40.347  11.479
14454W        W76117   6.323  19.226  14.981
14455W        W76118  13.298  24.610   4.266
14456W        W76119   8.168   9.156   2.262
14457W        W76120  10.311   9.770   2.262
14458W        W76121  25.121  44.983   0.831
14459W        W76122  35.380   0.492   3.718
14460W        W76123  26.969  18.624  10.441
14461W        W76124  31.041   5.314  13.515
14462W        W76125  39.827  38.465   2.867
14463W        W76126  38.033  44.355   0.782
14464W        W76127  41.456  32.990   3.253
14465W        W76128  40.425  40.982  14.872
14466W        W76129   3.319  41.314  14.347
14467W        W76130  37.948   0.486  11.959
14468W        W76131  35.472  38.533   0.835
14469W        W76132   9.375  26.486   2.284
14470W        W76133  25.166  20.754   1.371
14471W        W76134  27.557  11.643  12.853
14472W        W76135  43.829  32.488   3.240
14473W        W76136  24.707  18.135  10.607
14474W        W76137  24.980  18.634  14.982
14475W        W76138   5.758  39.479  12.826
14476W        W76139  41.973  30.561  12.355
14477W        W76140  33.003  30.131  12.940
14478W        W76141  10.719  10.637   2.279
14479W        W76142  32.398  16.616   3.196
14480W        W76143  11.306  11.626   0.324
14481W        W76144  41.985  27.159  13.867
14482W        W76145  24.599  24.516  11.026
14483W        W76146  15.685   0.966   2.388
14484W        W76147  16.144  44.484   0.384
14485W        W76148  44.760  31.963   0.379
14486W        W76149   4.402  24.047   2.298
14487W        W76150   1.447  36.878  11.946
14488W        W76151  34.491  27.046   4.276
14489W        W76152  39.924  27.468  14.419
14490W        W76153  25.636   4.335   2.296
14491W        W76154  35.420  38.457   2.859
14492W        W76155  18.203  34.542   3.258
14493W        W76156  35.894  34.556  13.487
14494W        W76157   7.348  11.240  11.374
14495W        W76158  30.610  31.536   4.660
14496W        W76159   8.712   2.886  14.327
14497W        W76160  18.567  30.118   0.315
14498W        W76161  38.956  24.654  12.977
14499W        W76162   0.377  27.549   3.639
14500W        W76163   9.188   6.694   0.295
14501W        W76164  37.359  23.518  12.552
14502W        W76165  11.199  29.006   3.824
14503W        W76166   0.849  15.662   0.387
14504W        W76167   5.238  38.829  11.058
14505W        W76168  40.516   2.774  12.358
14506W        W76169  11.717  34.522  14.965
14507W        W76170  37.400  20.058  12.539
14508W        W76171   0.949  16.746  14.348
14509W        W76172  17.274  28.930   0.755
14510W        W76173  17.660   5.704   2.218
14511W        W76174  29.136  28.628  13.510
14512W        W76175  27.961   9.804   2.369
14513W        W76176  44.355  35.094   2.691
14514W        W76177  10.346  17.146  11.504
14515W        W76178  25.554  44.407  11.447
14516W        W76179  41.997  40.415  14.864
14517W        W76180   2.371   3.922  13.482
14518W        W76181  22.110  16.190   1.436
14519W        W76182  10.343  38.411   3.291
14520W        W76183  18.146   2.730   4.348
14521W        W76184   4.441  41.964   0.348
14522W        W76185  44.476  38.530  11.380
14523W        W76186   0.914  13.618  10.430
14524W        W76187  15.700   9.265  14.314
14525W        W76188  13.226  21.591   0.751
14526W        W76189  39.357  40.827  14.890
14527W        W76190  29.979  38.043   3.706
14528W        W76191  21.752  39.887  11.497
14529W        W76192  15.657   0.458  13.007
14530W        W76193  44.437  35.015   5.273
14531W        W76194  31.511  40.920   1.312
14532W        W76195   6.706  36.014  11.437
14533W        W76196  14.713  13.348  10.574
14534W        W76197  34.896  15.310   4.752
14535W        W76198  24.994  15.613  10.515
14536W        W76199  17.127  21.206  10.084
14537W        W76200  21.632  40.462  11.953
14538W        W76201  18.690  32.435  14.917
14539W        W76202  36.529  34.956  11.116
14540W        W76203  18.216   5.361  11.963
14541W        W76204  23.685   3.923   0.312
14542W        W76205  30.610   8.821  14.407
14543W        W76206   8.849  35.983   4.787
14544W        W76207  35.074  33.903   1.914
14545W        W76208  33.473  31.069  14.362
14546W        W76209  33.425  37.942  13.352
14547W        W76210  33.106  43.461   3.169
14548W        W76211  12.343  24.137   2.268
14549W        W76212  44.271  10.264  11.466
14550W        W76213   7.911   9.232  10.476
14551W        W76214  22.647  31.143  12.947
14552W        W76215  17.732  17.130  13.546
14553W        W76216  37.982   9.210   3.742
14554W        W76217  40.523   8.888   3.792
14555W        W76218  44.937   3.326   4.127
14556W        W76219  38.938  10.326   4.174
14557W        W76220  10.696  30.082   3.250
14558W        W76221  16.277  20.052   0.875
14559W        W76222  11.754   6.236   3.323
14560W        W76223   8.211  36.954   4.206
14561W        W76224   8.763  14.725   2.791
14562W        W76225  10.799  17.634  14.860
14563W        W76226   2.305  26.007  14.408
14564W        W76227  30.446  29.030   2.760
14565W        W76228  32.477  28.637  11.029
14566W        W76229  44.474  19.700   9.957
14567W        W76230  38.991  16.622  10.006
14568W        W76231  11.744  34.000   0.456
14569W        W76232  14.787  40.898   3.679
14570W        W76233  42.361  38.480  14.011
14571W        W76234   6.895  19.262   2.741
14572W        W76235  33.465  44.405  14.979
14573W        W76236  28.499  36.998   2.387
14574W        W76237  23.218  22.554  10.406
14575W        W76238  35.996   8.213   5.081
14576W        W76239  24.624   8.871   4.307
14577W        W76240  40.032   8.752  10.108
14578W        W76241  17.748  16.796  10.931
14579W        W76242   1.790  24.061  14.845
14580W        W76243  39.811  30.081  11.886
14581W        W76244   3.362   8.207  14.420
14582W        W76245   4.220  33.954  12.096
14583W        W76246  10.838  18.724   4.127
14584W        W76247  30.986   1.382   2.406
14585W        W76248   6.196  31.464   4.817
14586W        W76249  40.502  43.012  11.461
14587W        W76250   7.172  32.042   3.359
14588W        W76251   9.214  30.614   2.816
14589W        W76252  11.318  36.937   1.402
14590W        W76253  20.602  13.755   1.785
14591W        W76254  32.410  34.110   3.202
14592W        W76255  40.001  41.937  11.422
14593W        W76256  43.944  42.326  12.354
14594W        W76257   7.827  29.099   4.134
14595W        W76258  38.558  13.616  11.880
14596W        W76259  34.102  36.012  14.335
14597W        W76260  39.874  37.834   4.818
14598W        W76261  41.309  33.100  13.439
14599W        W76262  25.031   2.823   2.748
14600W        W76263  22.050  29.953   4.648
14601W        W76264  26.147  31.950  13.905
14602W        W76265  13.253  20.700   1.417
14603W        W76266  42.301  41.508  12.555
14604W        W76267   4.300   4.875   4.133
14605W        W76268  32.621  32.005   4.600
14606W        W76269  13.252  26.698  10.060
14607W        W76270  22.712  42.964   1.428
14608W        W76271  41.830  37.517  13.426
14609W        W76272  13.271   1.344  13.485
14610W        W76273  26.689  10.762   1.756
14611W        W76274  44.964  11.367   0.857
14612W        W76275   9.219  36.037  10.083
14613W        W76276   3.280  41.957   2.222
14614W        W76277   1.765   5.328  12.384
14615W        W76278  43.413  24.167  12.047
14616W        W76279  29.936   7.827   2.776
14617W        W76280  18.165  24.700  10.511
14618W        W76281   7.272  39.883  11.901
14619W        W76282   0.864  40.382  11.095
14620W        W76283   4.373  38.502   4.715
14621W        W76284  42.000  30.039   2.400
14622W        W76285  41.846  12.349   3.276
14623W        W76286  17.646  17.713  12.032
14624W        W76287  44.298  21.737   0.326
14625W        W76288  39.511  37.509  12.899
14626W        W76289  13.224   8.843   0.737
14627W        W76290  21.707  18.716  14.416
14628W        W76291  32.603  11.853  13.482
14629W        W76292  32.999  26.004   1.716
14630W        W76293  32.415  29.590  12.975
14631W        W76294  29.429   2.412   2.839
14632W        W76295  41.318  38.999   4.332
14633W        W76296   4.401  25.644  10.609
14634W        W76297  14.149  16.074   1.928
14635W        W76298  37.068   0.788  12.390
14636W        W76299  32.554  20.170  13.041
14637W        W76300  29.999  20.113   5.222
14638W        W76301  32.395  37.374  14.287
14639W        W76302  19.070  26.606   0.740
14640W        W76303   4.278  34.521  13.338
14641W        W76304   9.889  41.885   0.457
14642W        W76305   3.441  25.187   4.241
14643W        W76306   1.914   9.663  14.411
14644W        W76307  19.160   3.424  14.912
14645W        W76308   9.200  41.798  12.023
14646W        W76309   8.681   5.200  10.935
14647W        W76310   8.347   2.269   4.163
14648W        W76311  33.875  34.592  13.401
14649W        W76312  42.306  33.410   4.736
14650W        W76313  30.536  15.706   0.769
14651W        W76314  14.267  44.984  10.463
14652W        W76315   8.853   1.453   0.376
14653W        W76316  16.757  36.467   0.733
14654W        W76317  14.707  24.683  14.778
14655W        W76318  17.728  12.746   0.391
14656W        W76319   2.892  28.119  14.773
14657W        W76320  13.105  12.127   3.711
14658W        W76321  30.910  35.903   3.208
14659W        W76322  32.905  14.717   2.895
14660W        W76323  38.057  38.026   3.645
14661W        W76324  35.510  42.900  10.889
14662W        W76325  31.948   1.304  12.909
14663W        W76326  30.155  28.624   0.382
14664W        W76327  33.104   7.768   0.762
14665W        W76328  16.110  35.537   3.286
14666W        W76329  34.944   4.759  13.809
14667W        W76330  36.862  37.412  12.888
14668W        W76331  38.339  43.932   2.237
14669W        W76332   9.335  33.130  13.832
14670W        W76333  42.887  10.746   3.285
14671W        W76334   2.757  17.120   4.264
14672W        W76335  24.493  38.510   1.845
14673W        W76336  35.420  21.523   1.389
14674W        W76337  24.694  12.295   4.779
14675W        W76338   5.873  36.097  10.962
14676W        W76339  25.171  14.226   4.173
14677W        W76340  13.238  15.643  13.934
14678W        W76341  43.362   3.717  11.096
14679W        W76342  38.838  43.960   3.338
14680W        W76343   2.393  22.184  14.484
14681W        W76344  32.501  15.246   3.323
14682W        W76345  38.326  37.491  10.995
14683W        W76346  37.504  35.881   2.757
14684W        W76347  38.890  44.927  14.378
14685W        W76348  36.543  43.830  14.780
14686W        W76349   6.337  36.034  13.908
14687W        W76350  39.028  17.138   0.811
14688W        W76351  13.607  39.445  11.391
14689W        W76352  13.262  14.618   4.729
14690W        W76353  30.105   2.899   1.400
14691W        W76354  29.038  20.101   3.294
14692W        W76355  31.541   4.309   4.734
14693W        W76356  13.694  43.008   1.928
14694W        W76357  26.533  24.121   4.704
14695W        W76358  22.534  21.749   3.220
14696W        W76359  30.435  29.568  14.499
14697W        W76360   1.308  32.633  13.024
14698W        W76361  21.245   6.718   1.849
14699W        W76362  29.977  36.547   4.600
14700W        W76363  43.328  33.072  11.002
14701W        W76364   4.725  44.357   5.214
14702W        W76365  32.055   5.274  13.408
14703W        W76366  30.590  43.513  14.934
14704W        W76367   0.816  19.596  13.411
14705W        W76368  10.187  31.915   1.744
14706W        W76369  15.118  32.430  12.976
14707W        W76370  40.030  30.011  14.315
14708W        W76371  11.746  39.895  14.916
14709W        W76372  41.413  40.916  13.916
14710W        W76373   3.946  19.742  10.501
14711W        W76374   1.332  28.146   3.326
14712W        W76375  33.038  11.354   0.375
14713W        W76376  32.027  21.711   0.400
14714W        W76377  35.020  11.223  13.323
14715W        W76378  25.659  34.404   4.249
14716W        W76379  30.655  21.151  12.478
14717W        W76380  20.081  38.549  10.586
14718W        W76381  17.204  16.254   0.476
14719W        W76382  44.994  12.344  13.347
14720W        W76383  14.303  42.452   3.296
14721W        W76384  17.250  33.516   1.848
14722W        W76385  21.061  15.799  14.514
14723W        W76386  37.429  38.033   0.267
14724W        W76387  41.310  33.586  10.540
14725W        W76388   9.722   2.441   0.448
14726W        W76389   0.965  17.560   0.309
14727W        W76390  12.743  32.534   2.395
14728W        W76391  39.911  20.561  13.471
14729W        W76392   2.912  33.117   3.171
14730W        W76393  22.199  32.497  10.996
14731W        W76394  38.919  25.190   2.901
14732W        W76395  42.485  41.877  14.825
14733W        W76396  16.673  16.773   0.437
14734W        W76397  31.433   5.751  11.113
14735W        W76398  20.608  28.124   0.732
14736W        W76399  19.665  32.632   1.276
14737W        W76400  23.027   0.813  11.936
14738W        W76401  29.098  21.129   2.715
14739W        W76402   2.845  27.542   0.967
14740W        W76403  12.723  37.938  13.507
14741W        W76404  40.049  16.733  11.894
14742W        W76405  22.729  32.413  14.339
14743W        W76406  12.610  25.668  12.471
14744W        W76407  23.154  19.709   1.906
14745W        W76408  29.088  14.265  11.988
14746W        W76409  35.580   3.898   4.296
14747W        W76410  19.056   2.455  11.397
14748W        W76411  27.554  14.790  14.840
14749W        W76412   9.883  36.391   3.356
14750W        W76413  21.736  15.211   4.815
14751W        W76414  37.919  29.025  10.986
14752W        W76415  19.172  26.663   3.174
14753W        W76416   6.861  11.754   3.672
14754W        W76417   9.197  34.881  13.307
14755W        W76418  13.798  27.612  12.394
14756W        W76419  16.175  32.432  11.909
14757W        W76420  29.977  21.176   0.882
14758W        W76421  31.961  36.909   2.670
14759W        W76422   8.759  33.131  11.088
14760W        W76423  43.285  37.864   0.438
14761W        W76424  36.466  27.178  12.543
14762W        W76425  36.091  36.041  12.353
14763W        W76426  31.055  44.468   2.202
14764W        W76427  11.325   6.245  10.111
14765W        W76428  41.537  30.516  12.998
14766W        W76429  33.002   0.907  10.942
14767W        W76430  21.675  26.088   1.358
14768W        W76431  26.496  24.531   0.251
14769W        W76432  43.514  24.042  11.042
14770W        W76433  22.562  17.605  10.451
14771W        W76434  27.460  17.074  11.548
14772W        W76435  25.621  38.939   1.381
14773W        W76436   2.304  34.600  12.834
14774W        W76437  17.072  11.699  14.787
14775W        W76438  29.624   2.832   0.810
14776W        W76439   9.816  22.597   0.931
14777W        W76440  16.093   0.931  12.529
14778W        W76441  37.527  33.401  12.554
14779W        W76442  13.754   7.292   1.767
14780W        W76443  17.772  23.074   3.322
14781W        W76444  23.132  43.496  12.062
14782W        W76445  38.954   8.186  11.961
14783W        W76446  27.647  34.976  10.582
14784W        W76447  39.963  13.149   2.688
14785W        W76448  12.694  14.753   0.351
14786W        W76449  19.234  34.050  11.441
14787W        W76450  36.039  17.702  11.481
14788W        W76451  37.503  44.505  11.426
14789W        W76452   7.195  37.022   1.904
14790W        W76453  16.797  18.587   0.807
14791W        W76454   3.830   4.288   0.782
14792W        W76455  32.045  10.312   0.911
14793W        W76456  26.976  18.066  14.852
14794W        W76457  34.608   7.275  13.056
14795W        W76458   3.215  12.825  13.996
14796W        W76459  31.539  44.791  10.594
14797W        W76460  27.970  39.474   5.313
14798W        W76461   4.893  14.240  11.412
14799W        W76462  30.108  16.749   1.752
14800W        W76463  44.332  15.204  14.367
14801W        W76464  40.441  38.461   1.400
14802W        W76465  35.449  27.497   4.297
14803W        W76466   2.460  25.638   4.172
14804W        W76467  17.090  28.057   2.344
14805W        W76468  24.216   7.746   2.756
14806W        W76469  26.627   2.967   2.691
14807W        W76470  10.868   8.897  14.280
14808W        W76471  32.631  42.778  10.641
14809W        W76472  15.665   3.849  12.376
14810W        W76473  41.905  42.366  12.956
14811W        W76474  12.235  35.954  13.898
14812W        W76475  16.811  30.065   4.258
14813W        W76476   0.464   4.292   3.636
14814W        W76477  33.987  18.237   0.955
14815W        W76478  19.172  44.262   2.220
14816W        W76479   1.910  27.660   4.240
14817W        W76480  30.617  17.720   4.231
14818W        W76481   6.821  35.484   0.392
14819W        W76482  19.573  29.538  10.963
14820W        W76483  29.003  43.411  14.504
14821W        W76484  23.639  39.494   2.324
14822W        W76485  23.185  16.114  12.064
14823W        W76486  19.084   5.214  10.598
14824W        W76487  37.001  43.919   0.954
14825W        W76488   8.731  36.935  14.507
14826W        W76489  24.480  24.979  13.801
14827W        W76490  29.117   0.343  14.427
14828W        W76491  32.117   7.342   1.786
14829W        W76492   5.702  20.695   4.169
14830W        W76493  19.780  24.599  14.799
14831W        W76494  35.555  32.559   2.287
14832W        W76495  36.486  11.628  11.051
14833W        W76496  24.640  29.604   5.244
14834W        W76497  11.264  26.596  12.966
14835W        W76498   6.703  14.705   2.353
14836W        W76499   8.191  23.545   0.279
14837W        W76500  22.233  30.461   2.305
14838W        W76501  24.672  10.233   1.741
14839W        W76502  16.215  22.575   1.746
14840W        W76503  39.340  40.453  13.389
14841W        W76504  30.577   7.217  14.837
14842W        W76505  22.233  43.908   1.714
14843W        W76506  15.684   9.684   0.334
14844W        W76507  18.084  40.805  12.969
14845W        W76508  28.494   4.430  11.869
14846W        W76509   3.311  10.289   2.263
14847W        W76510   3.833  25.037   4.269
14848W        W76511  23.046  36.858  14.861
14849W        W76512  23.498   3.846  12.563
14850W        W76513  12.147  13.709   4.222
14851W        W76514  11.763  29.982  14.383
14852W        W76515  30.919  14.163  14.852
14853W        W76516  24.201  24.716   3.794
14854W        W76517  14.209  37.997   3.168
14855W        W76518  40.886  21.071   3.647
14856W        W76519  29.651   3.768  12.093
14857W        W76520  10.671  11.197  14.979
14858W        W76521  26.967  10.634   4.833
14859W        W76522   8.248  39.468   2.895
14860W        W76523  18.759  34.098  10.438
14861W        W76524   0.294   7.263   3.279
14862W        W76525  36.554  26.171   1.236
14863W        W76526   5.327  25.509   2.321
14864W        W76527  36.874  41.294   2.393
14865W        W76528  25.118  35.911   1.908
14866W        W76529  26.620  33.985  13.036
14867W        W76530  27.131  36.457  13.529
14868W        W76531  27.138  26.123  13.930
14869W        W76532  43.961   4.734  13.830
14870W        W76533  13.329  41.520  13.424
14871W        W76534  35.454  34.432   1.390
14872W        W76535   2.879  28.610  11.951
14873W        W76536  26.482  31.118   2.285
14874W        W76537   0.368  43.342   0.450
14875W        W76538  32.117  14.284  14.798
14876W        W76539  15.158  32.119  14.834
14877W        W76540   8.378   1.776   4.680
14878W        W76541   5.254  18.719   1.256
14879W        W76542  16.771  39.436   3.667
14880W        W76543  35.978  18.720  11.984
14881W        W76544  35.497  38.888   4.282
14882W        W76545  30.647  19.731   3.329
14883W        W76546   7.853  25.567   3.713
14884W        W76547  33.937   4.340   9.461
14885W        W76548   9.818   3.882  12.914
14886W        W76549  30.105  29.426  14.465
14887W        W76550   6.258  30.549   2.187
14888W        W76551  31.135  10.356   0.384
14889W        W76552  24.006  10.676   1.211
14890W        W76553  33.545  33.475   4.210
14891W        W76554  36.913  24.184   0.449
14892W        W76555  25.092   7.775  10.949
14893W        W76556  42.327   8.226   3.826
14894W        W76557   7.684  25.117   2.754
14895W        W76558  31.416  32.455   0.346
14896W        W76559  38.514   6.770  14.881
14897W        W76560  32.634  38.968   4.163
14898W        W76561   6.381  26.178  13.457
14899W        W76562  30.062   0.378   3.246
14900W        W76563   8.223  27.195   4.761
14901W        W76564  15.739  39.832  14.945
14902W        W76565  12.209  30.161  11.515
14903W        W76566  29.153   2.233   4.191
14904W        W76567  20.157  10.222  11.035
14905W        W76568   2.296  24.635   0.864
14906W        W76569   7.232   9.820   1.404
14907W        W76570   2.271  29.535   1.253
14908W        W76571  13.656  24.129  13.488
14909W        W76572   4.932  36.849   0.749
14910W        W76573   6.756   1.247   0.424
14911W        W76574   8.901  38.538  13.508
14912W        W76575  39.022  13.667   4.164
14913W        W76576  13.105  24.978  11.474
14914W        W76577  33.117  35.550   0.806
14915W        W76578  43.316  29.533  13.029
14916W        W76579  37.437  38.045   2.330
14917W        W76580  36.030  33.534  10.492
14918W        W76581   7.793  10.161  10.097
14919W        W76582  42.397  10.825  12.876
14920W        W76583  23.134  38.474   2.864
14921W        W76584  14.237   6.322   1.224
14922W        W76585  22.577  15.244  10.071
14923W        W76586  24.209  37.441   2.837
14924W        W76587  24.544  38.904   4.141
14925W        W76588   3.443  39.853   0.926
14926W        W76589  11.678  24.090   0.325
14927W        W76590   3.393  19.252   3.168
14928W        W76591  30.951  22.171  11.466
14929W        W76592  34.423  41.499  11.093
14930W        W76593  11.631  36.955  10.632
14931W        W76594  43.012  41.499   3.196
14932W        W76595   6.247  44.414   0.472
14933W        W76596  23.548   1.807  12.379
14934W        W76597  10.287  39.815   1.342
14935W        W76598  10.810   9.834  14.998
14936W        W76599  40.913  13.689   1.912
14937W        W76600  44.280  10.168  11.102
14938W        W76601   0.421   2.312  14.766
14939W        W76602  40.416  17.074  10.418
14940W        W76603  12.725   5.846  13.833
14941W        W76604  31.464  24.676  12.523
14942W        W76605   2.908  26.565   1.312
14943W        W76606  26.194  41.440  11.000
14944W        W76607   6.280  37.853   1.750
14945W        W76608  34.484  35.568   3.159
14946W        W76609  16.278  41.817  12.363
14947W        W76610   3.387   9.233  14.824
14948W        W76611  14.102  42.331   1.802
14949W        W76612  24.609  23.001   1.273
14950W        W76613   6.314  29.636   1.712
14951W        W76614   5.713  16.090   3.198
14952W        W76615   9.310   2.337   2.704
14953W        W76616  24.626  26.186  12.873
14954W        W76617  21.545  18.248  12.459
14955W        W76618  43.932   4.934  13.544
14956W        W76619  35.066  35.386   0.904
14957W        W76620  11.326  32.050   2.241
14958W        W76621   7.320  19.534  14.914
14959W        W76622  43.453  35.555   2.669
14960W        W76623  12.649  29.082  11.115
14961W        W76624   0.444  38.413   1.699
14962W        W76625  20.047  34.465   0.825
14963W        W76626  33.588   4.283   4.682
14964W        W76627   2.427  29.610  10.930
14965W        W76628  23.489  24.578  13.344
14966W        W76629  18.241  24.081   0.962
14967W        W76630  42.409  25.587   3.288
14968W        W76631  39.938  32.926  12.997
14969W        W76632  18.090  10.292   4.290
14970W        W76633   8.775  14.649   0.791
14971W        W76634  11.159  41.861  10.414
14972W        W76635  44.502   9.723   0.417
14973W        W76636  27.603  11.821   3.329
14974W        W76637  39.915  27.503   3.803
14975W        W76638   9.252  41.905   4.314
14976W        W76639  30.447   5.433   2.348
14977W        W76640  39.855   4.811  14.320
14978W        W76641  34.509  36.362   1.210
14979W        W76642  34.391  34.882   3.293
14980W        W76643   4.774   0.449   1.916
14981W        W76644   8.349  24.496   3.259
14982W        W76645  30.415  34.465  12.557
14983W        W76646  18.248   1.477   2.734
14984W        W76647  42.391  42.875   4.220
14985W        W76648  16.181  28.535   4.264
14986W        W76649  41.491  12.672   3.722
14987W        W76650  15.149   2.731  10.499
14988W        W76651   3.926  25.608   1.702
14989W        W76652  34.914  37.903  10.443
14990W        W76653  34.974  23.726   2.341
14991W        W76654  27.558  36.414   3.222
14992W        W76655   6.356  44.887   1.883
14993W        W76656  29.638  40.015  11.581
14994W        W76657   9.159   9.844  12.010
14995W        W76658  33.409  34.989   0.839
14996W        W76659  14.801  11.185  11.492
14997W        W76660  39.517  38.955  12.535
14998W        W76661  18.700  16.785  12.958
14999W        W76662  21.112  30.443  14.352
15000W        W76663   4.283  34.064   1.311
15001W        W76664  22.229  28.978   2.227
15002W        W76665  19.675  41.312   1.240
15003W        W76666  23.706   3.442   1.733
15004W        W76667  26.984  32.066   1.262
15005W        W76668  12.618  40.845  14.287
15006W        W76669  34.420  21.524  11.382
15007W        W76670  11.222   8.846   0.425
15008W        W76671  22.229  41.019   4.318
15009W        W76672  28.513  43.377  12.434
15010W        W76673  40.837  44.942   2.839
15011W        W76674  14.217  34.093   3.810
15012W        W76675  44.419  20.663  12.389
15013W        W76676  15.292  18.104  14.429
15014W        W76677  23.053  14.729   0.300
15015W        W76678  37.875   7.695   3.387
15016W        W76679  14.180  13.826  10.999
15017W        W76680  12.709   9.211  14.494
15018W        W76681  41.788  22.127   3.635
15019W        W76682  15.668   7.784   0.379
15020W        W76683  33.402  16.279   1.724
15021W        W76684  32.073  42.524  10.444
15022W        W76685   2.961  44.929   3.169
15023W        W76686  31.126  26.024  14.879
15024W        W76687  29.047  44.466   0.795
15025W        W76688  12.202  28.483   2.329
15026W        W76689  24.031  10.744  11.505
15027W        W76690  20.543  38.358   0.304
15028W        W76691  35.853  38.015  14.818
15029W        W76692  35.451  39.958   0.960
15030W        W76693  10.361  27.476   9.974
15031W        W76694  28.520   4.268  13.846
15032W        W76695   4.220  12.755   0.272
15033W        W76696  22.997  15.195   3.732
15034W        W76697  39.059  20.256  13.500
15035W        W76698   4.360   1.879  11.400
15036W        W76699  12.334   6.737  11.975
15037W        W76700  10.639  40.915   0.775
15038W        W76701  14.620  14.103   4.184
15039W        W76702  25.629  41.842  11.078
15040W        W76703  31.922  43.841   3.221
15041W        W76704   1.897  20.759   4.242
15042W        W76705  35.390  38.407  14.441
15043W        W76706   2.797  31.584   1.759
15044W        W76707   1.398  12.681  11.083
15045W        W76708  25.670  37.039   0.849
15046W        W76709  15.102  38.860  10.051
15047W        W76710  31.927  32.100   1.306
15048W        W76711  18.559   6.754  14.808
15049W        W76712  34.472  21.194   2.750
15050W        W76713   3.778  20.212  13.839
15051W        W76714   7.892   9.834  10.541
15052W        W76715  24.566  23.229   5.096
15053W        W76716  33.091  20.224  14.878
15054W        W76717   4.710   2.767   1.380
15055W        W76718  30.422  34.461   2.842
15056W        W76719   8.856  27.078   0.407
15057W        W76720   8.745  12.233   3.712
15058W        W76721   9.184  26.182  11.974
15059W        W76722  37.542   7.317  10.923
15060W        W76723  13.280  13.306  11.969
15061W        W76724  11.766  25.620  12.339
15062W        W76725  26.626  40.841  13.473
15063W        W76726  32.038   1.929   3.221
15064W        W76727  42.871  38.063  11.072
15065W        W76728   4.299   6.760   2.214
15066W        W76729  15.599   7.907  13.334
15067W        W76730   0.771  37.049   3.776
15068W        W76731   4.380   1.291  14.805
15069W        W76732  11.327  17.569  13.377
15070W        W76733  29.542   4.846   2.890
15071W        W76734  27.076  13.845  12.096
15072W        W76735  27.963  32.025   5.284
15073W        W76736   6.829  38.445  12.998
15074W        W76737  29.005   4.712   0.327
15075W        W76738  43.328  42.839  12.472
15076W        W76739  25.218   1.463   0.330
15077W        W76740  19.145  22.554   1.730
15078W        W76741  43.326  17.584  14.357
15079W        W76742  31.985  22.659  12.992
15080W        W76743  22.199  21.746   2.750
15081W        W76744  18.102  13.754   3.712
15082W        W76745  11.723   7.379  12.365
15083W        W76746  32.564  22.202  10.407
15084W        W76747  15.279  16.746   1.722
15085W        W76748   6.701   7.898   0.261
15086W        W76749  24.721  25.058  10.156
15087W        W76750   9.875   6.334  11.911
15088W        W76751  28.560  15.093   0.822
15089W        W76752  17.151   8.229   0.276
15090W        W76753  36.996  41.391  12.869
15091W        W76754  18.776  28.472   4.178
15092W        W76755  34.455  43.855   4.766
15093W        W76756   9.395  21.728   2.209
15094W        W76757  16.589  28.587  14.400
15095W        W76758  21.021  13.107   2.389
15096W        W76759  37.530  33.457  10.152
15097W        W76760  30.440  41.035  14.032
15098W        W76761  24.040   0.276   4.624
15099W        W76762  23.676  28.056  11.485
15100W        W76763  34.383  28.008   0.276
15101W        W76764  17.562  30.583   3.709
15102W        W76765  33.986  23.581   1.863
15103W        W76766  34.047   4.810  10.615
15104W        W76767  13.152  33.380  11.524
15105W        W76768  12.840  25.167  14.899
15106W        W76769  15.193  33.603   0.332
15107W        W76770  21.034  21.089   1.239
15108W        W76771  10.196  16.266   4.808
15109W        W76772   3.413  17.074  11.943
15110W        W76773  30.560  35.984  11.030
15111W        W76774  38.328   0.754   3.261
15112W        W76775  30.133   8.243  13.520
15113W        W76776   1.805  11.147   0.923
15114W        W76777  38.418  36.025   1.268
15115W        W76778  44.890   3.815  14.413
15116W        W76779  17.188  10.748  13.467
15117W        W76780  22.595  27.020   0.244
15118W        W76781  29.587  17.690   1.271
15119W        W76782  39.418   6.852  12.476
15120W        W76783  10.647  24.120  13.454
15121W        W76784   4.229  30.089  10.611
15122W        W76785  24.660  35.942  12.502
15123W        W76786  40.398   0.276  12.431
15124W        W76787  19.567  34.091  14.963
15125W        W76788  34.041   0.447   4.290
15126W        W76789  14.627  35.473   5.741
15127W        W76790  36.582  14.328  11.439
15128W        W76791  44.349  26.184   0.326
15129W        W76792   0.286  24.084   2.211
15130W        W76793  22.614  16.151   1.833
15131W        W76794  36.420  18.213   2.789
15132W        W76795  12.723  11.334  13.375
15133W        W76796  18.791  26.036   2.279
15134W        W76797  38.970   3.841   4.127
15135W        W76798  18.737  42.988  13.881
15136W        W76799  30.597  16.186  11.405
15137W        W76800  17.667  13.165   2.409
15138W        W76801  15.811  44.938  11.002
15139W        W76802  27.487   4.290   2.292
15140W        W76803  31.450  29.609   4.607
15141W        W76804  12.715  29.148   0.874
15142W        W76805   2.897  15.229   2.319
15143W        W76806  17.234   7.892   0.308
15144W        W76807  18.717  31.017   3.810
15145W        W76808  37.031  41.424  14.388
15146W        W76809  21.067  30.031  11.396
15147W        W76810  20.718  29.662  12.487
15148W        W76811  33.981  40.830   0.341
15149W        W76812  11.819   1.873  14.794
15150W        W76813  27.993   0.383  13.394
15151W        W76814  27.987   5.208   0.467
15152W        W76815  35.963  12.123  13.049
15153W        W76816  28.658  39.859   3.147
15154W        W76817  15.661  44.294  12.073
15155W        W76818  34.561  12.850   4.277
15156W        W76819  35.058   1.925  12.015
15157W        W76820   2.854  27.094  10.490
15158W        W76821  14.280  29.979  14.791
15159W        W76822  32.613  16.211  13.534
15160W        W76823  31.482  15.772   4.836
15161W        W76824   3.342  28.160  14.469
15162W        W76825  16.668  11.262   1.257
15163W        W76826  22.130  25.685  12.937
15164W        W76827   2.741  13.755  12.365
15165W        W76828  15.270  43.378   2.740
15166W        W76829  16.730  26.543   9.939
15167W        W76830  10.350  13.266   0.748
15168W        W76831  15.816  37.840  12.879
15169W        W76832  26.608  38.906  14.860
15170W        W76833  28.953  37.420  13.447
15171W        W76834   6.215   5.193  11.450
15172W        W76835  30.614  40.968  12.011
15173W        W76836   7.909   5.394   2.715
15174W        W76837  22.192   1.815   0.918
15175W        W76838  43.280   3.713   3.688
15176W        W76839  10.733  35.909   0.781
15177W        W76840  16.670   4.247  12.392
15178W        W76841  42.434  18.568  14.858
15179W        W76842  28.582  21.168  14.958
15180W        W76843  41.923   9.827   2.273
15181W        W76844  31.569  17.275   2.824
15182W        W76845  19.153  32.484  13.493
15183W        W76846   0.490  25.540   3.816
15184W        W76847  39.889  26.603  14.823
15185W        W76848  34.964   3.337   4.836
15186W        W76849  10.702  36.902   3.694
15187W        W76850   4.322  38.933   1.901
15188W        W76851   0.375  18.275  13.355
15189W        W76852  26.569  25.503  12.093
15190W        W76853  13.769  33.066  14.343
15191W        W76854  21.684  26.201  10.553
15192W        W76855  38.460  15.735  14.933
15193W        W76856   0.789  28.072   2.219
15194W        W76857  43.827  27.637   1.842
15195W        W76858  32.029   8.766   0.317
15196W        W76859   3.826  15.759   0.825
15197W        W76860  40.505  25.601  13.002
15198W        W76861  19.110   1.803   3.867
15199W        W76862   0.248  32.040  11.516
15200W        W76863  25.669  18.193  12.905
15201W        W76864  17.061  11.844   2.882
15202W        W76865  30.993  35.503   3.815
15203W        W76866   8.239  22.739  13.994
15204W        W76867  22.635  34.010  13.892
15205W        W76868  16.687   8.660   2.235
15206W        W76869   3.923  13.749  13.513
15207W        W76870  24.000  41.508   1.738
15208W        W76871   5.904  23.558  14.966
15209W        W76872  17.063  14.205  14.901
15210W        W76873  38.835  27.952  14.468
15211W        W76874  20.764  27.648  13.967
15212W        W76875  40.436   2.777   4.241
15213W        W76876   8.838   7.829   3.374
15214W        W76877  16.687  32.480   2.340
15215W        W76878  12.698  36.979   1.419
15216W        W76879   4.440  27.994  13.492
15217W        W76880  28.534  34.984   3.264
15218W        W76881   2.351   8.191   1.303
15219W        W76882  37.337  44.446   5.081
15220W        W76883  31.039  38.367   4.268
15221W        W76884  38.454  26.059  11.913
15222W        W76885  27.052  28.566  13.357
15223W        W76886  13.321   5.821   5.235
15224W        W76887  15.662  42.816  12.444
15225W        W76888  14.644  10.197  13.481
15226W        W76889  14.315  20.665   1.436
15227W        W76890  21.256  31.591  10.501
15228W        W76891   8.898   2.269  12.071
15229W        W76892  20.170  23.097   2.253
15230W        W76893   9.860   9.314   3.850
15231W        W76894  44.381   2.830  14.030
15232W        W76895  20.568  13.225  10.644
15233W        W76896  14.697  39.514   1.920
15234W        W76897  13.272  41.963   2.895
15235W        W76898  37.864  31.998   0.765
15236W        W76899   6.890  26.057   3.781
15237W        W76900  19.557  35.047  13.526
15238W        W76901  18.131  15.767   1.745
15239W        W76902  12.733   3.355  11.060
15240W        W76903  35.896  27.539  11.966
15241W        W76904   1.247  29.450   4.610
15242W        W76905  34.417  27.467  10.418
15243W        W76906  38.886  28.940   0.365
15244W        W76907   3.745  36.366  10.897
15245W        W76908  34.020  26.635  10.972
15246W        W76909  27.563   6.725  10.987
15247W        W76910  34.414  36.940   4.723
15248W        W76911  43.494  44.912   3.223
15249W        W76912  30.630   4.272   2.815
15250W        W76913  22.641  40.361  10.641
15251W        W76914  28.008  31.012   3.689
15252W        W76915  22.721   4.229  14.356
15253W        W76916   0.272  40.033  13.339
15254W        W76917  16.733   1.419   0.251
15255W        W76918  20.232  28.150   4.299
15256W        W76919  36.916  10.311   9.929
15257W        W76920  30.570  23.029   3.378
15258W        W76921  10.326  35.991   2.240
15259W        W76922  38.868  40.019   4.691
15260W        W76923  44.915  38.383  11.874
15261W        W76924  32.469  44.000   4.733
15262W        W76925  26.964  21.107   4.251
15263W        W76926  15.242   1.415  11.957
15264W        W76927  18.616  14.153  11.899
15265W        W76928  20.752  33.452   2.248
15266W        W76929  29.625  12.708   0.364
15267W        W76930  23.668  31.086  11.562
15268W        W76931  20.662  41.847  10.528
15269W        W76932  43.371   6.854   5.117
15270W        W76933  38.979  23.135   0.334
15271W        W76934  38.048  41.401   2.228
15272W        W76935  13.165  39.006  10.935
15273W        W76936  15.305  29.110   3.730
15274W        W76937  13.179  43.294   0.317
15275W        W76938  43.382   0.875   2.724
15276W        W76939  11.834  27.054   0.769
15277W        W76940  21.071   6.334  13.985
15278W        W76941  39.877  13.779  14.014
15279W        W76942  19.565  29.545   2.309
15280W        W76943  26.477  37.447  11.575
15281W        W76944  39.044   8.392   0.872
15282W        W76945   0.771  13.722  12.931
15283W        W76946   5.828  37.053  14.026
15284W        W76947  12.800  42.853   1.824
15285W        W76948  12.675  17.645  10.887
15286W        W76949  23.999   3.259   0.267
15287W        W76950   5.894  23.598  11.967
15288W        W76951  29.468  16.674   1.338
15289W        W76952  44.465  16.645  14.018
15290W        W76953   7.250  13.639  11.912
15291W        W76954   0.922  21.187  10.617
15292W        W76955   7.297   5.732   4.787
15293W        W76956  14.201  14.306   3.647
15294W        W76957  20.129  21.676   1.440
15295W        W76958   1.818   0.312  13.343
15296W        W76959  37.922  27.559  13.963
15297W        W76960  39.343  29.001   2.827
15298W        W76961  44.911  21.184   3.146
15299W        W76962  15.114  28.655  11.095
15300W        W76963  36.001  18.657   4.274
15301W        W76964   7.683   9.270   5.804
15302W        W76965  36.926   2.248  13.025
15303W        W76966  27.445  24.690   1.349
15304W        W76967  16.755  16.799  11.525
15305W        W76968   5.339   8.226  12.356
15306W        W76969   2.736  13.194  11.919
15307W        W76970  36.977  26.139   3.288
15308W        W76971  28.184  11.290  14.281
15309W        W76972   6.237  11.247  10.508
15310W        W76973  26.578  44.759   0.281
15311W        W76974  32.498   7.891   3.203
15312W        W76975  21.595  10.317  12.081
15313W        W76976  16.217   0.817   0.839
15314W        W76977  12.726   3.446  13.984
15315W        W76978   9.724  33.954   1.296
15316W        W76979  36.424  17.227   2.268
15317W        W76980  15.746  19.610  13.041
15318W        W76981  17.797  22.712  14.888
15319W        W76982  10.339  34.548   2.407
15320W        W76983  15.095  32.532   1.356
15321W        W76984  14.631   9.696   3.174
15322W        W76985  23.233  10.262  14.493
15323W        W76986  28.043  10.362  14.967
15324W        W76987  32.596  27.528  13.419
15325W        W76988  32.006   8.376   9.932
15326W        W76989  28.011  43.818  13.315
15327W        W76990  15.184  25.711  12.901
15328W        W76991  21.738  10.768  14.768
15329W        W76992   0.383  29.429   3.797
15330W        W76993  12.676  23.679   3.239
15331W        W76994   8.257  36.538   4.236
15332W        W76995  18.228   8.723   1.300
15333W        W76996  21.671  20.184   0.920
15334W        W76997  43.017  37.074   4.619
15335W        W76998  36.090  36.466  11.975
15336W        W76999  21.025   1.312  11.486
15337W        W77000   6.726  44.269  11.985
15338W        W77001  10.750  21.171  13.846
15339W        W77002  20.699  28.946  12.394
15340W        W77003  27.686  32.597   0.324
15341W        W77004  29.556  20.528   4.656
15342W        W77005  25.521   6.422  11.095
15343W        W77006  11.132  18.105  12.961
15344W        W77007  39.025   1.341  10.476
15345W        W77008  18.125   7.850  12.922
15346W        W77009  35.071  39.423   0.425
15347W        W77010  15.256  13.702   1.851
15348W        W77011  18.111  17.734  13.527
15349W        W77012  31.539  12.116   4.285
15350W        W77013   4.262  16.212  12.577
15351W        W77014  21.624  14.779   9.575
15352W        W77015  40.427  40.388   3.760
15353W        W77016  18.701  24.174   2.674
15354W        W77017  23.508   8.273   4.730
15355W        W77018  10.160  31.441   4.279
15356W        W77019  19.579  23.735  13.911
15357W        W77020   5.888  17.628   0.285
15358W        W77021  29.920   6.916  10.603
15359W        W77022  44.293  23.643  11.101
15360W        W77023  23.207  37.503  12.966
15361W        W77024  15.790  22.036   1.340
15362W        W77025  39.521  10.685  14.972
15363W        W77026  30.064  19.769  14.790
15364W        W77027   6.226  30.414   4.149
15365W        W77028  31.564  31.440   4.151
15366W        W77029  20.199  37.865   2.882
15367W        W77030  10.186  35.451  12.868
15368W        W77031  19.692  21.042  14.455
15369W        W77032   5.903  29.516  13.822
15370W        W77033   5.207  39.546  14.349
15371W        W77034  33.970  42.354  13.973
15372W        W77035  31.639   7.820   0.401
15373W        W77036   4.917   6.725  13.877
15374W        W77037  25.053  43.813  14.443
15375W        W77038  38.460   5.327   0.397
15376W        W77039  12.240  38.504  13.999
15377W        W77040  34.558  29.046   2.195
15378W        W77041  29.541  42.780  14.469
15379W        W77042  26.181  20.661  13.988
15380W        W77043  19.065  13.332  13.826
15381W        W77044  34.888  29.610  14.830
15382W        W77045  38.523  15.132   2.271
15383W        W77046   5.301  27.001  11.879
15384W        W77047   7.387  17.111  11.098
15385W        W77048  26.968  44.814  12.885
15386W        W77049  39.484  20.752  11.577
15387W        W77050  13.249  11.184   4.151
15388W        W77051  23.135  12.800  12.044
15389W        W77052  22.171   6.923  12.831
15390W        W77053  26.178  24.201   1.781
15391W        W77054   4.895  21.642   4.235
15392W        W77055  17.151  37.924   4.652
15393W        W77056   8.782  11.184   4.725
15394W        W77057  30.164   7.308  14.313
15395W        W77058  43.471  22.166  12.851
15396W        W77059  31.130   9.266   2.202
15397W        W77060  14.657  43.923  10.496
15398W        W77061  44.921  26.056   4.325
15399W        W77062  26.993  19.199   2.311
15400W        W77063  32.890  42.821  11.023
15401W        W77064   3.782   1.829  12.990
15402W        W77065  11.218  32.000  12.500
15403W        W77066  30.416   5.323   1.449
15404W        W77067   6.197   6.858   2.405
15405W        W77068  17.669  31.585   2.196
15406W        W77069  38.563   3.430   2.309
15407W        W77070  44.796  24.531   3.219
15408W        W77071  12.188  28.621  14.856
15409W        W77072   4.845  25.514   4.729
15410W        W77073  33.561  22.502   2.200
15411W        W77074  10.767  13.833   4.615
15412W        W77075   6.715  35.898  11.056
15413W        W77076  39.951  34.976  12.828
15414W        W77077  17.303   4.346   4.706
15415W        W77078  33.480  34.910  13.932
15416W        W77079  31.496   4.356   2.240
15417W        W77080  14.674  20.050   2.776
15418W        W77081  15.804  43.906   3.669
15419W        W77082   5.200  26.502  12.340
15420W        W77083  15.816  24.602  12.445
15421W        W77084  18.084  38.852   1.347
15422W        W77085  42.438  10.686  11.468
15423W        W77086  41.466  14.656   1.433
15424W        W77087  22.574   2.355  12.517
15425W        W77088   4.393  28.467   0.955
15426W        W77089  16.584  11.684  14.766
15427W        W77090  29.458   2.281   4.153
15428W        W77091   3.219  32.926   1.342
15429W        W77092  36.417  28.145  13.009
15430W        W77093   2.459  28.967   3.660
15431W        W77094  32.940   2.349   1.330
15432W        W77095  10.745   8.900  12.450
15433W        W77096  15.145  20.032   3.246
15434W        W77097   6.267   7.293  12.940
15435W        W77098  23.233   2.789  13.949
15436W        W77099   4.922  42.875  13.472
15437W        W77100  25.499  22.688   0.910
15438W        W77101   3.935  16.626   4.737
15439W        W77102   6.240  44.771  14.414
15440W        W77103  16.151  20.156  11.972
15441W        W77104   0.405  41.468   2.806
15442W        W77105  17.199  26.972  10.478
15443W        W77106   5.237  13.260   0.364
15444W        W77107  13.796  19.716   2.743
15445W        W77108  14.221  12.253   4.766
15446W        W77109  10.694  26.973   2.753
15447W        W77110   2.416  15.284  14.330
15448W        W77111  23.502  14.651   0.839
15449W        W77112   2.780   3.398   1.401
15450W        W77113  16.611  16.202   1.764
15451W        W77114  41.528  32.923  10.926
15452W        W77115  28.622  16.290  11.491
15453W        W77116   9.192  23.507   1.764
15454W        W77117  42.355  42.902  11.889
15455W        W77118  26.553  36.844  11.599
15456W        W77119  36.372  37.437   2.734
15457W        W77120  27.987  36.416  13.897
15458W        W77121  30.414  24.721   0.853
15459W        W77122   9.864  30.117   3.632
15460W        W77123  34.506  40.341   1.733
15461W        W77124  37.926   5.928   2.821
15462W        W77125  31.046   4.795   4.294
15463W        W77126  39.496   0.842  10.038
15464W        W77127   4.783  32.117   4.189
15465W        W77128  16.786  44.444  14.032
15466W        W77129  30.517   7.790  11.877
15467W        W77130  42.023   7.719   0.357
15468W        W77131  14.187  14.753  12.459
15469W        W77132   0.424  16.574  11.942
15470W        W77133   2.414   4.340   3.358
15471W        W77134  23.593  16.094  14.395
15472W        W77135  11.818  39.834  11.944
15473W        W77136  36.051  27.559   3.288
15474W        W77137  29.508  40.463   4.656
15475W        W77138  43.002  42.388  13.804
15476W        W77139  44.984  17.252   1.232
15477W        W77140   1.848  33.476  12.441
15478W        W77141  24.190  35.064   3.639
15479W        W77142  21.642   6.298   2.216
15480W        W77143  10.155  17.197   2.284
15481W        W77144  22.611  13.266   3.751
15482W        W77145   7.668   8.817   5.256
15483W        W77146  36.060  34.595  13.826
15484W        W77147  29.611  41.850  12.885
15485W        W77148  10.879   7.829  11.996
15486W        W77149  39.017   0.488   3.376
15487W        W77150  16.786  43.326  10.506
15488W        W77151  43.895  29.028   2.308
15489W        W77152  15.225  31.974   0.469
15490W        W77153  15.648  32.441  12.088
15491W        W77154  41.440   3.454   3.321
15492W        W77155  33.967   2.922  14.015
15493W        W77156  33.492   9.828  13.992
15494W        W77157  13.662  19.706   1.747
15495W        W77158  10.656   5.363   4.622
15496W        W77159  44.847  12.652   4.744
15497W        W77160   4.417  36.920   4.616
15498W        W77161  25.606   2.933  12.422
15499W        W77162   4.210  31.007  13.942
15500W        W77163   8.720  14.808   3.657
15501W        W77164  25.174  25.628  12.408
15502W        W77165   9.254   0.262  11.468
15503W        W77166  22.609  44.500  12.445
15504W        W77167  18.256  17.762  14.277
15505W        W77168  10.370  18.095  12.890
15506W        W77169   3.736  29.530  11.376
15507W        W77170  15.298   9.675  13.506
15508W        W77171  33.392   1.338   0.889
15509W        W77172  40.338  31.029   0.748
15510W        W77173  10.308  32.419  14.320
15511W        W77174  22.013   0.895  12.571
15512W        W77175  41.408  37.486  13.529
15513W        W77176  16.690  21.592  13.869
15514W        W77177  20.066  12.160   2.691
15515W        W77178  12.353  42.921   0.752
15516W        W77179  32.083  42.902  12.074
15517W        W77180  14.729  30.094  14.903
15518W        W77181  37.547  15.106  12.359
15519W        W77182  43.456   6.848   2.237
15520W        W77183  39.383  42.457   2.874
15521W        W77184  14.792   3.248  14.497
15522W        W77185  18.786  26.501  12.445
15523W        W77186  10.237   3.778   0.758
15524W        W77187  12.312  30.652   1.897
15525W        W77188  33.584  18.149  12.342
15526W        W77189  42.796  15.616  10.607
15527W        W77190  20.680  31.611  13.965
15528W        W77191  28.966  10.793   0.281
15529W        W77192  23.216  21.599  12.381
15530W        W77193   9.753  32.509  12.386
15531W        W77194  16.318  12.660   3.195
15532W        W77195  37.369  14.807  13.504
15533W        W77196  16.198  34.086  12.464
15534W        W77197  32.108   1.441  12.068
15535W        W77198  23.650   9.725  12.573
15536W        W77199   6.815  42.896  11.904
15537W        W77200  19.177   8.388  12.823
15538W        W77201  11.793  34.580   4.270
15539W        W77202  30.995  44.285   9.969
15540W        W77203  20.109  21.208   1.338
15541W        W77204   3.365   4.283  11.101
15542W        W77205   4.760  26.471   3.819
15543W        W77206  40.311   2.855   2.704
15544W        W77207  44.275   4.939   2.794
15545W        W77208  27.051   0.335   0.952
15546W        W77209  29.513   2.758   0.260
15547W        W77210   4.721  30.907   3.179
15548W        W77211  35.913   9.818  14.837
15549W        W77212  32.529  29.646   4.612
15550W        W77213  32.544  11.361   4.835
15551W        W77214  37.518  25.659  10.479
15552W        W77215  30.585  14.771  12.377
15553W        W77216  34.565   7.279  13.391
15554W        W77217  37.051  41.417   4.183
15555W        W77218  43.767  13.220  14.957
15556W        W77219  34.053  39.506  13.893
15557W        W77220  44.953   2.758   3.158
15558W        W77221  38.392  17.607   2.840
15559W        W77222  36.361  10.287  11.926
15560W        W77223   5.804  42.292   4.639
15561W        W77224  27.466  24.558  12.996
15562W        W77225  43.507  35.399   4.269
15563W        W77226  42.440   8.201   3.368
15564W        W77227  28.105   1.755   2.694
15565W        W77228  21.175  31.510  14.784
15566W        W77229  42.308  41.800  11.449
15567W        W77230  18.646  37.858  11.520
15568W        W77231  29.637  37.087   3.850
15569W        W77232  35.406  17.305   2.749
15570W        W77233  27.117  38.530  12.840
15571W        W77234  18.616   8.404  10.971
15572W        W77235   1.953  31.484  14.027
15573W        W77236   8.692  43.452  11.547
15574W        W77237  11.728  38.830   3.331
15575W        W77238   8.166  37.516   0.274
15576W        W77239   3.952  11.763  12.887
15577W        W77240   5.823   7.373  11.905
15578W        W77241  35.578  32.963  12.455
15579W        W77242   7.838  26.128  13.863
15580W        W77243  15.735  14.834  12.388
15581W        W77244  13.696   7.273  11.593
15582W        W77245   4.915   6.317  10.561
15583W        W77246  12.613   6.899   4.692
15584W        W77247  39.478  21.689  14.320
15585W        W77248   6.820  40.980  13.341
15586W        W77249  27.008   2.325   2.665
15587W        W77250   5.828  30.605   1.707
15588W        W77251  34.915  18.213   4.636
15589W        W77252  42.852   1.278   3.198
15590W        W77253  42.941  27.063  13.945
15591W        W77254  14.262  31.029  12.359
15592W        W77255  33.619  34.082   1.228
15593W        W77256  32.398  40.045  12.898
15594W        W77257  18.624  21.025   4.609
15595W        W77258  29.488  29.053   5.121
15596W        W77259  17.295  26.030  13.995
15597W        W77260  25.704   9.295   4.182
15598W        W77261   6.811  27.682  12.082
15599W        W77262  33.444  17.793  13.857
15600W        W77263  31.549  16.649  14.924
15601W        W77264  42.468  25.582   2.217
15602W        W77265  14.698  40.053  14.374
15603W        W77266  30.651  24.215   0.318
15604W        W77267   5.305  39.343  11.381
15605W        W77268  36.544   8.402  13.395
15606W        W77269   3.851  23.713   1.309
15607W        W77270  30.619  31.489   1.374
15608W        W77271  21.049   8.312  12.398
15609W        W77272  10.808  26.561   2.702
15610W        W77273  26.526  41.036   2.255
15611W        W77274  32.511  22.151   0.832
15612W        W77275  21.540  42.935   4.739
15613W        W77276  33.507  11.170  14.952
15614W        W77277   3.721   2.910   4.666
15615W        W77278  26.184  44.758  10.447
15616W        W77279  38.003  17.065  11.120
15617W        W77280  28.509  16.788   1.833
15618W        W77281  19.167  30.413   3.317
15619W        W77282   3.288  24.566   1.326
15620W        W77283  35.440  19.099   2.342
15621W        W77284  27.111   1.268  14.974
15622W        W77285  12.135  19.550  13.410
15623W        W77286  34.952   9.776  11.463
15624W        W77287  40.342  29.918  13.347
15625W        W77288   0.927   4.703   0.855
15626W        W77289  26.547  16.125  10.956
15627W        W77290  14.287  23.171   1.931
15628W        W77291  25.491  10.210  12.421
15629W        W77292  43.364  15.210   0.301
15630W        W77293  37.476  27.169  13.372
15631W        W77294   7.778  20.261  11.997
15632W        W77295  16.772  36.382  10.944
15633W        W77296  37.924  16.756  13.980
15634W        W77297  22.086  10.214  13.356
15635W        W77298  32.588  30.931   2.329
15636W        W77299  11.735  19.224   1.835
15637W        W77300  33.534  34.064  12.571
15638W        W77301  19.563  10.858   1.726
15639W        W77302  17.769  40.822  10.513
15640W        W77303  16.224  37.030   2.803
15641W        W77304   9.382   0.751   2.901
15642W        W77305   8.364  43.489  11.993
15643W        W77306  41.999  25.544  11.865
15644W        W77307   8.291  44.311  11.535
15645W        W77308  21.691  40.366  14.991
15646W        W77309   0.376  38.345  11.923
15647W        W77310  37.870  44.868  13.914
15648W        W77311  27.190  41.003   2.818
15649W        W77312  39.405  29.634   0.833
15650W        W77313  19.755  33.106  14.485
15651W        W77314  20.662  24.092   4.822
15652W        W77315   6.802   1.789   0.405
15653W        W77316  22.607  36.457  12.418
15654W        W77317  13.641  35.054   4.610
15655W        W77318   2.782  35.581   0.409
15656W        W77319   7.297  16.651   4.745
15657W        W77320  38.520   6.748   1.911
15658W        W77321  10.713  35.061   3.303
15659W        W77322  39.039  38.482   4.120
15660W        W77323  16.193  17.585   2.733
15661W        W77324  22.559  19.262   0.791
15662W        W77325   6.249   8.740  10.545
15663W        W77326  44.897  19.761  14.279
15664W        W77327  22.536   2.268  14.839
15665W        W77328  34.011  20.687   1.791
15666W        W77329  34.099  19.538  12.452
15667W        W77330   7.810  39.378  13.988
15668W        W77331  38.441   7.676  14.467
15669W        W77332  36.987   3.824   3.724
15670W        W77333  25.090  44.453   1.381
15671W        W77334   3.288  12.804   3.866
15672W        W77335  28.000  37.920  11.018
15673W        W77336   7.395   0.396   4.824
15674W        W77337  28.542   6.755  11.913
15675W        W77338  44.297   7.380  14.833
15676W        W77339  14.236  34.408   5.201
15677W        W77340  43.845  25.068   2.256
15678W        W77341  13.286  31.446  11.454
15679W        W77342  37.886  27.514  13.321
15680W        W77343  42.954  33.950   2.213
15681W        W77344   1.470  10.173  11.908
15682W        W77345  33.881  29.568   4.839
15683W        W77346  15.283  16.236  11.079
15684W        W77347   9.679  20.709   1.790
15685W        W77348   6.766  19.119  11.528
15686W        W77349   4.246  18.124  14.419
15687W        W77350  16.221   4.237  12.559
15688W        W77351  44.764  21.217   4.238
15689W        W77352  40.348  13.247   9.480
15690W        W77353  15.087  29.455  11.049
15691W        W77354  11.330  17.678  12.021
15692W        W77355  27.115  36.347  11.373
15693W        W77356  12.187  41.903  14.020
15694W        W77357  22.112  39.015  13.372
15695W        W77358   5.829   7.182  11.062
15696W        W77359  35.011  41.394   4.314
15697W        W77360  12.234  41.017   0.321
15698W        W77361  29.667   0.894   1.702
15699W        W77362  19.547  28.546  14.987
15700W        W77363  16.177  15.161  12.032
15701W        W77364  19.219  40.985  10.439
15702W        W77365  32.512  35.966   5.216
15703W        W77366  19.144  30.129  11.542
15704W        W77367  21.678  17.119   4.777
15705W        W77368  34.425  23.229  14.330
15706W        W77369  23.681  24.667  14.339
15707W        W77370  29.550  10.262  13.020
15708W        W77371   3.230  29.084   1.856
15709W        W77372   4.841  44.905   3.243
15710W        W77373  33.893   5.209   4.319
15711W        W77374   1.922  35.448  11.528
15712W        W77375  10.840  21.723   4.672
15713W        W77376  43.903  29.430   1.248
15714W        W77377  37.057  22.220   0.355
15715W        W77378  34.864  16.660   1.283
15716W        W77379   8.808  20.141  12.087
15717W        W77380  18.122  21.160   1.295
15718W        W77381  35.545  13.840  13.834
15719W        W77382  22.719  30.996  10.899
15720W        W77383  36.465  24.654   3.851
15721W        W77384   5.731  39.889   4.206
15722W        W77385  42.441  33.994   3.219
15723W        W77386  31.095  26.488  10.414
15724W        W77387  23.998   2.909  13.965
15725W        W77388   3.913  23.028  10.493
15726W        W77389  10.143  31.460   0.455
15727W        W77390   3.450  32.970   2.737
15728W        W77391   7.398  28.167   2.252
15729W        W77392  33.068  35.595  10.448
15730W        W77393  21.196  22.222  13.382
15731W        W77394  20.569  20.624  12.863
15732W        W77395   0.297  19.175  12.847
15733W        W77396   0.478  32.070  12.534
15734W        W77397  29.952  27.589   4.284
15735W        W77398  20.225  17.731   1.762
15736W        W77399  28.597   2.906  13.876
15737W        W77400  39.949  39.939   0.744
15738W        W77401  25.490   3.741   1.852
15739W        W77402   0.897  26.134  10.902
15740W        W77403  27.013  43.449  14.925
15741W        W77404   8.714  19.256   2.819
15742W        W77405   0.323  30.544  10.940
15743W        W77406   0.801   4.324  13.342
15744W        W77407  20.732  10.269  12.937
15745W        W77408  34.428  27.573   4.339
15746W        W77409  22.190  44.787   1.861
15747W        W77410   4.285  33.933  13.929
15748W        W77411   8.845  44.938   1.448
15749W        W77412  22.537   6.189  11.899
15750W        W77413   5.811  19.228   2.757
15751W        W77414   6.904  35.420  13.987
15752W        W77415  20.034  14.766   3.311
15753W        W77416  19.101  20.647  14.491
15754W        W77417  20.658  41.862   2.241
15755W        W77418  15.313  23.496  13.392
15756W        W77419  34.022  38.385  13.989
15757W        W77420  20.083  43.414  11.525
15758W        W77421  28.439  13.217  14.439
15759W        W77422  14.774  43.484  10.531
15760W        W77423  11.216  19.159  12.376
15761W        W77424   7.831  20.579  14.338
15762W        W77425  39.347  30.155   3.281
15763W        W77426  11.811  19.133   1.431
15764W        W77427  37.337   0.813  12.574
15765W        W77428  13.128   3.270  10.035
15766W        W77429  19.191  33.113  12.481
15767W        W77430  30.611  14.116  12.900
15768W        W77431  23.066  36.870   1.716
15769W        W77432  10.161  22.125   3.856
15770W        W77433  33.626  20.716   0.956
15771W        W77434  17.194   0.306  14.806
15772W        W77435  42.779  29.559   1.789
15773W        W77436   0.762  39.484   3.248
15774W        W77437   7.903  23.561   1.216
15775W        W77438   9.670  17.241  11.579
15776W        W77439   5.257  20.120  11.085
15777W        W77440  20.564  40.320  12.530
15778W        W77441  26.205   7.758  13.028
15779W        W77442  17.704  43.875  14.293
15780W        W77443   0.375  40.493   4.818
15781W        W77444   8.881   0.271   1.832
15782W        W77445  13.243  29.563  11.539
15783W        W77446  34.976  38.821   4.676
15784W        W77447   7.303  33.528  10.607
15785W        W77448   2.744  18.594  14.277
15786W        W77449  15.143   3.395  10.119
15787W        W77450  16.267   9.697  11.452
15788W        W77451   8.278  13.335  11.033
15789W        W77452   9.348   1.366  14.029
15790W        W77453   2.756   8.755   2.884
15791W        W77454  30.978   8.704  11.469
15792W        W77455   2.445  17.300   2.244
15793W        W77456   1.299  38.553  14.001
15794W        W77457   4.301  19.128   3.190
15795W        W77458  25.984   8.269  10.630
15796W        W77459  29.937   8.303   1.327
15797W        W77460   4.846  29.132  11.874
15798W        W77461  27.662  35.874   3.317
15799W        W77462  17.599  11.744   3.658
15800W        W77463  34.489  14.121   2.671
15801W        W77464  14.668  21.633  10.505
15802W        W77465  39.483   0.384   0.856
15803W        W77466  24.036  25.481   4.117
15804W        W77467  25.106  26.611   4.349
15805W        W77468   1.906  33.393   3.253
15806W        W77469   2.832   2.830  14.486
15807W        W77470  12.658  21.113   1.350
15808W        W77471   7.852  40.816  12.086
15809W        W77472   5.354  10.290  12.991
15810W        W77473  22.123   1.307  13.356
15811W        W77474  40.932  30.106   0.251
15812W        W77475  41.424  10.220  10.999
15813W        W77476  20.676  29.622  11.024
15814W        W77477  37.860  31.939  14.939
15815W        W77478  18.238  14.282   4.745
15816W        W77479  30.541  22.568   3.656
15817W        W77480   6.203  31.145   0.891
15818W        W77481  44.931  27.494   4.180
15819W        W77482  17.170   1.474   2.312
15820W        W77483  26.644  30.967  14.990
15821W        W77484  35.988  42.319   3.631
15822W        W77485  10.382  13.174   0.266
15823W        W77486  44.381  39.319  10.418
15824W        W77487  14.652   3.923  13.828
15825W        W77488  29.006  17.241  10.611
15826W        W77489   1.441   6.338   2.836
15827W        W77490   8.297  36.514  10.473
15828W        W77491  11.633  18.158  11.904
15829W        W77492  35.891  15.612  13.433
15830W        W77493  30.061  40.971   2.767
15831W        W77494  31.528  23.053  11.533
15832W        W77495   8.187   9.162  13.864
15833W        W77496  19.044  27.655  10.589
15834W        W77497   4.785  27.526   4.259
15835W        W77498   5.913  32.081  10.051
15836W        W77499  25.038   0.963  12.963
15837W        W77500   2.801   1.359   2.208
15838W        W77501  35.970  38.014   0.354
15839W        W77502   0.434  23.543  14.920
15840W        W77503  21.121   6.866   3.352
15841W        W77504  19.610   7.667   1.213
15842W        W77505  36.905  37.549   1.722
15843W        W77506   2.428  33.392   0.345
15844W        W77507  30.121  19.079   0.307
15845W        W77508  14.326  34.527   4.660
15846W        W77509  17.652  29.174  13.436
15847W        W77510   0.777  23.137  12.971
15848W        W77511  30.533  39.000   4.267
15849W        W77512  19.600  18.141   2.418
15850W        W77513  12.161  15.627   2.832
15851W        W77514  41.524  27.067   1.735
15852W        W77515   1.913  24.622   2.707
15853W        W77516  15.238  10.310   0.480
15854W        W77517  24.173   4.313   3.222
15855W        W77518  39.937   9.741   4.193
15856W        W77519  14.257  17.240  11.433
15857W        W77520  38.518  36.586   3.632
15858W        W77521   0.906  29.918  14.827
15859W        W77522  13.819   8.295  12.395
15860W        W77523  21.082   5.311  11.901
15861W        W77524  15.121  31.549   1.392
15862W        W77525  23.029  29.097  13.313
15863W        W77526  32.609  17.723  14.363
15864W        W77527  24.097  30.571   2.271
15865W        W77528  28.494   9.853   3.217
15866W        W77529  26.983  32.526   2.781
15867W        W77530  38.024  22.043   3.235
15868W        W77531   5.700  10.207   2.781
15869W        W77532  32.906   4.225  14.931
15870W        W77533   6.260  30.116   4.250
15871W        W77534  24.087  14.818  14.425
15872W        W77535  36.050  26.602   2.413
15873W        W77536  34.536  36.999  11.919
15874W        W77537  17.087   5.764   3.315
15875W        W77538  30.638  15.641   2.310
15876W        W77539  10.212  25.697   3.216
15877W        W77540  42.010  12.698   5.658
15878W        W77541  39.835  34.898  10.899
15879W        W77542  27.982  36.022   2.222
15880W        W77543  42.909  34.989   4.216
15881W        W77544   8.323  38.924   3.376
15882W        W77545   0.282  31.598   2.319
15883W        W77546  24.204  34.096   3.215
15884W        W77547  22.160  41.868   3.725
15885W        W77548   2.815  12.728  14.864
15886W        W77549  15.695  10.234   3.853
15887W        W77550   7.347  14.285  13.058
15888W        W77551  14.103  26.958   3.185
15889W        W77552   3.909  35.916   1.766
15890W        W77553  35.570  15.174   3.170
15891W        W77554   2.255  30.012  11.104
15892W        W77555  20.219   0.835  11.893
15893W        W77556   0.865  44.322  11.879
15894W        W77557  35.105  33.966  11.922
15895W        W77558  30.021  25.073  14.339
15896W        W77559  38.907  13.109  13.515
15897W        W77560  13.686   7.723   3.318
15898W        W77561  35.887  14.267  12.358
15899W        W77562   9.773  16.272   4.344
15900W        W77563  19.568  44.911  11.067
15901W        W77564  27.189   7.692  11.482
15902W        W77565  18.200  19.730  10.584
15903W        W77566  31.428  32.973  12.538
15904W        W77567   9.728  35.902  13.851
15905W        W77568  42.864  37.079  11.069
15906W        W77569  27.490  43.851  11.013
15907W        W77570   0.485   9.723  12.947
15908W        W77571  43.405  25.493  14.284
15909W        W77572  14.611  30.430   1.393
15910W        W77573   3.826  32.400  14.357
15911W        W77574   8.864  32.499  14.932
15912W        W77575  27.117  44.417  12.528
15913W        W77576   6.213  20.713  12.531
15914W        W77577  22.546  18.692  11.945
15915W        W77578   5.247   9.660  13.338
15916W        W77579  20.033  34.002   4.731
15917W        W77580  24.520   6.914  10.516
15918W        W77581  34.882  28.585   0.250
15919W        W77582  29.012   2.468  13.032
15920W        W77583  17.673  16.682  13.057
15921W        W77584   0.262  13.147  13.390
15922W        W77585  34.034   5.374  11.938
15923W        W77586  37.572  33.523  14.883
15924W        W77587   6.371  12.725   1.842
15925W        W77588  17.169  19.543  13.883
15926W        W77589   1.421  17.235  10.602
15927W        W77590  12.280   8.240   2.242
15928W        W77591  32.417  27.461  11.011
15929W        W77592  31.153   1.852  11.372
15930W        W77593  28.594  42.921   5.267
15931W        W77594  14.256  42.835   0.396
15932W        W77595   4.818  26.202  14.787
15933W        W77596  15.297  29.921   4.329
15934W        W77597   3.786  17.120  14.482
15935W        W77598  19.779  35.869  12.378
15936W        W77599  26.586   0.275  10.574
15937W        W77600  14.805  37.886  13.378
15938W        W77601   0.360  14.220   1.867
15939W        W77602  11.815  33.072   1.427
15940W        W77603   1.827  23.648  13.802
15941W        W77604  41.365  40.518   1.911
15942W        W77605   7.705  25.656  13.026
15943W        W77606  33.083  14.772  12.835
15944W        W77607   3.840  40.965   0.948
15945W        W77608  39.359  20.199  13.329
15946W        W77609  29.496  31.130  12.828
15947W        W77610  28.517  11.830   3.310
15948W        W77611  19.044  38.445  12.857
15949W        W77612  33.891  33.915  10.452
15950W        W77613   6.370  25.608  11.494
15951W        W77614   9.673   2.915   2.837
15952W        W77615  34.497  35.096  10.944
15953W        W77616  42.898  11.734   1.316
15954W        W77617  42.961  17.650  11.420
15955W        W77618  40.919  14.196  13.410
15956W        W77619  22.226  19.665   0.814
15957W        W77620   5.902  36.462   1.390
15958W        W77621   7.897   7.817  11.508
15959W        W77622  40.962  39.355   4.836
15960W        W77623  41.488   1.768  12.880
15961W        W77624  35.072  33.461  13.856
15962W        W77625  11.649  17.241   2.280
15963W        W77626  31.419  20.079   4.324
15964W        W77627  15.114  27.452  12.019
15965W        W77628  35.058  31.952   2.362
15966W        W77629  39.978  43.302  11.451
15967W        W77630  16.690  29.925  12.371
15968W        W77631  27.590  11.746  12.521
15969W        W77632  35.936   4.263  14.361
15970W        W77633  41.973  36.067  11.074
15971W        W77634  21.717  27.618  10.144
15972W        W77635  44.912   4.258   4.343
15973W        W77636  43.901  41.916   3.220
15974W        W77637  10.281  42.913  10.550
15975W        W77638  30.076  22.191  13.808
15976W        W77639  23.036  16.073   2.340
15977W        W77640  35.040  39.985  11.986
15978W        W77641  38.994  12.737  13.866
15979W        W77642  11.268   8.829  10.518
15980W        W77643  19.225   4.871   3.796
15981W        W77644  30.528  41.455  10.042
15982W        W77645  29.655  28.937  11.095
15983W        W77646   2.758   1.483  10.584
15984W        W77647  36.382   1.908   3.831
15985W        W77648  10.219  11.360  14.014
15986W        W77649  17.260  16.266  12.092
15987W        W77650  18.720   1.803  11.475
15988W        W77651  18.148   9.769  12.361
15989W        W77652  13.324   8.249   0.483
15990W        W77653   9.248  22.533  14.821
15991W        W77654  25.205  22.090   3.165
15992W        W77655  37.057   8.875   4.806
15993W        W77656  11.681  20.248  11.074
15994W        W77657   9.337  38.863   3.711
15995W        W77658  24.655  43.933  13.448
15996W        W77659  24.688  22.139   2.313
15997W        W77660  25.978   5.252   9.459
15998W        W77661   7.835  25.991   0.433
15999W        W77662  35.921   6.286  14.442
16000W        W77663  41.499  19.145  12.972
16001W        W77664   7.418  40.953  14.768
16002W        W77665  21.599  24.085  12.849
16003W        W77666  21.680  16.314  13.895
16004W        W77667   3.753   6.818   0.736
16005W        W77668  13.227  21.651  13.856
16006W        W77669  17.136  25.508   0.931
16007W        W77670  42.501   6.295   2.849
16008W        W77671  10.224  34.064  11.434
16009W        W77672  25.168  30.145   4.610
16010W        W77673  41.427   2.372   0.340
16011W        W77674   2.451  27.972  12.035
16012W        W77675  32.461  29.054   2.871
16013W        W77676  21.074  21.717  11.503
16014W        W77677  27.100   0.384   1.447
16015W        W77678  22.708  11.800  13.318
16016W        W77679  16.608  39.461  10.017
16017W        W77680   5.342   1.241   1.284
16018W        W77681   6.777  28.137   3.224
16019W        W77682  15.115   5.193  11.404
16020W        W77683   2.449  20.059  12.881
16021W        W77684   5.842  42.504   1.828
16022W        W77685   6.680  39.368   0.961
16023W        W77686   8.197   1.908  11.925
16024W        W77687  40.474   3.834  14.820
16025W        W77688   7.409   3.300   2.277
16026W        W77689  26.510  15.185   2.847
16027W        W77690   1.445  22.026  13.418
16028W        W77691  10.865   1.281  14.807
16029W        W77692   0.298  32.949  12.457
16030W        W77693   4.376  43.012   0.295
16031W        W77694   7.279  11.703   3.326
16032W        W77695   1.375  34.064   4.150
16033W        W77696  38.073   6.328   1.262
16034W        W77697  25.584  32.116  12.480
16035W        W77698  36.093   7.176   0.243
16036W        W77699  33.017  40.448  14.457
16037W        W77700  43.271  19.108  14.759
16038W        W77701  18.097   8.240   0.872
16039W        W77702  27.181  38.045  10.928
16040W        W77703   3.461  18.295   4.176
16041W        W77704  11.276  43.307  11.403
16042W        W77705   5.803  33.562   1.433
16043W        W77706   0.430  22.139  13.914
16044W        W77707   8.391  28.436   1.819
16045W        W77708  30.085  14.721   0.897
16046W        W77709  28.053   6.735  12.843
16047W        W77710  28.476  36.564  12.088
16048W        W77711   2.939   0.961  11.855
16049W        W77712  20.726  18.126   1.390
16050W        W77713  41.978   7.870   2.708
16051W        W77714  33.534  14.313  12.910
16052W        W77715   1.374  25.672   1.910
16053W        W77716  22.685  29.955   4.643
16054W        W77717  19.672  31.106  10.467
16055W        W77718  15.134  32.901   0.750
16056W        W77719  29.967  31.560   0.348
16057W        W77720  36.948  41.794  13.994
16058W        W77721  38.943  41.490  11.007
16059W        W77722  19.579  19.195   3.327
16060W        W77723  36.060  26.462  13.932
16061W        W77724  31.004  40.045  13.915
16062W        W77725  31.625  10.867  10.521
16063W        W77726  42.860  40.505   0.854
16064W        W77727  13.639  42.863   0.757
16065W        W77728  41.517  18.620  14.493
16066W        W77729  25.968   1.360   0.398
16067W        W77730   8.681  22.579   1.724
16068W        W77731  29.944  20.754   1.908
16069W        W77732  14.318  38.568  13.818
16070W        W77733   2.430  23.153   3.257
16071W        W77734  19.690   0.279  13.346
16072W        W77735  12.304   4.801   2.843
16073W        W77736  12.282   5.794   0.933
16074W        W77737  18.778  10.832  11.611
16075W        W77738  13.348  31.961   1.859
16076W        W77739   8.197  35.895  10.629
16077W        W77740   4.317  37.379  10.417
16078W        W77741  14.214  33.027  10.466
16079W        W77742  13.262  15.824  11.469
16080W        W77743  23.011  25.166  13.375
16081W        W77744  23.490  10.825   0.256
16082W        W77745  30.443  15.715   4.298
16083W        W77746  11.717  22.020  11.987
16084W        W77747  18.627  15.636   2.384
16085W        W77748  35.455   2.436  14.892
16086W        W77749  31.412  11.777  12.858
16087W        W77750  10.744  16.293  13.887
16088W        W77751  16.744  13.157   1.885
16089W        W77752  40.480  10.857  14.343
16090W        W77753  21.626  26.198  12.462
16091W        W77754  13.620  40.960  14.977
16092W        W77755  28.552  12.184  13.060
16093W        W77756   9.693  15.273   2.294
16094W        W77757   9.336   7.284   9.513
16095W        W77758   4.832  32.478  12.063
16096W        W77759   3.338   0.785  13.880
16097W        W77760  17.590   5.892  13.015
16098W        W77761  25.170  33.000   2.234
16099W        W77762  40.872  13.788  13.029
16100W        W77763  33.517   3.287  13.401
16101W        W77764  28.987  28.089  12.550
16102W        W77765  16.796  42.417   4.207
16103W        W77766  19.253  26.579  11.576
16104W        W77767  24.701   2.442   2.868
16105W        W77768  13.299  28.569   2.762
16106W        W77769  30.424  15.589   1.384
16107W        W77770   5.698  23.641   1.800
16108W        W77771  18.211  33.404  12.958
16109W        W77772  26.597  34.607   2.821
16110W        W77773  38.904  27.184   0.901
16111W        W77774   7.847  18.721   0.952
16112W        W77775  12.162  22.596   3.323
16113W        W77776  34.491  12.734   3.783
16114W        W77777  28.006  30.162  11.473
16115W        W77778  28.020  43.465   1.310
16116W        W77779   7.351  44.949   3.773
16117W        W77780  13.820   7.384   0.438
16118W        W77781  15.129  34.035   4.209
16119W        W77782  10.158  39.453  14.911
16120W        W77783  44.867  19.676   1.265
16121W        W77784  39.490  39.955   2.813
16122W        W77785  14.825  32.477  11.499
16123W        W77786  32.968  23.221  12.014
16124W        W77787  11.187  19.705  13.527
16125W        W77788  20.094  34.572   2.248
16126W        W77789   7.777  35.404  13.870
16127W        W77790  18.164   9.773  14.412
16128W        W77791  29.986  40.977  12.407
16129W        W77792  10.172  39.932  13.004
16130W        W77793  36.396  24.487   2.304
16131W        W77794  40.942  10.811   4.671
16132W        W77795  36.541  33.926  14.967
16133W        W77796  17.748  31.452   4.186
16134W        W77797  39.994  17.650   4.349
16135W        W77798   9.652  24.986  13.513
16136W        W77799  15.230  41.014   4.288
16137W        W77800  36.070  22.123  11.405
16138W        W77801  37.834  31.548   1.715
16139W        W77802  32.908  17.166   1.868
16140W        W77803  16.110  43.391  11.871
16141W        W77804  24.585  26.695  13.891
16142W        W77805   9.244  26.457  13.923
16143W        W77806  19.731  43.814   2.339
16144W        W77807   5.405  19.676  11.529
16145W        W77808  42.401  10.853  11.004
16146W        W77809  29.024  28.159   1.836
16147W        W77810  39.374  16.727   2.373
16148W        W77811   3.307  37.858   2.222
16149W        W77812  15.155  20.551  14.350
16150W        W77813  24.130  25.614  13.918
16151W        W77814  10.649   7.820  14.784
16152W        W77815  39.908  39.529  12.961
16153W        W77816  37.425  28.642  13.905
16154W        W77817  34.117  21.542   1.910
16155W        W77818  32.003  13.813  10.469
16156W        W77819  32.524  15.696   0.888
16157W        W77820  44.982  32.448  12.965
16158W        W77821  13.159  37.522   0.931
16159W        W77822  18.790  22.508  12.843
16160W        W77823  43.843  14.211   1.820
16161W        W77824  32.590  19.771   3.378
16162W        W77825  38.967  43.767  10.021
16163W        W77826   7.780  25.616   2.859
16164W        W77827  11.840  30.159  13.431
16165W        W77828  22.566  37.402   2.680
16166W        W77829  14.177  33.911   1.728
16167W        W77830   1.337  27.660   1.904
16168W        W77831  22.637   0.886  12.951
16169W        W77832  28.034  43.373   0.836
16170W        W77833  38.005  11.229   3.684
16171W        W77834  11.147  41.850  14.420
16172W        W77835  11.709  44.409  12.050
16173W        W77836  11.753  19.578  13.944
16174W        W77837  23.218  39.024  11.958
16175W        W77838  13.792  21.672  14.427
16176W        W77839  11.730  19.650   1.727
16177W        W77840   5.193  18.684   2.681
16178W        W77841  44.974  35.870  14.886
16179W        W77842   8.710  13.806   4.643
16180W        W77843  13.218   9.294  10.462
16181W        W77844  44.293   2.377   1.439
16182W        W77845   3.931  23.687  11.972
16183W        W77846  25.593   2.847  10.465
16184W        W77847  24.682   7.198   3.150
16185W        W77848   4.207   2.434  11.500
16186W        W77849  29.105  30.091  13.799
16187W        W77850   1.933   3.416   2.242
16188W        W77851  17.119   1.270   1.863
16189W        W77852  12.706   6.848   2.257
16190W        W77853  14.296  27.191   5.133
16191W        W77854  27.597  28.945  14.876
16192W        W77855  38.331   3.756   0.439
16193W        W77856   3.727  19.667  12.421
16194W        W77857  43.406   9.679   0.797
16195W        W77858  28.068  13.817   3.635
16196W        W77859  30.049   1.323   2.773
16197W        W77860  29.945   7.277   0.918
16198W        W77861   6.693  28.447   4.256
16199W        W77862  31.057  34.501  12.008
16200W        W77863  41.337  28.626  14.841
16201W        W77864  41.016  19.066  10.455
16202W        W77865  10.344  24.574   2.417
16203W        W77866  33.427   3.817   3.292
16204W        W77867  27.508  16.641  12.402
16205W        W77868   8.663  28.566  13.389
16206W        W77869  44.358  26.508   1.816
16207W        W77870  17.267  22.592   3.630
16208W        W77871   6.195  27.551   0.727
16209W        W77872  30.506   6.303   2.226
16210W        W77873  16.129   7.710  12.461
16211W        W77874  34.009  34.528  12.037
16212W        W77875  41.897  38.494   2.282
16213W        W77876  16.746  28.152   4.130
16214W        W77877  27.585  40.444  14.924
16215W        W77878   4.753   5.709   4.781
16216W        W77879   9.272  39.831  11.398
16217W        W77880  44.497   7.890  12.355
16218W        W77881  38.006   0.905   1.929
16219W        W77882  43.297  33.037   1.929
16220W        W77883   8.350  11.682   4.321
16221W        W77884  30.515  38.906   1.850
16222W        W77885   2.946  11.299   1.442
16223W        W77886   0.806  33.576   2.726
16224W        W77887   7.403  24.006  11.865
16225W        W77888  43.967  18.709   3.320
16226W        W77889   0.270  28.625   1.766
16227W        W77890  35.064  30.091   1.239
16228W        W77891  42.990  20.768  10.982
16229W        W77892   6.742   9.309  14.464
16230W        W77893  18.558  36.551   4.701
16231W        W77894  37.477  30.658   2.816
16232W        W77895  39.063  24.630  10.531
16233W        W77896  38.553  37.981  13.854
16234W        W77897  17.231   9.689  14.436
16235W        W77898  11.728  28.550   2.733
16236W        W77899   1.322  32.967  14.022
16237W        W77900   8.286  41.493  14.797
16238W        W77901  24.208  12.791   3.692
16239W        W77902  10.262  16.649   4.113
16240W        W77903   7.393  29.443  13.956
16241W        W77904  39.340  10.339  10.559
16242W        W77905  11.767  26.024   4.116
16243W        W77906   0.840   1.953  10.966
16244W        W77907   5.850  19.773  14.909
16245W        W77908   0.386  38.982   1.268
16246W        W77909  40.493   0.830  14.764
16247W        W77910   4.943  18.764   1.757
16248W        W77911   1.404  34.039   2.237
16249W        W77912   7.715  41.376   3.664
16250W        W77913  38.412  22.221   2.208
16251W        W77914  16.171  38.331   1.330
16252W        W77915  23.071  29.628  14.384
16253W        W77916  31.595  25.640  12.928
16254W        W77917  21.661  15.310   3.381
16255W        W77918  29.922  11.238   1.727
16256W        W77919  17.193  35.433   0.845
16257W        W77920  39.833  15.241  13.469
16258W        W77921  19.200  11.188  10.593
16259W        W77922  30.132  32.407  14.881
16260W        W77923  42.009  26.142  13.821
16261W        W77924   6.763  27.627   1.846
16262W        W77925  18.750   8.785   2.665
16263W        W77926   2.801   9.838   2.336
16264W        W77927  32.027  33.622  12.930
16265W        W77928  17.685  20.081   4.211
16266W        W77929  12.738  30.082  13.377
16267W        W77930  32.936  43.450  10.605
16268W        W77931   9.202  40.447  12.914
16269W        W77932  11.706  19.254  12.891
16270W        W77933   6.774  17.093   4.707
16271W        W77934  30.056  42.966   1.247
16272W        W77935   7.250   7.200   4.265
16273W        W77936  27.634   5.313  13.801
16274W        W77937  44.836   6.912   3.632
16275W        W77938  27.960   9.836   3.786
16276W        W77939   5.412  33.428  14.780
16277W        W77940   7.196  21.035   4.721
16278W        W77941   8.821  16.074   1.771
16279W        W77942  27.525  42.913   2.302
16280W        W77943  13.621   3.314   3.192
16281W        W77944  13.264  22.009   4.336
16282W        W77945   6.691  14.675   1.726
16283W        W77946  44.372   0.254   4.751
16284W        W77947  23.027  15.314   2.710
16285W        W77948  43.435  30.540   5.251
16286W        W77949  13.704   9.162   2.848
16287W        W77950  11.195  24.580   4.649
16288W        W77951   0.800  24.652   3.281
16289W        W77952  27.029  40.405   0.356
16290W        W77953   6.887  14.328   3.838
16291W        W77954  42.398  27.469   1.920
16292W        W77955  19.660   8.236   4.598
16293W        W77956  41.458   9.386   3.826
16294W        W77957  35.466  35.443  12.356
16295W        W77958  31.924  29.944   3.827
16296W        W77959  31.481  28.538  14.363
16297W        W77960  17.774  24.623   0.820
16298W        W77961  33.423  28.505  12.391
16299W        W77962  12.617  42.337  11.999
16300W        W77963  18.618  33.492   1.418
16301W        W77964  23.683  24.625   0.806
16302W        W77965   7.737  17.083   5.271
16303W        W77966  29.584  20.228   1.930
16304W        W77967  16.635  33.418   4.650
16305W        W77968  41.790  23.616  13.385
16306W        W77969  26.174  28.491  14.287
16307W        W77970  16.213  22.567   2.692
16308W        W77971  39.331  41.856   4.686
16309W        W77972  22.127  34.096   0.346
16310W        W77973   4.816   6.746   4.719
16311W        W77974  20.541  44.901   3.177
16312W        W77975  18.626   8.835   5.296
16313W        W77976   3.420   7.306   2.707
16314W        W77977  35.383   0.814   4.743
16315W        W77978  11.245  44.465   2.719
16316W        W77979  17.724  24.098  11.504
16317W        W77980  12.723  23.493   2.391
16318W        W77981  10.795  25.216  10.520
16319W        W77982  21.743  12.683  10.908
16320W        W77983   9.394  34.900   1.355
16321W        W77984  12.655  22.714   3.330
16322W        W77985  16.771  33.983  12.875
16323W        W77986  31.064  15.176   0.831
16324W        W77987  28.975  14.716   0.442
16325W        W77988   2.394   9.345   2.310
16326W        W77989   1.306  16.799   3.860
16327W        W77990  40.329  15.597  13.839
16328W        W77991  31.539  21.184  12.051
16329W        W77992  18.788   6.372   3.309
16330W        W77993   0.928  42.805  13.447
16331W        W77994   4.295  16.774   2.863
16332W        W77995  41.333   3.893   0.378
16333W        W77996   4.358  25.029   1.417
16334W        W77997  35.433   3.809   9.925
16335W        W77998  22.022  42.892   1.403
16336W        W77999  27.073  38.009   5.697
16337W        W78000  10.370  16.084   1.933
16338W        W78001  13.750  32.939   0.311
16339W        W78002  40.407  12.767   9.924
16340W        W78003  10.293  26.521   0.849
16341W        W78004  24.607  24.021  13.524
16342W        W78005  27.016  14.780  11.606
16343W        W78006  24.001  32.069  14.432
16344W        W78007  25.514  17.194  12.852
16345W        W78008  15.703  13.114  14.467
16346W        W78009  39.911  44.440  10.569
16347W        W78010   8.884  25.065   1.873
16348W        W78011  43.473  17.083  12.382
16349W        W78012   0.761  11.337   4.717
16350W        W78013  38.561  10.650   4.205
16351W        W78014  31.073  39.961   3.649
16352W        W78015  18.559   3.716   3.754
16353W        W78016  16.290  29.569   1.332
16354W        W78017  16.717  38.839  14.031
16355W        W78018  17.248  13.642  14.896
16356W        W78019  15.241  15.784   4.280
16357W        W78020  13.718  14.146   2.670
16358W        W78021  12.334  23.149  10.545
16359W        W78022  42.525  25.004   2.180
16360W        W78023  24.226  21.232  13.807
16361W        W78024  28.561  16.778   3.255
16362W        W78025   4.705  23.068  10.912
16363W        W78026   4.788  39.903  10.895
16364W        W78027   1.761  35.857  10.634
16365W        W78028   5.749  26.488   0.741
16366W        W78029  17.713  20.540   0.258
16367W        W78030  32.077  43.340  14.918
16368W        W78031  42.445  29.969  11.500
16369W        W78032  32.613   1.348  10.637
16370W        W78033   9.703  21.661   0.767
16371W        W78034  36.530  21.186  10.599
16372W        W78035   7.280  39.355   4.161
16373W        W78036  44.303  20.588  13.833
16374W        W78037  24.624  41.847  13.890
16375W        W78038  18.104  14.760   1.274
16376W        W78039  14.726   6.757  11.003
16377W        W78040  16.745  11.689   3.705
16378W        W78041  21.227   6.406   0.439
16379W        W78042  21.213  21.733   3.273
16380W        W78043  41.297   6.196   2.396
16381W        W78044  24.116  30.500  13.457
16382W        W78045  17.708   6.420  14.910
16383W        W78046  15.807  11.830   4.164
16384W        W78047  21.064  26.612   2.193
16385W        W78048   5.927  21.738   4.775
16386W        W78049  40.356  39.038   1.306
16387W        W78050   6.202  21.564   4.607
16388W        W78051  32.518  17.672   4.701
16389W        W78052  39.337  40.987   4.156
16390W        W78053  42.303  20.152   1.891
16391W        W78054  38.359  13.824   4.194
16392W        W78055  28.506  15.087   3.380
16393W        W78056  42.846  30.049   3.755
16394W        W78057  33.467   5.780  14.478
16395W        W78058  15.086  27.674  13.390
16396W        W78059  39.002  10.296   2.385
16397W        W78060  40.919  32.453   2.895
16398W        W78061  31.998  10.854   4.226
16399W        W78062  42.823   2.900  10.889
16400W        W78063  27.663  40.999  14.493
16401W        W78064  11.222  34.519  13.401
16402W        W78065  22.629  36.387  12.980
16403W        W78066  26.025  34.474  12.011
16404W        W78067  43.000  15.639  11.398
16405W        W78068  27.138  37.085  10.567
16406W        W78069  31.598  27.555   4.642
16407W        W78070  28.661  23.097   1.818
16408W        W78071  10.249  22.629   5.110
16409W        W78072  30.138  42.523  11.378
16410W        W78073  26.177  40.827   1.882
16411W        W78074  30.457  23.108  11.596
16412W        W78075   1.907  28.109   0.948
16413W        W78076  27.454  44.275   4.698
16414W        W78077   6.920  39.411  11.604
16415W        W78078  37.548   4.308   0.889
16416W        W78079   7.845  31.028  13.979
16417W        W78080  38.403  42.348   2.772
16418W        W78081  38.820  27.019   3.274
16419W        W78082  44.866  17.261  13.387
16420W        W78083  18.142   0.362  11.432
16421W        W78084  20.684  24.577   1.806
16422W        W78085  17.739  42.410   2.677
16423W        W78086  39.954   4.893   1.815
16424W        W78087   1.345   2.439   3.259
16425W        W78088  19.148  15.311  14.761
16426W        W78089  43.308  21.072  14.006
16427W        W78090  30.048  18.641  11.050
16428W        W78091  25.151  21.614   0.452
16429W        W78092  18.238  20.610   4.116
16430W        W78093   2.792  38.895   2.819
16431W        W78094  11.364  32.080  13.055
16432W        W78095  21.116  24.488  13.882
16433W        W78096  28.002  24.188  14.415
16434W        W78097  38.512  41.998   1.821
16435W        W78098  28.168   1.949   0.359
16436W        W78099  36.935  24.207  10.410
16437W        W78100   2.428  40.976  13.966
16438W        W78101  11.646  26.649   0.281
16439W        W78102  24.568   3.408   1.745
16440W        W78103  25.153  28.467   1.810
16441W        W78104  24.020  27.057  13.374
16442W        W78105  39.020  10.183  14.946
16443W        W78106   0.374  31.920  10.410
16444W        W78107  29.443  44.493  11.911
16445W        W78108  41.372   7.331   4.201
16446W        W78109  42.345  44.320   4.653
16447W        W78110   0.453  15.085  10.929
16448W        W78111  15.627  27.537  14.363
16449W        W78112  34.510  31.500   0.271
16450W        W78113  41.974  42.395   4.198
16451W        W78114  13.725  25.060  12.340
16452W        W78115  33.094  11.206   0.858
16453W        W78116  30.088  27.981   1.933
16454W        W78117  15.198  26.156   2.664
16455W        W78118  17.279  10.307  11.036
16456W        W78119   5.414  27.034  10.438
16457W        W78120  11.753  32.049  13.405
16458W        W78121  14.654   3.920  13.060
16459W        W78122   5.375  16.091   4.114
16460W        W78123  30.109  28.598  11.561
16461W        W78124  27.661   8.168  11.431
16462W        W78125  22.091  23.688  14.865
16463W        W78126   3.749  22.234   4.333
16464W        W78127  19.670   7.222   3.191
16465W        W78128  28.003   2.790  12.029
16466W        W78129  42.463  41.795  12.499
16467W        W78130   6.904  40.514   2.195
16468W        W78131  40.854  10.789   0.838
16469W        W78132  26.499  17.279  11.600
16470W        W78133   2.337  36.435   3.833
16471W        W78134  12.762   8.382  13.450
16472W        W78135   9.367  43.964  10.539
16473W        W78136  33.393  22.066  13.967
16474W        W78137   4.788   3.244   2.676
16475W        W78138  26.194  21.051   3.248
16476W        W78139  42.294   4.770   2.828
16477W        W78140  15.612   6.901  12.579
16478W        W78141  28.465  32.431   0.911
16479W        W78142  43.880  44.944   2.403
16480W        W78143  39.412  13.741  13.517
16481W        W78144  23.670  22.164   4.714
16482W        W78145  24.169   6.821  12.046
16483W        W78146  24.695  30.530   0.954
16484W        W78147  34.536   8.324  10.050
16485W        W78148  26.961  38.485  11.449
16486W        W78149   6.741  22.136  14.301
16487W        W78150  40.447  39.397  14.444
16488W        W78151  28.489  30.027   0.331
16489W        W78152  27.682  39.822  12.562
16490W        W78153   1.846   5.386   4.635
16491W        W78154  18.687  44.915  11.077
16492W        W78155  21.525  39.337  14.990
16493W        W78156  17.791  30.986  12.007
16494W        W78157  44.393  33.057  14.807
16495W        W78158   1.761   3.297   1.879
16496W        W78159   9.803  34.463   0.459
16497W        W78160  35.911  42.458  11.378
16498W        W78161  28.678  23.074   0.731
16499W        W78162  23.521  34.982  13.902
16500W        W78163  20.626  42.298  13.538
16501W        W78164  25.127  18.548  11.977
16502W        W78165  30.444   5.315  12.026
16503W        W78166  32.009  34.037  13.872
16504W        W78167   7.822  28.602   1.323
16505W        W78168  33.513  29.648   5.118
16506W        W78169  17.741  21.656   4.231
16507W        W78170  12.287  35.487   1.249
16508W        W78171  28.523  29.629  11.868
16509W        W78172  27.973  21.528   3.730
16510W        W78173  14.181  43.971  14.943
16511W        W78174  31.911  40.476   1.785
16512W        W78175   2.737  42.484   1.394
16513W        W78176  33.541   5.835  12.413
16514W        W78177  43.859  33.058  13.843
16515W        W78178  18.285  25.201   0.336
16516W        W78179  36.390  44.907  11.091
16517W        W78180   1.944   0.418   2.873
16518W        W78181  30.496  33.072  13.509
16519W        W78182  10.725  23.514   2.844
16520W        W78183  19.646  27.968  12.030
16521W        W78184  37.045  40.495  12.912
16522W        W78185  44.807  38.888   2.877
16523W        W78186  29.436  13.190  14.409
16524W        W78187  31.545  28.589  12.897
16525W        W78188  16.182  11.274  10.422
16526W        W78189  33.016   4.216  12.930
16527W        W78190   6.371  37.994   1.285
16528W        W78191  40.904  19.630  12.511
16529W        W78192  24.985   0.746   0.905
16530W        W78193  31.899  25.121   1.753
16531W        W78194   4.739  37.068  12.049
16532W        W78195   7.415  42.474  14.971
16533W        W78196  37.952  18.572   3.767
16534W        W78197   3.297  40.409   2.324
16535W        W78198  12.718  44.276  12.358
16536W        W78199  33.567  39.896   1.243
16537W        W78200   2.803   4.405  14.833
16538W        W78201  20.104  30.947   3.302
16539W        W78202  44.404  14.766   2.879
16540W        W78203  32.061   6.395   5.228
16541W        W78204  23.082   5.350   3.270
16542W        W78205  44.770  19.676  11.029
16543W        W78206  24.589  11.311   0.283
16544W        W78207  41.039   7.849  13.333
16545W        W78208   9.206  28.168   5.224
16546W        W78209   7.860   7.724   4.194
16547W        W78210  38.399  17.268   2.675
16548W        W78211  36.998  17.704   4.730
16549W        W78212  27.133   6.426   4.241
16550W        W78213  14.231  39.486  11.082
16551W        W78214  27.142  30.161   0.434
16552W        W78215   5.316  36.926   0.407
16553W        W78216  21.680   4.764  11.921
16554W        W78217  38.040  18.231  10.994
16555W        W78218  19.131   5.400  14.432
16556W        W78219  20.053  33.104   0.728
16557W        W78220  21.545  14.755  11.468
16558W        W78221  19.216  39.403  12.414
16559W        W78222   2.449  22.179   4.304
16560W        W78223  40.446   4.731   9.921
16561W        W78224  13.135  40.485  14.515
16562W        W78225  13.332  41.837  14.327
16563W        W78226   8.661  12.190  12.517
16564W        W78227   9.389  22.143  12.064
16565W        W78228  43.360  31.980  11.505
16566W        W78229  29.534   9.351  13.346
16567W        W78230  18.169  21.182  11.945
16568W        W78231  39.420   8.667   0.878
16569W        W78232   6.697  16.266  14.355
16570W        W78233  35.560  25.037  12.826
16571W        W78234  35.047  39.970   4.634
16572W        W78235   5.388   7.275  13.809
16573W        W78236  44.502  34.596  10.492
16574W        W78237  28.079  34.871   2.800
16575W        W78238  18.694  15.791   3.173
16576W        W78239   6.759   7.903  12.491
16577W        W78240  24.649  15.644  14.826
16578W        W78241  23.631  30.439   4.244
16579W        W78242   9.194  26.134   1.414
16580W        W78243  14.182  19.649   4.207
16581W        W78244   4.234  42.328   0.958
16582W        W78245  27.989  27.088  10.603
16583W        W78246  17.775  31.125   0.929
16584W        W78247   3.350   9.370   0.274
16585W        W78248  15.743  15.194  12.056
16586W        W78249  26.505  27.584  13.983
16587W        W78250  22.715   7.699  13.413
16588W        W78251   3.748  37.421   4.640
16589W        W78252   4.736  23.181  10.486
16590W        W78253   3.814  41.985   0.948
16591W        W78254  42.470  28.940  13.046
16592W        W78255  16.731  17.558  12.365
16593W        W78256  25.582  43.499  12.001
16594W        W78257  36.972   8.169  14.491
16595W        W78258  34.982  23.701   0.404
16596W        W78259  40.467  34.003   2.299
16597W        W78260   3.432  19.707   2.862
16598W        W78261  33.107   5.301   3.671
16599W        W78262  31.027   8.396   4.691
16600W        W78263  31.082  13.229  14.503
16601W        W78264  23.664  38.485   2.312
16602W        W78265   3.747   3.925  14.401
16603W        W78266  29.645  18.779   2.359
16604W        W78267  10.834   9.214  13.340
16605W        W78268  34.375  38.488   0.930
16606W        W78269  11.638  20.261  12.833
16607W        W78270  27.023  31.430   4.181
16608W        W78271   4.422  26.456  11.402
16609W        W78272   9.243  23.207   0.855
16610W        W78273  32.072  34.566   1.362
16611W        W78274  41.296  32.582  14.374
16612W        W78275   9.151  16.741   4.813
16613W        W78276   0.312  10.808   3.677
16614W        W78277  31.034  36.972   1.224
16615W        W78278  15.606  36.049  13.013
16616W        W78279   3.956   3.386  10.517
16617W        W78280  30.936  37.416   0.782
16618W        W78281  10.854  11.192   4.289
16619W        W78282  37.434  41.949   3.639
16620W        W78283  15.164  29.655   4.145
16621W        W78284   1.476  36.401   2.880
16622W        W78285  24.214  14.249  10.057
16623W        W78286   6.390  18.099  11.440
16624W        W78287  12.754  21.697  14.781
16625W        W78288  24.053  12.357   4.247
16626W        W78289   8.888   4.856  10.619
16627W        W78290   8.803  26.629  10.932
16628W        W78291  22.029  40.353  14.389
16629W        W78292  17.801  30.526  12.054
16630W        W78293  35.385  10.206  13.000
16631W        W78294  39.918   7.211  12.097
16632W        W78295   5.862   4.371   2.828
16633W        W78296   9.720  21.617   3.810
16634W        W78297  21.723  36.849  14.287
16635W        W78298  25.525  21.586   2.302
16636W        W78299  36.098  40.894   3.724
16637W        W78300  44.301  28.114  12.481
16638W        W78301  22.079  21.068   0.391
16639W        W78302  17.754  16.589  13.973
16640W        W78303  40.428  41.039   4.153
16641W        W78304  20.145  32.128   1.740
16642W        W78305   4.815  41.868   4.183
16643W        W78306   6.762  43.878   1.856
16644W        W78307  35.584  31.581   3.726
16645W        W78308  43.350   6.756  14.491
16646W        W78309  19.631   0.286   4.304
16647W        W78310  23.636  32.512  14.809
16648W        W78311   7.335  42.490  13.931
16649W        W78312  27.081  14.194   1.245
16650W        W78313  10.182  25.168   3.359
16651W        W78314   6.739  31.940  11.433
16652W        W78315  31.477  29.576  13.323
16653W        W78316  26.606  39.412  11.566
16654W        W78317  11.356  13.278   3.271
16655W        W78318  41.953  24.225  14.468
16656W        W78319   0.387  18.233   2.855
16657W        W78320  15.583   9.304  11.433
16658W        W78321  41.999  36.361   0.964
16659W        W78322  44.958  11.355   2.724
16660W        W78323  35.969  19.647  13.325
16661W        W78324  42.328   2.412   3.150
16662W        W78325  38.841  41.964   2.300
16663W        W78326  37.382  13.140  11.929
16664W        W78327  27.591  32.102   2.713
16665W        W78328  33.434  26.007   0.917
16666W        W78329  34.099  34.066   3.187
16667W        W78330   8.692  36.407   3.359
16668W        W78331  21.094  41.880   2.809
16669W        W78332  30.943   9.876   3.717
16670W        W78333  18.569  24.073  12.425
16671W        W78334  19.134  11.803  10.981
16672W        W78335  31.150  42.516  13.482
16673W        W78336  28.515  25.124   4.153
16674W        W78337  30.465  38.341  13.896
16675W        W78338  22.632  13.700  10.471
16676W        W78339  23.073   0.850  12.969
16677W        W78340   7.394  39.002   1.358
16678W        W78341  41.350   8.365   1.371
16679W        W78342  41.859  35.018   2.276
16680W        W78343  20.688  40.512  14.928
16681W        W78344  13.793  33.921   2.845
16682W        W78345   8.878  36.393  11.961
16683W        W78346  25.043  27.138  12.535
16684W        W78347  13.210   3.285  11.069
16685W        W78348  11.727  13.844  10.943
16686W        W78349  32.019  38.541  13.435
16687W        W78350  24.078  40.824  11.983
16688W        W78351  22.009  10.250   1.752
16689W        W78352  16.727  23.581   1.295
16690W        W78353  30.157   8.276   0.329
16691W        W78354  29.134  37.087   0.907
16692W        W78355   2.936  15.767  13.955
16693W        W78356  30.631  41.991   1.410
16694W        W78357  29.568  23.692   0.796
16695W        W78358  41.468  12.328  13.032
16696W        W78359  31.596   0.307   3.224
16697W        W78360  26.959  12.279   1.784
16698W        W78361  34.107  30.583   3.338
16699W        W78362  40.948  16.261  11.113
16700W        W78363  27.661  38.895  11.063
16701W        W78364  36.969  18.697   4.177
16702W        W78365  24.641   2.854  11.452
16703W        W78366  44.384  38.523  12.992
16704W        W78367  19.218   0.275  13.048
16705W        W78368  29.027  23.590  11.994
16706W        W78369  36.405  18.661   0.417
16707W        W78370  21.035   2.238  12.479
16708W        W78371   5.352  31.122   0.770
16709W        W78372  15.722  35.436  11.043
16710W        W78373  39.456  31.091  12.465
16711W        W78374  12.353  24.202  13.378
16712W        W78375   2.278  27.453   1.242
16713W        W78376  11.678  33.509   4.332
16714W        W78377  27.622  25.491   4.656
16715W        W78378   8.895  21.124  10.954
16716W        W78379  24.136  21.157   4.663
16717W        W78380   9.254  22.025   4.299
16718W        W78381  30.058  19.564   1.215
16719W        W78382   7.251  18.765  12.020
16720W        W78383  36.446   3.404  11.938
16721W        W78384  44.341  21.645   0.804
16722W        W78385  17.124  13.302   0.835
16723W        W78386  37.942  16.600   3.673
16724W        W78387   0.980  35.864   3.868
16725W        W78388  16.181  32.000  14.383
16726W        W78389  11.347  22.561  13.327
16727W        W78390   0.888  25.095   4.210
16728W        W78391  26.520   0.427   1.405
16729W        W78392  16.608  34.952   0.806
16730W        W78393  31.988   7.872  13.863
16731W        W78394  11.700  28.110  14.394
16732W        W78395  43.337   6.268  14.792
16733W        W78396  42.811  36.454   0.402
16734W        W78397  40.844  13.230   0.272
16735W        W78398  26.191  33.050  13.926
16736W        W78399  29.571  14.593   2.669
16737W        W78400   7.723  32.399  14.999
16738W        W78401  29.464  28.154  11.875
16739W        W78402  11.739   9.680  12.088
16740W        W78403  15.147   0.806   0.839
16741W        W78404  19.157  37.410   3.188
16742W        W78405  28.148  30.631   2.359
16743W        W78406   5.266  19.739   4.160
16744W        W78407  35.887  15.694  10.616
16745W        W78408  15.705  22.208  14.861
16746W        W78409  24.188  43.282   2.306
16747W        W78410  15.779  10.325  12.886
16748W        W78411  36.015  16.196  11.065
16749W        W78412  19.139   0.877  11.914
16750W        W78413  24.021   7.733   4.801
16751W        W78414  26.576  15.125  13.398
16752W        W78415  39.953  34.951  13.309
16753W        W78416  24.581  39.454   5.144
16754W        W78417  18.165  24.081   2.181
16755W        W78418  39.981   9.748  10.478
16756W        W78419  22.143  43.496   2.722
16757W        W78420   3.837  21.547   3.364
16758W        W78421  34.080  22.121  11.557
16759W        W78422  38.865  36.850   3.160
16760W        W78423  24.090  20.036   0.245
16761W        W78424  34.869  10.844   3.261
16762W        W78425  33.042  26.597  14.436
16763W        W78426  39.429  23.545  10.465
16764W        W78427  22.013  15.657  13.932
16765W        W78428  19.723   5.903   0.852
16766W        W78429  40.326  35.412  10.943
16767W        W78430  19.776  11.233  13.334
16768W        W78431  23.621  18.749   1.311
16769W        W78432  12.157  24.225  10.964
16770W        W78433  24.212  30.610   0.736
16771W        W78434  39.415  22.529  10.507
16772W        W78435   5.911  37.894  13.049
16773W        W78436   7.861  23.991  12.513
16774W        W78437  20.216  14.258  13.893
16775W        W78438   8.180  25.618   3.384
16776W        W78439  25.093  32.526  14.020
16777W        W78440  24.225  29.113   4.632
16778W        W78441  13.796   6.298   4.759
16779W        W78442  33.017  39.373  13.397
16780W        W78443  28.550   8.319  14.360
16781W        W78444  28.562  14.683   0.406
16782W        W78445  18.652   7.180   2.308
16783W        W78446  26.634  21.715  13.957
16784W        W78447   0.765  35.555  13.458
16785W        W78448  22.715  18.691   4.607
16786W        W78449  39.062  29.063   2.853
16787W        W78450  26.622  30.038   4.270
16788W        W78451  28.680  16.282  12.062
16789W        W78452  37.061   4.938  10.065
16790W        W78453  23.201  34.430   1.829
16791W        W78454   9.338  19.161  13.914
16792W        W78455  22.737   3.727  12.999
16793W        W78456  44.302  14.806  14.487
16794W        W78457  44.264   9.787   0.861
16795W        W78458  22.539  33.479   4.181
16796W        W78459  19.550  33.889   4.235
16797W        W78460  34.569  20.656  11.573
16798W        W78461  11.851  25.014  12.001
16799W        W78462  28.535  28.154  12.976
16800W        W78463  37.978   6.311  12.424
16801W        W78464  43.483  15.713  13.547
16802W        W78465  29.460   8.715   5.119
16803W        W78466  27.197  27.575  13.526
16804W        W78467  22.006  23.198  14.290
16805W        W78468  41.326  25.976  14.899
16806W        W78469  13.846  34.086   0.464
16807W        W78470   7.201  38.075  12.384
16808W        W78471  29.990  41.889   2.685
16809W        W78472   4.707  40.855   2.869
16810W        W78473  17.675  29.452  14.376
16811W        W78474  11.224  20.723  12.569
16812W        W78475  29.633  17.069  10.016
16813W        W78476   3.750  42.873  10.511
16814W        W78477  26.526  20.103  11.013
16815W        W78478   2.446  44.261  13.967
16816W        W78479   4.820   9.196   1.280
16817W        W78480  28.648  38.853  14.371
16818W        W78481  21.716  19.595  13.827
16819W        W78482  13.346  44.310  12.375
16820W        W78483  23.156  21.110   2.848
16821W        W78484   6.331  36.385   4.653
16822W        W78485  30.976   9.247  12.503
16823W        W78486   7.810  36.877  14.448
16824W        W78487  36.870  37.000   2.895
16825W        W78488  40.967  25.187  13.347
16826W        W78489   9.839  13.218   1.446
16827W        W78490  41.317  38.860   0.335
16828W        W78491  15.747  30.023   1.896
16829W        W78492  21.563  39.915   1.930
16830W        W78493   8.759  18.132   4.821
16831W        W78494  32.012  23.704  13.791
16832W        W78495   8.734   0.849   5.251
16833W        W78496  39.867  28.961   3.213
16834W        W78497  40.799  23.687   3.804
16835W        W78498  21.626   2.303  14.288
16836W        W78499  38.058  22.135   4.157
16837W        W78500  20.558   1.789  12.372
16838W        W78501  29.646  37.408  11.060
16839W        W78502  41.836  21.628   1.863
16840W        W78503  32.470  24.613   1.806
16841W        W78504  40.938   0.920   4.732
16842W        W78505   2.772  36.855  11.017
16843W        W78506  16.091   6.408  11.494
16844W        W78507  13.673  39.904  10.583
16845W        W78508  18.149  27.503  12.573
16846W        W78509  34.113  32.029   3.284
16847W        W78510  26.502   9.869  12.987
16848W        W78511   6.315   3.746   1.932
16849W        W78512  28.999  34.546  14.923
16850W        W78513  37.442   3.397  11.600
16851W        W78514  16.133  25.026   0.351
16852W        W78515  34.883  43.471   3.285
16853W        W78516  41.454  22.682  13.343
16854W        W78517  12.829  28.091  14.291
16855W        W78518  26.611  35.942  14.514
16856W        W78519  28.041  19.114  13.450
16857W        W78520  33.945   3.296  10.462
16858W        W78521  35.495   2.781  13.518
16859W        W78522  18.670   2.398   3.666
16860W        W78523  35.444  42.928   2.683
16861W        W78524  44.325  31.955   1.344
16862W        W78525  20.237   8.238   4.823
16863W        W78526  29.611  15.150  14.862
16864W        W78527   7.275  27.111   3.714
16865W        W78528  42.951  40.449   4.809
16866W        W78529  18.582  32.968  12.394
16867W        W78530  22.524  39.445  11.454
16868W        W78531  30.124  22.506  14.291
16869W        W78532  42.831  15.147   2.733
16870W        W78533  23.666  38.485   1.246
16871W        W78534   6.408  36.505   1.439
16872W        W78535  43.844  42.394   4.817
16873W        W78536  40.944  42.932  13.413
16874W        W78537  34.605   2.400   3.150
16875W        W78538  34.028  16.159  10.526
16876W        W78539  15.774  14.204   3.384
16877W        W78540   0.460   0.331  13.993
16878W        W78541  36.520  32.392   2.728
16879W        W78542  41.368  29.500   1.786
16880W        W78543  38.331  36.927  11.420
16881W        W78544   0.916   8.237  13.398
16882W        W78545   4.927  43.336  14.959
16883W        W78546  28.994  40.439   1.835
16884W        W78547  39.403  21.110   1.267
16885W        W78548  29.937  13.645  14.779
16886W        W78549  13.196  19.072  12.012
16887W        W78550   2.783   9.180  14.985
16888W        W78551  31.502  15.173   0.939
16889W        W78552   4.847   0.883   5.159
16890W        W78553  23.989  12.733  11.043
16891W        W78554   0.815  25.625   2.863
16892W        W78555  43.897  14.241   1.396
16893W        W78556  42.942  10.248   0.778
16894W        W78557   0.812   7.252  11.861
16895W        W78558  31.427  15.614  14.907
16896W        W78559  42.943  44.324   5.232
16897W        W78560   2.408  18.689  13.393
16898W        W78561   0.796  28.073  12.093
16899W        W78562  44.872  31.999  14.976
16900W        W78563   0.410  42.798  12.047
16901W        W78564  27.683  33.946   3.759
16902W        W78565   8.292  29.614   1.237
16903W        W78566  34.032  37.484   2.310
16904W        W78567  15.713  18.255   0.399
16905W        W78568  17.564   7.772  11.948
16906W        W78569  42.344  33.614   0.419
16907W        W78570  23.120  33.567   0.963
16908W        W78571   8.901  11.333  13.922
16909W        W78572  41.988  27.004   3.218
16910W        W78573  40.877  23.084  11.074
16911W        W78574  13.650  23.121   2.881
16912W        W78575  21.033   4.358  12.502
16913W        W78576  34.387   8.721   3.647
16914W        W78577  20.130  42.316   3.725
16915W        W78578  42.841  39.851   0.363
16916W        W78579  33.892  15.291   1.935
16917W        W78580  39.480  22.583  13.407
16918W        W78581   7.222  14.700  10.405
16919W        W78582  21.102  11.647   1.275
16920W        W78583  32.987  40.987  14.938
16921W        W78584  43.888   3.790  12.828
16922W        W78585  21.024  40.951  11.486
16923W        W78586  22.739  17.195  12.073
16924W        W78587   4.450  26.172  11.389
16925W        W78588  28.159  22.135  12.425
16926W        W78589   4.860  27.522  11.856
16927W        W78590  17.275   2.888   3.176
16928W        W78591  10.841  33.911  12.878
16929W        W78592   9.644  10.808   1.225
16930W        W78593  15.300  10.307  14.321
16931W        W78594  26.557  35.980  10.072
16932W        W78595  38.075  34.604  12.488
16933W        W78596   5.241  12.712  14.350
16934W        W78597  23.237  10.680   3.167
16935W        W78598  15.678  15.125   1.344
16936W        W78599  13.632  31.423  14.887
16937W        W78600  36.394  34.556   1.211
16938W        W78601  31.465  37.512  11.090
16939W        W78602   0.893  44.464   1.909
16940W        W78603  34.372  12.657   1.378
16941W        W78604  13.139  23.726  11.549
16942W        W78605   7.398   7.222  11.000
16943W        W78606  30.132  32.045   3.194
16944W        W78607   1.866  31.043  13.902
16945W        W78608   0.798  38.007   4.799
16946W        W78609  36.920   1.917  13.826
16947W        W78610  33.390   4.772  10.611
16948W        W78611   4.423   1.780  13.504
16949W        W78612  44.753  30.475  12.040
16950W        W78613  11.821  34.442  14.314
16951W        W78614   6.713   7.748   3.690
16952W        W78615  32.498  30.643  14.357
16953W        W78616  28.183  20.692   5.285
16954W        W78617  25.582  44.350  14.407
16955W        W78618  15.818  25.021   3.258
16956W        W78619  24.033  43.970  10.948
16957W        W78620  29.625  30.525   5.278
16958W        W78621  12.287  32.451   0.249
16959W        W78622  22.190  13.191  13.932
16960W        W78623  42.969  36.035  14.806
16961W        W78624  33.928   6.397  14.945
16962W        W78625  42.869   6.798  11.405
16963W        W78626   6.815  19.228   3.736
16964W        W78627  40.908  37.431   4.672
16965W        W78628  28.612  40.522  11.590
16966W        W78629  32.953  25.545  13.926
16967W        W78630   0.395  31.083   1.784
16968W        W78631  37.470  25.977   4.260
16969W        W78632  39.937  28.586   3.229
16970W        W78633  32.959   6.239  11.991
16971W        W78634  22.042  31.422  10.422
16972W        W78635  12.842  33.071  12.538
16973W        W78636  42.414  22.142  13.472
16974W        W78637  21.166  30.606  10.953
16975W        W78638  31.142  27.484  13.403
16976W        W78639  18.165  31.988   0.459
16977W        W78640   1.373   2.308  14.920
16978W        W78641  23.673  19.568   3.150
16979W        W78642   1.367  22.065  10.579
16980W        W78643  11.320  34.516   4.605
16981W        W78644  20.162  10.726   4.217
16982W        W78645  26.547  18.139  10.517
16983W        W78646  14.266  18.138   2.730
16984W        W78647  41.949  11.750   5.084
16985W        W78648  43.465  34.493  11.020
16986W        W78649   7.210  44.428   4.680
16987W        W78650  19.076  41.502   4.237
16988W        W78651  39.975  21.614   1.440
16989W        W78652  33.476  26.951   2.378
16990W        W78653   1.359   8.179  12.959
16991W        W78654  43.018  24.189   3.192
16992W        W78655   2.732   5.797  11.921
16993W        W78656  10.281  40.047   4.268
16994W        W78657  29.459  41.464  11.012
16995W        W78658  32.888  29.118   2.419
16996W        W78659  18.283   4.863   1.340
16997W        W78660  35.562  14.783   1.874
16998W        W78661  33.977  14.719   4.351
16999W        W78662  35.071  44.366   0.368
17000W        W78663  40.328  21.694   4.734
17001W        W78664  28.527  16.116   1.434
17002W        W78665  16.622  10.759  10.945
17003W        W78666  28.089   7.171   2.810
17004W        W78667  10.350  12.679   4.270
17005W        W78668  33.908  26.166   0.328
17006W        W78669   1.961  19.217  13.848
17007W        W78670  40.951  11.670   3.734
17008W        W78671  11.353  13.255   4.745
17009W        W78672  29.640   5.205  13.434
17010W        W78673  28.014   6.819   1.767
17011W        W78674  38.975  18.585   2.758
17012W        W78675  32.572  38.976  14.427
17013W        W78676   0.778  23.017  11.556
17014W        W78677  18.593  44.981  12.917
17015W        W78678   4.244  13.730  13.880
17016W        W78679  21.578  27.467   2.328
17017W        W78680  10.733   0.744  12.940
17018W        W78681  27.535   4.941  11.467
17019W        W78682  13.215  34.535  12.522
17020W        W78683  38.919  16.643  11.453
17021W        W78684  16.201  27.689   3.743
17022W        W78685  32.120  40.030   2.276
17023W        W78686  28.961  18.625   3.747
17024W        W78687  16.623  14.195   4.163
17025W        W78688   6.723  40.042   1.274
17026W        W78689   0.816  41.798  12.978
17027W        W78690  29.451  34.446  10.467
17028W        W78691  27.092  28.605  11.115
17029W        W78692  21.566   6.193  13.486
17030W        W78693   1.266  13.198   4.692
17031W        W78694  21.617  23.498   2.269
17032W        W78695  30.949  30.646  14.353
17033W        W78696  12.736  19.103  11.923
17034W        W78697  33.556  32.619   1.301
17035W        W78698  23.709   6.326  10.104
17036W        W78699  35.553   0.391   4.135
17037W        W78700  18.599  29.952  12.459
17038W        W78701  29.423  39.967   4.336
17039W        W78702   5.403   1.418   0.433
17040W        W78703  12.674  31.953  11.088
17041W        W78704  39.945  26.555  10.526
17042W        W78705   5.293  24.033   0.819
17043W        W78706  27.506   7.837   1.883
17044W        W78707  16.229  24.498   2.817
17045W        W78708  29.076   8.178   0.940
17046W        W78709   9.273  30.581   3.780
17047W        W78710   6.362  29.652   4.823
17048W        W78711  44.408  41.378   1.443
17049W        W78712  44.346  30.931   3.370
17050W        W78713  16.790  14.314   2.834
17051W        W78714  14.714  31.036  12.510
17052W        W78715  33.520  41.900   2.405
17053W        W78716   8.257  36.047  12.439
17054W        W78717  43.292   1.755  11.597
17055W        W78718  28.094  33.501  12.890
17056W        W78719   6.378  29.436  12.858
17057W        W78720   4.363  11.719   0.757
17058W        W78721   9.699  32.474  13.395
17059W        W78722   7.904   6.392   1.424
17060W        W78723  37.923  30.540  14.980
17061W        W78724  21.641  13.318  14.351
17062W        W78725  25.531  28.622  11.057
17063W        W78726  43.927  31.075  14.962
17064W        W78727   3.373   7.741   2.825
17065W        W78728  29.469  29.467  14.847
17066W        W78729  36.545  30.975   0.756
17067W        W78730  12.125  37.502  14.997
17068W        W78731  11.135  15.154  11.445
17069W        W78732  30.050   0.340   2.241
17070W        W78733  43.890   1.290   2.724
17071W        W78734  20.190  24.616   1.917
17072W        W78735  21.238  24.619   0.785
17073W        W78736  44.944  38.858  10.931
17074W        W78737   4.726  27.089   2.712
17075W        W78738   3.256  35.579   1.302
17076W        W78739  10.221  16.704   1.238
17077W        W78740   9.333  12.625   3.238
17078W        W78741   5.409  30.446  11.008
17079W        W78742   0.899   5.351  11.552
17080W        W78743  16.112  40.918   2.901
17081W        W78744  40.878  37.012   1.352
17082W        W78745  10.160   0.397   0.795
17083W        W78746  28.484  28.053   2.212
17084W        W78747  36.391  28.455   4.300
17085W        W78748   7.878  20.666  11.982
17086W        W78749  11.202  39.062  13.413
17087W        W78750  11.336  28.601  14.343
17088W        W78751  13.618  23.536  13.498
17089W        W78752  37.342  20.566  13.443
17090W        W78753  36.421  18.063  10.604
17091W        W78754  21.251  24.505  10.535
17092W        W78755  30.994  22.675   3.647
17093W        W78756  19.177  10.749  12.827
17094W        W78757  30.613  36.853  14.427
17095W        W78758   2.869  18.254  14.797
17096W        W78759  11.320  43.001   3.646
17097W        W78760   7.725  40.454   0.741
17098W        W78761  23.692  11.776   0.964
17099W        W78762  20.093  27.618  11.103
17100W        W78763   3.761  39.875  10.577
17101W        W78764  12.268  43.464  12.082
17102W        W78765  26.008   1.395   1.218
17103W        W78766  22.026  36.360   4.258
17104W        W78767  27.508   7.750   4.768
17105W        W78768  20.556  26.504  11.072
17106W        W78769  14.177  27.646   4.692
17107W        W78770  44.976  13.329   2.260
17108W        W78771  15.631  27.510  12.884
17109W        W78772  17.786  29.057   4.273
17110W        W78773   3.424   3.856   0.775
17111W        W78774  12.819   1.965   0.892
17112W        W78775   7.281  36.410   2.662
17113W        W78776  17.279  29.000  10.143
17114W        W78777  20.618  17.726  14.795
17115W        W78778  44.356  35.500   1.306
17116W        W78779  23.237   0.281   1.848
17117W        W78780   4.770  32.100   2.862
17118W        W78781  24.585   5.309   2.901
17119W        W78782  10.342  29.966   2.899
17120W        W78783  44.367  12.753  13.958
17121W        W78784  26.135  14.121  14.354
17122W        W78785   8.728  41.869  12.070
17123W        W78786   1.862  38.048   3.154
17124W        W78787  38.835  14.312  11.969
17125W        W78788  41.833  27.511  14.332
17126W        W78789  23.590  23.630  13.433
17127W        W78790   7.321   7.177   0.435
17128W        W78791  10.641  44.972  14.355
17129W        W78792   4.918   5.828  12.049
17130W        W78793  36.090  20.200   9.615
17131W        W78794  26.963   5.229  12.031
17132W        W78795  36.088  13.256  10.552
17133W        W78796  31.151  27.007  12.462
17134W        W78797  10.189  23.573  14.348
17135W        W78798  21.681   6.240  10.421
17136W        W78799  39.006  30.128   4.243
17137W        W78800  12.831  29.590   2.857
17138W        W78801  44.300  25.642  12.990
17139W        W78802  42.842   2.352  14.982
17140W        W78803  37.840  36.995   2.291
17141W        W78804   5.360  41.911   4.309
17142W        W78805  11.205   1.768  11.604
17143W        W78806  37.511   9.646   2.256
17144W        W78807  34.092   3.865   0.742
17145W        W78808   1.293  10.718  14.375
17146W        W78809  37.403  24.679   1.718
17147W        W78810  31.610  38.832   2.673
17148W        W78811  34.492  43.978   2.284
17149W        W78812  41.809  21.750  14.820
17150W        W78813  36.432  35.891   0.249
17151W        W78814  27.160  33.984  11.385
17152W        W78815  30.651  17.721   0.249
17153W        W78816  13.725  24.661  11.860
17154W        W78817  39.552  10.140   1.259
17155W        W78818   9.885   7.205   3.728
17156W        W78819  19.080   5.819  12.545
17157W        W78820   2.297   4.878  13.493
17158W        W78821   1.422  28.939   0.899
17159W        W78822  13.150  27.682   2.203
17160W        W78823   2.389  26.486  13.008
17161W        W78824  30.042  37.008  12.030
17162W        W78825  11.702  16.167   3.328
17163W        W78826  37.074   0.987   1.377
17164W        W78827   5.259   7.322   4.170
17165W        W78828  16.658  16.194  11.535
17166W        W78829  37.495  33.895   1.859
17167W        W78830  32.451  41.328  14.786
17168W        W78831  40.988   5.341  11.016
17169W        W78832  23.013  35.063   3.253
17170W        W78833  19.225  29.048   0.960
17171W        W78834  30.144  26.112   2.765
17172W        W78835  19.707  38.463   3.719
17173W        W78836  36.529  29.981   2.671
17174W        W78837   3.740  22.073   4.823
17175W        W78838  12.235  41.901  11.490
17176W        W78839  34.054  22.111   1.347
17177W        W78840  17.198  23.713   1.896
17178W        W78841  19.279  19.611   2.902
17179W        W78842  29.448  43.388   0.731
17180W        W78843   5.730  44.801   0.261
17181W        W78844  22.017   7.907  11.932
17182W        W78845  21.735   8.787   0.339
17183W        W78846  15.120  15.265   2.326
17184W        W78847   5.419   1.766   1.431
17185W        W78848  23.585  40.881  13.015
17186W        W78849  40.817  32.554  13.531
17187W        W78850  31.084   4.894   3.207
17188W        W78851  23.217  10.146  10.135
17189W        W78852   0.257  16.154   4.328
17190W        W78853  35.974  31.946   0.851
17191W        W78854   9.241  44.946  12.895
17192W        W78855  36.571  33.439  14.465
17193W        W78856  41.987  39.509  10.480
17194W        W78857  30.017   7.225  12.970
17195W        W78858  44.291  19.548  13.004
17196W        W78859  29.000   6.706  14.822
17197W        W78860   2.849  34.053   1.302
17198W        W78861  41.449  15.797   2.839
17199W        W78862  14.739  27.577  14.420
17200W        W78863  20.617  24.582   4.292
17201W        W78864  38.988  21.697  13.918
17202W        W78865  14.312  40.010  13.374
17203W        W78866  28.614   8.873   3.345
17204W        W78867  11.805  30.416  12.504
17205W        W78868  29.970  39.538  13.004
17206W        W78869   7.666  17.257  12.455
17207W        W78870   1.361   4.766  14.784
17208W        W78871  37.517  37.547   1.270
17209W        W78872   3.744   6.777   4.691
17210W        W78873  17.191  40.018  14.888
17211W        W78874  11.740   4.367   3.305
17212W        W78875  19.628  13.322  14.940
17213W        W78876  32.463  27.642  13.807
17214W        W78877  12.853  14.829   1.919
17215W        W78878  37.388  10.182   4.720
17216W        W78879  23.132   0.493   3.211
17217W        W78880  13.706   0.906  13.962
17218W        W78881  43.446  11.715   1.283
17219W        W78882  17.066  21.255   5.262
17220W        W78883  41.858  15.803  11.490
17221W        W78884   6.787  26.065  13.407
17222W        W78885   3.728  43.462  13.900
17223W        W78886   7.855  37.507  13.909
17224W        W78887  19.150   2.228  14.976
17225W        W78888  10.723  34.384  13.330
17226W        W78889  36.006  32.523   3.859
17227W        W78890  30.558  18.099  13.490
17228W        W78891  33.003  18.097   3.817
17229W        W78892   1.808   9.159   2.788
17230W        W78893  38.457  11.137   3.306
17231W        W78894  12.838  11.813  14.344
17232W        W78895  29.650  16.691  14.874
17233W        W78896   6.756   3.792  12.405
17234W        W78897  26.046  26.512   2.366
17235W        W78898  26.515  33.097  10.434
17236W        W78899  32.992  11.810   3.765
17237W        W78900  34.892  31.445   3.245
17238W        W78901   9.876  13.349   0.387
17239W        W78902  19.666   5.765  12.406
17240W        W78903  22.023  21.139  13.351
17241W        W78904  19.696  35.100   0.919
17242W        W78905  31.645  16.701  14.355
17243W        W78906   0.437  43.020   4.666
17244W        W78907  17.651  30.930   4.255
17245W        W78908  33.062  27.500  11.042
17246W        W78909   7.385  43.325   3.229
17247W        W78910  42.371  38.962   0.249
17248W        W78911   3.270  36.532  11.440
17249W        W78912  33.618   8.705  10.532
17250W        W78913  18.068   9.340  12.973
17251W        W78914  30.159  33.050   2.848
17252W        W78915  29.014  18.175  12.898
17253W        W78916  15.633  41.786  11.481
17254W        W78917  41.952  24.516   4.604
17255W        W78918  19.175  40.397   1.224
17256W        W78919   5.237  12.686  12.919
17257W        W78920  12.803   5.758  11.032
17258W        W78921  11.221  28.122   3.220
17259W        W78922   8.211  36.964   2.359
17260W        W78923  16.795  31.470  11.533
17261W        W78924  23.155  34.972   1.926
17262W        W78925   6.776  15.171  11.030
17263W        W78926   0.273  21.539  11.509
17264W        W78927   2.295  29.088   4.828
17265W        W78928  25.150   2.954  10.932
17266W        W78929  38.831  10.765   3.788
17267W        W78930  44.304  15.734  13.381
17268W        W78931  14.320   7.209   5.155
17269W        W78932   5.924   6.826   2.390
17270W        W78933  13.622   1.482   1.857
17271W        W78934   0.368  10.866  14.839
17272W        W78935  40.825  33.004   4.711
17273W        W78936   5.411   0.891   0.916
17274W        W78937  41.967  40.977   3.727
17275W        W78938   8.856   0.748   4.670
17276W        W78939  20.697  31.030  12.472
17277W        W78940  33.506   3.811  12.516
17278W        W78941   6.263   6.719   0.248
17279W        W78942  35.992  35.598  12.491
17280W        W78943  29.531  39.523  11.592
17281W        W78944  17.227  36.588  12.881
17282W        W78945  10.866  36.376  13.923
17283W        W78946  12.173   9.704   3.258
17284W        W78947   5.234  44.827   2.809
17285W        W78948  33.029  42.871  11.867
17286W        W78949  14.114  13.250   0.777
17287W        W78950  30.144  36.991  12.843
17288W        W78951  20.541  26.070  12.886
17289W        W78952  10.247  18.665  11.870
17290W        W78953  19.732  34.494  14.843
17291W        W78954  32.046  14.167  14.001
17292W        W78955  24.681  21.687   1.366
17293W        W78956  18.221   3.820  14.426
17294W        W78957  26.526  33.529   4.625
17295W        W78958  41.985  14.207  11.506
17296W        W78959  10.265  10.298   0.475
17297W        W78960  37.494  17.710   3.793
17298W        W78961  28.622   9.220  13.885
17299W        W78962  36.992  18.563  14.283
17300W        W78963  27.515  38.062   3.339
17301W        W78964   8.213  24.141   3.275
17302W        W78965  43.379   6.294   5.232
17303W        W78966  41.519   8.316  12.987
17304W        W78967  22.096   3.225  13.945
17305W        W78968   6.297  18.119   0.854
17306W        W78969   8.207   9.299   4.728
17307W        W78970  17.126  43.306  11.940
17308W        W78971  16.290  30.501   4.713
17309W        W78972  32.092  23.654   2.672
17310W        W78973  22.087  17.661  11.438
17311W        W78974  43.018  33.097   0.844
17312W        W78975  13.325  30.502   2.181
17313W        W78976  28.050  38.026  10.533
17314W        W78977  39.995  18.762   2.335
17315W        W78978  21.684  38.368   2.816
17316W        W78979  41.015   1.261  12.046
17317W        W78980  26.032  35.554   4.803
17318W        W78981  34.437  36.058  13.851
17319W        W78982   0.493  11.335   2.296
17320W        W78983  27.496   0.915   4.171
17321W        W78984   4.360  14.211  12.552
17322W        W78985  17.152   9.202  11.490
17323W        W78986  19.625   1.447   3.192
17324W        W78987   6.352  11.760   2.857
17325W        W78988  42.862  40.008  10.629
17326W        W78989   8.828  18.589  10.445
17327W        W78990  15.606  35.458   0.785
17328W        W78991   7.725  24.645  13.036
17329W        W78992  25.005  35.931  10.469
17330W        W78993  18.643   5.400   1.809
17331W        W78994  21.105  42.963   1.881
17332W        W78995  20.264   6.327  13.898
17333W        W78996  43.777  37.044   1.837
17334W        W78997  34.119  35.461   3.189
17335W        W78998  28.620  41.900  14.790
17336W        W78999  28.580  16.732  13.010
17337W        W79000   4.438   6.714  10.913
17338W        W79001   4.847  32.483  14.983
17339W        W79002  40.491  43.435   2.751
17340W        W79003  40.488  16.297  11.927
17341W        W79004  34.110   5.790  11.413
17342W        W79005  25.661  27.541  10.586
17343W        W79006  35.483  33.908  11.965
17344W        W79007  23.218  10.366  14.806
17345W        W79008  11.305  34.422  13.884
17346W        W79009  17.673   0.879   1.770
17347W        W79010  18.290  41.998   4.197
17348W        W79011  40.311  22.167  14.764
17349W        W79012  43.983   9.367  13.451
17350W        W79013  12.757  34.971  14.410
17351W        W79014  38.471  11.858  13.006
17352W        W79015  20.194  19.610  10.564
17353W        W79016  38.024   0.413   2.273
17354W        W79017  15.220  31.931   3.149
17355W        W79018  17.258  38.471   0.411
17356W        W79019  19.638  15.124   3.830
17357W        W79020  36.559  34.928   2.879
17358W        W79021  25.049  30.422   3.787
17359W        W79022  32.891  28.627   1.365
17360W        W79023   7.279  44.457   1.282
17361W        W79024  23.117  42.784   3.288
17362W        W79025   1.277  19.084  11.449
17363W        W79026  27.595  12.242   0.482
17364W        W79027  22.734  29.442  12.026
17365W        W79028  29.527  38.000  11.585
17366W        W79029  17.627  38.397  14.779
17367W        W79030  35.923  35.103  13.001
17368W        W79031   5.399  20.210  14.324
17369W        W79032  26.463  36.570   5.137
17370W        W79033   4.861  29.576   5.201
17371W        W79034   2.336  19.071  12.511
17372W        W79035  26.084  16.617   4.723
17373W        W79036  40.461  24.620  10.965
17374W        W79037   7.404  13.163  14.504
17375W        W79038   5.878   5.410   0.827
17376W        W79039  43.902  23.129   1.244
17377W        W79040  28.599  44.803   4.786
17378W        W79041  44.991  24.181  12.044
17379W        W79042  40.544   5.365   3.250
17380W        W79043  10.801   7.728  13.920
17381W        W79044  31.554   6.795   3.816
17382W        W79045  13.652  26.147  14.318
17383W        W79046  29.021  38.028  11.561
17384W        W79047  35.427  42.839  10.455
17385W        W79048  39.347   0.256  14.849
17386W        W79049  25.099  37.419   5.128
17387W        W79050  22.683  37.060   4.624
17388W        W79051  41.978  27.666  12.530
17389W        W79052  17.662   0.965  14.805
17390W        W79053  40.343  14.105   1.413
17391W        W79054  30.124  42.441   3.670
17392W        W79055  42.312  35.891  10.487
17393W        W79056  20.131   1.973   3.248
17394W        W79057   0.403  28.066  13.543
17395W        W79058   8.286   7.888   4.756
17396W        W79059  32.478   8.800  11.426
17397W        W79060   2.397  32.886   2.189
17398W        W79061  32.581  33.925  11.561
17399W        W79062   8.224  15.726  12.842
17400W        W79063   0.361  28.099   2.781
17401W        W79064  14.336  34.473   0.845
17402W        W79065   7.747  44.495  13.035
17403W        W79066  19.726  30.450  11.866
17404W        W79067  42.796  22.590  12.041
17405W        W79068  23.655  17.275   4.140
17406W        W79069   1.475  41.521  14.370
17407W        W79070  42.938  17.790   1.444
17408W        W79071  43.428  36.081   9.998
17409W        W79072  43.819   9.675  12.497
17410W        W79073  41.937  10.815   3.187
17411W        W79074  22.069  28.968   0.815
17412W        W79075  16.732  34.513  13.491
17413W        W79076   1.835   7.399  10.638
17414W        W79077  40.808  33.042   3.232
17415W        W79078  22.732  22.162  12.577
17416W        W79079  44.855   0.783   0.931
17417W        W79080  28.456  28.097  11.521
17418W        W79081  35.473  27.114  12.999
17419W        W79082   3.396  43.271  14.392
17420W        W79083  23.673  22.670  10.102
17421W        W79084  31.643  44.805   4.189
17422W        W79085   5.768  40.021  10.568
17423W        W79086   2.300  15.714  14.359
17424W        W79087   4.354  32.397   0.866
17425W        W79088  32.939  15.176   1.272
17426W        W79089  31.627  33.470   4.716
17427W        W79090  20.233  30.494   3.329
17428W        W79091  31.586  10.263   3.708
17429W        W79092  24.581  23.138  10.413
17430W        W79093  41.017  15.614  13.370
17431W        W79094  26.493   1.927  14.415
17432W        W79095  32.962   7.686  12.437
17433W        W79096   1.277   0.793   0.913
17434W        W79097  43.513  17.579   0.882
17435W        W79098  12.843  28.647   3.714
17436W        W79099  14.744  16.083  14.385
17437W        W79100  37.993  16.754  14.286
17438W        W79101  14.201  34.376   1.912
17439W        W79102  19.228  33.521  10.471
17440W        W79103  33.419  15.281  13.888
17441W        W79104  28.520  29.059   2.790
17442W        W79105  30.011  39.858   1.784
17443W        W79106  12.222   1.379   4.201
17444W        W79107  12.134   0.373  10.539
17445W        W79108  13.599  31.414   2.402
17446W        W79109  15.130  17.236   2.866
17447W        W79110   3.337  19.552   3.250
17448W        W79111  41.997  13.173  13.538
17449W        W79112  10.802  37.834  12.425
17450W        W79113  17.131  16.235   3.713
17451W        W79114  10.382   5.343   5.277
17452W        W79115  41.477   3.892   4.699
17453W        W79116  21.039  26.508  14.320
17454W        W79117  25.648  36.083  13.477
17455W        W79118  33.073   3.412  12.048
17456W        W79119  25.656  32.574  10.428
17457W        W79120  32.395  36.913  12.364
17458W        W79121  20.051   9.747   0.399
17459W        W79122  23.006  32.497  11.974
17460W        W79123  31.099  12.304  14.971
17461W        W79124  36.463  16.747   2.182
17462W        W79125  30.518  18.568   3.687
17463W        W79126  11.140   6.743  12.402
17464W        W79127  24.656   9.870  11.946
17465W        W79128  17.255  43.009   4.608
17466W        W79129  30.079  20.043   3.155
17467W        W79130  32.619  25.515   1.377
17468W        W79131   2.235  29.124  14.938
17469W        W79132   5.294   1.902  12.091
17470W        W79133  20.028  20.161   3.737
17471W        W79134  17.790  37.966  11.451
17472W        W79135  31.613  19.700  12.924
17473W        W79136  43.004   8.759   4.339
17474W        W79137  27.011  30.658   3.664
17475W        W79138  16.118   0.969   3.355
17476W        W79139   1.415  28.981  14.485
17477W        W79140   6.269  15.693   4.300
17478W        W79141  36.908  20.165  13.971
17479W        W79142  29.022   0.818  14.414
17480W        W79143   7.293  28.534   1.424
17481W        W79144   0.421  44.413  14.901
17482W        W79145  30.432  21.152  11.471
17483W        W79146  42.289  24.512   0.862
17484W        W79147  22.220   7.793  14.408
17485W        W79148  16.235  14.805   3.226
17486W        W79149  36.515  22.627   4.767
17487W        W79150  41.939   6.764  14.375
17488W        W79151  14.223  30.134  11.075
17489W        W79152  17.608   6.183  12.361
17490W        W79153  33.129  13.712  14.978
17491W        W79154  31.595  30.967  12.959
17492W        W79155  27.118  32.938  10.579
17493W        W79156  38.011  20.151   2.417
17494W        W79157  14.291  29.546   2.306
17495W        W79158   0.414  44.835   2.739
17496W        W79159   2.911  43.301  10.549
17497W        W79160  42.300  22.131  10.406
17498W        W79161  41.341  12.265  14.820
17499W        W79162  34.563   2.777  10.573
17500W        W79163  29.615  39.914  10.908
17501W        W79164  12.219  35.420  13.000
17502W        W79165  32.893  34.491   3.363
17503W        W79166  37.061  34.502   3.287
17504W        W79167  35.543   3.242   4.619
17505W        W79168  26.669   4.256  10.899
17506W        W79169   1.342  16.696   1.785
17507W        W79170   7.687  22.736  13.996
17508W        W79171  17.138  36.929  12.979
17509W        W79172  25.633   5.262   5.637
17510W        W79173   5.753  18.739   2.405
17511W        W79174  34.046  40.974  10.528
17512W        W79175  22.554  44.774   2.889
17513W        W79176  29.118  35.005  11.542
17514W        W79177  30.932  14.121   4.647
17515W        W79178   6.428   7.765  12.436
17516W        W79179   4.244  38.427   4.144
17517W        W79180  22.696  22.196   0.295
17518W        W79181   8.384  23.175   4.119
17519W        W79182  31.057  20.723  13.320
17520W        W79183  15.303  40.525   5.250
17521W        W79184  26.173  21.758   2.785
17522W        W79185   0.978  39.489   2.881
17523W        W79186  24.001  42.850   0.837
17524W        W79187  33.462  16.659  11.002
17525W        W79188  31.055   6.810  11.579
17526W        W79189  22.746  44.363  14.893
17527W        W79190  10.311   1.879  10.005
17528W        W79191  34.907   9.386  13.005
17529W        W79192  34.977  37.878   2.902
17530W        W79193  29.090  36.020   3.232
17531W        W79194  29.081   9.859  12.953
17532W        W79195  33.992   5.802  10.903
17533W        W79196  25.581  14.300  10.048
17534W        W79197  18.187   6.332   0.757
17535W        W79198   4.754  11.863  14.936
17536W        W79199  26.983  26.960   1.852
17537W        W79200  35.601  24.177   4.194
17538W        W79201   2.352  21.721   4.838
17539W        W79202  33.482  20.059   1.828
17540W        W79203  40.472  39.013   0.966
17541W        W79204   7.701   4.265  14.384
17542W        W79205  17.719  12.665  14.405
17543W        W79206  22.199   4.219   3.373
17544W        W79207  22.623  24.204   4.216
17545W        W79208   8.254  20.262   0.911
17546W        W79209  18.253   0.352   0.434
17547W        W79210  36.062  29.435   2.769
17548W        W79211  18.625  21.621  11.448
17549W        W79212  35.989   2.351   4.605
17550W        W79213  19.654  27.192  12.454
17551W        W79214  24.501  34.120   3.223
17552W        W79215  44.272  14.747  11.610
17553W        W79216  35.501  25.514   0.916
17554W        W79217  19.126  15.103   2.370
17555W        W79218   0.770  24.505  10.506
17556W        W79219   3.268  39.996  11.476
17557W        W79220  32.439  15.586  13.873
17558W        W79221   0.816  36.543   4.648
17559W        W79222  25.010  30.445   1.325
17560W        W79223   0.253  29.094  13.434
17561W        W79224   6.910  14.234  11.122
17562W        W79225  12.155  14.118   3.206
17563W        W79226  28.575  23.162  13.374
17564W        W79227   2.856  44.491  11.517
17565W        W79228  37.337  42.499  12.396
17566W        W79229  24.175  13.347  12.952
17567W        W79230  30.458  22.734   0.817
17568W        W79231  23.568  23.067  11.074
17569W        W79232  25.603   2.279   1.901
17570W        W79233  31.433  28.946   4.278
17571W        W79234  20.713  30.153   4.304
17572W        W79235  34.920   4.270  12.525
17573W        W79236  24.132  27.131   3.814
17574W        W79237   9.856   9.756  10.954
17575W        W79238  26.043  34.485   0.338
17576W        W79239  15.239  23.042  10.614
17577W        W79240  36.097  36.943   3.741
17578W        W79241  31.066   2.299  11.962
17579W        W79242  38.894  15.586   2.199
17580W        W79243  29.018  33.001  10.451
17581W        W79244  19.166  42.283   1.255
17582W        W79245   7.399  26.119  10.913
17583W        W79246   1.788   2.890  13.491
17584W        W79247  28.513   9.285   2.897
17585W        W79248  13.350   4.795   4.715
17586W        W79249  35.472  41.471  14.294
17587W        W79250  31.072   7.716   3.635
17588W        W79251  42.286  12.349   0.328
17589W        W79252   7.907  35.027   0.263
17590W        W79253  40.476   6.185   3.825
17591W        W79254   5.890  14.768  10.571
17592W        W79255  37.498  15.276  10.518
17593W        W79256   1.344  18.132  10.420
17594W        W79257   9.769  18.663   0.306
17595W        W79258  19.086   4.744  14.817
17596W        W79259  37.364   8.377  14.916
17597W        W79260  32.478  14.823   1.280
17598W        W79261  38.387  15.645   5.133
17599W        W79262  22.123  29.554  12.824
17600W        W79263  36.894  35.864   2.229
17601W        W79264  39.421  13.793   0.424
17602W        W79265  41.923   5.696  12.057
17603W        W79266  25.478   3.328   2.399
17604W        W79267  10.797   6.316   5.147
17605W        W79268  35.035  33.518  12.918
17606W        W79269   7.677   9.682   4.711
17607W        W79270  29.506  15.736   4.141
17608W        W79271  23.013   1.752   1.820
17609W        W79272   7.276  43.973  13.455
17610W        W79273   0.429  36.425   4.253
17611W        W79274  18.124  15.625   3.805
17612W        W79275  12.343   4.225   3.216
17613W        W79276  44.458  28.568   2.199
17614W        W79277   1.972  20.649  11.026
17615W        W79278  32.084  13.686   1.738
17616W        W79279   2.801  13.653   4.293
17617W        W79280  32.401  27.196  13.003
17618W        W79281  23.710  24.077  13.340
17619W        W79282   1.747  12.724   3.231
17620W        W79283  27.456  30.996   1.372
17621W        W79284   7.235  19.140  11.577
17622W        W79285  37.552  17.597   2.832
17623W        W79286  14.737  17.664  12.974
17624W        W79287  31.116  28.445  10.451
17625W        W79288  16.793   9.197  13.904
17626W        W79289  24.558  25.165  12.963
17627W        W79290   9.282  43.785   4.688
17628W        W79291   7.191  43.814   4.126
17629W        W79292  32.965  10.850  11.942
17630W        W79293  26.166  33.531  14.356
17631W        W79294  28.651   3.724  14.275
17632W        W79295  12.817  44.753   0.347
17633W        W79296  20.671  13.339  11.607
17634W        W79297  14.279  18.601  11.034
17635W        W79298  40.365  12.251  13.337
17636W        W79299  33.585   1.336   2.680
17637W        W79300  26.978   2.920  11.607
17638W        W79301  27.055  40.951   0.383
17639W        W79302  28.074  20.163  12.580
17640W        W79303  13.322  39.331  10.956
17641W        W79304  41.796  24.696  11.566
17642W        W79305  20.074   6.916  14.845
17643W        W79306  37.859  28.083  12.914
17644W        W79307  41.319  38.997   3.668
17645W        W79308  21.665   4.779  12.874
17646W        W79309  30.963  24.545  12.580
17647W        W79310  23.731   1.902  11.084
17648W        W79311  43.417  19.123  11.550
17649W        W79312  24.058  39.520  10.483
17650W        W79313  34.105  29.490   3.302
17651W        W79314  33.994  15.623   1.278
17652W        W79315  11.370  20.234  12.096
17653W        W79316  17.082  36.559  12.006
17654W        W79317  23.006  22.658   4.140
17655W        W79318   4.442  17.594  10.964
17656W        W79319  16.175  27.530   2.226
17657W        W79320  11.780  42.914  10.643
17658W        W79321  40.895  37.910  12.972
17659W        W79322  27.033  27.940   1.260
17660W        W79323  27.588  23.171   1.442
17661W        W79324  26.165   2.908   1.218
17662W        W79325  24.129   1.822   1.347
17663W        W79326  34.098   4.718  12.073
17664W        W79327   8.733  10.672   3.350
17665W        W79328  35.051  13.738  11.584
17666W        W79329  35.569  40.454  11.873
17667W        W79330  28.113   7.210   5.283
17668W        W79331  11.863   5.844  13.905
17669W        W79332  12.251   7.306  14.019
17670W        W79333  12.274  28.673  11.976
17671W        W79334  36.445  26.522   3.794
17672W        W79335  41.345  30.656   2.845
17673W        W79336  25.097  19.253   4.280
17674W        W79337  39.420  44.363   0.845
17675W        W79338  43.424  18.292   4.642
17676W        W79339   2.458   3.410   3.670
17677W        W79340  38.050  14.692  14.863
17678W        W79341  27.585  17.664   2.839
17679W        W79342  17.560  30.090  14.932
17680W        W79343  35.520  26.664   1.703
17681W        W79344  10.297  12.747   3.336
17682W        W79345  22.121  26.099  15.000
17683W        W79346  39.989  17.680   3.691
17684W        W79347  11.230  13.159  11.097
17685W        W79348   4.703  25.711  12.838
17686W        W79349  44.856  20.175  12.929
17687W        W79350  21.722  15.766   4.131
17688W        W79351  24.710  17.619   2.676
17689W        W79352   8.229  16.175   3.715
17690W        W79353  16.301  13.348  11.040
17691W        W79354  32.894  40.312  14.882
17692W        W79355  25.608  36.432   3.812
17693W        W79356  36.959  44.858  10.638
17694W        W79357   5.707  20.251   4.141
17695W        W79358  38.341  11.670  13.508
17696W        W79359   6.209  31.075   4.785
17697W        W79360  34.090  24.686   5.091
17698W        W79361  24.565  26.033  14.961
17699W        W79362  14.124  26.533   2.810
17700W        W79363  10.807  39.403  11.520
17701W        W79364  17.555  37.042  11.897
17702W        W79365  31.475  31.970  11.557
17703W        W79366  27.568  20.660  11.442
17704W        W79367  42.427  14.279   3.263
17705W        W79368  39.375  39.885   1.783
17706W        W79369  37.582  11.202   3.729
17707W        W79370  12.776  11.752   1.234
17708W        W79371  36.097   4.839   4.813
17709W        W79372  11.180  42.405   2.410
17710W        W79373  18.136  42.777  11.566
17711W        W79374   2.844  10.374   3.727
17712W        W79375  20.552   0.758   3.315
17713W        W79376  15.254  31.071  13.965
17714W        W79377  11.138  36.061   0.342
17715W        W79378  42.946  10.361  10.580
17716W        W79379   7.338  33.424  12.928
17717W        W79380   8.162  39.855   0.955
17718W        W79381  23.565  11.279  12.823
17719W        W79382  13.108  19.060  10.545
17720W        W79383  10.637  38.926   1.887
17721W        W79384  21.155  21.168  13.381
17722W        W79385   3.735  34.959   3.196
17723W        W79386   3.932  28.959   4.181
17724W        W79387  19.211  16.080   0.413
17725W        W79388   1.325  34.908  12.897
17726W        W79389  35.532  35.588   3.287
17727W        W79390  21.597  37.928  11.962
17728W        W79391   7.822  34.938   2.315
17729W        W79392  19.696  22.208  14.342
17730W        W79393   7.707   8.660  11.404
17731W        W79394  16.158  41.502  12.476
17732W        W79395   2.360  32.018   1.352
17733W        W79396  31.535  31.017   3.245
17734W        W79397  12.190  14.699  14.349
17735W        W79398  17.629  35.939   2.299
17736W        W79399  26.977  41.862   5.798
17737W        W79400   9.794  32.008  14.014
17738W        W79401   7.256  31.500  13.863
17739W        W79402  14.236  39.993   4.216
17740W        W79403  36.412  25.523   0.440
17741W        W79404  22.587  37.877  12.937
17742W        W79405  29.597  27.680   3.680
17743W        W79406  11.209  34.975  13.478
17744W        W79407  23.179  27.155   0.914
17745W        W79408  32.618   3.247   2.327
17746W        W79409  20.741   0.854  13.005
17747W        W79410  40.448  30.522   4.836
17748W        W79411  16.704   6.374   1.294
17749W        W79412  32.524  19.691   2.835
17750W        W79413  25.210  13.746   0.289
17751W        W79414  21.030  18.687  11.508
17752W        W79415  29.121   4.831   1.248
17753W        W79416  25.525  30.575   2.209
17754W        W79417  41.031  19.708  11.905
17755W        W79418  23.110   9.218  12.907
17756W        W79419  26.534  17.159   5.163
17757W        W79420  33.436   0.981   2.838
17758W        W79421  15.163  37.086   0.479
17759W        W79422  16.704   8.267  12.506
17760W        W79423  32.956  12.655  13.809
17761W        W79424  38.942  21.737  11.876
17762W        W79425  14.116  37.340  11.566
17763W        W79426   5.849  11.714   1.368
17764W        W79427  27.464  15.273   3.303
17765W        W79428  34.025   1.287  12.476
17766W        W79429   0.440  29.613  14.294
17767W        W79430   8.370  10.664  11.475
17768W        W79431   1.977  30.597   3.255
17769W        W79432  12.143  20.663   3.829
17770W        W79433  25.616  42.784   2.339
17771W        W79434   0.912  17.099   2.289
17772W        W79435  28.607   7.263  14.962
17773W        W79436   9.871  16.719   3.173
17774W        W79437  13.348  19.219  14.985
17775W        W79438  27.985  26.134   1.277
17776W        W79439  32.964   7.865  13.816
17777W        W79440  14.181  44.857  12.574
17778W        W79441  24.092  43.446  14.423
17779W        W79442  15.604  18.203   3.207
17780W        W79443  39.001  38.352  12.574
17781W        W79444   1.891  14.735  11.431
17782W        W79445  25.982  37.950  14.912
17783W        W79446  32.928  29.056   3.225
17784W        W79447  36.456  23.654  12.435
17785W        W79448  13.255  28.658  11.030
17786W        W79449   1.817  24.509  12.928
17787W        W79450   0.345   9.788   3.286
17788W        W79451  12.121  43.830   1.411
17789W        W79452   3.924  37.033  14.963
17790W        W79453  24.711   2.941   2.290
17791W        W79454  29.567  19.214   0.270
17792W        W79455  35.395  28.497  12.004
17793W        W79456  24.194  20.244   1.709
17794W        W79457  16.667  37.447   3.201
17795W        W79458  13.672  24.593   1.835
17796W        W79459  20.638   4.271  14.492
17797W        W79460   2.930  25.152  12.457
17798W        W79461  37.027  19.169   0.289
17799W        W79462  25.173  33.932  10.955
17800W        W79463  12.343   2.861  12.443
17801W        W79464  36.054   8.227   0.960
17802W        W79465  17.728  41.860  11.859
17803W        W79466   8.890  16.641   4.751
17804W        W79467  26.120  27.597  12.537
17805W        W79468  34.443  35.875  11.448
17806W        W79469  11.240  41.922   0.244
17807W        W79470   9.775  42.476  11.063
17808W        W79471  17.652  32.010   3.366
17809W        W79472   3.419  12.117   0.888
17810W        W79473  42.022  40.326  12.865
17811W        W79474  30.936  10.192  14.493
17812W        W79475  41.464  14.628   2.750
17813W        W79476  28.156  39.041   3.322
17814W        W79477  26.641   4.284  10.410
17815W        W79478  20.542   7.319   0.368
17816W        W79479  11.850  38.027   4.233
17817W        W79480   1.372  11.182   1.808
17818W        W79481   5.313  17.749   0.246
17819W        W79482  19.662  23.654   0.398
17820W        W79483  27.040  33.020   2.214
17821W        W79484  43.841   6.739  14.790
17822W        W79485  19.261  31.485  10.532
17823W        W79486  11.670  28.110   5.194
17824W        W79487  11.672  24.706  11.498
17825W        W79488  41.347   7.671   0.862
17826W        W79489  23.719  11.866   1.858
17827W        W79490  16.695  24.723   3.770
17828W        W79491  28.037  26.093  14.855
17829W        W79492   5.332  12.134  12.561
17830W        W79493  13.721  29.023  12.460
17831W        W79494  16.098  41.792   4.650
17832W        W79495   8.685   9.286  13.309
17833W        W79496  32.560  25.136   0.405
17834W        W79497  18.615  29.133   4.154
17835W        W79498  44.873  34.043   1.333
17836W        W79499  21.603  24.558   3.651
17837W        W79500  39.432  23.145  11.544
17838W        W79501  23.075   9.871   2.848
17839W        W79502  34.101  11.701  13.540
17840W        W79503  42.414   0.276   1.372
17841W        W79504  42.787  27.524   0.328
17842W        W79505  20.707   2.813  14.814
17843W        W79506   7.893  44.924   1.424
17844W        W79507  28.460  15.644   3.717
17845W        W79508  37.022   2.278  12.510
17846W        W79509  17.745   8.717   3.152
17847W        W79510  17.291  16.257  13.328
17848W        W79511   8.397  29.583  14.347
17849W        W79512  43.379  11.696   1.890
17850W        W79513  19.281  35.384  14.506
17851W        W79514   8.784  18.249  12.088
17852W        W79515  40.019  27.676  11.589
17853W        W79516   7.275   4.715  14.798
17854W        W79517  37.567  24.212   2.331
17855W        W79518  24.549   1.863   4.188
17856W        W79519   5.726  28.101   2.179
17857W        W79520  37.335  24.015   0.322
17858W        W79521   1.965   0.769  11.983
17859W        W79522  38.978  41.454  13.395
17860W        W79523  11.326  17.800  14.452
17861W        W79524  40.431  22.209  12.921
17862W        W79525  41.428  28.964   0.405
17863W        W79526  12.254  19.733   2.812
17864W        W79527  18.668   6.867   4.215
17865W        W79528   0.475   2.839  12.559
17866W        W79529  11.661   5.344  14.448
17867W        W79530  16.215  10.691   1.714
17868W        W79531   9.362  35.024  11.922
17869W        W79532  38.499  36.560  11.435
17870W        W79533  25.661  32.125   0.393
17871W        W79534  33.899  37.079   0.910
17872W        W79535   5.326  30.152   1.330
17873W        W79536  16.686  39.526   1.296
17874W        W79537  42.488  32.517   1.245
17875W        W79538   7.698  42.909  13.961
17876W        W79539  27.467   7.786  14.869
17877W        W79540  15.657   2.743   1.450
17878W        W79541  28.024  33.421   5.145
17879W        W79542  14.190  32.081   2.244
17880W        W79543  12.611  25.493  14.487
17881W        W79544  24.664   3.857  14.328
17882W        W79545  15.253  19.128   1.440
17883W        W79546  36.509  10.816   3.777
17884W        W79547  42.958  29.582   0.946
17885W        W79548  40.957   5.762  14.928
17886W        W79549  23.707  13.236   2.728
17887W        W79550  20.539  36.916   0.813
17888W        W79551   7.794  11.680  11.442
17889W        W79552   2.268  10.712   2.869
17890W        W79553  28.540  22.583   4.644
17891W        W79554  27.460  20.088   4.334
17892W        W79555  24.143   5.224   1.779
17893W        W79556  36.425  36.464  13.873
17894W        W79557  12.662  12.835  12.373
17895W        W79558  31.604  24.684   0.939
17896W        W79559  11.863  35.965   0.891
17897W        W79560  25.525  14.791  11.499
17898W        W79561  35.598   4.329   3.828
17899W        W79562   0.254  22.526  11.904
17900W        W79563  23.563  13.795   3.796
17901W        W79564   7.748  18.548   4.275
17902W        W79565  42.381  27.196   3.666
17903W        W79566  18.063  11.842  13.806
17904W        W79567  30.511  36.378   2.663
17905W        W79568  42.780   6.407   2.864
17906W        W79569  35.011  43.990   3.278
17907W        W79570  41.526  19.071  13.928
17908W        W79571  21.058  31.072  10.438
17909W        W79572   2.882  31.424  13.030
17910W        W79573  40.973  38.512  14.862
17911W        W79574  29.629   5.733  13.061
17912W        W79575  21.019  14.649   1.389
17913W        W79576  18.748  29.618  13.342
17914W        W79577  16.617  36.399  12.917
17915W        W79578  14.636  30.456  13.020
17916W        W79579  30.015  22.576   0.299
17917W        W79580  21.573  13.217   0.947
17918W        W79581   9.762  43.908  10.477
17919W        W79582  13.712  20.665  13.874
17920W        W79583  34.492  10.234   2.229
17921W        W79584   7.835  44.407   5.133
17922W        W79585  33.117   6.786   0.449
17923W        W79586  27.151  29.476  12.020
17924W        W79587  20.623  38.531  14.324
17925W        W79588  25.606  25.672  12.040
17926W        W79589  37.894  38.828  13.501
17927W        W79590  42.486  38.867   4.750
17928W        W79591   1.882  44.328  12.392
17929W        W79592  28.077  44.877   4.621
17930W        W79593  34.542  37.513  13.323
17931W        W79594  32.915  29.640   4.807
17932W        W79595  16.573  14.244  14.985
17933W        W79596   0.830  21.535  12.916
17934W        W79597  15.295  21.134   4.221
17935W        W79598  27.614  27.471  14.005
17936W        W79599  24.489  39.526   2.310
17937W        W79600  18.756  37.036  10.631
17938W        W79601  31.542  32.571   4.132
17939W        W79602  19.110  12.676   0.273
17940W        W79603  12.770   3.353  10.043
17941W        W79604  11.265   1.462   4.751
17942W        W79605  39.518   6.317  12.459
17943W        W79606  30.634   3.353   2.361
17944W        W79607  12.268  44.842  12.475
17945W        W79608  19.588  12.782  14.445
17946W        W79609   0.483  23.648  10.995
17947W        W79610  23.674  31.961  10.458
17948W        W79611  17.278  24.669  11.879
17949W        W79612  42.779  23.016  11.516
17950W        W79613  22.581  10.668   4.248
17951W        W79614  25.097  19.679  10.596
17952W        W79615  15.785  12.796   4.607
17953W        W79616   0.273  44.299  10.927
17954W        W79617  24.142  37.959   3.384
17955W        W79618  31.932   5.703  12.934
17956W        W79619  17.151  40.990   0.313
17957W        W79620  22.011  11.301   0.842
17958W        W79621  13.817  32.890   1.828
17959W        W79622  26.974  11.230   1.223
17960W        W79623   8.302  32.920   0.854
17961W        W79624  25.082  17.235  11.879
17962W        W79625   8.216  12.645  10.474
17963W        W79626  34.539  31.588   1.864
17964W        W79627  30.125  14.794  13.338
17965W        W79628  21.600  16.074   5.632
17966W        W79629  12.301   8.363  12.353
17967W        W79630   4.902  18.663   3.246
17968W        W79631  30.982  30.108   3.241
17969W        W79632  38.411   6.283  11.920
17970W        W79633  33.058   6.254   1.345
17971W        W79634   5.769  24.182  13.345
17972W        W79635  28.493   3.292   1.435
17973W        W79636  38.980   7.859   2.821
17974W        W79637  25.632   9.876  11.559
17975W        W79638  16.183  41.930  10.441
17976W        W79639   9.755  18.181  10.462
17977W        W79640  43.911  30.067   0.369
17978W        W79641  37.037   2.284  11.425
17979W        W79642  32.452  36.941   2.305
17980W        W79643   5.799  23.573   1.444
17981W        W79644  33.936  33.116  12.055
17982W        W79645  32.583  22.658   0.891
17983W        W79646  22.090  40.522   0.819
17984W        W79647  27.536  11.689   4.646
17985W        W79648  25.168  21.706  12.367
17986W        W79649  36.409  18.566   4.136
17987W        W79650  24.522  24.685   4.685
17988W        W79651  24.611  18.673  11.593
17989W        W79652  31.924  26.020   1.895
17990W        W79653  41.007  29.477  11.481
17991W        W79654  20.575  13.628  13.813
17992W        W79655  40.884   8.398  12.969
17993W        W79656   3.918   8.713  12.554
17994W        W79657   2.897  28.603  11.401
17995W        W79658  44.948  13.288  13.345
17996W        W79659  31.445  28.501  10.498
17997W        W79660  31.430  30.075  13.900
17998W        W79661  13.245  35.387   0.912
17999W        W79662  13.822  25.069  14.462
18000W        W79663  11.264  21.701   4.135
18001W        W79664  21.179  12.660  10.941
18002W        W79665  20.094  15.779   3.686
18003W        W79666  27.629  31.471   4.669
18004W        W79667  35.595  32.097   3.712
18005W        W79668  29.541  33.892   0.285
18006W        W79669  18.291  25.601   2.709
18007W        W79670  43.443  22.524   2.370
18008W        W79671   0.445  15.794   0.463
18009W        W79672  38.943   4.344  13.886
18010W        W79673  25.573   7.317  10.902
18011W        W79674  39.514  17.257  10.492
18012W        W79675   2.408  10.303  13.429
18013W        W79676  38.331   5.710  10.933
18014W        W79677  41.508  36.016  11.028
18015W        W79678   2.455  25.506   0.808
18016W        W79679  31.483   5.238   1.902
18017W        W79680  14.708  18.217  14.909
18018W        W79681  11.212  32.436   3.172
18019W        W79682  33.949  32.128   4.646
18020W        W79683  23.123   4.795  12.489
18021W        W79684   8.887  30.645  11.411
18022W        W79685  17.727  24.028   4.678
18023W        W79686  16.738  20.155   0.481
18024W        W79687  36.991  21.728   2.351
18025W        W79688  25.010  33.455  10.519
18026W        W79689  44.425  32.615  12.032
18027W        W79690  16.765  41.853  10.535
18028W        W79691  26.584  19.638  12.935
18029W        W79692  19.045   0.405  13.486
18030W        W79693   1.262  30.515   4.766
18031W        W79694  20.060  39.342   3.171
18032W        W79695  20.729  20.653   4.811
18033W        W79696  34.884  18.177   2.318
18034W        W79697  31.494  10.140   1.450
18035W        W79698  33.962   8.182   4.140
18036W        W79699  25.022  44.447  10.609
18037W        W79700  34.558   9.379   0.330
18038W        W79701  13.836   7.229  11.003
18039W        W79702  12.803  19.154  10.993
18040W        W79703  32.943  27.100   3.819
18041W        W79704  16.680  29.925   4.731
18042W        W79705  19.075  18.093   3.341
18043W        W79706  25.965   4.404  14.325
18044W        W79707  17.660  41.956  13.492
18045W        W79708  15.261  28.464   0.293
18046W        W79709  43.482  38.502  10.966
18047W        W79710  33.074  18.057  10.605
18048W        W79711  41.361   7.893  13.470
18049W        W79712   5.708  29.536   2.775
18050W        W79713  21.706   6.892  12.833
18051W        W79714   1.852  19.245  10.638
18052W        W79715  36.050  20.217  12.871
18053W        W79716   5.714   8.384   1.866
18054W        W79717  20.028  41.896  10.900
18055W        W79718  24.587  39.009   3.765
18056W        W79719  13.689  10.346   5.094
18057W        W79720  43.844   1.249   3.195
18058W        W79721   0.950   9.768   0.756
18059W        W79722  11.783  42.284   1.699
18060W        W79723  11.753  19.160   3.736
18061W        W79724  28.643  43.886   3.649
18062W        W79725  32.584   6.275  11.589
18063W        W79726  36.863  12.235  12.995
18064W        W79727   9.826   3.429   0.776
18065W        W79728  23.053  36.968  10.450
18066W        W79729  38.469  37.031   2.870
18067W        W79730   4.759   2.736  10.499
18068W        W79731  32.896  30.563   1.421
18069W        W79732   2.257  24.187  13.985
18070W        W79733  43.982  44.380  10.993
18071W        W79734   9.251   0.981  13.905
18072W        W79735   6.694  27.166   3.246
18073W        W79736   1.446  35.559  11.487
18074W        W79737  42.863  41.810   0.407
18075W        W79738   2.290  34.611  14.892
18076W        W79739   3.815  30.638   3.318
18077W        W79740   8.223  30.558  11.989
18078W        W79741  26.001  23.536   0.275
18079W        W79742  34.529  41.857   1.716
18080W        W79743  13.654  34.561   1.903
18081W        W79744  14.691   2.304   3.287
18082W        W79745  39.340   5.866  10.635
18083W        W79746  42.479   5.393  11.892
18084W        W79747  36.511  34.576  10.617
18085W        W79748  34.557  22.656  11.475
18086W        W79749   5.727   5.284  13.394
18087W        W79750   4.211   4.922  11.444
18088W        W79751   8.885   5.727  12.079
18089W        W79752  15.590  22.111   3.701
18090W        W79753  15.647   0.986   4.733
18091W        W79754  36.507   7.377   2.747
18092W        W79755  32.529  12.291  11.592
18093W        W79756  44.819  28.630  10.508
18094W        W79757   9.801  16.198   1.783
18095W        W79758  34.012  16.669   1.250
18096W        W79759  27.173  42.922  13.992
18097W        W79760  19.052   2.292   1.796
18098W        W79761   5.242   2.457   0.449
18099W        W79762  38.972  34.044  10.452
18100W        W79763  32.588   1.236   0.911
18101W        W79764  39.886  43.868   0.326
18102W        W79765  37.951   4.923   2.700
18103W        W79766  30.930  20.221   2.408
18104W        W79767  37.485  36.986  12.979
18105W        W79768   1.816  26.615  11.907
18106W        W79769  20.602  10.747   1.736
18107W        W79770   1.853  39.536  11.537
18108W        W79771  31.120  14.156  13.488
18109W        W79772  32.619  15.255  10.958
18110W        W79773  17.635  12.292   2.703
18111W        W79774  41.923   0.454   4.687
18112W        W79775  43.799  38.478   3.357
18113W        W79776  20.629  18.258  13.914
18114W        W79777  35.558  37.953  11.127
18115W        W79778  18.291  18.275   1.278
18116W        W79779   5.819  32.470  11.863
18117W        W79780  31.474  12.312   2.245
18118W        W79781  38.521  13.221   3.717
18119W        W79782  16.794  15.671  12.897
18120W        W79783   7.783  21.564   0.865
18121W        W79784   3.902  23.520  14.479
18122W        W79785  39.008  14.716  11.983
18123W        W79786  23.575  31.014   1.267
18124W        W79787  28.179  14.188  12.468
18125W        W79788  27.588  31.482  12.471
18126W        W79789  30.501  32.987  13.967
18127W        W79790   6.804   6.767   3.806
18128W        W79791  39.839  12.829  11.533
18129W        W79792   4.381   1.369  13.407
18130W        W79793  27.051  26.691  12.001
18131W        W79794  44.957   3.858   0.885
18132W        W79795  37.032  39.001   3.264
18133W        W79796  26.077  36.932  12.046
18134W        W79797   4.315  40.344   1.729
18135W        W79798  35.070   2.951   1.295
18136W        W79799  21.110  19.686  14.760
18137W        W79800  22.037  36.950   2.307
18138W        W79801  20.577   5.316   3.723
18139W        W79802  39.970  35.031   3.314
18140W        W79803  22.735  41.920   1.757
18141W        W79804  23.593  38.839   3.361
18142W        W79805  44.956  41.387  10.990
18143W        W79806  32.485  21.588   0.325
18144W        W79807   5.909   2.384   1.873
18145W        W79808  33.932  16.808  11.538
18146W        W79809  28.445  42.299   4.794
18147W        W79810  25.023  13.319  12.491
18148W        W79811  29.095  22.734  11.956
18149W        W79812   5.787  44.289  10.645
18150W        W79813  21.572  17.639  12.475
18151W        W79814  44.929   6.348   0.329
18152W        W79815  38.364  18.238   4.145
18153W        W79816  36.368  27.145  14.030
18154W        W79817  17.790  21.570   3.679
18155W        W79818  22.022  33.029  10.933
18156W        W79819   4.306  11.790  10.893
18157W        W79820  43.793   3.387   2.890
18158W        W79821  36.057  15.795   1.907
18159W        W79822  36.899   6.200   0.963
18160W        W79823  36.456  15.181   4.666
18161W        W79824  24.636  22.615  13.507
18162W        W79825  25.142  31.098   2.387
18163W        W79826   3.408  11.227   1.911
18164W        W79827  42.910  20.075   0.932
18165W        W79828  31.072  37.969  14.031
18166W        W79829  20.552  25.982  11.931
18167W        W79830  15.135  23.204   3.208
18168W        W79831  26.474   6.282  14.305
18169W        W79832  15.706   9.846   3.327
18170W        W79833  31.510  13.617   1.898
18171W        W79834  44.303  38.556   3.231
18172W        W79835   8.836   2.931  14.797
18173W        W79836  27.662  30.092  11.917
18174W        W79837  43.499  21.221  12.369
18175W        W79838  39.056  34.440   0.438
18176W        W79839  41.526   6.902  13.319
18177W        W79840  40.469   7.812  14.006
18178W        W79841  38.944  13.173   3.719
18179W        W79842  15.258  41.004   2.191
18180W        W79843  38.958  24.015   1.875
18181W        W79844   9.394  41.500   4.808
18182W        W79845  12.794   9.823   1.233
18183W        W79846  44.384  41.417  14.856
18184W        W79847  40.304   5.433   2.676
18185W        W79848   8.801  34.031  11.531
18186W        W79849  35.376  44.462   3.728
18187W        W79850  34.565  43.514   1.281
18188W        W79851  18.721  30.638   2.225
18189W        W79852  41.972  44.276   5.194
18190W        W79853   3.267  37.970   1.879
18191W        W79854  39.001  29.948   3.387
18192W        W79855  20.755  15.139   2.665
18193W        W79856  26.970  21.586   4.826
18194W        W79857   9.884  18.087   3.737
18195W        W79858   0.484  18.651   4.663
18196W        W79859   1.471  19.720   4.194
18197W        W79860  41.519  25.195   0.243
18198W        W79861  28.061  24.693   3.291
18199W        W79862  32.429  35.364   2.338
18200W        W79863  18.225  35.405  13.801
18201W        W79864  21.060  28.081   3.260
18202W        W79865  44.319  13.205  10.132
18203W        W79866  37.085  43.892  10.568
18204W        W79867  40.976  23.634  10.597
18205W        W79868  39.967  23.045   0.303
18206W        W79869  42.527  35.548   2.325
18207W        W79870  32.572  22.525   2.242
18208W        W79871   0.930   1.957   2.876
18209W        W79872  24.177  17.716  10.626
18210W        W79873  14.707  24.541  13.009
18211W        W79874  39.533  13.221   2.257
18212W        W79875  32.087  26.182   2.825
18213W        W79876  20.545  12.723   3.686
18214W        W79877  25.486  12.252  11.419
18215W        W79878  30.625   9.340   2.738
18216W        W79879  37.910  21.675  13.923
18217W        W79880  44.802   1.971  14.799
18218W        W79881  13.203  33.125   0.262
18219W        W79882  39.021  13.692   2.779
18220W        W79883  19.078  27.463   3.357
18221W        W79884  32.009  31.150   1.767
18222W        W79885  16.220  23.172  14.468
18223W        W79886  36.473  33.938   2.179
18224W        W79887  23.125  24.524  14.278
18225W        W79888  24.983  19.773   4.205
18226W        W79889  25.484  18.171   0.893
18227W        W79890  12.673  31.947   3.295
18228W        W79891   1.430  20.571   1.428
18229W        W79892  10.826  31.967   2.348
18230W        W79893  26.181  14.757  11.865
18231W        W79894  27.953  41.397  13.042
18232W        W79895   2.360  42.300   3.185
18233W        W79896  18.694  17.291  14.933
18234W        W79897  40.545  42.023   4.306
18235W        W79898  38.016   5.204   1.916
18236W        W79899  31.484  38.380   2.391
18237W        W79900  24.222  27.666   1.353
18238W        W79901  43.981  28.464   1.361
18239W        W79902  44.502  10.254   1.710
18240W        W79903  37.375  21.604  14.960
18241W        W79904  24.536  29.487   2.318
18242W        W79905  31.966  10.817   4.650
18243W        W79906  14.336  21.672  10.921
18244W        W79907   1.917  27.024   0.268
18245W        W79908  22.144   0.272  11.436
18246W        W79909  37.418  41.021   4.255
18247W        W79910  16.143  13.261   0.334
18248W        W79911  11.803  11.344   3.664
18249W        W79912  26.031  34.505  14.494
18250W        W79913  32.901   4.907   4.192
18251W        W79914  42.879  18.204  11.423
18252W        W79915  22.743   0.797   3.728
18253W        W79916  12.159  20.635  13.975
18254W        W79917  41.033  39.533   0.259
18255W        W79918  34.498  30.061  10.985
18256W        W79919  31.128  38.858  10.896
18257W        W79920  17.626  18.249   3.744
18258W        W79921  44.434  44.281   4.260
18259W        W79922  34.524  18.186   1.800
18260W        W79923  31.487   0.776  13.945
18261W        W79924   1.416  12.225   4.715
18262W        W79925   7.226  44.496  14.815
18263W        W79926  32.634  20.087   1.366
18264W        W79927  27.146  15.119   2.389
18265W        W79928  38.523  37.833  11.912
18266W        W79929  13.313  32.929  14.462
18267W        W79930  11.837  24.687   1.232
18268W        W79931  18.275  30.617  14.972
18269W        W79932  38.013  19.219  14.495
18270W        W79933  36.586   4.791   0.811
18271W        W79934  36.353  36.078  10.612
18272W        W79935  39.968   3.876  10.923
18273W        W79936   3.886  42.992  13.483
18274W        W79937  33.113  18.243   9.938
18275W        W79938  18.639  12.131  13.505
18276W        W79939  27.130  18.229   1.791
18277W        W79940   4.316  26.607  12.530
18278W        W79941  26.062  29.560  12.892
18279W        W79942  32.609  44.492  11.435
18280W        W79943  38.455   8.177   1.247
18281W        W79944   4.296   9.652   0.318
18282W        W79945  26.460  30.595  11.988
18283W        W79946  25.589  33.589   2.352
18284W        W79947  43.326  25.025   3.793
18285W        W79948  26.523  11.253   1.847
18286W        W79949   0.768   4.371  13.858
18287W        W79950  40.966  34.477  13.538
18288W        W79951  36.874  39.929   0.917
18289W        W79952  43.516  30.929  10.901
18290W        W79953   5.710  21.520   4.205
18291W        W79954  36.358  44.786   2.839
18292W        W79955  16.160  40.400  10.605
18293W        W79956  26.179  15.578  14.394
18294W        W79957   5.923  40.538  12.975
18295W        W79958   4.779  28.633   4.757
18296W        W79959   9.157  30.130   2.870
18297W        W79960  43.282  38.329  13.997
18298W        W79961   2.291  22.666  13.326
18299W        W79962  29.933  43.407   3.820
18300W        W79963  26.584  38.501  12.967
18301W        W79964  39.337   6.916  14.455
18302W        W79965  30.925  12.215  13.816
18303W        W79966  44.780   4.883  13.914
18304W        W79967   1.814  30.127  11.947
18305W        W79968   7.209  20.626   0.371
18306W        W79969   3.782   7.827  14.466
18307W        W79970  16.135   9.202   4.262
18308W        W79971  10.160  11.187   4.618
18309W        W79972  41.788  41.855  10.599
18310W        W79973   9.286  26.136   2.356
18311W        W79974  39.471  18.787   1.410
18312W        W79975  27.964  36.403  10.595
18313W        W79976  10.835   6.291  13.966
18314W        W79977  31.438  16.566   4.804
18315W        W79978  19.770  18.774  12.886
18316W        W79979  39.318  32.578  14.027
18317W        W79980  31.950  26.496   4.628
18318W        W79981  29.457  31.606  14.762
18319W        W79982   7.753  30.559   5.131
18320W        W79983  38.860   8.895   1.388
18321W        W79984  14.822  40.826   2.778
18322W        W79985  40.845  39.928  13.795
18323W        W79986  13.211  22.576  12.550
18324W        W79987  12.326  19.694   3.340
18325W        W79988   2.956  12.787   0.417
18326W        W79989  17.061  15.583   3.835
18327W        W79990   0.970  17.632   3.198
18328W        W79991  39.038  25.015  13.907
18329W        W79992   4.414  34.565  12.079
18330W        W79993   3.716  32.538   1.401
18331W        W79994  34.451  15.274   2.687
18332W        W79995  35.447  24.036   3.845
18333W        W79996  34.613  23.701   0.963
18334W        W79997  21.727   7.811   2.179
18335W        W79998  18.595  38.919  11.095
18336W        W79999  21.574  15.215  12.576
18337W        W80000  44.978   1.928  14.514
18338W        W80001  29.017  19.664   0.276
18339W        W80002  21.077  37.431   1.427
18340W        W80003   4.755  17.292   0.919
18341W        W80004  15.211  12.666  12.855
18342W        W80005  17.284  21.140   0.396
18343W        W80006  38.067  35.374  11.386
18344W        W80007  32.981  19.593  10.964
18345W        W80008  22.589   3.248  13.020
18346W        W80009  25.646  38.325  10.922
18347W        W80010   9.714  11.283  10.488
18348W        W80011   7.900  44.367   3.255
18349W        W80012   6.310  12.766  13.495
18350W        W80013  11.703  38.380  14.807
18351W        W80014  17.248  27.624   0.253
18352W        W80015  12.162  37.567   5.133
18353W        W80016  37.520   5.728  14.774
18354W        W80017  36.472  20.220   1.266
18355W        W80018  30.524  11.262  13.545
18356W        W80019   0.325  26.969   3.166
18357W        W80020  30.419   2.868   1.423
18358W        W80021  21.587  24.989   0.452
18359W        W80022  23.103   0.259  12.910
18360W        W80023  35.466  33.101   2.853
18361W        W80024  44.858  17.303   2.706
18362W        W80025  37.850   4.823  11.982
18363W        W80026   4.257  40.922  11.575
18364W        W80027  38.417  30.646  14.376
18365W        W80028  43.360   2.289  13.966
18366W        W80029   9.161  37.401   4.817
18367W        W80030  27.629   4.305  14.314
18368W        W80031  25.498  21.610  14.778
18369W        W80032  13.230  30.976   0.889
18370W        W80033  13.160  15.311  13.493
18371W        W80034  30.128  35.863  12.534
18372W        W80035  15.624   7.394   4.159
18373W        W80036  41.903   6.761  14.017
18374W        W80037  36.358  33.468   0.360
18375W        W80038  27.035  42.448   9.463
18376W        W80039  37.358   8.238   4.641
18377W        W80040  12.200  40.452   3.832
18378W        W80041  24.490  27.577   3.167
18379W        W80042  23.547  40.432   4.774
18380W        W80043  21.575   2.373  12.835
18381W        W80044  44.384  14.820  13.387
18382W        W80045  21.565  37.039   2.355
18383W        W80046   1.292   2.450   4.223
18384W        W80047  24.621  36.996  10.916
18385W        W80048  24.578  25.158   0.248
18386W        W80049  13.661  13.339   2.811
18387W        W80050   0.846   3.337   5.148
18388W        W80051  19.558   6.904   0.254
18389W        W80052  19.676  24.575  13.796
18390W        W80053  40.903  12.298   2.216
18391W        W80054  16.151  21.679  10.592
18392W        W80055  39.812  16.163  14.823
18393W        W80056  33.561  24.018  11.410
18394W        W80057  29.135  35.366   0.866
18395W        W80058  18.660  28.679  13.950
18396W        W80059  18.183  22.701   4.291
18397W        W80060  43.354  42.465  14.783
18398W        W80061  15.769  19.149   3.249
18399W        W80062  22.100  28.123  13.404
18400W        W80063  27.998  17.125   1.219
18401W        W80064  12.713  18.619   3.296
18402W        W80065   2.886  21.740   2.885
18403W        W80066  11.643  29.169   3.840
18404W        W80067  38.391  41.867  14.426
18405W        W80068  13.292  40.926  12.026
18406W        W80069  16.220   9.830   3.174
18407W        W80070  32.433  32.032   1.799
18408W        W80071  30.011  21.732  13.946
18409W        W80072   1.789  11.173   2.733
18410W        W80073  38.948  36.513   3.760
18411W        W80074  20.742  15.168   3.174
18412W        W80075  12.295   5.888   2.205
18413W        W80076  35.389  23.560   2.414
18414W        W80077  34.443  40.983  14.430
18415W        W80078  14.722   6.830   3.343
18416W        W80079  20.665  29.027   2.705
18417W        W80080   1.808  31.569  10.538
18418W        W80081  18.633  34.968   2.197
18419W        W80082   9.291  43.420   4.836
18420W        W80083   9.362  20.694  10.525
18421W        W80084  43.857  28.448  10.508
18422W        W80085   6.416  10.355   1.340
18423W        W80086   8.245  15.816   0.768
18424W        W80087  11.705   0.952   1.806
18425W        W80088   7.297  28.151  10.464
18426W        W80089  40.985  22.728   2.184
18427W        W80090  14.107   6.699  12.837
18428W        W80091  14.156  21.105   4.202
18429W        W80092  35.554  13.105   0.889
18430W        W80093  36.015  29.040  11.038
18431W        W80094  43.294  14.332  10.997
18432W        W80095   7.344  30.455   3.192
18433W        W80096  42.816  10.182  11.926
18434W        W80097  34.406  11.828  11.382
18435W        W80098  21.542  34.924   3.207
18436W        W80099  43.408  13.674  11.546
18437W        W80100  29.603  36.529   3.703
18438W        W80101  33.060  24.572  13.414
18439W        W80102  30.983  24.593   4.158
18440W        W80103  16.712   6.895   2.686
18441W        W80104  27.474  37.366  10.633
18442W        W80105  35.041  41.968  10.580
18443W        W80106  27.987   7.830   2.372
18444W        W80107  16.279  43.448  13.873
18445W        W80108  29.483  21.719  11.112
18446W        W80109  36.005  20.128   5.171
18447W        W80110  14.809   3.811   3.860
18448W        W80111   9.241  44.317  10.488
18449W        W80112  17.279  10.349   5.085
18450W        W80113  38.534  27.461  11.489
18451W        W80114  40.987  14.602  11.904
18452W        W80115  27.474  22.187   2.234
18453W        W80116  15.795  14.127  13.880
18454W        W80117   5.424  37.573   3.386
18455W        W80118  41.469  37.409   5.276
18456W        W80119   4.322  13.185  11.124
18457W        W80120  37.398  21.234  14.941
18458W        W80121  23.129  40.878  10.554
18459W        W80122  32.070  27.134  13.523
18460W        W80123  27.668  21.185   1.300
18461W        W80124   7.350  32.076  11.580
18462W        W80125  30.054  13.261   0.791
18463W        W80126  20.097  11.758   2.341
18464W        W80127  13.227  30.429   5.098
18465W        W80128  12.753  13.170   2.352
18466W        W80129  39.963  12.137   4.335
18467W        W80130  37.037  24.479  10.587
18468W        W80131   4.862  26.598  14.877
18469W        W80132  15.784  14.259  10.628
18470W        W80133  35.588  10.640  10.504
18471W        W80134   3.900  20.194   3.254
18472W        W80135  20.248  16.616   4.648
18473W        W80136  42.906  38.565   4.156
18474W        W80137   0.923  36.004   4.717
18475W        W80138  26.203   1.972  12.515
18476W        W80139  21.707  11.166  14.777
18477W        W80140  20.671  28.582  14.292
18478W        W80141  11.720  21.623  11.041
18479W        W80142  23.642  10.358   3.800
18480W        W80143  41.939  12.790   9.635
18481W        W80144  12.647  14.286  13.963
18482W        W80145   4.252  31.897   2.756
18483W        W80146  26.194  14.144   2.891
18484W        W80147  16.303  13.139  14.851
18485W        W80148  16.198  37.393   3.738
18486W        W80149  18.128   9.252  14.022
18487W        W80150  33.021  24.667   5.187
18488W        W80151  12.320  35.970  14.458
18489W        W80152  38.072  22.226  11.477
18490W        W80153  25.175  26.992  13.435
18491W        W80154  36.559   0.366   1.818
18492W        W80155  40.369   4.354  10.977
18493W        W80156  13.822  42.004   4.136
18494W        W80157  42.912   4.354   0.762
18495W        W80158  13.676  43.286  10.412
18496W        W80159  26.699  27.467   4.131
18497W        W80160  37.935   7.253   2.858
18498W        W80161  13.171   1.792  13.919
18499W        W80162  20.588  35.477   2.268
18500W        W80163  18.595   5.860  13.816
18501W        W80164  29.605  31.581  13.901
18502W        W80165  30.535  18.612  13.516
18503W        W80166  22.076  19.197   2.876
18504W        W80167  20.070  26.076  12.928
18505W        W80168   1.926   0.431   0.354
18506W        W80169   0.365  13.332   3.769
18507W        W80170  41.294   7.766   1.261
18508W        W80171   0.842  11.264  11.045
18509W        W80172  23.542  35.521   3.371
18510W        W80173  25.628  43.321  11.107
18511W        W80174  18.705  32.070  11.030
18512W        W80175  34.456  18.071   0.804
18513W        W80176  23.097  40.329  11.101
18514W        W80177  12.693   4.809  11.586
18515W        W80178  34.406   3.450  12.943
18516W        W80179  36.452  34.054  14.426
18517W        W80180  34.469  29.020  14.465
18518W        W80181  15.715  29.490   2.394
18519W        W80182  40.354  43.946  11.995
18520W        W80183  43.422  10.694  13.048
18521W        W80184  19.156  16.739   4.684
18522W        W80185  13.787   7.334  13.455
18523W        W80186  23.654  40.923  13.875
18524W        W80187  42.512  13.336   2.683
18525W        W80188   5.907  34.934  10.456
18526W        W80189  10.765  40.964  10.442
18527W        W80190  43.954  23.680  14.980
18528W        W80191   0.847  23.143  13.510
18529W        W80192  35.577  29.063  12.927
18530W        W80193  37.427  36.574  10.938
18531W        W80194   4.447   9.295   3.305
18532W        W80195  43.999  16.737   2.215
18533W        W80196  22.639  18.196   4.769
18534W        W80197   5.695  30.596  14.875
18535W        W80198  23.200  40.353  12.016
18536W        W80199  41.397  31.464  12.892
18537W        W80200  43.816  40.884   2.241
18538W        W80201  35.916   0.951   4.322
18539W        W80202  15.584  16.299  11.444
18540W        W80203  33.422   8.772   2.691
18541W        W80204  41.986  16.697   1.279
18542W        W80205  14.204  43.439  14.279
18543W        W80206  18.710  31.992   3.662
18544W        W80207  29.942  34.410   0.929
18545W        W80208   2.848  26.067  10.986
18546W        W80209   6.295  32.450  12.084
18547W        W80210  43.274  26.553  10.529
18548W        W80211  34.370   5.369  14.990
18549W        W80212   4.746  11.770  13.802
18550W        W80213  19.536  41.472  12.063
18551W        W80214  28.956  19.170   2.843
18552W        W80215  10.872  15.116  11.412
18553W        W80216  18.729  14.653  11.967
18554W        W80217  40.472  39.895  11.562
18555W        W80218  27.954  40.488  11.610
18556W        W80219   1.356   7.872   4.329
18557W        W80220  41.866  40.984  12.521
18558W        W80221  28.652  21.236  11.403
18559W        W80222  18.667   2.956   2.842
18560W        W80223  21.584   2.916   3.699
18561W        W80224  10.706  21.754  14.953
18562W        W80225  15.651  33.470   0.956
18563W        W80226  16.624  29.158  12.013
18564W        W80227   4.436  33.412   3.725
18565W        W80228  36.021  19.683  10.996
18566W        W80229  30.967  44.295   3.741
18567W        W80230  34.004  34.445  10.570
18568W        W80231  18.574  12.616  12.401
18569W        W80232   6.852  29.036  13.992
18570W        W80233  21.193  32.083  13.871
18571W        W80234  28.961  17.196  12.958
18572W        W80235  31.074  16.786  12.541
18573W        W80236  27.473  42.989  13.837
18574W        W80237  20.747  35.402   1.726
18575W        W80238   8.180  19.181  12.874
18576W        W80239  26.698  33.530   3.791
18577W        W80240  10.229   9.776   3.181
18578W        W80241  43.347  17.084   0.848
18579W        W80242   1.273  11.677  10.481
18580W        W80243  34.041   3.248   2.405
18581W        W80244  44.960  30.522  11.091
18582W        W80245  38.437  20.573  12.879
18583W        W80246  28.933  20.563   3.214
18584W        W80247  17.224  30.134  13.925
18585W        W80248   9.741   1.768  10.555
18586W        W80249   9.879  43.016  13.822
18587W        W80250  15.780   8.395  13.949
18588W        W80251  19.219  38.449   0.926
18589W        W80252  11.866  26.080   3.173
18590W        W80253   6.716  13.649  12.404
18591W        W80254  12.800  30.624   3.206
18592W        W80255  17.259   2.332  13.951
18593W        W80256  12.163  29.158   2.711
18594W        W80257  29.451   5.411   3.863
18595W        W80258   9.323  17.122   1.441
18596W        W80259  11.768  17.608   2.376
18597W        W80260  18.164  26.558   0.277
18598W        W80261  14.827  27.066  11.580
18599W        W80262   0.462  42.802   4.299
18600W        W80263  39.907  31.514   2.732
18601W        W80264   0.487  18.059   0.934
18602W        W80265  24.165  19.771  13.973
18603W        W80266  21.202  33.018   3.765
18604W        W80267  15.748  37.964  13.495
18605W        W80268  36.955  12.214  10.531
18606W        W80269  29.951  22.742  11.029
18607W        W80270   8.698  36.090   1.926
18608W        W80271  39.057  40.378   2.670
18609W        W80272  24.627   1.817   0.924
18610W        W80273  30.969  11.176   9.971
18611W        W80274   1.888  12.308  14.900
18612W        W80275  30.022  19.692   4.669
18613W        W80276  36.558  21.084   0.792
18614W        W80277  30.963  17.208  13.803
18615W        W80278  37.048  32.497  12.028
18616W        W80279  17.198   1.845  11.426
18617W        W80280  30.159   0.910   2.291
18618W        W80281   0.883  22.142   0.768
18619W        W80282  27.606  11.162   0.778
18620W        W80283  10.171  38.057   4.117
18621W        W80284  23.086   9.329   4.284
18622W        W80285  37.554  24.602   2.768
18623W        W80286  14.121   3.805  10.974
18624W        W80287  27.587  36.568   2.352
18625W        W80288  11.654   8.844   1.877
18626W        W80289  21.090  13.704   4.153
18627W        W80290   2.789  12.621   4.805
18628W        W80291  20.623  14.237  12.409
18629W        W80292  35.528  35.564  10.999
18630W        W80293   9.719   6.419  10.600
18631W        W80294  20.245   4.757   2.370
18632W        W80295  21.116  30.928  12.376
18633W        W80296  19.693   4.412  11.860
18634W        W80297  29.120  37.017   4.713
18635W        W80298  42.957  10.255   5.263
18636W        W80299  40.338  28.557   2.407
18637W        W80300  17.618  31.989   3.820
18638W        W80301  14.681  11.694   1.426
18639W        W80302  42.915  17.706  13.397
18640W        W80303   1.819  38.525   1.274
18641W        W80304  40.405  21.699  14.963
18642W        W80305  14.752  23.664  13.049
18643W        W80306  38.820  25.011  13.012
18644W        W80307  23.093  36.878  13.002
18645W        W80308  15.760  18.083  10.572
18646W        W80309  11.723   0.327  10.456
18647W        W80310  21.517  35.384   1.909
18648W        W80311  44.850  39.394  11.444
18649W        W80312  26.180  32.943   3.827
18650W        W80313  18.638  30.441   4.826
18651W        W80314  43.274   8.218   0.296
18652W        W80315   9.884   2.967  13.378
18653W        W80316  35.071   1.765   3.203
18654W        W80317  20.193   9.664   4.638
18655W        W80318   3.295  24.082  13.322
18656W        W80319  10.634  11.363   2.689
18657W        W80320  40.348  17.165   4.695
18658W        W80321   5.918  37.521  12.867
18659W        W80322  31.896  11.673   3.781
18660W        W80323  22.061  13.780  12.421
18661W        W80324  15.680  10.155   2.768
18662W        W80325  40.475  15.221  13.390
18663W        W80326  20.581  39.555   0.823
18664W        W80327  10.223  30.551   0.452
18665W        W80328  29.167  13.224   4.675
18666W        W80329   7.737  32.533   3.684
18667W        W80330  44.277   5.892  10.504
18668W        W80331  23.169  36.960  10.947
18669W        W80332  13.805  41.946   1.876
18670W        W80333  12.794  31.602   2.211
18671W        W80334  28.147  39.450   3.243
18672W        W80335  44.382  15.279  13.338
18673W        W80336   2.380  33.480   2.224
18674W        W80337   4.446   4.724  12.423
18675W        W80338   4.229  28.088   2.744
18676W        W80339  29.614  25.710  11.036
18677W        W80340  44.303  14.308  14.849
18678W        W80341  43.914  30.545   2.403
18679W        W80342   3.263  23.026  10.896
18680W        W80343  37.464  42.418  14.913
18681W        W80344  19.049   8.247  10.551
18682W        W80345  28.037  18.632   4.155
18683W        W80346   6.888  42.318   3.155
18684W        W80347  20.653  24.519   4.797
18685W        W80348  11.176  42.397  14.347
18686W        W80349  41.919  37.504   0.303
18687W        W80350   9.256  15.756  13.346
18688W        W80351  35.900  20.261  14.860
18689W        W80352  39.929  14.097  14.447
18690W        W80353  20.226  37.546  13.318
18691W        W80354   5.819  24.046   4.199
18692W        W80355  15.141  19.235   3.150
18693W        W80356  15.590  20.042  11.879
18694W        W80357  17.596   0.803   0.925
18695W        W80358  32.066  21.601   2.886
18696W        W80359  43.492  35.896   3.674
18697W        W80360   5.876  37.924   2.276
18698W        W80361  37.358  23.195   2.779
18699W        W80362  27.616  35.375  11.499
18700W        W80363  13.208  35.439   3.277
18701W        W80364   5.305  28.456   4.733
18702W        W80365  40.927  42.896   2.871
18703W        W80366  36.850  12.346  11.483
18704W        W80367   6.885  20.040   0.407
18705W        W80368  34.065  32.078  12.435
18706W        W80369  17.748   5.263  13.877
18707W        W80370  17.063  14.196   1.383
18708W        W80371  43.479  25.004  14.460
18709W        W80372  30.018   0.926  11.472
18710W        W80373  27.044  22.250   1.380
18711W        W80374  26.558   9.310   3.299
18712W        W80375  25.641  10.147   3.719
18713W        W80376  22.576  41.935  11.083
18714W        W80377  32.101  15.163  12.095
18715W        W80378  11.830  20.046   4.797
18716W        W80379   3.449  24.559   2.791
18717W        W80380   5.298   8.831   2.344
18718W        W80381   1.440  15.651   0.265
18719W        W80382  37.530   5.299   3.361
18720W        W80383  42.341  26.967   0.458
18721W        W80384  31.594  30.476  11.455
18722W        W80385   5.196   0.272   0.942
18723W        W80386  43.836  44.345   4.674
18724W        W80387  23.600  17.751   3.227
18725W        W80388  44.480  24.610  13.960
18726W        W80389  15.292  21.089  10.949
18727W        W80390  28.047  17.718   3.386
18728W        W80391  25.564  43.932   2.307
18729W        W80392  18.693   5.759  13.411
18730W        W80393   3.748   9.366  12.339
18731W        W80394  31.934   2.375  14.972
18732W        W80395   8.318  19.766   4.745
18733W        W80396   8.276   7.239  10.086
18734W        W80397  25.177  39.839   3.231
18735W        W80398  40.982  44.787  12.014
18736W        W80399  13.701   2.741   4.344
18737W        W80400  28.127  18.734  10.641
18738W        W80401  14.274  35.521  10.953
18739W        W80402  40.818   8.776   0.371
18740W        W80403  10.656  17.760   3.252
18741W        W80404  17.565   3.866   1.891
18742W        W80405  14.217  23.651   0.871
18743W        W80406  12.786  43.399  14.475
18744W        W80407  43.339   8.252  12.026
18745W        W80408  40.384  41.922   0.729
18746W        W80409  41.314  14.197  13.058
18747W        W80410  28.175  23.048   0.777
18748W        W80411  36.584   6.320   0.435
18749W        W80412  25.041   1.389  14.017
18750W        W80413  13.814   6.694   1.392
18751W        W80414  22.244  18.065  13.949
18752W        W80415  12.742  12.696   1.360
18753W        W80416  41.469  23.174  13.339
18754W        W80417  21.173  37.374   0.431
18755W        W80418  39.813  15.587  12.901
18756W        W80419   3.744  37.563   4.117
18757W        W80420  25.143  38.893  11.489
18758W        W80421  40.837  43.338  14.950
18759W        W80422  43.281  11.825   3.233
18760W        W80423  16.661  18.261  12.081
18761W        W80424  23.076  14.636  12.846
18762W        W80425  11.622  31.965   1.445
18763W        W80426   9.787   0.470   3.347
18764W        W80427  36.541  41.535   0.849
18765W        W80428  15.235  14.287   4.637
18766W        W80429  37.987   7.689   4.223
18767W        W80430  12.118  18.580   3.858
18768W        W80431   7.245  38.989  14.370
18769W        W80432   0.981  11.626   5.298
18770W        W80433  18.703   7.823   3.766
18771W        W80434  10.663   8.208   0.892
18772W        W80435  32.923  34.564   3.789
18773W        W80436   1.759   1.876  12.870
18774W        W80437   7.374  39.549  14.495
18775W        W80438  30.950  12.755   3.753
18776W        W80439  10.315  25.516  10.555
18777W        W80440  35.936   2.292  11.034
18778W        W80441  30.413  30.037   3.773
18779W        W80442  42.445   7.705  11.436
18780W        W80443   0.845  43.423  13.541
18781W        W80444  16.109  27.955   3.676
18782W        W80445  36.525  23.572  11.021
18783W        W80446  26.688  25.644  13.059
18784W        W80447  28.554   5.908  10.555
18785W        W80448  39.942  32.941   1.320
18786W        W80449  34.089  33.041  11.547
18787W        W80450  19.204  25.477   1.878
18788W        W80451  15.614  35.473  13.310
18789W        W80452  32.610  43.319  12.048
18790W        W80453  25.013   6.286  10.535
18791W        W80454  31.919  41.853  11.571
18792W        W80455  29.433  35.553  14.338
18793W        W80456   5.392  11.173  14.492
18794W        W80457   2.759  34.587  13.918
18795W        W80458  42.868  21.601  12.073
18796W        W80459  23.009  33.103   0.413
18797W        W80460  21.578  16.741   3.209
18798W        W80461  25.549  26.976   0.891
18799W        W80462  40.340  19.175  11.996
18800W        W80463  27.098  37.083  14.473
18801W        W80464  11.223  15.798  10.945
18802W        W80465  27.118  27.115  14.332
18803W        W80466   8.693  16.587  14.430
18804W        W80467  19.192  25.525   1.394
18805W        W80468  27.101  26.087  12.077
18806W        W80469  23.152   7.834   0.263
18807W        W80470  23.639   9.221  12.905
18808W        W80471   6.765  21.253   1.415
18809W        W80472  25.057  25.714   1.844
18810W        W80473   4.387  27.009   0.353
18811W        W80474  37.373  22.506   1.737
18812W        W80475   0.345  38.363   2.765
18813W        W80476  33.070   3.237   0.424
18814W        W80477  33.506  14.643  10.455
18815W        W80478   3.339  44.485  10.060
18816W        W80479   3.344  13.738   1.296
18817W        W80480  41.519  26.467  11.033
18818W        W80481  29.984  16.700   2.832
18819W        W80482  24.708  32.072   1.887
18820W        W80483   8.343  34.453   1.756
18821W        W80484  25.038  16.635  12.027
18822W        W80485  25.559   5.410   2.277
18823W        W80486  38.487  25.649  13.370
18824W        W80487   8.274   1.253  14.941
18825W        W80488  33.058  34.070  13.033
18826W        W80489  39.357   4.336  14.360
18827W        W80490   8.887  36.441  11.504
18828W        W80491  10.190  41.499  10.068
18829W        W80492  20.122   3.821  11.006
18830W        W80493  27.185  35.483  11.518
18831W        W80494  35.880   7.211  12.354
18832W        W80495  42.464  28.118  13.389
18833W        W80496  19.563  13.643   4.133
18834W        W80497  23.513  44.476   4.652
18835W        W80498  29.469  28.493   3.795
18836W        W80499  44.307  12.673   2.183
18837W        W80500  43.910   9.230  14.410
18838W        W80501   2.882  42.910   0.473
18839W        W80502  34.403  36.870  14.814
18840W        W80503  18.152  23.651   1.301
18841W        W80504   6.884  27.037   0.817
18842W        W80505  42.310  25.047   1.334
18843W        W80506   0.809  23.670  13.328
18844W        W80507  22.243  23.669   0.298
18845W        W80508   0.421  32.933   3.818
18846W        W80509  43.290   5.242   3.170
18847W        W80510  43.497  25.051   0.844
18848W        W80511  36.575  28.454  14.494
18849W        W80512  39.558  16.198  12.835
18850W        W80513  23.578  12.293   2.703
18851W        W80514  20.130  16.075  11.502
18852W        W80515  40.347  20.080   2.311
18853W        W80516  20.578  17.575   0.745
18854W        W80517  12.747   0.404   2.777
18855W        W80518  25.518  12.208  14.372
18856W        W80519   9.326  28.966   3.377
18857W        W80520  25.682   3.804   3.861
18858W        W80521  14.207  25.187   4.346
18859W        W80522  44.356  34.001   1.908
18860W        W80523  35.992  13.228   3.746
18861W        W80524  34.954   9.767   1.739
18862W        W80525  24.482  33.573  10.440
18863W        W80526  19.046  15.638   3.780
18864W        W80527  22.141  40.487  13.506
18865W        W80528  17.125  29.964   1.866
18866W        W80529  39.549  13.774  11.592
18867W        W80530  11.677   0.463   2.880
18868W        W80531  26.596  40.485  11.939
18869W        W80532  37.409  41.829  12.889
18870W        W80533  34.532  13.201   3.293
18871W        W80534  26.661   9.363  14.288
18872W        W80535  35.077  12.360   1.411
18873W        W80536   0.932  17.792   0.796
18874W        W80537  23.233  41.345   2.323
18875W        W80538  35.091   5.921   9.526
18876W        W80539  30.560   6.239   3.803
18877W        W80540  24.486  36.073   2.865
18878W        W80541   9.714   2.293  11.062
18879W        W80542  40.485  21.190  11.007
18880W        W80543  35.510  18.617   2.285
18881W        W80544   9.166  10.856   2.879
18882W        W80545   2.818  38.883  11.108
18883W        W80546  39.490   1.306  14.485
18884W        W80547  10.313  32.076   1.305
18885W        W80548   3.425  42.309  11.950
18886W        W80549  35.016  37.529   4.211
18887W        W80550  15.193  21.736  14.383
18888W        W80551  41.848  21.656   0.747
18889W        W80552  38.897  22.558   1.402
18890W        W80553   4.819  27.030   0.378
18891W        W80554   5.721  17.069  11.475
18892W        W80555   8.666   9.799   2.728
18893W        W80556  14.652  39.410  10.016
18894W        W80557  31.458  39.329  14.348
18895W        W80558  18.691   7.763  14.512
18896W        W80559  30.551  43.000   0.468
18897W        W80560   3.736   1.289   2.790
18898W        W80561  21.128  21.754  10.573
18899W        W80562  14.782   4.938   2.771
18900W        W80563  19.252  17.663  10.510
18901W        W80564  16.085  19.745  13.049
18902W        W80565   1.461  37.545   2.796
18903W        W80566  30.951  34.970   2.362
18904W        W80567  21.654  24.072  14.793
18905W        W80568  26.096   8.872   1.761
18906W        W80569   5.278  19.759  12.910
18907W        W80570  38.493  36.540   0.353
18908W        W80571   5.227  43.953   2.782
18909W        W80572   2.377   8.793   1.804
18910W        W80573  24.218  28.037   2.851
18911W        W80574  20.752  26.204  10.970
18912W        W80575   6.705  14.607  12.925
18913W        W80576  38.070  29.618  12.491
18914W        W80577  21.528  29.069   2.214
18915W        W80578  21.156  11.705  13.929
18916W        W80579  12.611  27.077   3.778
18917W        W80580  35.554  15.622   2.684
18918W        W80581   5.378  16.660  13.806
18919W        W80582  26.490  30.093  11.069
18920W        W80583   2.466  16.673   3.301
18921W        W80584  36.966  33.380  10.473
18922W        W80585  35.973  20.226  13.865
18923W        W80586  38.332   2.470  14.015
18924W        W80587   3.400   0.897  11.555
18925W        W80588  44.928  27.189  10.518
18926W        W80589  12.157  18.235  11.084
18927W        W80590  22.516   5.344  10.917
18928W        W80591  43.948  38.915   1.319
18929W        W80592  14.781   1.305   4.337
18930W        W80593  42.870  36.907  11.925
18931W        W80594  11.769  39.323   2.331
18932W        W80595   0.885   7.334  13.935
18933W        W80596  38.541   9.857  14.411
18934W        W80597  23.155  35.389   0.770
18935W        W80598  10.865  29.131   3.311
18936W        W80599   2.390  24.011   4.292
18937W        W80600  41.293  38.050   1.898
18938W        W80601  35.600  13.209   4.816
18939W        W80602  42.952  24.590   2.209
18940W        W80603  15.641  10.878  12.961
18941W        W80604  34.545  27.979  10.628
18942W        W80605  32.068  24.538  12.081
18943W        W80606  38.925  41.894  13.486
18944W        W80607   8.363  20.079  11.960
18945W        W80608  39.469   3.312   1.361
18946W        W80609  14.161  28.651   0.261
18947W        W80610  14.312   4.321   4.349
18948W        W80611  24.090  36.368  14.403
18949W        W80612  21.656  14.124  12.566
18950W        W80613   5.358   1.954  12.983
18951W        W80614  33.893  28.489   3.701
18952W        W80615  14.834  28.026   3.151
18953W        W80616  38.332  14.297   0.377
18954W        W80617  21.681  42.958   2.691
18955W        W80618  32.546  30.609   3.846
18956W        W80619   1.378  28.447  11.606
18957W        W80620  10.679  42.903  13.032
18958W        W80621   6.912  26.073   2.830
18959W        W80622   9.192  41.824   2.815
18960W        W80623  44.786  42.355   2.755
18961W        W80624  34.446  38.414   3.232
18962W        W80625  17.163  25.175   2.755
18963W        W80626  42.850  40.308   3.772
18964W        W80627  36.356  13.736  14.309
18965W        W80628  22.557   7.359   4.740
18966W        W80629  25.153  39.892   2.817
18967W        W80630   7.798  18.291  10.950
18968W        W80631  15.191  32.488  13.984
18969W        W80632   7.909  30.522  10.461
18970W        W80633   7.670  32.493   0.254
18971W        W80634  25.694   1.342   0.400
18972W        W80635  36.060  19.540  13.047
18973W        W80636  19.056  22.015   1.899
18974W        W80637  29.550  12.782  13.826
18975W        W80638  20.600  21.149   2.662
18976W        W80639   7.413  27.583   1.276
18977W        W80640   4.796  37.375  13.046
18978W        W80641  20.552   2.235  12.839
18979W        W80642   7.225  44.318   3.724
18980W        W80643  10.765   4.203   3.273
18981W        W80644  43.771   8.181   0.925
18982W        W80645   9.861  25.477  12.464
18983W        W80646  30.617  12.339  14.394
18984W        W80647  28.507  34.543  13.373
18985W        W80648  22.551   6.701   5.316
18986W        W80649  39.025   0.472  14.438
18987W        W80650  38.912  12.162   3.709
18988W        W80651  33.606   9.763   4.810
18989W        W80652  22.570  27.088  11.123
18990W        W80653  28.028  40.897   5.617
18991W        W80654   3.379  16.737   1.698
18992W        W80655   3.824  31.482   3.760
18993W        W80656  44.423  39.899  12.059
18994W        W80657   3.317  18.696   0.770
18995W        W80658  19.586  15.713  11.404
18996W        W80659   8.731  29.968   3.155
18997W        W80660  32.413  15.147   1.405
18998W        W80661  32.070  24.588   3.734
18999W        W80662  12.761   7.368  11.377
19000W        W80663  38.935  25.204  11.547
19001W        W80664  38.401  30.521   3.276
19002W        W80665  14.786  28.061   1.449
19003W        W80666  28.605  31.130  13.416
19004W        W80667   8.239  42.836  13.941
19005W        W80668  11.322   9.660  13.794
19006W        W80669  17.712  37.435  13.049
19007W        W80670   7.666  37.560   3.358
19008W        W80671  15.677  29.001   0.362
19009W        W80672  31.961   6.695   0.412
19010W        W80673  42.947   9.240  12.494
19011W        W80674  13.709   9.884   1.276
19012W        W80675  19.162  22.138  13.326
19013W        W80676  11.246  42.858  11.538
19014W        W80677  23.496  43.443   0.272
19015W        W80678  20.232  43.433   2.339
19016W        W80679  11.136  16.625  10.492
19017W        W80680   4.449  34.544  12.376
19018W        W80681  20.134  44.904  14.016
19019W        W80682   5.306   8.353   4.799
19020W        W80683  13.336  40.052   3.692
19021W        W80684   5.273   0.317  13.922
19022W        W80685  26.607  32.566   3.339
19023W        W80686  30.983  39.551  11.980
19024W        W80687  41.910  34.487   0.464
19025W        W80688  42.827   3.723  13.804
19026W        W80689  17.789   8.824   0.867
19027W        W80690  35.006   9.367   0.921
19028W        W80691  14.776  29.058   0.801
19029W        W80692  37.033  33.020  12.853
19030W        W80693  20.763  44.829  12.944
19031W        W80694  12.211  21.202  13.478
19032W        W80695  44.443  19.087   4.831
19033W        W80696  29.636  23.175  14.898
19034W        W80697   5.227  25.551  12.928
19035W        W80698  14.192  37.401   3.360
19036W        W80699  27.493  33.981   1.750
19037W        W80700  30.165  29.499  14.795
19038W        W80701   6.823   0.494  11.436
19039W        W80702  37.536  26.574   0.349
19040W        W80703  34.556   2.244   0.855
19041W        W80704  40.431   3.869  11.922
19042W        W80705  43.463  20.048   3.219
19043W        W80706  40.536  31.420   3.259
19044W        W80707   2.383  33.614   3.812
19045W        W80708   3.844  12.215   4.217
19046W        W80709  39.369   3.951  14.949
19047W        W80710  13.189   0.904  12.090
19048W        W80711  43.812  12.793  13.484
19049W        W80712   0.912  17.171   4.350
19050W        W80713  11.169  25.628  14.938
19051W        W80714   0.418   8.774   3.760
19052W        W80715  20.626  39.979   3.288
19053W        W80716  26.663  19.269  12.390
19054W        W80717  18.718  17.660   3.653
19055W        W80718  10.303  37.408   9.954
19056W        W80719  42.905  26.026  12.517
19057W        W80720  39.830  34.068   2.711
19058W        W80721   2.251   6.702   2.204
19059W        W80722  19.239  26.129  12.862
19060W        W80723  10.200  30.982  14.950
19061W        W80724  43.398  25.631   2.204
19062W        W80725  27.149  41.339  14.901
19063W        W80726  31.110   6.237  13.815
19064W        W80727  40.370   1.364   4.609
19065W        W80728   9.294  21.018   0.776
19066W        W80729  39.809   8.703   2.834
19067W        W80730  41.291  26.084  10.644
19068W        W80731  37.533  18.761   3.295
19069W        W80732   5.341  43.925   4.729
19070W        W80733  28.478  37.904   2.737
19071W        W80734  38.451   8.387  10.969
19072W        W80735   5.812  11.150  14.430
19073W        W80736  23.075  30.502   2.357
19074W        W80737  20.202  24.683  12.059
19075W        W80738   6.200  35.018   1.414
19076W        W80739  29.624   4.395   3.215
19077W        W80740   5.866  17.238   2.729
19078W        W80741  20.135  25.675  14.966
19079W        W80742   0.792  23.527   1.420
19080W        W80743  41.423  43.442   1.780
19081W        W80744   0.744   3.291  12.981
19082W        W80745  29.988  42.297  10.627
19083W        W80746  39.515  24.630  11.439
19084W        W80747  25.469  41.422   2.767
19085W        W80748  11.664  29.943   1.905
19086W        W80749  36.390  10.357   9.971
19087W        W80750   6.810  11.666   2.390
19088W        W80751  10.841   4.315   0.920
19089W        W80752  17.182  32.415  13.896
19090W        W80753  44.381  28.611   3.247
19091W        W80754  24.541  42.436   3.689
19092W        W80755  30.583   8.863  11.995
19093W        W80756  26.661   0.789   1.858
19094W        W80757  20.744  33.600  11.424
19095W        W80758  25.603  27.058   2.682
19096W        W80759  33.069  20.083   1.259
19097W        W80760  39.522  31.141   4.288
19098W        W80761  40.055  42.313   0.770
19099W        W80762  35.993  20.051  10.049
19100W        W80763  13.188  21.627  13.407
19101W        W80764   8.289   0.424   2.342
19102W        W80765  31.480  42.331   3.776
19103W        W80766   3.821  38.426   2.825
19104W        W80767   5.210  36.879  14.797
19105W        W80768  36.043  15.789   0.762
19106W        W80769  39.525   2.787   2.184
19107W        W80770   2.319  26.185  12.049
19108W        W80771  44.318  13.736   4.233
19109W        W80772   5.775  34.954   2.759
19110W        W80773   8.664  39.014   0.908
19111W        W80774  22.164  29.564  13.841
19112W        W80775  13.124   6.691  13.944
19113W        W80776  13.231   1.388   2.368
19114W        W80777  30.641  18.068   2.416
19115W        W80778  20.247  26.056   3.722
19116W        W80779   4.793  32.390  14.475
19117W        W80780  36.556   1.290   0.791
19118W        W80781  28.597  24.590   3.229
19119W        W80782  41.409   5.825  12.875
19120W        W80783   2.414   1.937   2.401
19121W        W80784  40.498  31.433  14.478
19122W        W80785  13.687  13.745  11.891
19123W        W80786  12.850  36.401   3.263
19124W        W80787  44.801  22.521  13.839
19125W        W80788  20.065  22.536   3.842
19126W        W80789  23.717  39.366   4.749
19127W        W80790  35.057  26.529   3.845
19128W        W80791  13.606  30.607  12.866
19129W        W80792  36.938  17.205   1.756
19130W        W80793  36.862  34.068   2.256
19131W        W80794  29.097  12.312  12.462
19132W        W80795  11.153   4.854   2.217
19133W        W80796  34.500  12.149   3.301
19134W        W80797  36.378  19.572   4.800
19135W        W80798  26.515   3.762  10.946
19136W        W80799  32.616  31.509   2.790
19137W        W80800  23.211  32.095  14.342
19138W        W80801  17.306  41.456   5.116
19139W        W80802  24.597  33.479  14.432
19140W        W80803  35.004  15.770   3.204
19141W        W80804  26.591  23.719   1.271
19142W        W80805  31.433  21.191   1.373
19143W        W80806  37.447  12.231   0.390
19144W        W80807   7.195  14.764   1.848
19145W        W80808  26.951  33.919   0.833
19146W        W80809   3.328  27.564  10.468
19147W        W80810  39.358   3.448   3.681
19148W        W80811  38.487   6.754   2.865
19149W        W80812  23.013  38.329  12.552
19150W        W80813  40.941  16.242   4.139
19151W        W80814  38.841   2.895   0.746
19152W        W80815   9.694   3.808  13.910
19153W        W80816   5.271   8.852  10.934
19154W        W80817   9.357  29.540   4.732
19155W        W80818  37.433  38.351   2.318
19156W        W80819  25.596   9.723  13.505
19157W        W80820  27.647  32.515   1.712
19158W        W80821  43.895  39.509   0.942
19159W        W80822  15.144  24.206   4.250
19160W        W80823  28.102  16.789   9.989
19161W        W80824  28.031  43.999   3.686
19162W        W80825  28.061  16.112   0.431
19163W        W80826  20.244  12.125  11.488
19164W        W80827  39.832   3.854   0.749
19165W        W80828  24.064  16.757  14.890
19166W        W80829  38.378  27.599  10.983
19167W        W80830  15.796   5.266   1.345
19168W        W80831  20.164  22.501   4.664
19169W        W80832   6.381  38.851   1.752
19170W        W80833  28.059   3.851  11.897
19171W        W80834  19.127   3.760  10.942
19172W        W80835  23.516  30.080  12.055
19173W        W80836   8.287  34.578  11.887
19174W        W80837  31.926  32.607  12.936
19175W        W80838  15.258  40.901  10.983
19176W        W80839  35.578   5.252   3.286
19177W        W80840   3.232  27.093   0.279
19178W        W80841   5.747  12.228   0.481
19179W        W80842  31.019  34.969   4.205
19180W        W80843   1.406   9.825   3.667
19181W        W80844   5.918  21.126   4.672
19182W        W80845  14.815  13.280  11.385
19183W        W80846  35.405   0.852  13.020
19184W        W80847  40.382   3.412   0.435
19185W        W80848   8.740  23.209  14.767
19186W        W80849  28.447  24.585   3.633
19187W        W80850  26.661  18.146  12.443
19188W        W80851   9.312   8.767   3.710
19189W        W80852  22.092   0.395  12.029
19190W        W80853   0.952   6.751   2.817
19191W        W80854  34.541  29.537   4.813
19192W        W80855   4.344  36.463   1.388
19193W        W80856   2.305  42.866  10.896
19194W        W80857   6.279  34.523   3.691
19195W        W80858  16.293  42.282   1.900
19196W        W80859   4.257  28.644   3.652
19197W        W80860  41.877  15.130   0.845
19198W        W80861   7.848  21.585  11.976
19199W        W80862  35.946  31.988   3.227
19200W        W80863  37.914  14.192  11.501
19201W        W80864  34.993  32.486  14.307
19202W        W80865   9.814  37.032   2.725
19203W        W80866   1.851  35.565   3.667
19204W        W80867  32.109  16.317  14.942
19205W        W80868  29.994  23.073  13.920
19206W        W80869  32.535  39.995   4.119
19207W        W80870   3.786   5.848   5.155
19208W        W80871   3.275  17.757   1.816
19209W        W80872  25.076  30.635   1.862
19210W        W80873   8.771  30.100  13.442
19211W        W80874   3.829  39.495  13.839
19212W        W80875  41.392  28.978  10.515
19213W        W80876  22.664  17.669  10.946
19214W        W80877  40.924   2.364   3.175
19215W        W80878   4.205  38.836   0.261
19216W        W80879   6.703  38.055  13.456
19217W        W80880  33.417  41.032   2.189
19218W        W80881  31.035  40.324  12.455
19219W        W80882  19.081  35.092   1.699
19220W        W80883  31.552  24.189  14.866
19221W        W80884  20.649  24.008   4.276
19222W        W80885  42.851  44.999  14.853
19223W        W80886  22.664   9.299   0.275
19224W        W80887  29.654  13.622   2.816
19225W        W80888  21.627  37.067  13.806
19226W        W80889  23.196   3.843  13.430
19227W        W80890  32.419  11.231   2.901
19228W        W80891  14.832  34.497   4.814
19229W        W80892  40.958   0.466   0.877
19230W        W80893  15.602   6.742  14.837
19231W        W80894  33.043   4.371  11.030
19232W        W80895  34.535  34.613  13.898
19233W        W80896  16.792  35.409  14.904
19234W        W80897   7.822   8.223  12.579
19235W        W80898   3.744  36.401   2.399
19236W        W80899  11.314  43.474   3.656
19237W        W80900  10.703  23.173  14.900
19238W        W80901  43.933   0.803   0.340
19239W        W80902  43.390   0.937  11.031
19240W        W80903  21.191   9.744   9.972
19241W        W80904  23.684  17.230   1.316
19242W        W80905  24.595  24.690   1.286
19243W        W80906  27.682  29.637  13.444
19244W        W80907  23.727  23.177   3.173
19245W        W80908  17.577  18.596   4.267
19246W        W80909  42.783  19.622   0.395
19247W        W80910   6.351   9.392  12.481
19248W        W80911  38.872  19.760   3.361
19249W        W80912   9.783   1.255   1.700
19250W        W80913  42.011   4.883  11.425
19251W        W80914  23.562  37.873   3.249
19252W        W80915   6.358  24.706   4.828
19253W        W80916  27.160  31.408   0.483
19254W        W80917  40.904  26.469  14.816
19255W        W80918  32.505  28.664   1.890
19256W        W80919  21.516   5.362  11.127
19257W        W80920   0.271  16.128  10.536
19258W        W80921  17.718  17.697  14.936
19259W        W80922  44.435  11.235   5.162
19260W        W80923  28.502  35.604  13.467
19261W        W80924  18.681  28.573  13.490
19262W        W80925  34.968   0.482   1.830
19263W        W80926  18.692  25.070   4.302
19264W        W80927  30.914  22.645   0.329
19265W        W80928  25.560   3.857   9.568
19266W        W80929  16.633  10.696  14.918
19267W        W80930  31.624  32.116   2.884
19268W        W80931  21.610  33.085   3.386
19269W        W80932   8.725  37.856   1.751
19270W        W80933  15.323  14.096   1.262
19271W        W80934   6.916  33.124   2.727
19272W        W80935  40.423   5.909   4.805
19273W        W80936  32.098  15.115   4.790
19274W        W80937   3.916  28.561   2.827
19275W        W80938  30.070  37.410   1.258
19276W        W80939   3.306   3.339  12.384
19277W        W80940  11.367  24.640   1.887
19278W        W80941  38.525  25.188   1.413
19279W        W80942  30.599  18.060  14.899
19280W        W80943  18.087  41.007   4.730
19281W        W80944  42.009  13.675   4.252
19282W        W80945  42.515  15.620   0.276
19283W        W80946  37.889  36.365   3.300
19284W        W80947   4.834   6.210   1.379
19285W        W80948  14.715  43.990   4.352
19286W        W80949  36.875  30.133   2.860
19287W        W80950  20.658  38.360  12.442
19288W        W80951  32.028  33.595  12.506
19289W        W80952  20.537   8.876  11.608
19290W        W80953  28.038  14.253   1.815
19291W        W80954   3.425   5.419  13.039
19292W        W80955   2.450  11.627   0.398
19293W        W80956  32.092   3.936   1.231
19294W        W80957   6.323  17.702  13.054
19295W        W80958  30.079  13.223  14.978
19296W        W80959  40.022  20.071   2.898
19297W        W80960  25.143  30.626   2.852
19298W        W80961  21.581  33.928  11.418
19299W        W80962  43.357  42.868  13.945
19300W        W80963  13.346  34.416   3.181
19301W        W80964  13.319  25.474  13.546
19302W        W80965   1.473  27.073  14.822
19303W        W80966  22.700  29.021  11.440
19304W        W80967   7.904  35.089   4.766
19305W        W80968  18.568  26.657   1.820
19306W        W80969   7.202   9.817  13.051
19307W        W80970  29.989   9.162  13.808
19308W        W80971  40.524   6.223  13.400
19309W        W80972  38.361  32.072  11.088
19310W        W80973  31.151  12.621  12.388
19311W        W80974  12.174  15.305   2.709
19312W        W80975   5.343  32.529  12.575
19313W        W80976   6.777  39.945   2.782
19314W        W80977  41.501  44.980  12.868
19315W        W80978  25.483  21.520   3.311
19316W        W80979  23.212  43.402   4.167
19317W        W80980  23.097   1.482  13.010
19318W        W80981  30.440  39.520  13.015
19319W        W80982  31.516   5.900   2.677
19320W        W80983   6.842  39.550   4.751
19321W        W80984  11.783  24.000   3.270
19322W        W80985  14.595   9.761  13.388
19323W        W80986  36.032  10.834  13.919
19324W        W80987  40.995  23.707   0.342
19325W        W80988  22.590   1.929  14.787
19326W        W80989  15.173   8.868  14.433
19327W        W80990   7.409  35.386   3.705
19328W        W80991  23.586   4.926  14.417
19329W        W80992  40.959  19.106  12.523
19330W        W80993  34.092   2.372   4.795
19331W        W80994  21.086  11.298   1.312
19332W        W80995  16.684   3.869  12.516
19333W        W80996  30.117  31.143  13.055
19334W        W80997  39.460  16.257  13.427
19335W        W80998  28.447   8.367  13.029
19336W        W80999  10.802  12.833  14.503
19337W        W81000   7.844   0.418  13.043
19338W        W81001  29.608   7.776  11.565
19339W        W81002  11.360  22.652  10.458
19340W        W81003  19.743  15.155   0.281
19341W        W81004  22.027  44.894  11.938
19342W        W81005   8.770  10.655  13.537
19343W        W81006  44.794  40.917   1.379
19344W        W81007   8.856  40.546  11.031
19345W        W81008  39.547   6.403   0.412
19346W        W81009  28.487  42.375  11.453
19347W        W81010   3.316   1.794   0.310
19348W        W81011  11.797   7.359  12.861
19349W        W81012  37.370  18.128   3.216
19350W        W81013   6.196  16.173  11.446
19351W        W81014  16.090  15.652  13.931
19352W        W81015   7.672   0.839   4.658
19353W        W81016   9.255  11.623  11.478
19354W        W81017   0.952  23.723   4.305
19355W        W81018  43.341  12.665   3.370
19356W        W81019  11.848   2.419   3.339
19357W        W81020  25.629   1.833   3.695
19358W        W81021  28.558  44.277   4.269
19359W        W81022  25.157   1.972  13.873
19360W        W81023   4.701  36.926   4.285
19361W        W81024  26.151   9.262   4.310
19362W        W81025  26.137   5.358  10.640
19363W        W81026  22.096  26.971  11.016
19364W        W81027  16.100   0.384  13.937
19365W        W81028   0.774  41.500   2.373
19366W        W81029  17.233  40.928   2.763
19367W        W81030  33.521  26.115   4.805
19368W        W81031  23.577  31.964   0.363
19369W        W81032   0.450  16.801   0.391
19370W        W81033  37.370  33.113   2.832
19371W        W81034   4.734  12.131  11.097
19372W        W81035   6.918   8.881  11.553
19373W        W81036   1.444  27.576  10.505
19374W        W81037   5.723  31.957  11.534
19375W        W81038   7.359  41.430   3.856
19376W        W81039  28.973  20.105  13.966
19377W        W81040  11.286  31.535  10.632
19378W        W81041  18.636  42.508   1.750
19379W        W81042  20.591  26.637   4.265
19380W        W81043  36.972  26.995   0.785
19381W        W81044   2.773  11.647  11.062
19382W        W81045  41.006  34.896   2.718
19383W        W81046  42.849  25.070   0.386
19384W        W81047   6.301  42.950  14.409
19385W        W81048   7.683  43.806   0.859
19386W        W81049  34.894   0.444   3.347
19387W        W81050  11.866  28.063   3.289
19388W        W81051  21.120  25.489  13.532
19389W        W81052   0.861  10.223  13.340
19390W        W81053  10.353   0.398  12.064
19391W        W81054   5.307  16.718   4.810
19392W        W81055  19.566   4.387   4.115
19393W        W81056  20.579  19.562  14.846
19394W        W81057  31.057  42.305   0.340
19395W        W81058  29.580  31.516   1.706
19396W        W81059  20.184  28.652   4.777
19397W        W81060  44.849  13.768  13.016
19398W        W81061  43.338  11.750  10.568
19399W        W81062  11.353  13.790   0.260
19400W        W81063  32.021  14.625  10.930
19401W        W81064  43.857  37.545   4.763
19402W        W81065  15.680   4.923  11.590
19403W        W81066  16.638  43.952  11.465
19404W        W81067  29.128   7.197   0.365
19405W        W81068  35.934   1.769   3.240
19406W        W81069   4.866  12.147  14.322
19407W        W81070  36.033  12.745   4.804
19408W        W81071  33.416  41.044  11.086
19409W        W81072   8.276  13.790  11.603
19410W        W81073  43.288  19.658   2.846
19411W        W81074  36.375  41.345  10.407
19412W        W81075  44.284  29.986  11.558
19413W        W81076  12.324  26.010   4.198
19414W        W81077  30.494  32.481  14.785
19415W        W81078  30.658  24.667  10.574
19416W        W81079   1.418  19.212  13.868
19417W        W81080  15.814  32.931  10.566
19418W        W81081  38.337  18.711  11.888
19419W        W81082  10.334  43.398  11.452
19420W        W81083   9.152  37.447   5.226
19421W        W81084  10.180  19.648  14.385
19422W        W81085  21.537  17.301  11.908
19423W        W81086  25.998  42.798   0.923
19424W        W81087  11.668  26.622  13.914
19425W        W81088  44.329  29.922  14.915
19426W        W81089  24.994   1.473   3.303
19427W        W81090   4.859   1.861  13.818
19428W        W81091  39.049   2.392  12.009
19429W        W81092  34.384  19.589   5.635
19430W        W81093  13.701   9.217  10.599
19431W        W81094  17.705   8.315   1.913
19432W        W81095  13.319  10.191   4.353
19433W        W81096  43.297  44.979  14.999
19434W        W81097  10.786  29.168  10.989
19435W        W81098  27.509  24.019  11.605
19436W        W81099  43.353  16.114   1.931
19437W        W81100  34.488  28.668  13.390
19438W        W81101  41.357  11.221   2.410
19439W        W81102  39.443  15.672   0.943
19440W        W81103  23.700  40.535  14.491
19441W        W81104   9.685  15.129  14.899
19442W        W81105  13.236  12.770   1.301
19443W        W81106  37.545  28.677  10.463
19444W        W81107  17.145   9.652   0.897
19445W        W81108  37.055  19.695   0.349
19446W        W81109  42.984   1.313  12.570
19447W        W81110  22.145  28.076  11.090
19448W        W81111  40.897   2.752   4.623
19449W        W81112  23.548  30.126   3.781
19450W        W81113  34.941   4.834  10.915
19451W        W81114   4.385  38.347  11.514
19452W        W81115  36.036  23.101   4.783
19453W        W81116   6.759   0.385   2.765
19454W        W81117  17.701  21.187  14.376
19455W        W81118   4.785  33.613  10.923
19456W        W81119  28.184  16.150  14.882
19457W        W81120  34.416  24.490  14.799
19458W        W81121  36.036   8.890   0.913
19459W        W81122   6.372  34.055  11.450
19460W        W81123   8.748   9.775  13.509
19461W        W81124  42.846  10.750  13.981
19462W        W81125  13.329  34.532  14.436
19463W        W81126  31.623   3.737   2.282
19464W        W81127  29.028  37.393   1.930
19465W        W81128  19.129  24.997   3.739
19466W        W81129  41.973  28.179  11.441
19467W        W81130  20.624  36.009  12.888
19468W        W81131  22.634   6.279  14.380
19469W        W81132   4.891  12.813  10.426
19470W        W81133   6.313   0.949  11.011
19471W        W81134   2.765  29.083   2.417
19472W        W81135  30.140   4.890   4.690
19473W        W81136  34.106  21.230  11.991
19474W        W81137  15.779  29.458   5.266
19475W        W81138   5.738  33.477  12.861
19476W        W81139   4.793  44.966   1.798
19477W        W81140  38.475  28.156  13.950
19478W        W81141  31.448  14.825  14.887
19479W        W81142   2.810  18.598   4.326
19480W        W81143  21.082  13.728  11.405
19481W        W81144   7.399  27.956   5.241
19482W        W81145   8.706  25.023  13.057
19483W        W81146  21.733  22.109   1.270
19484W        W81147  11.306  28.446   3.283
19485W        W81148   8.196  31.507  13.319
19486W        W81149   8.883  39.372  14.932
19487W        W81150  19.552   6.258   0.396
19488W        W81151  31.469   7.822   3.796
19489W        W81152  28.436  14.295  12.388
19490W        W81153  11.352  19.165   2.351
19491W        W81154  32.528   4.394   1.887
19492W        W81155  43.987  27.565  11.574
19493W        W81156   8.852   2.292   2.335
19494W        W81157  10.874  38.340  12.935
19495W        W81158  20.223  40.397   1.890
19496W        W81159  17.108  10.653   3.249
19497W        W81160  21.179  35.856   4.712
19498W        W81161  44.871  12.310   4.212
19499W        W81162   0.324  24.652   2.239
19500W        W81163  44.396   3.307   3.167
19501W        W81164  23.527  11.622   4.672
19502W        W81165  21.748  12.756   1.433
19503W        W81166   3.441  14.786   3.152
19504W        W81167  25.145  16.089  10.921
19505W        W81168   5.214  43.450  11.971
19506W        W81169  42.442  31.150   2.837
19507W        W81170  34.915   0.820  13.007
19508W        W81171   0.296  11.679  14.275
19509W        W81172   8.678  15.237   0.728
19510W        W81173   7.354  37.549   4.617
19511W        W81174  38.430  22.205  10.449
19512W        W81175  42.800  43.342  10.613
19513W        W81176  32.025  25.164   0.911
19514W        W81177  14.605  40.488   2.851
19515W        W81178  15.645  21.039   1.237
19516W        W81179  21.223   8.203  14.858
19517W        W81180   4.423  15.177  14.822
19518W        W81181  12.753  44.491   4.163
19519W        W81182  13.136  24.543  11.920
19520W        W81183  39.402  12.649  14.955
19521W        W81184  42.510   3.388  12.421
19522W        W81185  26.457  43.919   1.242
19523W        W81186   9.763  30.484   0.957
19524W        W81187  29.607  14.336  12.472
19525W        W81188  18.565  43.437   2.405
19526W        W81189  34.915  17.788  13.942
19527W        W81190  10.798  39.500   2.714
19528W        W81191  24.688  30.035   4.607
19529W        W81192  17.710  44.395   0.420
19530W        W81193   8.802  25.163   3.223
19531W        W81194   3.226  39.981   0.376
19532W        W81195  16.206  32.012  11.125
19533W        W81196  39.436   4.790   1.774
19534W        W81197  26.054  28.638  12.351
19535W        W81198   2.794   8.186   2.751
19536W        W81199   6.201  26.085  14.882
19537W        W81200  29.600  44.002  13.016
19538W        W81201  41.892  42.900  12.499
19539W        W81202  18.669   0.764   5.095
19540W        W81203  41.353  40.521   3.827
19541W        W81204   5.890  25.690  13.991
19542W        W81205  44.842  29.125   1.766
19543W        W81206   1.239  20.083   2.735
19544W        W81207   4.934  23.527   2.730
19545W        W81208  18.687  39.913  14.927
19546W        W81209  16.266   7.395   3.148
19547W        W81210  20.614  19.723  13.462
19548W        W81211  19.711  30.503   3.740
19549W        W81212  14.287   0.309   2.259
19550W        W81213  21.044  22.592  14.445
19551W        W81214  41.316  24.495   3.818
19552W        W81215  43.003  30.503  13.465
19553W        W81216  15.695  16.612  12.486
19554W        W81217   5.246  42.003  12.056
19555W        W81218  33.101  23.194   0.465
19556W        W81219  20.264  35.498  13.387
19557W        W81220   3.749  41.866  10.592
19558W        W81221   3.378   8.348   3.357
19559W        W81222  44.891  39.979   1.421
19560W        W81223   9.194  23.603   3.699
19561W        W81224   4.869  43.843   0.358
19562W        W81225  19.151  41.498   2.408
19563W        W81226  23.140  30.164   0.279
19564W        W81227  31.986   8.291  13.347
19565W        W81228   7.206  42.382  11.473
19566W        W81229  31.897  36.542  14.438
19567W        W81230   9.708   4.754   2.185
19568W        W81231   6.882  20.661   4.742
19569W        W81232  14.739  21.078  10.071
19570W        W81233  10.762   4.891  11.987
19571W        W81234   6.264  31.647  10.449
19572W        W81235   2.274  28.992  12.432
19573W        W81236  34.465   0.338   2.726
19574W        W81237  42.838  27.974  12.025
19575W        W81238  20.691  25.994  10.570
19576W        W81239  21.662  28.019   0.296
19577W        W81240   0.339  32.932  12.071
19578W        W81241   8.403  18.775  11.912
19579W        W81242  18.221  22.122  13.048
19580W        W81243   4.218   1.387   1.790
19581W        W81244   3.325   3.226   5.290
19582W        W81245  41.383  27.675   0.451
19583W        W81246  39.855   2.274   1.843
19584W        W81247  39.497  43.513   3.233
19585W        W81248  40.397   3.233  13.497
19586W        W81249  37.859  18.654  14.425
19587W        W81250  16.154  20.560  12.418
19588W        W81251   2.810  44.935   1.344
19589W        W81252   8.334   4.429  10.522
19590W        W81253  39.915  31.139  14.910
19591W        W81254  38.961  10.219  10.086
19592W        W81255  31.020  23.222  13.377
19593W        W81256  25.010   3.881   5.084
19594W        W81257  24.022  36.907   0.476
19595W        W81258   3.312  29.925  12.884
19596W        W81259  22.191  36.966  11.512
19597W        W81260   2.788  25.116   4.674
19598W        W81261  36.066  32.109   1.731
19599W        W81262  11.646  17.295   5.135
19600W        W81263   9.809  29.657   3.668
19601W        W81264  21.585  19.149   2.243
19602W        W81265  21.629  32.139   3.370
19603W        W81266   2.823  18.780   2.205
19604W        W81267  28.559   2.855   2.303
19605W        W81268  32.126  24.044   2.723
19606W        W81269  12.188  36.553  12.921
19607W        W81270  43.469  34.083  14.312
19608W        W81271  22.161  29.438   1.697
19609W        W81272  32.614  17.210  11.053
19610W        W81273   4.721  33.463   2.661
19611W        W81274  26.518  26.117  12.905
19612W        W81275  42.512  33.557  10.998
19613W        W81276  38.071  41.319   0.765
19614W        W81277  14.118  26.635   3.167
19615W        W81278  29.036  23.573   3.187
19616W        W81279   7.259  27.458  12.456
19617W        W81280   6.804  43.313  11.964
19618W        W81281  25.108  44.458  12.396
19619W        W81282  35.526  16.262   3.155
19620W        W81283  28.560  13.606   0.792
19621W        W81284  35.498  11.189  13.316
19622W        W81285  26.660  31.070  11.044
19623W        W81286  10.756  36.394  12.079
19624W        W81287  12.302   3.389  14.823
19625W        W81288  15.125   1.858   3.358
19626W        W81289  19.637  17.133  11.016
19627W        W81290  21.715   0.393   3.169
19628W        W81291   2.796  23.696  10.449
19629W        W81292  43.448  22.586  14.789
19630W        W81293   4.418  26.037  10.487
19631W        W81294   1.827  19.681   4.765
19632W        W81295  28.009  43.764   0.888
19633W        W81296   0.354  10.369  13.395
19634W        W81297  11.143  10.155  12.999
19635W        W81298  33.921  32.128  11.534
19636W        W81299   5.889  20.736   3.644
19637W        W81300  41.887  12.653   1.740
19638W        W81301  22.098   8.264   3.382
19639W        W81302  31.645  44.376  14.019
19640W        W81303  19.109  21.615  14.834
19641W        W81304  20.228   3.310  14.390
19642W        W81305  32.528  20.194  14.388
19643W        W81306  11.286  28.174  14.926
19644W        W81307  13.163   4.269  12.962
19645W        W81308  27.536  27.551   1.854
19646W        W81309   1.304  37.407   2.333
19647W        W81310   0.334  24.987  10.563
19648W        W81311  29.664  33.509  14.938
19649W        W81312  37.079  14.102   4.314
19650W        W81313  19.716  34.014  12.457
19651W        W81314  17.632  11.676  13.831
19652W        W81315  35.376  25.132   2.721
19653W        W81316   0.860  22.662   5.229
19654W        W81317   1.384  39.484  14.278
19655W        W81318   8.240  44.357  10.613
19656W        W81319   3.422  39.515  14.834
19657W        W81320  39.505  42.021  14.010
19658W        W81321  11.808  11.769   2.388
19659W        W81322  21.257  34.049  10.605
19660W        W81323  42.285  32.885  11.472
19661W        W81324  33.601  15.208  11.537
19662W        W81325  43.783  32.408   3.849
19663W        W81326  32.632  13.602   1.707
19664W        W81327   4.880   1.293   0.796
19665W        W81328  30.560   6.244   0.284
19666W        W81329   9.285  35.093  12.869
19667W        W81330  10.649  14.642  13.355
19668W        W81331  28.634  30.430  10.444
19669W        W81332  30.487  34.407  14.955
19670W        W81333   4.290  16.567  10.897
19671W        W81334  25.967  34.054   2.803
19672W        W81335  16.622   2.390   4.177
19673W        W81336  10.194  23.223   3.352
19674W        W81337  32.583  38.413   3.697
19675W        W81338  19.771  25.483  14.820
19676W        W81339  42.823  37.073  14.308
19677W        W81340   8.890  16.725   9.995
19678W        W81341  10.726  16.186   4.128
19679W        W81342  24.988  34.393  13.401
19680W        W81343  27.966  34.040   9.993
19681W        W81344  18.158   5.725   4.838
19682W        W81345  40.342  35.000  11.593
19683W        W81346  27.663  43.427   1.274
19684W        W81347  15.265  30.087  10.516
19685W        W81348  30.473  19.685  13.359
19686W        W81349  18.250   9.692   2.299
19687W        W81350   2.318  43.391  14.817
19688W        W81351  27.645  41.877  14.480
19689W        W81352  24.683  30.148   1.349
19690W        W81353  27.180  34.925  10.922
19691W        W81354  39.917  23.080  12.470
19692W        W81355  31.088  14.636   1.443
19693W        W81356  43.449  21.691   2.316
19694W        W81357   8.680  31.149  14.487
19695W        W81358   8.886  17.680   0.760
19696W        W81359  40.831  20.555   3.695
19697W        W81360  26.154  12.311   3.675
19698W        W81361  13.725   1.360   3.339
19699W        W81362  35.594  33.974   0.472
19700W        W81363  23.554  32.502  13.322
19701W        W81364   2.373  22.009   1.426
19702W        W81365  34.402  21.119  12.391
19703W        W81366  34.386  10.655   4.663
19704W        W81367  14.235  11.214   1.721
19705W        W81368   8.845  23.542  12.870
19706W        W81369  22.728  30.947   9.962
19707W        W81370  29.175   6.254   4.785
19708W        W81371   0.416   5.353   4.684
19709W        W81372  43.917  23.100  11.907
19710W        W81373  34.542  26.163   2.408
19711W        W81374  22.640  31.616   2.744
19712W        W81375  10.758  35.104   2.396
19713W        W81376  10.716  26.682  10.594
19714W        W81377  24.511  34.989   3.176
19715W        W81378  42.871   2.453   3.309
19716W        W81379  11.715  36.477   5.736
19717W        W81380  31.566  14.271   5.175
19718W        W81381  39.394  11.631   3.736
19719W        W81382  32.581  34.032   1.909
19720W        W81383  27.560  24.550  13.310
19721W        W81384  24.598   2.778   1.240
19722W        W81385  29.061  13.828  14.907
19723W        W81386  39.427  26.644   0.813
19724W        W81387  25.625  23.025  14.947
19725W        W81388   7.755  11.719   1.868
19726W        W81389  32.403  33.933  12.881
19727W        W81390  24.010  15.271   4.258
19728W        W81391  13.262  27.507  14.485
19729W        W81392  32.085  25.106   3.303
19730W        W81393  11.661  40.476   2.713
19731W        W81394  30.908  36.585  11.071
19732W        W81395  29.018  38.528  10.998
19733W        W81396  17.181  15.298   0.927
19734W        W81397  19.108  33.555   2.780
19735W        W81398  40.543  42.307  11.441
19736W        W81399  43.392  34.948  10.065
19737W        W81400  25.643  32.995  11.080
19738W        W81401  35.951  44.415   2.404
19739W        W81402   6.347   0.440   0.884
19740W        W81403  22.042   7.197  11.516
19741W        W81404   2.239  28.991   0.784
19742W        W81405   8.683   8.737   1.417
19743W        W81406  41.295  16.198  11.494
19744W        W81407  12.131  38.957   0.898
19745W        W81408   1.427  24.539   2.367
19746W        W81409  19.148  40.903   3.293
19747W        W81410  14.707  21.203   3.290
19748W        W81411   4.332  39.052   2.344
19749W        W81412  42.357  17.650  14.816
19750W        W81413  12.229  31.056   0.864
19751W        W81414  23.726  25.161   2.895
19752W        W81415  41.464   9.356  14.961
19753W        W81416  33.494  19.694   2.244
19754W        W81417  25.529   7.191   1.399
19755W        W81418  11.799  11.853  14.352
19756W        W81419  34.579  35.361  11.980
19757W        W81420  31.491  36.491   4.128
19758W        W81421  39.897   9.759  11.931
19759W        W81422   8.713   8.733  10.150
19760W        W81423   9.208   4.735  14.970
19761W        W81424  37.086   2.309   2.318
19762W        W81425  29.444  20.763  13.821
19763W        W81426  18.149   6.282  12.086
19764W        W81427  15.321   1.391   0.251
19765W        W81428  33.489  42.987   1.210
19766W        W81429  17.584  41.530   2.409
19767W        W81430  25.044  14.689   3.383
19768W        W81431  41.351  15.288  13.403
19769W        W81432   7.401  10.798   4.771
19770W        W81433  11.751  20.229   0.279
19771W        W81434  29.102   2.856  12.938
19772W        W81435  31.025  11.640  10.483
19773W        W81436   6.803  27.186  11.006
19774W        W81437   8.664  19.578   2.798
19775W        W81438  22.644  38.009  12.029
19776W        W81439  40.850   0.305  13.962
19777W        W81440  44.403   4.361  14.852
19778W        W81441   5.434  26.591   4.245
19779W        W81442  10.153  39.816  11.096
19780W        W81443  15.808  14.814  13.980
19781W        W81444   8.819  42.010   1.371
19782W        W81445  43.932  17.268   2.183
19783W        W81446  32.942  43.444  11.077
19784W        W81447  18.126  29.550   0.957
19785W        W81448  19.160   3.718  13.878
19786W        W81449   0.350   8.780   5.177
19787W        W81450  37.049  43.837  13.005
19788W        W81451  18.165  35.503   2.829
19789W        W81452  40.428  39.954   3.315
19790W        W81453  32.062  29.669  11.898
19791W        W81454  27.590   9.822  11.029
19792W        W81455  26.693  44.346   1.795
19793W        W81456   1.822  30.499   0.285
19794W        W81457  22.236  35.361  12.467
19795W        W81458  26.559  39.478   9.580
19796W        W81459  25.117  42.975   3.355
19797W        W81460  23.031  40.974   3.695
19798W        W81461   0.940  44.385   1.346
19799W        W81462   9.301   4.308   2.729
19800W        W81463  36.577  17.131   0.272
19801W        W81464   8.662  21.524   1.792
19802W        W81465  43.275   8.794  12.567
19803W        W81466  23.721   4.445  12.552
19804W        W81467  44.777  30.463   0.886
19805W        W81468  44.915  39.443  12.832
19806W        W81469  18.769  14.164  11.536
19807W        W81470  12.256   8.771  13.007
19808W        W81471  11.779  24.047   5.182
19809W        W81472  32.042  22.159  13.025
19810W        W81473  23.525   4.354   0.335
19811W        W81474  28.498  42.827  13.450
19812W        W81475  41.334  31.930  12.989
19813W        W81476   8.377   7.666  10.526
19814W        W81477  23.206  25.513  13.471
19815W        W81478  33.425  16.775  13.469
19816W        W81479  42.370  22.678  10.448
19817W        W81480  28.186  44.770  12.419
19818W        W81481  35.953  18.632   2.773
19819W        W81482   1.771  13.697   4.705
19820W        W81483  20.249  24.714   2.713
19821W        W81484  19.709  40.429  12.523
19822W        W81485   0.799   1.893   3.837
19823W        W81486  15.312  41.461  10.409
19824W        W81487   3.820  16.142  14.994
19825W        W81488   3.758  28.175  14.895
19826W        W81489  25.514  39.531   5.776
19827W        W81490  19.123   7.892   3.844
19828W        W81491   5.841  22.716   1.368
19829W        W81492  34.864  25.039   3.823
19830W        W81493  23.106  10.212  13.064
19831W        W81494  24.993  43.424   1.768
19832W        W81495  20.192  42.283  13.967
19833W        W81496  23.038   8.802   0.385
19834W        W81497   4.212  10.772  11.069
19835W        W81498  21.707   3.421  13.868
19836W        W81499  22.737   0.354  10.138
19837W        W81500  20.741  44.776   0.741
19838W        W81501  26.185  18.107   2.360
19839W        W81502  18.664  38.016  13.985
19840W        W81503  16.609  29.609   0.407
19841W        W81504  33.057  23.216   3.724
19842W        W81505  18.255  24.711  12.863
19843W        W81506   1.269   4.889   4.725
19844W        W81507  31.099  13.639  11.864
19845W        W81508  16.216  34.487  12.849
19846W        W81509  21.708   7.788  14.956
19847W        W81510  11.136  10.265   3.350
19848W        W81511  23.530   1.761   1.372
19849W        W81512  30.581  43.287   2.846
19850W        W81513   0.805  30.035  13.439
19851W        W81514  32.964  12.143  10.926
19852W        W81515  32.094   2.932  11.081
19853W        W81516  37.999  23.516  14.905
19854W        W81517   3.316  34.109   1.361
19855W        W81518  15.616  12.127  11.056
19856W        W81519   5.812  13.235  11.927
19857W        W81520  38.966  38.416  13.928
19858W        W81521   5.751  29.438  13.030
19859W        W81522   1.850  40.489   0.430
19860W        W81523  18.656  13.271  11.030
19861W        W81524  38.384  29.964  12.834
19862W        W81525  31.060  28.030   3.723
19863W        W81526  11.805  25.204   1.366
19864W        W81527  40.938   2.239  11.872
19865W        W81528  32.105   5.764  13.521
19866W        W81529  41.482  39.986  13.891
19867W        W81530  42.368   3.882  13.032
19868W        W81531   1.821  39.510   0.948
19869W        W81532   5.309  22.534  11.934
19870W        W81533  29.661  23.127   2.664
19871W        W81534  23.554   0.884  11.514
19872W        W81535  14.806  24.598   2.869
19873W        W81536  10.273  13.623   2.211
19874W        W81537   8.668  16.568  13.381
19875W        W81538  39.842   5.306   3.777
19876W        W81539  17.306  32.449   0.477
19877W        W81540  19.598  23.154  11.074
19878W        W81541   1.815   9.249   2.381
19879W        W81542  18.748  11.168  14.016
19880W        W81543  11.773  19.088   4.327
19881W        W81544   6.771   5.877  13.918
19882W        W81545  22.614  19.702   5.210
19883W        W81546   8.788  33.008  14.895
19884W        W81547  44.373  35.070   4.194
19885W        W81548  22.012  27.451   4.130
19886W        W81549  28.997  31.572  11.876
19887W        W81550  11.290  43.889   0.940
19888W        W81551  31.130  23.651   3.689
19889W        W81552  14.168  23.156   2.286
19890W        W81553  15.232   5.203  12.424
19891W        W81554  22.536  43.887  14.800
19892W        W81555  32.513  26.179   1.922
19893W        W81556  44.856  36.846  13.530
19894W        W81557  16.791  41.886   0.908
19895W        W81558   2.837  24.100   4.650
19896W        W81559   2.918  38.052  12.504
19897W        W81560   9.311  18.655   2.270
19898W        W81561  19.760   5.420   2.677
19899W        W81562  17.288  24.196  12.024
19900W        W81563  41.497  26.484  10.564
19901W        W81564   6.920  36.974  14.383
19902W        W81565  34.427  42.374  10.979
19903W        W81566  33.566  39.928   2.368
19904W        W81567  30.073   5.818   4.235
19905W        W81568  36.015   2.348   3.196
19906W        W81569  16.733  23.567  14.836
19907W        W81570  41.427  39.318  14.493
19908W        W81571  19.274   7.299   3.737
19909W        W81572  34.514  33.563  10.600
19910W        W81573  39.035  22.580   0.946
19911W        W81574  18.165  19.666   3.842
19912W        W81575   4.419   3.277   4.226
19913W        W81576  37.496  43.828   2.275
19914W        W81577   2.802  18.706   0.422
19915W        W81578  29.039  34.465   2.663
19916W        W81579   3.935  44.006   2.778
19917W        W81580  27.988  41.412   0.338
19918W        W81581  22.605  22.537  11.609
19919W        W81582   3.418   8.205   2.221
19920W        W81583   2.313  30.946  11.094
19921W        W81584  28.053  19.685   4.680
19922W        W81585  44.823  25.060  13.907
19923W        W81586   2.284   1.953  11.101
19924W        W81587  17.186  41.927   1.214
19925W        W81588  28.933  37.440  14.826
19926W        W81589   9.672  28.063   1.702
19927W        W81590  43.900  41.868   0.967
19928W        W81591  39.872  28.468   4.238
19929W        W81592  27.981  20.526   0.819
19930W        W81593  15.294  44.479   4.648
19931W        W81594   5.916  22.724   2.243
19932W        W81595  38.359  40.380   3.801
19933W        W81596  16.269   1.814  12.448
19934W        W81597  40.829   2.344   0.874
19935W        W81598  24.547  37.965   2.713
19936W        W81599  24.982  43.357  13.484
19937W        W81600  20.558  25.173  11.949
19938W        W81601   0.484  36.541  11.445
19939W        W81602  35.542   5.406  12.072
19940W        W81603   4.358  44.918   0.795
19941W        W81604  37.396  40.856  12.528
19942W        W81605   5.410  37.957  12.520
19943W        W81606  27.645  10.284  12.366
19944W        W81607  10.832  42.491  11.108
19945W        W81608  35.027  13.610  12.477
19946W        W81609  10.778   1.838   0.285
19947W        W81610  26.996  25.162   0.353
19948W        W81611   0.289  34.480  12.858
19949W        W81612  33.511  28.134   1.852
19950W        W81613  20.730  20.181   0.729
19951W        W81614  34.075  22.705   3.688
19952W        W81615   1.780   5.235   1.289
19953W        W81616  32.980   2.398  11.912
19954W        W81617  44.400  43.477   3.164
19955W        W81618  34.504  34.100  14.415
19956W        W81619  17.182  43.777   0.812
19957W        W81620  16.296  29.097   1.263
19958W        W81621   6.262   7.287  14.018
19959W        W81622  21.228  27.962   1.296
19960W        W81623  36.841  11.168  14.786
19961W        W81624  44.921  22.619   0.931
19962W        W81625  31.117  23.546   5.287
19963W        W81626  30.941  14.761  14.337
19964W        W81627   2.286  40.000  13.406
19965W        W81628  28.600  27.560  12.859
19966W        W81629  19.631   5.271  11.572
19967W        W81630  36.851  13.128  12.833
19968W        W81631   9.793  36.939  14.968
19969W        W81632   8.366  37.009   1.429
19970W        W81633   0.439  23.103  12.377
19971W        W81634  17.307  41.294  14.409
19972W        W81635   0.942  26.642   2.696
19973W        W81636  35.995  42.936   3.344
19974W        W81637  35.861   2.283  12.394
19975W        W81638   1.314   7.789   5.107
19976W        W81639   7.872   6.214   2.811
19977W        W81640   9.266  42.422  13.493
19978W        W81641   7.751  38.039  13.900
19979W        W81642  36.517  38.438  12.061
19980W        W81643  12.855  42.820   3.743
19981W        W81644  20.644  26.071   0.338
19982W        W81645  43.312  29.155   2.216
19983W        W81646  23.182  15.816   9.992
19984W        W81647  10.243  36.088   1.299
19985W        W81648  27.540  28.173  11.068
19986W        W81649   1.732  14.788   0.962
19987W        W81650  13.792  15.220  12.996
19988W        W81651  36.462  44.852  11.856
19989W        W81652  12.273  11.659   4.769
19990W        W81653   0.452   6.226   3.722
19991W        W81654  44.825  23.505   2.205
19992W        W81655  20.605  35.079  14.353
19993W        W81656  26.019  38.411  12.389
19994W        W81657   2.851   6.318  10.408
19995W        W81658  23.526   9.201  14.497
19996W        W81659  19.196  24.633   3.725
19997W        W81660  23.522  18.630   0.730
19998W        W81661  19.659  13.201   3.309
19999W        W81662   4.226  29.086  13.458
20000W        W81663  35.374  40.982  10.474
20001W        W81664  36.094   8.849  12.368
20002W        W81665  17.205  28.977   2.783
20003W        W81666  20.193  31.520   4.171
20004W        W81667   0.967  34.586  10.533
20005W        W81668   1.264  15.774  13.915
20006W        W81669  27.513   4.841  10.515
20007W        W81670  39.880  33.542  11.031
20008W        W81671  24.570  20.130  11.447
20009W        W81672  14.266  27.112   2.741
20010W        W81673  31.988  28.649  10.950
20011W        W81674  13.278  30.009   0.907
20012W        W81675  18.727  27.491  12.374
20013W        W81676   9.170  12.764  14.941
20014W        W81677   1.753  19.089   4.628
20015W        W81678  23.697   7.890  10.510
20016W        W81679  42.466  39.032   3.773
20017W        W81680  34.419  27.087  12.569
20018W        W81681   9.360  38.552  10.588
20019W        W81682   8.803  36.032  10.997
20020W        W81683   2.229   6.871  11.115
20021W        W81684  24.085   1.467  11.496
20022W        W81685   7.213   3.292  14.828
20023W        W81686  17.792  33.381  10.612
20024W        W81687   9.265   2.797   3.146
20025W        W81688  27.489   2.419  14.358
20026W        W81689   8.791  29.131   4.350
20027W        W81690   3.300  39.456  10.488
20028W        W81691  30.975  42.397  11.961
20029W        W81692   8.392   7.885  13.966
20030W        W81693  14.714  35.374  14.949
20031W        W81694  19.083  11.234   1.820
20032W        W81695   1.409  20.128  10.953
20033W        W81696  24.225  26.493   4.695
20034W        W81697  43.921  27.054  10.892
20035W        W81698  37.951  24.031  14.803
20036W        W81699  36.081  10.772   2.266
20037W        W81700  12.678  40.467   2.813
20038W        W81701   7.737  17.765   2.824
20039W        W81702  11.183  29.118  11.112
20040W        W81703  21.207  15.113   3.172
20041W        W81704   3.276   0.271  14.883
20042W        W81705  17.198   3.383   4.704
20043W        W81706  13.238  21.153  10.133
20044W        W81707  25.112  26.559  13.376
20045W        W81708  12.226  43.912  11.052
20046W        W81709  41.492  24.984  14.811
20047W        W81710   9.727  23.496   1.264
20048W        W81711  38.005  31.018  13.983
20049W        W81712   6.367  40.489   0.789
20050W        W81713  29.009   2.281  13.845
20051W        W81714  43.306  34.508   1.405
20052W        W81715  19.205  13.705  11.483
20053W        W81716  22.603  44.913  10.893
20054W        W81717  40.325  15.296   2.197
20055W        W81718  18.564  11.248  11.412
20056W        W81719  10.822  30.151   1.231
20057W        W81720  41.013  12.755  14.889
20058W        W81721   2.938   8.678   2.311
20059W        W81722   5.711   7.797  14.401
20060W        W81723  23.515  41.014   3.658
20061W        W81724  17.115  34.380   3.326
20062W        W81725  35.458  30.512   2.245
20063W        W81726   9.294  40.369  13.796
20064W        W81727  38.331  36.992  13.506
20065W        W81728  20.124   7.746  10.548
20066W        W81729   9.876   2.251   3.244
20067W        W81730   7.863  11.805  14.785
20068W        W81731   3.321   2.320   4.683
20069W        W81732   1.933   5.367  13.506
20070W        W81733  43.867  14.758   5.165
20071W        W81734  14.787  25.134  11.899
20072W        W81735  18.170  18.684  10.001
20073W        W81736  41.518  18.273   0.813
20074W        W81737  15.737  34.917  11.562
20075W        W81738  28.000  42.310   1.783
20076W        W81739  39.906  16.704  13.483
20077W        W81740  16.712  32.622  10.968
20078W        W81741  33.518  17.779  10.596
20079W        W81742  14.164  19.658  14.382
20080W        W81743  42.423  30.926   0.941
20081W        W81744   4.233  12.203  10.509
20082W        W81745  26.102  41.487   0.362
20083W        W81746  19.626  19.050   2.761
20084W        W81747  20.128  14.215  12.911
20085W        W81748  22.997   8.669  12.963
20086W        W81749   2.744  28.495   0.247
20087W        W81750  14.315  37.531   2.755
20088W        W81751  33.005  20.715  12.472
20089W        W81752  30.531   6.428  12.437
20090W        W81753  40.020   9.730  13.369
20091W        W81754  40.434  14.627  10.956
20092W        W81755   2.828  31.605   3.166
20093W        W81756   3.396  19.570  12.875
20094W        W81757   3.782   2.348   2.868
20095W        W81758  27.025  27.499  11.029
20096W        W81759  16.129   7.359  14.466
20097W        W81760  30.021   7.232   2.306
20098W        W81761   4.315  37.051  11.030
20099W        W81762  25.670  15.198   4.203
20100W        W81763   2.882  23.671  12.521
20101W        W81764  20.168  26.993  14.951
20102W        W81765   6.862  23.714  13.997
20103W        W81766  34.881  13.667  14.329
20104W        W81767   5.929  41.860  12.516
20105W        W81768   7.772   9.254  12.403
20106W        W81769  11.755  34.519   1.897
20107W        W81770   4.718  14.811   3.251
20108W        W81771   5.865  42.365   0.437
20109W        W81772  10.145  13.749  10.425
20110W        W81773  37.405  29.925   2.821
20111W        W81774  23.578  30.589  14.786
20112W        W81775  40.947  11.297  14.440
20113W        W81776  26.574   4.249   4.831
20114W        W81777  38.075  29.668   2.411
20115W        W81778  33.621  25.987  13.904
20116W        W81779  14.628  34.527   4.224
20117W        W81780   6.203  24.171  13.356
20118W        W81781  14.209   6.417   4.244
20119W        W81782  19.130   8.333   4.621
20120W        W81783  10.365  31.041  10.929
20121W        W81784  22.589  42.005   3.761
20122W        W81785  32.937  29.947   3.348
20123W        W81786  37.546  31.451  14.859
20124W        W81787   6.186  26.041   0.425
20125W        W81788  26.998  19.755   5.111
20126W        W81789  38.967   3.314   4.740
20127W        W81790  22.719  31.152  11.513
20128W        W81791   6.726  40.424   3.695
20129W        W81792  13.828  39.414   0.271
20130W        W81793   1.464  42.410  12.972
20131W        W81794  20.131  25.069   1.766
20132W        W81795  14.201   7.758   5.315
20133W        W81796  12.760  20.644  12.092
20134W        W81797   5.789  20.086   1.888
20135W        W81798   1.256  36.011  14.364
20136W        W81799   2.415  30.466   1.794
20137W        W81800  39.524   2.805   4.777
20138W        W81801  18.665   0.309   4.626
20139W        W81802  21.736  25.069   0.755
20140W        W81803  13.149  23.160   0.731
20141W        W81804  18.072  30.101   2.777
20142W        W81805   4.320  39.496   3.672
20143W        W81806  33.601  16.709  10.078
20144W        W81807  28.654  40.473   1.230
20145W        W81808  44.473  14.138  13.445
20146W        W81809  40.819  11.279  11.461
20147W        W81810  13.236   3.948  10.987
20148W        W81811  19.130  13.700  12.034
20149W        W81812  27.544  14.207   4.188
20150W        W81813   7.679  25.055  10.143
20151W        W81814   9.725  42.379  12.889
20152W        W81815   4.415  12.156   3.213
20153W        W81816  22.181   8.403   3.776
20154W        W81817  39.318  17.668   3.799
20155W        W81818  43.442  18.546  14.481
20156W        W81819   0.417  17.632  11.988
20157W        W81820  19.145  17.074   0.250
20158W        W81821  37.470  19.283   1.337
20159W        W81822   2.311  11.647  13.053
20160W        W81823  23.640  20.135  14.366
20161W        W81824  42.343   0.869  11.588
20162W        W81825  11.296  29.462   4.668
20163W        W81826  18.250  19.045  14.793
20164W        W81827  23.619  42.969  14.412
20165W        W81828  39.891  13.683  14.842
20166W        W81829   7.294   0.249  14.868
20167W        W81830  23.058  20.230   0.336
20168W        W81831  28.062  21.603   0.472
20169W        W81832   3.865  30.497   4.736
20170W        W81833  36.405  35.604   2.257
20171W        W81834  41.009  34.097  14.905
20172W        W81835  11.805  23.505  11.117
20173W        W81836  12.822  23.617   0.956
20174W        W81837  41.405  20.564  10.601
20175W        W81838  40.923  43.376   0.370
20176W        W81839  39.024   6.401   5.115
20177W        W81840  39.991   3.748  10.479
20178W        W81841   4.391  12.222   2.291
20179W        W81842  40.892   0.812  11.998
20180W        W81843   2.455  36.939  10.450
20181W        W81844  23.648  15.193  13.308
20182W        W81845  15.717  34.111   1.431
20183W        W81846  14.316  39.315   5.116
20184W        W81847  34.591  20.662   0.918
20185W        W81848  10.371  23.600   2.785
20186W        W81849  16.172  12.254  11.442
20187W        W81850   2.912  31.567   4.271
20188W        W81851  19.542  27.566   2.804
20189W        W81852  30.051   2.460  13.358
20190W        W81853  39.344  15.679   1.358
20191W        W81854   0.381   4.818   1.887
20192W        W81855   2.926  13.175   1.305
20193W        W81856  23.689  39.431  14.976
20194W        W81857   2.872  23.006  10.499
20195W        W81858  18.694  39.064   2.687
20196W        W81859  13.116   6.340  12.866
20197W        W81860  37.339  19.540   3.276
20198W        W81861  25.109  12.856   2.737
20199W        W81862   9.361  10.681   3.845
20200W        W81863  12.706  18.127   0.386
20201W        W81864   0.261  28.473  12.032
20202W        W81865   1.399   7.875   1.244
20203W        W81866  35.378  16.702  12.935
20204W        W81867  44.764  38.381   1.393
20205W        W81868   7.212  21.211  13.406
20206W        W81869  20.536  15.682  13.472
20207W        W81870  38.993  22.250  12.057
20208W        W81871  29.572  20.264  13.000
20209W        W81872  22.739  40.855   1.379
20210W        W81873  39.875  37.889  11.128
20211W        W81874   5.731  15.744  14.884
20212W        W81875  40.807  28.610  13.385
20213W        W81876  41.429  42.787  14.412
20214W        W81877  12.235  17.709   0.470
20215W        W81878  23.056   2.816  12.550
20216W        W81879   4.297  32.083   2.351
20217W        W81880   7.222  29.605   0.807
20218W        W81881  32.915  12.264  14.784
20219W        W81882  20.718  23.180   1.263
20220W        W81883   3.846  28.036   4.634
20221W        W81884   9.741  31.069   0.287
20222W        W81885   4.292  38.878   3.369
20223W        W81886  12.206   9.689  10.905
20224W        W81887  16.750   8.341  11.943
20225W        W81888  30.544   8.873  13.952
20226W        W81889  10.667  10.272  12.978
20227W        W81890  27.082  23.076   3.752
20228W        W81891  19.660  11.320  14.840
20229W        W81892  34.485  17.125  11.395
20230W        W81893  41.823  34.875   3.797
20231W        W81894  38.879  23.229  14.934
20232W        W81895  15.247  10.661   4.354
20233W        W81896  13.671  27.973   3.630
20234W        W81897   4.892   0.344   2.884
20235W        W81898   0.333  26.011   3.356
20236W        W81899   1.253  38.461  14.813
20237W        W81900  10.836  38.427  13.547
20238W        W81901   0.451  31.607   3.701
20239W        W81902  27.025  18.554  10.965
20240W        W81903   9.883  42.945   3.764
20241W        W81904  26.111   9.817  10.547
20242W        W81905  27.126   7.333   4.671
20243W        W81906   7.890  17.606  11.931
20244W        W81907  37.928  17.135   0.470
20245W        W81908   0.405  31.939   0.266
20246W        W81909  17.085  36.430  13.373
20247W        W81910   3.307  10.869  14.898
20248W        W81911   7.709  38.891  13.372
20249W        W81912  23.197  12.744   3.226
20250W        W81913   0.807  33.950  11.494
20251W        W81914   8.890  32.113   5.116
20252W        W81915  36.007  39.414   2.287
20253W        W81916  35.394  23.113   1.337
20254W        W81917   7.912  10.200  14.915
20255W        W81918  23.682   7.793  10.905
20256W        W81919   5.756  19.728  10.981
20257W        W81920   0.869  10.864  11.888
20258W        W81921  22.222   7.836  14.783
20259W        W81922  22.747  16.629   2.680
20260W        W81923   5.824  42.461  10.456
20261W        W81924  34.921  39.480   1.726
20262W        W81925  43.942   8.712  12.544
20263W        W81926  16.707  30.560  11.601
20264W        W81927  40.497   5.853  13.891
20265W        W81928   3.258  10.265   2.673
20266W        W81929  15.148  26.691   0.390
20267W        W81930   9.803  16.742  14.832
20268W        W81931  18.092   9.883   3.712
20269W        W81932  41.881  39.903   3.786
20270W        W81933  13.330  11.267   4.788
20271W        W81934  10.774  44.827   2.416
20272W        W81935   3.376  32.523   5.233
20273W        W81936  18.734   4.812   3.641
20274W        W81937  16.155  20.195   0.324
20275W        W81938  36.474  25.058  10.577
20276W        W81939  11.232   5.436   1.234
20277W        W81940  27.996  29.958   4.740
20278W        W81941   4.373  35.557  11.475
20279W        W81942   3.754  29.466   0.765
20280W        W81943  24.148   8.847   1.933
20281W        W81944   6.245   2.926   0.390
20282W        W81945   7.417  32.620  11.879
20283W        W81946  27.052  14.641   1.808
20284W        W81947  15.687  36.055  11.081
20285W        W81948  40.328  24.145  13.861
20286W        W81949  31.027  39.447   2.684
20287W        W81950  44.284   9.761   2.869
20288W        W81951  28.035   1.859  14.419
20289W        W81952  19.705  22.096   2.873
20290W        W81953   8.211  40.488  12.855
20291W        W81954  31.912  38.355   4.303
20292W        W81955  20.269  21.625   0.788
20293W        W81956   1.873  19.142   2.857
20294W        W81957   8.787  22.675  14.912
20295W        W81958  10.646  36.968   1.450
20296W        W81959  16.201  23.655   4.156
20297W        W81960  14.773  12.229  14.323
20298W        W81961  24.042  43.849  10.490
20299W        W81962   1.298  30.018  11.090
20300W        W81963  37.973  13.120  10.157
20301W        W81964  20.564  14.796  12.940
20302W        W81965  19.556  26.988  10.435
20303W        W81966  23.676  10.317  11.049
20304W        W81967  24.090  44.862   4.834
20305W        W81968  17.743  20.248  12.485
20306W        W81969  22.995   4.286   1.705
20307W        W81970  40.320  40.013   4.658
20308W        W81971  16.099  24.127   0.858
20309W        W81972  42.900  26.641   1.273
20310W        W81973  43.450  28.638   3.702
20311W        W81974   0.464  41.993  13.434
20312W        W81975  11.219  21.110  14.838
20313W        W81976  25.543  14.809   0.425
20314W        W81977  37.408   7.678   0.824
20315W        W81978  26.630  38.825  14.509
20316W        W81979  23.557  15.705  12.028
20317W        W81980  30.105   7.903   1.365
20318W        W81981  27.024  29.484  14.414
20319W        W81982  35.510   8.836  12.425
20320W        W81983  16.576  32.932  12.519
20321W        W81984  11.697  14.816   1.375
20322W        W81985   8.838  32.891   2.671
20323W        W81986   8.684  21.159  14.811
20324W        W81987  43.345  17.581  13.372
20325W        W81988  27.519  28.622  12.007
20326W        W81989  23.576  14.181   2.741
20327W        W81990  33.617   9.331  10.960
20328W        W81991  33.381  18.098  13.334
20329W        W81992  19.176   8.263  11.393
20330W        W81993  33.068   1.365   3.189
20331W        W81994  30.557   7.701  12.934
20332W        W81995  30.488  16.609  13.814
20333W        W81996  10.231   5.881   5.185
20334W        W81997   5.345  12.310  14.799
20335W        W81998  39.823   5.918  12.009
20336W        W81999  37.490  17.129   1.215
20337W        W82000  13.282  13.114   0.454
20338W        W82001  26.065   9.718   4.120
20339W        W82002  35.405  15.692  11.095
20340W        W82003  15.108  18.604   3.343
20341W        W82004  39.814  38.433   2.369
20342W        W82005  38.348  10.144  11.572
20343W        W82006  32.495   7.246   0.946
20344W        W82007  13.195  38.969  14.383
20345W        W82008   2.348   2.312   3.752
20346W        W82009  40.515  42.022   4.782
20347W        W82010  29.478   1.956  14.862
20348W        W82011  20.087   2.778  12.032
20349W        W82012   4.272   3.251  14.307
20350W        W82013  14.217  27.542   2.759
20351W        W82014  10.322  14.690   0.774
20352W        W82015  30.469  25.152  12.987
20353W        W82016   3.263   2.823  13.912
20354W        W82017  22.009  19.622   3.380
20355W        W82018  36.534  35.375  12.521
20356W        W82019  32.035  40.912  12.442
20357W        W82020  18.144   4.361   4.129
20358W        W82021  37.431  36.567  10.454
20359W        W82022   6.211  22.098   3.188
20360W        W82023  29.014  36.051   3.656
20361W        W82024  41.487  13.258  13.846
20362W        W82025   0.885  11.228  10.635
20363W        W82026  21.144  14.785   2.408
20364W        W82027  40.487  30.498   2.808
20365W        W82028  21.130   3.764  10.488
20366W        W82029  29.605  22.500   2.737
20367W        W82030  12.734  43.894   1.732
20368W        W82031  22.040  15.643  12.969
20369W        W82032  26.590  41.372  12.039
20370W        W82033  12.790   3.898  11.594
20371W        W82034  25.185  35.903   3.171
20372W        W82035   4.311  42.295  14.393
20373W        W82036  37.428  19.616  13.791
20374W        W82037  13.325  31.403  14.461
20375W        W82038  26.201  20.115  10.424
20376W        W82039  32.595  10.324   3.846
20377W        W82040  40.832  27.625  10.603
20378W        W82041  13.795  30.627   0.384
20379W        W82042  12.733  39.856  14.879
20380W        W82043   7.250  13.737   2.209
20381W        W82044  15.807  17.279   5.232
20382W        W82045  24.230  33.424   3.350
20383W        W82046  24.492  18.288  13.343
20384W        W82047  13.660  37.355  12.923
20385W        W82048   8.325   4.290   0.439
20386W        W82049  12.210  34.914   0.953
20387W        W82050  23.719  20.039   0.390
20388W        W82051  34.501  12.147   0.245
20389W        W82052   6.917  43.832   0.769
20390W        W82053  12.767  14.119  11.914
20391W        W82054  12.268  15.712   4.615
20392W        W82055  44.449  40.369   3.764
20393W        W82056  36.378  40.807   0.484
20394W        W82057  16.289  30.629  11.482
20395W        W82058  17.133   5.783   1.348
20396W        W82059  25.511  26.601   4.730
20397W        W82060   5.406   1.482   4.223
20398W        W82061   3.714  19.561   1.308
20399W        W82062  43.374  19.177   3.674
20400W        W82063  39.064   1.454  12.452
20401W        W82064  27.979   3.223  10.580
20402W        W82065  15.749   5.797  13.956
20403W        W82066  11.223   3.818  13.313
20404W        W82067  32.091  36.910   3.189
20405W        W82068   4.847  21.732  12.078
20406W        W82069  17.771  42.995   2.254
20407W        W82070  27.642  41.023  13.010
20408W        W82071  44.985  16.192   2.258
20409W        W82072  22.672  36.988   4.260
20410W        W82073  33.424  36.387  14.787
20411W        W82074  21.558  10.870   1.360
20412W        W82075  31.981  12.690  12.504
20413W        W82076   2.371  34.502   3.342
20414W        W82077  34.402  32.611  12.042
20415W        W82078  27.108  25.981  12.894
20416W        W82079  13.742  38.895   3.639
20417W        W82080   5.392  32.632  13.498
20418W        W82081  20.250  33.554  10.531
20419W        W82082  44.998  25.561   4.792
20420W        W82083   6.768  30.908  11.379
20421W        W82084  41.395  22.172   2.817
20422W        W82085   5.795  10.707  14.785
20423W        W82086  20.205  36.860   0.354
20424W        W82087  32.451  19.660   3.782
20425W        W82088  43.995   5.735  13.895
20426W        W82089  28.948  11.667  12.867
20427W        W82090   8.764   6.880  12.440
20428W        W82091  18.611  34.479   2.229
20429W        W82092  44.816   8.715   0.427
20430W        W82093  39.013  11.289  13.943
20431W        W82094  31.493  19.115  11.990
20432W        W82095  24.139  20.667   2.211
20433W        W82096   1.824  33.059   3.727
20434W        W82097  40.351  31.590  13.863
20435W        W82098   7.894  43.315   4.123
20436W        W82099   1.284  29.149   0.332
20437W        W82100  10.802  39.373   3.652
20438W        W82101  39.026  30.440  14.862
20439W        W82102  19.111  25.154   0.876
20440W        W82103   0.404  22.630   4.340
20441W        W82104  10.657  28.061  12.927
20442W        W82105  15.815  31.923  14.909
20443W        W82106  35.939  43.877   0.841
20444W        W82107  29.115  38.385  13.867
20445W        W82108   6.782  33.094  13.856
20446W        W82109  38.378  15.750   4.234
20447W        W82110  12.814  29.978   1.868
20448W        W82111  23.048  38.519  11.000
20449W        W82112   5.428  23.188   1.244
20450W        W82113  12.669   7.271   0.366
20451W        W82114  29.077  36.546  13.900
20452W        W82115  36.871  10.348  13.057
20453W        W82116  44.861   4.877  10.568
20454W        W82117   1.350  41.033   0.323
20455W        W82118  40.466   6.310  14.963
20456W        W82119  43.916   6.816  13.904
20457W        W82120   2.744  44.459  14.437
20458W        W82121  16.623   0.315  14.430
20459W        W82122  44.857  11.707  12.007
20460W        W82123  20.134  18.577  11.464
20461W        W82124   7.406  30.020   0.302
20462W        W82125   7.752  25.478   4.715
20463W        W82126  27.056  18.561   0.950
20464W        W82127  11.783   6.806  11.894
20465W        W82128   9.378  11.192  12.913
20466W        W82129  25.506  14.667   4.616
20467W        W82130  20.260  15.277   3.806
20468W        W82131  17.781  20.156  13.886
20469W        W82132  24.682  24.483   0.367
20470W        W82133   1.266  27.681   2.350
20471W        W82134  42.892  14.232   2.325
20472W        W82135  31.594  40.519   4.309
20473W        W82136  10.773  14.700   2.854
20474W        W82137  43.402  23.164   4.206
20475W        W82138  11.250  20.549   4.337
20476W        W82139  25.488  14.671   3.780
20477W        W82140   4.865  27.608  13.023
20478W        W82141  36.479  25.710   3.158
20479W        W82142  29.997  13.308   4.808
20480W        W82143  44.816  28.052   1.881
20481W        W82144  14.647  37.511   9.605
20482W        W82145  11.342  10.203   1.263
20483W        W82146  42.947  34.526   3.315
20484W        W82147   1.733  16.182  13.794
20485W        W82148  33.108  25.983  14.765
20486W        W82149   0.341  20.528   2.179
20487W        W82150  15.658   9.834   2.771
20488W        W82151  44.830  13.713  14.964
20489W        W82152   8.795  36.058  14.399
20490W        W82153  16.805  29.103  14.305
20491W        W82154  23.598  27.005   2.380
20492W        W82155  43.781   7.854   2.284
20493W        W82156  27.074  22.174  12.455
20494W        W82157  33.031  42.402  10.509
20495W        W82158   6.330  36.992   0.843
20496W        W82159  43.311  37.550   4.762
20497W        W82160  23.042  15.236  12.057
20498W        W82161  21.583  10.270  10.542
20499W        W82162  16.730  32.548   3.783
20500W        W82163   6.683  30.119  13.387
20501W        W82164  29.641  13.120  11.513
20502W        W82165  16.104  42.816   3.869
20503W        W82166   9.188   7.284   0.359
20504W        W82167   1.435   5.267  13.412
20505W        W82168   7.735  22.034   1.318
20506W        W82169  15.700   7.195   3.205
20507W        W82170  41.965  30.937  11.021
20508W        W82171  14.113  24.204   1.440
20509W        W82172  44.500   7.374   3.255
20510W        W82173  25.628  44.865   2.224
20511W        W82174   3.821  25.494   3.741
20512W        W82175  10.255  17.645  14.348
20513W        W82176  40.965  38.366   4.665
20514W        W82177   1.382  11.659  14.028
20515W        W82178  30.466  38.919   0.882
20516W        W82179   1.297  15.183  13.932
20517W        W82180  17.183  40.431  12.982
20518W        W82181  22.736  36.956  10.589
20519W        W82182  27.940  23.205  14.511
20520W        W82183   7.879  36.527   2.345
20521W        W82184  30.121  13.664  10.455
20522W        W82185  43.844  31.108   0.332
20523W        W82186  25.201  29.047   0.939
20524W        W82187  21.086  27.180  14.934
20525W        W82188  33.553  29.633   3.171
20526W        W82189  29.482  44.353  14.456
20527W        W82190  41.929  39.868   2.676
20528W        W82191   2.321  21.071   4.772
20529W        W82192   1.339   7.233   0.446
20530W        W82193  31.445  11.647  14.338
20531W        W82194   2.374  40.847  11.382
20532W        W82195  41.991  23.226   0.369
20533W        W82196  36.483  32.575   2.311
20534W        W82197  36.918  18.673   4.632
20535W        W82198   7.828  31.993   0.431
20536W        W82199  37.900  23.192  13.804
20537W        W82200  34.478  37.394   4.211
20538W        W82201   6.918  41.951  10.939
20539W        W82202   8.314   1.350   2.322
20540W        W82203  34.430   9.735   4.118
20541W        W82204  22.218  37.926  13.477
20542W        W82205   5.906  30.062   1.446
20543W        W82206  32.130  22.150  14.845
20544W        W82207  15.226  21.131  11.438
20545W        W82208  28.667   4.410  11.081
20546W        W82209  15.202  44.778   2.357
20547W        W82210  41.827   6.827   4.731
20548W        W82211  10.764   5.222  11.451
20549W        W82212  13.633  38.340  10.521
20550W        W82213  12.789  12.169  14.939
20551W        W82214  43.499   8.350  11.388
20552W        W82215  34.102  17.225   4.313
20553W        W82216  10.873  27.032  14.789
20554W        W82217  33.058  44.917   4.698
20555W        W82218  29.462  28.116   4.668
20556W        W82219   2.957  32.068  11.504
20557W        W82220  25.029  33.525  14.787
20558W        W82221   4.332  41.853  13.816
20559W        W82222  15.621  33.600   3.337
20560W        W82223   7.673  41.295   3.344
20561W        W82224  36.515  39.913  10.110
20562W        W82225  33.918   4.228   0.479
20563W        W82226   0.854  17.086  14.453
20564W        W82227  28.664  12.700  11.054
20565W        W82228  17.755  39.423  11.898
20566W        W82229   0.397  32.111   1.242
20567W        W82230   2.470   4.876   5.322
20568W        W82231  35.895   6.854  14.973
20569W        W82232  28.165  18.065  11.032
20570W        W82233  44.786  32.470   3.826
20571W        W82234  21.141   9.271   1.337
20572W        W82235  32.135   7.198  10.947
20573W        W82236  26.007   5.414  11.108
20574W        W82237   7.411  12.143   2.804
20575W        W82238  13.777  30.514   3.849
20576W        W82239  29.625  14.220  11.491
20577W        W82240  42.312  37.401  12.824
20578W        W82241  17.621  38.832  13.856
20579W        W82242  10.376   1.771   3.765
20580W        W82243  33.064  42.999  14.300
20581W        W82244  34.875  30.141  13.825
20582W        W82245  44.352  31.899   3.689
20583W        W82246  32.391  34.491  11.077
20584W        W82247  21.652  39.054   0.742
20585W        W82248  34.384   1.848  10.504
20586W        W82249   6.364  34.920   4.655
20587W        W82250  21.536  35.508  14.838
20588W        W82251  26.465   7.407   3.192
20589W        W82252   4.356   6.236  13.538
20590W        W82253  41.787  30.609   3.694
20591W        W82254  25.075  21.241   1.383
20592W        W82255  17.065   6.353  11.469
20593W        W82256   8.707   5.778  12.999
20594W        W82257   5.252  32.128   2.222
20595W        W82258  35.458  26.667   2.332
20596W        W82259  30.054  43.342   0.828
20597W        W82260  35.004  14.253  14.296
20598W        W82261  14.750  31.599   2.753
20599W        W82262  18.123  44.425  10.438
20600W        W82263  43.870  39.408   3.686
20601W        W82264  19.686  32.462   2.801
20602W        W82265  11.172   4.852  14.371
20603W        W82266  33.939  40.936  12.827
20604W        W82267  40.408   4.849  13.517
20605W        W82268  42.963  17.069   0.382
20606W        W82269  37.444  29.048  13.969
20607W        W82270  39.913  25.061   2.677
20608W        W82271  15.756  10.690   4.711
20609W        W82272  32.100   7.731  12.341
20610W        W82273   4.403  42.923  14.505
20611W        W82274   2.264  11.685   3.645
20612W        W82275   4.710   5.850  13.466
20613W        W82276  29.125  39.008   2.333
20614W        W82277   7.848  23.076  12.566
20615W        W82278  37.443   7.765   9.489
20616W        W82279  13.220  29.499  13.429
20617W        W82280   8.883  21.587  12.395
20618W        W82281   8.694   9.309   0.908
20619W        W82282  15.600  34.872   2.217
20620W        W82283  43.513  17.184  14.433
20621W        W82284  14.335   5.860   3.735
20622W        W82285  14.245  22.087  13.324
20623W        W82286  24.499   9.180  14.377
20624W        W82287  24.689  37.916  14.974
20625W        W82288   1.765  14.196   2.792
20626W        W82289  28.125  42.898   2.882
20627W        W82290  16.718  24.601  12.897
20628W        W82291  23.206  33.954   3.237
20629W        W82292  34.520  24.203   4.265
20630W        W82293  11.766   2.249   4.320
20631W        W82294  23.636  43.955   4.750
20632W        W82295   8.754  14.115   1.398
20633W        W82296  26.696  33.387  10.994
20634W        W82297  42.020  24.197   0.386
20635W        W82298  12.695   6.298  12.995
20636W        W82299  22.022  20.591  11.406
20637W        W82300  25.156  43.863   0.308
20638W        W82301   6.239  38.840  12.345
20639W        W82302  13.609  32.494  13.539
20640W        W82303   1.943  42.833   2.293
20641W        W82304  37.084  22.115   0.779
20642W        W82305   0.936  41.405   0.855
20643W        W82306  37.488  33.461   0.894
20644W        W82307  40.936  36.420   0.962
20645W        W82308  18.560   1.932   4.838
20646W        W82309  23.614   0.982   0.442
20647W        W82310  16.100   8.298   0.745
20648W        W82311   6.795  28.059  12.451
20649W        W82312  33.883  11.805  14.413
20650W        W82313  16.737  33.019   2.317
20651W        W82314  24.597  39.826  11.053
20652W        W82315  39.328   2.464  11.555
20653W        W82316  27.562  15.723   2.360
20654W        W82317   2.865  12.816   2.236
20655W        W82318  17.598  44.324   3.731
20656W        W82319   5.875  14.647   4.149
20657W        W82320  37.484  16.721  10.939
20658W        W82321  40.819  41.900   1.896
20659W        W82322  25.057  22.207   1.696
20660W        W82323  11.795  24.160  11.940
20661W        W82324  41.530  28.011  13.327
20662W        W82325  30.645  20.626   1.408
20663W        W82326  40.964  37.365   2.850
20664W        W82327  33.950   4.757  11.476
20665W        W82328   1.245   2.445  14.286
20666W        W82329  14.710  27.451  10.445
20667W        W82330   2.436  11.365   1.777
20668W        W82331  18.252  31.124  11.958
20669W        W82332  29.128  37.526   4.796
20670W        W82333  43.354  16.796   3.838
20671W        W82334  24.681  10.296  11.524
20672W        W82335  11.188   4.227  13.494
20673W        W82336  13.729   0.935  11.457
20674W        W82337  25.644  13.320   1.917
20675W        W82338   4.845  44.505  13.839
20676W        W82339  11.193  44.864  10.958
20677W        W82340  22.552  11.643   3.265
20678W        W82341  41.857  41.022  12.828
20679W        W82342  27.963  37.438   4.191
20680W        W82343  25.191  30.118   3.216
20681W        W82344  28.169  10.635   1.780
20682W        W82345  29.056  10.688  12.046
20683W        W82346   9.847  19.759   4.604
20684W        W82347   6.197   7.390   4.777
20685W        W82348   8.828  10.151  12.560
20686W        W82349  33.902   1.252   3.246
20687W        W82350  43.997  17.177   9.458
20688W        W82351  26.612  29.559  13.546
20689W        W82352   4.778  10.177   3.724
20690W        W82353  11.754  38.956  10.507
20691W        W82354   2.395  43.802   1.440
20692W        W82355  22.037  10.162  14.842
20693W        W82356  30.627  28.027  10.635
20694W        W82357   4.371  11.352   1.923
20695W        W82358   1.254  26.595   1.433
20696W        W82359  19.775  44.505  14.959
20697W        W82360   5.869   7.766   4.732
20698W        W82361  42.960  25.084   4.685
20699W        W82362   3.797  15.175   4.603
20700W        W82363  10.684  40.817   4.812
20701W        W82364  24.519  36.454   0.267
20702W        W82365  30.621  34.056  13.494
20703W        W82366  40.943   9.841  13.913
20704W        W82367  44.806  21.659   2.848
20705W        W82368  37.553  41.420   9.977
20706W        W82369  20.175  22.585  12.047
20707W        W82370   3.897  44.485   0.736
20708W        W82371  17.197  40.834  10.503
20709W        W82372  29.650   0.743  10.476
20710W        W82373  36.536   8.220  11.408
20711W        W82374  31.613  31.041  10.540
20712W        W82375  31.071  24.484  11.922
20713W        W82376   9.672  23.102   2.207
20714W        W82377   4.699  44.851  14.848
20715W        W82378  25.675  31.628   1.394
20716W        W82379   2.387  19.563  11.577
20717W        W82380  35.989   9.685   2.865
20718W        W82381  20.547   4.387  13.390
20719W        W82382  40.890  11.164  13.866
20720W        W82383  25.126  34.434   0.260
20721W        W82384  41.943  27.535  13.409
20722W        W82385   4.833  40.027  12.006
20723W        W82386  16.685   0.979  14.498
20724W        W82387   4.756  20.183  14.319
20725W        W82388  15.638  41.484   0.315
20726W        W82389  31.901   5.906   0.783
20727W        W82390  26.692   3.373  11.533
20728W        W82391  42.292  40.426  13.862
20729W        W82392  44.889  31.974   2.384
20730W        W82393  34.948  27.680  13.435
20731W        W82394  31.146  44.375   1.751
20732W        W82395   8.869  44.787  10.462
20733W        W82396  18.266  27.977  11.926
20734W        W82397  13.652  37.572  14.294
20735W        W82398  36.845   9.794  10.487
20736W        W82399   7.683  14.737   1.359
20737W        W82400  22.682  44.984  11.604
20738W        W82401  18.686  34.121  10.890
20739W        W82402   0.276  15.649   3.357
20740W        W82403  17.559   9.305  12.461
20741W        W82404  37.031  15.740   3.693
20742W        W82405   1.748  10.729  14.495
20743W        W82406  42.963  28.571  11.983
20744W        W82407  41.921  38.499  11.526
20745W        W82408  23.180  38.557   0.277
20746W        W82409  44.483  22.715   0.772
20747W        W82410   0.861  31.911   3.681
20748W        W82411  43.926  41.339  13.547
20749W        W82412  14.197  29.652   0.792
20750W        W82413  10.739  36.907   1.728
20751W        W82414  26.691  17.233  13.859
20752W        W82415  19.250  33.589  12.348
20753W        W82416  25.189   0.827  14.759
20754W        W82417  26.508  31.431   1.348
20755W        W82418  13.284  11.829  14.999
20756W        W82419   3.363   8.229  13.841
20757W        W82420  42.858  11.737  12.376
20758W        W82421   8.859  23.063  14.384
20759W        W82422  34.867  39.866  11.557
20760W        W82423   1.797  13.657  11.028
20761W        W82424  26.044  28.679  14.966
20762W        W82425  33.979  31.118   4.736
20763W        W82426   1.337  24.982  11.422
20764W        W82427   2.723   4.805   0.320
20765W        W82428  17.749  43.840   4.177
20766W        W82429  23.000  30.487   2.773
20767W        W82430  25.073  28.143  11.042
20768W        W82431  35.437  44.924  14.937
20769W        W82432  22.583  26.020   0.314
20770W        W82433   0.850  23.239   1.924
20771W        W82434  34.439  31.472   2.401
20772W        W82435   6.913  24.134   3.221
20773W        W82436  10.831   7.243   1.792
20774W        W82437  16.195  15.294  11.405
20775W        W82438  22.042   1.459   5.667
20776W        W82439   5.207  36.065   2.270
20777W        W82440  10.196  35.453   4.813
20778W        W82441  24.560   3.759   3.189
20779W        W82442  34.600   0.355   1.450
20780W        W82443  34.395   0.962  12.443
20781W        W82444  24.490  24.666   9.542
20782W        W82445  20.696  16.197  11.423
20783W        W82446  14.745  15.182  14.958
20784W        W82447  44.308  33.915   0.417
20785W        W82448  28.567  30.617   4.768
20786W        W82449  24.177   9.824   1.404
20787W        W82450  34.490   1.866   0.939
20788W        W82451  14.590   0.364   1.325
20789W        W82452   8.669  19.260   1.870
20790W        W82453   6.681  42.872  11.571
20791W        W82454  10.193   4.916   1.294
20792W        W82455   3.276  33.099  11.094
20793W        W82456  14.222  39.377  13.515
20794W        W82457  26.587  35.465  10.920
20795W        W82458  39.984   1.753  14.853
20796W        W82459   0.416  37.551  13.365
20797W        W82460  14.731  17.637  10.438
20798W        W82461  24.584  31.608   4.339
20799W        W82462   4.247  20.762   2.281
20800W        W82463   1.960  26.653   2.888
20801W        W82464  41.382  24.154  10.627
20802W        W82465  38.978  38.507  14.973
20803W        W82466  31.056  40.518  11.957
20804W        W82467  36.031  37.433  14.308
20805W        W82468   3.954  21.097  14.843
20806W        W82469  29.437  21.202   0.904
20807W        W82470  13.767  12.210   3.805
20808W        W82471  18.548  39.335  13.537
20809W        W82472  16.092  37.579   2.334
20810W        W82473  29.160  26.494   4.115
20811W        W82474  31.445   7.852   4.799
20812W        W82475   5.219  12.798  13.900
20813W        W82476  39.950   3.252  14.782
20814W        W82477  13.134  21.516  11.098
20815W        W82478  28.534  30.946   2.232
20816W        W82479  21.580  27.125  13.937
20817W        W82480  43.513   4.265  10.573
20818W        W82481   2.312  31.484  11.036
20819W        W82482  43.914  42.363   2.404
20820W        W82483   1.867  15.812  13.860
20821W        W82484  31.586  40.330  14.456
20822W        W82485   0.945  24.607  12.971
20823W        W82486  21.051   9.395  11.613
20824W        W82487  18.165  17.794   3.850
20825W        W82488   7.854  42.511   3.330
20826W        W82489  33.576  10.256   1.348
20827W        W82490  24.699   8.178   3.264
20828W        W82491   2.812   7.350   0.936
20829W        W82492  21.549  43.516   4.682
20830W        W82493  17.721  34.409  12.009
20831W        W82494  10.334  40.848   4.717
20832W        W82495  11.173  36.869   9.999
20833W        W82496  29.972  33.090   1.931
20834W        W82497  20.101  14.757   4.352
20835W        W82498  15.322  33.533  14.781
20836W        W82499   4.218   4.790   0.268
20837W        W82500  29.607   6.248   4.321
20838W        W82501  40.984  33.104  11.449
20839W        W82502  13.842  43.342   2.196
20840W        W82503  30.980  41.457  12.395
20841W        W82504  42.355  34.980  10.419
20842W        W82505  13.736  25.010  12.969
20843W        W82506  40.505   0.913  14.368
20844W        W82507  41.977  20.206   4.743
20845W        W82508  24.598   9.163   0.800
20846W        W82509  16.675  35.427  12.548
20847W        W82510   4.208  21.049  11.414
20848W        W82511   0.413  37.838   2.209
20849W        W82512  16.104   0.797  11.929
20850W        W82513  29.499  31.425   4.772
20851W        W82514  36.916   2.892   2.400
20852W        W82515  19.240   5.847   1.839
20853W        W82516  44.007  40.469   0.735
20854W        W82517   8.346  14.183  12.396
20855W        W82518  36.910  16.312  12.825
20856W        W82519  42.015  28.004   3.768
20857W        W82520  34.885  21.570   4.318
20858W        W82521  35.394  25.186  14.847
20859W        W82522   4.299  32.494  13.808
20860W        W82523  24.093  16.280  14.453
20861W        W82524  43.366  37.354  14.859
20862W        W82525  18.110   0.372  12.018
20863W        W82526  43.499  34.075   4.240
20864W        W82527  19.112  12.686  12.557
20865W        W82528  30.538  32.632  12.554
20866W        W82529   5.733  14.599   1.371
20867W        W82530   0.817  37.491   4.690
20868W        W82531  16.164  18.139  13.500
20869W        W82532  34.551  11.687  12.085
20870W        W82533   0.776  14.148   1.906
20871W        W82534  40.834   2.892   3.642
20872W        W82535  31.044  32.463   0.442
20873W        W82536  36.027  13.803   0.266
20874W        W82537   6.331  31.992   2.275
20875W        W82538   3.322  32.022  14.026
20876W        W82539  33.026   1.970  14.910
20877W        W82540   9.757  42.941   1.386
20878W        W82541  37.510  24.597   0.421
20879W        W82542  42.447   1.433  10.994
20880W        W82543  19.058  33.999   3.252
20881W        W82544  37.025  42.472   3.163
20882W        W82545  31.512  24.009   4.651
20883W        W82546   1.349  10.169   4.616
20884W        W82547   4.735  21.084  14.368
20885W        W82548  19.258  40.049   2.864
20886W        W82549  36.845  22.713  11.870
20887W        W82550   0.329  20.711  13.816
20888W        W82551   3.278   1.381   0.394
20889W        W82552  39.856  28.115  14.477
20890W        W82553  23.661  12.625   2.398
20891W        W82554  19.147   4.409  11.447
20892W        W82555  42.888  31.631  14.879
20893W        W82556  15.237   5.337   1.807
20894W        W82557  17.574  29.987  10.919
20895W        W82558   7.799   1.267  13.814
20896W        W82559  30.633  22.534  10.964
20897W        W82560  42.992   2.891   4.722
20898W        W82561   0.983  41.456  10.158
20899W        W82562  25.980  41.363  10.101
20900W        W82563  30.126  27.139   0.428
20901W        W82564   6.191  42.925   2.826
20902W        W82565  25.701  33.115   3.173
20903W        W82566  20.128  17.221  13.467
20904W        W82567  21.195  34.405   4.646
20905W        W82568  15.159  25.695   0.838
20906W        W82569  15.670   0.466   2.196
20907W        W82570  44.405  35.359  12.007
20908W        W82571  24.704  28.628   0.301
20909W        W82572  29.528  16.192   4.693
20910W        W82573   3.300  43.827  11.599
20911W        W82574  34.583   2.855  14.503
20912W        W82575  36.362   4.391  10.478
20913W        W82576  23.077  11.697   2.323
20914W        W82577   2.962  27.059  13.019
20915W        W82578  31.450   4.703  10.017
20916W        W82579   9.220   1.366  13.002
20917W        W82580  21.186  29.476  11.539
20918W        W82581  42.849  17.704   0.476
20919W        W82582  43.273  10.230  12.417
20920W        W82583  28.543   0.795   2.901
20921W        W82584   1.912  25.700  12.373
20922W        W82585  41.400  10.362   4.274
20923W        W82586  33.985  21.133   2.269
20924W        W82587  18.102  14.140   0.405
20925W        W82588   3.757   9.691   2.310
20926W        W82589   7.877  24.071  12.951
20927W        W82590  17.611  25.045  11.970
20928W        W82591   1.902  19.662  10.940
20929W        W82592   4.358  34.944   1.868
20930W        W82593  22.546  17.181   2.359
20931W        W82594   9.210  14.196   2.285
20932W        W82595  19.247   8.796  12.357
20933W        W82596  27.136  25.538   1.308
20934W        W82597  23.061  31.456   2.862
20935W        W82598  20.236   1.349  10.437
20936W        W82599   7.772  16.789   4.742
20937W        W82600  43.947  27.144  13.009
20938W        W82601  37.393  14.745  14.855
20939W        W82602  41.863   9.857   4.705
20940W        W82603  23.712  35.476  13.864
20941W        W82604  16.624  29.503   3.858
20942W        W82605   6.368  38.062   4.331
20943W        W82606  15.311  27.156   0.436
20944W        W82607  30.093  44.265   2.234
20945W        W82608  15.133   4.922  11.415
20946W        W82609  14.788  39.433  13.015
20947W        W82610  12.335  18.135  11.586
20948W        W82611   0.494  12.245   1.894
20949W        W82612  39.913  12.835   1.914
20950W        W82613  16.732  13.736  11.900
20951W        W82614  14.745  35.898   1.758
20952W        W82615   2.849  23.653  12.092
20953W        W82616  12.622  22.699   2.825
20954W        W82617  31.990  28.162   3.383
20955W        W82618  20.093   5.894  11.069
20956W        W82619  27.675  43.336  10.403
20957W        W82620  32.020  41.910  14.023
20958W        W82621   4.825  28.031  14.452
20959W        W82622  27.954   9.220  10.474
20960W        W82623  21.094   1.280   3.163
20961W        W82624  44.892  22.544  13.515
20962W        W82625   0.862  42.488   4.237
20963W        W82626  12.311  43.917  14.940
20964W        W82627  35.961  24.717  11.375
20965W        W82628   5.197  41.973   3.834
20966W        W82629  33.995   9.374  13.853
20967W        W82630  31.431  13.289  10.500
20968W        W82631   4.746  14.196   9.942
20969W        W82632  34.472  18.765   3.771
20970W        W82633  30.513  35.416  10.637
20971W        W82634  21.120   1.307  13.010
20972W        W82635  34.565  16.281  12.574
20973W        W82636  14.775   7.363  13.386
20974W        W82637  31.593  23.075   3.265
20975W        W82638  38.882  35.424   2.365
20976W        W82639   3.853  31.019  11.403
20977W        W82640  28.176   3.910  14.989
20978W        W82641  26.653  43.927  12.434
20979W        W82642   8.866   6.257   1.796
20980W        W82643  44.905  38.558  13.843
20981W        W82644  37.924  30.513   1.743
20982W        W82645  30.549   7.305  10.593
20983W        W82646  22.618   8.232  11.547
20984W        W82647  33.907  10.208  12.018
20985W        W82648  18.116  24.502  12.497
20986W        W82649  44.498  16.762   1.713
20987W        W82650  40.825  33.936   4.328
20988W        W82651  27.652  29.520   2.317
20989W        W82652   4.811  32.573  12.359
20990W        W82653   6.851  43.396   1.300
20991W        W82654   4.827  22.026  12.881
20992W        W82655  30.107  19.269  10.957
20993W        W82656  41.838  26.601  13.490
20994W        W82657  29.666  38.978   5.104
20995W        W82658  37.944   6.186   3.631
20996W        W82659   4.251  41.454   3.800
20997W        W82660  27.547  22.595  13.028
20998W        W82661  38.541  34.086  12.487
20999W        W82662  44.275  25.082   4.313
21000W        W82663  20.141  12.214  12.019
21001W        W82664  41.480   9.164   0.905
21002W        W82665  17.691  44.870  11.416
21003W        W82666  40.849  35.107   3.804
21004W        W82667  32.509   4.338  10.891
21005W        W82668   1.747   8.825   1.845
21006W        W82669   9.683  41.533  10.541
21007W        W82670  41.966   6.308  12.050
21008W        W82671  35.531   8.382   4.276
21009W        W82672  33.526   7.368  14.411
21010W        W82673  23.639  31.067   0.835
21011W        W82674  24.032  13.829   0.484
21012W        W82675  19.104  34.919  10.925
21013W        W82676  27.592  37.025   1.312
21014W        W82677  40.389   6.263   1.790
21015W        W82678   1.265  26.965   4.299
21016W        W82679  14.149  43.902   0.315
21017W        W82680  43.783  33.031  11.054
21018W        W82681  13.819  39.434  14.977
21019W        W82682  24.608  19.586  12.479
21020W        W82683   9.732  19.044  10.582
21021W        W82684   1.312  21.174   3.793
21022W        W82685  35.491  25.529  13.391
21023W        W82686   7.254  39.863  11.495
21024W        W82687  36.960  37.946  13.442
21025W        W82688  38.016  16.283  12.969
21026W        W82689   5.313  10.781  14.466
21027W        W82690  22.711   7.378   4.355
21028W        W82691  16.596  44.973  11.073
21029W        W82692  19.739  27.581   3.842
21030W        W82693  20.683   2.396  13.442
21031W        W82694  44.415  25.567   2.814
21032W        W82695  22.212   7.328   4.738
21033W        W82696  29.527  29.583  13.531
21034W        W82697  18.670  11.370  12.924
21035W        W82698  33.572  25.982  14.829
21036W        W82699  29.428  12.122   3.189
21037W        W82700  32.918   9.759   4.197
21038W        W82701   6.205  10.270  11.443
21039W        W82702  10.272   1.469   2.361
21040W        W82703  42.489  16.184  13.370
21041W        W82704  14.112  28.529   1.375
21042W        W82705  27.521  18.713  13.870
21043W        W82706   0.907  18.206  11.499
21044W        W82707  39.541  41.376   1.785
21045W        W82708  30.987  34.942  13.478
21046W        W82709  29.157  16.129   1.301
21047W        W82710  26.982  38.404  12.425
21048W        W82711  29.424  37.434  12.453
21049W        W82712  21.061   9.666  10.523
21050W        W82713   3.430  36.041  11.969
21051W        W82714  40.968  32.511   0.405
21052W        W82715   7.725  27.065   2.348
21053W        W82716  11.799  43.911   0.483
21054W        W82717  33.426   0.886  13.506
21055W        W82718  24.495  20.635   4.237
21056W        W82719  37.407  28.949  10.948
21057W        W82720   2.250  40.484   2.713
21058W        W82721  26.109  36.440  14.854
21059W        W82722  36.087  22.526   0.762
21060W        W82723  18.279  34.376  14.820
21061W        W82724  39.364  21.628   3.325
21062W        W82725   7.377  11.642  12.429
21063W        W82726  34.942  28.066   4.662
21064W        W82727  16.303  24.000   2.782
21065W        W82728   0.854   5.327  12.899
21066W        W82729  34.011   8.217  12.919
21067W        W82730  31.577  44.426  12.460
21068W        W82731   4.768  38.853  12.891
21069W        W82732   6.902  43.833  12.528
21070W        W82733  28.487  27.975  14.426
21071W        W82734  25.133  17.160   3.701
21072W        W82735  33.081   8.881   0.863
21073W        W82736  32.474   2.298   2.405
21074W        W82737  27.488  42.822   3.770
21075W        W82738  28.663   8.750  10.643
21076W        W82739  36.948  38.531   2.806
21077W        W82740  19.107  29.476   2.763
21078W        W82741   5.388  17.101  13.821
21079W        W82742  31.904  12.146   1.336
21080W        W82743  43.462  15.162   5.288
21081W        W82744  10.634  12.796  12.905
21082W        W82745  12.632  32.092   2.401
21083W        W82746  29.121  35.045  13.838
21084W        W82747   2.882   6.874   1.924
21085W        W82748  25.609  20.759  13.017
21086W        W82749  41.995   4.338   4.247
21087W        W82750   4.858  27.482   3.321
21088W        W82751  15.616  41.302  11.044
21089W        W82752  30.602   3.296   3.357
21090W        W82753  29.084  25.629   4.261
21091W        W82754  37.857  25.218   2.689
21092W        W82755  34.570  40.847   4.740
21093W        W82756  39.327  34.556  12.446
21094W        W82757  33.534  26.667  13.979
21095W        W82758  32.392  23.990   2.806
21096W        W82759  16.145  43.886   4.811
21097W        W82760  41.044  29.447  11.958
21098W        W82761  40.819  35.994  12.419
21099W        W82762  17.672  35.556   1.905
21100W        W82763  15.659  28.161   3.353
21101W        W82764  25.158   8.758  12.913
21102W        W82765  33.397  41.495   5.105
21103W        W82766  11.300  25.696  12.862
21104W        W82767  34.375   8.311  13.860
21105W        W82768  33.043  44.307  10.496
21106W        W82769   5.417  12.810   2.325
21107W        W82770  36.088  31.424   1.363
21108W        W82771  36.909  19.586  14.824
21109W        W82772   5.739   3.759  13.042
21110W        W82773  10.257  31.920  12.072
21111W        W82774  31.461   1.292   4.676
21112W        W82775  37.047  24.561   2.774
21113W        W82776   5.927  21.223   1.820
21114W        W82777  15.325  22.715   0.820
21115W        W82778   6.236   7.300   2.715
21116W        W82779  14.710  21.690  12.372
21117W        W82780  25.001  40.507   3.169
21118W        W82781  32.465  41.354  12.845
21119W        W82782  40.400  39.546   4.211
21120W        W82783  18.194  34.611  13.004
21121W        W82784   1.802  29.956   0.397
21122W        W82785  18.231   5.353  13.506
21123W        W82786   2.463   4.380  12.086
21124W        W82787  42.961   0.343  12.502
21125W        W82788  27.598  16.097   2.760
21126W        W82789  14.727  43.765   3.206
21127W        W82790  44.871   9.198   0.848
21128W        W82791  25.043  10.732  13.951
21129W        W82792   1.410  42.303   3.833
21130W        W82793   8.864  32.114  11.456
21131W        W82794  29.949  22.095   2.315
21132W        W82795  41.827  18.787  11.530
21133W        W82796   8.195   4.246   4.185
21134W        W82797  42.873  29.052  10.914
21135W        W82798  38.876  44.902   2.266
21136W        W82799   7.908   5.888  10.594
21137W        W82800  13.318   4.370   4.298
21138W        W82801  23.117  36.506  12.926
21139W        W82802  36.554  32.120  11.599
21140W        W82803  22.084  31.599   3.777
21141W        W82804  43.924  31.032   4.250
21142W        W82805  16.747  41.426  13.418
21143W        W82806   4.920  33.453  13.520
21144W        W82807  22.628  33.401   1.745
21145W        W82808   0.904  21.174   4.239
21146W        W82809  37.336  43.380  13.343
21147W        W82810  17.170  14.817  11.411
21148W        W82811  29.637  37.045   2.391
21149W        W82812  11.827  39.902  10.887
21150W        W82813  40.044  44.453  12.413
21151W        W82814  11.762  30.545   1.237
21152W        W82815  20.646   1.972  11.992
21153W        W82816  41.832  25.969   0.891
21154W        W82817  12.716  34.902   3.322
21155W        W82818   6.292  42.392   3.387
21156W        W82819   4.361  11.157   1.432
21157W        W82820  23.141  21.515  11.498
21158W        W82821   0.905  29.480  13.401
21159W        W82822  26.065   3.903   0.262
21160W        W82823   1.785   1.368   1.855
21161W        W82824  33.587  16.778   0.318
21162W        W82825  22.710   2.383   2.671
21163W        W82826  11.669  25.134   4.126
21164W        W82827   0.331  39.324  11.931
21165W        W82828  22.076   1.907   2.271
21166W        W82829  12.288  26.491  12.052
21167W        W82830  39.828  36.906  12.346
21168W        W82831  32.948  10.327   4.806
21169W        W82832   6.262  31.519   2.331
21170W        W82833  29.070  27.682   2.713
21171W        W82834   7.909  38.961   0.452
21172W        W82835  38.908  37.929   4.344
21173W        W82836   4.895   0.928   3.667
21174W        W82837  25.537  40.894  12.573
21175W        W82838  42.824  20.092   5.284
21176W        W82839  14.772  14.607  12.375
21177W        W82840   7.735  33.020   3.387
21178W        W82841  13.728  36.403  13.833
21179W        W82842   7.184   0.900  14.371
21180W        W82843  28.964   1.345   0.307
21181W        W82844   0.427   9.237   4.205
21182W        W82845  28.515  43.773  11.506
21183W        W82846  12.122  21.636  14.424
21184W        W82847   2.266  26.482  10.594
21185W        W82848  16.762  44.375  14.408
21186W        W82849   5.783   0.323  12.066
21187W        W82850  32.069   5.867  14.902
21188W        W82851  16.688   6.854   3.292
21189W        W82852  25.621  40.008   2.228
21190W        W82853  21.100  20.130  12.060
21191W        W82854  32.085   5.759   1.304
21192W        W82855  21.241  36.483  11.992
21193W        W82856   1.956  28.502  10.635
21194W        W82857   4.707   2.309  11.988
21195W        W82858   6.789  41.789   2.739
21196W        W82859  34.489  23.667  14.307
21197W        W82860  18.152   2.732   2.888
21198W        W82861  28.011  43.445   2.340
21199W        W82862  44.907   4.302  11.026
21200W        W82863  44.322  10.670   2.379
21201W        W82864  11.808  42.380   0.382
21202W        W82865  41.394  11.176   4.766
21203W        W82866  39.893  43.889   4.686
21204W        W82867  40.501  22.229   3.382
21205W        W82868  36.944  28.448   1.348
21206W        W82869  16.269  43.853  12.548
21207W        W82870  31.956  30.070   0.792
21208W        W82871  23.064  15.177  11.083
21209W        W82872   3.889  29.008  14.928
21210W        W82873  33.063  38.838   4.228
21211W        W82874  25.204  37.438  13.827
21212W        W82875  11.313  30.521  10.937
21213W        W82876  43.996  30.573  11.898
21214W        W82877  27.147  28.604   4.607
21215W        W82878  32.498  27.180   0.955
21216W        W82879  18.615  34.915   3.815
21217W        W82880  15.304  19.145   4.800
21218W        W82881  38.529   6.247   1.806
21219W        W82882  13.603  44.354  10.895
21220W        W82883  14.147  43.392   4.815
21221W        W82884  41.403  39.976   1.698
21222W        W82885  11.185   2.320  12.917
21223W        W82886   0.272  34.589   1.858
21224W        W82887  43.013   1.948   4.316
21225W        W82888  12.306  18.580  12.369
21226W        W82889  26.952  33.413   0.856
21227W        W82890  35.998  34.011   2.821
21228W        W82891  10.229  24.063   1.841
21229W        W82892   0.327  28.156   3.820
21230W        W82893  26.077   2.290  12.463
21231W        W82894  35.901   2.443  13.035
21232W        W82895  23.241  15.113   3.277
21233W        W82896   3.814  37.848   4.668
21234W        W82897  35.583   5.834  11.509
21235W        W82898  39.867  21.679   3.149
21236W        W82899   1.854  25.098  10.437
21237W        W82900  14.661   7.674  14.864
21238W        W82901   7.779   6.219   4.635
21239W        W82902   3.377  40.352  14.312
21240W        W82903  31.105  39.508   2.310
21241W        W82904  32.096  34.406   2.328
21242W        W82905  36.082  26.672  13.327
21243W        W82906  22.712   8.781  12.458
21244W        W82907  23.205  27.131  13.396
21245W        W82908   6.379   7.215   1.289
21246W        W82909   8.729  44.315   1.708
21247W        W82910  27.568  10.706  11.605
21248W        W82911  39.972   6.884   0.820
21249W        W82912  27.118   1.781   1.232
21250W        W82913  38.860  14.646   3.795
21251W        W82914   9.369  35.913   1.883
21252W        W82915   9.371  14.312  12.366
21253W        W82916  26.517  21.582  14.913
21254W        W82917  19.214  21.155  13.461
21255W        W82918  39.509  30.625  13.320
21256W        W82919   9.248  29.042   4.178
21257W        W82920   9.861  43.432   4.247
21258W        W82921  24.642  19.588  11.949
21259W        W82922   8.796  16.634  12.994
21260W        W82923  23.647  33.036   4.253
21261W        W82924  35.853  34.456  13.062
21262W        W82925  14.679  30.000   2.855
21263W        W82926   7.227  39.837  12.981
21264W        W82927  35.602   8.771   9.928
21265W        W82928  33.100  43.401   3.672
21266W        W82929  43.782  34.910   0.780
21267W        W82930   6.388  35.075  13.400
21268W        W82931  14.338  27.987   2.369
21269W        W82932  30.416   9.778  12.508
21270W        W82933  41.420  35.074  12.857
21271W        W82934  12.822  14.724  13.969
21272W        W82935  37.906   7.303   3.258
21273W        W82936  11.659  41.919  12.943
21274W        W82937  39.868  10.151  10.058
21275W        W82938   0.255   8.696  13.393
21276W        W82939   4.433  35.490  14.977
21277W        W82940  22.736  11.206  10.506
21278W        W82941  37.898   1.303   1.814
21279W        W82942  39.935   0.410  12.439
21280W        W82943  19.283  23.490  14.912
21281W        W82944  25.632  37.437   4.115
21282W        W82945  41.803  24.118  11.117
21283W        W82946   2.806  33.080  12.969
21284W        W82947  26.635  24.491  13.456
21285W        W82948  22.567  35.922  14.898
21286W        W82949  27.130  44.942  12.516
21287W        W82950  36.362  21.728   1.251
21288W        W82951   0.947  34.402  14.942
21289W        W82952  31.491  14.792  13.016
21290W        W82953  36.038  27.626  12.843
21291W        W82954   7.178  14.258  13.942
21292W        W82955  30.583  36.926  12.346
21293W        W82956   0.470   5.794   4.826
21294W        W82957  13.691  39.453  14.339
21295W        W82958  10.806   2.806   1.283
21296W        W82959  37.419  40.336  10.421
21297W        W82960   2.383  36.365   2.670
21298W        W82961  30.108  28.573  10.939
21299W        W82962  21.083  17.124   3.256
21300W        W82963   7.254  12.292  12.869
21301W        W82964   3.888   2.908   2.266
21302W        W82965  10.691  34.499  14.812
21303W        W82966  13.204  19.271  11.098
21304W        W82967  32.026   1.422   2.758
21305W        W82968  14.603  40.311   3.795
21306W        W82969  28.935   4.883  12.467
21307W        W82970  39.456  10.751   3.800
21308W        W82971  26.596  17.267  12.480
21309W        W82972  28.548   7.384   2.354
21310W        W82973  35.428  36.945   2.362
21311W        W82974  10.832   1.957   4.280
21312W        W82975  41.521  24.098   4.303
21313W        W82976  33.584  15.145  13.336
21314W        W82977  42.928  10.678  14.388
21315W        W82978  13.618  42.885   2.852
21316W        W82979  25.975   7.828   3.342
21317W        W82980  17.745  24.033   2.330
21318W        W82981  42.335  24.093   2.306
21319W        W82982  12.638  43.901  10.571
21320W        W82983  41.336   8.848  13.858
21321W        W82984  19.243  34.959  10.439
21322W        W82985  38.427  18.637  10.909
21323W        W82986  20.116  35.913  10.087
21324W        W82987   6.364   4.710  13.340
21325W        W82988  23.116   4.904  11.475
21326W        W82989   4.342   5.851   4.763
21327W        W82990  35.969  15.294   4.144
21328W        W82991  30.929  12.332   0.919
21329W        W82992  14.122  28.619  13.044
21330W        W82993   7.416  10.232   1.283
21331W        W82994  44.870  25.623  13.487
21332W        W82995  38.376  25.547   0.413
21333W        W82996  28.106   2.778  14.439
21334W        W82997  43.839  33.529   4.676
21335W        W82998  28.131   0.400  12.351
21336W        W82999  41.856  15.659   0.466
21337W        W83000  14.684  14.132   1.447
21338W        W83001  10.257  34.954  12.906
21339W        W83002  11.730   0.958  11.420
21340W        W83003   0.296  27.003   2.724
21341W        W83004  21.710  42.831   2.356
21342W        W83005   8.841  38.337  11.430
21343W        W83006   7.241  13.226   2.799
21344W        W83007   4.872   8.662  12.039
21345W        W83008   5.427  20.575  10.452
21346W        W83009  34.949   9.297  14.973
21347W        W83010  19.094  25.141  11.900
21348W        W83011  13.187  44.419  11.514
21349W        W83012  26.570  43.327   0.286
21350W        W83013  16.161   4.919   1.764
21351W        W83014   5.819  25.192  14.802
21352W        W83015  31.941  13.350  11.448
21353W        W83016  43.510  12.228  10.644
21354W        W83017   7.320  14.613  13.511
21355W        W83018  25.528  44.940   0.424
21356W        W83019  41.813  20.678  13.035
21357W        W83020  18.137   5.773   3.382
21358W        W83021  29.100  41.303   1.853
21359W        W83022  15.316  44.991   1.266
21360W        W83023   8.844  44.904  10.897
21361W        W83024  23.604  23.998  11.983
21362W        W83025  22.244  24.973  12.453
21363W        W83026  27.132   5.922  11.475
21364W        W83027   1.740  43.874  12.917
21365W        W83028   0.348   6.300  10.958
21366W        W83029  17.093  11.843   1.220
21367W        W83030   3.940  40.885  14.413
21368W        W83031  13.628   3.900   0.373
21369W        W83032  43.490   6.380  12.976
21370W        W83033  17.215  11.679   4.814
21371W        W83034  24.720   3.247  13.518
21372W        W83035  23.210   4.723   9.599
21373W        W83036  20.583  22.074  12.469
21374W        W83037  29.663  41.894   4.342
21375W        W83038  44.913  22.112  14.846
21376W        W83039  15.719  40.362  12.871
21377W        W83040  41.988   8.667  14.876
21378W        W83041  42.780  30.025  10.512
21379W        W83042  41.502  33.030   0.259
21380W        W83043  25.045  39.512   1.716
21381W        W83044  11.235  43.995  12.409
21382W        W83045  23.100  41.471  13.017
21383W        W83046  37.941  37.366   0.372
21384W        W83047  40.034  22.051   3.831
21385W        W83048   3.756  42.394   3.227
21386W        W83049   7.179  25.969   0.341
21387W        W83050  31.450  17.237   0.476
21388W        W83051  35.480  41.374  12.879
21389W        W83052  33.448   7.406   0.384
21390W        W83053  21.700  29.008   1.797
21391W        W83054   3.317  28.943  10.030
21392W        W83055  16.645  35.390  11.379
21393W        W83056   2.348  21.564   1.853
21394W        W83057   0.466  40.853  12.540
21395W        W83058  20.133  19.638   3.819
21396W        W83059   1.392  32.490  14.487
21397W        W83060   4.775  12.778   1.812
21398W        W83061   1.762  10.200  10.972
21399W        W83062  21.629  21.150   4.703
21400W        W83063  41.515   3.887  11.030
21401W        W83064  30.575  24.100   1.346
21402W        W83065  40.359   5.855  12.490
21403W        W83066   0.366  44.373   0.282
21404W        W83067   4.942   4.228  11.859
21405W        W83068   8.406  28.028   2.866
21406W        W83069  43.502  26.638   4.226
21407W        W83070  32.612  14.249   0.760
21408W        W83071  28.047  12.698   3.324
21409W        W83072  31.576   3.398  10.528
21410W        W83073  11.734  35.071   0.777
21411W        W83074   7.787   2.237   0.317
21412W        W83075  14.324   0.375   0.811
21413W        W83076  30.039  37.463  14.893
21414W        W83077  16.146  34.548  11.537
21415W        W83078  20.704  10.156   3.715
21416W        W83079  33.621  29.437   4.743
21417W        W83080   9.220  11.648  14.278
21418W        W83081   3.321   2.448   2.380
21419W        W83082  29.661  16.571   2.368
21420W        W83083  21.227  25.057   3.703
21421W        W83084  36.465  33.127   2.276
21422W        W83085   2.276  21.716  12.030
21423W        W83086  30.908   8.736   0.936
21424W        W83087  11.205  14.273  10.571
21425W        W83088  42.798   4.738  12.089
21426W        W83089  25.710  31.952   3.712
21427W        W83090  29.035  22.136   0.811
21428W        W83091   9.252  17.754  14.311
21429W        W83092   5.710  20.138   3.693
21430W        W83093  35.425  35.040   1.305
21431W        W83094  34.603  38.908  10.950
21432W        W83095  36.537  15.787  13.413
21433W        W83096  39.559  37.058  12.362
21434W        W83097  27.986  34.576  12.911
21435W        W83098  39.349  43.955  10.911
21436W        W83099   6.685  31.479  11.488
21437W        W83100  36.922  44.912   0.335
21438W        W83101  20.725  10.142  10.546
21439W        W83102  33.598   7.875  13.446
21440W        W83103  24.555   2.417   4.333
21441W        W83104   6.870   1.860  11.866
21442W        W83105  42.992  12.235   4.351
21443W        W83106  42.898  35.396   2.234
21444W        W83107   8.854  29.076  14.965
21445W        W83108  13.105  12.847  10.035
21446W        W83109  36.849  30.103  12.852
21447W        W83110   7.900   6.426  12.339
21448W        W83111   7.396  27.552  14.935
21449W        W83112  10.851   3.842   0.968
21450W        W83113  32.425   3.860   2.273
21451W        W83114  33.435   8.339  13.976
21452W        W83115  27.472  30.509  14.892
21453W        W83116  43.390  19.141   4.303
21454W        W83117   7.221  34.972  11.933
21455W        W83118  35.056   4.789   1.373
21456W        W83119  18.562  30.545   1.718
21457W        W83120  15.329  12.654   1.816
21458W        W83121  17.608   6.251   0.444
21459W        W83122  21.137  34.986   3.155
21460W        W83123   8.851  12.660   4.744
21461W        W83124   5.883  19.625   3.327
21462W        W83125   8.366  25.470   1.720
21463W        W83126  16.683  32.487   1.728
21464W        W83127  35.459  36.048   3.731
21465W        W83128  27.084  23.040  11.124
21466W        W83129  37.556  27.515   4.766
21467W        W83130  44.366  40.863   1.723
21468W        W83131  34.570   5.840   1.407
21469W        W83132   6.392  36.505  11.927
21470W        W83133   0.815  23.728   3.187
21471W        W83134  22.700   7.328  11.499
21472W        W83135  15.317  16.181   2.685
21473W        W83136  32.462   1.922  11.525
21474W        W83137  43.775  27.992  13.002
21475W        W83138   6.389   1.959  14.502
21476W        W83139  24.664  20.233   3.829
21477W        W83140  26.476  21.064   5.304
21478W        W83141  34.003  33.997  13.947
21479W        W83142  31.141  34.888  12.568
21480W        W83143  27.016   8.717   4.324
21481W        W83144  30.079  29.062  11.036
21482W        W83145  21.121  39.454  13.454
21483W        W83146   6.425  12.624   3.186
21484W        W83147  37.485  42.468  12.830
21485W        W83148  19.157  31.999   3.826
21486W        W83149  26.095   2.422   1.280
21487W        W83150   7.196  11.328  14.878
21488W        W83151   0.786  36.019  13.393
21489W        W83152  14.719   1.872  14.319
21490W        W83153   6.725  15.783  14.891
21491W        W83154   3.767  26.194  11.915
21492W        W83155  15.774  10.156  10.617
21493W        W83156  36.945  44.765  14.001
21494W        W83157   7.815  32.039  11.587
21495W        W83158   8.269   5.420  10.562
21496W        W83159  33.054  18.084  11.521
21497W        W83160  17.191  36.053   1.233
21498W        W83161  38.958   9.391   4.170
21499W        W83162  40.827  11.672  10.516
21500W        W83163  31.547  20.257  12.013
21501W        W83164  40.371  15.674   1.349
21502W        W83165  14.624  31.496  11.933
21503W        W83166  33.902   5.708  10.450
21504W        W83167   8.320   9.762   1.336
21505W        W83168  24.620  40.431   0.935
21506W        W83169  44.442   8.870   5.662
21507W        W83170  10.766   4.267  12.021
21508W        W83171  37.506   8.367  10.558
21509W        W83172  16.178  15.766   1.390
21510W        W83173  16.641   9.809   0.263
21511W        W83174  25.009  23.006   0.374
21512W        W83175  17.262  40.478  12.002
21513W        W83176  32.962   0.250   0.864
21514W        W83177  36.553  42.384  10.509
21515W        W83178   6.747  18.156   4.167
21516W        W83179  41.485   3.337  11.093
21517W        W83180  42.916  30.635   1.272
21518W        W83181  26.986  27.524   2.888
21519W        W83182  33.898  42.778   3.377
21520W        W83183  17.065  32.464  12.565
21521W        W83184  21.248  42.474  10.568
21522W        W83185  31.424  11.148   3.153
21523W        W83186  19.193  29.138   1.876
21524W        W83187  21.658   1.864   2.411
21525W        W83188   4.325  43.409  12.904
21526W        W83189  13.294  22.713   0.416
21527W        W83190  35.947  28.609   3.328
21528W        W83191  22.167  24.616  10.004
21529W        W83192  29.521  33.021  11.053
21530W        W83193  12.138   8.222  13.469
21531W        W83194  44.932  20.273  10.624
21532W        W83195  43.861  29.128   2.747
21533W        W83196  21.714  25.220  14.420
21534W        W83197   2.764  33.526  14.443
21535W        W83198  43.853  26.540  12.010
21536W        W83199  17.195  35.953  13.378
21537W        W83200  10.186  10.715   9.980
21538W        W83201  43.465  29.979  13.459
21539W        W83202  30.135  36.991   0.262
21540W        W83203  37.552  25.194  12.400
21541W        W83204  13.700   4.800   2.348
21542W        W83205   4.367  41.450   0.397
21543W        W83206  22.116  42.522   1.379
21544W        W83207  34.577  25.982   3.847
21545W        W83208   8.186  19.095  13.409
21546W        W83209  38.383  34.528  12.072
21547W        W83210  15.708  33.914  13.313
21548W        W83211  34.985  39.979   1.444
21549W        W83212  40.847  30.069  14.467
21550W        W83213  25.474  34.600  12.831
21551W        W83214  36.405   5.805  11.036
21552W        W83215  17.675  16.206  13.972
21553W        W83216  30.639  43.497   1.249
21554W        W83217  19.719   3.894  11.450
21555W        W83218   5.768   7.361  14.388
21556W        W83219  14.316  10.312   0.434
21557W        W83220  25.155   6.799  12.824
21558W        W83221  18.148  33.882  14.336
21559W        W83222  28.174   9.340  13.468
21560W        W83223  34.879  41.531  12.346
21561W        W83224   2.807  44.259   0.910
21562W        W83225  39.964  44.908   0.836
21563W        W83226  26.520  13.756   1.330
21564W        W83227  36.916  43.344  12.947
21565W        W83228   2.754  25.609   2.330
21566W        W83229  15.131   4.228  14.294
21567W        W83230  12.732  17.292   1.365
21568W        W83231  43.350  36.448   0.291
21569W        W83232  31.017   3.895   3.827
21570W        W83233  21.175  43.855   2.699
21571W        W83234   1.922  42.373   3.770
21572W        W83235  30.487  32.436  13.486
21573W        W83236  17.122  40.342   5.272
21574W        W83237  33.458  29.639  12.390
21575W        W83238  15.697  25.619  14.990
21576W        W83239  37.952  42.784   0.922
21577W        W83240  24.525  16.134   3.373
21578W        W83241  18.665  17.658  10.905
21579W        W83242   0.747  34.068   4.176
21580W        W83243   0.288  41.409   2.355
21581W        W83244  14.157  44.926  14.276
21582W        W83245  20.640  15.793  14.406
21583W        W83246  39.950   7.280  10.897
21584W        W83247   6.315  33.577   1.753
21585W        W83248   1.258  28.028   3.634
21586W        W83249  30.623   8.805   4.205
21587W        W83250  38.868   1.404   3.324
21588W        W83251  19.058  26.520  11.127
21589W        W83252   5.423  30.145  13.965
21590W        W83253  21.693  31.951   4.747
21591W        W83254  14.206  19.690  12.522
21592W        W83255  40.507  30.590   0.260
21593W        W83256  19.123  31.077   3.339
21594W        W83257  19.607  25.060  11.516
21595W        W83258   2.348   5.264   3.305
21596W        W83259  38.991  36.014   0.353
21597W        W83260   4.325  14.646   3.747
21598W        W83261  40.473   1.416  10.923
21599W        W83262  11.330  17.216   0.374
21600W        W83263  26.963   7.842  11.004
21601W        W83264  30.483  21.753  11.966
21602W        W83265  30.418  40.385  13.432
21603W        W83266  11.760  41.859  12.394
21604W        W83267  15.155  25.219   2.831
21605W        W83268  42.032  34.461   4.799
21606W        W83269  42.907  26.631  14.857
21607W        W83270  26.459  30.080   3.162
21608W        W83271  39.850  44.384  14.899
21609W        W83272  43.922  35.392  12.354
21610W        W83273  44.340  21.262   4.700
21611W        W83274   6.764  33.079   0.251
21612W        W83275  35.041  27.990   1.802
21613W        W83276  12.251  11.689   0.470
21614W        W83277  42.862  40.819  12.496
21615W        W83278  12.245  16.574  11.040
21616W        W83279  40.521   9.227  14.923
21617W        W83280   9.716  11.823   2.767
21618W        W83281  12.287  22.652   1.258
21619W        W83282   0.306  21.665  11.861
21620W        W83283  26.495   3.345   5.115
21621W        W83284  25.652   9.692   4.670
21622W        W83285  20.530  39.055  11.919
21623W        W83286  17.208  18.276   3.803
21624W        W83287  18.115  12.783  12.084
21625W        W83288   5.752  34.087   3.689
21626W        W83289  40.051  32.081  12.424
21627W        W83290  42.779  13.279  12.894
21628W        W83291  29.118   0.830   3.656
21629W        W83292   5.343  20.696  12.890
21630W        W83293  25.698   7.713  12.972
21631W        W83294  42.345  37.495  14.806
21632W        W83295   4.300   7.214   0.844
21633W        W83296  15.750   8.708   1.772
21634W        W83297   4.214  19.645  12.561
21635W        W83298  43.967  20.255  12.970
21636W        W83299  44.336  22.144  11.469
21637W        W83300  23.057  44.989   1.838
21638W        W83301  26.134  16.713  12.437
21639W        W83302  16.225  34.572   0.809
21640W        W83303  22.629  25.550   5.798
21641W        W83304  28.147  10.279  12.559
21642W        W83305   7.808  28.551   4.199
21643W        W83306  38.865  15.290   5.121
21644W        W83307  33.486  22.502  10.610
21645W        W83308   6.776  34.528   1.348
21646W        W83309   8.379  24.995  14.932
21647W        W83310  29.071  37.043  12.528
21648W        W83311  39.446  25.967   1.712
21649W        W83312  23.555   3.222  13.848
21650W        W83313  29.488   0.426   2.700
21651W        W83314  34.581   3.913   2.738
21652W        W83315  23.520  19.717   0.387
21653W        W83316  37.483  23.671  10.484
21654W        W83317  41.828  33.499   4.664
21655W        W83318  15.666  21.157   4.607
21656W        W83319  14.759   3.253   3.714
21657W        W83320   4.388   3.800   4.157
21658W        W83321  15.698  17.071  11.599
21659W        W83322  43.316  19.552  11.937
21660W        W83323  43.861   5.796   1.881
21661W        W83324  18.245  41.509   0.246
21662W        W83325  21.757  38.468   4.659
21663W        W83326  12.819   5.816  12.944
21664W        W83327  28.092  23.191   1.694
21665W        W83328   4.416  43.469   1.913
21666W        W83329  29.972   6.302   3.304
21667W        W83330   1.359  25.588  11.126
21668W        W83331  39.832  16.686   4.305
21669W        W83332  19.751  28.641   3.858
21670W        W83333  32.564   0.876   4.728
21671W        W83334   0.337  36.900  10.618
21672W        W83335  19.601   4.931   3.802
21673W        W83336  40.467   0.285  12.916
21674W        W83337  39.381  33.064  10.576
21675W        W83338  23.674  25.484   1.810
21676W        W83339  15.256  41.858   4.149
21677W        W83340  30.656  38.413  10.511
21678W        W83341  39.963  13.620  13.541
21679W        W83342  19.655  12.209  10.992
21680W        W83343  37.483   9.214  11.076
21681W        W83344  21.607   1.868   4.796
21682W        W83345   8.887  24.005   4.348
21683W        W83346  43.988  13.616   0.459
21684W        W83347   3.757  25.106   0.354
21685W        W83348  41.393  16.161  14.970
21686W        W83349  41.384   6.290   1.874
21687W        W83350  16.238   9.327   3.663
21688W        W83351  36.529  43.902   2.778
21689W        W83352  18.061   7.401  10.428
21690W        W83353   3.735  12.324  12.045
21691W        W83354  13.774  39.545  10.631
21692W        W83355  17.162  40.012   1.870
21693W        W83356   3.898   9.347  11.457
21694W        W83357  20.631   3.745   0.801
21695W        W83358  14.162  40.018   2.790
21696W        W83359  31.017  33.619   2.849
21697W        W83360  29.929  27.573   2.723
21698W        W83361  14.725  38.059   4.133
21699W        W83362  32.619  21.037   0.340
21700W        W83363  24.603  24.083   1.882
21701W        W83364  12.623  25.559   1.374
21702W        W83365  37.009  24.478  11.885
21703W        W83366  39.476  24.092  10.949
21704W        W83367   3.867  18.564   3.756
21705W        W83368   9.342  21.671  10.619
21706W        W83369  14.605  20.188  12.858
21707W        W83370  29.462  23.542  12.837
21708W        W83371   5.933  42.995   1.217
21709W        W83372   7.754  26.039   1.263
21710W        W83373  19.214  18.593   4.803
21711W        W83374  40.503   2.790  14.844
21712W        W83375  33.613  17.698   0.418
21713W        W83376  44.499  25.598   1.440
21714W        W83377   2.816   8.672  12.879
21715W        W83378   2.776  30.601  13.371
21716W        W83379  11.657   9.171  14.499
21717W        W83380  31.926  22.705  11.592
21718W        W83381   2.875  37.033   0.848
21719W        W83382  13.671   0.963   2.243
21720W        W83383  16.569   6.211  11.920
21721W        W83384   4.443  15.096   3.677
21722W        W83385   7.323  12.250  11.059
21723W        W83386  21.205   6.206   4.175
21724W        W83387  21.627  41.294  11.479
21725W        W83388  18.206   3.397   3.776
21726W        W83389   1.389  37.999   1.377
21727W        W83390   7.864   3.406  13.825
21728W        W83391   8.839  37.528  11.986
21729W        W83392  22.513  43.985   1.744
21730W        W83393  34.935   7.298   2.351
21731W        W83394  43.859  27.115   2.700
21732W        W83395  43.886  35.431  13.403
21733W        W83396  31.463   7.720   4.332
21734W        W83397  43.510  34.939  10.575
21735W        W83398  21.564  27.530   3.229
21736W        W83399  34.093  41.993   3.796
21737W        W83400  30.993  19.611   3.667
21738W        W83401  27.596  10.780   4.829
21739W        W83402  41.848  30.504   3.250
21740W        W83403  10.862  41.307  11.550
21741W        W83404   9.869  33.937  11.897
21742W        W83405   7.884  26.654  12.439
21743W        W83406   3.260   9.858   0.432
21744W        W83407  30.606  30.619   2.181
21745W        W83408   3.359  19.186  14.348
21746W        W83409  27.493  24.138   4.749
21747W        W83410  25.220  24.724   1.822
21748W        W83411  15.320   7.728   0.282
21749W        W83412  10.783  32.512   0.366
21750W        W83413  44.872   0.962   4.758
21751W        W83414  29.993   3.239   4.118
21752W        W83415  26.473  24.027   9.983
21753W        W83416  19.121  39.375  14.939
21754W        W83417  35.392   3.236   3.794
21755W        W83418  24.223  19.775  13.056
21756W        W83419  37.962  42.310   4.648
21757W        W83420  38.937   7.710   4.137
21758W        W83421  20.551   0.943   9.544
21759W        W83422  33.568  27.976  13.340
21760W        W83423  43.438  14.289  12.542
21761W        W83424  14.780  11.330  14.031
21762W        W83425  36.421  31.552   3.318
21763W        W83426  36.908   8.818   3.750
21764W        W83427  30.953  44.420  11.588
21765W        W83428  18.570  26.525   4.305
21766W        W83429  40.384  13.806   1.402
21767W        W83430  33.898  24.170   1.404
21768W        W83431   0.332  14.322  12.420
21769W        W83432  27.562  37.933  11.931
21770W        W83433  14.334  12.854  10.943
21771W        W83434  34.970  34.015   2.692
21772W        W83435  19.547  40.388   3.151
21773W        W83436  26.065  29.174  13.791
21774W        W83437   0.790  24.498   0.901
21775W        W83438  11.161   3.395   1.749
21776W        W83439  18.671  39.946   0.433
21777W        W83440  39.824  44.967  14.843
21778W        W83441  20.162  38.333   2.815
21779W        W83442  20.646  34.093   3.693
21780W        W83443  41.396  30.494  14.335
21781W        W83444  26.124  21.136   4.738
21782W        W83445   8.720  39.818   0.881
21783W        W83446  20.222  15.586  12.853
21784W        W83447   1.945  25.196   4.169
21785W        W83448  28.518  39.929   9.977
21786W        W83449  16.201  25.595   3.337
21787W        W83450   6.217  29.988  13.927
21788W        W83451  38.890   2.312  14.854
21789W        W83452  44.805  14.767  11.090
21790W        W83453  40.005  40.914   0.963
21791W        W83454   9.831   7.876  14.027
21792W        W83455  24.536  38.518  11.459
21793W        W83456  44.934  41.799  14.459
21794W        W83457  37.043  20.633   0.270
21795W        W83458   4.833  24.991  13.536
21796W        W83459  26.129  38.013   2.327
21797W        W83460  25.111  30.503  12.453
21798W        W83461  18.578  27.176   3.146
21799W        W83462  22.161  27.601  13.983
21800W        W83463  38.552  10.354   0.740
21801W        W83464   3.805  12.856  12.578
21802W        W83465   4.719  32.929  11.983
21803W        W83466  21.722  14.123  13.536
21804W        W83467  30.961  22.694  13.014
21805W        W83468  27.948  29.464  12.360
21806W        W83469  24.013  43.972   0.410
21807W        W83470  22.703  24.131  11.372
21808W        W83471  42.313  21.652  11.403
21809W        W83472   0.275  30.553   4.266
21810W        W83473  37.540  35.396  11.898
21811W        W83474  11.812   9.172   4.131
21812W        W83475   3.944  38.324  11.496
21813W        W83476   0.811  24.177  11.892
21814W        W83477  16.782  10.766   1.707
21815W        W83478  22.539   0.782   5.082
21816W        W83479   2.285  15.204   4.690
21817W        W83480  34.904   2.933  13.406
21818W        W83481   2.393   3.348   4.290
21819W        W83482  21.530  11.214  11.984
21820W        W83483  14.255  19.256  14.842
21821W        W83484  16.269   0.310  11.128
21822W        W83485   9.202  33.391  13.034
21823W        W83486  37.077  22.691   3.860
21824W        W83487  11.724  22.090   4.825
21825W        W83488  36.844  29.508  12.471
21826W        W83489  34.942  15.098   3.633
21827W        W83490  31.957   4.290   0.924
21828W        W83491  30.054  26.673   1.747
21829W        W83492  27.520  43.485   2.888
21830W        W83493  41.800  32.578  12.544
21831W        W83494  13.700  30.522   2.676
21832W        W83495  18.249  16.092  12.517
21833W        W83496   4.369  13.831   1.863
21834W        W83497  30.581   8.384  14.463
21835W        W83498  42.890  44.789   0.941
21836W        W83499  12.800  28.947   4.303
21837W        W83500  24.113   3.911  10.115
21838W        W83501  21.618  34.958   1.367
21839W        W83502  10.851   9.792   9.922
21840W        W83503  40.803  31.132  14.416
21841W        W83504  29.564  40.923  13.464
21842W        W83505  44.816  42.362  14.768
21843W        W83506  16.695   7.780  11.445
21844W        W83507  27.175  23.073  12.095
21845W        W83508  26.567  23.720  14.971
21846W        W83509  37.857  12.810  13.449
21847W        W83510  19.756  42.496  12.956
21848W        W83511  35.922  24.605  11.104
21849W        W83512  40.515  13.118  11.383
21850W        W83513   1.298  35.479  12.533
21851W        W83514   3.928   7.414   3.359
21852W        W83515  15.582  29.628  14.833
21853W        W83516  43.830  16.768   0.738
21854W        W83517   5.759  43.869  13.974
21855W        W83518  29.108  33.583  11.968
21856W        W83519  26.633  30.065  11.584
21857W        W83520  23.059  29.120  11.389
21858W        W83521   0.843  21.091   2.809
21859W        W83522  31.471  38.957   0.346
21860W        W83523  44.406  40.900  11.034
21861W        W83524  44.818  30.441  14.355
21862W        W83525  29.991  18.210  11.877
21863W        W83526  42.988  33.977   2.687
21864W        W83527  25.059   6.867  13.321
21865W        W83528  18.544   5.738   4.216
21866W        W83529   7.392  44.444  12.072
21867W        W83530   2.760  33.902   4.275
21868W        W83531  32.918  41.859  13.411
21869W        W83532   0.783  31.506  13.925
21870W        W83533  29.598   9.390   3.290
21871W        W83534  13.782  34.399   5.740
21872W        W83535  38.057  32.536  10.543
21873W        W83536  21.662  29.164   0.437
21874W        W83537   2.331  41.370  11.450
21875W        W83538  13.191  26.050  12.972
21876W        W83539  27.032  42.344  14.934
21877W        W83540  15.789  29.124   4.199
21878W        W83541  21.564  33.038   1.304
21879W        W83542  12.258   6.189  14.906
21880W        W83543   1.905  26.153  10.972
21881W        W83544  18.712  23.684   4.265
21882W        W83545  36.930  10.366   4.156
21883W        W83546  30.037   1.306   1.917
21884W        W83547   5.362  20.738  13.877
21885W        W83548  44.474  15.265  11.930
21886W        W83549  38.376  39.507  12.990
21887W        W83550   1.732  13.636   1.720
21888W        W83551  21.656  27.549   1.696
21889W        W83552  28.662  38.844  13.889
21890W        W83553  31.481  10.300   3.338
21891W        W83554  24.503   7.665  13.970
21892W        W83555  14.230  10.293  10.958
21893W        W83556  29.975  29.113  12.033
21894W        W83557  39.038  21.525   3.648
21895W        W83558  34.412  31.978   3.352
21896W        W83559  22.244  20.204  13.328
21897W        W83560  29.634   1.770   1.867
21898W        W83561   4.222  11.163  12.889
21899W        W83562  21.608  14.728  14.408
21900W        W83563  23.535  15.605  12.344
21901W        W83564   3.807   0.371   4.137
21902W        W83565  10.699  44.298   3.821
21903W        W83566  31.458  23.664   4.300
21904W        W83567  26.485   1.450  14.883
21905W        W83568  13.295  17.749  12.837
21906W        W83569  26.616   4.389  11.391
21907W        W83570   8.773   2.959   0.444
21908W        W83571   5.919   8.876  12.573
21909W        W83572  29.141  11.748  11.039
21910W        W83573  37.373  23.153   2.410
21911W        W83574  13.725  14.835  12.490
21912W        W83575  34.439  42.470   4.290
21913W        W83576  22.730   9.746   3.200
21914W        W83577  29.643  31.084   2.678
21915W        W83578  18.275  24.030  12.376
21916W        W83579  26.158  30.065   3.791
21917W        W83580  42.427  23.697   0.896
21918W        W83581  18.601  26.703  14.400
21919W        W83582  10.308  28.594   2.365
21920W        W83583   2.868  27.960  11.454
21921W        W83584  39.350   9.384   2.820
21922W        W83585  43.435  31.544   3.291
21923W        W83586  22.743  27.632  11.518
21924W        W83587  12.190  28.020  10.922
21925W        W83588  27.527  44.789  14.351
21926W        W83589  15.588  26.620   0.835
21927W        W83590   0.348  31.028   1.283
21928W        W83591  16.713  27.571  13.024
21929W        W83592  12.846  21.160   3.752
21930W        W83593   5.202  12.765  13.419
21931W        W83594   1.414   9.760  10.489
21932W        W83595  36.406  41.463  11.091
21933W        W83596  14.810  20.655   4.832
21934W        W83597  43.292   4.352  12.892
21935W        W83598   4.393  21.128  14.923
21936W        W83599  33.611  33.894   4.678
21937W        W83600  26.573  28.113  13.939
21938W        W83601  21.541   2.817   0.890
21939W        W83602   2.771  28.009   4.253
21940W        W83603  14.322  39.028  10.549
21941W        W83604  27.989   3.336   3.770
21942W        W83605  11.216  22.530   2.354
21943W        W83606   5.387   8.318   0.950
21944W        W83607  10.826  23.497  10.920
21945W        W83608  42.891   6.886   2.850
21946W        W83609  36.091  22.118  11.967
21947W        W83610  18.224  21.756  10.992
21948W        W83611   0.752  30.431  10.134
21949W        W83612  43.793   1.479  10.596
21950W        W83613  24.031   3.934   2.826
21951W        W83614   7.306   5.404   4.343
21952W        W83615   7.779  25.031   3.257
21953W        W83616  44.364  41.325  13.382
21954W        W83617  11.320  31.515   0.770
21955W        W83618  11.155  17.190   3.739
21956W        W83619  18.791  37.005  10.982
21957W        W83620   0.419  14.237  10.634
21958W        W83621  40.356  42.948  14.988
21959W        W83622   0.773  37.516  12.075
21960W        W83623  38.966  41.908   0.811
21961W        W83624  13.656  28.180   2.841
21962W        W83625  25.168  40.948   1.717
21963W        W83626  25.156  27.031   2.280
21964W        W83627  28.540  38.360  10.637
21965W        W83628  14.125  19.626   4.744
21966W        W83629  18.245  33.912  12.872
21967W        W83630  33.544  32.427   4.193
21968W        W83631   3.779  38.981   2.801
21969W        W83632  29.984  25.620   2.335
21970W        W83633  22.168   1.451   4.147
21971W        W83634  15.711  15.188  13.902
21972W        W83635   3.345  31.406   4.258
21973W        W83636   8.254  22.506   2.236
21974W        W83637  13.751  29.463  14.020
21975W        W83638  13.837  41.833   3.335
21976W        W83639  20.696  37.945  14.850
21977W        W83640  34.033  14.259   2.360
21978W        W83641  36.469  39.958  14.885
21979W        W83642  15.222   5.405   1.414
21980W        W83643  32.963  44.843  14.871
21981W        W83644   3.878  18.138  13.440
21982W        W83645  40.375  37.495  11.989
21983W        W83646  11.798   9.289  14.833
21984W        W83647  32.961  33.577  10.590
21985W        W83648  18.245  26.497   2.710
21986W        W83649  32.568  26.993  12.383
21987W        W83650  22.647  27.603   3.672
21988W        W83651  34.516   3.450   0.262
21989W        W83652  43.376   0.769  12.508
21990W        W83653  16.787   8.666  12.524
21991W        W83654  21.685  41.397   1.367
21992W        W83655  42.357  36.061  13.401
21993W        W83656  13.605   2.939   3.774
21994W        W83657  23.203  40.022  14.001
21995W        W83658   8.741  15.653  11.438
21996W        W83659  18.659  12.202   3.315
21997W        W83660  17.776   0.355   0.454
21998W        W83661  18.085  39.995  11.069
21999W        W83662  23.677  31.590   1.219
22000W        W83663  21.667   3.760   2.782
22001W        W83664  16.568  20.053  12.897
22002W        W83665  37.026  26.994   4.241
22003W        W83666  29.424  41.803   1.864
22004W        W83667  29.644  43.970  14.338
22005W        W83668  44.399  38.449   3.685
22006W        W83669   3.846  18.252   3.678
22007W        W83670  31.126  10.179  10.061
22008W        W83671  39.463  44.883  12.841
22009W        W83672  20.107  22.612   9.997
22010W        W83673  21.039  33.537   4.294
22011W        W83674  13.813  14.235   3.188
22012W        W83675  18.613  21.188  13.803
22013W        W83676  33.585   9.772   1.841
22014W        W83677   0.928  12.673   1.447
22015W        W83678  19.060  22.615   0.892
22016W        W83679  16.659  32.088   1.895
22017W        W83680   5.883  23.143  12.542
22018W        W83681  21.250  18.248   3.373
22019W        W83682  11.807  41.859   1.848
22020W        W83683   8.209   3.439   2.326
22021W        W83684   6.676   2.231   1.246
22022W        W83685  38.049   9.366   0.479
22023W        W83686  40.542  12.197  12.945
22024W        W83687  12.122  37.013  13.409
22025W        W83688  17.305  21.695   1.411
22026W        W83689   6.899  29.928  10.899
22027W        W83690  40.036  24.219   0.399
22028W        W83691   0.331  25.662   3.185
22029W        W83692   6.736   3.343   2.867
22030W        W83693  20.685  29.623  13.965
22031W        W83694  19.140  40.921   1.769
22032W        W83695  27.488   7.800  13.960
22033W        W83696  13.739  34.421   4.283
22034W        W83697  43.009   3.738   0.810
22035W        W83698  39.926  43.461   4.786
22036W        W83699  38.870  22.706  10.924
22037W        W83700  43.460  19.187   1.349
22038W        W83701  12.177  42.374  14.328
22039W        W83702  34.607  16.096  12.006
22040W        W83703  34.476  23.695   1.377
22041W        W83704  23.565   9.847  11.505
22042W        W83705   9.182   3.725   1.284
22043W        W83706   5.250  14.102  12.003
22044W        W83707   2.813  25.669   2.848
22045W        W83708  32.004  35.029   3.168
22046W        W83709  23.028  18.582   4.744
22047W        W83710   1.750  42.359   0.411
22048W        W83711  14.119  27.544   2.241
22049W        W83712  30.643  11.862  10.568
22050W        W83713  14.336  35.406  14.990
22051W        W83714  38.903  26.953   1.904
22052W        W83715  30.008  12.718  14.813
22053W        W83716   1.247  33.571  12.469
22054W        W83717  35.543   0.337   2.370
22055W        W83718  18.550  30.934   4.692
22056W        W83719  18.739  31.975   2.267
22057W        W83720  43.429   0.784   0.353
22058W        W83721  10.659  11.726  13.893
22059W        W83722   9.885  13.783  12.012
22060W        W83723  25.702  43.016   0.350
22061W        W83724  25.146  30.490  12.974
22062W        W83725  34.980   8.227   4.700
22063W        W83726  27.076   8.819  13.887
22064W        W83727   8.397  26.474  13.948
22065W        W83728  39.397  23.069  14.989
22066W        W83729  15.241  29.481   0.759
22067W        W83730  41.307   1.953  14.868
22068W        W83731  18.121  39.558   3.147
22069W        W83732  16.258  39.855  13.061
22070W        W83733  11.313  21.053   3.208
22071W        W83734  27.463  20.605   1.302
22072W        W83735  44.309  36.535   0.286
22073W        W83736  26.056  42.419  13.004
22074W        W83737  37.352  23.023  10.908
22075W        W83738  27.048  26.471   1.901
22076W        W83739  20.050  27.535  12.902
22077W        W83740  43.315  31.104  12.373
22078W        W83741  24.634  11.768   3.320
22079W        W83742  11.180  38.463  11.592
22080W        W83743  11.343   8.233   4.133
22081W        W83744  42.326  30.050  12.932
22082W        W83745  30.446  14.834  13.943
22083W        W83746   5.363  31.004   2.306
22084W        W83747  21.731  14.673   0.381
22085W        W83748  31.595  22.131   0.876
22086W        W83749   3.795  26.196  13.448
22087W        W83750  28.001  25.527  10.992
22088W        W83751  25.585  11.260  12.965
22089W        W83752  31.493  21.736  10.151
22090W        W83753  14.230   2.288  11.000
22091W        W83754  31.974  38.539   0.358
22092W        W83755   1.375  39.912   4.266
22093W        W83756  40.528  32.554  12.014
22094W        W83757  32.019  44.836  11.080
22095W        W83758  35.577  30.922  11.095
22096W        W83759  37.846  10.829  10.582
22097W        W83760  30.617  33.487   5.310
22098W        W83761  20.747  37.339   1.406
22099W        W83762  19.061  30.021  10.435
22100W        W83763  28.162  44.372  12.516
22101W        W83764  14.160  15.275   2.298
22102W        W83765  11.732   1.807   5.081
22103W        W83766   0.821  22.096   2.811
22104W        W83767   5.712  20.264   0.466
22105W        W83768  43.284  33.497  13.460
22106W        W83769  44.424   8.184   2.877
22107W        W83770  24.606  13.187  14.887
22108W        W83771  43.770  24.066  12.417
22109W        W83772   0.321  12.287   2.677
22110W        W83773  31.130  14.269  11.034
22111W        W83774  42.286  29.613   0.297
22112W        W83775  17.753  40.022  11.084
22113W        W83776  17.562  34.878   2.221
22114W        W83777  21.245  31.152   0.358
22115W        W83778  25.020   5.212  10.135
22116W        W83779  40.840  32.488   3.302
22117W        W83780  32.517   4.267   2.807
22118W        W83781   7.174  19.730  12.094
22119W        W83782  25.010   2.350  13.970
22120W        W83783  26.494  25.041  14.892
22121W        W83784  38.346   5.425  12.365
22122W        W83785  35.969  21.514  14.983
22123W        W83786  44.296  21.611  14.909
22124W        W83787  21.620   7.379   3.778
22125W        W83788   7.256  42.029  11.017
22126W        W83789  36.038  24.661  12.899
22127W        W83790   3.443  31.454  10.448
22128W        W83791  36.860  11.141   1.860
22129W        W83792   4.413   1.908  12.409
22130W        W83793   9.730  15.743   2.823
22131W        W83794   8.311   0.494   3.212
22132W        W83795  37.880  15.584   5.227
22133W        W83796  40.997  39.958   2.711
22134W        W83797  11.248  17.770  14.767
22135W        W83798  37.918  26.089  13.529
22136W        W83799   2.282  23.133  12.527
22137W        W83800  28.620  18.203   2.721
22138W        W83801  25.479  35.551  14.863
22139W        W83802  25.055   0.299  10.974
22140W        W83803  37.530  43.917   3.314
22141W        W83804   6.783  25.469  12.950
22142W        W83805  32.919  11.333   1.315
22143W        W83806  24.714   2.931   2.711
22144W        W83807  38.430  19.691   0.804
22145W        W83808  23.170  37.912   0.271
22146W        W83809   0.347  20.216  12.427
22147W        W83810  21.531  26.536  12.849
22148W        W83811  14.160  10.868   1.374
22149W        W83812  28.548  25.660  11.885
22150W        W83813  41.817  14.253   4.176
22151W        W83814  11.840  35.544  12.992
22152W        W83815  39.353   3.796  10.488
22153W        W83816  31.001  12.855   0.284
22154W        W83817  20.559  35.476  13.471
22155W        W83818  43.963  21.019  11.522
22156W        W83819  33.392  20.741  12.949
22157W        W83820  35.573  27.179  13.474
22158W        W83821   9.369  33.931  14.957
22159W        W83822  12.241  33.882  13.956
22160W        W83823   5.209   1.260  12.050
22161W        W83824  20.640  19.748  14.433
22162W        W83825  20.148   9.269   3.784
22163W        W83826  42.346  29.043   3.665
22164W        W83827  12.741  17.558   1.309
22165W        W83828  41.040  29.083   1.415
22166W        W83829  26.457  17.582   4.331
22167W        W83830  40.886   9.781  10.623
22168W        W83831  30.562  32.495   0.431
22169W        W83832  27.151  39.341  12.514
22170W        W83833  27.485  17.231   3.723
22171W        W83834   7.223  22.173   0.298
22172W        W83835  21.187  17.714   1.347
22173W        W83836  19.742   9.239   0.336
22174W        W83837  19.644  23.686   0.843
22175W        W83838  11.220  31.423  13.010
22176W        W83839  19.676  10.759   2.699
22177W        W83840   7.410  42.416   2.205
22178W        W83841  15.160  29.145   2.356
22179W        W83842  19.104  39.554  12.839
22180W        W83843   6.731  23.651  12.840
22181W        W83844  21.628  26.069   3.671
22182W        W83845   3.926  33.000  14.965
22183W        W83846  14.786  31.925   0.811
22184W        W83847  36.916  28.652  13.408
22185W        W83848  16.690  28.498   2.861
22186W        W83849  14.718  18.642  12.012
22187W        W83850  19.760  27.626  13.327
22188W        W83851  24.595  44.798  14.399
22189W        W83852  25.176  11.180  10.553
22190W        W83853  25.665  16.223   0.337
22191W        W83854  41.413  44.266   0.476
22192W        W83855  31.439   8.290  14.824
22193W        W83856   3.796  39.976  13.039
22194W        W83857  29.142  13.737  11.050
22195W        W83858  29.944  38.459  10.965
22196W        W83859  18.236  38.367   0.805
22197W        W83860  17.792   2.759  10.992
22198W        W83861  24.994  23.686   4.626
22199W        W83862  40.479   4.438   3.798
22200W        W83863  14.744  28.067  11.510
22201W        W83864  30.982  18.246   1.778
22202W        W83865  21.511  37.357  11.886
22203W        W83866   0.937  28.625  11.513
22204W        W83867  44.848  34.006   2.408
22205W        W83868   0.882  32.956   4.690
22206W        W83869  44.374  34.592  14.782
22207W        W83870   7.390   0.407  14.432
22208W        W83871  21.537  10.333   2.324
22209W        W83872  11.292  39.473   1.908
22210W        W83873  31.043   7.405  13.033
22211W        W83874  39.884  26.557  13.820
22212W        W83875  15.772   9.362  13.431
22213W        W83876  12.824  43.988  11.903
22214W        W83877  27.995  34.040   3.857
22215W        W83878  17.144  26.625  11.952
22216W        W83879   6.301  42.013   4.136
22217W        W83880   1.457  31.081  11.420
22218W        W83881  23.594  26.528   1.729
22219W        W83882  40.467  28.589  14.291
22220W        W83883  41.924  40.943   2.834
22221W        W83884  20.185  23.133   2.752
22222W        W83885   9.659  40.534  10.913
22223W        W83886  35.532  16.292  13.007
22224W        W83887  15.254  26.576   1.250
22225W        W83888  23.188  31.477   4.789
22226W        W83889  42.971   0.879  12.423
22227W        W83890   4.899  21.046   1.739
22228W        W83891  25.078  12.240  10.570
22229W        W83892  34.985  31.626  11.382
22230W        W83893  44.324  20.538  13.522
22231W        W83894  25.612  35.908   9.998
22232W        W83895  36.068  14.689   3.181
22233W        W83896  17.188  33.504   0.419
22234W        W83897  29.956  44.769  10.911
22235W        W83898  35.422  38.430  12.449
22236W        W83899  17.594  36.007   0.261
22237W        W83900  38.469  39.405  13.831
22238W        W83901  25.601  13.255   2.283
22239W        W83902  10.679  24.619   0.868
22240W        W83903   5.305  29.094  12.455
22241W        W83904  40.366   9.342   2.880
22242W        W83905  13.844  29.660   0.354
22243W        W83906  10.254  10.669   2.292
22244W        W83907   8.188  43.343   0.387
22245W        W83908  36.984  21.726   3.767
22246W        W83909   4.757  16.308  13.365
22247W        W83910  21.089  38.487  11.883
22248W        W83911  13.769  43.949   3.348
22249W        W83912   7.735  35.394   0.912
22250W        W83913  13.225  43.491  14.915
22251W        W83914   6.744   3.893  13.042
22252W        W83915  44.317  38.003   4.778
22253W        W83916  43.348   7.279   2.746
22254W        W83917  18.113   3.273   4.685
22255W        W83918  27.987  40.878   2.876
22256W        W83919  18.599  34.578   0.430
22257W        W83920  12.356  43.511  10.442
22258W        W83921  10.755  39.926   0.895
22259W        W83922  22.537   3.444  11.901
22260W        W83923  43.970  21.070   0.446
22261W        W83924  28.183  18.566   3.213
22262W        W83925  24.584   1.781  10.112
22263W        W83926  17.756   3.454   0.331
22264W        W83927  18.637   8.243   3.169
22265W        W83928   6.760  18.775  14.305
22266W        W83929  35.487  14.717   0.406
22267W        W83930  26.520  11.192   4.641
22268W        W83931  38.984  12.144   2.213
22269W        W83932  24.558  43.372   4.217
22270W        W83933  22.066  16.148  10.424
22271W        W83934   5.885  13.230   1.769
22272W        W83935  35.999  34.504   2.749
22273W        W83936  10.760  13.761  14.999
22274W        W83937  19.257  38.541  14.971
22275W        W83938  11.705  29.986  14.889
22276W        W83939  42.821  20.539  10.611
22277W        W83940  32.953   8.782   2.252
22278W        W83941  36.452  10.649   0.853
22279W        W83942   8.328   6.821  12.553
22280W        W83943  31.001  11.650  14.009
22281W        W83944  30.563  23.053  12.012
22282W        W83945  28.565   8.206   3.651
22283W        W83946  33.031  27.031   1.273
22284W        W83947  36.072  43.877   2.304
22285W        W83948  15.621   2.355  14.484
22286W        W83949   0.904   4.216   2.827
22287W        W83950  41.526  41.884   2.376
22288W        W83951  30.913  29.548  12.898
22289W        W83952  44.990   7.215   3.762
22290W        W83953  36.850  30.124   4.318
22291W        W83954  12.718  20.048  13.344
22292W        W83955  35.449  38.342  10.634
22293W        W83956  26.500  29.112  10.472
22294W        W83957  16.576   9.647   4.252
22295W        W83958  36.040  16.744   2.815
22296W        W83959   4.945  42.318  13.910
22297W        W83960  43.299  40.849   2.414
22298W        W83961   2.324   0.742   0.343
22299W        W83962  39.939   3.453   3.189
22300W        W83963   8.310  16.241   1.409
22301W        W83964  29.628   9.734   1.235
22302W        W83965  27.962  22.629   2.689
22303W        W83966  10.140   2.956  13.354
22304W        W83967  36.368  38.058  13.944
22305W        W83968  38.014   8.661   1.275
22306W        W83969  34.898   0.489   4.679
22307W        W83970  33.391   4.911  13.824
22308W        W83971   7.686   1.332   0.757
22309W        W83972  44.310  33.110  10.421
22310W        W83973  44.849  26.682  10.929
22311W        W83974  25.164   1.308   2.690
22312W        W83975   1.909   2.866   0.272
22313W        W83976   8.801  19.053  11.039
22314W        W83977  22.116  16.117   3.328
22315W        W83978  13.697  33.967  12.573
22316W        W83979  22.140  23.007   4.257
22317W        W83980  44.429  26.161  14.450
22318W        W83981  35.034  38.457  13.361
22319W        W83982  25.002   5.243  13.051
22320W        W83983   1.323  20.086  13.383
22321W        W83984  40.437  36.395  10.460
22322W        W83985   8.722   7.202  11.545
22323W        W83986  12.203  40.361   2.749
22324W        W83987  29.534  41.365   3.324
22325W        W83988  40.967   0.319   2.874
22326W        W83989  27.511   0.342  14.488
22327W        W83990   8.363  13.758   1.323
22328W        W83991  24.072  27.181   1.305
22329W        W83992  40.549  22.208  10.504
22330W        W83993  12.650   1.952  13.984
22331W        W83994   8.242   7.745  14.917
22332W        W83995   8.315  24.068   0.948
22333W        W83996   9.668  10.690   2.805
22334W        W83997  20.547   8.712  10.618
22335W        W83998  19.569  28.038  14.350
22336W        W83999  35.506  30.550   4.234
22337W        W84000  24.621   9.196  13.401
22338W        W84001  12.636  22.678  12.960
22339W        W84002  38.073  35.571   2.726
22340W        W84003  10.809  43.349  11.017
22341W        W84004  43.889  35.938   3.717
22342W        W84005  35.391  16.604   4.781
22343W        W84006  18.642  19.632   1.348
22344W        W84007  11.242  33.009   0.737
22345W        W84008  32.016   2.912  12.391
22346W        W84009  13.824  11.146  14.482
22347W        W84010   0.857  28.105   5.214
22348W        W84011   7.277   6.323  12.900
22349W        W84012  15.789  37.467   0.881
22350W        W84013  43.349  21.609   1.762
22351W        W84014   1.462  17.298   1.361
22352W        W84015  31.434  10.765   2.240
22353W        W84016  44.960  33.571   1.749
22354W        W84017  21.558   0.863   3.211
22355W        W84018   9.882   8.289   2.824
22356W        W84019  13.732  28.540  13.417
22357W        W84020  38.449  16.293   4.153
22358W        W84021  40.993  12.758   5.285
22359W        W84022   8.705   6.692   0.954
22360W        W84023  40.464  28.162   1.241
22361W        W84024   8.753  21.043  11.467
22362W        W84025   1.898  29.093  13.471
22363W        W84026  38.871  28.079   3.236
22364W        W84027  32.515   8.869  10.617
22365W        W84028  30.011   7.366  10.899
22366W        W84029  41.806  28.108   2.340
22367W        W84030  35.404  23.137   4.336
22368W        W84031  28.040  44.804  13.442
22369W        W84032  15.138  16.728  10.630
22370W        W84033  42.999  21.230   4.804
22371W        W84034  28.549  41.523  14.933
22372W        W84035  44.434  27.474  11.128
22373W        W84036   1.456  22.522   1.935
22374W        W84037  28.052  36.468   4.165
22375W        W84038  38.566  43.464   3.333
22376W        W84039  27.159  22.602   0.432
22377W        W84040  33.560  34.969  13.015
22378W        W84041  26.087  39.919  11.569
22379W        W84042  13.718  31.094  12.516
22380W        W84043  25.070  30.063   3.839
22381W        W84044   6.207   8.684   1.700
22382W        W84045  36.857  39.864   1.761
22383W        W84046  37.078  40.963  10.487
22384W        W84047  31.112   4.891  12.526
22385W        W84048  23.101   9.254  13.434
22386W        W84049   2.833  16.077  14.928
22387W        W84050   6.366  33.130  13.044
22388W        W84051  17.062  38.963  12.912
22389W        W84052   2.810  11.150  13.873
22390W        W84053  12.124   6.906  14.490
22391W        W84054  19.142  24.550  11.607
22392W        W84055  36.018  39.050  14.338
22393W        W84056   0.984  41.797  12.469
22394W        W84057   9.158  20.535  14.441
22395W        W84058  35.385  22.123   2.293
22396W        W84059  11.263  34.024  13.492
22397W        W84060  18.746   1.832   1.905
22398W        W84061  18.650   0.283   1.365
22399W        W84062   8.759   7.291   1.901
22400W        W84063  25.970  43.297  11.054
22401W        W84064  28.525   8.684   4.182
22402W        W84065  42.907  44.783   4.790
22403W        W84066  14.756   7.397  10.421
22404W        W84067  12.192  23.115  10.925
22405W        W84068  36.997  17.152   2.280
22406W        W84069  34.968  30.443   1.265
22407W        W84070   6.810  26.696  13.816
22408W        W84071   4.927  31.626   2.715
22409W        W84072  35.871   5.432  13.420
22410W        W84073   4.829  29.143  11.446
22411W        W84074   8.861  21.177   0.476
22412W        W84075  10.205  31.494  14.313
22413W        W84076  10.656  15.762   0.760
22414W        W84077  44.503   4.716   2.343
22415W        W84078   4.329  21.164   1.913
22416W        W84079  22.248  25.480  13.905
22417W        W84080  16.581  40.967   1.881
22418W        W84081   2.304  10.364  11.536
22419W        W84082  43.004  40.985   4.817
22420W        W84083   6.241   1.865  11.907
22421W        W84084   8.240   0.819   1.313
22422W        W84085  26.581  17.568   4.754
22423W        W84086  30.412   2.472  13.920
22424W        W84087  16.152  19.728   2.417
22425W        W84088  22.680  44.295   0.909
22426W        W84089  23.604  31.964   1.895
22427W        W84090  23.206  40.995  12.412
22428W        W84091   8.850  24.138  12.476
22429W        W84092   6.185  20.577  10.516
22430W        W84093   2.250  14.225  12.515
22431W        W84094  30.949   5.922   3.851
22432W        W84095  30.998  37.048  12.423
22433W        W84096   1.432  35.916  11.911
22434W        W84097  27.029  32.519  12.570
22435W        W84098   7.314  26.647  10.974
22436W        W84099  38.381  19.281  14.805
22437W        W84100  35.578  12.846  14.403
22438W        W84101  39.947   2.236   4.328
22439W        W84102   4.405  41.495  14.495
22440W        W84103  43.516  28.018   3.762
22441W        W84104  23.227  17.082   3.201
22442W        W84105  15.199  11.705  11.385
22443W        W84106  19.721  38.043   4.180
22444W        W84107  41.015  27.688   3.164
22445W        W84108  33.624  33.471  14.797
22446W        W84109  31.983  27.678   2.681
22447W        W84110  32.479  41.807  10.927
22448W        W84111  28.020  26.015   2.319
22449W        W84112  10.303   4.815   3.365
22450W        W84113  17.742  34.515   1.291
22451W        W84114  23.674   5.845  13.062
22452W        W84115   7.380  14.154   3.814
22453W        W84116  24.576  21.182   4.676
22454W        W84117  20.631  26.643   3.785
22455W        W84118   1.928   5.874  14.860
22456W        W84119  12.721  25.555  10.911
22457W        W84120   7.855  37.508   1.916
22458W        W84121  35.944  43.271  10.595
22459W        W84122  41.446   0.412  14.946
22460W        W84123  27.632   7.176  12.829
22461W        W84124  13.657  35.517  12.910
22462W        W84125  24.541  37.007  10.547
22463W        W84126   0.300  28.509  13.986
22464W        W84127  38.505  18.173   3.377
22465W        W84128  33.085  30.447   0.849
22466W        W84129  21.252  38.392  11.470
22467W        W84130  32.005  38.022   3.779
22468W        W84131  11.637  12.830   0.269
22469W        W84132   0.297  24.681  12.399
22470W        W84133  21.083  34.938   3.650
22471W        W84134   6.275  15.108   4.769
22472W        W84135  36.465  24.147  10.542
22473W        W84136  29.548  11.730   3.151
22474W        W84137  41.295  15.798  10.953
22475W        W84138  25.056   4.371  12.511
22476W        W84139  15.124  24.495  12.090
22477W        W84140  25.661  15.657   3.334
22478W        W84141  36.470   4.931  11.404
22479W        W84142  13.188   3.821  14.956
22480W        W84143  42.824   6.798   3.676
22481W        W84144   3.278  38.881  14.300
22482W        W84145   1.887  28.002  13.349
22483W        W84146  23.154   3.838   3.695
22484W        W84147  13.154  18.131  11.426
22485W        W84148  19.092  10.697  10.939
22486W        W84149  12.681   6.255   0.481
22487W        W84150  16.121  38.878  12.052
22488W        W84151   6.817  43.505   4.703
22489W        W84152   6.339  37.527  12.884
22490W        W84153   3.359  40.430  11.992
22491W        W84154  39.392  29.067   1.886
22492W        W84155  10.180  31.123   0.355
22493W        W84156  36.013  39.824  10.497
22494W        W84157  28.936  39.963   3.226
22495W        W84158  39.835  32.543   1.768
22496W        W84159   4.822   8.798   0.912
22497W        W84160  25.569   3.948   0.826
22498W        W84161   4.700  26.171  11.433
22499W        W84162   9.745  40.483   2.709
22500W        W84163  36.962   1.774   2.812
22501W        W84164  34.401  43.021   1.415
22502W        W84165  21.126  32.118   0.271
22503W        W84166  23.731  31.992  13.433
22504W        W84167  33.413   9.203  14.914
22505W        W84168  30.556  27.074   4.161
22506W        W84169  12.236   6.811   2.373
22507W        W84170  41.993  43.321  11.924
22508W        W84171   2.419  44.355  11.997
22509W        W84172   3.872  35.408   3.248
22510W        W84173  14.667  26.530  11.963
22511W        W84174  36.500  14.652   3.639
22512W        W84175  26.963  41.020  14.513
22513W        W84176  26.605  26.040   1.933
22514W        W84177  22.555  36.000   0.283
22515W        W84178  25.568   6.260   4.141
22516W        W84179  39.989  21.124   1.795
22517W        W84180  23.695  33.937  14.377
22518W        W84181   5.693  29.996  12.029
22519W        W84182  29.433  42.368  10.121
22520W        W84183  34.107   3.795   4.731
22521W        W84184  19.173   1.768   5.262
22522W        W84185   2.901  38.411  13.879
22523W        W84186   7.679  29.118  13.472
22524W        W84187  18.602   1.379   2.789
22525W        W84188  42.508  10.268   1.380
22526W        W84189  39.470  12.799   3.356
22527W        W84190  16.808  29.556  11.025
22528W        W84191  41.310  37.906   4.723
22529W        W84192  26.952  44.970  14.428
22530W        W84193  10.678  12.625  14.931
22531W        W84194  13.700  13.675  12.474
22532W        W84195  27.489  39.478   2.769
22533W        W84196  11.631  12.352  14.349
22534W        W84197  35.003  33.920  10.612
22535W        W84198  35.370  44.753  12.972
22536W        W84199  30.534   2.270  13.396
22537W        W84200  38.454  25.198   3.276
22538W        W84201  27.161  10.320   1.808
22539W        W84202  22.669  30.156  12.006
22540W        W84203  24.705  19.601   2.863
22541W        W84204  38.960  26.642  11.975
22542W        W84205  14.597  31.143   2.415
22543W        W84206  38.513   7.299   0.267
22544W        W84207  41.912  14.230   2.777
22545W        W84208  26.199  30.920   1.753
22546W        W84209  26.142  32.918   2.309
22547W        W84210   5.834  44.279  13.514
22548W        W84211   6.882  34.880  10.966
22549W        W84212  12.170  21.755  11.873
22550W        W84213  38.000  33.017   2.719
22551W        W84214   4.353  39.998  13.495
22552W        W84215   0.985   3.355   1.330
22553W        W84216  41.493  34.566  11.425
22554W        W84217  38.009  37.009   3.719
22555W        W84218   9.317   6.401  11.424
22556W        W84219  29.969   3.371  12.479
22557W        W84220  32.991  22.214  12.943
22558W        W84221  21.088  10.759  13.504
22559W        W84222   0.394  39.458  13.862
22560W        W84223  34.919  43.400  10.945
22561W        W84224  38.835   6.833   0.753
22562W        W84225  30.921  43.791   2.285
22563W        W84226  41.870  23.524  11.421
22564W        W84227  12.713  22.091  11.865
22565W        W84228  39.391  32.489  11.485
22566W        W84229   5.757  20.272  11.914
22567W        W84230  25.210  13.802   4.147
22568W        W84231  37.574   4.209  14.978
22569W        W84232   6.243   5.844  11.884
22570W        W84233  42.367  24.037  12.362
22571W        W84234  23.671  24.126  13.966
22572W        W84235  10.757  34.473  10.422
22573W        W84236  12.241  26.475   4.726
22574W        W84237  25.591  34.561   2.308
22575W        W84238  35.101  29.636  13.439
22576W        W84239   2.413  30.616   2.394
22577W        W84240  41.439   0.827   2.334
22578W        W84241  12.320  34.880   2.336
22579W        W84242  37.923  25.084   0.834
22580W        W84243  10.171  39.484   2.846
22581W        W84244  38.343  36.584   2.869
22582W        W84245  29.562  15.613  14.965
22583W        W84246  23.715  22.014  11.530
22584W        W84247  11.372   3.344   3.320
22585W        W84248  24.106  26.527   3.656
22586W        W84249  26.083   4.254   2.195
22587W        W84250  17.703  27.642   3.281
22588W        W84251  12.171  20.213  13.952
22589W        W84252  27.969  30.082  13.028
22590W        W84253  14.635  36.586   3.356
22591W        W84254  19.777   5.696  13.366
22592W        W84255  36.093  28.463   0.732
22593W        W84256  44.335  18.626  12.022
22594W        W84257  14.120  35.034   1.724
22595W        W84258  16.072  16.795   4.720
22596W        W84259  17.739  35.573  11.932
22597W        W84260  19.184  31.976   4.662
22598W        W84261  18.763  26.128  13.855
22599W        W84262  17.599  15.275   3.728
22600W        W84263  28.482  12.839   2.793
22601W        W84264  42.364  34.957  13.871
22602W        W84265  33.440  18.209  14.944
22603W        W84266   0.423  27.127   4.682
22604W        W84267  39.018  40.880  11.470
22605W        W84268  29.958  19.111  11.557
22606W        W84269  26.962  34.608  14.825
22607W        W84270  18.570  28.436   3.632
22608W        W84271  22.644   1.821  10.617
22609W        W84272  13.301  12.662  12.425
22610W        W84273  20.143   1.255  12.977
22611W        W84274  31.963  12.773  10.135
22612W        W84275  29.499  17.242   0.808
22613W        W84276  38.914   4.780   0.945
22614W        W84277  18.645  37.429  10.643
22615W        W84278  37.537  15.586  14.844
22616W        W84279  22.628   1.303  13.816
22617W        W84280  28.669  22.641  11.041
22618W        W84281  33.066   5.321  12.828
22619W        W84282  15.096  40.420  10.928
22620W        W84283   9.382  40.995   1.722
22621W        W84284  35.922  12.174  12.565
22622W        W84285  27.182  21.721  12.400
22623W        W84286  25.055  36.033  13.993
22624W        W84287  19.164  21.608   0.749
22625W        W84288  24.198  23.232  10.016
22626W        W84289  28.518  44.381  14.283
22627W        W84290  33.528  33.579  13.443
22628W        W84291  16.675  32.602  11.944
22629W        W84292  19.703   2.355  14.414
22630W        W84293  17.591  44.946  12.841
22631W        W84294  11.631  27.598  12.506
22632W        W84295  22.228  26.133  10.535
22633W        W84296  30.988  37.550  10.120
22634W        W84297  20.140  13.650  14.437
22635W        W84298   7.182  25.668   2.279
22636W        W84299  38.841  23.672   1.817
22637W        W84300  42.879  43.764   2.302
22638W        W84301   8.832  37.856   0.908
22639W        W84302   9.302  26.636   0.759
22640W        W84303  24.680   2.788  13.793
22641W        W84304  44.464  12.685   3.840
22642W        W84305  10.168  29.933  11.969
22643W        W84306  35.910  42.834   1.932
22644W        W84307   8.406  17.781   4.284
22645W        W84308  17.620   5.199  10.621
22646W        W84309  29.003  30.564   2.812
22647W        W84310   5.272  18.214  11.053
22648W        W84311  41.007  19.636   4.836
22649W        W84312  21.551  43.014  14.384
22650W        W84313  40.953  27.970   2.701
22651W        W84314  24.053  15.647   4.809
22652W        W84315  15.282  40.454   1.722
22653W        W84316   7.886  32.426  13.828
22654W        W84317  27.940   3.893  14.472
22655W        W84318   3.907  42.387   2.852
22656W        W84319   2.882  15.786   0.908
22657W        W84320  24.589  21.750   2.697
22658W        W84321   9.353  40.049  13.005
22659W        W84322  38.036   2.456   2.251
22660W        W84323  11.814  19.645  14.305
22661W        W84324  29.037  28.500  13.933
22662W        W84325  20.240  26.579  14.471
22663W        W84326   0.892   9.873  14.015
22664W        W84327  38.431  42.323  11.982
22665W        W84328  42.514  32.077  12.978
22666W        W84329  43.986  28.045  14.456
22667W        W84330  30.452  23.634   4.777
22668W        W84331  16.733  22.669   2.317
22669W        W84332  25.203  20.218   3.228
22670W        W84333  34.909  35.072   2.261
22671W        W84334  25.016  19.772   2.411
22672W        W84335  30.562  37.534   2.691
22673W        W84336  31.021  21.617   0.342
22674W        W84337  39.496   4.397   3.198
22675W        W84338  40.408  38.902  14.940
22676W        W84339  40.833  26.637   2.852
22677W        W84340  43.812  32.425   0.912
22678W        W84341  13.742  18.289   0.348
22679W        W84342   3.943  19.768   0.340
22680W        W84343   7.372  40.468  13.509
22681W        W84344  23.196   7.884   1.906
22682W        W84345  18.733  44.464   0.758
22683W        W84346  14.602  44.418   1.328
22684W        W84347  23.585   6.186  12.577
22685W        W84348  37.559   4.282   0.395
22686W        W84349   4.426  18.663   4.291
22687W        W84350  16.180  43.829   0.919
22688W        W84351  24.659   0.380   5.230
22689W        W84352  23.005  31.518  11.908
22690W        W84353  30.153  39.047   2.407
22691W        W84354  15.670  19.257  11.082
22692W        W84355  25.588   9.195  13.874
22693W        W84356   0.458  11.624   4.648
22694W        W84357  30.040  14.758  10.939
22695W        W84358  16.740  39.822  14.993
22696W        W84359  18.716  36.006  12.412
22697W        W84360  10.166  16.655  12.095
22698W        W84361   5.431   6.881  13.015
22699W        W84362  25.008   3.294  13.434
22700W        W84363  30.111  26.701   4.798
22701W        W84364   4.853  10.663   2.844
22702W        W84365  41.820   2.840   4.275
22703W        W84366  17.797  14.148  11.863
22704W        W84367  22.128   3.876   0.475
22705W        W84368  39.534   1.884   3.353
22706W        W84369   1.794  29.428  12.479
22707W        W84370  19.555  23.603  10.144
22708W        W84371   1.939  35.476  12.096
22709W        W84372   2.862  26.136   2.709
22710W        W84373   0.849  29.573  14.014
22711W        W84374  34.986   7.873   1.314
22712W        W84375   5.857  23.676  13.796
22713W        W84376   0.909   5.275  11.085
22714W        W84377  24.977  16.079  11.858
22715W        W84378  24.175  13.179   3.719
22716W        W84379  38.965  41.034  13.871
22717W        W84380  39.334  25.125  14.464
22718W        W84381   9.783   1.953   3.265
22719W        W84382  38.425   8.178   4.208
22720W        W84383  23.598  42.941   2.790
22721W        W84384  44.924  35.982   2.878
22722W        W84385  37.461   4.232  12.425
22723W        W84386   0.468  23.063  11.440
22724W        W84387  36.358   3.844   3.840
22725W        W84388  11.811  11.840  10.995
22726W        W84389  14.602   5.367  13.982
22727W        W84390  36.554   4.262   0.930
22728W        W84391   1.794  44.888   3.248
22729W        W84392  44.264   6.359   0.282
22730W        W84393  41.493  36.070  13.538
22731W        W84394  23.709  25.557  13.024
22732W        W84395  21.093  33.100  11.995
22733W        W84396   6.771  25.014  10.971
22734W        W84397  30.923   7.395   3.842
22735W        W84398  17.066  42.025  10.973
22736W        W84399   5.294   9.687  12.865
22737W        W84400  20.618   3.755  12.558
22738W        W84401   6.677  17.670  14.948
22739W        W84402  44.431  19.274   1.259
22740W        W84403   5.413  40.396   3.367
22741W        W84404  38.358  17.778   1.348
22742W        W84405  42.989  26.603   5.221
22743W        W84406  39.865  17.601  11.060
22744W        W84407  28.592  19.181  11.422
22745W        W84408  17.749  43.982   3.233
22746W        W84409  18.690  27.968   4.292
22747W        W84410  38.039  16.253  14.314
22748W        W84411  16.566  17.791  12.961
22749W        W84412  40.484  38.446  12.885
22750W        W84413  39.915  38.872  10.476
22751W        W84414  22.610  24.066  13.958
22752W        W84415  39.915  40.519   3.640
22753W        W84416  36.538  11.296   2.354
22754W        W84417  23.992  27.975   2.353
22755W        W84418  32.079  25.042  12.026
22756W        W84419  25.511  15.693  13.444
22757W        W84420   8.222  34.912  14.392
22758W        W84421  21.700  20.762   3.236
22759W        W84422  39.412  27.118   4.160
22760W        W84423  14.743  30.929   4.144
22761W        W84424  32.052  16.693   2.823
22762W        W84425  17.284  37.576  12.883
22763W        W84426   6.884  30.477  14.422
22764W        W84427  37.073   5.299   3.797
22765W        W84428  11.794  30.463  13.382
22766W        W84429  34.375  22.737   2.234
22767W        W84430   5.371  12.186   2.370
22768W        W84431  39.897  43.787  12.005
22769W        W84432  11.367  16.643  13.853
22770W        W84433  32.540  34.566  10.515
22771W        W84434   1.755   7.357  11.545
22772W        W84435  29.977  39.902  11.885
22773W        W84436   5.733  33.608   4.657
22774W        W84437  34.960  26.976   0.256
22775W        W84438  13.161  27.024   1.400
22776W        W84439   3.334  29.163  14.967
22777W        W84440   1.263  36.941   2.704
22778W        W84441   5.194  40.000   3.633
22779W        W84442  19.227  34.485  12.397
22780W        W84443  21.689  40.030  10.532
22781W        W84444  21.232  10.241  12.370
22782W        W84445   9.878  18.551  13.392
22783W        W84446  28.509  17.719  12.917
22784W        W84447   0.324  42.822  12.842
22785W        W84448  21.043  40.354  11.059
22786W        W84449  35.418  31.501  10.470
22787W        W84450  11.693   3.223  14.305
22788W        W84451   0.381  27.959   0.369
22789W        W84452  39.465   0.757  10.618
22790W        W84453  43.917  19.260   2.220
22791W        W84454   8.677  20.169  13.961
22792W        W84455  12.687  12.115  14.375
22793W        W84456  23.140  44.836  13.018
22794W        W84457  27.594  41.029  12.383
22795W        W84458  30.031  15.272   1.696
22796W        W84459   9.169   1.320  12.036
22797W        W84460  34.955  38.844   4.285
22798W        W84461  21.682   4.283   3.350
22799W        W84462  10.834   5.710  12.921
22800W        W84463  20.666  44.313   0.405
22801W        W84464   6.332  11.196   1.729
22802W        W84465  32.131  10.190  14.278
22803W        W84466  24.143   8.864  12.871
22804W        W84467  14.298  40.030   3.256
22805W        W84468  20.119  30.586   4.616
22806W        W84469   6.809   5.799  10.418
22807W        W84470  37.941  28.518   3.677
22808W        W84471  10.685  23.679  11.971
22809W        W84472  23.562  17.260   2.833
22810W        W84473   0.493  15.780   0.909
22811W        W84474   6.309   8.288   0.930
22812W        W84475  27.591   0.292   0.879
22813W        W84476   8.709   5.780   5.246
22814W        W84477   8.294  17.268  10.449
22815W        W84478  18.570  40.522   1.774
22816W        W84479  40.827  28.137  12.412
22817W        W84480  23.101   2.779   3.717
22818W        W84481  29.443   7.841  13.042
22819W        W84482  26.066  27.670   3.168
22820W        W84483  43.869  39.042  13.536
22821W        W84484  21.520  24.004   0.343
22822W        W84485  19.225   5.384   3.344
22823W        W84486   1.378  28.605   3.703
22824W        W84487  23.729  19.772  13.865
22825W        W84488  34.536  25.050   4.656
22826W        W84489  34.946   9.158  14.279
22827W        W84490  11.310  27.601   2.282
22828W        W84491  36.362  40.468   1.828
22829W        W84492  29.525   6.868   0.812
22830W        W84493  26.983  14.665   3.170
22831W        W84494   0.462  32.933  13.459
22832W        W84495  12.279  13.759  10.921
22833W        W84496  25.993   7.882  14.898
22834W        W84497  39.484  25.609  13.882
22835W        W84498   9.387  28.599   1.857
22836W        W84499  42.410  21.720  13.362
22837W        W84500  40.979   4.300  11.967
22838W        W84501  22.243  11.728  14.280
22839W        W84502  15.181  13.140  11.952
22840W        W84503  32.080  17.678  11.888
22841W        W84504  23.578   5.292   3.367
22842W        W84505   4.259  44.500   2.667
22843W        W84506  27.045   3.252   3.232
22844W        W84507  36.020   8.223   3.701
22845W        W84508  32.886  28.118   3.851
22846W        W84509  21.147  29.004   0.476
22847W        W84510  29.972   3.831  10.607
22848W        W84511  33.917  20.199   2.226
22849W        W84512   7.205   8.402  10.494
22850W        W84513  42.012  19.265   2.412
22851W        W84514  39.061   2.385   0.860
22852W        W84515  12.840  15.701   4.653
22853W        W84516  12.846  20.036   3.372
22854W        W84517  27.528  24.627   2.787
22855W        W84518  36.989  21.559  11.928
22856W        W84519  10.749  10.252  11.984
22857W        W84520  40.312   4.766  11.447
22858W        W84521  32.509   6.755  10.018
22859W        W84522   2.823  35.364  10.966
22860W        W84523  26.554  11.309  11.525
22861W        W84524  37.396  13.253  12.483
22862W        W84525  44.994   4.797   4.828
22863W        W84526  37.540  31.411  12.485
22864W        W84527  37.839   5.217   0.391
22865W        W84528  36.040  36.958  10.624
22866W        W84529  23.118   1.448  11.899
22867W        W84530   4.359  36.075   1.811
22868W        W84531  37.957  24.054   4.791
22869W        W84532  22.708  43.911   2.308
22870W        W84533  24.101  16.199   4.720
22871W        W84534  32.968  17.688   1.743
22872W        W84535  32.976   0.291   1.264
22873W        W84536   1.942   3.953  11.407
22874W        W84537   4.212  23.083   0.874
22875W        W84538  19.775  16.568  11.885
22876W        W84539  22.007  11.799   4.784
22877W        W84540  34.419  20.638   2.744
22878W        W84541  18.159  31.019   1.368
22879W        W84542  29.971  22.062   2.685
22880W        W84543  44.501   6.288   3.302
22881W        W84544  27.152   8.783  11.384
22882W        W84545  24.200  44.436   2.872
22883W        W84546  22.555  16.769  13.888
22884W        W84547  10.360  36.452   0.265
22885W        W84548  29.062  42.007  11.380
22886W        W84549   3.273  10.245  10.077
22887W        W84550  39.021  43.495   1.307
22888W        W84551  22.140  28.493   0.470
22889W        W84552  10.344   7.886   1.850
22890W        W84553  15.659  32.450  10.414
22891W        W84554  38.549  16.660   2.348
22892W        W84555   1.411  37.404  14.796
22893W        W84556   7.323   9.847  12.491
22894W        W84557  31.009  30.531  11.898
22895W        W84558  13.133  35.954   5.102
22896W        W84559  23.498  31.141   3.296
22897W        W84560  28.435  24.500   0.284
22898W        W84561  31.071  32.991   0.799
22899W        W84562  43.964  13.602  14.995
22900W        W84563   1.941  15.720  12.937
22901W        W84564  42.367  33.622   1.322
22902W        W84565  11.202  42.331  14.823
22903W        W84566  12.174  39.528   4.758
22904W        W84567  39.037  20.115  11.431
22905W        W84568  28.116  17.780  12.351
22906W        W84569  33.895  14.818  12.515
22907W        W84570   9.228   6.289   3.336
22908W        W84571  24.671   3.281   2.205
22909W        W84572   1.800  19.534   4.207
22910W        W84573   1.308  39.333  11.024
22911W        W84574  24.049  30.502   0.474
22912W        W84575   1.343   3.391  13.870
22913W        W84576   2.466  37.535  11.006
22914W        W84577  18.173  42.013   1.399
22915W        W84578  16.582   6.677  13.545
22916W        W84579  41.405  38.984   0.930
22917W        W84580  36.013  16.673  14.860
22918W        W84581   0.763  44.781   4.731
22919W        W84582  26.559  44.851   0.876
22920W        W84583  34.885  19.184  10.427
22921W        W84584  42.445  34.429   3.153
22922W        W84585  23.153  14.328  10.465
22923W        W84586  31.551  27.171  14.356
22924W        W84587  36.452  15.085  12.080
22925W        W84588   3.885  15.235  14.982
22926W        W84589  40.926  13.246   3.226
22927W        W84590  12.150  17.075   1.922
22928W        W84591  34.009  15.155   2.398
22929W        W84592  16.583  34.965   1.819
22930W        W84593  25.026  11.315  11.522
22931W        W84594  39.941   6.792   4.288
22932W        W84595  15.812  15.728   5.213
22933W        W84596  28.003  22.248  10.609
22934W        W84597   8.307  16.219  14.930
22935W        W84598  12.238  31.072   4.635
22936W        W84599  20.031  12.141   3.232
22937W        W84600  21.194  41.528   0.780
22938W        W84601  34.411   7.310   3.206
22939W        W84602  29.531  30.628  11.978
22940W        W84603   3.819  12.770   5.310
22941W        W84604   5.294  35.054   4.278
22942W        W84605  28.442  18.678  14.436
22943W        W84606  22.083  29.547  11.443
22944W        W84607  17.287  12.135  13.958
22945W        W84608  13.818   8.803  14.469
22946W        W84609   1.771   1.819  11.491
22947W        W84610  43.974   0.860  12.381
22948W        W84611  30.589  20.209  14.471
22949W        W84612  29.049  31.932  11.528
22950W        W84613  13.761  25.468   1.351
22951W        W84614  16.192  12.143   3.801
22952W        W84615  26.627  41.943  11.603
22953W        W84616  27.064  13.670   0.285
22954W        W84617  26.469  29.602   4.635
22955W        W84618  42.500   6.308   9.583
22956W        W84619  33.993  29.996  13.924
22957W        W84620  18.283  33.946   2.186
22958W        W84621   5.725  43.374  11.868
22959W        W84622   0.985  39.432   4.167
22960W        W84623  44.992  33.945  11.119
22961W        W84624  38.469  41.501   4.256
22962W        W84625  44.300  31.559  12.085
22963W        W84626  10.249  36.065   0.926
22964W        W84627  35.540   0.275  12.571
22965W        W84628  15.255   5.842   1.720
22966W        W84629  10.793  19.641  10.917
22967W        W84630  44.419   5.266   4.760
22968W        W84631   1.931  30.471  11.066
22969W        W84632  19.090   3.758   4.152
22970W        W84633  38.892  15.613   5.203
22971W        W84634  31.977  18.575  14.796
22972W        W84635  12.831  43.429   1.314
22973W        W84636  32.509   9.775  14.789
22974W        W84637  23.656  27.497  12.855
22975W        W84638  27.982  21.513   0.857
22976W        W84639  27.498  24.646  10.888
22977W        W84640   8.722   4.309  10.912
22978W        W84641  24.996  30.465   2.418
22979W        W84642  17.574  17.557   2.727
22980W        W84643  37.379  37.049  14.840
22981W        W84644   8.659  14.786   5.301
22982W        W84645   1.465  14.275  12.893
22983W        W84646  15.217   9.335  11.531
22984W        W84647  39.016  21.694  14.443
22985W        W84648   7.906  20.256   2.212
22986W        W84649  34.046   4.211  14.801
22987W        W84650   1.874  17.802   4.228
22988W        W84651  19.546  37.884  12.088
22989W        W84652  35.905   3.244   3.805
22990W        W84653   4.943  43.328  10.463
22991W        W84654  35.864  43.988  13.995
22992W        W84655  30.526  29.616  12.002
22993W        W84656  23.112  23.218   1.300
22994W        W84657  24.142  39.927  10.594
22995W        W84658  43.961  20.579  12.035
22996W        W84659  28.531  42.979  13.889
22997W        W84660  19.688  43.451  13.837
22998W        W84661  20.150   4.880   3.744
22999W        W84662  27.135  12.610   1.704
23000W        W84663   0.813  40.541  10.483
23001W        W84664  29.554  37.444  13.968
23002W        W84665  35.560  27.011  12.521
23003W        W84666   1.304   4.377  11.917
23004W        W84667  11.824   7.838   3.723
23005W        W84668  33.444   6.386   0.955
23006W        W84669  37.991  30.586   4.275
23007W        W84670  28.465   0.448  10.552
23008W        W84671  32.949   6.372   2.804
23009W        W84672  26.044  17.690  14.996
23010W        W84673  39.314   2.833  12.542
23011W        W84674   7.269  34.566   1.400
23012W        W84675  21.554  18.068   2.785
23013W        W84676  37.535  33.486   3.794
23014W        W84677   0.389  41.884   3.743
23015W        W84678  38.837  28.049  13.820
23016W        W84679  42.891  16.088   5.293
23017W        W84680   1.827  21.689  11.941
23018W        W84681  41.340  10.349  13.361
23019W        W84682  42.422   5.773   9.576
23020W        W84683  44.975   7.895  10.909
23021W        W84684  44.288  26.607  13.048
23022W        W84685  16.810  19.135   3.264
23023W        W84686  16.726  26.670  11.957
23024W        W84687  32.088  42.951   1.917
23025W        W84688  24.492   4.908  12.456
23026W        W84689  23.700   7.221   1.818
23027W        W84690  14.741  17.611  12.355
23028W        W84691   2.731  17.104   1.764
23029W        W84692   5.851  10.817   0.406
23030W        W84693  13.711  34.573   1.363
23031W        W84694  42.518  12.645  13.920
23032W        W84695   8.881  27.553   3.687
23033W        W84696  25.186   3.724   1.323
23034W        W84697  21.715  30.609  10.467
23035W        W84698   2.454  24.192  14.333
23036W        W84699  41.384  29.561  13.017
23037W        W84700  39.550   9.664   2.846
23038W        W84701  33.573  29.077   2.330
23039W        W84702   5.289   4.799  14.768
23040W        W84703  11.259  11.776   1.248
23041W        W84704   1.844  28.536   0.328
23042W        W84705  19.564  36.073   4.120
23043W        W84706  36.912  11.834   4.631
23044W        W84707   2.318  17.289   0.798
23045W        W84708  33.914  35.393   2.703
23046W        W84709  24.218  13.749  14.806
23047W        W84710  38.374   2.746   1.329
23048W        W84711  28.994  16.250  11.559
23049W        W84712  16.286  43.933  11.503
23050W        W84713  12.847  11.319  14.921
23051W        W84714   6.738  38.568  14.848
23052W        W84715  13.267  41.354   4.256
23053W        W84716   3.875  39.869   3.366
23054W        W84717   4.751  10.325  13.333
23055W        W84718  28.098  34.404   2.182
23056W        W84719  31.901  39.343   0.892
23057W        W84720   5.923   8.680  13.990
23058W        W84721   9.265  10.652   0.913
23059W        W84722   5.264  40.883  11.871
23060W        W84723  24.487   7.720  14.501
23061W        W84724  30.563  20.204   3.279
23062W        W84725  35.543  24.629   3.769
23063W        W84726  11.362  40.385  10.411
23064W        W84727  15.592  43.357  12.867
23065W        W84728  15.647  20.706   4.813
23066W        W84729   3.257  13.148   0.293
23067W        W84730  25.093  27.049  11.565
23068W        W84731  11.300  38.832   9.611
23069W        W84732  21.262  23.688  14.845
23070W        W84733  34.550  42.897  13.470
23071W        W84734   9.358   2.246  12.001
23072W        W84735  37.398   7.873  12.478
23073W        W84736   6.378  17.198   0.736
23074W        W84737  15.755   7.358   2.686
23075W        W84738  20.663  29.047  14.331
23076W        W84739  23.652   0.790   3.339
23077W        W84740  10.155   3.452   3.803
23078W        W84741  22.011  35.468   4.690
23079W        W84742  41.850  16.088  11.010
23080W        W84743  28.489  19.150  11.878
23081W        W84744  38.374  42.448   1.250
23082W        W84745  31.500  40.824  14.507
23083W        W84746   7.704  25.974   3.371
23084W        W84747  31.107  36.460   3.818
23085W        W84748   5.750   6.293   4.123
23086W        W84749  23.132  22.590   2.220
23087W        W84750  44.970  20.261  13.847
23088W        W84751  39.385  29.945   1.337
23089W        W84752  38.500  42.966   2.370
23090W        W84753  28.042  26.067   3.672
23091W        W84754  29.091  24.000   3.263
23092W        W84755  35.057  36.898  11.056
23093W        W84756  12.236  25.191   2.194
23094W        W84757  41.324  12.677  14.762
23095W        W84758   2.933  22.158  13.952
23096W        W84759  26.168  20.700  13.514
23097W        W84760  13.803   0.964  13.522
23098W        W84761  31.126  44.805  10.598
23099W        W84762  27.460  39.926  14.877
23100W        W84763  27.648   3.723  10.902
23101W        W84764  19.672  16.576  12.860
23102W        W84765   8.169  43.460   3.235
23103W        W84766  43.862  15.222   4.353
23104W        W84767  13.825  38.851  12.971
23105W        W84768  39.828  32.583  13.026
23106W        W84769  13.304   2.321  12.096
23107W        W84770  26.490  29.080   4.704
23108W        W84771  23.638  26.683   2.845
23109W        W84772  18.262  16.095   4.177
23110W        W84773  23.560   1.919   3.274
23111W        W84774  12.203  42.953   3.318
23112W        W84775   2.274  23.152  14.421
23113W        W84776  36.998   2.349   4.177
23114W        W84777  21.065  30.004  11.127
23115W        W84778  29.587  24.134   1.273
23116W        W84779  41.880  37.442  11.561
23117W        W84780  42.491  27.500  10.517
23118W        W84781  21.673  35.569  11.911
23119W        W84782   1.461  24.136   3.760
23120W        W84783  40.492   9.701  11.938
23121W        W84784  10.335  23.724  10.126
23122W        W84785  31.113  26.601  14.833
23123W        W84786   4.211  34.584   3.365
23124W        W84787  29.941   9.165  12.526
23125W        W84788  29.110  18.758  13.015
23126W        W84789   0.335   9.775   3.749
23127W        W84790  21.744  20.204   1.306
23128W        W84791   8.276  11.851   1.221
23129W        W84792  32.050  35.015  13.934
23130W        W84793  30.006  26.088   2.402
23131W        W84794  25.148  41.016  13.054
23132W        W84795   1.973  21.211   2.728
23133W        W84796   7.260  41.034  12.378
23134W        W84797  30.514  20.635  14.497
23135W        W84798  11.243  28.072  10.563
23136W        W84799  38.336  11.169  10.569
23137W        W84800  30.435   1.917  10.974
23138W        W84801  22.637  15.097   2.367
23139W        W84802   3.825  14.676   2.866
23140W        W84803  31.023  15.632  12.944
23141W        W84804   6.684  18.066   0.398
23142W        W84805  23.064  27.634   3.857
23143W        W84806  29.962  26.187   3.276
23144W        W84807  17.612  28.619   1.310
23145W        W84808  24.677  43.987  13.943
23146W        W84809  40.006  18.596   2.715
23147W        W84810  22.556  19.117   2.387
23148W        W84811  19.174  40.342  10.459
23149W        W84812  41.340  22.545  14.333
23150W        W84813  28.038  12.347   0.274
23151W        W84814  20.107  26.620   4.125
23152W        W84815  43.897  38.833   2.804
23153W        W84816  20.763  18.078  10.909
23154W        W84817  27.182  35.497   3.851
23155W        W84818  33.089  32.517  12.554
23156W        W84819  33.978  30.909   2.343
23157W        W84820   6.416   4.917  10.929
23158W        W84821  18.124  39.486   0.278
23159W        W84822  42.304  22.667   1.262
23160W        W84823  40.971  41.044  10.616
23161W        W84824  36.568   9.311  12.044
23162W        W84825  15.823  30.428  11.905
23163W        W84826   3.774   4.806  10.409
23164W        W84827  30.439  40.339  11.990
23165W        W84828  43.397   7.701  11.907
23166W        W84829  26.070  32.066  10.496
23167W        W84830  44.291  19.094  14.927
23168W        W84831  25.966   9.210  12.852
23169W        W84832  35.907  40.427   3.709
23170W        W84833  14.308  43.411   2.862
23171W        W84834  19.588   9.827  11.103
23172W        W84835   6.716  26.168   2.353
23173W        W84836  24.485  34.932  12.576
23174W        W84837  38.521  35.893   3.282
23175W        W84838  32.928  37.068   3.763
23176W        W84839   6.410  13.654   4.215
23177W        W84840   6.778  26.657  11.012
23178W        W84841   8.336  16.711  11.067
23179W        W84842  11.804  15.663  14.942
23180W        W84843  36.963  17.796   0.828
23181W        W84844  23.686  26.035  12.045
23182W        W84845  32.431  12.857   1.847
23183W        W84846   5.903  30.935   3.755
23184W        W84847  12.249  29.577   1.917
23185W        W84848  33.589  20.087   2.791
23186W        W84849  30.635   8.181  14.816
23187W        W84850  42.463  10.196  13.403
23188W        W84851  11.772   1.467   3.707
23189W        W84852  27.181  19.178   2.846
23190W        W84853  10.803  27.989   0.806
23191W        W84854  28.632   6.293   4.681
23192W        W84855  23.996   0.460  13.432
23193W        W84856  32.961  32.995   3.198
23194W        W84857  21.692  12.333  13.337
23195W        W84858  11.774  18.755   3.843
23196W        W84859   4.884   1.247   3.781
23197W        W84860  35.080   5.868  14.009
23198W        W84861  43.884   9.356   1.308
23199W        W84862   9.290  13.816  10.895
23200W        W84863  41.799   1.768  12.367
23201W        W84864  28.987  15.098   2.200
23202W        W84865  28.035  36.412  12.908
23203W        W84866   2.799  33.001  13.852
23204W        W84867  10.300  39.519   3.810
23205W        W84868  26.643  36.925  14.488
23206W        W84869  43.483  43.297   2.230
23207W        W84870  43.901  15.235   2.226
23208W        W84871  32.626  29.037   2.280
23209W        W84872  30.928  16.767  11.393
23210W        W84873  22.732  35.895   2.255
23211W        W84874  28.577  37.475  10.919
23212W        W84875  20.136  13.773   3.867
23213W        W84876  30.466   8.713   2.739
23214W        W84877   1.890   0.304   3.827
23215W        W84878  13.726  36.401  14.860
23216W        W84879   1.404  12.154   1.350
23217W        W84880  41.373  25.702   1.887
23218W        W84881  31.145  12.643  13.986
23219W        W84882  27.189  10.836  13.968
23220W        W84883  19.115   4.415   1.339
23221W        W84884   9.763  42.861  11.926
23222W        W84885  43.487  43.444  12.479
23223W        W84886  16.586  25.158   3.292
23224W        W84887  39.422  13.121  10.535
23225W        W84888  29.955  41.416   0.784
23226W        W84889  30.117  30.550  12.534
23227W        W84890  40.968  13.785  12.433
23228W        W84891  19.700  10.317   0.761
23229W        W84892  24.022  31.019   4.193
23230W        W84893  39.926  36.564  12.955
23231W        W84894  43.945  14.650  12.437
23232W        W84895  15.244  30.602  11.890
23233W        W84896  35.931   2.462  14.983
23234W        W84897  12.739  26.115  10.517
23235W        W84898  31.944  44.457  11.587
23236W        W84899  27.189  15.713   4.767
23237W        W84900  10.817  27.536   3.681
23238W        W84901   5.272  42.848   1.362
23239W        W84902  15.750  35.493  10.622
23240W        W84903  42.913  24.048  14.012
23241W        W84904  43.313   1.774  11.896
23242W        W84905  14.239  26.519   1.353
23243W        W84906  26.569  18.723  12.396
23244W        W84907  22.147  35.370   3.655
23245W        W84908   0.952  27.086   4.264
23246W        W84909  36.382  17.066  13.013
23247W        W84910  29.975  19.723   3.641
23248W        W84911  16.753  33.515   2.691
23249W        W84912  25.603  28.963  11.981
23250W        W84913  28.453   0.811   0.934
23251W        W84914  37.519  12.804  14.876
23252W        W84915  32.627  34.875   4.666
23253W        W84916  36.488  10.369   3.380
23254W        W84917  34.963  27.541  11.913
23255W        W84918  18.137  25.208  13.403
23256W        W84919  44.850  35.875   3.229
23257W        W84920  35.879   6.789  13.536
23258W        W84921  34.057   3.924  12.936
23259W        W84922  29.426  43.785   1.241
23260W        W84923   8.275  44.328   3.730
23261W        W84924  35.541  37.438  11.557
23262W        W84925  22.119  11.323  11.036
23263W        W84926  11.323   1.328   2.277
23264W        W84927  26.592  43.807  14.767
23265W        W84928   5.284  44.286  13.817
23266W        W84929   1.772  37.579   3.266
23267W        W84930  17.773  33.048   3.173
23268W        W84931  15.256  16.726  14.459
23269W        W84932  34.379  24.224  13.361
23270W        W84933  32.514  38.985   2.897
23271W        W84934  12.802  22.053   3.645
23272W        W84935  37.976   2.344   4.345
23273W        W84936  36.089  43.325   3.836
23274W        W84937   6.691   8.823  12.865
23275W        W84938  17.089  11.195   1.806
23276W        W84939  27.118  22.508  13.927
23277W        W84940  25.610   9.379   2.850
23278W        W84941  30.601   9.726  13.342
23279W        W84942  14.196   8.265   3.651
23280W        W84943  34.926  40.884  11.548
23281W        W84944  24.979  16.647  13.857
23282W        W84945  19.760  18.128  10.635
23283W        W84946  44.850  43.279  13.489
23284W        W84947  27.464  41.832   3.841
23285W        W84948  24.055   9.222  10.550
23286W        W84949  20.637  42.892  12.056
23287W        W84950   4.430  14.776  13.521
23288W        W84951  26.987  43.782  13.420
23289W        W84952  22.047  13.305   4.229
23290W        W84953  34.419   9.172   3.181
23291W        W84954  12.627  28.011  14.934
23292W        W84955  40.309   8.267   3.151
23293W        W84956  34.591   0.796  13.943
23294W        W84957  25.617  17.681  13.497
23295W        W84958  37.415  22.633   0.917
23296W        W84959  40.485  18.678   3.717
23297W        W84960  39.376  29.031   0.308
23298W        W84961  37.966  13.333   3.652
23299W        W84962   4.756  17.683   0.732
23300W        W84963  25.502  29.919  12.906
23301W        W84964  14.174  36.426  12.906
23302W        W84965  31.913  23.185   2.741
23303W        W84966  12.711  24.669  13.839
23304W        W84967   5.775   6.909   4.272
23305W        W84968  25.674  11.666   1.445
23306W        W84969   3.253  13.803   4.175
23307W        W84970  15.736   9.343   0.295
23308W        W84971  20.609  41.934  14.844
23309W        W84972  36.901  25.159   2.747
23310W        W84973  25.665  29.564  12.375
23311W        W84974   6.323   6.201   4.327
23312W        W84975   0.466  24.479  10.458
23313W        W84976  38.492   8.196  12.512
23314W        W84977  27.514  42.920  11.554
23315W        W84978  10.684  12.742   1.436
23316W        W84979  38.887  24.509  11.113
23317W        W84980  39.550  17.652   3.174
23318W        W84981  34.105  17.787  10.521
23319W        W84982  11.664  36.357  14.012
23320W        W84983  11.170  35.917  10.628
23321W        W84984  16.782  20.726  10.525
23322W        W84985  42.462   3.343  11.488
23323W        W84986   8.206   0.974   2.222
23324W        W84987  29.938   0.279  11.415
23325W        W84988   2.756  16.174  12.912
23326W        W84989  15.214  30.931   1.389
23327W        W84990   7.883  42.442  14.818
23328W        W84991  41.330  19.252  10.446
23329W        W84992  44.869  20.129   4.823
23330W        W84993   7.835  29.146   2.674
23331W        W84994   8.777  21.085   4.605
23332W        W84995  41.310  36.373   4.647
23333W        W84996  44.290  27.024   4.789
23334W        W84997  41.421  30.587   3.285
23335W        W84998  19.279  36.963  10.582
23336W        W84999  37.912   8.390  11.440
23337W        W85000  18.725  25.558   0.839
23338W        W85001  10.745  17.295  12.484
23339W        W85002  17.121  14.696  13.391
23340W        W85003  35.570  29.669  10.617
23341W        W85004   4.317  41.977   2.206
23342W        W85005   5.729  44.793   3.345
23343W        W85006  20.151  41.444   5.205
23344W        W85007  34.599   6.711   0.289
23345W        W85008  16.679   6.378  13.063
23346W        W85009  38.414  34.945   1.897
23347W        W85010  26.564  23.100  13.053
23348W        W85011   2.752  40.429  12.929
23349W        W85012  33.509  42.404  14.448
23350W        W85013  22.049  40.909  13.381
23351W        W85014  26.026  40.874  13.538
23352W        W85015  40.814  44.272   0.875
23353W        W85016  21.541  41.995   1.400
23354W        W85017   1.297  33.013  14.834
23355W        W85018  34.576  24.127   2.264
23356W        W85019  36.550  29.567   2.739
23357W        W85020  26.458  11.209  10.418
23358W        W85021  40.976  26.202   2.826
23359W        W85022  37.372  31.914   9.966
23360W        W85023  17.722  15.642  14.959
23361W        W85024  15.812  14.227   0.728
23362W        W85025  41.314  13.335  11.914
23363W        W85026  12.161  41.535  14.458
23364W        W85027   2.906  36.488   3.772
23365W        W85028  33.116  39.004   2.732
23366W        W85029  40.305  38.439   3.347
23367W        W85030   5.827  25.508   1.382
23368W        W85031   1.817  13.604   0.801
23369W        W85032   4.813  31.488  11.479
23370W        W85033  37.983  40.361   4.671
23371W        W85034  12.124  21.666   4.175
23372W        W85035  22.049   2.346   3.823
23373W        W85036  42.347  43.285   4.636
23374W        W85037  32.622  17.780   3.640
23375W        W85038   3.378  16.139   0.853
23376W        W85039  34.050  16.793  14.008
23377W        W85040  24.114  10.707   4.639
23378W        W85041  25.507   2.451   5.149
23379W        W85042  37.559  16.791   4.696
23380W        W85043  32.394  29.079  14.340
23381W        W85044  13.314  44.444   3.197
23382W        W85045  41.449   8.717   5.665
23383W        W85046   6.783  44.496   1.696
23384W        W85047  17.729  30.113  10.581
23385W        W85048  33.534   4.276  11.908
23386W        W85049  15.723  33.985  12.961
23387W        W85050  21.261  22.121  11.899
23388W        W85051  13.837  42.429  10.928
23389W        W85052  19.729  10.687   2.182
23390W        W85053   6.283  11.731  10.054
23391W        W85054  43.477  30.603  13.446
23392W        W85055  30.139  14.185  11.936
23393W        W85056  17.089   5.324   0.438
23394W        W85057  43.954  40.842  14.836
23395W        W85058  14.248   8.806   1.392
23396W        W85059  43.020  41.946  14.815
23397W        W85060  41.998  43.869   4.134
23398W        W85061  24.640  38.915   4.773
23399W        W85062  35.103   7.860   2.367
23400W        W85063  43.936   6.737  12.881
23401W        W85064  20.668  24.543  12.050
23402W        W85065  17.767  24.182  13.863
23403W        W85066  34.918  39.052   1.917
23404W        W85067  12.250  22.023  10.914
23405W        W85068  34.615  30.621   2.387
23406W        W85069   2.344  36.857  13.479
23407W        W85070  15.657  17.638  14.799
23408W        W85071   7.778  31.407  10.955
23409W        W85072  29.452   9.191   3.694
23410W        W85073  28.495  31.062   0.307
23411W        W85074  31.100   4.365   4.343
23412W        W85075   0.912  42.357   0.810
23413W        W85076  41.454  30.109  11.086
23414W        W85077  20.046  43.511   4.607
23415W        W85078   6.885  30.532   3.355
23416W        W85079  17.727  22.012   0.440
23417W        W85080  32.954   7.819   3.762
23418W        W85081  44.782   3.378  11.902
23419W        W85082   2.758   9.865   4.226
23420W        W85083   7.284  30.033  14.874
23421W        W85084  25.610  10.224   2.687
23422W        W85085  21.035  42.919   2.714
23423W        W85086  35.512  44.455  12.566
23424W        W85087  41.786   1.459   0.789
23425W        W85088  32.500   6.884   3.688
23426W        W85089  36.062  27.510   4.252
23427W        W85090  11.295  30.104   0.882
23428W        W85091  16.587  38.516  13.985
23429W        W85092   3.753   4.890   3.718
23430W        W85093  17.588   9.836  13.464
23431W        W85094   5.371   0.250  13.537
23432W        W85095  26.184   6.720   3.363
23433W        W85096  34.541  17.198  14.885
23434W        W85097  32.138  31.151  13.998
23435W        W85098   4.391  27.946   1.242
23436W        W85099  44.302  22.694   4.823
23437W        W85100  40.465  44.488  10.999
23438W        W85101  21.618  33.395   3.860
23439W        W85102  27.463  23.147   3.644
23440W        W85103   0.392  23.080   3.342
23441W        W85104   1.391  35.094   2.866
23442W        W85105   3.455  31.065  14.361
23443W        W85106  17.200  31.619  12.382
23444W        W85107  18.692  35.955  11.949
23445W        W85108  31.031  33.093  13.852
23446W        W85109  16.237  32.938  10.499
23447W        W85110  12.241  28.679   0.839
23448W        W85111   9.715  31.016  14.475
23449W        W85112  15.703  12.257   0.264
23450W        W85113  29.589  36.462  12.963
23451W        W85114   9.195  24.591  12.062
23452W        W85115  18.785  23.041   2.222
23453W        W85116  26.581   2.940  10.946
23454W        W85117  32.503  43.479  14.338
23455W        W85118   4.821  14.780  12.493
23456W        W85119  11.353  13.232  11.585
23457W        W85120  35.875   4.367  13.358
23458W        W85121  37.938  14.168   0.414
23459W        W85122  41.890  14.596   3.181
23460W        W85123   3.759  37.404  14.330
23461W        W85124   0.823  22.660   1.236
23462W        W85125  26.458  14.262  11.076
23463W        W85126  22.734  39.882   3.754
23464W        W85127  17.677  22.023  11.401
23465W        W85128  17.087   8.859  14.852
23466W        W85129   7.316   1.744  13.840
23467W        W85130  36.043   9.169   2.752
23468W        W85131   6.685  43.287   0.774
23469W        W85132  12.240  11.731  11.986
23470W        W85133   8.831   8.860  13.533
23471W        W85134  30.989  21.182   4.159
23472W        W85135   4.281  30.538  14.328
23473W        W85136  19.081  17.562   2.307
23474W        W85137   9.341   2.312  14.990
23475W        W85138  25.527  40.885   3.356
23476W        W85139  22.671   0.930  14.379
23477W        W85140  41.969  19.628   2.677
23478W        W85141  24.126   7.875  11.093
23479W        W85142  41.346  16.318   0.762
23480W        W85143  20.740  23.058  11.103
23481W        W85144  40.399  19.225   1.327
23482W        W85145  40.547  28.504   1.770
23483W        W85146   9.673  24.597   4.825
23484W        W85147  30.026  31.557  11.110
23485W        W85148  19.745   2.449  12.001
23486W        W85149  11.165  13.833   0.841
23487W        W85150  36.998  34.940  14.773
23488W        W85151  11.774  14.775   9.989
23489W        W85152  34.377   9.698   1.365
23490W        W85153  17.780  26.095  12.051
23491W        W85154   4.388  43.444  14.471
23492W        W85155  42.526   8.690  13.996
23493W        W85156  23.147  35.927   0.795
23494W        W85157  37.960  40.909   4.261
23495W        W85158  21.187  43.964   4.270
23496W        W85159  22.214  22.667  14.945
23497W        W85160  36.444  15.637   4.185
23498W        W85161  10.233  25.983  12.457
23499W        W85162  17.556  34.494   2.365
23500W        W85163   7.764  23.623  13.368
23501W        W85164  10.845  19.186  11.475
23502W        W85165  33.081  23.199  13.501
23503W        W85166  30.000  37.832   2.278
23504W        W85167  30.100  31.461   0.880
23505W        W85168  37.535  15.753  11.993
23506W        W85169  35.485  26.157  13.527
23507W        W85170  32.479  28.618   0.296
23508W        W85171  16.791   7.372   4.684
23509W        W85172  22.742   5.758  10.430
23510W        W85173  34.502  32.623   3.327
23511W        W85174   6.291  27.133   4.607
23512W        W85175  31.095  37.981  14.394
23513W        W85176  27.136   7.282   0.307
23514W        W85177   3.807  42.385   1.833
23515W        W85178  25.640  33.556   0.900
23516W        W85179   8.672  37.356   0.803
23517W        W85180  39.886  18.262   4.300
23518W        W85181   7.757  29.608   4.241
23519W        W85182   6.267  24.160   2.781
23520W        W85183  28.562   3.246  13.528
23521W        W85184  12.716  26.168  13.995
23522W        W85185   9.178   8.346   9.676
23523W        W85186  31.414  37.342   2.865
23524W        W85187   2.231  41.309  12.902
23525W        W85188  25.204  37.835  10.104
23526W        W85189  28.607  39.371   3.755
23527W        W85190  18.132  17.069  12.077
23528W        W85191  39.316  38.438  12.839
23529W        W85192   9.697  29.112  10.992
23530W        W85193  31.085  26.593  13.032
23531W        W85194  15.154  10.206  12.964
23532W        W85195  26.011  36.982  14.335
23533W        W85196  10.851  14.263   4.326
23534W        W85197  22.536  24.695   3.713
23535W        W85198   3.841   5.698  12.077
23536W        W85199   6.414  11.823  12.533
23537W        W85200  40.896  38.958  10.126
23538W        W85201   0.751  40.963  12.907
23539W        W85202  11.246  26.655  14.433
23540W        W85203  33.948  34.440   2.699
23541W        W85204   0.493  18.060   0.263
23542W        W85205  44.283  21.609  10.561
23543W        W85206  14.773  10.286   4.814
23544W        W85207  12.129  36.467  13.440
23545W        W85208  42.505  20.137  11.013
23546W        W85209  10.259  13.730   1.281
23547W        W85210  43.357   0.749  11.945
23548W        W85211  16.583   4.821  14.415
23549W        W85212  29.118  14.689   1.319
23550W        W85213  40.443  25.976   0.346
23551W        W85214  18.770  22.135  11.974
23552W        W85215  43.364   9.176   2.272
23553W        W85216  24.526  30.995  12.459
23554W        W85217  10.697  44.818   4.826
23555W        W85218   3.927  26.080  14.031
23556W        W85219  13.818  35.969   0.828
23557W        W85220  22.169  27.489   0.888
23558W        W85221   1.922  26.071  10.407
23559W        W85222  38.519  33.038   2.791
23560W        W85223   0.881  14.340   5.300
23561W        W85224  17.713  18.678  11.868
23562W        W85225  19.681   8.800  10.964
23563W        W85226  43.476  44.981   4.705
23564W        W85227  27.986  30.592  13.054
23565W        W85228   4.728  17.700   2.374
23566W        W85229   7.895  16.750   2.265
23567W        W85230  39.063   2.953  14.014
23568W        W85231   2.844  20.740  13.374
23569W        W85232  33.107  44.812   0.962
23570W        W85233   4.427  25.612   4.678
23571W        W85234  43.780  24.482  14.762
23572W        W85235  23.716   0.448  14.471
23573W        W85236   6.380   8.315   3.791
23574W        W85237  39.833  13.820  10.005
23575W        W85238   9.165  19.755   4.631
23576W        W85239  30.625  23.093   2.668
23577W        W85240   3.402  11.764  14.886
23578W        W85241   7.191  12.305  11.508
23579W        W85242  29.975  43.893   3.773
23580W        W85243  28.531  44.421   3.698
23581W        W85244  31.581   8.655  14.955
23582W        W85245  25.066  38.513  13.494
23583W        W85246  11.808  22.596   2.872
23584W        W85247  32.945  37.429   3.289
23585W        W85248   3.890  39.422   1.231
23586W        W85249  30.484  10.190  10.506
23587W        W85250   8.375   8.253   0.887
23588W        W85251  43.984  23.598  12.382
23589W        W85252  17.088   2.469   3.202
23590W        W85253  38.036  24.091  12.016
23591W        W85254   4.820  11.728  14.460
23592W        W85255  21.741  14.272   9.965
23593W        W85256  40.979  29.935  14.838
23594W        W85257  43.787  20.599   4.744
23595W        W85258  25.073  35.080  13.537
23596W        W85259  28.583  28.488  11.598
23597W        W85260  15.094  28.544  11.493
23598W        W85261  24.979  37.573   4.754
23599W        W85262  31.124   0.414  10.427
23600W        W85263  35.864  30.473  13.057
23601W        W85264  35.108   6.366  12.831
23602W        W85265  18.763  19.650  10.082
23603W        W85266  26.036  39.995   1.230
23604W        W85267  32.396  18.763   4.741
23605W        W85268  15.210  43.010   2.258
23606W        W85269  22.197  39.949  14.022
23607W        W85270  17.262  16.124  14.924
23608W        W85271  31.946  33.910  13.028
23609W        W85272  38.979  19.611  13.309
23610W        W85273  10.370   3.714  11.917
23611W        W85274  32.133  19.674   1.877
23612W        W85275  30.043   2.953  11.980
23613W        W85276  15.598  31.562  10.961
23614W        W85277  40.958  14.808   3.863
23615W        W85278   2.872   3.813  12.425
23616W        W85279   9.390  11.149   0.359
23617W        W85280  44.938  30.421   1.784
23618W        W85281  29.446  37.471   4.692
23619W        W85282   7.399   8.171  13.884
23620W        W85283  24.172  41.359   4.627
23621W        W85284  22.588   1.860   1.803
23622W        W85285  21.082  20.063  14.845
23623W        W85286  22.161   4.702   2.862
23624W        W85287  14.758  39.941   0.821
23625W        W85288   8.169  32.131  14.376
23626W        W85289   7.730  14.645   3.672
23627W        W85290  31.928  42.024   3.866
23628W        W85291  30.126  18.191   4.172
23629W        W85292  31.138  39.936  14.977
23630W        W85293  39.520  36.957   3.233
23631W        W85294  43.977  31.059   3.834
23632W        W85295  43.901  25.657  12.908
23633W        W85296  36.952   6.749   0.732
23634W        W85297   5.361   7.716  12.978
23635W        W85298   5.796   1.978  11.580
23636W        W85299   7.666  20.049   3.167
23637W        W85300  33.425  39.818  12.537
23638W        W85301  34.104   9.670   0.412
23639W        W85302  42.825  26.959   1.864
23640W        W85303  14.829  22.645   3.714
23641W        W85304   3.428  22.518  14.802
23642W        W85305  14.227  18.766  14.350
23643W        W85306  34.615  27.107  10.406
23644W        W85307  13.250   0.842   1.772
23645W        W85308  30.506  39.354  11.067
23646W        W85309  37.560  26.192  12.909
23647W        W85310   9.816  23.136   2.679
23648W        W85311  28.593  15.648   4.608
23649W        W85312  24.053  21.185   3.177
23650W        W85313  11.709  37.553  13.934
23651W        W85314  41.952  28.112   1.790
23652W        W85315  38.036  33.093   0.357
23653W        W85316  32.395  10.319   0.445
23654W        W85317  33.107  23.539  10.631
23655W        W85318  27.521  41.960   5.154
23656W        W85319   9.385  27.121   4.266
23657W        W85320  10.699   3.923  14.866
23658W        W85321   7.217  33.414  12.384
23659W        W85322   5.337   1.360  13.491
23660W        W85323  41.470   8.327  14.332
23661W        W85324  14.689   4.933  12.387
23662W        W85325  15.255  40.829  12.021
23663W        W85326  32.940  13.221   1.429
23664W        W85327  33.600  10.147  12.968
23665W        W85328  37.511  32.945   4.607
23666W        W85329   8.185  15.105   2.883
23667W        W85330  25.642  42.463  10.455
23668W        W85331   0.829   8.655  12.579
23669W        W85332  11.626  10.220  14.003
23670W        W85333  15.614   7.682   5.191
23671W        W85334  30.991  41.005  12.016
23672W        W85335  16.692  29.939   1.763
23673W        W85336  31.525  28.452  13.838
23674W        W85337  13.168  28.138   5.262
23675W        W85338  41.818   1.759   2.278
23676W        W85339  20.061   4.416   3.370
23677W        W85340   5.826  32.464  14.406
23678W        W85341   5.750  31.896   3.683
23679W        W85342  41.470  26.490   4.604
23680W        W85343  10.727   3.361  10.962
23681W        W85344  39.413  13.782  14.331
23682W        W85345  37.543  40.941  13.991
23683W        W85346  29.930  12.770  11.471
23684W        W85347  24.126  11.338  13.064
23685W        W85348  10.287  11.199  10.527
23686W        W85349  18.708  37.002  12.087
23687W        W85350  23.522  10.729  14.295
23688W        W85351  21.225  37.962   3.682
23689W        W85352  22.665  39.934   4.170
23690W        W85353   8.868   6.879  14.313
23691W        W85354   5.756  44.834   4.203
23692W        W85355  39.454  39.385   0.482
23693W        W85356  21.579  16.584  14.804
23694W        W85357  14.097  28.939   2.695
23695W        W85358   9.305  15.635  14.820
23696W        W85359   2.396  37.043  14.778
23697W        W85360  30.577  12.650  14.491
23698W        W85361  38.889  26.043   0.455
23699W        W85362  29.560  12.630  10.010
23700W        W85363  33.466  42.358  10.592
23701W        W85364   8.282  21.708   1.410
23702W        W85365  40.033  41.408  13.532
23703W        W85366  15.763  39.010   2.377
23704W        W85367  29.114  40.972   2.350
23705W        W85368  20.598  15.158   4.151
23706W        W85369  39.977  37.415   4.164
23707W        W85370  40.830   9.196   2.718
23708W        W85371  17.239  31.081  10.935
23709W        W85372  11.794  39.883   3.725
23710W        W85373  10.237   7.212   1.860
23711W        W85374  39.023  30.651   0.397
23712W        W85375  18.707  14.329   3.164
23713W        W85376  12.245  35.591  14.443
23714W        W85377  19.208  43.765  14.794
23715W        W85378  33.069   1.732  10.891
23716W        W85379  31.915   3.897   2.678
23717W        W85380   3.263  40.517   0.792
23718W        W85381  11.224   1.341   3.235
23719W        W85382  20.255   8.172   0.298
23720W        W85383   9.231  20.175   4.187
23721W        W85384  42.886   1.962   3.839
23722W        W85385   4.731  17.271  11.895
23723W        W85386  27.198  14.591  14.287
23724W        W85387   4.911   4.342  14.367
23725W        W85388   3.378   6.735  11.990
23726W        W85389  32.110   8.680  12.928
23727W        W85390  17.606  14.809   1.234
23728W        W85391  19.226  15.234   2.808
23729W        W85392   4.861  42.825  11.547
23730W        W85393  31.916  31.948   4.641
23731W        W85394  43.326  14.316  13.973
23732W        W85395  15.296  29.661   0.400
23733W        W85396   4.256  39.833  13.857
23734W        W85397  29.105  29.173   1.226
23735W        W85398  31.935  29.641  14.326
23736W        W85399   5.384  26.616  12.956
23737W        W85400   2.336  14.759   0.356
23738W        W85401  21.113  16.288   1.272
23739W        W85402  34.596  22.687  12.382
23740W        W85403  43.931  17.685  12.921
23741W        W85404  12.211  37.881  11.490
23742W        W85405   2.923  43.915  14.890
23743W        W85406  36.007   3.912   0.836
23744W        W85407  11.645  27.458  11.859
23745W        W85408   3.887  32.976  14.513
23746W        W85409   0.344  15.219   2.731
23747W        W85410  14.830  27.008  10.425
23748W        W85411  27.533  16.587   4.210
23749W        W85412  36.403   3.270  13.803
23750W        W85413  32.106  44.334  14.466
23751W        W85414   2.437   7.263  12.956
23752W        W85415  39.369   3.798  12.063
23753W        W85416   0.789  35.587  11.122
23754W        W85417  11.730   7.890   1.397
23755W        W85418   0.368  31.086  12.442
23756W        W85419  40.321  37.910  13.425
23757W        W85420   7.181  20.056  14.832
23758W        W85421  34.543  27.006   1.803
23759W        W85422  12.803  25.513  10.629
23760W        W85423  16.103  22.187   2.809
23761W        W85424  39.815  15.317   0.784
23762W        W85425  36.899  25.174   4.698
23763W        W85426  37.856   2.300   1.715
23764W        W85427   4.247   5.320   4.655
23765W        W85428  20.177   9.320   0.844
23766W        W85429   1.318   9.861   0.341
23767W        W85430  32.452  12.627  10.975
23768W        W85431   5.785  27.600   1.741
23769W        W85432  15.108  16.701   3.232
23770W        W85433  35.009  28.540   3.655
23771W        W85434   9.738  32.501  11.905
23772W        W85435  42.352  41.811  11.012
23773W        W85436  12.721  38.076  12.483
23774W        W85437  41.414  44.848   0.756
23775W        W85438   4.889  33.458   0.920
23776W        W85439   9.849  21.053   2.783
23777W        W85440  31.515  37.925  11.988
23778W        W85441   4.773   1.970  14.297
23779W        W85442   9.849  40.351   0.405
23780W        W85443   6.871  21.660   1.782
23781W        W85444  11.225   3.226   4.237
23782W        W85445  41.319  20.253  13.805
23783W        W85446  14.146  27.139  14.431
23784W        W85447  28.499  42.405  14.854
23785W        W85448  15.180  14.668   1.753
23786W        W85449   5.306   4.302   0.282
23787W        W85450  34.952  25.707  10.605
23788W        W85451  44.396  15.227  12.870
23789W        W85452  24.048  20.733   0.286
23790W        W85453  12.755  33.598   3.757
23791W        W85454  18.601   4.889   3.165
23792W        W85455  13.617  40.352  11.461
23793W        W85456   8.805  30.515  10.951
23794W        W85457  10.156  16.630  11.102
23795W        W85458  42.983  43.351  13.019
23796W        W85459  40.404   9.358  12.938
23797W        W85460  29.549  29.165  11.954
23798W        W85461  32.080  18.549  13.795
23799W        W85462  41.858  21.029   0.467
23800W        W85463  36.577  42.993   2.710
23801W        W85464  44.873  33.091  10.912
23802W        W85465  23.177  12.313   3.787
23803W        W85466  33.389   0.838  14.446
23804W        W85467  41.966  22.649  12.870
23805W        W85468  18.108  41.354  14.912
23806W        W85469  35.050  18.606   1.710
23807W        W85470  29.555  44.322  13.397
23808W        W85471   6.805  10.246  10.559
23809W        W85472  10.681  37.364  14.427
23810W        W85473  25.023  38.077  13.362
23811W        W85474   3.383  29.048  12.479
23812W        W85475   9.301   6.396  12.980
23813W        W85476  14.286  40.021  13.940
23814W        W85477  35.559  37.568   0.761
23815W        W85478   8.798  24.199  11.046
23816W        W85479  19.135  26.520  14.276
23817W        W85480  39.908  30.462  10.581
23818W        W85481  28.483  42.439  12.382
23819W        W85482  42.972  21.616   2.722
23820W        W85483  18.714  35.010  14.312
23821W        W85484  27.664  13.649   1.906
23822W        W85485  43.379  40.050  10.904
23823W        W85486  28.947  21.165   4.154
23824W        W85487  24.993  19.070   2.675
23825W        W85488  12.612  35.382  11.395
23826W        W85489  37.968  27.642  11.123
23827W        W85490  29.172  17.077  13.966
23828W        W85491  12.801   5.264   1.872
23829W        W85492   6.699  25.069  13.461
23830W        W85493  33.480   5.797   4.208
23831W        W85494  32.564  13.612  14.961
23832W        W85495  28.080  12.687  14.827
23833W        W85496  44.815  22.067  12.078
23834W        W85497  22.669   9.296   4.297
23835W        W85498  28.076  13.231  11.407
23836W        W85499  44.490   6.382  11.505
23837W        W85500  26.623  29.622   2.348
23838W        W85501  36.924  24.545   2.348
23839W        W85502   9.810  11.682   2.370
23840W        W85503  39.477  31.037   0.934
23841W        W85504   9.757  24.632  12.530
23842W        W85505   3.821  40.919  13.314
23843W        W85506  30.973  13.666  11.077
23844W        W85507  39.821  32.057   3.171
23845W        W85508   2.434  40.523  10.077
23846W        W85509  32.930  23.044   2.201
23847W        W85510  44.397  25.991   3.191
23848W        W85511   1.897  14.705  12.383
23849W        W85512  31.097  27.188   3.769
23850W        W85513  19.670  30.477  14.015
23851W        W85514  12.649  16.731  11.496
23852W        W85515  20.585  21.210  13.484
23853W        W85516  36.356   5.419  13.931
23854W        W85517   1.741  13.699  13.899
23855W        W85518   9.857  42.357   1.699
23856W        W85519  36.935  33.537   1.423
23857W        W85520  13.636  18.672  10.636
23858W        W85521  28.065  43.928  12.857
23859W        W85522  26.073   5.884   3.865
23860W        W85523   5.822  38.559  12.905
23861W        W85524  21.722  28.656  11.949
23862W        W85525   4.213  43.975   2.822
23863W        W85526  14.657  33.083  13.002
23864W        W85527  15.310  14.696   5.293
23865W        W85528  16.675  28.048  13.328
23866W        W85529  40.526  38.427  14.975
23867W        W85530  18.681  20.648  13.848
23868W        W85531  37.028   9.682  12.048
23869W        W85532  41.979  41.470   3.827
23870W        W85533  35.598  37.363   1.764
23871W        W85534  27.145  35.063  13.869
23872W        W85535  31.420   3.880   4.765
23873W        W85536  32.931  20.129  14.501
23874W        W85537   0.430  28.533  14.438
23875W        W85538   9.823  16.250   1.430
23876W        W85539  11.159  36.869   5.123
23877W        W85540   9.872  25.000   1.711
23878W        W85541  12.287  22.191   1.255
23879W        W85542   8.172  22.716  10.552
23880W        W85543   8.685  30.520   1.259
23881W        W85544  24.042  23.032  12.035
23882W        W85545  10.359   4.418  10.899
23883W        W85546  31.980  16.131  11.938
23884W        W85547   6.272  19.156   4.314
23885W        W85548  36.466  20.169  11.032
23886W        W85549  38.379  27.659  14.928
23887W        W85550  28.622  21.024  10.945
23888W        W85551   5.769  16.098   0.829
23889W        W85552  19.679  13.141  11.986
23890W        W85553  22.011  23.534   5.118
23891W        W85554  11.362  38.983  13.915
23892W        W85555  35.406  20.228  12.575
23893W        W85556  25.639   7.676  12.383
23894W        W85557  36.862  38.328  12.046
23895W        W85558  34.906  14.139   2.263
23896W        W85559  13.183  27.589  10.898
23897W        W85560  39.918  20.205   1.277
23898W        W85561  27.521   0.318  13.392
23899W        W85562  36.077  43.439   0.447
23900W        W85563  14.098  26.105   1.773
23901W        W85564  41.307  39.945  11.473
23902W        W85565  16.292  31.428   0.272
23903W        W85566  39.365  37.857  12.027
23904W        W85567  15.215  17.166  13.398
23905W        W85568  18.074  29.965   3.758
23906W        W85569  44.486  42.953  11.450
23907W        W85570  33.953  31.415  11.048
23908W        W85571  26.624   4.450  12.075
23909W        W85572  35.539  31.010  10.463
23910W        W85573  24.585  14.196   3.310
23911W        W85574  29.160  39.992  11.379
23912W        W85575  22.229   1.401  11.483
23913W        W85576  36.538  42.929  10.566
23914W        W85577  29.132  31.959   2.737
23915W        W85578  36.029  12.261   4.331
23916W        W85579   2.258  36.079  10.410
23917W        W85580  23.721   9.214  12.067
23918W        W85581  40.912  26.584   1.247
23919W        W85582  27.162  26.583   3.234
23920W        W85583   1.237   9.272  12.950
23921W        W85584  17.756  19.740   0.906
23922W        W85585  24.585   0.414  11.930
23923W        W85586  43.815  37.029  13.409
23924W        W85587   0.389  43.975  12.442
23925W        W85588  31.582  20.748  11.532
23926W        W85589   1.377  28.096  10.527
23927W        W85590  18.738   9.655   2.331
23928W        W85591  21.718  30.565   1.794
23929W        W85592  11.707  21.251  14.297
23930W        W85593  44.909  42.887  11.105
23931W        W85594  27.452   2.920  11.418
23932W        W85595  16.300  18.222   1.729
23933W        W85596  40.525  27.121   0.285
23934W        W85597  35.506  34.591   2.245
23935W        W85598  25.585  41.380  13.064
23936W        W85599  12.742  23.194  13.509
23937W        W85600  37.883  15.089   4.722
23938W        W85601  17.082  30.542   2.268
23939W        W85602  14.629  32.988  13.327
23940W        W85603  20.693   4.863  12.554
23941W        W85604  29.995   7.820  13.464
23942W        W85605  17.756  37.552   1.423
23943W        W85606  32.933   8.389  13.003
23944W        W85607  38.031  30.153   0.822
23945W        W85608   5.861  28.049   0.905
23946W        W85609  27.056  38.831   2.327
23947W        W85610  23.065   1.756  12.357
23948W        W85611  18.050  16.754   3.191
23949W        W85612  34.526   0.792   1.903
23950W        W85613  44.935  16.215  11.944
23951W        W85614   8.760  14.171  12.379
23952W        W85615  16.207   1.756   2.313
23953W        W85616  39.877   0.937   3.171
23954W        W85617  26.193  39.458   9.981
23955W        W85618  37.571  16.795   1.782
23956W        W85619  16.657  26.052  13.338
23957W        W85620  22.619  27.659   0.393
23958W        W85621  39.541  29.485   2.276
23959W        W85622   8.243   2.788   1.355
23960W        W85623  34.604  40.031   2.344
23961W        W85624  25.970   6.257   1.819
23962W        W85625   0.442  16.679   3.229
23963W        W85626  15.309   7.770   1.749
23964W        W85627  36.015  32.989   4.761
23965W        W85628  41.513  34.396  10.464
23966W        W85629   9.298  17.102  12.535
23967W        W85630  41.313  27.960   1.367
23968W        W85631  21.070  14.758  14.411
23969W        W85632   1.389  40.855  10.480
23970W        W85633  27.980  25.035   5.307
23971W        W85634  39.488  33.475  14.288
23972W        W85635  30.017  21.113   3.291
23973W        W85636  29.171  34.372  11.532
23974W        W85637  28.514  40.445   2.220
23975W        W85638  43.459  43.983  14.290
23976W        W85639  20.179  35.899  14.808
23977W        W85640  10.684  40.954   2.903
23978W        W85641  33.935   8.817   2.316
23979W        W85642  43.827  34.086   4.294
23980W        W85643  41.913   4.777   0.250
23981W        W85644  14.183   7.343   1.891
23982W        W85645  21.126  16.783   0.328
23983W        W85646  13.320  24.171  11.123
23984W        W85647  24.641  15.185  10.544
23985W        W85648   5.224  36.972  14.466
23986W        W85649  37.863  11.368   0.255
23987W        W85650  28.487  44.999  10.438
23988W        W85651  22.078  23.984  11.553
23989W        W85652  19.561   0.438  11.077
23990W        W85653  31.940  10.369  13.797
23991W        W85654  43.448  38.012   3.169
23992W        W85655   2.821  40.867  13.982
23993W        W85656  16.712  28.674   4.739
23994W        W85657  14.666  30.019   4.673
23995W        W85658   2.362  21.615   2.666
23996W        W85659   6.274  18.200   4.752
23997W        W85660  32.992  27.657  12.974
23998W        W85661  27.994  20.093  11.075
23999W        W85662   7.688  33.067   0.888
24000W        W85663  42.331   8.891   0.481
24001W        W85664  13.200   6.838   1.413
24002W        W85665  34.586  42.991   3.256
24003W        W85666  16.083  12.788   1.372
24004W        W85667  23.225  30.025  13.830
24005W        W85668  21.567   0.772  10.445
24006W        W85669   4.885  31.135   2.847
24007W        W85670   4.406  10.787  11.534
24008W        W85671  27.194  30.014  12.944
24009W        W85672  22.225  30.066   3.314
24010W        W85673   3.784  32.424  14.789
24011W        W85674  37.479  12.828  13.446
24012W        W85675   3.715  28.631  12.573
24013W        W85676  23.690  41.520  14.942
24014W        W85677  23.603   8.716   3.260
24015W        W85678  27.940  37.538   4.657
24016W        W85679  34.880  41.798   0.315
24017W        W85680  30.080  18.562   4.700
24018W        W85681  16.245   7.346  13.810
24019W        W85682  16.808  37.403   1.328
24020W        W85683  25.162  41.927  14.782
24021W        W85684   1.331  24.531   1.746
24022W        W85685  29.613  31.098   4.134
24023W        W85686  24.158  21.748   2.202
24024W        W85687  16.690  26.577  12.441
24025W        W85688  10.828  27.492  10.415
24026W        W85689  31.641  22.740   0.826
24027W        W85690  35.879  35.911   1.396
24028W        W85691  31.116  34.447  14.905
24029W        W85692  25.706  38.034  14.312
24030W        W85693  32.935  12.160  11.588
24031W        W85694  29.959  15.668   4.293
24032W        W85695   2.373  38.965   3.249
24033W        W85696  20.248  20.610  12.982
24034W        W85697   1.752  22.615  13.904
24035W        W85698  42.901  39.821  14.489
24036W        W85699   5.909   5.319  14.937
24037W        W85700  11.757  38.912  12.011
24038W        W85701  14.703  31.428   0.872
24039W        W85702   1.947   1.275  11.581
24040W        W85703   2.396   7.845  14.915
24041W        W85704  38.481  44.956  13.027
24042W        W85705   0.840   7.286   4.271
24043W        W85706   8.747   1.428  11.866
24044W        W85707  36.593   6.264  13.061
24045W        W85708   0.835  34.974   4.132
24046W        W85709  44.318  13.154  13.814
24047W        W85710  27.478  25.569  10.464
24048W        W85711  34.543  20.603   3.264
24049W        W85712  41.794  34.586  13.466
24050W        W85713  39.002   9.363  14.992
24051W        W85714  14.655  40.989   0.747
24052W        W85715  18.632   5.869   4.762
24053W        W85716  24.993  38.568   0.791
24054W        W85717  17.749  36.085  11.441
24055W        W85718  33.008  35.863   2.743
24056W        W85719  28.668  25.106  11.564
24057W        W85720  20.191   9.667  12.534
24058W        W85721  10.142  15.248  13.833
24059W        W85722  42.450  36.434   4.153
24060W        W85723  41.445   1.884   3.804
24061W        W85724  19.085   8.776   0.429
24062W        W85725  41.401  44.433  14.445
24063W        W85726  14.821  38.041   2.406
24064W        W85727  31.059  14.642   1.711
24065W        W85728  10.846  23.996   3.386
24066W        W85729  23.230  30.950  12.364
24067W        W85730  39.001  30.138   1.782
24068W        W85731  37.897  44.358   4.189
24069W        W85732  15.767  15.620  14.973
24070W        W85733  15.627  17.561   9.595
24071W        W85734  21.050  23.984   1.877
24072W        W85735   5.304  32.100   4.736
24073W        W85736  14.706  13.276  11.106
24074W        W85737  10.798  16.114  13.009
24075W        W85738   1.860  29.427  12.011
24076W        W85739  35.561  35.378   0.879
24077W        W85740  26.593   3.763  12.926
24078W        W85741  29.076   9.327   4.140
24079W        W85742  31.096   5.354   2.354
24080W        W85743   2.273  42.879   0.433
24081W        W85744  26.495  29.167  13.024
24082W        W85745  36.579  30.112  11.994
24083W        W85746  17.591  32.023   1.425
24084W        W85747   7.694  43.392  14.511
24085W        W85748  18.582  22.148   1.352
24086W        W85749  33.448  10.754  14.362
24087W        W85750  34.394   5.873  10.112
24088W        W85751   4.932  19.696  14.928
24089W        W85752   0.252   7.198  13.854
24090W        W85753  16.100  12.803  10.086
24091W        W85754   6.317  31.537  13.799
24092W        W85755  26.543   4.900   3.687
24093W        W85756  33.966  28.627  10.477
24094W        W85757  20.037  13.621  11.971
24095W        W85758  33.586  18.636  11.996
24096W        W85759  22.655   7.346   1.428
24097W        W85760  19.142   3.436  10.918
24098W        W85761  21.707  22.650   1.436
24099W        W85762  25.087  14.694   2.852
24100W        W85763  28.978  41.941  11.025
24101W        W85764  12.723   5.878   4.164
24102W        W85765  21.059  32.902   4.754
24103W        W85766  37.073   9.680   5.289
24104W        W85767  26.018  13.839  10.490
24105W        W85768  28.167  39.547  10.565
24106W        W85769  41.914  13.618  14.986
24107W        W85770  41.433  26.139  14.484
24108W        W85771   4.430  34.522  10.413
24109W        W85772  37.541  16.106   2.734
24110W        W85773  40.305   8.217  12.957
24111W        W85774  25.149  24.039   0.937
24112W        W85775  43.984  30.552   2.817
24113W        W85776  29.113  27.487   1.751
24114W        W85777  23.632  18.212  13.061
24115W        W85778  10.154  26.147  11.441
24116W        W85779   3.258  41.505   4.201
24117W        W85780  44.896   2.779   3.734
24118W        W85781  41.875  20.567  13.534
24119W        W85782  35.011   4.790  13.386
24120W        W85783   4.315  40.037  14.869
24121W        W85784  35.870  28.594  12.508
24122W        W85785  32.527  12.836  14.845
24123W        W85786  33.950   0.747  10.062
24124W        W85787  26.519  42.320   2.761
24125W        W85788  43.454   6.334  11.381
24126W        W85789  20.165  20.250  11.512
24127W        W85790  14.245  42.824  11.482
24128W        W85791  39.363   3.245  11.087
24129W        W85792  24.509  41.531   0.431
24130W        W85793  39.451   0.318   1.341
24131W        W85794   2.961  10.245  11.417
24132W        W85795  42.364  16.580  13.407
24133W        W85796   0.984  25.609  12.901
24134W        W85797  15.290  27.645  12.393
24135W        W85798  36.467  39.453  13.824
24136W        W85799  31.149  32.119  11.108
24137W        W85800  10.349  13.679   1.730
24138W        W85801  39.325  39.036   0.390
24139W        W85802   0.836  16.652  14.980
24140W        W85803  22.737  41.478  13.481
24141W        W85804  25.574  16.748  13.941
24142W        W85805  25.014  23.614  10.027
24143W        W85806   1.873  20.558  14.801
24144W        W85807  38.862  22.713   4.274
24145W        W85808  26.047  14.222  14.916
24146W        W85809  44.343  11.785   5.191
24147W        W85810  20.105   2.456  12.865
24148W        W85811  24.090  26.652   0.290
24149W        W85812  24.183  28.973   1.735
24150W        W85813  27.955  11.168  11.545
24151W        W85814  26.130  11.182  11.436
24152W        W85815   0.468  30.578   2.857
24153W        W85816  16.748  10.193  14.438
24154W        W85817  25.060   7.217  10.912
24155W        W85818  24.576  38.571   2.879
24156W        W85819  10.763  26.076   2.317
24157W        W85820  18.296  26.000   4.770
24158W        W85821  26.024  10.703   2.757
24159W        W85822   5.196   9.323   0.373
24160W        W85823   0.756  11.816   0.452
24161W        W85824  14.198  44.286   1.367
24162W        W85825   1.782  11.858  14.999
24163W        W85826  40.956   4.715   4.115
24164W        W85827  44.505  29.044   1.770
24165W        W85828  10.238  40.348   1.919
24166W        W85829  14.105  37.410  13.507
24167W        W85830  25.001  27.549  14.346
24168W        W85831  17.757   0.351   4.174
24169W        W85832  40.356  19.580   0.441
24170W        W85833  38.888  27.672  13.473
24171W        W85834  21.145  42.417  11.966
24172W        W85835   4.793  30.581  14.948
24173W        W85836  29.516  18.281  13.973
24174W        W85837  16.607  40.014  10.905
24175W        W85838  22.567  26.110  14.963
24176W        W85839  17.590  26.634  11.013
24177W        W85840  41.400  33.546   0.423
24178W        W85841  43.275  12.815   4.674
24179W        W85842  35.480  32.951  14.965
24180W        W85843   2.839  10.806  12.057
24181W        W85844  10.362  33.938   4.820
24182W        W85845   1.396  12.320   0.960
24183W        W85846  11.837   7.345  13.533
24184W        W85847  15.584  41.454   0.740
24185W        W85848  36.430   2.726  11.001
24186W        W85849  43.278  24.587  12.348
24187W        W85850   7.798  29.468   1.798
24188W        W85851   6.777  35.050  14.360
24189W        W85852   5.787  17.294  14.418
24190W        W85853  39.500   3.256   3.303
24191W        W85854  23.730  41.431   3.238
24192W        W85855  25.117  44.315   5.122
24193W        W85856  22.996   3.328   3.751
24194W        W85857  36.993  42.791   1.408
24195W        W85858  21.737  19.268   3.340
24196W        W85859   3.410   4.763   2.679
24197W        W85860  23.669  18.744  13.344
24198W        W85861  35.036  27.513  10.557
24199W        W85862  36.361  22.529   2.357
24200W        W85863  43.325  37.529   4.171
24201W        W85864  27.014  16.755   3.177
24202W        W85865   2.747  17.726   4.630
24203W        W85866  29.662  34.406   1.377
24204W        W85867  18.652  28.521  14.430
24205W        W85868  39.018  24.589  14.374
24206W        W85869  28.616  25.219   1.326
24207W        W85870  41.427  38.446   0.846
24208W        W85871   0.289  37.040   0.957
24209W        W85872   1.804   5.763  11.036
24210W        W85873   2.764  42.841  11.532
24211W        W85874  22.664  19.194  12.925
24212W        W85875  11.147  42.514   1.792
24213W        W85876  33.475   1.757  13.374
24214W        W85877  10.234  43.939   3.148
24215W        W85878   7.319  24.639  11.528
24216W        W85879  20.188  38.878  11.518
24217W        W85880  43.295  18.769  14.810
24218W        W85881  35.462  10.160  14.989
24219W        W85882  20.060  13.780  12.436
24220W        W85883  12.235  27.990   0.472
24221W        W85884  12.826  39.402  11.902
24222W        W85885  14.795   9.710   9.968
24223W        W85886   9.237  30.623  10.896
24224W        W85887  25.146  18.089   1.779
24225W        W85888  13.607  11.197   0.329
24226W        W85889  44.831  33.481  10.539
24227W        W85890   5.361  27.609  14.406
24228W        W85891  15.719   0.762   1.698
24229W        W85892  27.565  21.585   3.306
24230W        W85893  10.739  13.720  11.043
24231W        W85894  27.181  13.817   4.281
24232W        W85895   4.776  34.582   2.359
24233W        W85896   3.395  44.772   0.297
24234W        W85897  32.552  21.141  11.576
24235W        W85898   2.907  29.590   1.321
24236W        W85899  37.442  13.217  11.550
24237W        W85900  12.123  11.247  13.408
24238W        W85901  23.730  17.791  10.922
24239W        W85902  37.049  15.688  13.040
24240W        W85903  31.124   8.654   2.360
24241W        W85904  34.507  11.176   0.302
24242W        W85905  18.736  41.320  14.403
24243W        W85906  32.104  37.517   3.863
24244W        W85907   7.855  18.231   0.806
24245W        W85908   3.296  10.670   2.670
24246W        W85909   0.438  10.246  14.899
24247W        W85910  34.448  12.635   2.235
24248W        W85911  26.637  35.399  14.427
24249W        W85912  12.615   9.725  11.041
24250W        W85913  26.129  38.981   4.142
24251W        W85914   9.304  10.313   3.162
24252W        W85915  15.791  29.158  13.416
24253W        W85916  22.238  15.787  10.988
24254W        W85917  43.802  35.453  14.320
24255W        W85918  29.669  13.311   3.228
24256W        W85919  40.402  13.651   3.386
24257W        W85920   6.203  43.327   2.891
24258W        W85921  10.685  35.377   2.377
24259W        W85922  30.515  12.222   4.823
24260W        W85923  41.300  27.075  14.027
24261W        W85924  36.465  24.613   4.128
24262W        W85925  17.067   1.376   1.404
24263W        W85926  31.905   2.229   1.741
24264W        W85927  30.125  25.560  14.940
24265W        W85928  17.689   6.880  13.438
24266W        W85929   4.212  35.879   1.288
24267W        W85930  36.480   0.802  11.936
24268W        W85931   6.767   1.293   3.685
24269W        W85932  17.136  17.580  12.096
24270W        W85933   2.323  25.059   1.845
24271W        W85934  34.380   8.320   0.788
24272W        W85935  35.899  44.490   2.783
24273W        W85936   2.271   0.929  14.879
24274W        W85937  33.464  22.225  12.514
24275W        W85938  11.141  43.415  10.928
24276W        W85939  27.012  12.824  11.904
24277W        W85940  37.405   0.424  11.039
24278W        W85941  20.035   1.852   4.333
24279W        W85942  37.929   1.317  14.454
24280W        W85943  34.538  41.798  10.481
24281W        W85944  14.793  19.067   4.631
24282W        W85945  31.908  26.600  13.358
24283W        W85946   8.176  39.010  12.574
24284W        W85947  24.559  30.565   3.647
24285W        W85948  32.095  19.058   3.821
24286W        W85949   8.226   7.873   2.247
24287W        W85950  32.475   1.950  11.045
24288W        W85951  19.147   2.914   4.673
24289W        W85952   8.361  28.669   4.778
24290W        W85953   3.310  21.587   0.957
24291W        W85954  10.266  15.635   2.861
24292W        W85955   2.432  12.297   4.290
24293W        W85956   1.732  11.130  11.924
24294W        W85957  23.605  34.544   3.721
24295W        W85958  11.665   4.737   2.365
24296W        W85959  42.373   5.224   3.286
24297W        W85960   8.718   9.296   2.226
24298W        W85961  42.449  20.566  13.901
24299W        W85962   6.241  21.668   0.306
24300W        W85963  38.072  33.563  13.457
24301W        W85964  17.628  40.941  11.383
24302W        W85965  10.703  29.083   2.775
24303W        W85966  43.935  18.231  13.960
24304W        W85967  32.449  26.058  11.051
24305W        W85968  33.487  33.609   4.616
24306W        W85969  30.570  28.049  11.520
24307W        W85970  44.942  21.054  13.892
24308W        W85971   0.924  44.388   4.702
24309W        W85972  41.509  44.868   4.824
24310W        W85973   5.370  10.338  11.377
24311W        W85974  37.964  36.431  13.421
24312W        W85975  42.939  32.932   3.856
24313W        W85976  14.660  39.870  13.858
24314W        W85977  10.311   6.282  12.942
24315W        W85978  21.738  25.146  11.562
24316W        W85979  12.782  25.686  13.505
24317W        W85980  19.045  37.462  13.426
24318W        W85981  10.283  41.316  14.941
24319W        W85982  18.227  34.522  12.397
24320W        W85983   6.363  29.104  13.431
24321W        W85984  30.109   7.683  14.499
24322W        W85985  37.954   5.327   4.149
24323W        W85986  28.502   0.929   3.185
24324W        W85987  36.003   1.809  13.407
24325W        W85988  18.585  36.920  12.509
24326W        W85989   4.938   1.763   2.839
24327W        W85990   4.815  23.636  14.291
24328W        W85991  38.526  24.592   1.407
24329W        W85992  16.699   5.387  12.093
24330W        W85993   6.380  11.793  10.636
24331W        W85994  22.632  17.299   2.672
24332W        W85995   9.862  40.994  10.514
24333W        W85996  23.522  25.470  13.838
24334W        W85997   3.861  43.935  11.021
24335W        W85998  23.081  23.619  12.939
24336W        W85999  14.322  23.032   3.781
24337W        W86000  32.546  43.333  10.476
24338W        W86001  30.059  14.733  14.827
24339W        W86002  34.913   7.775   4.730
24340W        W86003  22.712  37.902   1.367
24341W        W86004  33.401  43.343  13.334
24342W        W86005  41.946  12.718   4.289
24343W        W86006   0.986  14.680  11.451
24344W        W86007  42.006   9.755   3.222
24345W        W86008   4.297  38.406  12.028
24346W        W86009  35.367  33.127  11.413
24347W        W86010  26.615  33.923   2.786
24348W        W86011  10.193  12.161   3.726
24349W        W86012   2.320   3.339  10.458
24350W        W86013  10.766  40.385   3.804
24351W        W86014   0.924  22.104  14.403
24352W        W86015  18.777  20.640   1.893
24353W        W86016  33.956   7.843  13.504
24354W        W86017  30.931   7.391  10.103
24355W        W86018   4.892   0.788  13.386
24356W        W86019  29.951  14.171  13.449
24357W        W86020  31.099   2.367  14.333
24358W        W86021   9.225  15.259   3.322
24359W        W86022  31.406  20.599  12.376
24360W        W86023  20.558  40.908   1.715
24361W        W86024  25.700  16.085  11.033
24362W        W86025  38.013  18.740   0.298
24363W        W86026  22.105  42.335   4.651
24364W        W86027   3.226  15.162  12.457
24365W        W86028  29.024  31.441   4.153
24366W        W86029  36.429  43.423  11.968
24367W        W86030  27.180   1.767  13.968
24368W        W86031  30.466   0.263   2.217
24369W        W86032  10.859  10.238   2.672
24370W        W86033  26.504  21.748  12.990
24371W        W86034  27.994  11.867  11.922
24372W        W86035  29.158  13.685   4.718
24373W        W86036  31.528  16.734   4.177
24374W        W86037  38.052   1.449  11.067
24375W        W86038  30.527  43.784   1.219
24376W        W86039  42.925  22.081   3.808
24377W        W86040  22.127  23.012   0.850
24378W        W86041  34.097  23.644   3.773
24379W        W86042  37.957  38.990  11.476
24380W        W86043  13.843  38.862   2.885
24381W        W86044  29.094   8.699   2.287
24382W        W86045  18.558  22.195   1.748
24383W        W86046  40.451  33.102   3.785
24384W        W86047   9.306  33.531   0.292
24385W        W86048  21.096   7.227  11.973
24386W        W86049  18.676  37.931  11.042
24387W        W86050  14.324   6.310   4.623
24388W        W86051  19.595  12.351  12.913
24389W        W86052  33.983  18.165   0.482
24390W        W86053  42.829  10.811  12.424
24391W        W86054  35.949  25.559   1.244
24392W        W86055  31.046  29.544   4.831
24393W        W86056  38.833  33.440  11.541
24394W        W86057  11.771  37.502  11.484
24395W        W86058   1.770   4.769  10.524
24396W        W86059  37.398  19.624  10.960
24397W        W86060  19.540   0.875  12.914
24398W        W86061  37.846  21.056   4.319
24399W        W86062   2.321   7.767   2.347
24400W        W86063   3.387  16.101   4.171
24401W        W86064   8.185  11.164   1.306
24402W        W86065  39.010   0.349   0.438
24403W        W86066  27.035  20.703   1.889
24404W        W86067  22.548   4.343  12.964
24405W        W86068  39.940  34.934   1.328
24406W        W86069  44.826   1.886   0.269
24407W        W86070  30.016  44.364   1.239
24408W        W86071  28.979  25.020   0.447
24409W        W86072   5.363  25.976   2.697
24410W        W86073  22.017  16.735  13.959
24411W        W86074  26.152   8.810   2.312
24412W        W86075  27.544  33.950  13.887
24413W        W86076  43.933  23.172  13.540
24414W        W86077   1.849  26.692   1.822
24415W        W86078  21.219  41.423   0.475
24416W        W86079   4.713   3.266   3.158
24417W        W86080   5.923   2.790   0.729
24418W        W86081  13.135  12.209   4.795
24419W        W86082  36.921  43.797  11.063
24420W        W86083  37.567   5.195  14.454
24421W        W86084  29.108  16.074  10.636
24422W        W86085  40.936  18.668  12.852
24423W        W86086  12.783  35.514   1.842
24424W        W86087  30.110   9.722   2.734
24425W        W86088  21.116  29.495  14.968
24426W        W86089  33.064  25.209   4.738
24427W        W86090  27.631  12.800  11.001
24428W        W86091  33.102  15.761   0.436
24429W        W86092  15.726   7.222  13.362
24430W        W86093  16.588  30.938  14.936
24431W        W86094  26.018  18.221   4.231
24432W        W86095  28.163  33.038   2.402
24433W        W86096  35.943  33.554   1.336
24434W        W86097  17.163  31.123  14.296
24435W        W86098   9.344  31.475  12.390
24436W        W86099  33.074  28.674  13.491
24437W        W86100   6.404   2.837   1.895
24438W        W86101  42.495   4.831  12.934
24439W        W86102  11.374  13.343  13.812
24440W        W86103  41.438  35.890   3.770
24441W        W86104  13.123  22.046  10.921
24442W        W86105  16.221  14.710  14.306
24443W        W86106   7.342  11.266   3.653
24444W        W86107  33.086  39.355  12.976
24445W        W86108  13.209   9.179   1.390
24446W        W86109  33.610  27.473   2.297
24447W        W86110   8.661  23.678   0.324
24448W        W86111  33.452  16.657   1.392
24449W        W86112   3.799  33.926  11.910
24450W        W86113   4.893   8.373   1.350
24451W        W86114  38.347  30.154  13.351
24452W        W86115   1.919  31.000   3.307
24453W        W86116  32.398  44.967   3.297
24454W        W86117  43.810   7.299  13.407
24455W        W86118  43.402   2.422   3.773
24456W        W86119  13.136  33.915  13.845
24457W        W86120  32.899  15.764  10.983
24458W        W86121  25.172  32.006   4.164
24459W        W86122   8.212  13.237  12.058
24460W        W86123  25.557  25.606  12.566
24461W        W86124  22.526   8.859  11.871
24462W        W86125  31.618  32.922   3.845
24463W        W86126  18.579  10.852   0.927
24464W        W86127  40.949  19.659  13.028
24465W        W86128   6.890  43.374  10.435
24466W        W86129  10.781  12.654   4.314
24467W        W86130  26.028  30.582   1.274
24468W        W86131   2.299   7.236  11.024
24469W        W86132  35.852   0.382   3.783
24470W        W86133  33.547  41.446   2.795
24471W        W86134  29.649  25.017   5.320
24472W        W86135  26.168  38.938   2.357
24473W        W86136  26.666   7.700  12.891
24474W        W86137  35.916  37.397   2.773
24475W        W86138  14.127  24.976   0.831
24476W        W86139   7.262  28.935   1.702
24477W        W86140   3.936   6.401  12.552
24478W        W86141  30.503   5.922   3.353
24479W        W86142  42.957  18.250   0.840
24480W        W86143  24.034  43.348  11.117
24481W        W86144  13.814  37.408  13.323
24482W        W86145  12.752  25.104   2.788
24483W        W86146   4.382  23.086  14.385
24484W        W86147  33.450  16.160   2.282
24485W        W86148   4.887  14.212   3.280
24486W        W86149  28.091  25.193  10.138
24487W        W86150  32.594  41.414   2.862
24488W        W86151  32.093  42.824   0.435
24489W        W86152  28.668  36.536   2.371
24490W        W86153   9.655  43.485   0.333
24491W        W86154  12.696  13.758   3.641
24492W        W86155  33.468  18.085  13.936
24493W        W86156  11.360  24.588   2.790
24494W        W86157  32.434  20.734  11.996
24495W        W86158  13.695  24.538  11.480
24496W        W86159  14.831   8.181   3.850
24497W        W86160  21.566  26.183   1.830
24498W        W86161  44.930  35.890   0.322
24499W        W86162   1.345  41.390  13.000
24500W        W86163  11.188  20.154   2.367
24501W        W86164   7.837  20.183  12.993
24502W        W86165  19.764  38.431   2.726
24503W        W86166   3.713   2.848   3.367
24504W        W86167  31.016  32.408   1.239
24505W        W86168  17.258  38.549  10.987
24506W        W86169  38.962  18.570  10.460
24507W        W86170  38.492  10.259  11.990
24508W        W86171  18.144  21.122   3.248
24509W        W86172   9.337  11.277   1.723
24510W        W86173   9.751  16.787   0.389
24511W        W86174  30.982  26.970   2.897
24512W        W86175  19.560  10.303  11.398
24513W        W86176  40.984  30.583  11.431
24514W        W86177  38.499  15.589  10.586
24515W        W86178  43.368  39.546  12.984
24516W        W86179   0.284  44.451   4.199
24517W        W86180  23.695  17.170   3.780
24518W        W86181   7.394  37.509  13.854
24519W        W86182   1.366  44.799   3.197
24520W        W86183   6.374  27.167   0.360
24521W        W86184  37.974  31.593  13.048
24522W        W86185  14.204  33.076  14.798
24523W        W86186  34.569  32.435  13.482
24524W        W86187   7.374  15.608   2.819
24525W        W86188  38.916  31.066   3.656
24526W        W86189  10.168  18.771  13.915
24527W        W86190  34.560  35.509  12.912
24528W        W86191   5.788  16.299  12.889
24529W        W86192  15.308  33.547  12.000
24530W        W86193  32.452   7.380   1.786
24531W        W86194  44.451  41.829  12.543
24532W        W86195  13.681   6.806  13.349
24533W        W86196  23.140  14.778   1.718
24534W        W86197  31.544   0.854  11.893
24535W        W86198   7.360   1.308   3.715
24536W        W86199   2.360  22.053  12.852
24537W        W86200  35.542  39.923   3.154
24538W        W86201   8.219  11.188   2.811
24539W        W86202  36.475   5.852  13.911
24540W        W86203  28.004  27.630  12.039
24541W        W86204  17.751  23.185   3.732
24542W        W86205  18.065  13.149   5.208
24543W        W86206  25.056  37.988   5.163
24544W        W86207   7.178  34.907   0.965
24545W        W86208   1.942   7.696  14.337
24546W        W86209   5.355  32.074   0.856
24547W        W86210  26.461  25.654  11.411
24548W        W86211  24.606  40.934   3.861
24549W        W86212  21.021  13.699  10.899
24550W        W86213  35.961  42.009  14.819
24551W        W86214  20.758  12.693   9.946
24552W        W86215  40.441  42.414  13.430
24553W        W86216  28.974  18.127  11.872
24554W        W86217  43.484  32.011   1.305
24555W        W86218   2.951  40.341   4.738
24556W        W86219   6.897  18.079  13.810
24557W        W86220  43.304  27.621   0.314
24558W        W86221  16.162  37.069  12.867
24559W        W86222  13.814  36.875  13.449
24560W        W86223  43.814  16.746   4.837
24561W        W86224  13.173   9.208   3.185
24562W        W86225  20.622  14.216  13.415
24563W        W86226  38.998   5.774  10.961
24564W        W86227  22.050  20.116  14.932
24565W        W86228  23.600  31.506   1.888
24566W        W86229  39.974   3.876  12.841
24567W        W86230   6.408  30.115  14.909
24568W        W86231  44.451  29.119  14.887
24569W        W86232  18.192  15.183   1.442
24570W        W86233   3.749  13.250  11.000
24571W        W86234   8.854  32.521   2.734
24572W        W86235   8.870  39.921   2.274
24573W        W86236  11.846  43.830   4.704
24574W        W86237  28.567  39.057  12.047
24575W        W86238  43.772  29.958  14.823
24576W        W86239  36.941  21.557  10.931
24577W        W86240  20.764  30.637  12.510
24578W        W86241  41.817  25.121  10.923
24579W        W86242  30.652   7.297  11.380
24580W        W86243  22.689  11.853   1.772
24581W        W86244  36.452  13.124  11.931
24582W        W86245  28.940  29.971   2.268
24583W        W86246  27.676  36.852  12.966
24584W        W86247  25.195  27.646   4.821
24585W        W86248   3.321  11.185   0.924
24586W        W86249  16.618  20.716  12.424
24587W        W86250  29.127  25.210   3.654
24588W        W86251   1.760  16.767   4.719
24589W        W86252  10.782  33.558  14.460
24590W        W86253  14.807  19.697  11.424
24591W        W86254  15.742  39.424  12.526
24592W        W86255  14.124  19.167   3.844
24593W        W86256  37.060  30.637  14.876
24594W        W86257  12.315  28.183   1.430
24595W        W86258  39.447  21.245  14.948
24596W        W86259  29.046  15.248  12.916
24597W        W86260  25.589   8.793  13.835
24598W        W86261  40.351  17.587  14.349
24599W        W86262  37.980  38.432   1.921
24600W        W86263  13.657  33.503   1.311
24601W        W86264  26.702  10.255   2.303
24602W        W86265  25.147   5.872  12.957
24603W        W86266  27.535  25.579   1.766
24604W        W86267  15.122  17.779   2.255
24605W        W86268  44.782  10.633   3.344
24606W        W86269  10.169  20.751  14.880
24607W        W86270  34.972   5.308   2.414
24608W        W86271  26.050  24.146  14.281
24609W        W86272  25.701  27.136  12.529
24610W        W86273  20.138  14.163  12.364
24611W        W86274  11.159  41.861  12.069
24612W        W86275  19.244  42.521   2.714
24613W        W86276  44.925  42.392   3.832
24614W        W86277   9.273  34.954  12.404
24615W        W86278  25.981  30.486   4.307
24616W        W86279  19.719  16.092  10.143
24617W        W86280  43.458  34.570   3.222
24618W        W86281  15.691  18.078   4.274
24619W        W86282  12.346  20.241   0.321
24620W        W86283  41.524   0.259   4.799
24621W        W86284  40.303  43.766   3.274
24622W        W86285  30.969  40.549   4.285
24623W        W86286  18.770  17.144   2.725
24624W        W86287   8.169   4.409  14.989
24625W        W86288   0.825  12.680   2.376
24626W        W86289  39.004  15.275   2.715
24627W        W86290  10.844  26.568  11.569
24628W        W86291   0.249  25.660  11.952
24629W        W86292  32.481  42.288   0.837
24630W        W86293  34.978  34.894   0.780
24631W        W86294  16.226  25.982  11.064
24632W        W86295  34.021  24.722   3.853
24633W        W86296  23.147  22.603   3.358
24634W        W86297  39.362  36.464   1.860
24635W        W86298  18.650   5.694   2.409
24636W        W86299  38.986  17.256  12.953
24637W        W86300  42.817  42.502   1.905
24638W        W86301   3.216  12.330   1.926
24639W        W86302  33.385   7.330  12.516
24640W        W86303   9.340  38.946  10.129
24641W        W86304  23.608  39.491   4.247
24642W        W86305   1.258  41.952  13.054
24643W        W86306  13.226   9.798  11.487
24644W        W86307   3.367  44.933   2.712
24645W        W86308   5.930   3.301   4.164
24646W        W86309  27.551   1.373   4.321
24647W        W86310   3.916  17.100  13.006
24648W        W86311  41.465  23.689  14.497
24649W        W86312  35.023   3.341  10.075
24650W        W86313  39.409  39.811   4.774
24651W        W86314  19.687  27.449  13.836
24652W        W86315  35.482   0.441  12.076
24653W        W86316  44.885  27.960  10.158
24654W        W86317  23.660   8.269   1.323
24655W        W86318  42.443  16.158   5.123
24656W        W86319   6.400  16.099   3.714
24657W        W86320  21.617  35.909  13.062
24658W        W86321   7.716  43.373   2.369
24659W        W86322   1.329   2.925   0.352
24660W        W86323  34.071  24.218  13.894
24661W        W86324  38.410  12.204   1.903
24662W        W86325  36.491  38.550  10.635
24663W        W86326  32.516  11.630   3.637
24664W        W86327  33.576  43.935   2.285
24665W        W86328  37.892  20.557   4.634
24666W        W86329  26.198  12.324  12.845
24667W        W86330   4.299  32.505  14.938
24668W        W86331  25.057  38.466   2.901
24669W        W86332  37.954  40.836   3.353
24670W        W86333  44.822  10.859   0.785
24671W        W86334  34.532  13.307   4.715
24672W        W86335  35.924  41.897  12.862
24673W        W86336  25.588   1.757   4.747
24674W        W86337  21.521  16.725   1.858
24675W        W86338  33.624  32.545  12.396
24676W        W86339   1.767  17.205   3.750
24677W        W86340   6.414  12.820   2.405
24678W        W86341  15.324  28.542   2.213
24679W        W86342  14.185  40.823  13.909
24680W        W86343  15.651  32.967   1.738
24681W        W86344  12.761  23.005  13.846
24682W        W86345  35.362  32.073  14.942
24683W        W86346  37.971  14.777  13.414
24684W        W86347   3.912   0.954   3.234
24685W        W86348  14.322  24.099  14.018
24686W        W86349  43.927  41.798  12.929
24687W        W86350  35.397   8.779   2.848
24688W        W86351  21.060  18.144  14.462
24689W        W86352  36.460  41.296   3.764
24690W        W86353  19.637  33.114  11.014
24691W        W86354  24.979  37.916   1.322
24692W        W86355  12.163  28.134  14.392
24693W        W86356  32.047  30.450   2.238
24694W        W86357  42.373  20.216   2.320
24695W        W86358   4.326  13.254   4.775
24696W        W86359  27.975   9.224  11.419
24697W        W86360   2.271   8.846  13.315
24698W        W86361  14.247  38.463  12.384
24699W        W86362  14.769  35.376  11.977
24700W        W86363  40.971   7.710   0.903
24701W        W86364  15.182   8.325   3.836
24702W        W86365  43.857  19.726   3.855
24703W        W86366  38.936  25.498   0.859
24704W        W86367  24.647   1.410  14.847
24705W        W86368   5.724  20.165  13.883
24706W        W86369  36.961  35.467   4.304
24707W        W86370  25.478  23.604  13.397
24708W        W86371  28.998  40.050  11.119
24709W        W86372   5.896  40.941   0.437
24710W        W86373  24.516   6.198  10.972
24711W        W86374  44.319  17.586  10.422
24712W        W86375  24.681  24.210  12.825
24713W        W86376  42.302  18.059  13.949
24714W        W86377  22.213   9.768  14.451
24715W        W86378   8.343  31.103  12.913
24716W        W86379  39.336  41.461   0.314
24717W        W86380  33.520  20.039   3.708
24718W        W86381  10.239  37.417  14.277
24719W        W86382  30.553  38.060   3.748
24720W        W86383  42.786  37.358   4.174
24721W        W86384  34.988  43.311   1.303
24722W        W86385  34.096  22.107   4.765
24723W        W86386  16.744  32.490   0.244
24724W        W86387  34.422  21.055  14.281
24725W        W86388  14.721  18.226  11.463
24726W        W86389  22.580  43.478   1.421
24727W        W86390   8.175  22.025  13.420
24728W        W86391  20.718  21.072   0.936
24729W        W86392  40.428  42.321   1.451
24730W        W86393  10.323  31.648  14.767
24731W        W86394  27.501  30.003   3.210
24732W        W86395  40.379  39.549  11.423
24733W        W86396  33.453  36.429   0.474
24734W        W86397  30.130  30.566  12.999
24735W        W86398   3.783   3.741  11.115
24736W        W86399  17.109  32.460   3.671
24737W        W86400   7.173   6.372  14.019
24738W        W86401  21.539  17.709  10.494
24739W        W86402  14.190  40.401  10.939
24740W        W86403  21.521  34.557   0.751
24741W        W86404   4.364  20.669   3.181
24742W        W86405  44.760  23.654   1.333
24743W        W86406  10.839  33.445  13.905
24744W        W86407  19.096   1.856  10.005
24745W        W86408   1.258  34.546  12.003
24746W        W86409  23.187  38.467   4.353
24747W        W86410  38.984  21.146   0.876
24748W        W86411  13.722  35.603  13.973
24749W        W86412  10.155  15.602  12.830
24750W        W86413  42.023  19.134   2.814
24751W        W86414  31.636  12.743   2.895
24752W        W86415  25.696  42.386  10.916
24753W        W86416   9.879  11.184   2.190
24754W        W86417  23.140  39.482  12.005
24755W        W86418   1.317  40.409   1.910
24756W        W86419  35.441  42.505  14.281
24757W        W86420  12.837  34.379   1.265
24758W        W86421  42.333   5.399  10.941
24759W        W86422   8.214  12.285   2.331
24760W        W86423  40.879  38.414   3.318
24761W        W86424  40.042  27.106   0.449
24762W        W86425   9.711  34.467  14.905
24763W        W86426  11.785  29.614   2.668
24764W        W86427  13.213  18.064   5.277
24765W        W86428   8.348  34.402   2.299
24766W        W86429  37.421  34.974   3.354
24767W        W86430  11.273  17.661  11.049
24768W        W86431   1.293  32.114  14.378
24769W        W86432  10.309  30.456  13.840
24770W        W86433  30.083  11.816  12.089
24771W        W86434  28.995  17.135  11.589
24772W        W86435  21.555  19.765   2.331
24773W        W86436  18.715  36.457  12.534
24774W        W86437  38.456  21.627  11.402
24775W        W86438  13.236   0.455   2.895
24776W        W86439  33.110  41.456   2.212
24777W        W86440  38.497  26.133   3.274
24778W        W86441  31.501   0.888   2.220
24779W        W86442  28.646  33.535   1.388
24780W        W86443  20.768  14.221   1.847
24781W        W86444  34.551  29.474   2.749
24782W        W86445  37.011  17.769  12.382
24783W        W86446  40.504   8.276   1.288
24784W        W86447  25.018  17.739  11.564
24785W        W86448  16.242  29.508  12.569
24786W        W86449   1.733   7.897   2.848
24787W        W86450   6.831  17.636  12.577
24788W        W86451  37.836  10.664   2.787
24789W        W86452   7.207  41.851  14.909
24790W        W86453  42.901  39.421  12.029
24791W        W86454  25.001  37.469  14.473
24792W        W86455  24.639   9.757   0.730
24793W        W86456  17.168  26.484   0.308
24794W        W86457  26.011   5.261   1.922
24795W        W86458  26.525  12.613   0.881
24796W        W86459  12.617  22.193   2.869
24797W        W86460  21.679  32.446  11.411
24798W        W86461  24.618  41.369  10.999
24799W        W86462  21.068   9.173   2.675
24800W        W86463   5.312  35.907  11.580
24801W        W86464  31.536  22.224  13.971
24802W        W86465   0.914  11.865   4.711
24803W        W86466  31.143  19.261   2.317
24804W        W86467  18.100  33.954   1.238
24805W        W86468  14.694  39.486   5.203
24806W        W86469  41.356   1.803   2.700
24807W        W86470  11.715  33.943   2.184
24808W        W86471  25.112  39.529   3.655
24809W        W86472  12.127  11.326  10.608
24810W        W86473  37.517  44.897  14.505
24811W        W86474  35.042  26.025  11.461
24812W        W86475  19.589   2.430   1.391
24813W        W86476  37.895  36.909  11.424
24814W        W86477  13.170  36.393  12.029
24815W        W86478   0.845  35.538   2.717
24816W        W86479   5.707  43.786  13.418
24817W        W86480  44.961  32.036  13.335
24818W        W86481  19.644  43.408  14.988
24819W        W86482   6.417  25.207  10.942
24820W        W86483  20.702   7.899   1.862
24821W        W86484  16.719  16.079  13.517
24822W        W86485   7.244   1.949  11.001
24823W        W86486  12.736  28.030  12.838
24824W        W86487  24.989  35.383   0.752
24825W        W86488  39.854  40.411  10.456
24826W        W86489  20.558  16.638   0.938
24827W        W86490  41.316  22.737   4.154
24828W        W86491  36.853   9.763  11.562
24829W        W86492  23.240  24.570   3.223
24830W        W86493   8.688  32.101  13.339
24831W        W86494  14.242  19.634  13.805
24832W        W86495  24.585  12.826   3.245
24833W        W86496   6.678   6.231  12.476
24834W        W86497  34.944  21.195  12.835
24835W        W86498  19.228  22.095  11.935
24836W        W86499  27.043   5.904  10.610
24837W        W86500  33.045   7.869  12.057
24838W        W86501   3.373  41.896   1.225
24839W        W86502   8.849   8.729  10.929
24840W        W86503  44.344   5.739   0.298
24841W        W86504  33.936  18.778  11.068
24842W        W86505  33.989  13.664  11.516
24843W        W86506  43.445  40.837   3.653
24844W        W86507  30.005  30.946  11.907
24845W        W86508  44.357  37.447   3.265
24846W        W86509  26.971  17.696  14.431
24847W        W86510  16.082  26.557   2.745
24848W        W86511  40.037  18.276  14.893
24849W        W86512  30.489  28.589  12.001
24850W        W86513  10.376   9.828   0.853
24851W        W86514  23.721  29.055   1.306
24852W        W86515  36.363   7.252   1.317
24853W        W86516  13.624  29.438  12.986
24854W        W86517  30.059   0.838   3.641
24855W        W86518  14.621  20.545   1.334
24856W        W86519  29.455  28.551   0.388
24857W        W86520   8.816   7.780  14.828
24858W        W86521  35.081   5.338  13.804
24859W        W86522  11.662  20.573   2.705
24860W        W86523   8.690   0.445  12.400
24861W        W86524  18.102  19.117   1.340
24862W        W86525   6.715  40.962  11.859
24863W        W86526  25.622  38.383   4.340
24864W        W86527  23.127  10.670  11.438
24865W        W86528  12.811   0.400   0.760
24866W        W86529   6.253  42.977   1.361
24867W        W86530   1.925  13.255  12.576
24868W        W86531  34.926  25.022   5.215
24869W        W86532  37.893  43.855   3.161
24870W        W86533  24.700  27.073  13.812
24871W        W86534  17.720   2.373   2.668
24872W        W86535  14.827   9.364  14.873
24873W        W86536  36.445  14.206  12.469
24874W        W86537  20.092  25.541   4.295
24875W        W86538  11.709  37.999  10.604
24876W        W86539  43.939  10.165  10.542
24877W        W86540  33.468  37.398   4.600
24878W        W86541  20.726   2.338  12.477
24879W        W86542   8.746  44.318   2.268
24880W        W86543  18.101   4.811   0.412
24881W        W86544  41.822  35.359  12.851
24882W        W86545  42.353  42.458  13.036
24883W        W86546  18.091  32.493  10.579
24884W        W86547  14.696  32.977   1.392
24885W        W86548  13.767  32.507  14.931
24886W        W86549  31.985  11.802   4.738
24887W        W86550  28.140  42.335  10.893
24888W        W86551  19.594  40.026  14.970
24889W        W86552  21.518  23.132   0.861
24890W        W86553  22.999  40.499   0.908
24891W        W86554  18.604  26.618   2.379
24892W        W86555  44.890  17.103  10.026
24893W        W86556  10.839  38.367  14.863
24894W        W86557  42.920  32.395  10.453
24895W        W86558  22.579   7.370   2.405
24896W        W86559   6.399  43.999   4.666
24897W        W86560  10.199  17.779   1.796
24898W        W86561   7.815  10.340  11.375
24899W        W86562  34.394  33.503   1.418
24900W        W86563  40.475  12.323   1.354
24901W        W86564   3.795  37.947  12.550
24902W        W86565  12.820   4.761  14.820
24903W        W86566  39.919  41.527   0.312
24904W        W86567  44.905  10.758   1.277
24905W        W86568  42.981  20.633  14.976
24906W        W86569   0.447  39.950  14.917
24907W        W86570  20.579  23.668  10.579
24908W        W86571  28.681  20.539   4.702
24909W        W86572  12.356   1.398  13.823
24910W        W86573  33.557  30.459  11.031
24911W        W86574  32.438  13.749   1.262
24912W        W86575  20.668  43.896  12.526
24913W        W86576  37.011  24.636  11.038
24914W        W86577   3.323  11.773  12.429
24915W        W86578   4.310  38.436  12.457
24916W        W86579   7.911   0.793  13.965
24917W        W86580  17.073  19.564   2.206
24918W        W86581  38.470   3.820  12.499
24919W        W86582  17.761   7.737  12.501
24920W        W86583  17.567  36.358  11.119
24921W        W86584  20.596  36.588  11.405
24922W        W86585  37.566  38.336   4.805
24923W        W86586  28.486  14.144   3.271
24924W        W86587  29.628  13.602  14.006
24925W        W86588  33.537  14.690  12.934
24926W        W86589  23.491   6.207   5.649
24927W        W86590  12.352  18.570   3.340
24928W        W86591  13.769  31.993  14.850
24929W        W86592  34.919  18.694   1.382
24930W        W86593  29.135  32.477   0.925
24931W        W86594  41.951  18.057   2.737
24932W        W86595  31.052  31.576  11.455
24933W        W86596  13.648  21.035  10.107
24934W        W86597  27.113  14.693   4.172
24935W        W86598  28.984  15.674   0.474
24936W        W86599  11.336  29.450  11.533
24937W        W86600  31.407   5.767  14.008
24938W        W86601   8.348  37.550  13.347
24939W        W86602   2.756  42.931   3.184
24940W        W86603  20.164   2.357  14.984
24941W        W86604  12.188   3.224  10.986
24942W        W86605   5.304   2.465  11.490
24943W        W86606  23.513  11.658  12.025
24944W        W86607  36.010  41.530  13.545
24945W        W86608  10.352   2.885   0.337
24946W        W86609  22.583  38.950   3.376
24947W        W86610  12.273   2.896   2.877
24948W        W86611  42.468   0.776   4.144
24949W        W86612  32.635  37.873  11.406
24950W        W86613  34.898  43.501  14.386
24951W        W86614  35.481   8.709  13.033
24952W        W86615   0.937  36.536  12.926
24953W        W86616  16.800  34.545   1.401
24954W        W86617  16.691  35.886   1.334
24955W        W86618  26.583  22.077  12.502
24956W        W86619  38.002   9.351   4.790
24957W        W86620  16.652  22.132   3.241
24958W        W86621  41.030  32.551   4.633
24959W        W86622  24.570   9.225   3.763
24960W        W86623  41.361  20.573   0.922
24961W        W86624  23.564  13.830   4.662
24962W        W86625  32.004  43.021   0.844
24963W        W86626  27.152  35.920  14.021
24964W        W86627  31.998  28.497   2.262
24965W        W86628  18.099   1.920   3.811
24966W        W86629  31.150  36.385  12.472
24967W        W86630  36.938  33.613   2.872
24968W        W86631   3.766   9.270   2.684
24969W        W86632   3.455  29.612  13.383
24970W        W86633  43.364   3.920  13.961
24971W        W86634  10.763  20.154  11.012
24972W        W86635  20.197   0.893   3.812
24973W        W86636  43.340   9.815   5.686
24974W        W86637  42.030  26.094   4.319
24975W        W86638  33.495  41.377   2.243
24976W        W86639  44.900  42.468   2.197
24977W        W86640  12.756  10.853  14.486
24978W        W86641  36.966  34.106  13.355
24979W        W86642  42.336  19.556   0.872
24980W        W86643  13.351   5.884  14.913
24981W        W86644  25.997  27.486   1.298
24982W        W86645  39.898  30.143  10.473
24983W        W86646  38.052  22.150  14.417
24984W        W86647  39.814   6.877  12.386
24985W        W86648  33.913  33.549  14.440
24986W        W86649   4.713  32.110   9.966
24987W        W86650   1.875  34.053  12.876
24988W        W86651  23.566  12.772   0.786
24989W        W86652  23.123  44.327   3.797
24990W        W86653   9.165  16.234  13.991
24991W        W86654  24.562  39.435   1.346
24992W        W86655  15.308  16.744  12.023
24993W        W86656  19.631   0.796   4.667
24994W        W86657  43.459  20.196   0.827
24995W        W86658  21.209   0.248  10.932
24996W        W86659  14.106  28.184   4.150
24997W        W86660  33.911   7.408   3.818
24998W        W86661   7.203  27.486   1.858
24999W        W86662  10.689  41.882  10.627
25000W        W86663   9.376  17.776   0.887
25001W        W86664  15.810  39.472  11.599
25002W        W86665  43.005  42.844   4.114
25003W        W86666  35.370  24.102  13.362
25004W        W86667   6.703  21.568  13.311
25005W        W86668  23.122  31.585  14.322
25006W        W86669  21.177  23.509  10.971
25007W        W86670   9.312  24.640  11.543
25008W        W86671  28.452  44.286   4.607
25009W        W86672  19.147  44.802  11.936
25010W        W86673  14.283  21.189  14.381
25011W        W86674  34.449   5.385  10.417
25012W        W86675   5.767  10.697   3.198
25013W        W86676  35.998  20.126   2.203
25014W        W86677   2.442   4.923   9.977
25015W        W86678  11.319  10.772   1.270
25016W        W86679  33.011   9.791  13.848
25017W        W86680  16.180   7.848   4.270
25018W        W86681  15.772   1.859   1.790
25019W        W86682  40.322  28.018  13.045
25020W        W86683  39.887  27.091  13.401
25021W        W86684  29.007  35.941  11.406
25022W        W86685  37.054  34.054   1.704
25023W        W86686  38.469  31.526   1.804
25024W        W86687   2.789  29.083  11.586
25025W        W86688  22.248  17.291  13.912
25026W        W86689  13.244  34.540   3.792
25027W        W86690  37.909  34.470   4.634
25028W        W86691  28.435  18.199  14.299
25029W        W86692  14.737  17.074   0.403
25030W        W86693   6.683  10.829   3.745
25031W        W86694  15.643   5.880   2.870
25032W        W86695  24.543   6.385  11.381
25033W        W86696  39.490   2.443   1.273
25034W        W86697  15.234   9.874   4.123
25035W        W86698  25.072   0.922   2.794
25036W        W86699  27.586  32.452  11.548
25037W        W86700  30.980  43.880   2.887
25038W        W86701   8.822  22.503   4.730
25039W        W86702  10.636  17.308  13.961
25040W        W86703  26.480  29.013  11.432
25041W        W86704   1.973  38.994  11.909
25042W        W86705  31.532   9.358  11.998
25043W        W86706   4.864  23.031  13.853
25044W        W86707  29.528  12.857  10.999
25045W        W86708  24.138  37.850   0.922
25046W        W86709  30.414  44.994   3.719
25047W        W86710   0.274  12.340   0.727
25048W        W86711  41.454  21.707   4.124
25049W        W86712  21.148  34.441  10.415
25050W        W86713   4.247  22.155   4.170
25051W        W86714   6.734  13.629   2.685
25052W        W86715   0.841   5.933  14.381
25053W        W86716  35.012  10.783  13.496
25054W        W86717   4.228  35.551  11.100
25055W        W86718   8.293  10.182   1.791
25056W        W86719  37.980  14.830   1.720
25057W        W86720  38.934  35.852   5.089
25058W        W86721  25.667  27.991   1.321
25059W        W86722  42.985  18.606  13.505
25060W        W86723   4.895  40.951   1.708
25061W        W86724  14.613  39.363   2.223
25062W        W86725  30.132  29.479  12.447
25063W        W86726  14.284  16.269   4.191
25064W        W86727   1.264  14.621   3.340
25065W        W86728  43.349  34.500  11.405
25066W        W86729   4.215   4.219  10.959
25067W        W86730   6.250  34.446  10.546
25068W        W86731   1.379  20.145   3.633
25069W        W86732   8.277  15.625   4.121
25070W        W86733  20.137  26.160  14.505
25071W        W86734  44.449  21.088   4.282
25072W        W86735   0.326   5.253  12.937
25073W        W86736  41.919  33.032  13.449
25074W        W86737  35.940  40.403  10.954
25075W        W86738  17.208   1.732  11.932
25076W        W86739  40.541  26.478  11.065
25077W        W86740   5.303  31.509   3.150
25078W        W86741  34.542  21.147  13.334
25079W        W86742   1.237  33.586   0.318
25080W        W86743  38.406  30.438   0.766
25081W        W86744   0.984  30.998   4.260
25082W        W86745  21.577  35.496   4.790
25083W        W86746  44.266  35.862   3.751
25084W        W86747  37.009  38.343  12.857
25085W        W86748  35.012  25.551   3.661
25086W        W86749  35.361  35.442  11.410
25087W        W86750  31.944   5.379  10.082
25088W        W86751  31.452  13.678   2.350
25089W        W86752  28.439  13.650  12.504
25090W        W86753  31.615   2.741   3.366
25091W        W86754  13.733  10.809   4.790
25092W        W86755   9.670  14.145  12.869
25093W        W86756  23.016   9.369   2.735
25094W        W86757  39.980  12.273  13.390
25095W        W86758  13.616  16.117   4.679
25096W        W86759   8.240  30.032   1.363
25097W        W86760  26.686  12.208  14.914
25098W        W86761   4.271  24.974   2.883
25099W        W86762  27.669  18.631   1.880
25100W        W86763  36.396  42.876  13.933
25101W        W86764  23.669   6.302  10.987
25102W        W86765   2.322  42.368  13.830
25103W        W86766  11.645  33.611  11.552
25104W        W86767  27.008  43.922   5.565
25105W        W86768   8.352  23.547   2.745
25106W        W86769   3.867  44.426  12.932
25107W        W86770  32.575  34.943  14.846
25108W        W86771  42.022  43.916  12.365
25109W        W86772  15.686  27.480   3.662
25110W        W86773  13.657  29.459  11.541
25111W        W86774   2.244   8.658  11.492
25112W        W86775  28.124  31.909  11.021
25113W        W86776  37.339  29.669   3.639
25114W        W86777  10.781  44.347  13.981
25115W        W86778  23.236  29.150  12.043
25116W        W86779  30.651  34.468  12.846
25117W        W86780   5.693  33.499  13.369
25118W        W86781  10.759  41.297  12.472
25119W        W86782  21.652  11.667   1.883
25120W        W86783   1.386  18.065   3.362
25121W        W86784   6.290  29.593   1.302
25122W        W86785  12.681  27.956   0.246
25123W        W86786   1.425  40.517   4.226
25124W        W86787   5.872  29.132   2.776
25125W        W86788  31.988  21.659   5.205
25126W        W86789   9.382  22.213  14.787
25127W        W86790  31.094  13.125   3.340
25128W        W86791  10.730  39.393  14.475
25129W        W86792  23.054   6.335   2.803
25130W        W86793  18.249  38.412   2.815
25131W        W86794  14.215  34.580  14.840
25132W        W86795   4.725  13.328   2.374
25133W        W86796  16.590   2.792   4.209
25134W        W86797  33.880  12.682  14.772
25135W        W86798  34.464  15.808   3.813
25136W        W86799   5.280   0.303   3.220
25137W        W86800  42.023   7.226   3.264
25138W        W86801  14.674  21.150  11.080
25139W        W86802  23.132  33.978  13.972
25140W        W86803  19.146  32.089  12.035
25141W        W86804  18.254  41.293   3.658
25142W        W86805  14.597   4.933  10.436
25143W        W86806   0.839   6.719  12.096
25144W        W86807  16.754  30.510   4.304
25145W        W86808  30.435  38.890  10.549
25146W        W86809  14.743   0.323  14.385
25147W        W86810   2.446  18.242   1.433
25148W        W86811  26.059  18.728  12.013
25149W        W86812  22.223  15.195  14.425
25150W        W86813  39.954  10.857   3.205
25151W        W86814  20.710  13.716   3.352
25152W        W86815  11.168  12.313  11.073
25153W        W86816   8.687  34.592   4.237
25154W        W86817   0.921  12.698   3.293
25155W        W86818  25.002  13.240  11.027
25156W        W86819   1.934  32.589   4.676
25157W        W86820  18.115  11.656   0.967
25158W        W86821  20.098  27.534  12.375
25159W        W86822  13.283  25.020   5.301
25160W        W86823  37.371  21.738   0.329
25161W        W86824  32.093  32.055  12.339
25162W        W86825  33.478   5.227   4.832
25163W        W86826  42.314   1.787   2.400
25164W        W86827  18.620  12.810  10.039
25165W        W86828  35.051  10.776   2.768
25166W        W86829  39.049  30.455   5.235
25167W        W86830  44.461  22.014  10.105
25168W        W86831  24.007  44.376  12.378
25169W        W86832  35.928   0.483   3.362
25170W        W86833   4.744  14.250   0.966
25171W        W86834  34.500  35.597   0.750
25172W        W86835  14.136  12.219  11.407
25173W        W86836  28.980  44.337   1.745
25174W        W86837   0.255  37.994   3.248
25175W        W86838  37.485  23.009  13.833
25176W        W86839  41.391   0.928   3.852
25177W        W86840  33.411  25.029  14.999
25178W        W86841  25.554  11.623   1.890
25179W        W86842  43.830   1.301   1.441
25180W        W86843  19.559  23.493  10.519
25181W        W86844  13.176  10.302  10.102
25182W        W86845  32.110  42.510   4.245
25183W        W86846  43.498  17.698  12.090
25184W        W86847  11.639   5.415   4.818
25185W        W86848  23.101  16.235  11.000
25186W        W86849   0.266  36.934  14.913
25187W        W86850  31.587  38.015   3.342
25188W        W86851  25.064  25.581  10.563
25189W        W86852  14.163  44.762   2.319
25190W        W86853  14.312  24.203   3.378
25191W        W86854  22.509   9.806  10.910
25192W        W86855  32.432  36.381  14.432
25193W        W86856  39.332  22.057   2.250
25194W        W86857  41.334   6.228  13.809
25195W        W86858  22.143  44.346  11.102
25196W        W86859  31.105  44.753   1.213
25197W        W86860  19.696  13.316   1.333
25198W        W86861   9.760  27.537  12.496
25199W        W86862  33.893  23.661  11.925
25200W        W86863  38.548  17.268   4.343
25201W        W86864   2.941   7.247  14.403
25202W        W86865  20.074   0.335  14.008
25203W        W86866  38.447   4.213   2.269
25204W        W86867  31.969  32.531  10.924
25205W        W86868   1.877  38.552   4.174
25206W        W86869  42.393  20.628   3.237
25207W        W86870  14.776  44.897  10.618
25208W        W86871   9.811  13.791   1.894
25209W        W86872  40.359   6.886  12.016
25210W        W86873  41.981  44.927  12.069
25211W        W86874  33.487  36.528   1.286
25212W        W86875  24.545  13.262  11.945
25213W        W86876  20.734  10.188  14.474
25214W        W86877  42.939  26.600   0.470
25215W        W86878  35.960  18.567  13.855
25216W        W86879   8.767  11.862  11.544
25217W        W86880  26.561  22.032   2.723
25218W        W86881  28.460  10.837   3.775
25219W        W86882   0.893  25.026   2.770
25220W        W86883  29.097  38.368   1.316
25221W        W86884  22.747   4.792   0.838
25222W        W86885  22.740  27.463   1.355
25223W        W86886  33.119  37.964  12.022
25224W        W86887  38.565  41.376   0.426
25225W        W86888  15.260  19.223   2.702
25226W        W86889  35.946  16.109   4.720
25227W        W86890  24.134  16.567   0.467
25228W        W86891  25.597  32.450  13.379
25229W        W86892  12.199  25.472   3.721
25230W        W86893  21.170  27.638   2.720
25231W        W86894  17.644  30.134  14.447
25232W        W86895  13.271  10.727   1.341
25233W        W86896  25.548  23.557  14.383
25234W        W86897  16.630  41.532  14.463
25235W        W86898  19.716  25.174   2.845
25236W        W86899  20.105   3.270   3.186
25237W        W86900  31.914   0.972   2.253
25238W        W86901  42.989  44.504  13.998
25239W        W86902  12.138  21.169  10.624
25240W        W86903  21.672  42.392  11.012
25241W        W86904  26.091  44.781   3.202
25242W        W86905  19.759  20.030   4.236
25243W        W86906  34.522  37.549   0.308
25244W        W86907  30.927  31.597  14.470
25245W        W86908  18.135  34.526   0.376
25246W        W86909  40.885  28.014  12.084
25247W        W86910   4.754  20.601   2.816
25248W        W86911  39.811  10.815   9.935
25249W        W86912   5.786  35.958   1.866
25250W        W86913  44.476  16.152  14.379
25251W        W86914  41.864  23.997   1.718
25252W        W86915  10.173  29.667   2.407
25253W        W86916   8.846   6.335   2.276
25254W        W86917  21.249  17.218   4.262
25255W        W86918  29.585  30.549  13.402
25256W        W86919  11.329  16.236  14.966
25257W        W86920   7.373  36.400   3.643
25258W        W86921  43.420   0.484  12.521
25259W        W86922   5.193  12.182  10.504
25260W        W86923  39.410  33.402   3.266
25261W        W86924  24.200  24.195   1.306
25262W        W86925  31.059  39.041  12.513
25263W        W86926  15.666  27.967   0.918
25264W        W86927  28.001  35.402  10.439
25265W        W86928  32.457  22.211  11.519
25266W        W86929  20.728  30.461   2.357
25267W        W86930  25.967  20.104  13.533
25268W        W86931  37.948  41.994  14.394
25269W        W86932  34.890  28.042   0.247
25270W        W86933  20.029  12.669   4.827
25271W        W86934   1.927  26.037   1.771
25272W        W86935  37.362  38.836   3.714
25273W        W86936  38.324  10.293  12.885
25274W        W86937  21.149   8.841   1.811
25275W        W86938  17.787   1.324   4.275
25276W        W86939  37.473  34.094  12.964
25277W        W86940  10.169  14.816  10.484
25278W        W86941  30.943  22.563  11.577
25279W        W86942  32.391  43.453  11.036
25280W        W86943  19.734  26.083  13.437
25281W        W86944  17.159  29.020  11.000
25282W        W86945   8.798  17.288  14.002
25283W        W86946  44.947   1.239   4.249
25284W        W86947   8.194   8.755  13.870
25285W        W86948  16.091  23.009   2.222
25286W        W86949  41.824   7.352   2.223
25287W        W86950   6.321  41.428   4.765
25288W        W86951  22.034   7.174   0.427
25289W        W86952  40.885  17.259   1.364
25290W        W86953   3.894  35.495  12.567
25291W        W86954  12.834  43.826   4.315
25292W        W86955  44.457  27.650  10.469
25293W        W86956  31.064  42.870   3.383
25294W        W86957  25.092  23.027   3.156
25295W        W86958  32.978  37.384  14.950
25296W        W86959  16.113  39.381   2.379
25297W        W86960  33.885   4.354   5.141
25298W        W86961  29.145  34.974  14.275
25299W        W86962   7.897  13.197  12.894
25300W        W86963  28.044  29.483   4.245
25301W        W86964   9.187  20.235   0.797
25302W        W86965   5.208  28.534   0.480
25303W        W86966  21.096  37.871   4.151
25304W        W86967   7.880  39.971  10.463
25305W        W86968  26.697  20.145  13.342
25306W        W86969  32.011  10.261  12.846
25307W        W86970   4.784   9.808   4.199
25308W        W86971  25.164  17.791  13.459
25309W        W86972   1.260   9.341   3.165
25310W        W86973  35.096  36.507  14.767
25311W        W86974  23.494   5.414   1.737
25312W        W86975  24.014  31.080  13.341
25313W        W86976  35.373  19.743  12.837
25314W        W86977  37.950  18.580   4.697
25315W        W86978  42.523   6.359   2.180
25316W        W86979   8.691  38.870  11.008
25317W        W86980  26.670  22.740   0.268
25318W        W86981  26.998  33.976  12.364
25319W        W86982  13.271   9.725  12.491
25320W        W86983  14.169  28.089   1.219
25321W        W86984   0.298  44.339  12.497
25322W        W86985   3.404  22.040   3.351
25323W        W86986   8.173  25.196  14.353
25324W        W86987  29.077   0.882  13.450
25325W        W86988   3.710  11.191   4.780
25326W        W86989  31.472  17.584  14.924
25327W        W86990  41.823  42.891  14.910
25328W        W86991  43.464  42.008  11.119
25329W        W86992  13.344  41.993  12.347
25330W        W86993  21.520  25.604  11.866
25331W        W86994   9.698  43.383  14.956
25332W        W86995  29.927  35.979  14.962
25333W        W86996  27.571  18.085   4.222
25334W        W86997  29.021  16.182  12.520
25335W        W86998  39.559  32.598  12.001
25336W        W86999  35.372  34.867  14.336
25337W        W87000   2.391  10.315  14.826
25338W        W87001   2.908   6.736   4.656
25339W        W87002  43.299  10.755   5.288
25340W        W87003  20.687  37.868   3.355
25341W        W87004  30.909  25.974   0.927
25342W        W87005  15.178  43.368  14.848
25343W        W87006  26.062   9.832  13.840
25344W        W87007  24.718   8.159   4.738
25345W        W87008   3.401  35.505   0.837
25346W        W87009   5.326  42.517   1.279
25347W        W87010  22.517  22.208  11.406
25348W        W87011  44.384  23.147  14.808
25349W        W87012  21.078  20.265   4.676
25350W        W87013  44.353  11.815  12.877
25351W        W87014  40.899  14.818   2.318
25352W        W87015  36.574   5.388   0.252
25353W        W87016  26.955   1.319   0.460
25354W        W87017   8.670  24.614   0.291
25355W        W87018  38.999  27.629   4.670
25356W        W87019  19.568   7.206  13.890
25357W        W87020  12.709  36.513   1.275
25358W        W87021   2.755  20.742   4.142
25359W        W87022  15.148  17.271  11.979
25360W        W87023  26.165   1.335  10.563
25361W        W87024  33.025  42.294  12.418
25362W        W87025  41.342  43.400  14.295
25363W        W87026  20.664  23.560  10.922
25364W        W87027  42.320  24.706   2.669
25365W        W87028  24.008  22.525  14.480
25366W        W87029  11.209  20.733   4.719
25367W        W87030   0.470  14.241   2.266
25368W        W87031  28.582   8.733  14.481
25369W        W87032  34.487  41.023   1.348
25370W        W87033  42.868  24.500   0.930
25371W        W87034  33.877  11.307  10.922
25372W        W87035   7.878  44.001  14.770
25373W        W87036  25.153   3.234   2.817
25374W        W87037   4.244  35.899  14.475
25375W        W87038  38.067  37.861  12.005
25376W        W87039  15.276  33.443  11.569
25377W        W87040  27.656  15.646  11.419
25378W        W87041  37.877  35.432  14.377
25379W        W87042   6.703  18.630  11.451
25380W        W87043   1.270  13.653  14.966
25381W        W87044   7.185  12.697  12.977
25382W        W87045  14.733  23.635  11.513
25383W        W87046  36.907  37.921   2.401
25384W        W87047  29.596  11.831  14.326
25385W        W87048   5.694   6.831   3.867
25386W        W87049  43.368  13.719   2.704
25387W        W87050  20.538   1.789  10.539
25388W        W87051  28.593  19.641  12.462
25389W        W87052  12.254  37.988   3.372
25390W        W87053  24.711  14.102  12.456
25391W        W87054   5.427  16.193   3.212
25392W        W87055  23.047  41.819   0.430
25393W        W87056  16.717  19.155   2.267
25394W        W87057  44.937   6.425  11.551
25395W        W87058  23.111  16.587  13.530
25396W        W87059  16.082   3.904  10.519
25397W        W87060   0.277  40.475  14.992
25398W        W87061  17.652   9.692   2.349
25399W        W87062   8.895   9.167  10.946
25400W        W87063  33.550  30.121   3.342
25401W        W87064  44.774  39.967  11.558
25402W        W87065  42.825  26.955   1.439
25403W        W87066   7.335  23.157   2.823
25404W        W87067  39.834  14.189   3.208
25405W        W87068  29.925  24.162  10.465
25406W        W87069  18.267  34.965   4.266
25407W        W87070  20.125   4.910   0.307
25408W        W87071  18.191  27.014  13.026
25409W        W87072   6.831  30.592   4.260
25410W        W87073  19.255   5.844  11.004
25411W        W87074  23.504  22.696  14.904
25412W        W87075  20.186   8.180   1.873
25413W        W87076   0.883   1.898  14.503
25414W        W87077  43.295   7.730  13.488
25415W        W87078  20.553   8.788  13.942
25416W        W87079   1.244  10.290   0.777
25417W        W87080  19.152  19.595   4.224
25418W        W87081  34.002  33.453   4.276
25419W        W87082  16.155  11.327   0.390
25420W        W87083  24.115  32.953  14.961
25421W        W87084  17.563  27.624   1.848
25422W        W87085   4.281  24.060  14.384
25423W        W87086  27.523  44.367   3.815
25424W        W87087  43.950   8.200  13.797
25425W        W87088  25.116  42.505  13.337
25426W        W87089  27.626  24.176  13.841
25427W        W87090  23.153  43.770  12.383
25428W        W87091  27.165  32.524   3.713
25429W        W87092  33.550  40.325  13.369
25430W        W87093  15.659  14.765   9.515
25431W        W87094  17.688  42.936  14.314
25432W        W87095   9.315   9.363   3.780
25433W        W87096  26.614  14.609  13.994
25434W        W87097  24.026  22.130  12.967
25435W        W87098  34.965  34.080  12.457
25436W        W87099  28.098  37.879   4.169
25437W        W87100   3.302  11.251  13.422
25438W        W87101  16.149   9.748   0.907
25439W        W87102  18.183  33.415  11.491
25440W        W87103  44.296  26.511   4.612
25441W        W87104  37.433   9.355  11.524
25442W        W87105  43.389  15.809  11.062
25443W        W87106  31.536  26.565   5.141
25444W        W87107  17.596  19.126   1.332
25445W        W87108  19.076  36.354   0.402
25446W        W87109  34.485  24.106  12.460
25447W        W87110  26.571  41.529  14.958
25448W        W87111  37.366   4.795  13.359
25449W        W87112  25.092  10.783  13.496
25450W        W87113  25.567  38.975   3.247
25451W        W87114   2.869  42.358  12.559
25452W        W87115  41.995  14.694  13.882
25453W        W87116  31.079   8.764   0.452
25454W        W87117   1.360   8.801  13.492
25455W        W87118  42.335  19.267  14.934
25456W        W87119  35.000  25.209   0.762
25457W        W87120  35.363  26.527   4.117
25458W        W87121  33.412  34.533  13.453
25459W        W87122  37.364  29.448  14.883
25460W        W87123  10.221  17.658  11.477
25461W        W87124  11.309  35.393   9.978
25462W        W87125  20.086  25.990   0.277
25463W        W87126  22.632  25.593  12.490
25464W        W87127  44.433  31.937   0.929
25465W        W87128  16.808   2.460   0.849
25466W        W87129  27.512  22.661  13.528
25467W        W87130  35.989  43.447   4.718
25468W        W87131  19.079  22.017  12.509
25469W        W87132  37.973   3.298   0.831
25470W        W87133  40.929  34.935  12.003
25471W        W87134  13.261  17.720   3.280
25472W        W87135  24.151  12.227   0.884
25473W        W87136  35.590   6.724  13.427
25474W        W87137  39.480  10.658  14.508
25475W        W87138   1.321  36.581  13.988
25476W        W87139  14.190  19.088   4.654
25477W        W87140  20.104  32.119  14.853
25478W        W87141  42.876  38.904   2.187
25479W        W87142  27.139  34.553  13.417
25480W        W87143  44.948  21.677  12.502
25481W        W87144  35.084  18.222   3.284
25482W        W87145  27.968   2.321   1.320
25483W        W87146  39.338  11.649  14.759
25484W        W87147  13.149  43.417   2.669
25485W        W87148  42.884   8.838   1.226
25486W        W87149  30.495  44.399  14.957
25487W        W87150  29.534  14.281   3.851
25488W        W87151  24.229  38.909  12.869
25489W        W87152  23.734  21.141   4.198
25490W        W87153   0.953  40.047  12.939
25491W        W87154  15.610   1.931  12.045
25492W        W87155  34.930   9.186   0.392
25493W        W87156  38.009   7.398   2.236
25494W        W87157  39.346  43.988   3.376
25495W        W87158  39.816   7.903  13.320
25496W        W87159   3.934  27.642   1.271
25497W        W87160  28.461  17.742  11.447
25498W        W87161  16.731   1.447  14.317
25499W        W87162  42.818   2.734  12.359
25500W        W87163  32.958  19.622   1.716
25501W        W87164  11.678  26.983  10.443
25502W        W87165  19.753  40.363  13.444
25503W        W87166   5.370  13.306   0.727
25504W        W87167  22.188  34.538   2.863
25505W        W87168  25.163   1.269  13.452
25506W        W87169  28.453  15.811  12.866
25507W        W87170  24.986  29.576   5.272
25508W        W87171   5.329  10.146  10.952
25509W        W87172   5.918   8.685   1.241
25510W        W87173   8.212  29.519  14.903
25511W        W87174  28.622  37.982   4.193
25512W        W87175  20.611  12.640   5.164
25513W        W87176  43.463   9.688  14.416
25514W        W87177  42.956  10.355  14.914
25515W        W87178  10.257  34.495   2.902
25516W        W87179  12.616  10.834  10.475
25517W        W87180  28.542  36.448   4.129
25518W        W87181  38.326   9.765  11.455
25519W        W87182  12.833  15.627  12.837
25520W        W87183  35.491  30.055  13.991
25521W        W87184  27.197  32.032   9.922
25522W        W87185  23.696  35.019  12.507
25523W        W87186  15.586  34.461  11.569
25524W        W87187   8.875  16.103  11.537
25525W        W87188  38.931  38.514   1.798
25526W        W87189   3.750  37.362  12.402
25527W        W87190  39.352  22.532   1.905
25528W        W87191  12.658  37.419  14.444
25529W        W87192  42.292  22.177   4.120
25530W        W87193  23.113  31.920   3.210
25531W        W87194  44.817   1.960   5.167
25532W        W87195  31.527   6.903   2.688
25533W        W87196  26.082   3.393  14.322
25534W        W87197   0.298   4.821  12.025
25535W        W87198  27.529  18.578   3.709
25536W        W87199  39.457  18.572   3.782
25537W        W87200  26.955  40.534  11.555
25538W        W87201  39.876  42.008  10.409
25539W        W87202  14.206   9.263   3.245
25540W        W87203   5.416  37.886   3.778
25541W        W87204  29.444  28.085  11.477
25542W        W87205  43.853  12.116  12.550
25543W        W87206  20.560  28.597  10.571
25544W        W87207   3.856  18.668   4.807
25545W        W87208   1.374  38.427  10.536
25546W        W87209   1.891  36.581  13.832
25547W        W87210   3.242   3.270  10.584
25548W        W87211  26.628  11.267   0.785
25549W        W87212  23.609   1.331  13.521
25550W        W87213   3.263  21.082  13.396
25551W        W87214  32.106  36.009   0.843
25552W        W87215  37.020  20.620  11.109
25553W        W87216  13.763  43.439   0.455
25554W        W87217  33.988  26.511   2.319
25555W        W87218   4.796  37.959  14.971
25556W        W87219  21.115  18.127  12.360
25557W        W87220  31.612  39.389  14.761
25558W        W87221  36.984  34.371  13.024
25559W        W87222  30.431  41.971  13.805
25560W        W87223  44.943  12.845  10.591
25561W        W87224  37.565  29.032   4.288
25562W        W87225   3.251  41.842  11.858
25563W        W87226   7.789  26.702   2.260
25564W        W87227  27.567  41.944   0.311
25565W        W87228   5.732  35.919  14.017
25566W        W87229  38.364   0.469  10.549
25567W        W87230  18.610   3.279   0.890
25568W        W87231  16.295   7.408  11.446
25569W        W87232  18.603  35.001   9.921
25570W        W87233   1.449  42.326  10.524
25571W        W87234  39.340  39.845  11.384
25572W        W87235  31.079  40.930  11.371
25573W        W87236  13.819  39.053  11.062
25574W        W87237   4.322  30.425   2.848
25575W        W87238  34.970   5.210   5.315
25576W        W87239   8.720   3.714  11.019
25577W        W87240  37.898  33.617  14.320
25578W        W87241   3.396  21.024   1.227
25579W        W87242  41.431  38.360   3.749
25580W        W87243  19.130  23.230  13.845
25581W        W87244  16.261  23.097   2.838
25582W        W87245  35.597  43.508   4.819
25583W        W87246  18.679  18.547   0.942
25584W        W87247  31.526   7.810   1.269
25585W        W87248  38.505  17.571  11.541
25586W        W87249  15.639   3.246  13.815
25587W        W87250   1.270   7.215   2.418
25588W        W87251  23.513  29.081  13.955
25589W        W87252   6.887  10.350   3.232
25590W        W87253  30.516  12.631   4.685
25591W        W87254  40.971  27.553   0.483
25592W        W87255   7.308  30.519  11.019
25593W        W87256   1.907  41.866   5.083
25594W        W87257  29.495  27.996   2.310
25595W        W87258  33.086  14.114  11.957
25596W        W87259  18.697  40.457   3.192
25597W        W87260   2.471  14.639   2.190
25598W        W87261  32.093  12.229  10.925
25599W        W87262  18.687  37.565  11.488
25600W        W87263   3.444  20.225   3.815
25601W        W87264  42.855  39.432   4.834
25602W        W87265   0.978   1.278   3.648
25603W        W87266  25.988   0.810   4.814
25604W        W87267  20.059  23.180   3.166
25605W        W87268  23.184  30.933  14.305
25606W        W87269  39.455  27.557  10.570
25607W        W87270  34.903   4.286  10.904
25608W        W87271  35.925  30.617  10.566
25609W        W87272  36.857  22.594   2.707
25610W        W87273   0.834  20.716  11.115
25611W        W87274  43.014  38.062  12.390
25612W        W87275   9.673  35.107  14.935
25613W        W87276   5.314  22.146  14.459
25614W        W87277  40.830   6.346  12.462
25615W        W87278  11.332   3.426  10.630
25616W        W87279  39.405  39.831  12.887
25617W        W87280  30.907  19.073   0.298
25618W        W87281   0.932  36.067   2.392
25619W        W87282  44.757   6.326   3.787
25620W        W87283  39.001   8.317  12.470
25621W        W87284  16.262   0.933  12.864
25622W        W87285   5.695  33.994  14.871
25623W        W87286  29.094  19.083   1.695
25624W        W87287  29.021  12.687   0.815
25625W        W87288   0.375  32.077  14.792
25626W        W87289  12.679  33.443  14.865
25627W        W87290  29.067   3.374   3.294
25628W        W87291  31.595  38.360   1.783
25629W        W87292  42.439  23.557   4.335
25630W        W87293  12.740   2.240   0.795
25631W        W87294  43.373  41.482  12.053
25632W        W87295  16.668  12.278  13.341
25633W        W87296  28.978   1.469  13.441
25634W        W87297   4.431  15.150   4.741
25635W        W87298  36.427  19.134   4.785
25636W        W87299   0.259  36.426   1.785
25637W        W87300  18.289  25.503   0.864
25638W        W87301  13.741   2.374  11.943
25639W        W87302  33.006  24.153   1.290
25640W        W87303  12.361  24.684  12.390
25641W        W87304  26.459  17.137   0.948
25642W        W87305  32.416   3.408   1.770
25643W        W87306  25.194  40.006  13.492
25644W        W87307   7.732   1.801  14.818
25645W        W87308   9.688  36.545  13.039
25646W        W87309   4.860  25.491   2.294
25647W        W87310  43.406  33.550   4.797
25648W        W87311  15.682  21.569  13.541
25649W        W87312  43.376  32.921  14.882
25650W        W87313  31.532  17.715  14.013
25651W        W87314  30.933  16.310   2.388
25652W        W87315   0.879  30.475  11.105
25653W        W87316  33.577  39.932   1.725
25654W        W87317  35.417   1.824   3.276
25655W        W87318   2.296  22.037   0.883
25656W        W87319  38.856  33.901   4.609
25657W        W87320  25.217  36.407   1.840
25658W        W87321  35.500  18.175   3.209
25659W        W87322  12.795  43.959   3.157
25660W        W87323   5.898  12.828   1.804
25661W        W87324  33.608  13.821   0.463
25662W        W87325  13.202  40.951  12.351
25663W        W87326  36.900   7.855   2.314
25664W        W87327  42.526   8.864   1.872
25665W        W87328  13.119  40.850   2.405
25666W        W87329   3.418  31.510   3.307
25667W        W87330  22.081  27.577  12.524
25668W        W87331  40.436   8.325  12.431
25669W        W87332  39.554  33.533  11.022
25670W        W87333  43.429   6.722   9.637
25671W        W87334  20.762   9.881  13.344
25672W        W87335   5.392  39.324   0.851
25673W        W87336   8.312  20.029   1.333
25674W        W87337  39.321  44.775   1.907
25675W        W87338  41.537   2.838  14.818
25676W        W87339  13.675   0.366  11.001
25677W        W87340  32.890   9.877  12.840
25678W        W87341  19.098   9.692  11.425
25679W        W87342   9.303  25.696  11.497
25680W        W87343  21.147   6.427  14.497
25681W        W87344  15.157   8.273  13.430
25682W        W87345  41.874  33.445  11.007
25683W        W87346  25.164   1.955   0.389
25684W        W87347  25.998  36.519  10.929
25685W        W87348   0.801  24.685   3.831
25686W        W87349  40.356   2.410   3.293
25687W        W87350   0.849  38.373   1.245
25688W        W87351  31.093  39.880   1.285
25689W        W87352  43.889   5.787  11.429
25690W        W87353  24.530  27.462   0.424
25691W        W87354  13.275  25.634  10.968
25692W        W87355  20.210  44.867   2.253
25693W        W87356   3.403   8.887   2.367
25694W        W87357  15.814  23.578  12.033
25695W        W87358  38.385  37.938   3.837
25696W        W87359   9.375  24.540  13.461
25697W        W87360  15.706   7.885  11.914
25698W        W87361   5.379   1.744   2.248
25699W        W87362  35.485  17.561   0.372
25700W        W87363  44.781  20.524  14.812
25701W        W87364  35.540  20.558  11.468
25702W        W87365  22.185   9.354  12.387
25703W        W87366  20.552  29.463   3.282
25704W        W87367  16.137  41.325   0.407
25705W        W87368   5.920  22.022  10.969
25706W        W87369  30.540   5.822  10.981
25707W        W87370  38.933   5.208   1.392
25708W        W87371   0.923  18.602  13.433
25709W        W87372  16.660  14.695   4.275
25710W        W87373  23.521  20.549  12.839
25711W        W87374  29.937  14.649  11.876
25712W        W87375  17.650  42.876  11.554
25713W        W87376  43.813   7.704   3.670
25714W        W87377  40.986  12.645  11.918
25715W        W87378   6.783  10.772   2.355
25716W        W87379  44.483   9.757  10.593
25717W        W87380  32.885  21.690  11.929
25718W        W87381  33.119  32.933  14.383
25719W        W87382   9.802  42.857   3.262
25720W        W87383  25.604   1.474   2.877
25721W        W87384   5.282   2.933  13.434
25722W        W87385  42.980   1.742  13.939
25723W        W87386  17.200  12.610   3.868
25724W        W87387   9.266   1.330   1.796
25725W        W87388   9.377  32.888  12.042
25726W        W87389  20.646  23.226  11.505
25727W        W87390  33.018  34.380  14.896
25728W        W87391  41.865   8.296   1.431
25729W        W87392  18.651   8.898   1.736
25730W        W87393  24.693  34.925  13.974
25731W        W87394  21.676  15.283   1.344
25732W        W87395  13.816  33.953   4.758
25733W        W87396  29.151  31.506  11.020
25734W        W87397  26.467   4.859  11.561
25735W        W87398   9.784  23.988   1.880
25736W        W87399  18.644  22.997  14.994
25737W        W87400  42.822  32.125  14.390
25738W        W87401  27.022  12.217  13.882
25739W        W87402  42.874  18.567   2.733
25740W        W87403  10.633  10.673   3.325
25741W        W87404   1.398  33.495  12.884
25742W        W87405  22.710   8.390   1.305
25743W        W87406  25.708  11.278  14.945
25744W        W87407  16.077   2.471   0.309
25745W        W87408  33.452  11.265   0.872
25746W        W87409   4.772  21.603   2.218
25747W        W87410  41.498  19.043  10.965
25748W        W87411  23.221   5.211   0.926
25749W        W87412  35.474  26.982  14.367
25750W        W87413  37.496  21.707  13.032
25751W        W87414  10.211  20.539   2.183
25752W        W87415   4.310  41.535   2.402
25753W        W87416  36.972  35.584   2.722
25754W        W87417  39.518  24.013  13.507
25755W        W87418  31.637  21.575   4.280
25756W        W87419  19.613   7.900   5.297
25757W        W87420  40.943   6.411   1.696
25758W        W87421  24.676  30.580  13.433
25759W        W87422  26.084  12.120  11.377
25760W        W87423  22.187  38.556   2.277
25761W        W87424   5.414  32.614   3.233
25762W        W87425  31.598  34.578   0.767
25763W        W87426  14.747  34.455  11.894
25764W        W87427   9.774  22.024  10.472
25765W        W87428   9.850  32.604  11.524
25766W        W87429  25.475   0.355  12.913
25767W        W87430  21.664  15.737  13.847
25768W        W87431  42.376  24.155   0.364
25769W        W87432  27.606  20.089   1.413
25770W        W87433   6.189  39.343  12.381
25771W        W87434  37.895  22.595  10.511
25772W        W87435  25.698   1.800   9.975
25773W        W87436   7.315  20.197   3.720
25774W        W87437  14.667   0.801  11.033
25775W        W87438  31.072  13.639  10.588
25776W        W87439  13.251  41.517   2.266
25777W        W87440  43.448   3.784   0.305
25778W        W87441   7.889   9.278  14.513
25779W        W87442  39.359  38.453  11.515
25780W        W87443  43.974  30.471   0.300
25781W        W87444  38.946  19.197   3.869
25782W        W87445  22.717  39.515  13.313
25783W        W87446  26.991  12.689   2.735
25784W        W87447   2.264  16.612   3.834
25785W        W87448   7.301  31.580   1.880
25786W        W87449  30.042  40.372  13.982
25787W        W87450  28.625  32.976  12.513
25788W        W87451  19.704   2.768   0.906
25789W        W87452  16.610  15.156   2.339
25790W        W87453  27.133  37.404   3.745
25791W        W87454  14.588   5.243   1.931
25792W        W87455   3.399  32.540   3.645
25793W        W87456  40.423   7.353  14.402
25794W        W87457  18.705  17.064  10.985
25795W        W87458  10.347  36.360  14.492
25796W        W87459  19.064   9.863   2.700
25797W        W87460  11.764  10.766   5.293
25798W        W87461   3.830   4.799  10.158
25799W        W87462   2.847  26.511   0.376
25800W        W87463  11.815  12.274   3.765
25801W        W87464   7.392   0.767  12.961
25802W        W87465  31.603  12.641   1.758
25803W        W87466  41.516  42.301  10.478
25804W        W87467  15.204  16.261  12.957
25805W        W87468   0.379  40.397  13.934
25806W        W87469  30.628  23.594   1.809
25807W        W87470  13.606  33.036  11.529
25808W        W87471  32.965  42.363   2.259
25809W        W87472  34.392  17.138   3.692
25810W        W87473  43.328  39.555   2.358
25811W        W87474  36.842  23.495   1.281
25812W        W87475   9.246  24.995   5.084
25813W        W87476  33.974  15.303   3.723
25814W        W87477  22.221   1.951  11.082
25815W        W87478  12.245  41.020  13.892
25816W        W87479   3.914   9.770   3.822
25817W        W87480  43.290  25.971   1.315
25818W        W87481   9.371   3.917  12.060
25819W        W87482   0.366  16.655  14.427
25820W        W87483  14.255  12.275  14.031
25821W        W87484   9.733  33.049   2.211
25822W        W87485   3.880  43.378   2.764
25823W        W87486  33.106  17.189  12.545
25824W        W87487   7.716  15.685   4.680
25825W        W87488   2.851  44.000   1.330
25826W        W87489  36.541  43.355   2.285
25827W        W87490   7.326  18.567  10.623
25828W        W87491  11.160   0.377   2.667
25829W        W87492  32.055  25.495  13.049
25830W        W87493   9.787   5.258   0.456
25831W        W87494   7.802  10.220  14.014
25832W        W87495  29.663  19.042  14.877
25833W        W87496  43.350  33.426  11.929
25834W        W87497  44.425  34.989  12.542
25835W        W87498  25.977  44.401   5.096
25836W        W87499   5.293  33.408   4.785
25837W        W87500  27.613  38.911  11.432
25838W        W87501  43.481  16.266  10.903
25839W        W87502  30.486   3.256  10.424
25840W        W87503  14.816  24.639  13.375
25841W        W87504   6.817   8.747   2.196
25842W        W87505  21.228  34.437  11.033
25843W        W87506  36.020   6.309   9.580
25844W        W87507  12.237  21.129   2.403
25845W        W87508   1.759  21.681   0.315
25846W        W87509  34.065  25.981  14.475
25847W        W87510  28.585  13.293  14.988
25848W        W87511  16.142   6.798  11.880
25849W        W87512  23.539   0.783  14.877
25850W        W87513   3.443   3.870   4.794
25851W        W87514  20.619  24.118  11.417
25852W        W87515  33.070  44.392  13.882
25853W        W87516  37.052  24.981  14.953
25854W        W87517  29.981  15.216  12.541
25855W        W87518  34.446  13.348  10.917
25856W        W87519  39.883  16.695  14.764
25857W        W87520  11.217  10.737  11.013
25858W        W87521   1.319  35.576  10.629
25859W        W87522   9.809  35.925   2.251
25860W        W87523  21.541  28.167   1.366
25861W        W87524  31.620  30.516  14.318
25862W        W87525  44.770  43.391  11.116
25863W        W87526   2.879  19.205  13.994
25864W        W87527   9.774   8.777  13.357
25865W        W87528  32.106  17.180   1.400
25866W        W87529   2.249  38.548  14.407
25867W        W87530  25.631   2.775   4.203
25868W        W87531  33.978  10.211  13.411
25869W        W87532   1.311   5.257  14.869
25870W        W87533   4.790  42.788   1.401
25871W        W87534  23.226  14.172   4.174
25872W        W87535  40.394  41.372   3.688
25873W        W87536  43.860   0.848  14.760
25874W        W87537  34.550  12.665  11.445
25875W        W87538  18.650  13.151  12.067
25876W        W87539  42.351   4.447   1.884
25877W        W87540  21.633  33.108   0.332
25878W        W87541  25.985   0.285   1.388
25879W        W87542   7.383  12.345   0.453
25880W        W87543   2.826  25.592  13.906
25881W        W87544   5.762  36.066   0.828
25882W        W87545  10.229  21.586   0.883
25883W        W87546  41.318  34.453   1.265
25884W        W87547  22.019   9.341  10.602
25885W        W87548  37.949  11.158   4.261
25886W        W87549  37.541  27.007  14.791
25887W        W87550  18.294   0.467  14.783
25888W        W87551  27.478   2.836  13.545
25889W        W87552  26.549  20.096   1.411
25890W        W87553   4.699  29.954  14.879
25891W        W87554  13.650  35.935  14.436
25892W        W87555  29.984   2.825   1.877
25893W        W87556   8.858  13.206  13.530
25894W        W87557  21.152  26.054   2.188
25895W        W87558  27.683  38.415  14.819
25896W        W87559  18.612  39.950  11.899
25897W        W87560  31.564   3.304  12.861
25898W        W87561  25.672  40.449   2.406
25899W        W87562  13.317  40.467  11.041
25900W        W87563  29.475  27.190  14.500
25901W        W87564   0.457  28.573   0.255
25902W        W87565  41.520   5.434  14.478
25903W        W87566  37.984  44.803  12.358
25904W        W87567  38.408  13.816  13.360
25905W        W87568  31.406   9.157   0.844
25906W        W87569  27.563   6.909   0.287
25907W        W87570  40.490  13.831   2.690
25908W        W87571  13.336  44.266  10.633
25909W        W87572  28.943   4.391   2.332
25910W        W87573  24.716  25.020   4.351
25911W        W87574  15.670   9.174   3.192
25912W        W87575  28.162  41.921  11.600
25913W        W87576  14.238  29.547   3.289
25914W        W87577  18.105  40.386   4.194
25915W        W87578  30.456  42.477  10.462
25916W        W87579   7.193  26.084  12.439
25917W        W87580  27.111  36.996   3.371
25918W        W87581  18.685  36.001  14.855
25919W        W87582  15.673   5.782  12.061
25920W        W87583  35.980  30.944  11.415
25921W        W87584  25.978  44.933   1.254
25922W        W87585   4.759  31.077   4.658
25923W        W87586  14.280  14.591   3.146
25924W        W87587   6.830  31.050   3.168
25925W        W87588   5.729   0.289  14.475
25926W        W87589   9.808  30.413   2.840
25927W        W87590  44.770  42.916   2.865
25928W        W87591  33.573  23.686  12.373
25929W        W87592  28.449   1.253  10.978
25930W        W87593  37.036  16.653  14.960
25931W        W87594  30.627  16.710   0.880
25932W        W87595  27.992  17.249   5.259
25933W        W87596  23.627  24.203   1.747
25934W        W87597  13.743  35.576  14.288
25935W        W87598   0.444  40.042  11.058
25936W        W87599  12.627  27.622  13.043
25937W        W87600  36.017  29.596   4.657
25938W        W87601  32.111  18.768   4.297
25939W        W87602   1.370  32.395   0.938
25940W        W87603  33.876   3.724  14.453
25941W        W87604  34.419   8.887   4.237
25942W        W87605  18.237   0.909  14.411
25943W        W87606   1.769   0.403  14.370
25944W        W87607  20.037  20.759   1.259
25945W        W87608  40.492  12.627   1.694
25946W        W87609  19.112  38.341  13.437
25947W        W87610   8.855   2.323  11.412
25948W        W87611   1.415  24.074  12.872
25949W        W87612   7.178   3.738  14.930
25950W        W87613  23.541  12.843   2.803
25951W        W87614  35.043  19.536  12.476
25952W        W87615  41.378   0.360  10.619
25953W        W87616  42.966  21.054   3.341
25954W        W87617  36.081  21.726   0.301
25955W        W87618  11.699   6.740   4.140
25956W        W87619  25.503  17.612  11.594
25957W        W87620   5.748  31.409  14.449
25958W        W87621  18.736  26.061  12.091
25959W        W87622  24.552   5.363   3.156
25960W        W87623  35.025  28.936   0.753
25961W        W87624  19.728  21.513  13.961
25962W        W87625  28.529  38.415   4.351
25963W        W87626  34.574  16.654  12.422
25964W        W87627  35.062  30.524   1.838
25965W        W87628   6.771  37.497   4.829
25966W        W87629  39.421  29.650   1.933
25967W        W87630  38.357  44.298   4.279
25968W        W87631   0.466  32.043   4.674
25969W        W87632  41.444   0.878  13.486
25970W        W87633  21.681  38.996  14.832
25971W        W87634  22.579  16.286   0.342
25972W        W87635  40.542  36.046   3.689
25973W        W87636  20.649  13.239  13.346
25974W        W87637  28.670  21.628   0.361
25975W        W87638  33.458  33.405   0.484
25976W        W87639  40.025  35.496   4.811
25977W        W87640  17.730  31.016  14.496
25978W        W87641  38.363  18.771   1.768
25979W        W87642   2.379  24.109   0.335
25980W        W87643   9.295  15.279  13.910
25981W        W87644  35.076  36.524  11.123
25982W        W87645  20.140   6.808   2.222
25983W        W87646  41.478  25.161  13.513
25984W        W87647   3.721   3.756   3.727
25985W        W87648  13.617   7.868   4.307
25986W        W87649  43.441  43.516  10.473
25987W        W87650  23.711  22.744  10.434
25988W        W87651   6.705  16.186  11.538
25989W        W87652  10.277  13.687  11.951
25990W        W87653  14.255  34.029   4.720
25991W        W87654  34.461  41.807  12.890
25992W        W87655   2.780  31.931  12.411
25993W        W87656  37.568  15.626   0.935
25994W        W87657  44.365  24.978  10.905
25995W        W87658   0.743  35.395   3.257
25996W        W87659  42.813  34.424   1.864
25997W        W87660  43.481  41.326  12.939
25998W        W87661  21.176   6.773  12.560
25999W        W87662  12.345  34.503  14.345
26000W        W87663  33.482  35.445  12.890
26001W        W87664  35.091  20.154  10.525
26002W        W87665  21.655   2.855   2.216
26003W        W87666  44.297  20.644   4.336
26004W        W87667   6.780   5.421  11.594
26005W        W87668  19.081  17.094   4.737
26006W        W87669   5.415  39.974   2.789
26007W        W87670  19.690  37.341  11.104
26008W        W87671  14.797  43.824  12.010
26009W        W87672  12.305  17.609   3.310
26010W        W87673  10.698  18.152  13.406
26011W        W87674  29.127   0.417  13.387
26012W        W87675  33.534  34.601   1.331
26013W        W87676  13.841  21.661  12.541
26014W        W87677  34.877  44.957  11.888
26015W        W87678  42.883   0.768   3.283
26016W        W87679   7.693   8.867   4.659
26017W        W87680  37.376  24.693  13.918
26018W        W87681  40.870   9.883   4.223
26019W        W87682  20.531   4.883  13.813
26020W        W87683  20.573   4.886  13.513
26021W        W87684   9.733  11.347   4.674
26022W        W87685  11.359  11.235   4.623
26023W        W87686   6.735  40.494   0.865
26024W        W87687   9.678  25.615   3.359
26025W        W87688  28.025  42.468   4.673
26026W        W87689  19.560  43.828   4.119
26027W        W87690  25.193  38.524   3.727
26028W        W87691   8.765  28.158  12.933
26029W        W87692   9.664  43.393  11.037
26030W        W87693   4.330  36.867  14.278
26031W        W87694  38.453   5.854   2.314
26032W        W87695   7.324  24.541  14.948
26033W        W87696   0.805  40.377  14.416
26034W        W87697   7.244  27.940  11.065
26035W        W87698  41.878  28.536   1.357
26036W        W87699  12.261  18.234   3.319
26037W        W87700   6.355  21.038   0.799
26038W        W87701  37.516  28.153  11.010
26039W        W87702  24.683  28.045   5.319
26040W        W87703  22.704  37.831   2.743
26041W        W87704  27.197  25.505  14.016
26042W        W87705  42.521   0.405  12.849
26043W        W87706   1.955  34.504   0.893
26044W        W87707   3.461  25.635   3.664
26045W        W87708   1.910  39.034  14.914
26046W        W87709  40.336  42.032   1.210
26047W        W87710  37.979  38.566   0.348
26048W        W87711  11.786  43.809  11.413
26049W        W87712  23.554  35.102   2.243
26050W        W87713   9.778   4.406   1.708
26051W        W87714   3.412  16.227   4.814
26052W        W87715  13.629  38.464  11.047
26053W        W87716  40.367  41.893   3.686
26054W        W87717  21.575   5.847   0.418
26055W        W87718  22.083  10.664   3.271
26056W        W87719  44.483  35.462   4.294
26057W        W87720  40.334  35.085  13.983
26058W        W87721   2.330   7.232  13.441
26059W        W87722  38.984  13.760  14.378
26060W        W87723   8.715  24.062   3.713
26061W        W87724   9.714  18.702  10.523
26062W        W87725  21.164  20.164   0.826
26063W        W87726  39.846  36.897   3.642
26064W        W87727  18.230   9.683  10.563
26065W        W87728  33.029   2.466   1.768
26066W        W87729  35.999  29.660  13.349
26067W        W87730  15.637  39.329  13.059
26068W        W87731  28.468   2.752  12.901
26069W        W87732  19.677  11.846   3.694
26070W        W87733   0.458  34.082  11.866
26071W        W87734  17.219  30.026   3.675
26072W        W87735   7.389  26.958  13.486
26073W        W87736  11.316   8.831   2.755
26074W        W87737   9.291  20.106  13.547
26075W        W87738  15.744  41.925   3.228
26076W        W87739  28.554   9.354   2.263
26077W        W87740  41.387   3.408  11.466
26078W        W87741  13.715   8.725  10.438
26079W        W87742  22.107   0.978   1.417
26080W        W87743  35.869  44.967   0.471
26081W        W87744  26.697  42.883   5.104
26082W        W87745   8.892  15.272   4.144
26083W        W87746  14.589   0.317  13.799
26084W        W87747  43.464   8.887  10.640
26085W        W87748  43.514   4.244  13.403
26086W        W87749  34.528  35.100   4.614
26087W        W87750  40.992  17.239   1.907
26088W        W87751  38.069  15.601   2.222
26089W        W87752  39.939  38.027   4.174
26090W        W87753  34.387  13.277   4.293
26091W        W87754  29.923  22.013  11.038
26092W        W87755   8.783  40.364   3.650
26093W        W87756  28.608   7.297   0.874
26094W        W87757   5.894   2.326   4.270
26095W        W87758  36.960  26.194  14.427
26096W        W87759  32.002  26.597   5.186
26097W        W87760  35.106  35.478  12.873
26098W        W87761  10.640  34.379   3.672
26099W        W87762  13.772  34.022   5.582
26100W        W87763   1.333  36.485  10.986
26101W        W87764  23.989  32.097   2.720
26102W        W87765   1.379   0.981   0.287
26103W        W87766   0.904  33.064  12.987
26104W        W87767  24.504  34.106   2.831
26105W        W87768  13.150   7.315   3.338
26106W        W87769  43.459  23.161  13.466
26107W        W87770  14.201  38.827  13.028
26108W        W87771  26.967  16.258  13.399
26109W        W87772  21.235  22.632  12.549
26110W        W87773  41.463   8.755  12.380
26111W        W87774  13.705  35.453   4.286
26112W        W87775  42.791   4.779   0.261
26113W        W87776  37.353  27.568  13.517
26114W        W87777  30.650   9.215   1.908
26115W        W87778  16.262  15.156  13.916
26116W        W87779  13.317  36.357  13.325
26117W        W87780  26.174   9.806  13.336
26118W        W87781  34.881   3.254   1.775
26119W        W87782   3.899  39.330   1.818
26120W        W87783  12.800  25.039   2.357
26121W        W87784  31.617  12.339  14.952
26122W        W87785  43.999  16.774  13.928
26123W        W87786  42.296  12.316  10.446
26124W        W87787  10.282   7.842   0.254
26125W        W87788  34.579  22.530  13.862
26126W        W87789   3.277  22.656  14.348
26127W        W87790  28.020  18.197   1.284
26128W        W87791   7.747  32.056   4.815
26129W        W87792  43.414  27.081  14.822
26130W        W87793   5.419  39.320   4.284
26131W        W87794  28.168  38.023   2.901
26132W        W87795  12.778  42.459  13.794
26133W        W87796  13.765   8.355   1.804
26134W        W87797   4.888  20.607  10.534
26135W        W87798   7.413  40.995   3.194
26136W        W87799  39.057   8.395  11.544
26137W        W87800   0.933  23.071  11.961
26138W        W87801  19.120  38.508  12.011
26139W        W87802   7.822  28.996   2.407
26140W        W87803  42.803  36.907  12.912
26141W        W87804  37.864  44.878   1.445
26142W        W87805   2.456  44.479  12.897
26143W        W87806  37.540  25.112   4.354
26144W        W87807  27.025  11.703   0.410
26145W        W87808  43.851  40.462   4.830
26146W        W87809  34.912  29.662   5.147
26147W        W87810  40.361   1.471  13.542
26148W        W87811   5.689   2.427  13.371
26149W        W87812  13.700  13.705   2.842
26150W        W87813  35.456  37.513   3.767
26151W        W87814   9.788  34.989  14.485
26152W        W87815  27.487  23.201  14.450
26153W        W87816  35.920  29.021  13.480
26154W        W87817  14.663  10.754  14.814
26155W        W87818  15.751  32.607  14.424
26156W        W87819  16.738   9.280   4.615
26157W        W87820  23.715  40.836  11.873
26158W        W87821   8.302   1.341   1.387
26159W        W87822  16.591  40.926   4.678
26160W        W87823  28.561   3.223  12.429
26161W        W87824  42.918  24.714   1.375
26162W        W87825   3.900  44.888   1.838
26163W        W87826  10.305  15.155   0.351
26164W        W87827  27.566  14.169   3.860
26165W        W87828  40.948  32.926  13.005
26166W        W87829  34.514  29.592  10.923
26167W        W87830  26.100  25.710   0.338
26168W        W87831  28.634  16.153   2.268
26169W        W87832  24.588   4.291  12.572
26170W        W87833  12.347  12.654  13.921
26171W        W87834  18.724  39.491   1.280
26172W        W87835  38.902  38.031  10.428
26173W        W87836  20.722  20.109   0.328
26174W        W87837  19.157  37.942   3.240
26175W        W87838  29.092  33.532   3.745
26176W        W87839  25.632  34.057   2.676
26177W        W87840  38.825  19.227   0.431
26178W        W87841   7.390  25.662  13.971
26179W        W87842  36.573   3.402   3.866
26180W        W87843  38.370  21.019  13.388
26181W        W87844  14.673  16.204   0.858
26182W        W87845  17.196  25.198  11.604
26183W        W87846  16.177   8.314   4.250
26184W        W87847  17.196  34.567   1.912
26185W        W87848  15.128  23.042  13.981
26186W        W87849  44.005  30.658   1.724
26187W        W87850  16.628   3.367   1.792
26188W        W87851  24.114  15.665   0.790
26189W        W87852  29.941   1.423   3.678
26190W        W87853  40.960   0.468  11.953
26191W        W87854  19.735   0.859  10.561
26192W        W87855   8.258  20.711  13.028
26193W        W87856  44.988  17.557  12.541
26194W        W87857   5.224  37.886   4.788
26195W        W87858   2.350  44.931   1.714
26196W        W87859  39.865  25.503   4.284
26197W        W87860  13.809  41.033   4.791
26198W        W87861  32.559  28.541   4.275
26199W        W87862  29.007  21.671   1.429
26200W        W87863   3.323  42.334  14.491
26201W        W87864   5.211   0.851  11.124
26202W        W87865  12.286  28.030   3.756
26203W        W87866  13.751  35.360   2.715
26204W        W87867  34.574  13.820  14.966
26205W        W87868   4.933  30.919   4.238
26206W        W87869   9.284  10.644   4.260
26207W        W87870  19.143  25.536  14.018
26208W        W87871  41.955  21.260   4.218
26209W        W87872  38.421   2.365   1.384
26210W        W87873  16.637   6.697  11.573
26211W        W87874  39.900  36.501  10.913
26212W        W87875  44.373  14.617  12.031
26213W        W87876  15.269  23.545   3.221
26214W        W87877   1.400  10.309  10.519
26215W        W87878  44.995   4.816  10.970
26216W        W87879  42.516  41.292  13.918
26217W        W87880  44.946  25.170   0.475
26218W        W87881  20.248  17.262  13.007
26219W        W87882  11.623   6.318  11.013
26220W        W87883  21.144   2.436   3.732
26221W        W87884  18.773  17.740  11.464
26222W        W87885   8.661  22.995  11.466
26223W        W87886  10.647  39.845   1.820
26224W        W87887  27.950  41.794  10.527
26225W        W87888  37.082   0.897  14.981
26226W        W87889  19.173  25.664   0.810
26227W        W87890   3.751  24.583   4.623
26228W        W87891   9.275  24.653   3.146
26229W        W87892  37.411   5.361  10.489
26230W        W87893  21.550   7.221  10.532
26231W        W87894   9.657   6.875  11.441
26232W        W87895  24.515   4.433   1.239
26233W        W87896  28.127   0.914   4.215
26234W        W87897  28.099   5.915   3.349
26235W        W87898  36.524  34.482   1.823
26236W        W87899  23.990  37.373  10.626
26237W        W87900  32.903  16.713  12.424
26238W        W87901  12.194   0.251   0.784
26239W        W87902   3.732  23.527  11.011
26240W        W87903  37.970  33.026  10.889
26241W        W87904  42.886  40.841  11.421
26242W        W87905  13.610  18.683   3.199
26243W        W87906  19.612  38.547  13.025
26244W        W87907   8.850  29.606  12.970
26245W        W87908  35.867   1.764  14.303
26246W        W87909  25.200  44.005  13.842
26247W        W87910   7.822  27.550   4.165
26248W        W87911  23.195  11.262  12.348
26249W        W87912  24.013  15.198  12.824
26250W        W87913  22.525  18.760  10.940
26251W        W87914   7.882  38.340  11.077
26252W        W87915   6.206  44.951  14.925
26253W        W87916  22.044  42.883  13.818
26254W        W87917  23.683  19.040  11.371
26255W        W87918  44.426  16.666   4.300
26256W        W87919  43.930  29.454   3.169
26257W        W87920  26.532  39.367  13.983
26258W        W87921  42.459  12.193   1.228
26259W        W87922  12.661  38.367   3.713
26260W        W87923   0.438  25.015   4.653
26261W        W87924  30.928   0.831  14.283
26262W        W87925  43.310  26.697  13.534
26263W        W87926  14.702  18.062  13.032
26264W        W87927  11.700  29.484   5.299
26265W        W87928  26.069  29.590  10.427
26266W        W87929  41.325  14.777   0.429
26267W        W87930  27.543  35.378   3.695
26268W        W87931   2.758   4.700   2.754
26269W        W87932   4.204   2.828  12.827
26270W        W87933  34.604  39.542  13.998
26271W        W87934  37.940  37.452   2.237
26272W        W87935  30.908   4.341   3.252
26273W        W87936  32.125  32.582  12.355
26274W        W87937   9.850  15.104   1.712
26275W        W87938  34.556   8.341   2.319
26276W        W87939  13.193  32.427   0.868
26277W        W87940  44.307  29.173  12.033
26278W        W87941   4.269   7.807   0.381
26279W        W87942   2.374   0.896  13.795
26280W        W87943  19.654  21.029   0.373
26281W        W87944  39.378  38.388   2.278
26282W        W87945  14.121  24.195   0.859
26283W        W87946  15.328  12.251  14.908
26284W        W87947  21.186  31.490  11.995
26285W        W87948   1.758  37.394  13.406
26286W        W87949  24.014  17.791   1.806
26287W        W87950  30.061  15.578   1.373
26288W        W87951  25.525  14.292  12.039
26289W        W87952  15.748   3.453   2.742
26290W        W87953  24.023  18.121  10.078
26291W        W87954   8.236  26.634   3.760
26292W        W87955  32.442   8.308   0.270
26293W        W87956  26.491  33.514   3.183
26294W        W87957  22.120  12.673  10.955
26295W        W87958  16.106  15.102  12.550
26296W        W87959   9.321  42.862   5.109
26297W        W87960   1.771  44.431  11.891
26298W        W87961  30.053  12.625   1.251
26299W        W87962  16.791  13.265   4.615
26300W        W87963  11.313  19.750   2.753
26301W        W87964  41.879  32.954   4.807
26302W        W87965  14.757  13.269   4.182
26303W        W87966  36.554  37.046  11.952
26304W        W87967  44.901  35.365   4.725
26305W        W87968  24.166  34.888   2.727
26306W        W87969  30.052  34.901  14.909
26307W        W87970  41.876   2.901   1.924
26308W        W87971  32.457  28.983  11.411
26309W        W87972  13.203   9.769   1.928
26310W        W87973  14.284  18.722  14.795
26311W        W87974   6.782  15.086   0.749
26312W        W87975  12.188  24.676   3.697
26313W        W87976  22.041  40.903   1.252
26314W        W87977  28.040  28.146   3.834
26315W        W87978   8.353  15.259   1.732
26316W        W87979  28.502  40.328   5.240
26317W        W87980  32.564   0.399  12.856
26318W        W87981  38.339  38.896  10.519
26319W        W87982  31.505  35.865  14.387
26320W        W87983  26.564  23.661  13.836
26321W        W87984  30.654   6.866  10.419
26322W        W87985  28.095  44.990  10.592
26323W        W87986  29.158  14.155   0.351
26324W        W87987  12.352  26.475  12.554
26325W        W87988  26.586  11.860   1.284
26326W        W87989   2.360  20.180  13.986
26327W        W87990  20.182   6.774   3.376
26328W        W87991   9.674  39.370  10.889
26329W        W87992   3.272  32.436  12.423
26330W        W87993  26.086  23.037  12.443
26331W        W87994  28.648  31.903  14.435
26332W        W87995  14.110  13.716  11.997
26333W        W87996  33.994  30.005  10.910
26334W        W87997   3.372  22.575  12.908
26335W        W87998  36.455   7.404  13.976
26336W        W87999  25.647   8.795   2.368
26337W        W88000   0.336   7.856   4.254
26338W        W88001  16.665  35.553   1.374
26339W        W88002  16.753  14.269  10.027
26340W        W88003  14.682  39.428   4.200
26341W        W88004   6.922  43.860  11.119
26342W        W88005   0.373   4.431  14.501
26343W        W88006  37.504  29.644  13.933
26344W        W88007  44.863   4.302  12.921
26345W        W88008  24.696   0.316  12.447
26346W        W88009  29.038  23.100  11.075
26347W        W88010  10.247  20.116   4.346
26348W        W88011   4.890  32.116   0.400
26349W        W88012  25.517  41.367  13.424
26350W        W88013  20.152  26.561   1.425
26351W        W88014  40.852   8.820   9.951
26352W        W88015   0.432  10.161  11.590
26353W        W88016  31.044   7.807   4.738
26354W        W88017  36.370  13.133   4.327
26355W        W88018  28.450   6.209  11.023
26356W        W88019  40.388  19.655   1.270
26357W        W88020  33.613   1.746   3.269
26358W        W88021  30.488  21.249   3.183
26359W        W88022  29.665  28.557   4.331
26360W        W88023  40.305  13.141  11.995
26361W        W88024  41.992  11.647  13.016
26362W        W88025  30.033  13.730   4.638
26363W        W88026  11.171   4.746   4.705
26364W        W88027  36.519  13.623   0.426
26365W        W88028  19.073  40.921  11.528
26366W        W88029  18.587  22.132  12.944
26367W        W88030  40.382  17.260  12.964
26368W        W88031  34.072   4.432   5.766
26369W        W88032  42.830  12.164  13.893
26370W        W88033  34.512  34.586   4.262
26371W        W88034  44.503   6.345  14.882
26372W        W88035  40.018  28.637  10.979
26373W        W88036  23.054  22.053  14.390
26374W        W88037  22.631  22.096   4.298
26375W        W88038   8.836  33.102   1.265
26376W        W88039  37.520   8.255  12.528
26377W        W88040   0.768  23.212   1.284
26378W        W88041  38.950  24.690   1.410
26379W        W88042  30.156  27.064  14.512
26380W        W88043  36.013  10.745   3.795
26381W        W88044   1.916  16.618   2.883
26382W        W88045  38.911  13.653   0.309
26383W        W88046  41.936  37.005  11.396
26384W        W88047  39.964  26.044  10.933
26385W        W88048  17.176  15.796  12.938
26386W        W88049  37.562  26.518  10.494
26387W        W88050   3.855  31.923   2.376
26388W        W88051  17.609  31.026   0.387
26389W        W88052   9.298  36.532  10.468
26390W        W88053  42.914  40.526   2.753
26391W        W88054  20.136  17.607  12.418
26392W        W88055  22.523  44.786   4.666
26393W        W88056   3.252   2.965   4.192
26394W        W88057  26.478  35.852   2.798
26395W        W88058  24.656  29.625  12.038
26396W        W88059  17.651  23.124   4.123
26397W        W88060  12.748  36.498   0.925
26398W        W88061   6.408  19.284   4.625
26399W        W88062   6.749  24.541   1.350
26400W        W88063  12.116  10.800  11.945
26401W        W88064  27.646  39.925   1.385
26402W        W88065  15.250  24.667  13.880
26403W        W88066  42.948  31.626  12.534
26404W        W88067  14.702  40.510   0.885
26405W        W88068  40.548   7.899   5.314
26406W        W88069   3.288  27.521   2.401
26407W        W88070  36.045   8.684  10.902
26408W        W88071   5.876  12.152   3.735
26409W        W88072  44.420  18.187   5.144
26410W        W88073  24.177  24.721   2.357
26411W        W88074  20.522  18.719  14.770
26412W        W88075  21.111  33.102   3.386
26413W        W88076  39.813  41.019   0.417
26414W        W88077   8.241  42.410  12.408
26415W        W88078   6.388  12.696  14.992
26416W        W88079  25.680  38.524   0.853
26417W        W88080  41.001  11.346   0.395
26418W        W88081   8.768  33.004   4.326
26419W        W88082  31.978   5.924  10.050
26420W        W88083  20.274   9.156  11.530
26421W        W88084  30.601  31.962   0.262
26422W        W88085  44.361  12.333   0.259
26423W        W88086  14.314   3.754  14.803
26424W        W88087  44.331   9.294   2.753
26425W        W88088  22.097  11.828  13.016
26426W        W88089   1.967  16.234   1.897
26427W        W88090  23.195   5.803   2.198
26428W        W88091   8.204  44.291  11.118
26429W        W88092  12.788  14.170   2.360
26430W        W88093  36.916  19.628   1.264
26431W        W88094  26.018  20.168  12.951
26432W        W88095   5.306  13.645  14.480
26433W        W88096   2.752   0.482  10.592
26434W        W88097  26.673  21.165  12.938
26435W        W88098  20.175  28.611   3.782
26436W        W88099  15.780  23.043   0.420
26437W        W88100  11.186   0.380  14.380
26438W        W88101  14.595  32.425   0.820
26439W        W88102  13.669  30.150  14.028
26440W        W88103   0.433   9.300   0.782
26441W        W88104  36.988  25.182  12.008
26442W        W88105  11.143  34.916  13.927
26443W        W88106  19.719   8.169  14.470
26444W        W88107  33.460  37.499  13.813
26445W        W88108  33.049  40.886   4.170
26446W        W88109  28.154   3.255  13.031
26447W        W88110  35.593  37.976  14.430
26448W        W88111  31.050  36.367   3.387
26449W        W88112  24.096  36.945  11.593
26450W        W88113  35.880   8.383  12.560
26451W        W88114  21.101  36.874   3.659
26452W        W88115  32.983  36.036   4.684
26453W        W88116  18.112  28.953  13.921
26454W        W88117  32.542  31.485  11.412
26455W        W88118  19.604  32.634   1.741
26456W        W88119   0.446  26.196  13.506
26457W        W88120  10.266  11.160   3.336
26458W        W88121  12.823   0.763  14.415
26459W        W88122   4.866  12.747  11.945
26460W        W88123  22.645  18.776  13.806
26461W        W88124  27.028  43.287   0.892
26462W        W88125  10.180  18.241  12.524
26463W        W88126  30.145  17.563   1.752
26464W        W88127  14.324   2.350  10.531
26465W        W88128  11.727  14.594  12.888
26466W        W88129  40.869  17.702   0.867
26467W        W88130   4.299  19.759  11.946
26468W        W88131  29.988  15.218   2.739
26469W        W88132  13.158  12.771  14.922
26470W        W88133  25.580   4.293   2.735
26471W        W88134  32.439   8.771   0.881
26472W        W88135  26.076   9.382  14.768
26473W        W88136  15.097  25.706  13.948
26474W        W88137  44.974  26.059   0.420
26475W        W88138  26.011  26.145   2.751
26476W        W88139  35.034  40.921  14.393
26477W        W88140  41.497  21.096   4.736
26478W        W88141   4.446  44.458  10.996
26479W        W88142  20.542   2.936  11.418
26480W        W88143  18.755  17.264  13.387
26481W        W88144  28.659  35.444  13.042
26482W        W88145   9.856  21.721  13.913
26483W        W88146  42.342  21.517   1.265
26484W        W88147  42.843  25.522   3.819
26485W        W88148  24.191  21.226  10.483
26486W        W88149  10.360  40.522   0.300
26487W        W88150   2.967  30.525   1.815
26488W        W88151  20.635  34.072   1.243
26489W        W88152  36.448  17.616   4.211
26490W        W88153  33.980  21.228  14.850
26491W        W88154  30.532   7.241   3.859
26492W        W88155  37.577   3.300  14.821
26493W        W88156  23.720   5.841  10.617
26494W        W88157  24.139  27.615   4.758
26495W        W88158  14.249  13.759   0.803
26496W        W88159  25.196  39.470   9.927
26497W        W88160   2.237   4.438  10.562
26498W        W88161  40.384  40.846  12.082
26499W        W88162  15.588  27.139   3.731
26500W        W88163  38.419  22.514  12.840
26501W        W88164   3.224  20.555   4.624
26502W        W88165  32.515   0.404   2.809
26503W        W88166   9.347  20.532  14.908
26504W        W88167  29.049  17.160  11.923
26505W        W88168  44.292  10.319  10.574
26506W        W88169  19.692  14.802   3.384
26507W        W88170   5.889  33.439  13.956
26508W        W88171   2.319  26.089   4.270
26509W        W88172  29.091   7.249  11.015
26510W        W88173  34.054  24.045  10.512
26511W        W88174  12.120  37.446   0.451
26512W        W88175  41.893  28.007  13.968
26513W        W88176  13.200  10.792   4.117
26514W        W88177   6.874  18.623   4.137
26515W        W88178  11.149  38.467   4.690
26516W        W88179  23.031  24.509   5.210
26517W        W88180  21.141  26.675  13.871
26518W        W88181   1.298  17.205  12.508
26519W        W88182  18.642  17.728  14.474
26520W        W88183  26.678  26.628   1.343
26521W        W88184  17.614  10.271   2.888
26522W        W88185   5.763  44.413   4.342
26523W        W88186  37.078  20.125   3.370
26524W        W88187  32.912  39.508   3.791
26525W        W88188  35.074  31.508  11.976
26526W        W88189  30.122  37.874  13.840
26527W        W88190  31.933  22.019  13.928
26528W        W88191   3.406  26.630   1.410
26529W        W88192  26.588  21.198  11.472
26530W        W88193  37.941  11.826  13.459
26531W        W88194  42.309   4.940  11.580
26532W        W88195  22.121   6.721   1.431
26533W        W88196  34.970  36.494   0.847
26534W        W88197  33.089  27.135   1.921
26535W        W88198   8.712  35.967  12.834
26536W        W88199   1.312  35.025  14.337
26537W        W88200  22.619   1.239   2.357
26538W        W88201  17.233   8.272  14.021
26539W        W88202  13.148  21.518   1.724
26540W        W88203  30.063   8.326  12.006
26541W        W88204   2.288  22.565   0.482
26542W        W88205  21.691  12.758   2.750
26543W        W88206  41.297  40.376   3.240
26544W        W88207   3.798  27.624  12.531
26545W        W88208  10.299   4.209   2.203
26546W        W88209  30.629  43.828  10.553
26547W        W88210  19.611  33.446   3.381
26548W        W88211  16.297  21.129  10.586
26549W        W88212   1.320  39.978  14.949
26550W        W88213  26.532  40.996   3.341
26551W        W88214  13.782  11.671  12.430
26552W        W88215  31.574  15.305   2.341
26553W        W88216  27.480  12.737   0.363
26554W        W88217  44.462  38.515  10.608
26555W        W88218  36.496   2.809   3.269
26556W        W88219  11.261  34.987   0.453
26557W        W88220  16.269  38.464  14.337
26558W        W88221   7.383  20.573   2.303
26559W        W88222  38.385  29.572  11.903
26560W        W88223  40.350  38.330  12.470
26561W        W88224  34.998  33.465  10.415
26562W        W88225  42.509  10.786  14.799
26563W        W88226  19.701   6.293   4.317
26564W        W88227   0.911  31.596  11.429
26565W        W88228  28.616  32.473  14.439
26566W        W88229  21.092  13.295   5.203
26567W        W88230  20.569  35.936   3.818
26568W        W88231  43.287  20.227   4.195
26569W        W88232  27.175  37.993   9.534
26570W        W88233  11.151  33.541   4.250
26571W        W88234  44.804  35.920   4.224
26572W        W88235   7.798  39.551  13.457
26573W        W88236  31.471  23.687  13.967
26574W        W88237  23.065   1.854   5.575
26575W        W88238  23.065   5.824  11.387
26576W        W88239   6.386  22.662  10.576
26577W        W88240   0.791  19.581   1.282
26578W        W88241   7.723  22.650   5.303
26579W        W88242   2.378  39.010   5.295
26580W        W88243  13.269  43.340  11.923
26581W        W88244  15.232  33.511   4.815
26582W        W88245  17.736  17.582   1.360
26583W        W88246  40.990  14.645   1.311
26584W        W88247   0.271  16.225  12.823
26585W        W88248  13.284  38.346   4.275
26586W        W88249   4.752  29.934   2.689
26587W        W88250  36.930  19.073  14.424
26588W        W88251  35.463  28.044   4.614
26589W        W88252   1.933  15.623  13.355
26590W        W88253  38.034  19.718   4.256
26591W        W88254   4.717  37.412   0.386
26592W        W88255  41.859  19.630   3.187
26593W        W88256  21.553   7.215  13.353
26594W        W88257  43.948  36.352   4.718
26595W        W88258   8.739  25.611  12.516
26596W        W88259  24.974  13.754   2.397
26597W        W88260  39.984  29.610  11.589
26598W        W88261  17.067   4.302  10.638
26599W        W88262  30.499  24.140  13.822
26600W        W88263  29.018   2.779   2.872
26601W        W88264  30.961  23.538   3.383
26602W        W88265  37.451  30.130  12.942
26603W        W88266  25.532   0.850   4.179
26604W        W88267  31.077  24.224   1.758
26605W        W88268  40.444  37.533  14.946
26606W        W88269   4.327  38.048   2.673
26607W        W88270  17.199   0.972  10.455
26608W        W88271  43.449  42.781   3.731
26609W        W88272  33.035  35.953   3.796
26610W        W88273  12.739  35.045  12.064
26611W        W88274  44.823  22.009   1.348
26612W        W88275  20.153  35.893   4.774
26613W        W88276  23.719  28.085  14.824
26614W        W88277  16.194  36.553  11.029
26615W        W88278   6.723  32.077  13.518
26616W        W88279  32.411   4.742  11.481
26617W        W88280  25.701  19.617  11.490
26618W        W88281  43.379  42.467   3.675
26619W        W88282  35.946  30.563   2.257
26620W        W88283  42.291  12.706   1.854
26621W        W88284  40.845  25.612  12.506
26622W        W88285  20.525  19.539  12.898
26623W        W88286  23.130  18.294  12.487
26624W        W88287   3.854   6.416  11.024
26625W        W88288   2.424   1.293   3.289
26626W        W88289  10.739  26.020  12.857
26627W        W88290   4.419  40.364  14.473
26628W        W88291  18.247  34.092  10.942
26629W        W88292  20.563  30.527  14.963
26630W        W88293   4.385  43.323   0.843
26631W        W88294  10.665  16.172   3.855
26632W        W88295  12.223  23.729   2.820
26633W        W88296  15.795  32.074   0.904
26634W        W88297  41.404   4.211   1.808
26635W        W88298   4.275  32.464  13.022
26636W        W88299  12.702  26.037   4.777
26637W        W88300  33.007   5.333  12.536
26638W        W88301  18.132  36.053  14.505
26639W        W88302  21.645  30.417   0.823
26640W        W88303  14.650  43.381   4.336
26641W        W88304  20.127  28.134   5.202
26642W        W88305   5.247  27.487   2.674
26643W        W88306  30.134   9.889  13.457
26644W        W88307  32.553  23.144   2.330
26645W        W88308   4.887  25.511  11.567
26646W        W88309  14.742  16.573  14.964
26647W        W88310  39.496   7.244  14.852
26648W        W88311  43.367   2.375   1.276
26649W        W88312  33.387  28.980  11.103
26650W        W88313   0.801   5.328  14.844
26651W        W88314   5.334  29.104   2.267
26652W        W88315  39.055  30.541  14.348
26653W        W88316  21.725  39.866   2.372
26654W        W88317   7.224   5.819  13.814
26655W        W88318   7.871  19.634   4.686
26656W        W88319  13.623   7.908   9.668
26657W        W88320   2.408   1.946  12.492
26658W        W88321  26.516  44.893  12.370
26659W        W88322  37.432  38.873   4.158
26660W        W88323  26.617  41.957  14.800
26661W        W88324  39.555  28.490   3.267
26662W        W88325  35.064  33.613   0.306
26663W        W88326  23.521  32.944   1.251
26664W        W88327  13.713   1.775  13.512
26665W        W88328   0.409   0.421  11.566
26666W        W88329  13.833  16.699  14.830
26667W        W88330  28.026  41.402   0.828
26668W        W88331  16.633   3.771  14.838
26669W        W88332  44.888  14.703  12.551
26670W        W88333   3.313  30.019   4.749
26671W        W88334  18.074   6.709   4.632
26672W        W88335   2.381  17.241   3.335
26673W        W88336  36.092  19.575   5.291
26674W        W88337  26.606  26.195  10.065
26675W        W88338  32.540  43.009  14.842
26676W        W88339  14.688  44.296   3.273
26677W        W88340  36.861  17.158   4.760
26678W        W88341  19.728   2.756   3.694
26679W        W88342  20.206  31.489   3.326
26680W        W88343  42.921  32.897   4.807
26681W        W88344  40.843  10.329  12.962
26682W        W88345   5.402  20.229  11.434
26683W        W88346  10.200  31.905   2.274
26684W        W88347  40.533   4.742   4.331
26685W        W88348  26.518  12.657  14.984
26686W        W88349  29.977  10.874  13.547
26687W        W88350  44.437  12.839   4.732
26688W        W88351  11.745  25.669  10.098
26689W        W88352  20.257  12.234   4.175
26690W        W88353  42.313  29.938   2.711
26691W        W88354   8.870  22.008  13.884
26692W        W88355   7.726  13.833  12.875
26693W        W88356   2.737   1.387   0.409
26694W        W88357  28.003  40.933   9.594
26695W        W88358  18.608  32.995  12.884
26696W        W88359  30.071  32.131  12.559
26697W        W88360  19.102  44.828   4.707
26698W        W88361  26.566  38.994  12.507
26699W        W88362  12.268   2.282   3.699
26700W        W88363  15.209  43.415   4.179
26701W        W88364   9.202  22.132  12.552
26702W        W88365  15.725  10.711  11.860
26703W        W88366  30.132  14.156   4.151
26704W        W88367   2.739  23.125  13.969
26705W        W88368  12.259  41.476   1.213
26706W        W88369  14.754  43.778   2.732
26707W        W88370  11.797  34.092   1.744
26708W        W88371  23.988   0.465   2.688
26709W        W88372   5.343   1.800   4.332
26710W        W88373  31.473   1.458  13.061
26711W        W88374  23.665  40.904  13.453
26712W        W88375  25.158  32.123   3.652
26713W        W88376   4.816   9.856   4.675
26714W        W88377  29.467   5.831   1.850
26715W        W88378  15.677   4.318  13.974
26716W        W88379   0.350   8.752  13.819
26717W        W88380   8.325  34.597   2.883
26718W        W88381   5.916   3.946   4.279
26719W        W88382  33.920  27.514   3.683
26720W        W88383  35.546  38.435   1.242
26721W        W88384  44.906  31.151   1.779
26722W        W88385  30.129  14.108  12.968
26723W        W88386  24.173   8.767   3.802
26724W        W88387  26.634  31.070   4.707
26725W        W88388  35.396  21.206  11.010
26726W        W88389  12.125   6.292  12.450
26727W        W88390  21.655   1.311   4.774
26728W        W88391  11.325  42.426   3.282
26729W        W88392  39.511  24.004   1.390
26730W        W88393  35.567  29.635   4.734
26731W        W88394  29.563  26.498   3.852
26732W        W88395  12.360   2.306   1.444
26733W        W88396  22.092  28.977  13.978
26734W        W88397  16.766  39.376  11.555
26735W        W88398  24.193  11.263  10.425
26736W        W88399  13.241  30.918   2.390
26737W        W88400   1.471  30.995   0.733
26738W        W88401  42.483  39.857   2.856
26739W        W88402  18.253  38.975  12.969
26740W        W88403  10.258  19.201  12.573
26741W        W88404  13.208  31.925  12.455
26742W        W88405  20.036  31.547   1.934
26743W        W88406  38.495   6.699  13.329
26744W        W88407  18.633   9.200   4.318
26745W        W88408   9.809  43.908   4.807
26746W        W88409  31.994  37.563  10.113
26747W        W88410  29.503   6.304   1.447
26748W        W88411  26.169  40.529   2.297
26749W        W88412  10.806  31.982  11.105
26750W        W88413  25.470  17.078   4.818
26751W        W88414  24.624  16.152   4.203
26752W        W88415  23.177   0.960   2.843
26753W        W88416  35.936   5.839  14.385
26754W        W88417  11.718  40.825   1.890
26755W        W88418  42.950  27.649   4.230
26756W        W88419  35.006  39.058  10.020
26757W        W88420   9.837  43.987  13.830
26758W        W88421  39.861  40.828   4.803
26759W        W88422  14.701  11.308  14.458
26760W        W88423  40.410  42.390  14.338
26761W        W88424   3.419   5.297   1.404
26762W        W88425  26.500  11.746   0.248
26763W        W88426  12.702  19.573   2.254
26764W        W88427  43.291  34.392   2.743
26765W        W88428  26.006  20.629   1.449
26766W        W88429  23.712  28.124  10.931
26767W        W88430   1.469   8.678   1.230
26768W        W88431   1.379  34.600  10.458
26769W        W88432  24.218  44.793  11.547
26770W        W88433  44.273  44.414  14.407
26771W        W88434  41.818  42.420   3.340
26772W        W88435  12.705  15.221   4.730
26773W        W88436   4.776  31.544  14.336
26774W        W88437  16.759   0.896   2.262
26775W        W88438  37.047  26.482  11.934
26776W        W88439   0.888  33.004  11.479
26777W        W88440  30.425  13.238   1.344
26778W        W88441  21.550  20.756  14.994
26779W        W88442  13.141  31.941   4.609
26780W        W88443  33.118  24.531  14.323
26781W        W88444  23.663  33.409  12.898
26782W        W88445  29.602  17.776  12.999
26783W        W88446  12.212  20.105  10.495
26784W        W88447  33.968  30.475  13.892
26785W        W88448  18.768  41.328  11.389
26786W        W88449   0.984   1.338  14.969
26787W        W88450   1.348  27.052  14.394
26788W        W88451   1.973  38.898   4.684
26789W        W88452  30.105  35.088  11.544
26790W        W88453  12.210   2.867   1.899
26791W        W88454  14.161  34.912   4.773
26792W        W88455  27.087  37.837   5.227
26793W        W88456  44.999  28.993  11.125
26794W        W88457  33.534   9.376   1.874
26795W        W88458  36.566  26.502  13.436
26796W        W88459  38.452  24.047   2.406
26797W        W88460  35.025  20.534   1.850
26798W        W88461  23.603  15.583  13.887
26799W        W88462  25.078   9.393  10.435
26800W        W88463   8.822   9.844   0.273
26801W        W88464  11.188  13.150   1.829
26802W        W88465  30.429   0.400  11.595
26803W        W88466   6.317   2.916  12.991
26804W        W88467   9.815  30.915   1.221
26805W        W88468  41.358  37.950  10.628
26806W        W88469  24.560  33.131  13.797
26807W        W88470  38.019  44.891  11.383
26808W        W88471  28.660  12.212   4.303
26809W        W88472  41.334  27.446   2.203
26810W        W88473  37.075  19.186   2.206
26811W        W88474   7.247  36.076  10.585
26812W        W88475  12.791  43.379  14.891
26813W        W88476  31.989  27.513  14.290
26814W        W88477   9.304  13.778   2.751
26815W        W88478  26.003  43.791   2.886
26816W        W88479  44.435  12.230  13.890
26817W        W88480   5.902  15.714  11.872
26818W        W88481   1.362  34.407   2.849
26819W        W88482   0.943  20.075   0.251
26820W        W88483  30.020  19.268  14.899
26821W        W88484  31.445  41.484   1.866
26822W        W88485  23.206  32.927   3.347
26823W        W88486  19.731  21.172   4.721
26824W        W88487  21.725  35.439  13.867
26825W        W88488  15.796  21.732  10.976
26826W        W88489  31.122  18.051  11.588
26827W        W88490  30.914  44.997   2.241
26828W        W88491  32.427  43.327   3.775
26829W        W88492  40.446  24.571  14.762
26830W        W88493  30.583   3.832  14.315
26831W        W88494  27.448  16.780   0.459
26832W        W88495  33.591  25.198  12.577
26833W        W88496  40.812   4.741   4.804
26834W        W88497  18.703   9.284  14.363
26835W        W88498  23.071  36.073  12.356
26836W        W88499   8.373  29.068   4.762
26837W        W88500  43.274  41.897  13.374
26838W        W88501  22.649  40.011  13.526
26839W        W88502  41.899  24.597  12.961
26840W        W88503   8.323   2.267  10.633
26841W        W88504  27.468  19.572  14.024
26842W        W88505   8.213   5.346  12.074
26843W        W88506  21.680  44.842   3.816
26844W        W88507  43.826  20.250  12.461
26845W        W88508   2.285  38.899  10.932
26846W        W88509  37.374  34.450  10.922
26847W        W88510  30.014  10.863  14.886
26848W        W88511  32.103  30.529  10.034
26849W        W88512  26.638  39.923   1.235
26850W        W88513  12.702  16.099   0.456
26851W        W88514  30.594   5.933  14.274
26852W        W88515  43.868  25.702   4.243
26853W        W88516  19.737  36.968   3.670
26854W        W88517   8.829   1.411  12.927
26855W        W88518  32.425  24.552  12.445
26856W        W88519  26.023  23.517   1.354
26857W        W88520  23.986  36.042   3.338
26858W        W88521  11.768  23.102   2.751
26859W        W88522  44.919  39.049  14.388
26860W        W88523  10.292  25.616  14.847
26861W        W88524  31.548  12.209   3.724
26862W        W88525   5.338  25.993   0.827
26863W        W88526  17.714   5.883  10.905
26864W        W88527  16.759  26.634  12.940
26865W        W88528  18.124  16.249  11.519
26866W        W88529  15.249   6.808  13.795
26867W        W88530  28.000  40.522  14.878
26868W        W88531  40.859   4.272  13.954
26869W        W88532  31.099  31.411   0.433
26870W        W88533  17.683  40.424  14.406
26871W        W88534  40.511  31.461   4.688
26872W        W88535   3.821  23.589   1.710
26873W        W88536  12.285  10.650   3.251
26874W        W88537  25.697  27.947  12.364
26875W        W88538   5.877  41.790   3.673
26876W        W88539  41.312  38.399   2.409
26877W        W88540   5.862   9.843   2.686
26878W        W88541   8.791   5.841   0.889
26879W        W88542  14.632  43.403  11.548
26880W        W88543  27.512  33.608   1.383
26881W        W88544   8.838  26.503  13.867
26882W        W88545  23.724  10.747   4.633
26883W        W88546  42.490   9.205  11.515
26884W        W88547   5.382  16.756  12.896
26885W        W88548  17.173  19.281   0.402
26886W        W88549  40.318  33.415  10.074
26887W        W88550  36.467  41.900  12.934
26888W        W88551  29.981  31.992  11.041
26889W        W88552  34.946  42.436   0.877
26890W        W88553  38.044  28.577   2.889
26891W        W88554  22.530  40.901  12.419
26892W        W88555  38.498  34.563   0.317
26893W        W88556  19.762  39.036  14.356
26894W        W88557  10.357  42.526  11.043
26895W        W88558  15.781  31.470   2.320
26896W        W88559   3.344  22.735  13.914
26897W        W88560  34.427  42.399  11.461
26898W        W88561  39.453  29.607   3.654
26899W        W88562  11.166  34.382   3.757
26900W        W88563   4.328  22.622  11.420
26901W        W88564  34.070  27.196   1.405
26902W        W88565  12.702  39.409   1.722
26903W        W88566  17.663  11.275   0.909
26904W        W88567  39.977  11.849   3.701
26905W        W88568   5.239  25.709  12.379
26906W        W88569  26.498   6.182   0.429
26907W        W88570  16.760  23.009   4.271
26908W        W88571  30.552  23.656   4.222
26909W        W88572   2.239  31.946   4.832
26910W        W88573  18.076  17.086  13.376
26911W        W88574   6.817  21.562  11.888
26912W        W88575  43.977  39.526  14.976
26913W        W88576  43.491  15.777  14.893
26914W        W88577  39.011  27.658   0.443
26915W        W88578  14.108  33.951  14.355
26916W        W88579   3.315  28.628  10.630
26917W        W88580  39.990  27.543   3.322
26918W        W88581  17.628  37.844  12.398
26919W        W88582  39.971  28.936  13.457
26920W        W88583  15.250  11.320  13.355
26921W        W88584  33.025  19.175   1.348
26922W        W88585  17.082  29.535   3.209
26923W        W88586  15.691   0.487  11.934
26924W        W88587  18.131  12.712  10.097
26925W        W88588  27.468  43.810  11.982
26926W        W88589  20.608   9.314   3.161
26927W        W88590  40.985   3.375   4.254
26928W        W88591   6.314  28.016   9.952
26929W        W88592   8.695   1.238  14.948
26930W        W88593  15.282  10.218  12.056
26931W        W88594  29.488  19.553  10.042
26932W        W88595   0.448  12.340  14.863
26933W        W88596   6.414  29.495  11.883
26934W        W88597   7.303  39.015  13.321
26935W        W88598   8.699  24.087   1.255
26936W        W88599  23.109   8.255   0.285
26937W        W88600  12.738   1.431   4.181
26938W        W88601  30.483  13.800   1.227
26939W        W88602  17.100  17.616   2.716
26940W        W88603   0.912  28.649  14.932
26941W        W88604  25.565  15.582   0.772
26942W        W88605  18.252  17.635  11.913
26943W        W88606  33.566  32.976   1.707
26944W        W88607  24.549  43.836   0.438
26945W        W88608  11.690  32.055   3.739
26946W        W88609  42.434  37.941  14.308
26947W        W88610  25.093  10.762   2.897
26948W        W88611  23.607  15.133  14.012
26949W        W88612  31.993   0.483   0.932
26950W        W88613  23.207  34.987  14.876
26951W        W88614   0.913  32.119   5.312
26952W        W88615  21.698  17.183   3.677
26953W        W88616  20.693   9.300  12.556
26954W        W88617  33.917   0.863  13.896
26955W        W88618  35.448  16.296  10.634
26956W        W88619  21.189  36.373   4.683
26957W        W88620  21.549  15.239  13.356
26958W        W88621  31.575  13.186   3.312
26959W        W88622  21.162  38.541   1.772
26960W        W88623  37.509  41.938   5.148
26961W        W88624  26.465  37.514  10.104
26962W        W88625  25.100   1.297   3.686
26963W        W88626  35.983  15.247  12.349
26964W        W88627  28.673  33.545   0.299
26965W        W88628  39.544   1.837   0.808
26966W        W88629  37.927  25.114  14.507
26967W        W88630  31.407  23.039   1.922
26968W        W88631  20.058  20.240   3.302
26969W        W88632  13.177  16.122   4.755
26970W        W88633  32.595   6.743   0.786
26971W        W88634   7.852   1.442   2.836
26972W        W88635   9.832  20.632   2.694
26973W        W88636  31.039   2.816  13.511
26974W        W88637   5.240  29.430   1.229
26975W        W88638  36.532  19.222   3.367
26976W        W88639  40.835  41.914   3.803
26977W        W88640  17.630  15.185  14.761
26978W        W88641  43.349  36.964  12.472
26979W        W88642  13.828  43.771  10.943
26980W        W88643  19.705   4.810   1.431
26981W        W88644  12.698  30.152  10.995
26982W        W88645  28.568  23.097   3.236
26983W        W88646  39.064  26.631   3.293
26984W        W88647  16.750  43.367  12.459
26985W        W88648  44.821  12.351   0.426
26986W        W88649  34.962  10.765   1.444
26987W        W88650  40.996  26.557  11.918
26988W        W88651   7.340  34.373  14.463
26989W        W88652  23.048  42.305  11.378
26990W        W88653  27.477  41.527  14.446
26991W        W88654   2.251  20.102   1.332
26992W        W88655  10.205  42.964  12.427
26993W        W88656  33.915  33.995   4.187
26994W        W88657  30.553  41.435  14.775
26995W        W88658  37.987   7.785  13.853
26996W        W88659  10.777   9.289   1.916
26997W        W88660  23.038  35.486   3.203
26998W        W88661  32.894  24.155  11.439
26999W        W88662  10.850  23.105  10.952
27000W        W88663  41.856   0.335  13.510
27001W        W88664  25.684  25.080  14.774
27002W        W88665  39.414  14.107   3.856
27003W        W88666   8.234  27.574   4.631
27004W        W88667  42.470   5.717  12.939
27005W        W88668  29.485  33.565   2.680
27006W        W88669  10.758  40.442   4.766
27007W        W88670  42.983  21.150  11.426
27008W        W88671  18.582  12.217   2.808
27009W        W88672  12.226  29.582  13.879
27010W        W88673  35.103  44.757   4.314
27011W        W88674  18.168   0.804  12.950
27012W        W88675  28.507  11.130  14.464
27013W        W88676  24.108  34.901   2.241
27014W        W88677  35.525  40.506   3.289
27015W        W88678  20.635   3.932  14.490
27016W        W88679  27.045  18.055   2.861
27017W        W88680  37.847   8.180   0.374
27018W        W88681   3.268   0.414   4.768
27019W        W88682  15.236   5.342  14.326
27020W        W88683  40.508  26.101   1.868
27021W        W88684   4.862  30.930   3.785
27022W        W88685  41.538  38.372  13.334
27023W        W88686   1.251  34.500  14.947
27024W        W88687  12.287  25.120  14.373
27025W        W88688  13.140  19.747  11.930
27026W        W88689  11.225  22.650  14.829
27027W        W88690  33.950  43.795   1.392
27028W        W88691   9.835   3.798   3.274
27029W        W88692  15.089  20.653   2.277
27030W        W88693  37.922   8.219  10.603
27031W        W88694  18.285   9.800   0.395
27032W        W88695   7.320  16.671   2.294
27033W        W88696  12.117  23.514  13.382
27034W        W88697  39.386  41.516   4.240
27035W        W88698   0.290  38.881   0.813
27036W        W88699  26.204  18.184  13.437
27037W        W88700  14.793   1.361   2.393
27038W        W88701  35.515  32.620   2.699
27039W        W88702  17.711   6.205   3.209
27040W        W88703  14.194  23.683   1.343
27041W        W88704  31.509  18.206  11.118
27042W        W88705  34.420   5.892  10.958
27043W        W88706   0.290  26.552   3.192
27044W        W88707  28.975   0.358  11.574
27045W        W88708   8.248  22.566  11.926
27046W        W88709  42.871  16.637   5.279
27047W        W88710   1.905  16.748  13.868
27048W        W88711  21.252  25.171   0.325
27049W        W88712  21.180  23.069   0.265
27050W        W88713  14.331  11.290   4.809
27051W        W88714  23.532   3.736  11.596
27052W        W88715  16.126   5.195   0.291
27053W        W88716   7.312  25.966  11.907
27054W        W88717  30.999  11.268   1.267
27055W        W88718   4.398  34.401   2.408
27056W        W88719  12.279  34.449   3.173
27057W        W88720  19.664  29.555   1.387
27058W        W88721  33.931   7.891   0.467
27059W        W88722  19.696  14.812   1.808
27060W        W88723  33.108  13.160  11.496
27061W        W88724  16.617  36.592   1.727
27062W        W88725  37.419   1.251   2.784
27063W        W88726  29.640  17.605  12.494
27064W        W88727  29.470  42.965   2.885
27065W        W88728  18.253  40.998  12.080
27066W        W88729   3.230   2.270   4.299
27067W        W88730   7.396  22.514  13.848
27068W        W88731  17.198   9.727   1.279
27069W        W88732   0.854  44.456   9.980
27070W        W88733  35.061   0.492  14.999
27071W        W88734  38.469  16.308   1.820
27072W        W88735   1.396   1.764  11.879
27073W        W88736   5.265  15.772  10.964
27074W        W88737  38.007  37.572  11.403
27075W        W88738  20.176   5.382  13.945
27076W        W88739  15.768  23.004  10.087
27077W        W88740  37.476   3.336   3.665
27078W        W88741  26.989  24.500   5.134
27079W        W88742  13.616  13.714  13.509
27080W        W88743  29.054  13.157   0.819
27081W        W88744  33.886  41.442  12.094
27082W        W88745  28.043  13.150   2.821
27083W        W88746   3.888   6.693   3.360
27084W        W88747  15.139  21.135   0.859
27085W        W88748  20.047   7.189   1.888
27086W        W88749  32.038  28.614   0.838
27087W        W88750  15.820  28.168  10.987
27088W        W88751  27.622  11.362   1.367
27089W        W88752  29.431   4.254   0.398
27090W        W88753   0.940  44.780  11.428
27091W        W88754   5.272  33.997  10.575
27092W        W88755  12.654  41.797  10.896
27093W        W88756  19.139  17.228   0.933
27094W        W88757  36.359  20.568   0.320
27095W        W88758  13.792  30.031  10.520
27096W        W88759  38.821  30.475   4.157
27097W        W88760  10.378  27.080   4.262
27098W        W88761  36.498  11.809   4.778
27099W        W88762  25.996  33.995  13.028
27100W        W88763  10.837  11.687   4.144
27101W        W88764  14.146  24.215   3.679
27102W        W88765  32.398  24.646  13.869
27103W        W88766  32.527   3.310  14.821
27104W        W88767  15.197  21.563   1.224
27105W        W88768  42.803  35.424   3.346
27106W        W88769   5.856  31.009  12.019
27107W        W88770  33.884  11.191   3.335
27108W        W88771  41.987   7.391   5.106
27109W        W88772  37.007  30.467   4.770
27110W        W88773  43.837  15.111  12.394
27111W        W88774  31.978   8.360  13.896
27112W        W88775  21.182  27.647  10.101
27113W        W88776  36.032  39.922  13.932
27114W        W88777   6.744   9.715   1.914
27115W        W88778  12.202  32.547  12.855
27116W        W88779  32.633  13.722  11.456
27117W        W88780  34.535  19.668   3.364
27118W        W88781  21.216  13.334  10.448
27119W        W88782  35.544  21.188  12.926
27120W        W88783  36.941  13.158  12.532
27121W        W88784  20.185   6.884   0.263
27122W        W88785   3.713   9.720  11.475
27123W        W88786   6.189  29.083   1.334
27124W        W88787  27.461  17.160  13.494
27125W        W88788  31.404  17.719   1.419
27126W        W88789   6.796   2.809   3.362
27127W        W88790  38.903  14.117   0.753
27128W        W88791  20.079  44.791   0.890
27129W        W88792  28.514  28.180  11.881
27130W        W88793  18.750   9.314   0.256
27131W        W88794  24.489   4.437   2.874
27132W        W88795   7.290  34.000   4.203
27133W        W88796  35.105  18.585   0.459
27134W        W88797  16.177  11.626   2.743
27135W        W88798  34.566  16.726   0.390
27136W        W88799  42.390  28.484   0.902
27137W        W88800  10.350   8.314  11.589
27138W        W88801  19.224  27.551   0.359
27139W        W88802  24.629  25.609  13.861
27140W        W88803   3.791  26.001  10.569
27141W        W88804  21.044  38.542  14.815
27142W        W88805  23.627  37.075  14.504
27143W        W88806  30.434   3.414  14.508
27144W        W88807  37.947   5.880  11.066
27145W        W88808  23.109  34.504   0.270
27146W        W88809   2.324  11.767   1.323
27147W        W88810  35.532  41.496   3.805
27148W        W88811  28.148  35.012   3.186
27149W        W88812  23.990  24.207   3.363
27150W        W88813  26.009  31.614   2.208
27151W        W88814  22.612  11.860   1.296
27152W        W88815  22.533  26.590  13.863
27153W        W88816  43.347  31.506   2.185
27154W        W88817  35.404   3.856  10.539
27155W        W88818  38.412  40.831   1.796
27156W        W88819  29.948  11.366   1.449
27157W        W88820  15.810  28.662  11.080
27158W        W88821  25.974  43.912   4.328
27159W        W88822  43.347  27.055  12.902
27160W        W88823  10.811  15.739  10.495
27161W        W88824  37.525   6.898  14.771
27162W        W88825  43.352   8.732   3.169
27163W        W88826   8.705   8.689   2.384
27164W        W88827  44.825  18.580  13.949
27165W        W88828  17.647   8.379   4.228
27166W        W88829  42.021  32.507  14.366
27167W        W88830  30.010  29.609   1.328
27168W        W88831  12.638  34.095   0.371
27169W        W88832  44.946  42.393   4.319
27170W        W88833   7.390  35.528   0.242
27171W        W88834  13.227  10.817  14.775
27172W        W88835  21.729  31.596   1.923
27173W        W88836  15.608  36.018   0.732
27174W        W88837  28.951  29.489  13.923
27175W        W88838  10.245  42.027  11.866
27176W        W88839  18.144  44.977   0.272
27177W        W88840  18.205  16.754  14.953
27178W        W88841   6.298  41.438  13.984
27179W        W88842  43.968  23.535  11.375
27180W        W88843  36.070   3.851   4.241
27181W        W88844  41.353  38.955  14.461
27182W        W88845   6.810  27.139   2.806
27183W        W88846  43.828  19.677   3.171
27184W        W88847  21.259   7.749  14.853
27185W        W88848  16.767  14.680  13.917
27186W        W88849   6.401  17.638   4.790
27187W        W88850  41.862  44.831   2.814
27188W        W88851  44.879  28.989   4.792
27189W        W88852  36.525   0.445  14.834
27190W        W88853   1.307  12.616  10.451
27191W        W88854  38.047  30.994  14.928
27192W        W88855  18.095  22.064   0.809
27193W        W88856  12.280  38.831   2.768
27194W        W88857  39.469  29.059  12.069
27195W        W88858  41.977  41.504   1.726
27196W        W88859  28.959   9.858   4.661
27197W        W88860  36.384  23.238  10.510
27198W        W88861  23.057  26.005   0.812
27199W        W88862  21.170  12.728   4.245
27200W        W88863  11.774  14.735  14.450
27201W        W88864  16.247  30.436  12.848
27202W        W88865  44.454  42.798  10.465
27203W        W88866  32.951  36.348  13.530
27204W        W88867  25.074   3.751  13.022
27205W        W88868   6.901  30.541   3.660
27206W        W88869  34.605  14.666   4.620
27207W        W88870  29.931  22.717  13.333
27208W        W88871  10.832   5.310  12.402
27209W        W88872  33.605  39.964   3.843
27210W        W88873  28.095  32.999  13.513
27211W        W88874   0.825  44.387  10.645
27212W        W88875  31.123  12.810  11.923
27213W        W88876  40.384   5.899  10.625
27214W        W88877  17.581  22.595   4.293
27215W        W88878  37.021   3.861  14.814
27216W        W88879  33.922  38.435  14.406
27217W        W88880   4.919  17.767  10.470
27218W        W88881  24.596   5.365   2.209
27219W        W88882  29.653  10.222   0.468
27220W        W88883  39.037  19.235  12.064
27221W        W88884  24.527  36.591  11.483
27222W        W88885  28.059   5.834  11.954
27223W        W88886  28.976   1.342  14.379
27224W        W88887   1.853  18.065  13.380
27225W        W88888  29.460  23.595  10.051
27226W        W88889  30.939  21.231   2.236
27227W        W88890  40.951  36.543  14.929
27228W        W88891  17.761  10.216   3.790
27229W        W88892  42.950  42.421  10.003
27230W        W88893   0.779  14.739   2.707
27231W        W88894  38.433  19.682   4.663
27232W        W88895  27.544   8.244  12.371
27233W        W88896   3.754  23.180   2.686
27234W        W88897   2.770  30.021   4.601
27235W        W88898  23.605  38.993   2.662
27236W        W88899  28.103  40.373   1.418
27237W        W88900   9.377   2.303  13.892
27238W        W88901  14.334  16.228  12.506
27239W        W88902   3.454  29.609   5.105
27240W        W88903  39.441  43.989  14.903
27241W        W88904   6.800  24.478   3.736
27242W        W88905   6.890  32.502   1.917
27243W        W88906  24.157  18.120   1.355
27244W        W88907  12.660  28.166   1.449
27245W        W88908  24.492  13.773   2.247
27246W        W88909   4.360  11.768   1.246
27247W        W88910  29.160  39.041  10.950
27248W        W88911  22.655  22.542  10.443
27249W        W88912  37.515  25.659   5.162
27250W        W88913   7.374  11.810  11.494
27251W        W88914  13.749   1.821   2.411
27252W        W88915  10.790  14.819  12.572
27253W        W88916  37.874  12.683   2.331
27254W        W88917  34.517   4.850  13.016
27255W        W88918  26.697  21.129   4.639
27256W        W88919   4.860  25.680   3.700
27257W        W88920   5.369  39.058   0.265
27258W        W88921  37.024  14.740  12.915
27259W        W88922  23.038   1.244   1.381
27260W        W88923  22.696  34.071  12.855
27261W        W88924  37.520  18.250  13.010
27262W        W88925  43.353   7.217   1.916
27263W        W88926  44.352  38.019  11.960
27264W        W88927   7.338  34.553  11.574
27265W        W88928  11.865  34.880   1.445
27266W        W88929   1.803  35.871  11.127
27267W        W88930  21.055  43.391   0.328
27268W        W88931  37.850   8.321   1.307
27269W        W88932  41.851  36.947   1.409
27270W        W88933  38.013   4.814   4.699
27271W        W88934  18.601  31.637  10.424
27272W        W88935  26.604  37.889   1.793
27273W        W88936   9.299  44.428  14.927
27274W        W88937  21.518  15.096   0.249
27275W        W88938  10.142   8.702  13.884
27276W        W88939  35.433  33.075   4.320
27277W        W88940   8.713  28.494  12.516
27278W        W88941   0.966  25.682   3.781
27279W        W88942  21.263  14.594  14.955
27280W        W88943   4.755  18.616   4.314
27281W        W88944   6.268   0.331  14.940
27282W        W88945   5.211   1.369  11.433
27283W        W88946   0.880  22.151  10.641
27284W        W88947  43.937   0.765   4.213
27285W        W88948   8.897  39.434  11.913
27286W        W88949   1.293   1.410   0.389
27287W        W88950  14.659  34.928   0.464
27288W        W88951  36.402  42.492  12.068
27289W        W88952   3.721  23.541  12.342
27290W        W88953  24.658  38.459  13.006
27291W        W88954  31.504  21.681  11.935
27292W        W88955  43.902  19.739   1.740
27293W        W88956   9.804  24.147  10.477
27294W        W88957  37.400   6.296   2.895
27295W        W88958  44.311  26.175  14.764
27296W        W88959  42.523  24.062   4.713
27297W        W88960  39.501  12.645   4.770
27298W        W88961   6.296  34.867   2.799
27299W        W88962   7.766   4.340   4.680
27300W        W88963  23.574  23.089   4.807
27301W        W88964  28.064  22.140   2.210
27302W        W88965  39.364  27.131   1.780
27303W        W88966  20.663  20.229   3.768
27304W        W88967  41.933  44.328   1.755
27305W        W88968  31.402  18.577  11.404
27306W        W88969   1.267  41.036  11.520
27307W        W88970   9.857  12.249   1.724
27308W        W88971  10.375   6.718  12.083
27309W        W88972   6.736  20.202   1.799
27310W        W88973   7.862   8.801  11.936
27311W        W88974  13.670  17.225  14.423
27312W        W88975  17.069  36.003  11.088
27313W        W88976  31.118  44.957  12.872
27314W        W88977  23.232   1.740   1.268
27315W        W88978  23.618   7.247  14.798
27316W        W88979  10.367  24.725   2.867
27317W        W88980  29.024  11.205  13.973
27318W        W88981  15.698  11.633  10.486
27319W        W88982   1.337  17.639  10.575
27320W        W88983  33.006  31.536   3.203
27321W        W88984   6.741  24.639   2.214
27322W        W88985  39.401  18.088  14.928
27323W        W88986  26.977  30.500  13.424
27324W        W88987  16.190   9.184  13.041
27325W        W88988  23.237   1.919  10.429
27326W        W88989  21.595  27.498  12.442
27327W        W88990  29.433  32.495   0.266
27328W        W88991   5.763  41.927   0.919
27329W        W88992  44.353   1.367   4.613
27330W        W88993  32.960   9.255  12.580
27331W        W88994  28.120  28.032   4.266
27332W        W88995  42.287  10.335   4.659
27333W        W88996  44.325   2.229   4.354
27334W        W88997  15.772  22.670  12.466
27335W        W88998  37.918   4.825  11.103
27336W        W88999  22.226  36.468   4.693
27337W        W89000   4.333  41.040   1.793
27338W        W89001  26.635  10.326   2.870
27339W        W89002   2.805  22.593  14.438
27340W        W89003  40.543  44.797  14.922
27341W        W89004  41.869   5.885   3.376
27342W        W89005  30.471  11.792  11.898
27343W        W89006  35.574   7.248  11.966
27344W        W89007  14.810  36.390   2.780
27345W        W89008  34.498  10.223   2.887
27346W        W89009  33.898  16.573   1.901
27347W        W89010  44.784  44.926   4.695
27348W        W89011  18.640  15.736  11.376
27349W        W89012  18.261  34.589  11.910
27350W        W89013  31.025   2.790   3.764
27351W        W89014  22.544  41.843   4.716
27352W        W89015  30.616   2.382   0.474
27353W        W89016  44.871   9.200  12.044
27354W        W89017  29.954  10.341  13.458
27355W        W89018   6.183  13.312   4.599
27356W        W89019  25.636  11.724  14.989
27357W        W89020  10.725  31.020   4.337
27358W        W89021   8.879   6.310  10.126
27359W        W89022  42.831  33.990  13.837
27360W        W89023   1.402  40.355   0.827
27361W        W89024  19.607   1.891   1.923
27362W        W89025  21.532  31.472  12.478
27363W        W89026  31.646  32.963   2.350
27364W        W89027   1.859  38.545  14.474
27365W        W89028  10.680  39.028  13.399
27366W        W89029  32.885  10.648  13.001
27367W        W89030   5.902  21.577  11.953
27368W        W89031  40.518  42.361   4.833
27369W        W89032  13.346  23.671   1.309
27370W        W89033  10.358   9.791   0.434
27371W        W89034   6.388  28.073  14.411
27372W        W89035  36.387  17.764   1.362
27373W        W89036  21.110   1.832  10.039
27374W        W89037  33.585  37.867  10.899
27375W        W89038  42.295  15.636   1.723
27376W        W89039   3.276   1.966   0.946
27377W        W89040   7.742  35.479  12.913
27378W        W89041  37.864  12.145  12.870
27379W        W89042  15.794   7.273   0.803
27380W        W89043   6.234  42.003  13.852
27381W        W89044  29.569  19.041  13.898
27382W        W89045  37.085  28.602  10.538
27383W        W89046  14.659  29.032   2.874
27384W        W89047  43.819  42.496  12.080
27385W        W89048  14.647  33.918  12.368
27386W        W89049  27.645   0.415  10.935
27387W        W89050   4.749  29.532   2.803
27388W        W89051  21.091  17.153  11.101
27389W        W89052  37.378   2.412   0.284
27390W        W89053  33.026   1.800  13.441
27391W        W89054  20.578  28.122  13.360
27392W        W89055  10.858   6.283  13.497
27393W        W89056  16.136  13.785   2.332
27394W        W89057  27.529  11.695   2.360
27395W        W89058  25.577  31.540  10.600
27396W        W89059  30.585  14.337  14.292
27397W        W89060  30.608  31.428   3.224
27398W        W89061  12.218  33.893   0.819
27399W        W89062  23.203  42.938   2.298
27400W        W89063  18.577   6.908   2.662
27401W        W89064  42.524   2.768   2.190
27402W        W89065  41.994   3.938   3.806
27403W        W89066  29.084  11.349  10.934
27404W        W89067   1.321   4.420   4.216
27405W        W89068   3.861  43.503   2.274
27406W        W89069  44.475  38.070   3.804
27407W        W89070  42.316  19.649   2.227
27408W        W89071  34.895  42.312   3.368
27409W        W89072  20.713  33.923  11.126
27410W        W89073   2.788  11.717   3.380
27411W        W89074  43.505  21.707  10.971
27412W        W89075  37.034  43.885   1.799
27413W        W89076  18.216   5.863   3.776
27414W        W89077  17.176  19.169  11.508
27415W        W89078  34.423   7.287   2.830
27416W        W89079   1.946  39.963  11.023
27417W        W89080  21.199  39.382  11.396
27418W        W89081   4.297  30.477  13.323
27419W        W89082   1.342   7.370  10.448
27420W        W89083  21.034  29.930  13.791
27421W        W89084  29.467  33.614   2.418
27422W        W89085  31.903  40.923   4.211
27423W        W89086   6.253  27.104   2.330
27424W        W89087  38.334  20.060  10.403
27425W        W89088  44.488  30.590   1.256
27426W        W89089  21.146   2.358  12.069
27427W        W89090  19.742   5.252   1.260
27428W        W89091   9.651   3.444   4.772
27429W        W89092  15.618   2.900   1.827
27430W        W89093  24.657  20.096  14.897
27431W        W89094  12.826   0.889  11.444
27432W        W89095  29.525   1.452  14.348
27433W        W89096   8.789  37.530   0.459
27434W        W89097  44.942  44.306  10.046
27435W        W89098  33.117  42.886   4.190
27436W        W89099  27.505   3.846   0.332
27437W        W89100  36.363  13.645  14.930
27438W        W89101  34.081  21.619  13.806
27439W        W89102  27.004  38.965   1.213
27440W        W89103   8.356  35.488  10.542
27441W        W89104   8.270  28.579   0.441
27442W        W89105   1.275  25.063  12.890
27443W        W89106  31.048  34.547  14.443
27444W        W89107  22.696   0.383   2.263
27445W        W89108  17.748  14.263  14.305
27446W        W89109   6.804  13.784   1.778
27447W        W89110  19.101  21.255   4.162
27448W        W89111  11.337   4.866   3.811
27449W        W89112   1.893  40.857  11.989
27450W        W89113   3.234  40.871   2.771
27451W        W89114  25.622  11.844   4.695
27452W        W89115  19.207   2.240  13.821
27453W        W89116   1.355  30.924  14.324
27454W        W89117  17.075  34.528  14.444
27455W        W89118  23.184  42.373   1.706
27456W        W89119  23.164  41.020  13.519
27457W        W89120  12.631  11.206   2.321
27458W        W89121  29.429  14.250   0.740
27459W        W89122  27.022  19.141  11.911
27460W        W89123  28.002  39.497  14.015
27461W        W89124  17.594  31.083  12.574
27462W        W89125  23.540  43.020   3.278
27463W        W89126  12.304  21.065  11.904
27464W        W89127  34.019  11.659  11.374
27465W        W89128   7.394  38.499  10.533
27466W        W89129  36.511  32.942  10.448
27467W        W89130  14.329  21.135   1.908
27468W        W89131  31.898  22.515   2.373
27469W        W89132  11.633  44.783   2.888
27470W        W89133  12.623  30.915  11.087
27471W        W89134  40.798  30.154  13.325
27472W        W89135   5.370  19.080   1.247
27473W        W89136   3.890  21.100  10.160
27474W        W89137  30.099  14.253  11.569
27475W        W89138  12.261   1.919   3.771
27476W        W89139  16.746  30.498  12.948
27477W        W89140  36.488   2.838   0.964
27478W        W89141  43.465  17.155   4.194
27479W        W89142  28.099   8.869  12.047
27480W        W89143  11.255  32.426  11.576
27481W        W89144  38.342  28.103  11.930
27482W        W89145  32.973   8.207  11.447
27483W        W89146  10.852  14.259   1.303
27484W        W89147  20.667  14.648  10.567
27485W        W89148  12.346  17.705  12.093
27486W        W89149  28.996   6.907   4.616
27487W        W89150  27.174  33.006  11.056
27488W        W89151  25.471  13.797   2.352
27489W        W89152   8.676  42.859   0.736
27490W        W89153  42.971  14.218  11.473
27491W        W89154  38.010  22.709  11.858
27492W        W89155  10.317  37.525  12.926
27493W        W89156  19.139   6.791   1.724
27494W        W89157  15.185  14.137   4.144
27495W        W89158  25.556  11.157  11.998
27496W        W89159   5.280  41.412  12.547
27497W        W89160  44.462   8.229   1.743
27498W        W89161  11.810  36.935   0.916
27499W        W89162   4.903  27.563   1.417
27500W        W89163  16.651  34.596  11.105
27501W        W89164  38.977  23.623  12.927
27502W        W89165  40.017   4.843  11.430
27503W        W89166  17.559  23.655   3.642
27504W        W89167  24.496  26.468  11.942
27505W        W89168  10.353   6.313  13.381
27506W        W89169  43.841   6.698   1.291
27507W        W89170  20.655  32.614  12.053
27508W        W89171  24.664  18.766   0.481
27509W        W89172  41.808  13.693  13.041
27510W        W89173  17.282  30.161   0.805
27511W        W89174  31.106  21.695  13.314
27512W        W89175  13.602  32.139  10.405
27513W        W89176  25.630  24.206  11.373
27514W        W89177   5.327  12.171  10.970
27515W        W89178  25.591  27.476  14.309
27516W        W89179   1.853  22.702  12.918
27517W        W89180  35.958  44.983   2.212
27518W        W89181  27.045  11.663   1.763
27519W        W89182  26.681   8.305   1.447
27520W        W89183  32.444  29.490  10.489
27521W        W89184   6.747  24.720  12.431
27522W        W89185  24.550  23.687   4.187
27523W        W89186  19.228  42.338  12.466
27524W        W89187   3.813  42.896  10.099
27525W        W89188  27.486  14.611  13.310
27526W        W89189  34.014  15.277  10.533
27527W        W89190  30.035  11.373  14.351
27528W        W89191  26.490  31.464  12.434
27529W        W89192  11.260   5.693   3.724
27530W        W89193  31.465  29.642  14.789
27531W        W89194  12.781  38.456   0.943
27532W        W89195  35.374  28.997   4.689
27533W        W89196  15.718  15.608   2.728
27534W        W89197   7.181   8.875  12.368
27535W        W89198  19.096  24.495  12.981
27536W        W89199  10.220   8.751   0.351
27537W        W89200  33.580  31.439  10.903
27538W        W89201   2.303  24.210  13.488
27539W        W89202  19.143  35.370  13.434
27540W        W89203  36.370   2.740   1.728
27541W        W89204   6.772  30.981  10.486
27542W        W89205  18.228  10.192   3.842
27543W        W89206  14.703  32.584  11.004
27544W        W89207  30.001   0.277   0.468
27545W        W89208  10.321  44.364  14.759
27546W        W89209  32.896  17.062   2.225
27547W        W89210   1.797   2.825   1.873
27548W        W89211   9.266  26.192   3.735
27549W        W89212  20.700  43.421  13.438
27550W        W89213  39.064  40.480  11.567
27551W        W89214  23.155  25.996  10.092
27552W        W89215   8.841   7.720   9.474
27553W        W89216  44.899  32.401  12.474
27554W        W89217  13.323  35.551  11.868
27555W        W89218  16.748  22.524  13.861
27556W        W89219  22.692  25.485  11.539
27557W        W89220  44.286  39.408  14.912
27558W        W89221  34.393  31.567  13.962
27559W        W89222  17.156  32.460   1.743
27560W        W89223  27.011  22.690  12.060
27561W        W89224   0.855   4.721  13.425
27562W        W89225   7.814  31.003   1.896
27563W        W89226  19.195  44.503  10.926
27564W        W89227  30.162  42.839   2.253
27565W        W89228   7.889   7.665  12.366
27566W        W89229  33.964  39.379  14.474
27567W        W89230  26.126  41.381  11.960
27568W        W89231  30.457  44.990  10.923
27569W        W89232   5.320  20.682  13.314
27570W        W89233  10.782   8.406   0.462
27571W        W89234  42.496   4.744  13.907
27572W        W89235   8.863   4.372   4.276
27573W        W89236  29.617   6.349  11.445
27574W        W89237   6.859  25.497   1.872
27575W        W89238   8.878  15.155   2.795
27576W        W89239  31.959  40.534  12.964
27577W        W89240  43.443  21.648   3.379
27578W        W89241  39.486   8.750  12.346
27579W        W89242  34.466  38.064  10.578
27580W        W89243  13.718  22.011   4.334
27581W        W89244  29.546  38.832   1.299
27582W        W89245  13.821  38.916   3.234
27583W        W89246  17.698  13.789  10.543
27584W        W89247  19.260  26.650   3.707
27585W        W89248  42.775  38.866   4.205
27586W        W89249   6.357  44.466  13.416
27587W        W89250  11.656  14.697  13.509
27588W        W89251  23.709  16.621   1.360
27589W        W89252  17.266   5.783  11.575
27590W        W89253  40.545  35.106  12.037
27591W        W89254  23.136  20.687   0.477
27592W        W89255  35.550  39.854   2.856
27593W        W89256  28.532  36.019  13.499
27594W        W89257   0.337  25.110  11.501
27595W        W89258  11.716   1.434   0.965
27596W        W89259   6.728  40.361  12.343
27597W        W89260  32.026  16.192   0.373
27598W        W89261  40.023  10.297  13.503
27599W        W89262  14.151  27.466   1.932
27600W        W89263  20.572  42.493   0.411
27601W        W89264  25.673   7.891  13.324
27602W        W89265  27.163  25.538  13.315
27603W        W89266  11.279  44.803   1.356
27604W        W89267  14.161   3.380  10.977
27605W        W89268   0.267  24.718   1.438
27606W        W89269  30.587   7.910   0.285
27607W        W89270  23.555  35.094  10.934
27608W        W89271   9.709  11.301   0.427
27609W        W89272   8.364  36.866  13.422
27610W        W89273  20.152  41.925  11.593
27611W        W89274  17.635  37.024   1.756
27612W        W89275  40.470   7.218   2.816
27613W        W89276   0.812   6.240   2.731
27614W        W89277   0.948  34.499   4.744
27615W        W89278   9.149  23.225  14.936
27616W        W89279   7.851  27.689   2.874
27617W        W89280  29.066  24.566  10.453
27618W        W89281  13.142  42.302  13.918
27619W        W89282  36.048   9.755  13.422
27620W        W89283  23.699  24.168   4.810
27621W        W89284  14.718   1.323  12.351
27622W        W89285  18.276  43.269   2.370
27623W        W89286  30.640   6.811   3.183
27624W        W89287  43.990  10.779   0.438
27625W        W89288   6.350   9.777  11.375
27626W        W89289  42.397  33.957  12.440
27627W        W89290  38.440  20.262   0.778
27628W        W89291  33.103  24.596  11.501
27629W        W89292   1.950  38.025   4.655
27630W        W89293  38.856   8.876  13.972
27631W        W89294  36.368  34.570   4.315
27632W        W89295  32.507   2.389  12.017
27633W        W89296   9.780  21.151  11.119
27634W        W89297   3.837  43.947   0.436
27635W        W89298  21.223  35.107  12.024
27636W        W89299  30.572  26.538  12.347
27637W        W89300  21.097  27.486  12.847
27638W        W89301   7.210  27.565   4.308
27639W        W89302  40.494   0.429   3.274
27640W        W89303  25.053   0.464  13.396
27641W        W89304  32.403  20.674  13.830
27642W        W89305  10.790  35.911   1.266
27643W        W89306  19.713  12.620   4.640
27644W        W89307  40.831  33.410   2.797
27645W        W89308  29.139  36.009   1.833
27646W        W89309  27.473  37.924  10.412
27647W        W89310  15.773   4.362  11.881
27648W        W89311  26.116  15.725   4.779
27649W        W89312   8.678   8.874  14.451
27650W        W89313  14.827  15.197  13.055
27651W        W89314  29.596   9.194  14.940
27652W        W89315  40.409  36.465  11.986
27653W        W89316  16.756  16.101  14.489
27654W        W89317  28.136   6.796   1.295
27655W        W89318  24.514  32.101   3.777
27656W        W89319  18.257  17.786  11.401
27657W        W89320  24.527  43.305  11.028
27658W        W89321  16.087  28.624   3.729
27659W        W89322  12.725  16.257  10.585
27660W        W89323  11.814  22.585   4.194
27661W        W89324  33.896  36.955   1.793
27662W        W89325  42.028  37.906   4.159
27663W        W89326  38.363   3.767   2.215
27664W        W89327  35.603  13.743   3.172
27665W        W89328   6.190  39.440  14.978
27666W        W89329   0.403   8.853   0.936
27667W        W89330  29.584  19.178   1.753
27668W        W89331  11.689  22.573   3.646
27669W        W89332  30.937  37.471   2.357
27670W        W89333  16.232  10.314  14.824
27671W        W89334  44.339  25.129   2.202
27672W        W89335   4.351  14.165  14.789
27673W        W89336  23.661  14.240   4.726
27674W        W89337  24.026  17.069   5.231
27675W        W89338   1.380   4.737   0.747
27676W        W89339  37.338  43.496  14.515
27677W        W89340  21.035  18.688  11.124
27678W        W89341  13.276  24.147   2.758
27679W        W89342   1.433  23.542  12.904
27680W        W89343   9.180   9.277   1.819
27681W        W89344  43.319  37.422   3.195
27682W        W89345  35.010  22.239  13.457
27683W        W89346  44.455  11.759   4.353
27684W        W89347  36.425  38.975  14.340
27685W        W89348  11.361  27.486   0.429
27686W        W89349  11.151  29.050   0.857
27687W        W89350  17.087   5.814   4.688
27688W        W89351  39.823  44.781   4.156
27689W        W89352   2.861   2.378   1.299
27690W        W89353  25.150  10.365   1.325
27691W        W89354  22.012  26.099  12.568
27692W        W89355  43.846   3.354   1.843
27693W        W89356   7.688  37.918  12.042
27694W        W89357  18.097  10.231  14.491
27695W        W89358   8.807  37.871  10.549
27696W        W89359  16.201  15.776   3.384
27697W        W89360  44.410  37.854  14.923
27698W        W89361  32.040   5.278  11.510
27699W        W89362  30.073  42.838  12.487
27700W        W89363   4.854  10.269   4.238
27701W        W89364  36.540  24.080   2.185
27702W        W89365  15.681  19.538   0.411
27703W        W89366  35.528  16.201  14.761
27704W        W89367  19.652  28.157   0.335
27705W        W89368  32.457   7.695   1.835
27706W        W89369  27.635  27.538   4.679
27707W        W89370  19.174  20.275  11.862
27708W        W89371  32.945  23.631  11.375
27709W        W89372  31.986   2.449   1.322
27710W        W89373   0.795  22.513  10.958
27711W        W89374  12.129   1.735  14.393
27712W        W89375  38.556   8.320   0.352
27713W        W89376  39.841  30.596  12.508
27714W        W89377  28.603  29.969   2.273
27715W        W89378  43.342  14.201  11.429
27716W        W89379  18.070  28.120  14.472
27717W        W89380  26.046  10.258   0.834
27718W        W89381  18.565   9.886   4.326
27719W        W89382   1.771   0.904  12.494
27720W        W89383   7.769  29.127  14.898
27721W        W89384  33.420  24.621   3.748
27722W        W89385  40.971  42.440   3.725
27723W        W89386  23.536   6.922  10.919
27724W        W89387  38.481  27.606   1.848
27725W        W89388  11.680  24.118  13.976
27726W        W89389   4.835   4.272  11.519
27727W        W89390   2.894   3.940  14.385
27728W        W89391   7.241  28.615   4.700
27729W        W89392  14.614  15.166  12.041
27730W        W89393   7.727  35.498   4.635
27731W        W89394  36.495  43.424   0.346
27732W        W89395  31.040  27.061  10.640
27733W        W89396  15.774  27.480   2.311
27734W        W89397  16.771  16.568  11.910
27735W        W89398  21.594  34.379   0.259
27736W        W89399  36.962  14.331   0.962
27737W        W89400  43.298  43.004   2.229
27738W        W89401  11.315  13.771  11.490
27739W        W89402  44.411  32.936   2.829
27740W        W89403  28.520  36.880   4.666
27741W        W89404  18.195  31.932   4.166
27742W        W89405  17.104  20.621  10.974
27743W        W89406   9.757   9.294  12.853
27744W        W89407  23.581  10.783   2.678
27745W        W89408   1.457  16.239  13.502
27746W        W89409  37.559  15.303  14.760
27747W        W89410  40.532  31.931   5.257
27748W        W89411   2.766  11.686  12.945
27749W        W89412  21.227  18.128   0.343
27750W        W89413   7.729  23.582   3.231
27751W        W89414   0.440  10.799   5.095
27752W        W89415  27.654  29.592  11.864
27753W        W89416  22.575  34.601  11.004
27754W        W89417  29.425  37.573   4.244
27755W        W89418  24.183  27.647   1.752
27756W        W89419   7.907  15.805  13.919
27757W        W89420  33.404  27.518   0.864
27758W        W89421  44.446  12.136   4.244
27759W        W89422  15.641   7.257   3.729
27760W        W89423   8.284  44.889  11.879
27761W        W89424  43.372  12.162   2.714
27762W        W89425  22.012  20.263  11.120
27763W        W89426  12.847  29.921  11.547
27764W        W89427  40.967   6.266   2.260
27765W        W89428  38.967  11.268   2.894
27766W        W89429  19.110  18.229   4.740
27767W        W89430  14.590   1.782   4.686
27768W        W89431  27.988  25.194   1.882
27769W        W89432   1.329  27.959  14.019
27770W        W89433  23.569  28.972   1.773
27771W        W89434   2.742  26.518   2.206
27772W        W89435   4.795  24.491   0.263
27773W        W89436  29.143   0.269   1.212
27774W        W89437  17.765  29.136  11.551
27775W        W89438  14.712  19.080   2.767
27776W        W89439   5.238  17.281  11.922
27777W        W89440  28.163  31.408   2.728
27778W        W89441   5.232  42.833   3.827
27779W        W89442  31.513  33.464  12.085
27780W        W89443  10.262  24.187  12.889
27781W        W89444  43.284   8.169  12.869
27782W        W89445  25.598  39.011   2.412
27783W        W89446  31.547   0.337  14.411
27784W        W89447  15.732  24.559   4.832
27785W        W89448  37.858  41.463  14.988
27786W        W89449  19.690   8.831  14.299
27787W        W89450  44.935  33.510   1.242
27788W        W89451  25.962  10.258  14.759
27789W        W89452  36.484   3.402   1.808
27790W        W89453  37.063  36.027  10.452
27791W        W89454  35.357  25.543  13.862
27792W        W89455  24.111   8.748  11.957
27793W        W89456  42.362   0.430   3.241
27794W        W89457  38.840   2.790   3.255
27795W        W89458  17.644  32.594   1.271
27796W        W89459  15.154  43.898   0.356
27797W        W89460  20.705  28.056   2.785
27798W        W89461  22.075   0.450   2.407
27799W        W89462  27.158   3.823   1.876
27800W        W89463  13.693  18.779   2.711
27801W        W89464   0.776  16.242   1.925
27802W        W89465  18.240  44.947   4.269
27803W        W89466  42.330  26.683   4.289
27804W        W89467  40.937  35.397   3.273
27805W        W89468  24.208  33.408  11.474
27806W        W89469  42.400  13.299   3.309
27807W        W89470   5.235  31.012   0.360
27808W        W89471  39.384  17.266   2.414
27809W        W89472  11.164   4.825  13.919
27810W        W89473  14.326  12.842   2.891
27811W        W89474  35.469  35.460   3.697
27812W        W89475  33.012  30.008  14.938
27813W        W89476   8.817   9.738   1.935
27814W        W89477  24.635  25.511  14.868
27815W        W89478  15.239   1.435  12.354
27816W        W89479   9.658  16.758   0.784
27817W        W89480   9.160  10.724  13.347
27818W        W89481  30.634   4.835  10.418
27819W        W89482  37.869  18.124  13.834
27820W        W89483  33.065  28.541   2.718
27821W        W89484  41.878   1.809  10.888
27822W        W89485  31.545  17.588  12.073
27823W        W89486   2.807  33.510   2.364
27824W        W89487  22.236  34.403   3.652
27825W        W89488  18.155  22.705   4.820
27826W        W89489   0.383  15.670   5.189
27827W        W89490  31.540   5.312   2.321
27828W        W89491  20.603  22.227  13.022
27829W        W89492   9.330  34.116  12.524
27830W        W89493  15.211   4.288   2.191
27831W        W89494  22.055  24.979  13.477
27832W        W89495  30.517   5.354  10.918
27833W        W89496  17.703  23.068   2.707
27834W        W89497  33.973  27.101  11.404
27835W        W89498  39.492   7.204   4.259
27836W        W89499  29.441  26.508   1.926
27837W        W89500  25.522   4.721   1.228
27838W        W89501  15.788  32.119   3.830
27839W        W89502  13.307  15.700  11.005
27840W        W89503  40.374  27.652   3.383
27841W        W89504  31.908  35.502   0.455
27842W        W89505   1.240   9.879  10.136
27843W        W89506  14.724  43.464  12.379
27844W        W89507  30.057  19.773  13.881
27845W        W89508  32.118  26.589  14.454
27846W        W89509  28.128  19.541  11.386
27847W        W89510   9.861   1.959   1.809
27848W        W89511  13.650  43.877  13.948
27849W        W89512  20.256  15.147  12.052
27850W        W89513   3.453  34.893  10.957
27851W        W89514  42.908  26.630   4.233
27852W        W89515  38.923   8.249  14.791
27853W        W89516  33.522  17.559   3.303
27854W        W89517   3.438  13.623  10.520
27855W        W89518   5.432  12.302   0.271
27856W        W89519   3.859  25.054   2.679
27857W        W89520  21.737  40.934  11.934
27858W        W89521  17.782  33.482  12.545
27859W        W89522  40.037  43.999  11.398
27860W        W89523  32.558   8.680   1.241
27861W        W89524   4.404  38.076   0.795
27862W        W89525  43.831  43.811   0.942
27863W        W89526   2.821   7.837   0.838
27864W        W89527  43.284  34.937   3.838
27865W        W89528  10.796   3.324   0.750
27866W        W89529  32.997  38.002  10.467
27867W        W89530  15.743  19.690   2.788
27868W        W89531  43.864  12.262   0.768
27869W        W89532  42.311  33.089  13.920
27870W        W89533  34.556  26.549  14.772
27871W        W89534  30.150  11.303   2.181
27872W        W89535  42.501  42.489  14.775
27873W        W89536  12.647  10.179   0.932
27874W        W89537  29.522  13.828   1.817
27875W        W89538  43.807   9.239   0.467
27876W        W89539   2.874  16.699   3.353
27877W        W89540  13.646  42.802  11.094
27878W        W89541  30.027  17.722  12.090
27879W        W89542  19.634  17.688  13.004
27880W        W89543  12.720  29.144  13.314
27881W        W89544  22.175   3.287   0.483
27882W        W89545  14.616  22.600  13.898
27883W        W89546  17.138  39.467  11.003
27884W        W89547  17.262  36.893   2.321
27885W        W89548  42.476  24.524  14.453
27886W        W89549  26.003  32.484  12.048
27887W        W89550  32.453  22.224   2.283
27888W        W89551  14.173   9.371   3.718
27889W        W89552  21.699  35.065   2.703
27890W        W89553  44.489  25.023  12.502
27891W        W89554  13.304  24.551  14.782
27892W        W89555   0.918   5.880   3.360
27893W        W89556  43.299  25.983  14.842
27894W        W89557  19.231  17.793  13.484
27895W        W89558  17.693  33.523   2.370
27896W        W89559   5.284  37.471  12.984
27897W        W89560  15.644  44.966  14.400
27898W        W89561  15.287  25.142  12.474
27899W        W89562  11.853  24.211   2.382
27900W        W89563  20.131  43.383  13.887
27901W        W89564  44.883   2.336   0.954
27902W        W89565  44.462   5.858  14.876
27903W        W89566   9.709  24.039   0.417
27904W        W89567  27.588  18.233   0.381
27905W        W89568   6.394   4.786   2.349
27906W        W89569   5.698  26.469  10.556
27907W        W89570  26.972  32.452  10.979
27908W        W89571   3.729  22.730  14.324
27909W        W89572   7.693   5.430  10.407
27910W        W89573  24.047   9.859  12.507
27911W        W89574  26.198  17.306  14.994
27912W        W89575  29.080  27.972  12.927
27913W        W89576  38.422  40.463  14.950
27914W        W89577  24.123  15.650  12.366
27915W        W89578  31.648  26.694   4.338
27916W        W89579  14.187  22.198   2.297
27917W        W89580   0.310  38.532   2.182
27918W        W89581  33.005  28.664  12.470
27919W        W89582  27.952  31.127  10.591
27920W        W89583  32.434  31.957   5.125
27921W        W89584  35.078  12.658   2.184
27922W        W89585   5.249  43.968  13.426
27923W        W89586  17.668  28.662  14.817
27924W        W89587  16.716  25.983   4.806
27925W        W89588   5.884  38.907  10.594
27926W        W89589  16.265   1.289  11.973
27927W        W89590  40.987  23.216  10.554
27928W        W89591  38.945   8.236  13.491
27929W        W89592  27.513   2.882  13.051
27930W        W89593  32.064  33.538   0.874
27931W        W89594   0.810  33.975   2.772
27932W        W89595   6.715   9.824  10.641
27933W        W89596  34.871  30.504  14.315
27934W        W89597  13.188  15.590  10.452
27935W        W89598  15.724  10.248  13.459
27936W        W89599  36.385   4.436  14.493
27937W        W89600  12.330  36.530   5.806
27938W        W89601  13.224  25.009   4.713
27939W        W89602  11.130  18.289  13.818
27940W        W89603  21.568  34.479   4.288
27941W        W89604  33.440  39.325  12.381
27942W        W89605   0.274  26.668  14.395
27943W        W89606  31.969   9.692  11.946
27944W        W89607  40.922   1.431  11.030
27945W        W89608  18.242  25.184  14.285
27946W        W89609  10.247   0.475  13.393
27947W        W89610  16.707  44.986   4.730
27948W        W89611  10.679  35.532  12.402
27949W        W89612  44.868  31.577  13.309
27950W        W89613  11.800  19.069   4.673
27951W        W89614  43.315  28.524  11.943
27952W        W89615   9.372   3.914   4.354
27953W        W89616   5.363  42.896   5.226
27954W        W89617  27.547  19.069  13.310
27955W        W89618  21.694  38.536   0.420
27956W        W89619   7.687  27.586   0.406
27957W        W89620   1.305   4.271  12.959
27958W        W89621  15.158  25.593   1.782
27959W        W89622   4.710  35.376   0.269
27960W        W89623   5.254  11.290   1.840
27961W        W89624   7.219   6.815   1.265
27962W        W89625  24.650  39.005  12.444
27963W        W89626  35.085  28.544  14.300
27964W        W89627  13.605  27.467   0.757
27965W        W89628  44.261  29.549   3.324
27966W        W89629  26.977   1.802   3.167
27967W        W89630  19.747  24.655   0.950
27968W        W89631  32.475  12.346  11.966
27969W        W89632  28.153  16.731   4.836
27970W        W89633  44.419  19.728   5.269
27971W        W89634  35.079  40.817  13.984
27972W        W89635  17.062  39.010  11.073
27973W        W89636   7.801   2.418  14.330
27974W        W89637   7.387  30.571  10.576
27975W        W89638   3.845   0.859  13.850
27976W        W89639   8.230  32.068   0.912
27977W        W89640   7.840  12.140  13.056
27978W        W89641  32.490  21.597   1.883
27979W        W89642  19.619  25.060  12.901
27980W        W89643   4.805   7.907   3.368
27981W        W89644  42.973  37.390   2.890
27982W        W89645  29.105  21.017   4.606
27983W        W89646  27.690  14.197   0.885
27984W        W89647   5.862  18.619   3.723
27985W        W89648  13.314   4.385  14.434
27986W        W89649  27.942  14.188   0.295
27987W        W89650   4.339  28.632  13.469
27988W        W89651  21.592  32.032   1.276
27989W        W89652  16.789  18.765   1.870
27990W        W89653  14.224  31.426   4.194
27991W        W89654  28.043  29.491   0.756
27992W        W89655  41.918  15.253   1.341
27993W        W89656  30.105  39.066   4.626
27994W        W89657   1.933  22.645  11.400
27995W        W89658  10.229  31.447   0.772
27996W        W89659  11.337   8.729  14.297
27997W        W89660  38.015   0.775   3.205
27998W        W89661  31.475  10.212  14.323
27999W        W89662   0.250  43.323   3.310
28000W        W89663  25.042  27.491   0.445
28001W        W89664  13.271  26.461  13.880
28002W        W89665   7.295  28.955   0.844
28003W        W89666  30.485   3.836   2.675
28004W        W89667  19.704   1.948   4.733
28005W        W89668  12.142  41.493  13.947
28006W        W89669  13.170  27.974  12.924
28007W        W89670   2.732   7.791  12.389
28008W        W89671  38.403  37.545  14.353
28009W        W89672  30.424  13.618   0.395
28010W        W89673  41.788  18.714  13.950
28011W        W89674  29.146  17.274   4.816
28012W        W89675  29.509  44.478   4.711
28013W        W89676  35.995  32.979  14.391
28014W        W89677   8.375  28.500  13.896
28015W        W89678  29.512  36.874  10.511
28016W        W89679  14.777   8.246   0.455
28017W        W89680   1.930  22.664   2.681
28018W        W89681  30.539  41.459  14.339
28019W        W89682  23.161  22.170   1.418
28020W        W89683  34.422   3.813  12.909
28021W        W89684  29.175  36.427   3.680
28022W        W89685  29.928  20.033   0.329
28023W        W89686  15.672  12.715  11.939
28024W        W89687  28.164   2.809  10.429
28025W        W89688  14.149  19.232  12.521
28026W        W89689  17.273  28.501  11.461
28027W        W89690  27.687  39.501   3.207
28028W        W89691  33.043   4.742  14.823
28029W        W89692  21.514  25.581   0.767
28030W        W89693  32.443   1.470  14.964
28031W        W89694  29.080  29.970   3.238
28032W        W89695  41.886   4.434  14.845
28033W        W89696  27.165  26.102   2.840
28034W        W89697   0.787  30.585  14.455
28035W        W89698  30.052  18.147  14.913
28036W        W89699  36.403   9.778  13.866
28037W        W89700   2.796  34.561   1.824
28038W        W89701   6.394  11.648   4.632
28039W        W89702  38.398  40.539  11.375
28040W        W89703  17.665  32.391   0.270
28041W        W89704  41.943  23.200  14.824
28042W        W89705   7.845   3.392  10.470
28043W        W89706  21.519  22.998   2.357
28044W        W89707   3.750  22.703   4.639
28045W        W89708   4.296  14.831  12.481
28046W        W89709  26.537  31.564  11.463
28047W        W89710   2.901  39.890   1.348
28048W        W89711   8.189   3.884  14.020
28049W        W89712  34.411  19.090   1.859
28050W        W89713  13.337  10.381  11.870
28051W        W89714  13.116  12.774   4.332
28052W        W89715  39.530   1.942  14.353
28053W        W89716  15.299  27.943  13.868
28054W        W89717   4.906  27.086  11.045
28055W        W89718  41.805  18.553  14.477
28056W        W89719   4.234  31.021  14.356
28057W        W89720  27.107  34.369  11.988
28058W        W89721  42.960   3.349   2.890
28059W        W89722  29.968   1.407   0.940
28060W        W89723   8.682  26.016   4.757
28061W        W89724  31.059  30.027  12.014
28062W        W89725   0.968  26.011  13.000
28063W        W89726  22.589  11.274   2.297
28064W        W89727  37.410   5.415   1.921
28065W        W89728  28.130  15.735   1.247
28066W        W89729  32.992  32.064   5.210
28067W        W89730  32.044  23.632  12.846
28068W        W89731   2.791   0.405  12.578
28069W        W89732  18.642  18.639   0.407
28070W        W89733  26.117  10.250   1.919
28071W        W89734   6.305  23.555   9.994
28072W        W89735   3.754  28.009   1.444
28073W        W89736  44.960  16.708   2.738
28074W        W89737  32.053   9.769  14.896
28075W        W89738  19.049   6.365   0.419
28076W        W89739  18.215  30.043   1.234
28077W        W89740  42.976  35.095   4.676
28078W        W89741  41.805  34.371  13.030
28079W        W89742  11.248  35.523   0.903
28080W        W89743  11.716  33.519   9.966
28081W        W89744  16.270  25.645   4.309
28082W        W89745   8.220  11.726   3.653
28083W        W89746  27.145  26.656   0.796
28084W        W89747  37.859  25.677   4.300
28085W        W89748  11.663  39.419  11.112
28086W        W89749   4.349  15.306  12.004
28087W        W89750   2.942   8.734  11.465
28088W        W89751  18.675   9.230   1.427
28089W        W89752   4.258  24.517  14.299
28090W        W89753  24.214  39.927   0.951
28091W        W89754   2.852  40.517   3.756
28092W        W89755  32.633  34.943   2.816
28093W        W89756  19.560   0.848   2.191
28094W        W89757   9.707  40.305   3.671
28095W        W89758  13.241  25.131  14.997
28096W        W89759  32.401  30.469  12.881
28097W        W89760   2.831  18.251   2.275
28098W        W89761   6.774  44.298  10.910
28099W        W89762  40.009  11.149   3.274
28100W        W89763  30.644  17.778  14.896
28101W        W89764   1.288  41.475  12.005
28102W        W89765  36.393  39.424   3.712
28103W        W89766   0.411  31.039  13.059
28104W        W89767  10.267  37.966   0.892
28105W        W89768   4.373  23.684  13.307
28106W        W89769  14.817   3.426  13.798
28107W        W89770  25.637  15.111  11.579
28108W        W89771   2.796  26.481  12.448
28109W        W89772  20.151  39.812  14.873
28110W        W89773  19.741  12.733  13.375
28111W        W89774  12.224  21.186  14.799
28112W        W89775   6.370  12.844  13.822
28113W        W89776  11.762  35.971   1.928
28114W        W89777  15.814  17.062   3.257
28115W        W89778  22.540  22.998   4.134
28116W        W89779  39.501  17.634  14.797
28117W        W89780  30.542  17.204   0.791
28118W        W89781   3.238  15.644  12.860
28119W        W89782  44.947  36.021   2.229
28120W        W89783  17.151  13.324   4.781
28121W        W89784  19.555  30.570   0.311
28122W        W89785  42.526   4.380  14.788
28123W        W89786  22.507  11.263   1.442
28124W        W89787   1.407  17.616   0.895
28125W        W89788  20.179  26.584  10.514
28126W        W89789  44.327  27.507  12.508
28127W        W89790  18.586   1.931   0.790
28128W        W89791  21.101  25.088  11.935
28129W        W89792  32.511  32.535  12.996
28130W        W89793  42.356  28.064   0.245
28131W        W89794  37.341  40.441   0.818
28132W        W89795   3.456   5.829  10.034
28133W        W89796   8.736  27.003   2.404
28134W        W89797  30.538   1.453   3.649
28135W        W89798  10.725   1.270  12.875
28136W        W89799  27.030   5.931  14.000
28137W        W89800  24.184   9.883  10.531
28138W        W89801   8.308  12.137  10.450
28139W        W89802   5.382  13.179  13.341
28140W        W89803  14.762   8.307   2.811
28141W        W89804   8.339  24.657  11.108
28142W        W89805  12.679  10.312  14.460
28143W        W89806   7.278  29.023  10.892
28144W        W89807   3.729   2.248   4.173
28145W        W89808  35.961   3.298  13.421
28146W        W89809   9.818   8.829  11.417
28147W        W89810   7.707   2.235   2.823
28148W        W89811  38.041  14.276   0.939
28149W        W89812  40.441  37.448  11.531
28150W        W89813  22.690  17.108  12.465
28151W        W89814   8.684  30.928  12.552
28152W        W89815  28.585  27.974   0.935
28153W        W89816  30.976  36.022  11.123
28154W        W89817  11.681  44.795   4.686
28155W        W89818   5.323  36.929   1.230
28156W        W89819  11.657  25.071   0.272
28157W        W89820   8.199   7.732   1.234
28158W        W89821  35.903  11.790   1.899
28159W        W89822  13.656  22.130   0.425
28160W        W89823  30.463   8.705   2.299
28161W        W89824  21.705  19.595   3.183
28162W        W89825  44.955  31.591  10.507
28163W        W89826  28.158  33.070  14.858
28164W        W89827  28.955  42.960   0.886
28165W        W89828  29.578  38.057   2.761
28166W        W89829  19.063   3.927   2.792
28167W        W89830  38.433  16.669   0.281
28168W        W89831  32.070  41.537  12.909
28169W        W89832  17.758   4.779  12.346
28170W        W89833  19.578   1.736  13.981
28171W        W89834  10.226  30.505  14.866
28172W        W89835  40.531  11.164   4.628
28173W        W89836   0.322  42.444   1.905
28174W        W89837  12.191  39.031  10.488
28175W        W89838  10.841  25.482  13.944
28176W        W89839  11.358  37.029  10.997
28177W        W89840  42.389  24.553   4.819
28178W        W89841  19.154  39.982   4.771
28179W        W89842  40.867  27.112  12.830
28180W        W89843  20.084  40.863   1.212
28181W        W89844  24.026   0.808  13.979
28182W        W89845  37.387  25.539   2.897
28183W        W89846  44.282  10.189   0.247
28184W        W89847  38.393  14.662   4.150
28185W        W89848  38.463  35.602  10.506
28186W        W89849  40.491  38.405   2.232
28187W        W89850   0.898  33.084   0.772
28188W        W89851   7.906  12.701   2.752
28189W        W89852  30.099  36.018   1.312
28190W        W89853  39.464   8.659  13.393
28191W        W89854  23.182  23.523   1.830
28192W        W89855   2.388  11.775   4.695
28193W        W89856  24.060  32.478   1.742
28194W        W89857  13.680  37.009   2.307
28195W        W89858  20.526  32.453   2.677
28196W        W89859  25.669  23.503   0.907
28197W        W89860  28.933  11.826  10.502
28198W        W89861  38.875  35.058  13.347
28199W        W89862  19.562  18.174  13.046
28200W        W89863  29.013  37.885  10.978
28201W        W89864   8.273  23.498  13.547
28202W        W89865  38.327  22.998   4.196
28203W        W89866  12.624  41.341  13.531
28204W        W89867  18.678  25.013   1.270
28205W        W89868  34.897  15.105  14.805
28206W        W89869   1.324  23.700   1.864
28207W        W89870  36.355  35.020   3.802
28208W        W89871  36.884  39.888  11.584
28209W        W89872  31.908  27.452  10.989
28210W        W89873   7.190  33.936  14.369
28211W        W89874  27.955  37.391  13.846
28212W        W89875  26.031  43.921   2.322
28213W        W89876   7.896   6.900   2.790
28214W        W89877  24.603  18.596  14.940
28215W        W89878  31.415  40.860  13.399
28216W        W89879  11.369  41.850  13.016
28217W        W89880   4.290  21.752  12.905
28218W        W89881   5.273  36.034  14.878
28219W        W89882  37.844  42.997  10.089
28220W        W89883  18.587  13.806   5.200
28221W        W89884  30.932  32.021   4.338
28222W        W89885  31.015  18.289  14.349
28223W        W89886   5.766  34.088   0.789
28224W        W89887  15.712  17.721  14.308
28225W        W89888  26.677  16.165  14.827
28226W        W89889  26.492  32.496  12.453
28227W        W89890  43.300  41.790  13.931
28228W        W89891  26.495   8.264   2.368
28229W        W89892   2.861  17.227   2.386
28230W        W89893  22.542   7.831  13.801
28231W        W89894   9.260  38.432  14.760
28232W        W89895   4.403   1.376  12.019
28233W        W89896  31.529   7.811   0.790
28234W        W89897  23.169  19.754   1.433
28235W        W89898  25.183  24.162   1.727
28236W        W89899  20.530  21.121  10.555
28237W        W89900  10.833  37.966  14.994
28238W        W89901  15.671  18.699  10.579
28239W        W89902  44.779   5.793   1.438
28240W        W89903  24.032  27.649   3.713
28241W        W89904   4.847  19.067   1.352
28242W        W89905  14.698  39.005  13.978
28243W        W89906   4.915   5.927   1.894
28244W        W89907   9.210  14.779  10.525
28245W        W89908  24.977  26.511  13.821
28246W        W89909  43.338  13.821  13.337
28247W        W89910  42.347  11.354  13.874
28248W        W89911   6.836  44.504   3.168
28249W        W89912  44.834   7.741  13.476
28250W        W89913  42.372  28.599  14.824
28251W        W89914  39.317   9.676   0.394
28252W        W89915  20.241  31.560   3.856
28253W        W89916  31.450   9.300   2.386
28254W        W89917  29.058  39.012  10.520
28255W        W89918  35.507  10.138   4.736
28256W        W89919  34.108  16.113   4.619
28257W        W89920  12.766  16.184   3.862
28258W        W89921   6.893   7.341   4.823
28259W        W89922   8.879  27.180  11.375
28260W        W89923  24.655  18.169   4.301
28261W        W89924   9.665   3.763   3.792
28262W        W89925  24.172  17.716   4.195
28263W        W89926  29.614   3.278  13.420
28264W        W89927  39.954  19.215  10.973
28265W        W89928  10.227  15.262  12.062
28266W        W89929   4.817  11.324   4.780
28267W        W89930  38.067   0.860   2.277
28268W        W89931   7.758   2.925  14.949
28269W        W89932   7.331  12.735   1.809
28270W        W89933  16.642  44.379  13.447
28271W        W89934   1.267  37.512  13.795
28272W        W89935  15.686  31.640  14.468
28273W        W89936  39.040   7.777   0.818
28274W        W89937  41.800  35.981  11.432
28275W        W89938  11.676   6.838  14.437
28276W        W89939  42.903   8.272  11.544
28277W        W89940  32.134  43.298  12.838
28278W        W89941  26.961  37.578   2.409
28279W        W89942   4.224  36.371   2.814
28280W        W89943   6.814  25.041   2.224
28281W        W89944  33.463  21.054   1.329
28282W        W89945  14.224   6.848   1.254
28283W        W89946  30.102  24.159   3.639
28284W        W89947  36.911  28.145   4.688
28285W        W89948  38.959  27.072  11.869
28286W        W89949  40.915  28.553   2.737
28287W        W89950  25.655  27.186   4.263
28288W        W89951  28.567  21.609  13.830
28289W        W89952  39.520  31.994   3.679
28290W        W89953  26.511  20.263   1.764
28291W        W89954  33.954  15.272   1.341
28292W        W89955  10.650   5.700   1.402
28293W        W89956   9.325   4.702   3.844
28294W        W89957   9.310  18.157  11.381
28295W        W89958  20.082   1.855   4.774
28296W        W89959  28.159  13.782  12.066
28297W        W89960   4.375  16.579   0.847
28298W        W89961  28.608  38.004   0.932
28299W        W89962   0.844  26.964   2.369
28300W        W89963   2.758  12.655  12.411
28301W        W89964  19.752  30.152   2.189
28302W        W89965  29.028  27.115  14.514
28303W        W89966  43.359  36.933  12.971
28304W        W89967  25.645   5.902   1.308
28305W        W89968  10.798  27.137  11.610
28306W        W89969  22.514  39.341  10.598
28307W        W89970   3.946   3.878   1.212
28308W        W89971  44.770   0.313  11.554
28309W        W89972  29.652  13.799  10.605
28310W        W89973  22.141  36.934  12.044
28311W        W89974   0.794  38.470  11.406
28312W        W89975   6.227  44.310  11.418
28313W        W89976  44.335  17.191  11.883
28314W        W89977  34.580  10.706   1.869
28315W        W89978   0.461   5.378   0.330
28316W        W89979   8.835  31.120   4.270
28317W        W89980  35.999  11.219   0.470
28318W        W89981   7.390   8.882   5.163
28319W        W89982   7.383   0.256  11.991
28320W        W89983   1.959  31.000  12.479
28321W        W89984   4.877   5.214  14.937
28322W        W89985  37.841  16.717   2.205
28323W        W89986  22.705   7.714  10.414
28324W        W89987   4.714  28.175   2.264
28325W        W89988  29.142   5.352   3.261
28326W        W89989   3.351  41.790  14.496
28327W        W89990  33.553  32.631  13.353
28328W        W89991   3.354  23.694  14.907
28329W        W89992   3.426   8.257  10.987
28330W        W89993  15.170  37.904  13.408
28331W        W89994  39.466   4.862   2.794
28332W        W89995  34.981   0.281  10.975
28333W        W89996  44.843  21.216   4.835
28334W        W89997  20.632  39.488   1.724
28335W        W89998  12.178  10.767  13.485
28336W        W89999  13.652  42.400   2.746
28337W        W90000  35.568  43.414   1.395
28338W        W90001  44.283  36.073  13.946
28339W        W90002  15.786  35.918  14.440
28340W        W90003  10.338  18.738   5.102
28341W        W90004  29.017  24.636   0.354
28342W        W90005  43.979  29.113   3.314
28343W        W90006   8.715  26.579   4.320
28344W        W90007   7.361  31.901   3.842
28345W        W90008  19.194  17.220   5.130
28346W        W90009  28.043  27.953  11.448
28347W        W90010  39.944  24.089   2.798
28348W        W90011  20.120  40.982  12.931
28349W        W90012  13.228   6.407  12.035
28350W        W90013  43.354  19.591   2.295
28351W        W90014   6.712  19.769   3.323
28352W        W90015  37.348   7.750  10.409
28353W        W90016  25.141  22.572   3.753
28354W        W90017  21.099  32.930  13.059
28355W        W90018  26.623   3.832  13.407
28356W        W90019  32.023  34.955   0.966
28357W        W90020   5.715  23.099  11.942
28358W        W90021  38.545  33.948  13.844
28359W        W90022  20.179  42.495  14.347
28360W        W90023  27.468  32.450   2.202
28361W        W90024  39.915  25.199   2.333
28362W        W90025  20.681   5.735  12.341
28363W        W90026  14.815  32.466   4.799
28364W        W90027  42.989  25.095  11.966
28365W        W90028  30.433  39.834  14.474
28366W        W90029  24.197  21.600  13.429
28367W        W90030  37.458  44.925  12.046
28368W        W90031  11.213   1.768  10.981
28369W        W90032  13.831  36.044  12.834
28370W        W90033  14.169   0.339  14.357
28371W        W90034  35.032  16.633  10.446
28372W        W90035   0.351   6.697   3.384
28373W        W90036  20.618  31.052  11.029
28374W        W90037  25.021  26.197   0.771
28375W        W90038  37.902  38.823   4.623
28376W        W90039  27.683  37.359  11.126
28377W        W90040  30.998  34.453  10.134
28378W        W90041   9.713  14.227  14.447
28379W        W90042  33.130  28.122  11.538
28380W        W90043  12.733  23.644   1.876
28381W        W90044  13.748  43.417  13.976
28382W        W90045  19.713   0.306  12.491
28383W        W90046  44.849  20.745  13.528
28384W        W90047   9.212  29.581  13.862
28385W        W90048  13.135   7.774   3.208
28386W        W90049  13.813   6.305  13.896
28387W        W90050  38.861  17.613  10.536
28388W        W90051  23.564  16.667  14.011
28389W        W90052   8.320   7.702  11.953
28390W        W90053   2.868   6.332   1.282
28391W        W90054  37.979  21.564  11.587
28392W        W90055   0.255  19.728  12.399
28393W        W90056  20.237   5.890   0.794
28394W        W90057  42.882  26.185   3.785
28395W        W90058  40.338  14.096   3.331
28396W        W90059  11.650  32.968   2.249
28397W        W90060  14.800  32.421   1.326
28398W        W90061  18.766  35.405  11.104
28399W        W90062  18.606  27.094  13.801
28400W        W90063  18.265  33.109   3.632
28401W        W90064  31.914  28.025   1.697
28402W        W90065  38.560  22.066  12.992
28403W        W90066  33.955  26.005   3.786
28404W        W90067   0.966  14.634   2.369
28405W        W90068  38.856   3.311   5.130
28406W        W90069  20.739  22.176   4.316
28407W        W90070  12.341   5.767  10.937
28408W        W90071  15.698  44.308   0.764
28409W        W90072  11.724  23.615   2.732
28410W        W90073   1.752  27.007  14.416
28411W        W90074  27.580   4.429   4.223
28412W        W90075  44.404  24.528   2.397
28413W        W90076  30.578   9.224   2.365
28414W        W90077   7.911  20.552   1.287
28415W        W90078  33.002   7.332   2.363
28416W        W90079   4.368  27.509   0.822
28417W        W90080  20.196  39.342   2.753
28418W        W90081  25.669  35.001   3.322
28419W        W90082   9.650  39.051   2.770
28420W        W90083  40.972   2.415   4.766
28421W        W90084  15.228  30.158   3.649
28422W        W90085  13.837  21.240   2.683
28423W        W90086  31.604  18.252   0.292
28424W        W90087  39.019  38.982  13.030
28425W        W90088  40.901  34.885  12.466
28426W        W90089   6.920  35.052   0.942
28427W        W90090  38.926  43.329  11.044
28428W        W90091  40.961  32.008   3.191
28429W        W90092  18.117  30.605   2.662
28430W        W90093  37.479   2.281  14.411
28431W        W90094  24.528  34.608   1.710
28432W        W90095   5.290  15.274   3.831
28433W        W90096  29.590  42.918   1.222
28434W        W90097   1.270  41.908  13.460
28435W        W90098  35.535  30.096   3.652
28436W        W90099  40.833   1.290  10.555
28437W        W90100  31.072  32.499  10.407
28438W        W90101  25.142  33.123   4.272
28439W        W90102  10.688  43.010   2.268
28440W        W90103   4.766  33.622  13.983
28441W        W90104  15.793  37.055  12.938
28442W        W90105  16.709  15.709   1.239
28443W        W90106  36.577   1.304   3.357
28444W        W90107   4.345  29.655  12.574
28445W        W90108  35.052  25.107   0.316
28446W        W90109  20.242  26.175  14.768
28447W        W90110  42.399  26.201   4.685
28448W        W90111  28.960   6.407  12.010
28449W        W90112  25.527  38.457  11.986
28450W        W90113   6.218  29.645  12.377
28451W        W90114  17.282  35.884   0.427
28452W        W90115  11.721  44.989  10.534
28453W        W90116  10.367  21.662   1.273
28454W        W90117  14.700  27.633   3.146
28455W        W90118  40.953  36.571   0.251
28456W        W90119  38.466  20.563   0.804
28457W        W90120  17.750  43.806  13.342
28458W        W90121  35.909  28.038   2.866
28459W        W90122   7.255  35.087  10.938
28460W        W90123  24.560  17.690   3.678
28461W        W90124  22.185   0.744  11.869
28462W        W90125   8.891   3.837  14.927
28463W        W90126  39.034  42.298  12.411
28464W        W90127  36.095  29.515  13.820
28465W        W90128  31.051  27.160  11.090
28466W        W90129   3.384   6.392  14.975
28467W        W90130  35.548  24.530   2.836
28468W        W90131  30.544  33.473  12.938
28469W        W90132  33.055  23.188   5.230
28470W        W90133   7.756  25.682  11.533
28471W        W90134   0.291  18.602  14.398
28472W        W90135  43.021  25.588   4.257
28473W        W90136  19.639  36.449   2.801
28474W        W90137  24.132  14.145  13.791
28475W        W90138  38.019  18.240  13.334
28476W        W90139  41.452  17.187   3.161
28477W        W90140  23.545  25.142   0.457
28478W        W90141  42.326  15.241   1.862
28479W        W90142  42.785  24.504   2.895
28480W        W90143  12.733  37.366   2.301
28481W        W90144  23.039   1.320  10.068
28482W        W90145  25.504   7.312  13.337
28483W        W90146  35.604  39.315  12.979
28484W        W90147  41.441  21.638  10.528
28485W        W90148  21.664  24.026  10.147
28486W        W90149   1.819  24.018   4.611
28487W        W90150   9.735  37.440   2.322
28488W        W90151  15.184  14.670  12.464
28489W        W90152  32.094  17.187   3.857
28490W        W90153   6.893  38.016   4.221
28491W        W90154  33.439  14.310  13.937
28492W        W90155  42.524  21.202   4.328
28493W        W90156  20.104   8.207   2.306
28494W        W90157  39.952  32.043   1.395
28495W        W90158  12.715  22.723  12.579
28496W        W90159   1.452  20.548   0.389
28497W        W90160  41.001  13.602   0.814
28498W        W90161  31.039  31.446   1.738
28499W        W90162  30.117  39.913   3.273
28500W        W90163  16.618  19.090  12.403
28501W        W90164  29.975  20.114   1.710
28502W        W90165   0.927  38.417  11.963
28503W        W90166  13.601  42.824  12.073
28504W        W90167  34.863  19.579   0.764
28505W        W90168  19.635  20.658   4.216
28506W        W90169  26.015  41.303   2.197
28507W        W90170   6.328   9.685  10.447
28508W        W90171   2.229  16.641   2.234
28509W        W90172  33.546   9.227   0.318
28510W        W90173  18.052  19.177  13.998
28511W        W90174  11.149  29.918   1.829
28512W        W90175  25.975  20.694  14.501
28513W        W90176  33.011  34.925   4.654
28514W        W90177  29.590  30.645   3.660
28515W        W90178  39.941  19.204  12.861
28516W        W90179  11.744  20.552  13.933
28517W        W90180  10.345  44.852  11.865
28518W        W90181  39.951  25.468  11.008
28519W        W90182  21.158  12.839  12.426
28520W        W90183  13.798  35.601  11.086
28521W        W90184  40.338  22.660   4.781
28522W        W90185   3.727  24.224   4.280
28523W        W90186  26.503  14.168  12.549
28524W        W90187  18.704  41.914  10.492
28525W        W90188   3.840   1.335   0.961
28526W        W90189  22.567  35.854   3.304
28527W        W90190  16.202   5.853   0.469
28528W        W90191   2.865  21.550  13.324
28529W        W90192  22.713   2.887  14.321
28530W        W90193   5.711  28.045  11.529
28531W        W90194  44.302  33.482  13.420
28532W        W90195  41.527  19.196  11.552
28533W        W90196  18.744  25.010  11.426
28534W        W90197  19.065  42.962   1.797
28535W        W90198  24.171  39.342  12.080
28536W        W90199   7.881  10.735   4.728
28537W        W90200  15.639  15.304  10.427
28538W        W90201  21.088  13.668  12.029
28539W        W90202   6.758  17.260  10.414
28540W        W90203  38.537  43.366   1.411
28541W        W90204  19.169  17.659   5.240
28542W        W90205  18.685  28.473   2.900
28543W        W90206  21.532  13.317  11.866
28544W        W90207  27.967  19.736   1.730
28545W        W90208  39.954  14.321   4.278
28546W        W90209   9.688  14.165   3.662
28547W        W90210  23.717  17.130   2.280
28548W        W90211   4.427   9.367  14.827
28549W        W90212  31.047  40.942   4.228
28550W        W90213  35.596  21.128   0.804
28551W        W90214  39.900  32.599  11.934
28552W        W90215  22.526   9.272  10.948
28553W        W90216  39.468   9.226  13.013
28554W        W90217  13.675   8.342  13.916
28555W        W90218  25.075   9.855  14.018
28556W        W90219  43.349  18.788   4.237
28557W        W90220  31.467   3.243   2.292
28558W        W90221  26.559   2.262  14.936
28559W        W90222  40.971   0.916  12.400
28560W        W90223  13.843  40.318  12.361
28561W        W90224  20.528  43.944   4.305
28562W        W90225  18.612  40.050   9.991
28563W        W90226  13.316  43.972  10.478
28564W        W90227  30.155  29.141   2.319
28565W        W90228   0.451   9.863  11.020
28566W        W90229  35.365  25.681  12.898
28567W        W90230  12.725  38.012  11.042
28568W        W90231  11.128  22.178  13.880
28569W        W90232  24.597   5.193   0.812
28570W        W90233   7.250   9.199   5.259
28571W        W90234   3.773  17.714   3.383
28572W        W90235  18.282  12.184  14.365
28573W        W90236  43.348  21.049   3.760
28574W        W90237  18.658  39.999  14.349
28575W        W90238   4.888  15.212  10.462
28576W        W90239   4.827  21.197   2.376
28577W        W90240  14.213  29.503   4.173
28578W        W90241  19.616  24.679  11.506
28579W        W90242  27.169  30.422   4.602
28580W        W90243  39.355  44.499  11.602
28581W        W90244  36.520  25.666  13.960
28582W        W90245  25.704   1.904  13.828
28583W        W90246  29.484  13.725  13.397
28584W        W90247   6.686  30.059   2.822
28585W        W90248  10.234  28.934   0.890
28586W        W90249  22.624   0.346   2.771
28587W        W90250  42.455  20.083   1.349
28588W        W90251  39.045   9.860   0.947
28589W        W90252   5.886  14.833   3.688
28590W        W90253  35.965  31.060   4.200
28591W        W90254  41.872  28.502  13.368
28592W        W90255   9.298  36.868   1.235
28593W        W90256  43.417  23.211  10.589
28594W        W90257  22.507  23.539   4.648
28595W        W90258  29.481  27.146   2.236
28596W        W90259  14.602  11.350   1.711
28597W        W90260  25.089  28.967   4.741
28598W        W90261  15.150  32.590  10.581
28599W        W90262  16.188  43.972  11.911
28600W        W90263  13.163  26.478   0.472
28601W        W90264  16.302  33.398  11.118
28602W        W90265  35.361  39.432   3.714
28603W        W90266  40.937  26.461   5.110
28604W        W90267   3.775  21.123  10.509
28605W        W90268  31.107  23.688  13.797
28606W        W90269   5.199  11.632  14.959
28607W        W90270  17.187  30.434  12.554
28608W        W90271  39.409  39.888   0.912
28609W        W90272  16.132  43.020  10.119
28610W        W90273  17.065  24.706  12.935
28611W        W90274  38.012  15.669  10.016
28612W        W90275   0.312  29.144  11.935
28613W        W90276  34.430  25.684   4.697
28614W        W90277  20.555  44.333  10.482
28615W        W90278  31.533  24.152  13.471
28616W        W90279  31.062  38.419  10.957
28617W        W90280  12.831   7.395  14.829
28618W        W90281  44.781  10.841  11.105
28619W        W90282  31.898  30.994  14.837
28620W        W90283  28.070  22.577  14.293
28621W        W90284   6.233  21.018  14.886
28622W        W90285  19.620  44.446   2.411
28623W        W90286  15.323  28.155   4.228
28624W        W90287  43.450   1.333  13.808
28625W        W90288   0.955  35.366  13.830
28626W        W90289  27.685  34.595   4.723
28627W        W90290  22.203  19.093   0.418
28628W        W90291   4.895  16.701  11.458
28629W        W90292  26.119  35.049  10.952
28630W        W90293  30.160  18.088  10.929
28631W        W90294  33.887  21.237   2.739
28632W        W90295   2.949  34.391   0.478
28633W        W90296   8.363   7.787   3.169
28634W        W90297  37.458  16.307   1.433
28635W        W90298   8.707  14.621  14.782
28636W        W90299  33.498  22.069  11.107
28637W        W90300  29.108  39.318  13.954
28638W        W90301  41.457   9.320   4.160
28639W        W90302  37.018  12.307   4.282
28640W        W90303  24.973  13.296  14.437
28641W        W90304   7.237  25.074   3.342
28642W        W90305  10.211  36.031  14.419
28643W        W90306   0.278  37.388  14.927
28644W        W90307  14.640  23.690  14.781
28645W        W90308  12.197  12.165   4.679
28646W        W90309   3.712  41.406   2.360
28647W        W90310  34.027   6.895  13.331
28648W        W90311  35.402   2.244  13.461
28649W        W90312  26.642  12.255   1.750
28650W        W90313   1.450  30.005   0.305
28651W        W90314  13.267  26.987  10.893
28652W        W90315  39.506  25.049   4.653
28653W        W90316  37.372   8.656   4.816
28654W        W90317  33.096  17.603  14.973
28655W        W90318  42.471  19.776  10.941
28656W        W90319  34.985   6.287  14.901
28657W        W90320  35.491  12.647   3.715
28658W        W90321   6.290  29.920  11.465
28659W        W90322  14.808  17.750   2.894
28660W        W90323   4.727   3.742  13.869
28661W        W90324  23.996  42.390   3.325
28662W        W90325  20.658   3.265  11.601
28663W        W90326  33.054  24.699  14.769
28664W        W90327  20.668   6.417   5.281
28665W        W90328   4.240  11.634   3.820
28666W        W90329  33.427  38.961   5.224
28667W        W90330  23.014  42.329   2.293
28668W        W90331  10.855  36.422   1.351
28669W        W90332  40.963   6.275   4.240
28670W        W90333   1.313  23.684  11.997
28671W        W90334  16.119  27.474  10.893
28672W        W90335  29.668  35.535   1.911
28673W        W90336  21.658  10.840   3.322
28674W        W90337  21.032  32.394   1.280
28675W        W90338  17.182  10.284  14.804
28676W        W90339  37.873  38.862   2.389
28677W        W90340  37.468  15.138   1.352
28678W        W90341  35.918  19.542   2.735
28679W        W90342   0.292  13.347   2.382
28680W        W90343  16.681   5.759   2.218
28681W        W90344  19.738  29.588   0.734
28682W        W90345  18.169  10.371  14.024
28683W        W90346  13.678  43.465  13.059
28684W        W90347  43.780  43.764   2.718
28685W        W90348  36.387  12.665  11.570
28686W        W90349  15.152   3.797  11.068
28687W        W90350  23.570  20.181   2.863
28688W        W90351   7.848  36.438   0.906
28689W        W90352  15.756  42.919   2.825
28690W        W90353  16.627  22.747  14.364
28691W        W90354  13.279  33.455  10.030
28692W        W90355  26.104  25.516  12.931
28693W        W90356  38.403  41.915   2.780
28694W        W90357  25.976  14.100   1.324
28695W        W90358  39.970   1.965  12.381
28696W        W90359  16.745   5.381   1.335
28697W        W90360  25.489  33.068   4.331
28698W        W90361  34.089  28.186   0.967
28699W        W90362  10.321   1.303  12.360
28700W        W90363  43.932  30.041   0.748
28701W        W90364  38.523   1.475  10.930
28702W        W90365  10.638  29.151   0.789
28703W        W90366  31.908  34.969  11.031
28704W        W90367  24.110   4.348   0.274
28705W        W90368  27.162  33.612   2.789
28706W        W90369  18.685  33.937  14.318
28707W        W90370  33.395  35.434   3.347
28708W        W90371  11.636  37.491  14.436
28709W        W90372   3.944  42.357  10.474
28710W        W90373   2.927  36.394   0.820
28711W        W90374  43.418  26.616  12.835
28712W        W90375   2.779  37.503  11.118
28713W        W90376   5.761   4.279  14.845
28714W        W90377   1.276  28.089   0.260
28715W        W90378   3.253   1.761  11.988
28716W        W90379   3.840  32.118  11.889
28717W        W90380   3.914   3.447  11.514
28718W        W90381   1.385  21.597   4.610
28719W        W90382  20.216  28.996   4.820
28720W        W90383   8.341  14.214  11.005
28721W        W90384  32.428  39.363  13.914
28722W        W90385  23.115  28.520   1.929
28723W        W90386  33.618   9.278  12.875
28724W        W90387  19.047  26.557  12.062
28725W        W90388   0.423   4.742  13.380
28726W        W90389   1.833  16.670  14.437
28727W        W90390   6.922  16.783   2.748
28728W        W90391   8.877  28.143   2.308
28729W        W90392   3.385  17.721   3.176
28730W        W90393  11.685   7.775   0.808
28731W        W90394   3.240  25.094   1.362
28732W        W90395   5.346  43.914   4.150
28733W        W90396   1.970  13.349   2.216
28734W        W90397  38.867  12.341   4.614
28735W        W90398  33.433  44.270  10.410
28736W        W90399  31.104   7.176   5.115
28737W        W90400  22.008  31.060   4.795
28738W        W90401  39.928  26.136  12.559
28739W        W90402  10.685  41.425   5.216
28740W        W90403   9.721  35.083  10.962
28741W        W90404   1.393  30.145  13.031
28742W        W90405  23.508  35.437   3.859
28743W        W90406  13.290  36.065  14.794
28744W        W90407  33.568  38.455  12.505
28745W        W90408  22.218  10.724  10.911
28746W        W90409  33.621  21.215   9.965
28747W        W90410  34.103  10.235   0.796
28748W        W90411  29.620  37.834  10.415
28749W        W90412  43.975  40.531  12.340
28750W        W90413   5.202  15.091   1.749
28751W        W90414  33.551  27.504  13.485
28752W        W90415  25.185  13.763   3.632
28753W        W90416  16.770  35.540   1.764
28754W        W90417  30.491  21.130   2.387
28755W        W90418  36.430  11.279   2.738
28756W        W90419  12.291  22.628  12.919
28757W        W90420  12.218  41.790  11.040
28758W        W90421  40.803  41.295  14.803
28759W        W90422  28.459   9.683  13.422
28760W        W90423  44.816  20.056  11.920
28761W        W90424   6.334  26.015   0.906
28762W        W90425  44.490  25.128  14.842
28763W        W90426  22.252   5.272   4.250
28764W        W90427   4.824  19.773   4.702
28765W        W90428  36.369  21.206  11.111
28766W        W90429   6.386  28.057   5.178
28767W        W90430   6.779  42.033  12.905
28768W        W90431  37.858  28.496   1.375
28769W        W90432  33.906   1.924   4.224
28770W        W90433   8.733   7.307   0.946
28771W        W90434  14.647  36.591  13.324
28772W        W90435  22.516  17.704   0.262
28773W        W90436  41.436  29.065  13.819
28774W        W90437  37.555  43.895  13.368
28775W        W90438  36.433  40.549   0.942
28776W        W90439  26.535  27.596   2.851
28777W        W90440  40.343  44.774  13.308
28778W        W90441  38.513   7.874  11.903
28779W        W90442  23.089  20.671  10.404
28780W        W90443  24.138  21.627   0.463
28781W        W90444  36.566  40.799   0.903
28782W        W90445  13.201  39.900   2.675
28783W        W90446   7.399  25.537   5.198
28784W        W90447   6.390  15.717  12.463
28785W        W90448  37.935  24.038  10.935
28786W        W90449  30.436  20.138  13.342
28787W        W90450  34.100  38.457  13.344
28788W        W90451   7.275  29.523   4.778
28789W        W90452  12.701  39.018   1.803
28790W        W90453  21.234  18.116   2.288
28791W        W90454  14.612   0.326   0.266
28792W        W90455  14.617  30.080   0.470
28793W        W90456  11.780  28.478   2.249
28794W        W90457  18.074  39.920  14.956
28795W        W90458   2.444   1.316   1.301
28796W        W90459  20.156  16.779   1.405
28797W        W90460  33.010  12.170   0.837
28798W        W90461  13.329  31.461   4.787
28799W        W90462   0.282  11.721  11.040
28800W        W90463  17.716  40.304  13.333
28801W        W90464  35.945  35.507  11.484
28802W        W90465  40.489  20.083  11.024
28803W        W90466  30.003  44.333   3.289
28804W        W90467   2.395   5.888   3.805
28805W        W90468   8.692   9.672   4.738
28806W        W90469  20.578  27.170  11.041
28807W        W90470  34.588  30.133   0.947
28808W        W90471  43.501  35.986  12.398
28809W        W90472  31.476  40.813   4.134
28810W        W90473   5.769  41.378  14.286
28811W        W90474  35.050  16.287  12.374
28812W        W90475  44.966  39.542   3.253
28813W        W90476  12.677  22.153  10.501
28814W        W90477  40.044  35.989   1.845
28815W        W90478  13.687   7.204   9.578
28816W        W90479  16.612  24.079   2.665
28817W        W90480  31.402  17.070  13.996
28818W        W90481  18.213  28.594  13.793
28819W        W90482  39.358  12.159  14.031
28820W        W90483  12.316  26.972   1.776
28821W        W90484   8.196  26.195  14.769
28822W        W90485  12.160  14.710  13.877
28823W        W90486  17.301  33.917   1.751
28824W        W90487  35.991  10.863  14.353
28825W        W90488  24.598  13.772   0.391
28826W        W90489  16.250  39.528   0.759
28827W        W90490  14.620  17.251  14.469
28828W        W90491  20.219   4.431   4.347
28829W        W90492  17.139  42.512   3.808
28830W        W90493  42.525   0.366   4.819
28831W        W90494  13.276   5.745  10.017
28832W        W90495  38.969  35.473   1.783
28833W        W90496  12.703  30.018  12.471
28834W        W90497  27.008   6.823   1.787
28835W        W90498  14.268  23.008  14.791
28836W        W90499   3.287  19.537  10.995
28837W        W90500  36.884   6.888  12.441
28838W        W90501  31.913  26.698  12.420
28839W        W90502   6.202  33.594  11.460
28840W        W90503  41.945  11.749   2.259
28841W        W90504  19.600  18.731  14.877
28842W        W90505  32.032   2.422   2.248
28843W        W90506  12.358  23.562  12.554
28844W        W90507  29.019  17.746  14.505
28845W        W90508   4.754  13.658   1.292
28846W        W90509  26.667  30.440   0.316
28847W        W90510  40.946  39.357   1.236
28848W        W90511  36.038  35.103  14.765
28849W        W90512  23.597  37.524  12.508
28850W        W90513  30.494   9.867   4.290
28851W        W90514  20.638  22.615   2.332
28852W        W90515  40.852  19.239   1.439
28853W        W90516  25.607   8.672   1.734
28854W        W90517  39.396  19.666  11.959
28855W        W90518  30.117  13.647   3.819
28856W        W90519  32.108  29.084  10.453
28857W        W90520  33.390   2.826  13.928
28858W        W90521  42.882  38.833  11.967
28859W        W90522   1.470  22.658  11.413
28860W        W90523  35.899  25.564   0.319
28861W        W90524  40.935  44.850   1.902
28862W        W90525  27.952  27.450   2.700
28863W        W90526  39.027  38.876  11.605
28864W        W90527  16.639  22.225  11.116
28865W        W90528  22.721  23.523  11.465
28866W        W90529  33.424  30.013   0.427
28867W        W90530  25.699   6.193   4.719
28868W        W90531  39.022  34.043  14.515
28869W        W90532  22.198  43.353   3.730
28870W        W90533  37.436  28.453   0.785
28871W        W90534   7.409  17.194  14.307
28872W        W90535  39.958   1.945  14.292
28873W        W90536  16.080  32.563   4.322
28874W        W90537  26.187   1.327   4.308
28875W        W90538   5.438  21.105  12.564
28876W        W90539  26.653  44.378  11.388
28877W        W90540  42.796  19.256  14.494
28878W        W90541  24.127   1.897   2.325
28879W        W90542  24.123   2.426  12.858
28880W        W90543  19.207  22.043  11.009
28881W        W90544  33.984  29.972  11.592
28882W        W90545  29.496  14.677  12.551
28883W        W90546  37.021  39.366  12.899
28884W        W90547  31.557  44.307  11.390
28885W        W90548  15.626   8.750   0.353
28886W        W90549  22.131  10.845   2.346
28887W        W90550  18.578  35.107   5.115
28888W        W90551  20.078   5.215   0.763
28889W        W90552  35.974   5.320  11.440
28890W        W90553  37.970  29.125   3.185
28891W        W90554  39.404  10.689  12.468
28892W        W90555  22.099  37.026   3.753
28893W        W90556  23.499   1.262   1.423
28894W        W90557  30.561  35.939  12.445
28895W        W90558  23.035  16.714  14.946
28896W        W90559   3.336  13.700  13.470
28897W        W90560  40.011  42.964   0.773
28898W        W90561  13.248  24.537  12.536
28899W        W90562  44.370  39.538  13.537
28900W        W90563  33.476  16.192   1.312
28901W        W90564  21.626  15.782   3.640
28902W        W90565  12.168   6.220  11.859
28903W        W90566   7.385  16.095  13.526
28904W        W90567  19.157  43.351  13.463
28905W        W90568  40.813  20.198  12.893
28906W        W90569  25.197  33.081   1.830
28907W        W90570  11.370  27.974   4.251
28908W        W90571  20.648  38.016  13.924
28909W        W90572  15.207  36.866   1.821
28910W        W90573  26.108  28.982   2.210
28911W        W90574   8.292  14.635  13.327
28912W        W90575  20.527  21.681   3.741
28913W        W90576  35.442  35.419   2.739
28914W        W90577   4.306  42.325  11.878
28915W        W90578  37.352   3.801   0.877
28916W        W90579  14.170  26.009  13.888
28917W        W90580   3.845  30.153   2.302
28918W        W90581   2.953  26.613  13.011
28919W        W90582  21.109  20.268  11.390
28920W        W90583  12.700  11.864  12.438
28921W        W90584   8.284  14.676   3.314
28922W        W90585  43.279   1.266   2.837
28923W        W90586  38.348  12.133   2.806
28924W        W90587  19.213   2.327   1.221
28925W        W90588  13.789  12.639  14.015
28926W        W90589  38.923  15.282  13.480
28927W        W90590  40.874  29.472  14.397
28928W        W90591  27.116  34.588   4.834
28929W        W90592   4.907   2.795   1.757
28930W        W90593  19.720  41.525  10.517
28931W        W90594  37.077  16.074  14.847
28932W        W90595  24.037  32.091   1.711
28933W        W90596  32.096  27.101   4.774
28934W        W90597   4.421  31.015   3.343
28935W        W90598   9.860  42.933   0.267
28936W        W90599  39.541  20.697  14.947
28937W        W90600   8.809  32.575   0.309
28938W        W90601  36.902  17.212  10.527
28939W        W90602  18.755  28.183   5.096
28940W        W90603  40.996  20.745   4.626
28941W        W90604  22.124  25.124   0.829
28942W        W90605  20.097  25.135  12.041
28943W        W90606  23.626  22.733   2.374
28944W        W90607  12.655   7.188  11.889
28945W        W90608  33.891  40.538  14.302
28946W        W90609  23.223  32.961  11.516
28947W        W90610  42.024  13.210   1.897
28948W        W90611   3.431  42.912  14.354
28949W        W90612  11.263  19.134  13.535
28950W        W90613  36.526  25.655   0.754
28951W        W90614  24.063  20.722   2.795
28952W        W90615  37.014  21.193  14.914
28953W        W90616  38.882  35.095   0.394
28954W        W90617  18.591  36.554   0.424
28955W        W90618  15.648   3.310  11.079
28956W        W90619  28.497   6.682   4.153
28957W        W90620  17.131  22.202  11.518
28958W        W90621  15.696  11.313   2.259
28959W        W90622  12.239  38.457  12.564
28960W        W90623   4.849   9.221   0.296
28961W        W90624  41.346  44.850  11.981
28962W        W90625  26.170   7.681   4.216
28963W        W90626  35.365  25.549   0.403
28964W        W90627  19.053  15.623   0.440
28965W        W90628  19.706  16.138   0.799
28966W        W90629   8.274  34.982  10.955
28967W        W90630   4.381  15.703  14.281
28968W        W90631  43.778  17.713   1.358
28969W        W90632  16.806  24.192  13.898
28970W        W90633  28.154  15.139   3.184
28971W        W90634  26.118  30.419   1.872
28972W        W90635  43.311  37.428  11.012
28973W        W90636   3.368   3.346   2.757
28974W        W90637  16.306  16.575   3.694
28975W        W90638  15.659  29.495   1.327
28976W        W90639  20.101  34.580  14.015
28977W        W90640  34.005  28.071  10.951
28978W        W90641  41.020   9.266  13.365
28979W        W90642  42.402   5.793   3.247
28980W        W90643   3.840  27.147   3.365
28981W        W90644   6.283  34.586   4.737
28982W        W90645  16.791  16.667   2.782
28983W        W90646   5.321  12.677   4.130
28984W        W90647   6.231   7.832   1.803
28985W        W90648  38.374   6.247  11.408
28986W        W90649   2.319  21.214  14.314
28987W        W90650   0.772  20.626   0.887
28988W        W90651  42.396  28.183  12.826
28989W        W90652  12.708   3.738  12.055
28990W        W90653  35.493  10.248   2.205
28991W        W90654  16.170  44.295   3.748
28992W        W90655  33.987  30.487  13.335
28993W        W90656  18.102  22.514   1.323
28994W        W90657   4.323  44.470   3.805
28995W        W90658   3.861  40.903  10.628
28996W        W90659  37.536  35.913  14.476
28997W        W90660  26.025   2.777  13.022
28998W        W90661  22.537  36.939  11.903
28999W        W90662  16.737  28.167   3.218
29000W        W90663  16.137   5.255  12.914
29001W        W90664   0.452  40.453   2.897
29002W        W90665   3.815  14.712  12.889
29003W        W90666  18.773  38.434  11.104
29004W        W90667  40.908  22.551   4.208
29005W        W90668  28.967  34.114  11.398
29006W        W90669   4.879  22.171   2.673
29007W        W90670  29.444   0.864   3.329
29008W        W90671  28.564  29.966   2.850
29009W        W90672   7.202  36.507   0.303
29010W        W90673  29.106   1.870  13.920
29011W        W90674  32.621  33.544   0.817
29012W        W90675  23.233   0.757   3.248
29013W        W90676   1.907  18.179  14.351
29014W        W90677  27.130  12.148   0.819
29015W        W90678   4.303  29.154   0.443
29016W        W90679  33.542  34.531  11.954
29017W        W90680  38.029  44.490   9.920
29018W        W90681  13.637  28.588   4.342
29019W        W90682  20.570  22.527  11.961
29020W        W90683  18.628  11.156  10.572
29021W        W90684  28.663  23.601   2.379
29022W        W90685  33.904  18.145   2.252
29023W        W90686  37.558  30.054   2.217
29024W        W90687  27.665  37.928  13.429
29025W        W90688  25.694  20.660   2.670
29026W        W90689  37.965  36.025   0.446
29027W        W90690  34.065   8.250   1.373
29028W        W90691  19.757  34.602   4.347
29029W        W90692  23.660   4.770   2.282
29030W        W90693  12.192  28.006   0.763
29031W        W90694  20.635  40.872  12.365
29032W        W90695  22.628   4.285  11.390
29033W        W90696   5.702  38.327   0.270
29034W        W90697  11.323   5.359  12.358
29035W        W90698  43.873  33.926  14.803
29036W        W90699  26.988  24.512  14.992
29037W        W90700  26.463  10.776  11.531
29038W        W90701   2.808   0.255  14.325
29039W        W90702   8.764   5.258   4.614
29040W        W90703  10.340  20.114   5.310
29041W        W90704  16.769   9.724   1.265
29042W        W90705  29.459  16.269   1.781
29043W        W90706   5.801  42.377   1.369
29044W        W90707   4.306   6.716  12.985
29045W        W90708   6.869   5.317  14.001
29046W        W90709  32.440   4.886  10.903
29047W        W90710   2.749  11.205  14.909
29048W        W90711  41.426  22.090  11.602
29049W        W90712  42.858   3.906  13.451
29050W        W90713  27.007   8.826  13.385
29051W        W90714  20.125   7.333   5.177
29052W        W90715   0.448   7.698  11.581
29053W        W90716   9.323   1.747  13.998
29054W        W90717  14.835   3.272  11.072
29055W        W90718   4.324  22.146   0.296
29056W        W90719  43.372   4.239   1.867
29057W        W90720   0.823  25.052  11.082
29058W        W90721  43.893  36.854   3.371
29059W        W90722   3.901  11.756  10.145
29060W        W90723   6.815  13.642  13.392
29061W        W90724  31.539  38.955  13.991
29062W        W90725  12.750  39.510  14.299
29063W        W90726  44.875  11.787   4.252
29064W        W90727  27.041  11.164  10.455
29065W        W90728   4.739   8.849  10.064
29066W        W90729  10.319  41.836  10.467
29067W        W90730  25.504  21.716   3.680
29068W        W90731  14.669  41.518   0.432
29069W        W90732  31.502   4.782   3.722
29070W        W90733  21.110  22.543   0.836
29071W        W90734   8.752  44.852   1.896
29072W        W90735  10.797   1.251   4.289
29073W        W90736  28.606  42.319  13.541
29074W        W90737   1.770  18.565  11.375
29075W        W90738  41.401   4.870  14.315
29076W        W90739  13.131  43.360  13.815
29077W        W90740  38.510  21.065  10.620
29078W        W90741  44.412  24.162   2.191
29079W        W90742   1.930  35.069   2.676
29080W        W90743  36.081  12.212  11.888
29081W        W90744  36.420  34.519  13.986
29082W        W90745  16.269  30.921  11.042
29083W        W90746   8.727  11.203   1.821
29084W        W90747  30.590   9.167   3.756
29085W        W90748  21.028   4.364  13.931
29086W        W90749  12.833  15.222  11.599
29087W        W90750   0.302  15.297   1.814
29088W        W90751  35.966  42.918  12.557
29089W        W90752  10.725  18.073  11.461
29090W        W90753   3.433  26.507   5.129
29091W        W90754   2.837  29.090   3.856
29092W        W90755  31.624  21.130   0.438
29093W        W90756  11.146  16.692  10.976
29094W        W90757  43.960   0.317  11.102
29095W        W90758  44.841  43.801   0.928
29096W        W90759  12.630  29.015  12.562
29097W        W90760  33.602  42.779  14.774
29098W        W90761  11.794  23.580  10.067
29099W        W90762   1.798  44.489   3.722
29100W        W90763  38.352  35.460   2.727
29101W        W90764  42.466  40.523  10.893
29102W        W90765  10.655  12.290   1.703
29103W        W90766  42.478  16.778   0.904
29104W        W90767  30.053  21.645  12.521
29105W        W90768  14.297  21.241   0.466
29106W        W90769  41.413   7.824  13.009
29107W        W90770  37.407  23.039  12.556
29108W        W90771  25.702  39.851  11.937
29109W        W90772   2.289  41.493  13.807
29110W        W90773   3.403  41.821  11.583
29111W        W90774  14.277   5.314  11.039
29112W        W90775   4.865   9.325  12.538
29113W        W90776  35.852  40.810   0.318
29114W        W90777  11.282  43.401   0.333
29115W        W90778   4.854  19.159   3.853
29116W        W90779  20.721   5.298   1.789
29117W        W90780  32.994  40.361   2.239
29118W        W90781  20.207  22.082   2.212
29119W        W90782  20.154  11.714   0.357
29120W        W90783  42.465  23.645  14.484
29121W        W90784  30.515  13.259  14.278
29122W        W90785  26.085  31.122  13.031
29123W        W90786   6.280  13.206   2.272
29124W        W90787  23.198  36.978   0.857
29125W        W90788   6.874  40.861   1.446
29126W        W90789  42.861  40.903   2.729
29127W        W90790  15.211  35.518   1.248
29128W        W90791  21.165  28.050   1.885
29129W        W90792  11.656  22.706  10.049
29130W        W90793  33.078  40.331  11.037
29131W        W90794  37.545  26.464  10.934
29132W        W90795  18.751   7.684   3.259
29133W        W90796   0.768  14.644   1.781
29134W        W90797  38.884  43.367   4.146
29135W        W90798  13.797  26.699   2.310
29136W        W90799   8.718   0.848  10.971
29137W        W90800  15.168  12.115   0.330
29138W        W90801  44.878  17.112  11.434
29139W        W90802   4.739  15.706  12.521
29140W        W90803  20.230  18.101  12.399
29141W        W90804  36.497  22.107   3.845
29142W        W90805  42.945  11.175  13.954
29143W        W90806  13.241  19.607   3.375
29144W        W90807  41.312  39.539  13.425
29145W        W90808  18.661  21.629   3.336
29146W        W90809  21.648  26.632   1.419
29147W        W90810   3.769  22.996  11.926
29148W        W90811  38.055  37.060   3.234
29149W        W90812  29.102  21.058  12.081
29150W        W90813  11.307  44.261  10.905
29151W        W90814   6.747  26.517   1.883
29152W        W90815  26.467  23.591  14.423
29153W        W90816  33.075  21.630   2.846
29154W        W90817  36.924  12.624  11.506
29155W        W90818  37.549  38.893  11.455
29156W        W90819  22.082   6.832   0.819
29157W        W90820  13.341   8.400  11.546
29158W        W90821  28.498  11.674   1.772
29159W        W90822  44.961   4.800   2.670
29160W        W90823  10.319  34.045  13.509
29161W        W90824   2.416   0.982  10.489
29162W        W90825  24.622  23.696   0.951
29163W        W90826  38.852  28.060  10.564
29164W        W90827  32.912  11.794  10.407
29165W        W90828  33.022   8.316  13.965
29166W        W90829  43.454  15.311  12.844
29167W        W90830  19.193  42.835   3.223
29168W        W90831   3.460  24.088   0.954
29169W        W90832  17.272  22.694   1.266
29170W        W90833  22.063  35.034   2.808
29171W        W90834  13.176  32.491   4.123
29172W        W90835  13.639  25.683  11.036
29173W        W90836   9.317   0.320   4.796
29174W        W90837   3.793   7.219  10.888
29175W        W90838  13.198  26.653  14.356
29176W        W90839  42.895   4.929   1.747
29177W        W90840  25.025  14.639   0.376
29178W        W90841  23.648  24.137  12.504
29179W        W90842  37.841  34.593   2.251
29180W        W90843   5.214   1.369  14.874
29181W        W90844  37.990  30.499  11.446
29182W        W90845  30.127  14.676   2.783
29183W        W90846   4.374  28.942   1.438
29184W        W90847  39.332  23.215   0.310
29185W        W90848   7.830  31.477  14.365
29186W        W90849  34.378  32.948   3.239
29187W        W90850  15.179  40.428  13.482
29188W        W90851  19.138   7.400   1.815
29189W        W90852  24.526  35.490   3.634
29190W        W90853   7.327  26.655  13.959
29191W        W90854   9.282  31.898   2.273
29192W        W90855  42.977  27.152   0.930
29193W        W90856  41.502  15.127   2.671
29194W        W90857  38.060  26.591  10.458
29195W        W90858  19.061  22.636  13.361
29196W        W90859   4.731  42.868   2.255
29197W        W90860  42.380  19.733   4.623
29198W        W90861   0.279   6.416   2.790
29199W        W90862  25.530  23.516   1.387
29200W        W90863  37.054   7.279   2.381
29201W        W90864  34.501  30.144   1.313
29202W        W90865  21.734  40.006   0.363
29203W        W90866  13.308  44.841   3.199
29204W        W90867  44.838  38.993   1.279
29205W        W90868   5.200  41.857   2.705
29206W        W90869   7.378  14.149  13.483
29207W        W90870  16.625   4.858   1.877
29208W        W90871   7.849  21.735   1.215
29209W        W90872  43.305   8.807  10.932
29210W        W90873  27.628  35.413   0.938
29211W        W90874  41.882  27.125   1.239
29212W        W90875  13.703  14.802   0.768
29213W        W90876  37.860  23.187  13.062
29214W        W90877  37.490  23.165   0.361
29215W        W90878  18.677  39.845  11.081
29216W        W90879  13.270  19.581  13.473
29217W        W90880  29.532  35.079  11.113
29218W        W90881  24.052  12.776   2.715
29219W        W90882  16.256  44.876   4.141
29220W        W90883  37.959  24.105   1.210
29221W        W90884   3.282  35.571  12.516
29222W        W90885  17.120  41.872  13.406
29223W        W90886   3.751  22.235  14.929
29224W        W90887  36.866   0.898   4.823
29225W        W90888   4.362   8.705   1.751
29226W        W90889  17.719  17.069   1.879
29227W        W90890  31.636  39.957  10.418
29228W        W90891  31.420  23.182  12.516
29229W        W90892  35.916   2.811   3.181
29230W        W90893  16.647  41.987   4.834
29231W        W90894  26.703  17.142  13.438
29232W        W90895   1.950   2.360   0.732
29233W        W90896  35.030  20.767   3.297
29234W        W90897  13.290  39.331   4.123
29235W        W90898  33.081   0.297  11.973
29236W        W90899  15.579   3.754   1.790
29237W        W90900  32.404  16.148  14.810
29238W        W90901   0.919  29.982   4.765
29239W        W90902   3.218  14.310   2.852
29240W        W90903  23.601  15.243  12.953
29241W        W90904  20.682  27.542  13.052
29242W        W90905  39.429   9.341  13.870
29243W        W90906  35.108  13.308  12.368
29244W        W90907  12.780   4.437  12.019
29245W        W90908  27.962  14.222   2.810
29246W        W90909  26.199  10.324  12.360
29247W        W90910   4.847   3.228  14.955
29248W        W90911  32.444  13.341   1.827
29249W        W90912  12.261  20.065  11.386
29250W        W90913  32.523  26.669   4.272
29251W        W90914  16.260  27.989  13.498
29252W        W90915  27.594   3.283   1.347
29253W        W90916  28.144  10.799   2.313
29254W        W90917  39.949  18.658  14.932
29255W        W90918  38.382   1.440   3.744
29256W        W90919  25.571  28.508   3.634
29257W        W90920  43.880   5.696   0.868
29258W        W90921   0.807   9.196   3.647
29259W        W90922   3.741  18.594   2.308
29260W        W90923  42.345  12.240  13.349
29261W        W90924  14.268  30.089  12.446
29262W        W90925  39.401  11.312  10.497
29263W        W90926  32.008  32.112  13.388
29264W        W90927  38.929  30.416  11.094
29265W        W90928  11.728  19.208  12.369
29266W        W90929   7.212  37.555  10.418
29267W        W90930  41.895  18.224  13.513
29268W        W90931  40.386  12.207   0.481
29269W        W90932  13.144  43.354  13.444
29270W        W90933   9.260  20.104   1.218
29271W        W90934  23.015  27.543   1.241
29272W        W90935  32.487  14.293   1.373
29273W        W90936  12.804   3.280   2.378
29274W        W90937   7.740   2.253  11.989
29275W        W90938  24.497  25.991   1.913
29276W        W90939  29.506   6.417   1.714
29277W        W90940  16.608  22.662   1.888
29278W        W90941  22.674  12.668   1.865
29279W        W90942   4.335  44.442   4.727
29280W        W90943  38.878  43.936   4.739
29281W        W90944  43.492  44.011   0.790
29282W        W90945   4.244   9.666  14.405
29283W        W90946  25.647  36.515   0.455
29284W        W90947  16.133  20.118   2.271
29285W        W90948  35.035  34.033   1.319
29286W        W90949  22.665  17.276  12.969
29287W        W90950  18.703  44.469  11.879
29288W        W90951   4.888  35.427  14.804
29289W        W90952  31.491  11.821  12.497
29290W        W90953  14.812  21.655   1.820
29291W        W90954  43.371   6.408  11.926
29292W        W90955  25.669  10.379   0.304
29293W        W90956  44.366  41.026   3.249
29294W        W90957   9.858  28.096  11.039
29295W        W90958  35.477  31.032  12.005
29296W        W90959  11.857  20.692   4.606
29297W        W90960  16.180  16.632   3.159
29298W        W90961  18.138  10.374  13.051
29299W        W90962   9.847  16.131  10.474
29300W        W90963  10.276   4.849   4.317
29301W        W90964  27.024  31.636  11.019
29302W        W90965  31.636  10.224   4.692
29303W        W90966  29.569  35.865   0.869
29304W        W90967  15.742  21.141   0.437
29305W        W90968  10.162  32.607  10.960
29306W        W90969  22.680  18.183   3.356
29307W        W90970  26.459  12.176   4.819
29308W        W90971  16.202  30.651  13.526
29309W        W90972  25.508  40.514  11.565
29310W        W90973  34.560   4.911   1.790
29311W        W90974  43.981  28.167   1.855
29312W        W90975  11.845  42.910   0.451
29313W        W90976  33.988  31.433   0.959
29314W        W90977  42.009  31.533  11.954
29315W        W90978  17.705  11.137  13.942
29316W        W90979  15.803   2.944   4.607
29317W        W90980  43.901   6.807  12.058
29318W        W90981  12.782  44.471   0.282
29319W        W90982  31.045  11.687   2.831
29320W        W90983  37.382  17.751  13.062
29321W        W90984  17.573  20.698  12.843
29322W        W90985   2.751  15.656   2.690
29323W        W90986  40.919  12.846  11.394
29324W        W90987  14.225  16.729  11.946
29325W        W90988  15.094  29.528  14.479
29326W        W90989  39.915   0.336  11.917
29327W        W90990   6.839  28.608   2.240
29328W        W90991  35.865  22.227  14.016
29329W        W90992  12.284  22.698  14.504
29330W        W90993  41.534   7.182  13.854
29331W        W90994  27.146  30.617  12.382
29332W        W90995  27.168  44.305  12.848
29333W        W90996  38.972  39.845  14.992
29334W        W90997  24.098  28.567   0.277
29335W        W90998  20.591  25.565   2.737
29336W        W90999  12.282  28.493  11.076
29337W        W91000  38.958  10.763   3.299
29338W        W91001  34.445  34.590   1.413
29339W        W91002   7.281  14.195   1.263
29340W        W91003  40.496  26.471  11.944
29341W        W91004  20.526   9.234   0.930
29342W        W91005  18.082  18.707  11.413
29343W        W91006  29.995   1.944  12.956
29344W        W91007  23.177  38.943   0.735
29345W        W91008  11.327  24.153   2.693
29346W        W91009  14.703  10.374  11.530
29347W        W91010  26.959   0.882   3.157
29348W        W91011  14.289  44.449  11.034
29349W        W91012  38.333   9.686   3.774
29350W        W91013  31.123  30.930  14.808
29351W        W91014  28.954  14.119  14.021
29352W        W91015  39.997  36.091  13.365
29353W        W91016  34.454  10.149   1.926
29354W        W91017  30.065  14.588   4.685
29355W        W91018  33.534  33.591  10.536
29356W        W91019   7.819   4.221   4.221
29357W        W91020  34.093  16.674   3.311
29358W        W91021  32.414  34.541   3.308
29359W        W91022  23.732   4.797   0.260
29360W        W91023  42.406  18.643  14.445
29361W        W91024  37.071  16.572   0.414
29362W        W91025  26.026  24.106  11.095
29363W        W91026  36.096   2.378  11.383
29364W        W91027  30.542  43.410  10.903
29365W        W91028  10.718  24.561   1.925
29366W        W91029   9.751  39.552   0.340
29367W        W91030  37.469   3.780   3.864
29368W        W91031  29.122  30.152  11.435
29369W        W91032  18.595  43.451   3.383
29370W        W91033   2.838  17.761   1.398
29371W        W91034  36.893  42.828   3.702
29372W        W91035   9.655  28.157   1.356
29373W        W91036  32.897  37.555  13.435
29374W        W91037   3.846  13.176  11.483
29375W        W91038  16.603  32.089  12.044
29376W        W91039  42.008  26.013   1.338
29377W        W91040  34.531  19.658   0.946
29378W        W91041  13.605  42.303   2.217
29379W        W91042  14.201  41.037  12.875
29380W        W91043   4.294  37.865   3.802
29381W        W91044  40.460   3.891   0.901
29382W        W91045  36.913  28.179  11.461
29383W        W91046  21.240  39.540  14.903
29384W        W91047  32.550  17.135   0.751
29385W        W91048  20.646  22.076   0.408
29386W        W91049   9.653  27.658   3.336
29387W        W91050   1.804  20.766  10.513
29388W        W91051  28.563  22.998   4.739
29389W        W91052  32.568  17.290   2.313
29390W        W91053  11.805  15.782   4.177
29391W        W91054  31.971  27.077   4.325
29392W        W91055  30.547  15.761   3.351
29393W        W91056  40.914  16.739   2.710
29394W        W91057  24.566  25.031   2.358
29395W        W91058  31.896  14.806  14.380
29396W        W91059  30.565  43.965  14.468
29397W        W91060  24.028  19.182  11.036
29398W        W91061   5.412  32.516   0.875
29399W        W91062   9.185   6.836  13.959
29400W        W91063   4.231  29.130  12.366
29401W        W91064  12.838  34.448  13.413
29402W        W91065  14.752  38.525  13.983
29403W        W91066   6.306  15.668  12.847
29404W        W91067  31.103  40.442   2.378
29405W        W91068  25.620  30.533  13.533
29406W        W91069   7.291   1.389  12.014
29407W        W91070  26.475  34.594   4.804
29408W        W91071  33.606  43.898  10.474
29409W        W91072  34.567  18.701  13.523
29410W        W91073  30.079   0.962   3.367
29411W        W91074  35.102  29.636   3.276
29412W        W91075  29.931   3.868   4.651
29413W        W91076  16.174  42.910   3.176
29414W        W91077   4.851  28.564  13.432
29415W        W91078  35.560   6.768   2.778
29416W        W91079   0.449  16.628   4.262
29417W        W91080  35.447  14.115  13.473
29418W        W91081  34.608  33.928  10.472
29419W        W91082  33.041  19.627   1.379
29420W        W91083  27.555  29.995   2.351
29421W        W91084  20.559  36.051  11.983
29422W        W91085  28.616   1.753   0.460
29423W        W91086  10.848   8.318  14.494
29424W        W91087  31.534  27.632   4.206
29425W        W91088  26.501   7.242   4.285
29426W        W91089  10.170  39.396   1.390
29427W        W91090   7.243  10.730  13.537
29428W        W91091  30.470  24.623  12.529
29429W        W91092  30.150  35.391  13.961
29430W        W91093  24.004  14.636   2.349
29431W        W91094  27.006  41.861  14.948
29432W        W91095   2.836  26.626   4.644
29433W        W91096  31.973  15.794  13.036
29434W        W91097   7.237  20.168   4.352
29435W        W91098   3.243   4.247   2.856
29436W        W91099  32.529  11.265  11.939
29437W        W91100  29.442   9.852   3.298
29438W        W91101  18.243  11.326   4.171
29439W        W91102   4.877   7.191  14.952
29440W        W91103  35.103  13.334   2.855
29441W        W91104  26.113   5.198   4.647
29442W        W91105  40.024   9.217   4.218
29443W        W91106  22.669  22.084   9.959
29444W        W91107  44.365  41.325   3.759
29445W        W91108   6.898  30.430   1.698
29446W        W91109  19.767  12.131   0.963
29447W        W91110  10.866  20.040   3.761
29448W        W91111   2.324  44.876  12.966
29449W        W91112  32.139  18.749  12.922
29450W        W91113   7.862  39.364   0.795
29451W        W91114  16.641  39.526  14.777
29452W        W91115  10.707  37.541  12.885
29453W        W91116   2.946  25.998  11.477
29454W        W91117  11.799  26.037   2.264
29455W        W91118   8.250   5.706   0.244
29456W        W91119  15.329  42.917  12.471
29457W        W91120   5.931  26.074  11.005
29458W        W91121  27.090   4.291   1.404
29459W        W91122  14.309  30.481   1.878
29460W        W91123  18.174  35.915   2.887
29461W        W91124  40.366   9.154  13.355
29462W        W91125  44.363  34.506   4.626
29463W        W91126  24.125  30.503  11.120
29464W        W91127  26.046  43.920  12.476
29465W        W91128  14.791   5.761   0.751
29466W        W91129  25.682  14.158   2.259
29467W        W91130  35.859  21.139   4.809
29468W        W91131  14.756  31.040  10.996
29469W        W91132  18.231  15.766   4.204
29470W        W91133   6.284  33.047   2.872
29471W        W91134  40.797  10.296   2.273
29472W        W91135  27.181  29.620  12.517
29473W        W91136  44.381  27.100   1.365
29474W        W91137  44.293  29.052  12.455
29475W        W91138   4.914  37.065   1.301
29476W        W91139  15.581  29.628  11.437
29477W        W91140  18.121  37.381  12.425
29478W        W91141  22.209  26.020  14.504
29479W        W91142   4.831   7.253   4.350
29480W        W91143  35.966  15.596   4.207
29481W        W91144  31.123   5.195  13.959
29482W        W91145  17.594  12.146   4.670
29483W        W91146  18.246  10.654  12.468
29484W        W91147   5.804  35.018   4.232
29485W        W91148  34.948  38.864   3.730
29486W        W91149  26.156  19.692  12.983
29487W        W91150  16.252  23.520   3.797
29488W        W91151   1.787  41.844  14.398
29489W        W91152  32.917  18.082  13.347
29490W        W91153  12.169  12.120  12.875
29491W        W91154   7.187   0.476  13.804
29492W        W91155   2.227  14.138   5.185
29493W        W91156   6.700  12.361   2.876
29494W        W91157  22.696  28.623  14.393
29495W        W91158  33.074   3.347   2.296
29496W        W91159  21.578  24.630   4.640
29497W        W91160   7.849   4.871   0.264
29498W        W91161  38.402  38.918   1.416
29499W        W91162  23.577  38.833   1.914
29500W        W91163  15.798  19.281   2.843
29501W        W91164  19.761  27.485   4.114
29502W        W91165  11.304  37.423   2.821
29503W        W91166  31.094   3.729   1.773
29504W        W91167  10.835  21.678   0.769
29505W        W91168  19.105   0.265   3.383
29506W        W91169  25.706  26.974   5.170
29507W        W91170  36.966   9.248   9.961
29508W        W91171  22.580   7.902  14.924
29509W        W91172   6.774  37.840   1.371
29510W        W91173  21.749   4.777   0.444
29511W        W91174  13.632  13.293   2.301
29512W        W91175  27.589  33.471   4.753
29513W        W91176  30.125  18.181   1.301
29514W        W91177  35.407  13.136  14.910
29515W        W91178  43.449  11.216  14.934
29516W        W91179  28.153  33.570  11.900
29517W        W91180  16.654  41.336   1.934
29518W        W91181  17.635  32.977  12.498
29519W        W91182  25.543  27.954  13.016
29520W        W91183   2.889  27.647   0.267
29521W        W91184  22.012   8.824   4.687
29522W        W91185  32.988   6.735   2.378
29523W        W91186   7.190  34.986  10.451
29524W        W91187  40.813   0.290  11.538
29525W        W91188   7.360  27.538  11.473
29526W        W91189  43.773  21.545   4.796
29527W        W91190  29.534  44.972  14.887
29528W        W91191  23.232  36.546  14.924
29529W        W91192   6.718  40.875   2.323
29530W        W91193  28.184  23.582   2.691
29531W        W91194  20.257  31.510  13.007
29532W        W91195  32.950  43.369   4.293
29533W        W91196  19.597   9.284   0.778
29534W        W91197  28.024  19.700  11.086
29535W        W91198  39.929  10.169  10.480
29536W        W91199  37.068  33.053   0.471
29537W        W91200  31.016   6.752   0.871
29538W        W91201   7.733   6.375   5.273
29539W        W91202  42.463  17.690  12.339
29540W        W91203  26.187  40.033   1.930
29541W        W91204   3.358  33.522  13.506
29542W        W91205  26.683  20.086   5.223
29543W        W91206  12.674  20.620   4.836
29544W        W91207   2.331  20.086  10.573
29545W        W91208  39.466  23.101   1.890
29546W        W91209  23.047  38.333  13.048
29547W        W91210  37.994  42.846   4.183
29548W        W91211   9.227   8.303   0.431
29549W        W91212  22.056  10.190   4.299
29550W        W91213  40.852  18.583  12.375
29551W        W91214  11.650  20.588  14.830
29552W        W91215  24.006  28.607   2.388
29553W        W91216  43.494  27.555   3.819
29554W        W91217   7.335  17.743   3.385
29555W        W91218  19.713   5.873   1.287
29556W        W91219  27.998  28.986   5.104
29557W        W91220   4.832  30.616  12.866
29558W        W91221  26.158   4.788  14.301
29559W        W91222  35.541  15.638   0.815
29560W        W91223  27.630  12.358  13.025
29561W        W91224  31.562  17.138   4.698
29562W        W91225  42.795  25.135  11.009
29563W        W91226  42.868   4.252   2.221
29564W        W91227  40.425  44.335   2.390
29565W        W91228  39.395  25.557  14.442
29566W        W91229  34.555   6.276  12.941
29567W        W91230  25.014  17.738  12.019
29568W        W91231  40.972  44.315  12.020
29569W        W91232  33.565  16.666   1.765
29570W        W91233  27.111   4.852   0.472
29571W        W91234   9.737  41.459   3.806
29572W        W91235  11.200  26.688  11.870
29573W        W91236  23.693  18.655  12.423
29574W        W91237  26.099  21.659  11.863
29575W        W91238   6.737  32.619  14.831
29576W        W91239   8.901  13.106   4.156
29577W        W91240  39.502  13.736   3.311
29578W        W91241  32.026   6.758   1.337
29579W        W91242  18.782  41.325   3.216
29580W        W91243  34.098   1.731  12.082
29581W        W91244  40.804  40.350  11.977
29582W        W91245  32.073   9.663  10.936
29583W        W91246  37.436  22.121   3.292
29584W        W91247  12.172  31.027  14.478
29585W        W91248  31.614  18.095   1.287
29586W        W91249  31.434   1.482  11.998
29587W        W91250   8.230  23.576   1.244
29588W        W91251  37.404   5.378  12.095
29589W        W91252  28.948   3.252   0.939
29590W        W91253  41.477  25.469   4.630
29591W        W91254  24.609  29.159   4.262
29592W        W91255   2.733  15.619   1.747
29593W        W91256   8.813  22.164   3.838
29594W        W91257   8.845   7.184   4.316
29595W        W91258  27.153  23.493   0.938
29596W        W91259  30.464  28.031   0.294
29597W        W91260  41.317  11.649  10.550
29598W        W91261  19.218   2.917  14.879
29599W        W91262  42.339  13.691  11.460
29600W        W91263  14.810  28.072  14.439
29601W        W91264  44.440  15.784   3.306
29602W        W91265  42.355  17.606   4.663
29603W        W91266  29.955  35.959  11.504
29604W        W91267  43.305   4.757   0.309
29605W        W91268  21.190  33.562   0.793
29606W        W91269  22.735  16.183  14.894
29607W        W91270  15.642  29.462   0.312
29608W        W91271   2.893  25.138  11.514
29609W        W91272   7.311  32.998   1.887
29610W        W91273   4.280  43.004  14.007
29611W        W91274  31.644  30.616   4.602
29612W        W91275  30.969  37.427  12.999
29613W        W91276  10.140   8.672   1.390
29614W        W91277  23.506  43.771  10.508
29615W        W91278  11.758   5.279  14.878
29616W        W91279  29.598  29.564  10.544
29617W        W91280  39.842  43.782   4.158
29618W        W91281  36.886   5.799  13.460
29619W        W91282  26.953  21.643  12.077
29620W        W91283  33.949  12.213  13.965
29621W        W91284   2.472   9.818  11.529
29622W        W91285  38.568  25.579   0.747
29623W        W91286  33.443   9.759  10.618
29624W        W91287  28.513  14.111   0.908
29625W        W91288  15.725  17.724   3.214
29626W        W91289  20.226  12.625   3.792
29627W        W91290  18.121   2.313   2.410
29628W        W91291  21.688  17.569  12.081
29629W        W91292   1.765  43.899  14.864
29630W        W91293  35.077   8.253   0.808
29631W        W91294   3.742  26.067   1.778
29632W        W91295  19.720   3.826   0.467
29633W        W91296  11.686  34.471  12.441
29634W        W91297  12.248  16.221  11.563
29635W        W91298   0.956  14.306   3.715
29636W        W91299  31.645   4.822  12.349
29637W        W91300   4.364  40.494  12.084
29638W        W91301  44.348  19.188   3.773
29639W        W91302  24.153  12.253   2.216
29640W        W91303  22.020  16.678   4.745
29641W        W91304  36.355   3.333  10.582
29642W        W91305   7.867  28.546  13.354
29643W        W91306  42.886  42.995  12.465
29644W        W91307  42.015   0.816   4.816
29645W        W91308  21.083   4.370   4.140
29646W        W91309   1.813  11.160  11.116
29647W        W91310  12.838  35.982  13.056
29648W        W91311   3.332  29.949   2.416
29649W        W91312  32.447  14.202  11.389
29650W        W91313   2.824  10.255   2.881
29651W        W91314   8.368  41.437   2.394
29652W        W91315  43.401  40.956  12.889
29653W        W91316  13.293   0.369   2.330
29654W        W91317  30.529   0.264   2.720
29655W        W91318  39.356  35.478  11.076
29656W        W91319  18.064   4.943   4.213
29657W        W91320  43.908  15.142  10.968
29658W        W91321  34.435  16.218  13.439
29659W        W91322  32.053  33.080   0.787
29660W        W91323  44.338  12.729   0.338
29661W        W91324  14.775  37.040  13.881
29662W        W91325  15.187  18.100   4.640
29663W        W91326  37.485  14.244   2.382
29664W        W91327  24.192  43.795   3.792
29665W        W91328   1.393  17.225   2.853
29666W        W91329  21.133  21.686  13.840
29667W        W91330  27.543   4.725   1.388
29668W        W91331  13.230   1.756  14.345
29669W        W91332  39.915  22.194   1.369
29670W        W91333   7.695  36.453   2.757
29671W        W91334  18.780  22.683   0.454
29672W        W91335  28.144  41.437  10.070
29673W        W91336  25.618  14.635  11.896
29674W        W91337  25.104  12.284  12.967
29675W        W91338   9.152   3.931   1.889
29676W        W91339   6.210  12.826   0.828
29677W        W91340  30.413  29.924  10.553
29678W        W91341   4.226  26.139  14.946
29679W        W91342  17.209  16.684   4.269
29680W        W91343  24.529  28.988  13.322
29681W        W91344  32.046  19.066   1.330
29682W        W91345  24.158  44.010  11.428
29683W        W91346  10.279   5.200  10.553
29684W        W91347  17.785  25.470  14.858
29685W        W91348   5.334  17.732  14.843
29686W        W91349  15.644  27.633  10.991
29687W        W91350  41.500  17.126   4.116
29688W        W91351  18.739  21.751  12.421
29689W        W91352  32.133  24.528  14.858
29690W        W91353  33.599  18.054   2.816
29691W        W91354  30.458  37.389  12.934
29692W        W91355  18.616   8.251   4.243
29693W        W91356  21.516  43.349   3.788
29694W        W91357   7.406   6.203  11.593
29695W        W91358  12.209  28.676   0.329
29696W        W91359  23.138   6.843  13.479
29697W        W91360  22.194  36.044   1.357
29698W        W91361  17.077  30.979   1.374
29699W        W91362  12.147   6.242   0.243
29700W        W91363  14.818  15.707   4.787
29701W        W91364   9.854  35.493   3.722
29702W        W91365  19.220   0.971   1.751
29703W        W91366   6.213  40.975  11.952
29704W        W91367  30.017  30.111  13.957
29705W        W91368  43.468  31.034  10.525
29706W        W91369  40.404  20.738  10.490
29707W        W91370  33.977   9.393  12.549
29708W        W91371   9.172  10.843  10.595
29709W        W91372   2.338  41.909   2.760
29710W        W91373  30.540   2.385   3.640
29711W        W91374  35.575  43.309  14.774
29712W        W91375  36.013   7.883   1.912
29713W        W91376   5.298   8.272   0.351
29714W        W91377  16.796  25.603   1.698
29715W        W91378  21.115  43.815   1.822
29716W        W91379   5.759  25.163  11.905
29717W        W91380   4.698  26.546   4.729
29718W        W91381  17.240  34.542   1.236
29719W        W91382  42.815  35.903   4.129
29720W        W91383  31.149  33.473   4.235
29721W        W91384  24.214  33.517   0.758
29722W        W91385  39.927  24.506  13.955
29723W        W91386   3.778  32.922   4.744
29724W        W91387  25.665  32.954   1.416
29725W        W91388  32.492  23.626   5.086
29726W        W91389  17.304  29.589   2.249
29727W        W91390  22.072  40.799   2.257
29728W        W91391  26.958   1.361  14.356
29729W        W91392   3.370  35.981  10.509
29730W        W91393  42.310  41.876  13.826
29731W        W91394   8.280   2.452  14.408
29732W        W91395  10.695  37.506   1.291
29733W        W91396   8.721  10.733   4.802
29734W        W91397  21.096  11.794  12.446
29735W        W91398   9.359  23.000   1.448
29736W        W91399  20.584   0.453   4.811
29737W        W91400  30.935  32.054   4.623
29738W        W91401   0.841  41.419   1.759
29739W        W91402  29.166  24.026  10.404
29740W        W91403   3.326  20.156  10.938
29741W        W91404   9.360  16.148  14.858
29742W        W91405  18.149   2.377   0.777
29743W        W91406   0.390  26.594   9.984
29744W        W91407  35.072  12.126  12.459
29745W        W91408  27.487  31.101  11.387
29746W        W91409  17.306  18.169  12.556
29747W        W91410  16.643  27.175  13.810
29748W        W91411  10.751  10.218  13.398
29749W        W91412  18.725  28.440   1.367
29750W        W91413  10.719   3.747  12.451
29751W        W91414  37.357  19.622   2.884
29752W        W91415  16.682  33.386   1.273
29753W        W91416  44.319  10.869  11.929
29754W        W91417  19.126  28.140  12.498
29755W        W91418  17.630  31.053  11.525
29756W        W91419   4.212  29.571   2.782
29757W        W91420  33.984  41.822   2.278
29758W        W91421   6.787  28.128  10.445
29759W        W91422   0.483  32.499  12.398
29760W        W91423  37.845  27.671   2.708
29761W        W91424  33.388  31.960   4.658
29762W        W91425   3.883   8.394  11.565
29763W        W91426  14.801   4.714   4.629
29764W        W91427   8.298  43.361  13.990
29765W        W91428  38.987  30.019  13.898
29766W        W91429  23.045  12.822  10.644
29767W        W91430  37.541  40.023   1.700
29768W        W91431  25.023  20.266  13.902
29769W        W91432   1.264  22.553   4.744
29770W        W91433  34.531  39.507   0.766
29771W        W91434  22.606   1.441   2.829
29772W        W91435  43.337  23.536  11.435
29773W        W91436   7.222   4.275  14.971
29774W        W91437  32.432  10.865  10.476
29775W        W91438   8.874  15.312  14.765
29776W        W91439  29.485  16.800   4.346
29777W        W91440  15.629  34.476  14.391
29778W        W91441   3.779  41.954  14.514
29779W        W91442   2.750  21.076  14.018
29780W        W91443  32.136  11.287   9.999
29781W        W91444  31.977   0.811  13.050
29782W        W91445   0.753  41.812  10.953
29783W        W91446  24.036  31.021   2.886
29784W        W91447  10.709  16.572  14.503
29785W        W91448  31.521   8.218   5.801
29786W        W91449  14.721  10.148   0.284
29787W        W91450  40.428  40.502  13.044
29788W        W91451  28.933  21.125   3.823
29789W        W91452  17.672   0.287  11.877
29790W        W91453   4.943  40.055  14.438
29791W        W91454   9.888  39.448  11.465
29792W        W91455  30.031   6.424   0.846
29793W        W91456   2.336  18.746   4.260
29794W        W91457  12.157  12.650  11.129
29795W        W91458  17.114  43.420   3.238
29796W        W91459  27.454  44.005   1.886
29797W        W91460  43.301  24.193  14.415
29798W        W91461  37.925   8.306  13.951
29799W        W91462  38.824   3.846   2.281
29800W        W91463  21.069  13.138  13.525
29801W        W91464   9.281  20.260  11.544
29802W        W91465  10.635   6.328  14.971
29803W        W91466  23.012  17.200  13.419
29804W        W91467  28.986  36.865   1.353
29805W        W91468  31.965  40.341  12.429
29806W        W91469  32.110  17.259  11.550
29807W        W91470  22.155  22.233   3.705
29808W        W91471  24.710  32.532  12.494
29809W        W91472  25.561  12.780   0.261
29810W        W91473  12.628  38.366   0.321
29811W        W91474   9.380  14.635  12.926
29812W        W91475  21.523   6.415  12.497
29813W        W91476  31.528  15.231  11.525
29814W        W91477  14.708   7.746  13.792
29815W        W91478  32.117  44.002  10.519
29816W        W91479   2.757  26.036  12.509
29817W        W91480  36.511  37.967   3.222
29818W        W91481  32.052  42.478   3.690
29819W        W91482  44.432  36.495   4.715
29820W        W91483  10.662   8.256  12.558
29821W        W91484  32.406  14.191  14.405
29822W        W91485  44.941  10.205  11.545
29823W        W91486  42.526  10.255  11.442
29824W        W91487  14.593  29.169   1.353
29825W        W91488  26.535  16.614  10.407
29826W        W91489   4.862  11.698  10.888
29827W        W91490   6.804  29.153   3.258
29828W        W91491  11.240  10.245  14.962
29829W        W91492   4.373  41.931  11.587
29830W        W91493   8.183  37.368  11.935
29831W        W91494   8.835  11.138  12.842
29832W        W91495  25.614   1.265  14.031
29833W        W91496  28.026   5.347   2.315
29834W        W91497  27.123  43.424   4.158
29835W        W91498  30.513  16.248   1.287
29836W        W91499  20.670  41.426  13.319
29837W        W91500  32.454  39.935   0.440
29838W        W91501  11.282  15.802   1.350
29839W        W91502  32.923  20.075   3.261
29840W        W91503   8.806  39.394   4.295
29841W        W91504  37.939  24.506   3.270
29842W        W91505   7.394   0.248  12.529
29843W        W91506  27.105  27.626  14.876
29844W        W91507   0.868  25.177   9.942
29845W        W91508  23.058  27.455   2.730
29846W        W91509  23.112   8.700   2.778
29847W        W91510  35.048  40.532   4.779
29848W        W91511  42.296  19.253   2.202
29849W        W91512  35.439  13.706  10.982
29850W        W91513  10.764  34.504   1.257
29851W        W91514  40.851  14.664   3.339
29852W        W91515  15.206  12.713   4.240
29853W        W91516  34.079  23.169  13.527
29854W        W91517  24.529  43.359  12.903
29855W        W91518  35.462  17.673  14.963
29856W        W91519  38.002  23.218  10.627
29857W        W91520  25.604  30.942   1.251
29858W        W91521  29.987  19.262  14.288
29859W        W91522  43.375   0.326   1.252
29860W        W91523  20.690  24.684   2.874
29861W        W91524  37.475  26.661   3.818
29862W        W91525  21.641  38.363   2.226
29863W        W91526  20.755  33.071   2.237
29864W        W91527  21.710  43.336   2.677
29865W        W91528  27.047  38.335   2.704
29866W        W91529  31.987  23.031  14.951
29867W        W91530  30.970  27.475   0.816
29868W        W91531  32.952   4.352  12.562
29869W        W91532  11.622  30.009  11.569
29870W        W91533   4.909  40.476  10.905
29871W        W91534   7.353  30.127   1.735
29872W        W91535  44.870  29.164  13.061
29873W        W91536  20.204  41.363  14.482
29874W        W91537   0.343  43.366  10.545
29875W        W91538   4.226   8.328  13.898
29876W        W91539   0.426  23.679   3.729
29877W        W91540  43.374  22.145  10.440
29878W        W91541  31.916  21.166  12.417
29879W        W91542  25.685   4.841   0.358
29880W        W91543  23.704  44.967   2.852
29881W        W91544  16.175  41.878   3.203
29882W        W91545  44.888  16.093  14.402
29883W        W91546  22.543  37.899  13.464
29884W        W91547  44.397   4.344  12.982
29885W        W91548  22.584   4.352   5.144
29886W        W91549  38.452  25.476  14.827
29887W        W91550  27.476  34.512  14.929
29888W        W91551  39.823  24.574  12.956
29889W        W91552  23.030  21.710  14.374
29890W        W91553  23.734  27.512  14.316
29891W        W91554  22.191  14.819  11.430
29892W        W91555  43.513  20.650  11.040
29893W        W91556  31.038  24.542  13.416
29894W        W91557  30.078   8.766  11.859
29895W        W91558  18.204   8.338   2.721
29896W        W91559  20.087   2.940  13.383
29897W        W91560  32.440  27.947   4.345
29898W        W91561  35.591  17.625  10.949
29899W        W91562  11.356  32.637  12.558
29900W        W91563  16.244   6.235  10.462
29901W        W91564  42.799  15.678  12.391
29902W        W91565  12.661  18.273  11.459
29903W        W91566  12.838   4.298   1.703
29904W        W91567  22.649  19.657   4.334
29905W        W91568  25.490  28.674   5.594
29906W        W91569  19.545   3.319  14.976
29907W        W91570   6.260  31.505  13.037
29908W        W91571  44.974  41.467   1.875
29909W        W91572   9.197  41.371  14.802
29910W        W91573   2.274  14.197  10.108
29911W        W91574  19.605  15.583   1.822
29912W        W91575  40.031   4.347  10.483
29913W        W91576  35.600  40.374   3.664
29914W        W91577   2.750   2.749  12.391
29915W        W91578   1.449  27.585  14.985
29916W        W91579  28.463  44.840   0.925
29917W        W91580  16.286  40.954   1.740
29918W        W91581  27.516  20.542  10.476
29919W        W91582  41.362  12.656  14.355
29920W        W91583  32.045  13.770  13.407
29921W        W91584   3.228   8.749   1.934
29922W        W91585  40.503  33.907  14.362
29923W        W91586  30.132  12.618  13.933
29924W        W91587   6.861  30.485  13.992
29925W        W91588  20.559  15.614  13.988
29926W        W91589   9.334   5.874  11.856
29927W        W91590   1.842  10.341  13.046
29928W        W91591  27.606   0.853   3.206
29929W        W91592  13.319  12.160  13.362
29930W        W91593  10.277   6.271  11.408
29931W        W91594  41.458  12.272  14.510
29932W        W91595   9.805  42.387   4.611
29933W        W91596  10.636  34.933  10.529
29934W        W91597  44.790   9.816   1.712
29935W        W91598  21.632  26.560   4.663
29936W        W91599  13.825  11.820  14.804
29937W        W91600  10.803   3.413  12.859
29938W        W91601  21.744   4.369   1.451
29939W        W91602  17.133  17.122  12.008
29940W        W91603  17.574  32.139  14.991
29941W        W91604  42.393  18.686  11.594
29942W        W91605  10.277  35.075   3.252
29943W        W91606  16.088  44.874   2.777
29944W        W91607  37.931   3.908   2.383
29945W        W91608  26.160  10.229  11.458
29946W        W91609  30.481   7.832   3.786
29947W        W91610  42.369  25.601   3.680
29948W        W91611   9.711  17.072  12.937
29949W        W91612  25.606  21.578   0.832
29950W        W91613  11.655  14.127  10.918
29951W        W91614  17.726  13.291  14.429
29952W        W91615   3.905   3.452  13.338
29953W        W91616  22.049  30.048  11.392
29954W        W91617  22.210  38.912  14.789
29955W        W91618  10.150  20.760  13.909
29956W        W91619   2.287  43.978  12.384
29957W        W91620   6.706   5.927  11.897
29958W        W91621  41.303  34.401  13.870
29959W        W91622  15.118  18.634   3.733
29960W        W91623  33.401  14.702   4.827
29961W        W91624  32.537  13.262  11.103
29962W        W91625  30.544  32.915  14.458
29963W        W91626  43.853  30.446  13.923
29964W        W91627  39.472  29.442  12.370
29965W        W91628   2.879   0.926   2.230
29966W        W91629  25.189  12.851   1.924
29967W        W91630  26.195   6.375   0.366
29968W        W91631  20.156  21.597   4.707
29969W        W91632   1.314  43.868   3.157
29970W        W91633  24.560   2.337  11.061
29971W        W91634  29.628   9.727   4.300
29972W        W91635  26.502  24.602   2.365
29973W        W91636  16.794   5.198  13.403
29974W        W91637  15.617   1.378  13.046
29975W        W91638  14.768  23.210  11.538
29976W        W91639  10.315  13.140   1.343
29977W        W91640  27.560  33.386  13.976
29978W        W91641   9.743  37.535  10.135
29979W        W91642  22.528   1.939   9.645
29980W        W91643  27.138  28.125   0.771
29981W        W91644  32.487  12.712   4.347
29982W        W91645  26.686  17.730   2.342
29983W        W91646  25.516  33.959  13.539
29984W        W91647  40.845   6.238   0.849
29985W        W91648  24.638   5.760   4.116
29986W        W91649  37.891   1.957  14.762
29987W        W91650  30.620  33.910  10.992
29988W        W91651  36.449  27.503   4.621
29989W        W91652   4.735  43.769  12.522
29990W        W91653  40.992   3.887   3.642
29991W        W91654  10.264  27.492  11.413
29992W        W91655   1.254  37.021   2.279
29993W        W91656  21.629  37.451   2.676
29994W        W91657  43.355  40.352  12.022
29995W        W91658   1.283  38.350   2.665
29996W        W91659  13.835  27.462   2.722
29997W        W91660   3.862  35.989   5.206
29998W        W91661  10.722  23.124   0.894
29999W        W91662  14.832   5.868  14.779
30000W        W91663  26.090  20.043  12.016
30001W        W91664  29.929  23.501   4.725
30002W        W91665  43.939  18.261   0.395
30003W        W91666  15.642  29.444  13.478
30004W        W91667   1.776   2.440  11.934
30005W        W91668   9.723  12.855  10.623
30006W        W91669  33.960  13.644  12.357
30007W        W91670  20.050  13.152  14.511
30008W        W91671  12.211  39.554   1.909
30009W        W91672  38.503  28.626  10.524
30010W        W91673  18.053   5.200  14.851
30011W        W91674  31.045  43.011   1.447
30012W        W91675  18.791   3.922  14.283
30013W        W91676  16.778  42.444   0.340
30014W        W91677  29.125  11.625  12.530
30015W        W91678  32.420  31.143   2.836
30016W        W91679  29.564  40.485   4.288
30017W        W91680  31.968  16.104   1.389
30018W        W91681  27.459   5.813   1.767
30019W        W91682   5.198  27.967   1.221
30020W        W91683  10.200   5.814  12.971
30021W        W91684  16.169  23.691  10.910
30022W        W91685  37.415  19.091  12.857
30023W        W91686  15.612  34.903   4.777
30024W        W91687  27.625   9.782   2.779
30025W        W91688  35.027  33.008   4.120
30026W        W91689   8.683  32.500   2.208
30027W        W91690  38.947  18.066   5.159
30028W        W91691  16.241  17.738   3.655
30029W        W91692  40.397  19.220   4.786
30030W        W91693  24.065  20.214  12.499
30031W        W91694   0.941   1.241  11.483
30032W        W91695  27.646   2.306   1.255
30033W        W91696  32.982  44.465   1.441
30034W        W91697  13.675  21.512  10.511
30035W        W91698   2.907  25.152   1.404
30036W        W91699  37.958  25.071  13.888
30037W        W91700   8.667  26.182  13.985
30038W        W91701  28.443  20.098   3.307
30039W        W91702  27.570  19.587  12.875
30040W        W91703  28.675  13.715  13.817
30041W        W91704  31.485  33.120  13.973
30042W        W91705  43.808  18.640   2.371
30043W        W91706  22.230  33.925  13.934
30044W        W91707  31.510   9.758   4.146
30045W        W91708   0.866  20.190  12.470
30046W        W91709  34.056  35.921   4.287
30047W        W91710  29.172  33.084   0.480
30048W        W91711   0.439  27.994  13.944
30049W        W91712  20.700   2.894  11.107
30050W        W91713  13.299  23.651  13.446
30051W        W91714  43.988   2.898   3.207
30052W        W91715  20.131  23.513   0.298
30053W        W91716  11.771  31.899  11.579
30054W        W91717   5.409  12.672  11.049
30055W        W91718  35.034  34.426  10.087
30056W        W91719   8.858  32.106   4.687
30057W        W91720  32.587  28.162  11.380
30058W        W91721   2.838  37.390   3.324
30059W        W91722  37.876  21.222   1.374
30060W        W91723  39.348  12.632   0.823
30061W        W91724   2.909   0.746   4.620
30062W        W91725  21.179  30.154   3.757
30063W        W91726  23.594   9.655  11.060
30064W        W91727  40.470   4.891   1.826
30065W        W91728  17.094  28.492  14.005
30066W        W91729   1.779  10.841   1.765
30067W        W91730  42.928  42.780  10.933
30068W        W91731   7.896   7.301   3.303
30069W        W91732  43.963   0.324   2.795
30070W        W91733  37.849  32.058  10.544
30071W        W91734   5.346  28.056   4.228
30072W        W91735  36.531  37.517   1.293
30073W        W91736  10.839  21.092   3.862
30074W        W91737  18.736  18.585  13.501
30075W        W91738  34.991  26.459   0.836
30076W        W91739  17.580  33.130   0.273
30077W        W91740  40.807   6.207  11.039
30078W        W91741  20.686   9.661  14.926
30079W        W91742  42.778  22.541  11.562
30080W        W91743  10.862  25.530  13.043
30081W        W91744  25.115   4.865   4.656
30082W        W91745  10.296  28.485  10.969
30083W        W91746  39.357  36.037  11.502
30084W        W91747  21.216   2.409  13.492
30085W        W91748  16.100  41.028  13.325
30086W        W91749  24.608  35.929   3.222
30087W        W91750  36.363   6.212   0.832
30088W        W91751   3.272  31.485  12.843
30089W        W91752   9.216  12.819   1.748
30090W        W91753  11.132  29.964   3.784
30091W        W91754  34.955  15.766  14.337
30092W        W91755  22.076  20.750   0.288
30093W        W91756  39.011  40.024  11.005
30094W        W91757  15.278   9.675  13.022
30095W        W91758  13.805   3.944   1.788
30096W        W91759   8.804  18.587  12.051
30097W        W91760  18.066   8.391  14.997
30098W        W91761  24.622  15.215  11.033
30099W        W91762  36.352  27.994   3.772
30100W        W91763  15.772   0.291   1.411
30101W        W91764  13.236  32.022  13.044
30102W        W91765  36.051  38.916  13.546
30103W        W91766   4.210  38.415  14.980
30104W        W91767  28.481  29.452   1.712
30105W        W91768   9.827  17.700  12.901
30106W        W91769   5.268  11.168  10.574
30107W        W91770   9.256  21.242  12.008
30108W        W91771  16.740  28.508  14.908
30109W        W91772  12.142  44.955   0.432
30110W        W91773  32.551  25.520   2.686
30111W        W91774  36.885  17.678   1.377
30112W        W91775  31.456  34.056  13.362
30113W        W91776  11.739   4.902   2.793
30114W        W91777  22.166  12.756   0.952
30115W        W91778  35.020  24.536  10.450
30116W        W91779  36.953  18.170   4.202
30117W        W91780  33.007  16.569  10.520
30118W        W91781  31.102  41.309   1.832
30119W        W91782  29.575  18.711   0.735
30120W        W91783  12.634  29.556  12.572
30121W        W91784  36.038  40.427  11.397
30122W        W91785  33.000  22.746  11.552
30123W        W91786  44.264  33.076   1.237
30124W        W91787  42.018  21.692  11.470
30125W        W91788  41.398   1.340   1.210
30126W        W91789  15.814   6.301   2.282
30127W        W91790   8.226   3.413   1.787
30128W        W91791   4.739  19.729  14.440
30129W        W91792  28.479  27.588  13.937
30130W        W91793  43.454   8.660   1.294
30131W        W91794   3.771   4.400   3.188
30132W        W91795  19.084  30.942   2.388
30133W        W91796  36.867  22.220  14.315
30134W        W91797   5.753   1.343  14.021
30135W        W91798  44.849  29.918  14.826
30136W        W91799  27.626  16.752   0.884
30137W        W91800   3.943  35.950   4.794
30138W        W91801  30.100  40.491   9.995
30139W        W91802  30.636   6.402   4.816
30140W        W91803  24.480  42.416   0.442
30141W        W91804  10.713  37.057   4.767
30142W        W91805  20.061  12.676   9.936
30143W        W91806  13.200  33.902  13.041
30144W        W91807  20.722  22.637  14.769
30145W        W91808  24.162  41.305   0.867
30146W        W91809  13.838  34.614   0.904
30147W        W91810  37.845  38.901  10.564
30148W        W91811  37.855  35.966   4.330
30149W        W91812  18.193  39.952   3.225
30150W        W91813  31.024  12.322  14.295
30151W        W91814  15.236   3.837   1.240
30152W        W91815  29.666  29.066  14.010
30153W        W91816  30.625   0.250   1.831
30154W        W91817  33.109  32.987  11.078
30155W        W91818  33.620  10.810  10.555
30156W        W91819   9.861  22.607  10.537
30157W        W91820   6.763  33.513  14.971
30158W        W91821   9.773  40.803   2.749
30159W        W91822  41.318  40.023   4.710
30160W        W91823   5.806  10.367  14.306
30161W        W91824  44.862   8.781   1.228
30162W        W91825   7.889  38.541  14.977
30163W        W91826  20.175  31.532  10.610
30164W        W91827  22.520  11.247   4.276
30165W        W91828  41.987  39.331   1.274
30166W        W91829  23.554  26.596  12.405
30167W        W91830  26.165  16.794  10.541
30168W        W91831  44.437   9.650   1.432
30169W        W91832  39.895   6.705  12.851
30170W        W91833  17.275  18.103  13.456
30171W        W91834  11.289  14.186  14.338
30172W        W91835  19.656   4.733   5.136
30173W        W91836   1.397   7.248   1.444
30174W        W91837  15.630  16.265   4.155
30175W        W91838  20.608   8.376  14.885
30176W        W91839  13.334  29.100  10.921
30177W        W91840  22.132  30.908  13.925
30178W        W91841   6.681  18.619  12.926
30179W        W91842  32.541   9.809   0.430
30180W        W91843  11.246  44.319   3.349
30181W        W91844  19.578  23.198   4.658
30182W        W91845   6.773  12.197   0.366
30183W        W91846   5.787   0.893   0.410
30184W        W91847  32.072  36.957   1.781
30185W        W91848  10.139  28.034   4.346
30186W        W91849  27.629  17.089  12.413
30187W        W91850  30.999  21.513  12.940
30188W        W91851  30.554   0.913   2.277
30189W        W91852   9.235  19.109   4.688
30190W        W91853  21.060   3.852   1.391
30191W        W91854   6.873  21.701   3.374
30192W        W91855  12.284  35.988  10.547
30193W        W91856  17.263  38.824   3.775
30194W        W91857  23.102  40.417   3.248
30195W        W91858  42.919  24.642  14.004
30196W        W91859  34.900   6.353  13.456
30197W        W91860  43.514  28.107  12.404
30198W        W91861  25.701  14.754  11.008
30199W        W91862  33.482  28.521   9.965
30200W        W91863  35.921  20.264   0.827
30201W        W91864  13.301  20.722  10.407
30202W        W91865   5.333  31.951  13.511
30203W        W91866  13.817   0.761  14.786
30204W        W91867   6.314  36.878  14.488
30205W        W91868  20.725   8.211  10.506
30206W        W91869   0.258   0.941   1.227
30207W        W91870   0.350  39.472   1.816
30208W        W91871   6.303  36.024   4.614
30209W        W91872  38.008  32.537   4.345
30210W        W91873   5.201   1.862   1.783
30211W        W91874  24.643  23.153   2.409
30212W        W91875  12.762  42.015  12.017
30213W        W91876  37.394  33.480  10.939
30214W        W91877  27.019  36.082   0.769
30215W        W91878  19.552  40.525   2.338
30216W        W91879  21.236  31.615   3.751
30217W        W91880  19.690  31.096   0.733
30218W        W91881  13.265   7.372  11.928
30219W        W91882  27.546  16.265   0.267
30220W        W91883  26.952  19.747  12.008
30221W        W91884   4.213  13.793  12.886
30222W        W91885  25.663   9.163  14.943
30223W        W91886  33.555  43.994   3.821
30224W        W91887   6.693  14.260  13.433
30225W        W91888  24.609  18.245   3.857
30226W        W91889  11.824  30.526   3.780
30227W        W91890  18.070  36.474   1.733
30228W        W91891   3.767  19.186  14.282
30229W        W91892  22.213  14.204   2.718
30230W        W91893  14.802   6.894  12.084
30231W        W91894  32.481  27.139  13.355
30232W        W91895  20.113  14.650  11.050
30233W        W91896  34.012  26.125   0.948
30234W        W91897  11.686  39.961  12.839
30235W        W91898  37.371  39.924  10.437
30236W        W91899  11.334  33.396   3.864
30237W        W91900  35.882  10.311   0.246
30238W        W91901  34.601  37.841  11.994
30239W        W91902  26.623  29.014  14.317
30240W        W91903  23.542  42.993   0.278
30241W        W91904  30.554  35.892   1.884
30242W        W91905   8.327  26.186  11.429
30243W        W91906  42.878   1.424   2.335
30244W        W91907   1.935  18.577   0.887
30245W        W91908  40.329  32.093  12.087
30246W        W91909  32.922   7.903  10.931
30247W        W91910  22.579  17.801   4.776
30248W        W91911  43.811  35.938  14.942
30249W        W91912   0.347  42.386  13.844
30250W        W91913   9.723  16.623  14.013
30251W        W91914   8.403  31.014  13.463
30252W        W91915  38.864  13.644   3.268
30253W        W91916  41.932  11.341   2.746
30254W        W91917  33.086  37.067  12.396
30255W        W91918  43.955  24.520  13.495
30256W        W91919  42.932   2.423  13.913
30257W        W91920   5.343  22.072   0.832
30258W        W91921  11.139  37.395  12.361
30259W        W91922  19.614  35.965   4.762
30260W        W91923  41.006  38.866   1.260
30261W        W91924  10.688  12.264   4.834
30262W        W91925  29.021  41.317  14.336
30263W        W91926  12.848   9.775   2.379
30264W        W91927  25.591   4.726   4.622
30265W        W91928  10.191  22.665  11.400
30266W        W91929  34.069   9.169   1.284
30267W        W91930   6.894  41.451  12.858
30268W        W91931  37.521  12.692  11.454
30269W        W91932  17.587   0.387   2.780
30270W        W91933  12.651  14.806  10.461
30271W        W91934  28.491  34.469  11.983
30272W        W91935  25.489   1.439  10.410
30273W        W91936  40.517  20.228  11.951
30274W        W91937  42.810   6.748   4.719
30275W        W91938  15.205  28.994  12.427
30276W        W91939  36.383  19.758  13.401
30277W        W91940  21.252  25.705  11.534
30278W        W91941  28.132  42.399  13.032
30279W        W91942  11.669   1.929   3.176
30280W        W91943  36.563  40.975  12.364
30281W        W91944  13.210  34.099  12.031
30282W        W91945   4.241   3.939  13.482
30283W        W91946  38.896  27.481  10.123
30284W        W91947  21.661  44.982  14.418
30285W        W91948  27.574  37.975   2.758
30286W        W91949   8.284  15.305   3.779
30287W        W91950  26.083   5.902  11.857
30288W        W91951  38.487  14.189  13.859
30289W        W91952  11.647  38.555  13.434
30290W        W91953   7.232  12.811   2.242
30291W        W91954   7.370   8.236  12.009
30292W        W91955  22.108   2.237  13.398
30293W        W91956  41.916   1.936   3.647
30294W        W91957  22.685   9.833   1.723
30295W        W91958  27.050  16.720   3.798
30296W        W91959  20.187  21.685   3.695
30297W        W91960  27.996   2.810   0.277
30298W        W91961   0.802  34.981  13.833
30299W        W91962  25.548  26.200  14.811
30300W        W91963  22.225  26.525   4.286
30301W        W91964  27.066   1.884  13.423
30302W        W91965   0.940  10.746  11.095
30303W        W91966  16.231  32.433  14.993
30304W        W91967   4.209  29.132  14.912
30305W        W91968  16.626   0.759   3.209
30306W        W91969  18.087  16.747   2.680
30307W        W91970   5.827  12.662  14.282
30308W        W91971  36.935  13.128  13.309
30309W        W91972   5.398   4.782   0.906
30310W        W91973   2.412   4.396  12.873
30311W        W91974  24.683  17.621   4.699
30312W        W91975  11.140   1.784   3.672
30313W        W91976  13.123  31.946   2.299
30314W        W91977   3.882  33.586   4.679
30315W        W91978  13.741   2.836   3.357
30316W        W91979  32.111  35.923  10.150
30317W        W91980  26.040   2.281  11.449
30318W        W91981   6.320  26.050   2.185
30319W        W91982  19.711  15.173   1.447
30320W        W91983  13.246  32.622  12.983
30321W        W91984   4.359  16.576  11.398
30322W        W91985  33.905  24.006   1.781
30323W        W91986   1.933  34.466  12.398
30324W        W91987  23.132  28.443   3.861
30325W        W91988  27.544  29.121  12.435
30326W        W91989   8.287   9.854  12.992
30327W        W91990  38.966  28.588  14.963
30328W        W91991  43.942  13.132   4.612
30329W        W91992  32.543  35.437  13.893
30330W        W91993  11.160  37.490  11.594
30331W        W91994  36.421  39.940  13.011
30332W        W91995  14.143  20.596  13.401
30333W        W91996  38.055   8.712  13.887
30334W        W91997   4.352  20.578  11.125
30335W        W91998   0.816  12.705   0.419
30336W        W91999  38.352  42.936  12.095
30337W        W92000  20.198  38.056  13.394
30338W        W92001  24.203   9.790   2.689
30339W        W92002  30.968  18.720   1.330
30340W        W92003   8.886   1.314  11.558
30341W        W92004  39.847  25.219  11.417
30342W        W92005  36.088  27.607   4.627
30343W        W92006  19.242   1.381  11.098
30344W        W92007   0.819  10.647   0.963
30345W        W92008  23.717  14.631   2.360
30346W        W92009   7.397  24.580  13.039
30347W        W92010   8.846  34.547   3.319
30348W        W92011   8.228  34.473   4.813
30349W        W92012  30.923   9.705  12.050
30350W        W92013  13.314  21.695  11.374
30351W        W92014  14.264  13.351   4.326
30352W        W92015  29.986  27.088  13.042
30353W        W92016   5.921  30.954   1.429
30354W        W92017  33.877  15.770   0.967
30355W        W92018   0.441  16.662  13.028
30356W        W92019  18.278  15.585  13.811
30357W        W92020  34.390   5.690   5.758
30358W        W92021  21.071  24.166  12.915
30359W        W92022  16.264  33.037  11.427
30360W        W92023  40.438  37.924   0.826
30361W        W92024  32.489  38.965   1.309
30362W        W92025  13.842  11.814   0.395
30363W        W92026  21.582  17.699   2.183
30364W        W92027  24.187  42.509  14.367
30365W        W92028  43.512  38.362   0.321
30366W        W92029  24.157  17.246   0.784
30367W        W92030  37.358  34.077   2.178
30368W        W92031   2.354  35.941  11.034
30369W        W92032  26.053  23.666   4.635
30370W        W92033  42.442  10.802  13.428
30371W        W92034  34.456  10.718   5.262
30372W        W92035  30.081   4.832  14.960
30373W        W92036   6.201  27.980   2.703
30374W        W92037  27.974   8.182   0.887
30375W        W92038  41.339  14.272   0.303
30376W        W92039   3.438   6.332  10.463
30377W        W92040   9.319  31.086  10.981
30378W        W92041  35.578  36.936  13.357
30379W        W92042   9.297  34.567   3.630
30380W        W92043  16.656  42.319  13.353
30381W        W92044  22.081   7.808  10.601
30382W        W92045  20.057  31.132  14.394
30383W        W92046  22.685  43.325   3.849
30384W        W92047   4.258  19.246   2.277
30385W        W92048  30.446  27.533  11.460
30386W        W92049  14.623  20.063  13.325
30387W        W92050  18.618  29.168   3.838
30388W        W92051  18.550  33.389   2.185
30389W        W92052  18.601  32.393  13.884
30390W        W92053   6.875  38.441   0.949
30391W        W92054   0.787   3.441  11.484
30392W        W92055  18.293  43.276  11.432
30393W        W92056  19.765  10.384   3.764
30394W        W92057  24.203   8.405  12.971
30395W        W92058  28.590   7.684  13.902
30396W        W92059  12.707  27.646  13.839
30397W        W92060  34.873  41.519   1.754
30398W        W92061  27.070  39.810   1.731
30399W        W92062  33.986  30.429  14.770
30400W        W92063  22.710  31.020   3.762
30401W        W92064  18.642  21.169   0.958
30402W        W92065  10.780  27.634   1.279
30403W        W92066  24.105   3.431  10.507
30404W        W92067  14.743   2.813   0.330
30405W        W92068  40.808   0.274   3.799
30406W        W92069  15.150  21.177  12.383
30407W        W92070  21.676  42.461   2.705
30408W        W92071  37.006  18.205  14.386
30409W        W92072  11.818  35.016  12.925
30410W        W92073  31.924   6.212  14.376
30411W        W92074   4.760  11.865  12.083
30412W        W92075  31.605  20.666   2.865
30413W        W92076  10.165   5.354   2.359
30414W        W92077  25.520  19.135   3.153
30415W        W92078  23.012   6.182   3.226
30416W        W92079  41.386  30.477   0.374
30417W        W92080  13.832  32.556   2.689
30418W        W92081   9.269  40.003   1.849
30419W        W92082  26.158   9.813  11.502
30420W        W92083  38.472  38.520  14.947
30421W        W92084  15.615  28.942   2.214
30422W        W92085   1.280  42.353  10.896
30423W        W92086  21.553  36.077  12.431
30424W        W92087   1.390  43.509   0.774
30425W        W92088  33.532  11.369   3.850
30426W        W92089  23.510  42.792  12.959
30427W        W92090  17.226   0.255   4.197
30428W        W92091   1.259  40.382  12.454
30429W        W92092  14.741  13.249  14.377
30430W        W92093   4.331  38.015  10.552
30431W        W92094  43.835  32.934   2.863
30432W        W92095  39.051  22.614   9.920
30433W        W92096  34.025  30.620   0.755
30434W        W92097  28.004  32.630   0.927
30435W        W92098  16.719   7.773  12.045
30436W        W92099   1.473  21.097   1.433
30437W        W92100  33.887  33.453   2.851
30438W        W92101  39.014  38.563   1.278
30439W        W92102  29.505  27.984  14.819
30440W        W92103  12.341   1.867  10.965
30441W        W92104   6.897  21.577  12.384
30442W        W92105   8.341  43.910   4.286
30443W        W92106   7.417  10.147  11.480
30444W        W92107  27.633  43.995  10.546
30445W        W92108  36.586  41.412   1.768
30446W        W92109   3.809  34.569   0.790
30447W        W92110   2.914   4.367   2.307
30448W        W92111   1.837   9.276  10.917
30449W        W92112  31.513  42.287  12.473
30450W        W92113  18.580  20.254   3.290
30451W        W92114   5.709  39.043  14.508
30452W        W92115  31.477   0.355   3.738
30453W        W92116   3.384  40.356   3.352
30454W        W92117  41.437  11.643  12.951
30455W        W92118  20.051   8.227   1.246
30456W        W92119  25.467  27.494   9.996
30457W        W92120   3.818   8.773   2.283
30458W        W92121  37.975  19.183   3.314
30459W        W92122  11.756   0.820   3.668
30460W        W92123  20.156  39.899   1.706
30461W        W92124  11.669  12.294   0.303
30462W        W92125   1.353  19.740   2.237
30463W        W92126  40.998  43.786  12.069
30464W        W92127  20.751  41.940   2.841
30465W        W92128  28.133  14.292  10.568
30466W        W92129  12.127  16.653  12.891
30467W        W92130  44.970  17.268  10.552
30468W        W92131  33.528  39.484   4.829
30469W        W92132   7.844  19.726   1.758
30470W        W92133  45.000  21.142  13.309
30471W        W92134  16.142  13.748   0.385
30472W        W92135  24.198  13.812  13.930
30473W        W92136  25.963   2.903  12.493
30474W        W92137  14.107  17.190   5.242
30475W        W92138  33.427  14.675  13.352
30476W        W92139  31.468   6.789   9.591
30477W        W92140  33.563  42.992  11.450
30478W        W92141  44.329  42.384   0.759
30479W        W92142  28.479   3.365   1.919
30480W        W92143   6.686  13.171   3.227
30481W        W92144  22.743  14.286  14.014
30482W        W92145  34.596  31.015  12.047
30483W        W92146  14.612  17.770   0.407
30484W        W92147  26.066  12.351  13.393
30485W        W92148  21.699  43.796  11.548
30486W        W92149  23.150  17.188  10.564
30487W        W92150  22.578  34.412   1.805
30488W        W92151  20.576  34.480   3.176
30489W        W92152  10.752   8.765  12.847
30490W        W92153  40.307  23.101   4.700
30491W        W92154  16.297   5.222  14.889
30492W        W92155  44.409  37.406   1.701
30493W        W92156   3.886   3.394   0.312
30494W        W92157  30.996  35.860   5.097
30495W        W92158  11.683  33.451   5.302
30496W        W92159  37.396  34.957   4.656
30497W        W92160  14.589  14.100  13.399
30498W        W92161  17.562  11.706   2.862
30499W        W92162  18.678  26.485  11.098
30500W        W92163  44.832  26.088   3.254
30501W        W92164   3.826  13.172   2.888
30502W        W92165  23.507  15.243  11.116
30503W        W92166  36.039  27.107   4.765
30504W        W92167   8.382  42.886  11.445
30505W        W92168  18.569  33.406   3.650
30506W        W92169  15.326  38.979   1.226
30507W        W92170  14.257   3.837   3.310
30508W        W92171  20.769   8.265  13.900
30509W        W92172  39.417  17.644  14.514
30510W        W92173  11.668  22.713   4.722
30511W        W92174  32.921  29.486  14.790
30512W        W92175   0.257   2.808  14.472
30513W        W92176  19.151  34.040  12.860
30514W        W92177  33.040  36.098  12.526
30515W        W92178   4.934  24.201   3.320
30516W        W92179  42.525  36.533  12.535
30517W        W92180  24.131  37.483   3.200
30518W        W92181   6.777  19.240   1.861
30519W        W92182   8.764  13.717  10.961
30520W        W92183  40.363  42.974  12.037
30521W        W92184  32.981  42.313   1.443
30522W        W92185  35.502  22.174   2.818
30523W        W92186   3.222  19.266  10.967
30524W        W92187  42.818  41.497   2.251
30525W        W92188  39.050  12.125   2.884
30526W        W92189  38.854  14.260   0.329
30527W        W92190   5.915   0.282   2.796
30528W        W92191  39.985   0.433   0.887
30529W        W92192  25.678   0.393  11.472
30530W        W92193   3.386  15.735   1.353
30531W        W92194  27.505  17.082  14.460
30532W        W92195  19.074  36.851   1.928
30533W        W92196  36.490  12.160   0.954
30534W        W92197  42.943   1.732   3.386
30535W        W92198  30.595  33.616   1.277
30536W        W92199  17.114  26.578  14.501
30537W        W92200  44.301   7.791  12.859
30538W        W92201  27.533  28.140  14.848
30539W        W92202   9.246  19.265   2.311
30540W        W92203  26.039   4.373   3.279
30541W        W92204  28.460  18.095   2.227
30542W        W92205  24.661  40.867   3.199
30543W        W92206  22.669  25.055   1.821
30544W        W92207  17.693  44.757  12.077
30545W        W92208   1.886   7.322   4.185
30546W        W92209  28.609  31.595  13.817
30547W        W92210  42.957  34.395   3.689
30548W        W92211  36.392   7.389   0.927
30549W        W92212  20.664  13.683   4.286
30550W        W92213  24.054  42.523  14.847
30551W        W92214  26.147   4.706  11.596
30552W        W92215  34.992  38.997   3.340
30553W        W92216  14.179  14.640  11.453
30554W        W92217  31.072   8.705   1.752
30555W        W92218  35.463  25.136   2.289
30556W        W92219  22.070  14.629  12.369
30557W        W92220  16.578  22.685  12.876
30558W        W92221  42.355  28.569   2.197
30559W        W92222   0.302   2.754   3.657
30560W        W92223  44.777  12.742  14.362
30561W        W92224  26.570  39.030  10.037
30562W        W92225  38.017  28.134  13.344
30563W        W92226  16.693   8.713  13.983
30564W        W92227  26.058   6.897  12.033
30565W        W92228  41.342  22.078  13.833
30566W        W92229  10.763  11.372  13.410
30567W        W92230  16.782   9.728   4.622
30568W        W92231  39.057  12.631   4.613
30569W        W92232  20.672  24.572  13.412
30570W        W92233  12.218  12.760  12.018
30571W        W92234   5.424  30.116  11.542
30572W        W92235  43.768  18.681  12.007
30573W        W92236  44.765  29.129   0.880
30574W        W92237  38.367  32.454   2.720
30575W        W92238  13.247  35.031  11.923
30576W        W92239   1.780  44.879  13.933
30577W        W92240  40.893  24.624   0.967
30578W        W92241   9.304  35.856  12.892
30579W        W92242  17.166  30.517   2.715
30580W        W92243  40.942  24.009   1.441
30581W        W92244   7.304  33.562  14.955
30582W        W92245  37.891  34.885  11.122
30583W        W92246  10.361  44.347   0.285
30584W        W92247  27.022  25.205   3.858
30585W        W92248  17.678  18.618  13.906
30586W        W92249   1.282  21.041   4.182
30587W        W92250   7.173   8.193  13.426
30588W        W92251  36.047  12.209   2.863
30589W        W92252  36.480  12.829   2.336
30590W        W92253   1.761  15.604   4.303
30591W        W92254   8.217   2.746   3.170
30592W        W92255   9.661  39.941   0.956
30593W        W92256  31.987  12.688  10.461
30594W        W92257   3.408   9.344   0.833
30595W        W92258  39.946  43.956  12.868
30596W        W92259  22.220  16.717   1.894
30597W        W92260  16.581  19.117   4.753
30598W        W92261   0.917   8.717   1.277
30599W        W92262  21.528  24.070   2.778
30600W        W92263  27.099  14.241   3.365
30601W        W92264   8.898  21.085   5.138
30602W        W92265   8.310  27.471   1.858
30603W        W92266  16.793  36.485  14.886
30604W        W92267  42.876  10.294   0.357
30605W        W92268  41.802  26.016  11.603
30606W        W92269  14.167   8.764   0.949
30607W        W92270  16.735  30.511  11.989
30608W        W92271   9.747   5.718   4.173
30609W        W92272   2.395  10.858  11.877
30610W        W92273  37.352  37.516   2.732
30611W        W92274  15.608   9.173  11.017
30612W        W92275  21.150  23.012   1.812
30613W        W92276  17.673  26.154   3.677
30614W        W92277  12.160  39.544  11.489
30615W        W92278   1.902  43.931  13.479
30616W        W92279   3.747  19.051   3.268
30617W        W92280  31.626  29.922  12.968
30618W        W92281   1.345  18.180  11.942
30619W        W92282  29.960  14.730   3.230
30620W        W92283  13.110  31.010   3.819
30621W        W92284   3.904  36.463  13.044
30622W        W92285   7.756  36.986  10.502
30623W        W92286  37.971  18.168   3.805
30624W        W92287  37.559  34.077  14.760
30625W        W92288  18.069  12.259  12.884
30626W        W92289  36.401   0.799   2.363
30627W        W92290  35.101  30.573  11.552
30628W        W92291   7.761  37.946  12.957
30629W        W92292   8.818  28.652   3.299
30630W        W92293   7.282  25.047   0.928
30631W        W92294  21.713  16.229   3.158
30632W        W92295  42.377  11.815   4.734
30633W        W92296   7.323  15.251   4.674
30634W        W92297  27.592  12.826   2.702
30635W        W92298  20.672  11.772   0.832
30636W        W92299  20.631  43.816   3.258
30637W        W92300  32.070  11.357   1.402
30638W        W92301   8.845  23.616  14.468
30639W        W92302  24.642  38.352  11.977
30640W        W92303  41.855  17.732  12.469
30641W        W92304  15.735  44.417   5.158
30642W        W92305  31.431  28.020   2.214
30643W        W92306  14.248  36.921   2.218
30644W        W92307   4.874  38.886   1.870
30645W        W92308  10.155  44.484  13.037
30646W        W92309   9.867  35.929  11.975
30647W        W92310   0.257  29.583   4.296
30648W        W92311  13.287   3.802   3.696
30649W        W92312   7.884  17.163   3.758
30650W        W92313  31.096  34.962  11.406
30651W        W92314   8.698  29.119  11.008
30652W        W92315  24.051   8.231   3.183
30653W        W92316  14.709   2.405  12.844
30654W        W92317  25.637  30.505  10.124
30655W        W92318  16.579  24.608  13.506
30656W        W92319  35.909  40.012  12.557
30657W        W92320   1.886  35.482   2.748
30658W        W92321   1.776   6.225  10.897
30659W        W92322  27.107  42.437   1.388
30660W        W92323   9.693  11.653   3.227
30661W        W92324   3.402  34.885  10.544
30662W        W92325  11.804  41.506   2.381
30663W        W92326   6.871  14.309  12.096
30664W        W92327   0.941  23.172   2.891
30665W        W92328   9.719   2.881  10.534
30666W        W92329  44.502  44.795  13.528
30667W        W92330   2.391  27.682  12.086
30668W        W92331  23.102  33.022  11.886
30669W        W92332  31.063   0.961   0.934
30670W        W92333  38.967  10.375  11.067
30671W        W92334  12.662   1.261   3.825
30672W        W92335  25.644  26.980   4.645
30673W        W92336  36.423  21.755  12.468
30674W        W92337  42.301   6.877   0.841
30675W        W92338   9.755  25.694  11.095
30676W        W92339  43.885   7.780  14.481
30677W        W92340  32.928   8.339  13.362
30678W        W92341  33.573   7.820   1.878
30679W        W92342  43.831   0.274  14.935
30680W        W92343   9.264  10.208  12.007
30681W        W92344  21.234  16.650  13.811
30682W        W92345  28.159   1.370   0.306
30683W        W92346  10.147  20.110  13.545
30684W        W92347  31.050  21.634   3.145
30685W        W92348   4.217   7.412   2.287
30686W        W92349  19.083  16.173  14.920
30687W        W92350  44.856  35.496  13.001
30688W        W92351  21.131   7.336   1.897
30689W        W92352   9.889  40.355  13.369
30690W        W92353  43.011  36.501   2.874
30691W        W92354  43.766  42.358  11.546
30692W        W92355  29.926  35.413   2.368
30693W        W92356  38.921  38.372  13.521
30694W        W92357  31.539  11.248  10.415
30695W        W92358   4.945   8.691   1.900
30696W        W92359  28.471  35.548  11.563
30697W        W92360  39.944  14.596  14.423
30698W        W92361  26.995  33.900   2.667
30699W        W92362  11.159   5.405   2.181
30700W        W92363  12.292  42.016   2.207
30701W        W92364  34.396  10.725   0.294
30702W        W92365   5.689  39.316   3.229
30703W        W92366  38.433   3.806  14.499
30704W        W92367  34.945  13.771  10.918
30705W        W92368  42.909  32.538   1.887
30706W        W92369   8.371  16.614   3.745
30707W        W92370  10.830  39.883  11.426
30708W        W92371  42.459  12.147  12.499
30709W        W92372  38.949  34.405   3.684
30710W        W92373  32.098   7.255   0.827
30711W        W92374  11.652  35.866  12.481
30712W        W92375  12.147  22.125   3.807
30713W        W92376  41.352  22.735   0.726
30714W        W92377  20.668  43.497   3.775
30715W        W92378  21.239   3.807   1.695
30716W        W92379  17.262   2.907  12.002
30717W        W92380  43.854  28.671   0.368
30718W        W92381  24.220  14.104  11.992
30719W        W92382   6.279  23.549  11.597
30720W        W92383  17.771  40.950   1.281
30721W        W92384  14.315  14.772   4.725
30722W        W92385  43.774   2.848   2.257
30723W        W92386  25.013  40.450  14.438
30724W        W92387  25.207   4.389  10.611
30725W        W92388  35.556  11.832   1.406
30726W        W92389  31.591  38.877  11.911
30727W        W92390   5.810  19.284  13.344
30728W        W92391  19.143  38.915  11.946
30729W        W92392  33.902   6.341  14.284
30730W        W92393   1.864  31.530  10.904
30731W        W92394   3.869  16.193   0.430
30732W        W92395   1.741  17.783  12.339
30733W        W92396  27.971  40.836   0.366
30734W        W92397  28.061  22.229  13.482
30735W        W92398   4.888   5.307   1.773
30736W        W92399   7.751  16.146   3.650
30737W        W92400   6.287   0.956   4.184
30738W        W92401  27.571  24.046  13.482
30739W        W92402   9.393  36.897  13.908
30740W        W92403  19.079   4.257   3.784
30741W        W92404   5.201   7.756   0.893
30742W        W92405  11.743  19.084   0.382
30743W        W92406  22.605  37.969   2.340
30744W        W92407   0.434   4.220  13.433
30745W        W92408  39.452  32.413  10.485
30746W        W92409  35.948   6.903   1.893
30747W        W92410  33.087  40.453   4.610
30748W        W92411  23.113  14.642  14.851
30749W        W92412  15.261  30.449   2.829
30750W        W92413  10.204  41.464   1.800
30751W        W92414   0.365  13.801   2.736
30752W        W92415  30.071  13.328   2.719
30753W        W92416  33.057  40.350   0.925
30754W        W92417  22.013  39.024   1.788
30755W        W92418  37.435  25.541   2.297
30756W        W92419  37.987  28.093   3.259
30757W        W92420  25.675  39.061   5.320
30758W        W92421  31.637   6.921   2.319
30759W        W92422  42.392   6.757   5.085
30760W        W92423   9.888  29.955   2.321
30761W        W92424  42.447  15.231   4.640
30762W        W92425  29.127   0.822  11.526
30763W        W92426  38.936  40.016   4.327
30764W        W92427   4.864   1.257  12.504
30765W        W92428  15.317  23.074  12.507
30766W        W92429  39.408  36.990  10.491
30767W        W92430  35.101  40.321  12.088
30768W        W92431  14.339   9.171   2.827
30769W        W92432  35.109  17.151  11.462
30770W        W92433  33.080  17.206  11.090
30771W        W92434  31.008  39.326   0.932
30772W        W92435  28.948  32.028   1.700
30773W        W92436  15.577  14.140   1.887
30774W        W92437  41.306  32.526  13.412
30775W        W92438  14.679  30.918   4.691
30776W        W92439   2.886  16.638   4.135
30777W        W92440  21.116   8.234  12.031
30778W        W92441  19.143   8.379   2.868
30779W        W92442  21.702  21.242  11.389
30780W        W92443   9.151  16.637   2.188
30781W        W92444  31.137  23.562  12.469
30782W        W92445   2.377  12.285   4.601
30783W        W92446  22.116  42.435   3.270
30784W        W92447   7.329  33.902  12.364
30785W        W92448  44.924  12.339   3.167
30786W        W92449   0.922   6.882   1.798
30787W        W92450  29.944  25.635   1.319
30788W        W92451  36.962  34.527  13.490
30789W        W92452  29.081   8.291   4.192
30790W        W92453  15.115   6.754   0.456
30791W        W92454  16.272   1.973   3.341
30792W        W92455  32.485  32.067   3.272
30793W        W92456  28.971  41.404   2.902
30794W        W92457   6.751  25.155  11.866
30795W        W92458  22.599   0.372   5.132
30796W        W92459  16.206  40.968   3.276
30797W        W92460  21.251   4.258  13.366
30798W        W92461  35.582   8.395   1.788
30799W        W92462  22.675  23.236   0.394
30800W        W92463  29.508   5.919  12.034
30801W        W92464   4.744   6.303  13.958
30802W        W92465  13.825  39.887  11.867
30803W        W92466  12.225  43.511   2.832
30804W        W92467  19.085  33.947   3.734
30805W        W92468  17.299  28.025   0.482
30806W        W92469  24.204   2.274   2.807
30807W        W92470  43.438  41.296  13.993
30808W        W92471  27.991   2.243  14.349
30809W        W92472   0.397  34.971  14.907
30810W        W92473  39.820   2.405  14.345
30811W        W92474  41.409  20.043  11.961
30812W        W92475  23.731  40.440  10.570
30813W        W92476  40.010  33.476  13.986
30814W        W92477  42.803  18.647  10.497
30815W        W92478  34.449  32.417  10.474
30816W        W92479  38.992  43.910  14.987
30817W        W92480   0.916   0.352   3.216
30818W        W92481  15.222  10.780  13.374
30819W        W92482   0.883  29.121   0.939
30820W        W92483  13.635  13.754   0.768
30821W        W92484   1.752  35.893   1.359
30822W        W92485  33.049  18.639   0.356
30823W        W92486   1.474  32.013   4.137
30824W        W92487  20.117  28.962   0.446
30825W        W92488  26.475  11.273  14.899
30826W        W92489  27.169  13.734  10.552
30827W        W92490  39.876  12.632   4.654
30828W        W92491  15.596   3.744   0.731
30829W        W92492  32.991  12.274   1.745
30830W        W92493  10.708  32.009   1.377
30831W        W92494  19.117  26.024   4.201
30832W        W92495  35.089  23.101   0.736
30833W        W92496  27.579  31.980  11.425
30834W        W92497  30.144  17.193   1.405
30835W        W92498   4.423   4.859   3.809
30836W        W92499  39.978   2.344   3.697
30837W        W92500  15.787  38.834   4.731
30838W        W92501  23.129  39.368   3.636
30839W        W92502  44.835  21.600   4.291
30840W        W92503  27.599   4.324   3.208
30841W        W92504  12.826  19.609   4.178
30842W        W92505  17.701  39.455   0.345
30843W        W92506  32.398  43.973  11.485
30844W        W92507  18.147  12.262   2.788
30845W        W92508  27.006  43.934   3.671
30846W        W92509  24.056   8.693   0.928
30847W        W92510  42.523  22.203  13.937
30848W        W92511  31.098  32.489  14.963
30849W        W92512  44.434  31.928   0.385
30850W        W92513  37.921   0.429  14.973
30851W        W92514   3.419  13.282  11.527
30852W        W92515  25.687  23.689  11.519
30853W        W92516  13.288   6.782   1.810
30854W        W92517  22.242   9.169   2.373
30855W        W92518  33.009   0.486  13.909
30856W        W92519  12.831  17.671  10.514
30857W        W92520  25.703  13.714  10.414
30858W        W92521  42.898  23.728   0.251
30859W        W92522  20.624   3.709  13.359
30860W        W92523  18.174  38.438  12.579
30861W        W92524  23.510   3.345  14.373
30862W        W92525   3.249  20.725   1.408
30863W        W92526   8.387   6.254   2.258
30864W        W92527  42.831  12.802   3.631
30865W        W92528  31.947  11.364  12.381
30866W        W92529  36.579  16.143   1.780
30867W        W92530  32.589  41.967  11.443
30868W        W92531   5.351  11.686   1.762
30869W        W92532   0.775  19.259   3.172
30870W        W92533  19.586   6.414   3.735
30871W        W92534  16.580  39.876   0.857
30872W        W92535  41.840  38.027  14.943
30873W        W92536  18.184  14.220   0.894
30874W        W92537  22.208  33.419  12.962
30875W        W92538  28.570  36.512  10.425
30876W        W92539  37.891  19.048  13.309
30877W        W92540  10.763   6.377  10.503
30878W        W92541  38.376   5.721  13.827
30879W        W92542  40.385  24.539  12.428
30880W        W92543  39.919  42.394  13.486
30881W        W92544  41.438  42.999  10.575
30882W        W92545  26.577   2.292   5.096
30883W        W92546  42.319  30.534  11.404
30884W        W92547  29.109  21.534  12.572
30885W        W92548  22.618   7.193  10.483
30886W        W92549  30.132  23.014  14.491
30887W        W92550  13.613  11.769   2.301
30888W        W92551  30.628  23.578  11.611
30889W        W92552  23.670   2.372   0.792
30890W        W92553  28.067  41.793  12.875
30891W        W92554   8.794  12.178   3.210
30892W        W92555  39.925  18.751  10.925
30893W        W92556  25.993  44.268   4.829
30894W        W92557  28.144  12.734   0.447
30895W        W92558   7.783  10.146   4.217
30896W        W92559  26.519   6.711  13.798
30897W        W92560   9.722   2.918  11.537
30898W        W92561  18.236   8.701  10.962
30899W        W92562  12.314  31.635   4.174
30900W        W92563  44.002  10.311   3.209
30901W        W92564  18.229  18.661  13.029
30902W        W92565  32.455   3.933   4.676
30903W        W92566  42.328   0.743  11.096
30904W        W92567  42.519   6.192  14.004
30905W        W92568  34.448  15.675  10.567
30906W        W92569  42.366  22.580  12.478
30907W        W92570  36.962  43.010   0.939
30908W        W92571  39.478   7.731   0.450
30909W        W92572  12.754  41.812   4.146
30910W        W92573  34.384   3.790   0.428
30911W        W92574  31.519  13.283  12.027
30912W        W92575  42.828   3.338  13.964
30913W        W92576  21.033  36.950  14.327
30914W        W92577  26.150  24.561  10.518
30915W        W92578  24.219  29.598   3.271
30916W        W92579  31.000  14.166   3.800
30917W        W92580  11.267  15.805  10.555
30918W        W92581  10.181   1.478  13.960
30919W        W92582  43.281  31.513  10.415
30920W        W92583  23.085  39.438   2.323
30921W        W92584  23.672  16.115  12.847
30922W        W92585  37.837  17.734   3.676
30923W        W92586  19.730  17.672  10.941
30924W        W92587  42.327  34.575   4.147
30925W        W92588  29.536  36.525  13.353
30926W        W92589  36.556  33.469  13.372
30927W        W92590   6.886  42.418  13.358
30928W        W92591   4.856  38.878  13.857
30929W        W92592  33.540  25.978  13.488
30930W        W92593  18.181  28.151  10.556
30931W        W92594  15.274  16.276   0.276
30932W        W92595  14.747  19.654  12.463
30933W        W92596  27.995  15.109   1.409
30934W        W92597  17.288  31.974   4.266
30935W        W92598  23.514  11.165  14.915
30936W        W92599  39.364  21.200   4.645
30937W        W92600  11.849   9.165   2.287
30938W        W92601  35.067  26.541  13.815
30939W        W92602  44.283  39.527  10.036
30940W        W92603  17.272  20.705  13.806
30941W        W92604  40.980  41.399  11.935
30942W        W92605  31.941  36.094   0.378
30943W        W92606  28.666   4.806  12.863
30944W        W92607  43.899  25.621   1.700
30945W        W92608  16.607  19.561   1.922
30946W        W92609  27.967  23.227  10.621
30947W        W92610  22.570  42.287  11.103
30948W        W92611  24.533  11.157  11.027
30949W        W92612  42.426  37.845  12.023
30950W        W92613  29.113  22.149   4.713
30951W        W92614   9.866  37.890  12.929
30952W        W92615   3.946  12.234  13.899
30953W        W92616  40.981  41.375   1.863
30954W        W92617  36.960  10.299  11.538
30955W        W92618   0.784  34.000  13.902
30956W        W92619  14.180  32.453  10.580
30957W        W92620  29.164  42.814  11.501
30958W        W92621  30.589  14.817   0.364
30959W        W92622  44.959  18.732   4.688
30960W        W92623  23.182  17.738  14.984
30961W        W92624  11.143  44.424   3.753
30962W        W92625   5.427  18.620  14.421
30963W        W92626  40.947  39.953   1.788
30964W        W92627  41.979  42.821   1.877
30965W        W92628  11.289  11.815   1.783
30966W        W92629  40.020  17.176  10.926
30967W        W92630  23.642  38.470  14.931
30968W        W92631  28.649   8.685   2.306
30969W        W92632  21.693  27.690   2.894
30970W        W92633  34.944  37.519  11.939
30971W        W92634  23.635  37.914  14.775
30972W        W92635   8.848  38.058  12.457
30973W        W92636   7.319   0.405   0.942
30974W        W92637  16.157  35.389  12.372
30975W        W92638   8.262   2.259   4.658
30976W        W92639  16.673  34.980   1.331
30977W        W92640   7.406  13.794  13.987
30978W        W92641   6.419   2.842  13.430
30979W        W92642  36.454  44.821  13.028
30980W        W92643  25.522  24.553  11.974
30981W        W92644  35.861  18.617   4.762
30982W        W92645   6.739  19.615   4.347
30983W        W92646  31.030  17.666  11.963
30984W        W92647   3.419   1.468  11.960
30985W        W92648  35.385  21.207  12.020
30986W        W92649  15.789  44.427  12.576
30987W        W92650  43.898  15.762   3.291
30988W        W92651  24.491  14.744  14.898
30989W        W92652   9.246  32.548  13.918
30990W        W92653  33.112   1.392   3.825
30991W        W92654   3.862  43.927   3.221
30992W        W92655  19.621  27.488  14.767
30993W        W92656  29.499  41.910   1.387
30994W        W92657  32.033  15.791  11.096
30995W        W92658  41.356  32.550   0.764
30996W        W92659  34.374   9.650  11.485
30997W        W92660  43.853  37.943  11.550
30998W        W92661  29.159  26.536   1.434
30999W        W92662  26.669  14.228   1.421
31000W        W92663  30.430  20.561  10.470
31001W        W92664  28.488  11.764  14.927
31002W        W92665  22.247  33.972   0.799
31003W        W92666  15.120  28.604  13.918
31004W        W92667  41.809  10.366   2.359
31005W        W92668  19.546  44.946   4.802
31006W        W92669  36.567  40.896   2.717
31007W        W92670  22.628  41.408   4.209
31008W        W92671  29.500  25.643   4.183
31009W        W92672   7.346  23.103  12.496
31010W        W92673  44.899  38.563  13.379
31011W        W92674  26.493   5.718  11.934
31012W        W92675  24.121   6.386   5.258
31013W        W92676   7.362   4.920  11.928
31014W        W92677  24.699  26.683  14.955
31015W        W92678  15.185  26.683   2.374
31016W        W92679   0.393  27.051  11.461
31017W        W92680  32.001   5.918   1.798
31018W        W92681  13.292  20.052   0.249
31019W        W92682  10.306  11.363  12.556
31020W        W92683   6.703   0.401   0.244
31021W        W92684  34.050  11.786   3.322
31022W        W92685  27.500  32.890   3.242
31023W        W92686  44.955  23.006  11.103
31024W        W92687   1.766  24.576  11.421
31025W        W92688  31.528   1.879  13.949
31026W        W92689  23.498   2.853   3.368
31027W        W92690  27.014  40.873  13.989
31028W        W92691   3.422  36.393   3.796
31029W        W92692  26.508  23.011   2.226
31030W        W92693  28.562   7.860   4.810
31031W        W92694  36.366  19.654   2.263
31032W        W92695  24.509  35.002  12.940
31033W        W92696  29.968  28.680   0.894
31034W        W92697  39.024  37.578   4.138
31035W        W92698  30.129  22.161  14.427
31036W        W92699  43.377  29.110   1.451
31037W        W92700  40.428  23.641  11.936
31038W        W92701   6.811  37.927  10.409
31039W        W92702  43.469  43.987   1.409
31040W        W92703  10.384  28.020   2.343
31041W        W92704   3.330  33.024  12.354
31042W        W92705  25.606  13.283  13.395
31043W        W92706   7.191  21.744   2.704
31044W        W92707  42.917  15.144  14.449
31045W        W92708  10.203  38.340  11.524
31046W        W92709  24.205  23.170  13.395
31047W        W92710  13.284  28.091   4.621
31048W        W92711   8.709  15.650  13.838
31049W        W92712   7.840  21.218  14.955
31050W        W92713  38.336  27.451   3.779
31051W        W92714  39.897   9.700  14.865
31052W        W92715  39.927  22.540   0.833
31053W        W92716  25.540  22.152   5.783
31054W        W92717  26.514   6.843   0.370
31055W        W92718  25.135  31.454  10.426
31056W        W92719   0.817  40.846  13.310
31057W        W92720  26.969   0.406   2.313
31058W        W92721  19.183  37.082  11.414
31059W        W92722  12.286   9.369   1.278
31060W        W92723  24.653  11.835  12.977
31061W        W92724  31.087  16.270   3.193
31062W        W92725  42.333  39.519  11.578
31063W        W92726  15.598  18.619   2.784
31064W        W92727  37.357  40.842  10.627
31065W        W92728  41.502  37.051  12.093
31066W        W92729  38.524   7.736   4.135
31067W        W92730  41.458  37.943  11.395
31068W        W92731  43.482  11.249  13.975
31069W        W92732  38.011  37.899   0.483
31070W        W92733   5.792  18.058   1.713
31071W        W92734  34.478  44.467  12.967
31072W        W92735  20.709   0.265   1.218
31073W        W92736  15.593  44.867   4.292
31074W        W92737  42.425   8.812  12.926
31075W        W92738  32.425  34.436  14.839
31076W        W92739   1.290  38.973   2.407
31077W        W92740  34.872   6.823  12.943
31078W        W92741   7.886   0.276  14.835
31079W        W92742  18.564  33.015   4.788
31080W        W92743  11.186  22.020  14.308
31081W        W92744  42.363  22.745   3.273
31082W        W92745   6.393   8.335  13.023
31083W        W92746  17.632  29.973   2.292
31084W        W92747  24.011  19.609  12.528
31085W        W92748  42.903  11.840   9.964
31086W        W92749   4.358  43.324  11.395
31087W        W92750  20.160  33.470  11.029
31088W        W92751  15.598  33.620   2.880
31089W        W92752  35.074  17.303  12.434
31090W        W92753  13.298  19.660   0.409
31091W        W92754  34.568  20.551  14.917
31092W        W92755  41.393  21.624   0.820
31093W        W92756  29.539   3.427   0.886
31094W        W92757  37.582  33.943  13.996
31095W        W92758  13.274  44.472  12.996
31096W        W92759  13.687  33.499  13.307
31097W        W92760   7.721   5.906  14.461
31098W        W92761   1.920  35.455  10.924
31099W        W92762  23.534  29.974   4.244
31100W        W92763   8.221   7.694  14.353
31101W        W92764  31.947   6.258  14.952
31102W        W92765  10.789  19.573   4.197
31103W        W92766  12.625  10.724  14.764
31104W        W92767  19.670   7.698   2.375
31105W        W92768  40.865  44.849  14.002
31106W        W92769  42.364  23.160   1.282
31107W        W92770  42.368   2.315  13.510
31108W        W92771  41.923  16.677   4.323
31109W        W92772  41.024  14.168  14.920
31110W        W92773  28.514  10.353  12.442
31111W        W92774   6.380  28.473   3.650
31112W        W92775  44.449  41.523   2.673
31113W        W92776  14.199  41.399   3.645
31114W        W92777   4.853   7.698   1.727
31115W        W92778  17.686  23.511   4.161
31116W        W92779  14.810  14.819   1.724
31117W        W92780   1.818  31.151   1.314
31118W        W92781   3.340   6.306  13.446
31119W        W92782  30.607  19.758  13.995
31120W        W92783   6.418  25.687   0.366
31121W        W92784  38.956  39.846  14.300
31122W        W92785  26.068  19.642   3.258
31123W        W92786  42.806  25.686  12.078
31124W        W92787  24.170  23.704   4.752
31125W        W92788  30.983  34.046   4.602
31126W        W92789  39.978   6.726   4.711
31127W        W92790  15.782   2.372   1.310
31128W        W92791  17.630  37.904  11.900
31129W        W92792  16.604  12.698  14.826
31130W        W92793  15.210   8.172   1.804
31131W        W92794   0.804  35.992  12.924
31132W        W92795  23.024  24.569   4.285
31133W        W92796   0.435  12.180   4.746
31134W        W92797  28.014   1.901   3.295
31135W        W92798  25.080   9.204   0.758
31136W        W92799  29.518  42.372   4.329
31137W        W92800  10.747  23.013  12.015
31138W        W92801  33.410   0.356  12.062
31139W        W92802  11.749  35.451   4.326
31140W        W92803  26.116  43.472  13.321
31141W        W92804  28.566  37.558  10.586
31142W        W92805  43.958  35.005  12.372
31143W        W92806   7.402   4.375  12.084
31144W        W92807   2.868  35.473   3.217
31145W        W92808   9.156   8.229  11.529
31146W        W92809  18.625  44.345   1.781
31147W        W92810  31.608   3.222   3.158
31148W        W92811  25.006  29.979   1.304
31149W        W92812  42.380   2.960   1.828
31150W        W92813  25.063   2.782   1.745
31151W        W92814  11.845  19.662   1.344
31152W        W92815  23.183  22.635   1.699
31153W        W92816  32.136  14.149  10.910
31154W        W92817   0.311  21.158  14.440
31155W        W92818  35.920  28.051  14.781
31156W        W92819   3.877  44.956   4.288
31157W        W92820  41.798  28.183   0.249
31158W        W92821   6.333  33.589  14.320
31159W        W92822  23.075  11.158   4.240
31160W        W92823  13.149  28.170   0.250
31161W        W92824  24.623  15.280   0.851
31162W        W92825  20.108  10.773   2.724
31163W        W92826  36.969   4.287   0.906
31164W        W92827  22.554  25.116   2.200
31165W        W92828  20.059  12.134   0.367
31166W        W92829  29.553  12.190   2.190
31167W        W92830   4.824  44.005   4.681
31168W        W92831   6.186  27.955  14.774
31169W        W92832  11.340   1.410  12.896
31170W        W92833  21.528   8.710   4.339
31171W        W92834   9.664  35.028  12.076
31172W        W92835   8.856  29.063   1.766
31173W        W92836  17.765  26.475  13.924
31174W        W92837  12.212  37.935   0.440
31175W        W92838  35.093   6.346   1.385
31176W        W92839  23.210  10.162  13.530
31177W        W92840  14.100   6.229  10.417
31178W        W92841  17.752  16.108   3.853
31179W        W92842  22.739  28.076   3.174
31180W        W92843  21.112  25.999  10.550
31181W        W92844  15.642  21.139  14.313
31182W        W92845   2.429  23.137   2.268
31183W        W92846  25.580  37.847   3.674
31184W        W92847  17.097   1.916   1.855
31185W        W92848  26.002  37.550   2.356
31186W        W92849  27.584  18.561   4.316
31187W        W92850  41.833  43.913   2.693
31188W        W92851  25.616  32.473  14.010
31189W        W92852  43.792  27.011   2.284
31190W        W92853  33.469  30.503   0.384
31191W        W92854   9.235  17.144   2.784
31192W        W92855  36.389  19.780   9.960
31193W        W92856  30.417  22.643   0.462
31194W        W92857  33.991  12.791   1.432
31195W        W92858   0.785  37.916  14.941
31196W        W92859  44.855  23.583   2.826
31197W        W92860   4.309  28.464  14.294
31198W        W92861  15.630   5.360   4.282
31199W        W92862  44.469  23.996  14.852
31200W        W92863  12.746   9.336   2.344
31201W        W92864  38.569  16.184   2.366
31202W        W92865  24.535  17.220   4.184
31203W        W92866  14.235  43.785   3.796
31204W        W92867   2.962  33.079  14.776
31205W        W92868   0.848   2.887   4.334
31206W        W92869  13.307   2.770   4.168
31207W        W92870   1.863   6.715   0.815
31208W        W92871  11.127   9.768   2.311
31209W        W92872   0.745   8.760   4.291
31210W        W92873  26.064   2.414  14.360
31211W        W92874  22.040  43.837  13.349
31212W        W92875  32.997   4.935   0.326
31213W        W92876  33.465  17.205   1.231
31214W        W92877  42.884  27.146   2.225
31215W        W92878  38.992  19.737   5.267
31216W        W92879   6.701  36.975   1.796
31217W        W92880   7.188  23.116   1.385
31218W        W92881   7.841  29.609   2.869
31219W        W92882  23.107  22.539  13.517
31220W        W92883  36.529   5.814   3.661
31221W        W92884  33.541  43.992  12.574
31222W        W92885  40.835  40.803  13.873
31223W        W92886  13.788  32.123  12.360
31224W        W92887  38.435  10.676  12.039
31225W        W92888   7.185  13.636  12.368
31226W        W92889  33.938  18.754  13.042
31227W        W92890   9.318  32.547   2.241
31228W        W92891  37.388   6.276   4.162
31229W        W92892  17.793  14.618  11.855
31230W        W92893  28.605  13.832   3.851
31231W        W92894  42.426  15.134  11.558
31232W        W92895  38.345  33.617   4.632
31233W        W92896  34.499   3.387  12.580
31234W        W92897  25.207  29.605  13.959
31235W        W92898  15.622  27.644  11.579
31236W        W92899  26.172  32.069  14.345
31237W        W92900  43.832  28.967  13.006
31238W        W92901  34.921  37.502   5.188
31239W        W92902  16.764  33.463   1.817
31240W        W92903  33.918  34.876  12.469
31241W        W92904  32.093  18.724   3.291
31242W        W92905   4.398  41.442   4.826
31243W        W92906  19.174  28.186   4.613
31244W        W92907  13.206   2.235   4.230
31245W        W92908  23.007  13.204  11.016
31246W        W92909  24.483  23.699  12.010
31247W        W92910   9.349  26.668  14.758
31248W        W92911  43.350  44.838   4.227
31249W        W92912  22.731  32.971  11.015
31250W        W92913  29.508  35.359   2.289
31251W        W92914   8.362  41.909   4.178
31252W        W92915   2.414  17.246   5.182
31253W        W92916  38.454   9.335  11.908
31254W        W92917  17.600  29.155  10.933
31255W        W92918  11.636   2.877  11.974
31256W        W92919  21.555  42.818  14.938
31257W        W92920  16.220  32.010   2.824
31258W        W92921  23.513  19.121  13.888
31259W        W92922  17.067  38.440   1.365
31260W        W92923   8.854  35.076   2.322
31261W        W92924  27.532  17.269   0.757
31262W        W92925   0.903  40.513   1.773
31263W        W92926  26.548  24.598   9.931
31264W        W92927  22.743  37.939  10.100
31265W        W92928   4.852  36.519   2.832
31266W        W92929  22.220  36.378  11.544
31267W        W92930  15.821  26.636  13.941
31268W        W92931  17.220  32.447  11.505
31269W        W92932  30.020  28.979  13.377
31270W        W92933  28.489  26.657   0.466
31271W        W92934  18.761  38.878   5.209
31272W        W92935  12.740  27.645   4.121
31273W        W92936  34.010   1.908  14.864
31274W        W92937  43.831   2.898  10.911
31275W        W92938  44.779   5.814  11.577
31276W        W92939   8.823  19.640  13.834
31277W        W92940  20.574  42.863  13.474
31278W        W92941  36.359  31.967   4.259
31279W        W92942  42.895  33.381   2.251
31280W        W92943  18.662  18.102   2.763
31281W        W92944  27.600  26.116  12.019
31282W        W92945   4.902  13.669  11.948
31283W        W92946  24.189  21.076   4.237
31284W        W92947  41.914  33.619   3.713
31285W        W92948  42.884  28.456   0.793
31286W        W92949  17.178  11.740   5.082
31287W        W92950  21.146   6.781  10.938
31288W        W92951  23.633   6.299   4.836
31289W        W92952  40.436   6.290   0.943
31290W        W92953   2.750   0.302  11.477
31291W        W92954  42.861  18.106  10.456
31292W        W92955  24.576  12.642   3.652
31293W        W92956  30.099   5.313  13.400
31294W        W92957   7.700  31.427   2.328
31295W        W92958  23.999  36.921  11.069
31296W        W92959  16.298  19.567   4.208
31297W        W92960  23.607   0.326   2.324
31298W        W92961  26.582  36.443   3.783
31299W        W92962  37.069  10.663   1.924
31300W        W92963  22.116  12.696   2.228
31301W        W92964  36.429  17.627   3.366
31302W        W92965  17.277  13.610   4.627
31303W        W92966  21.741  11.216   4.655
31304W        W92967   9.871   1.924   0.371
31305W        W92968  32.994  15.173   0.250
31306W        W92969  24.713  36.904  13.879
31307W        W92970  16.191  24.679   1.273
31308W        W92971  21.626  29.117  14.995
31309W        W92972  22.125   8.696   5.107
31310W        W92973   1.732  35.086   3.192
31311W        W92974  26.484   0.778   1.420
31312W        W92975  22.156   6.398   0.827
31313W        W92976   9.152  44.265   4.243
31314W        W92977  36.417  25.617  12.464
31315W        W92978  10.281  30.948  11.612
31316W        W92979   2.326  12.360  13.412
31317W        W92980   7.300  16.270   1.794
31318W        W92981  18.633  27.499  11.399
31319W        W92982  35.459  24.208  11.440
31320W        W92983  42.941  15.787  12.987
31321W        W92984   0.430  20.028  11.463
31322W        W92985   5.922   3.349   1.783
31323W        W92986   8.323  37.886   1.291
31324W        W92987  20.573  34.987   3.862
31325W        W92988  12.792   4.880   3.290
31326W        W92989   6.868  32.441  11.578
31327W        W92990  15.791  28.535  14.818
31328W        W92991  38.329  34.554   1.249
31329W        W92992  18.112  37.344  14.286
31330W        W92993  42.968  12.198   4.810
31331W        W92994  18.106  10.750  14.802
31332W        W92995  27.611   0.857   2.387
31333W        W92996  25.708  34.940   0.935
31334W        W92997   0.423   3.820  10.504
31335W        W92998  34.944  13.280  11.433
31336W        W92999  29.543   0.771  13.044
31337W        W93000  23.015  25.203  13.794
31338W        W93001   7.878   7.704  14.813
31339W        W93002  33.401  36.587  10.450
31340W        W93003  38.850  19.651   2.662
31341W        W93004  17.662   6.812  11.557
31342W        W93005   4.841  26.178   2.799
31343W        W93006   5.221   0.776  13.035
31344W        W93007  14.760  36.967   1.439
31345W        W93008   1.375  15.589  13.422
31346W        W93009  25.706  38.540  12.573
31347W        W93010  21.598  25.562  13.984
31348W        W93011   3.269   5.334   4.343
31349W        W93012  21.151  20.179  14.289
31350W        W93013   5.812  16.777   0.434
31351W        W93014   0.468  27.637   3.319
31352W        W93015   9.313  34.933   3.749
31353W        W93016  28.131  26.586  10.432
31354W        W93017  19.042   7.882  11.555
31355W        W93018  37.402   8.665  13.537
31356W        W93019  24.523  29.137  12.959
31357W        W93020  22.554  26.034  14.337
31358W        W93021  14.117  43.839  14.395
31359W        W93022  40.537   5.327  11.942
31360W        W93023  25.118  41.786   3.236
31361W        W93024  35.937  12.821   3.149
31362W        W93025  17.299  29.982  10.422
31363W        W93026  24.216   4.812   3.697
31364W        W93027  21.614  23.520   0.480
31365W        W93028   8.853  31.110   2.288
31366W        W93029  29.023  35.440  10.596
31367W        W93030  35.945  16.143  12.087
31368W        W93031  32.085  15.160  10.598
31369W        W93032  14.111  17.183  12.893
31370W        W93033  12.297  16.636   0.856
31371W        W93034  36.979  34.412  10.897
31372W        W93035   6.287   7.222  14.436
31373W        W93036  43.372   8.284   2.278
31374W        W93037  26.590   1.422   1.374
31375W        W93038   2.958  21.756   3.787
31376W        W93039  34.883  20.127   9.486
31377W        W93040   1.774   1.848  14.434
31378W        W93041  37.567  20.039   4.685
31379W        W93042  16.153  38.850  14.914
31380W        W93043  20.121  43.310  13.057
31381W        W93044  38.980  29.165  13.805
31382W        W93045  35.005   6.713   1.897
31383W        W93046  16.693  35.360   2.257
31384W        W93047  34.529  12.704  13.840
31385W        W93048  26.099  42.997  14.988
31386W        W93049   5.214   4.898  12.017
31387W        W93050   9.377  24.561  13.051
31388W        W93051  11.685  30.620   4.339
31389W        W93052  40.029  32.974  13.962
31390W        W93053   6.372   0.430  10.499
31391W        W93054   2.809  43.380  14.344
31392W        W93055  31.605  37.866   3.863
31393W        W93056  26.507  43.445  12.910
31394W        W93057  35.567  24.508   3.342
31395W        W93058  15.586  32.961  13.377
31396W        W93059  38.364  44.455  10.554
31397W        W93060   6.895  23.086   3.721
31398W        W93061  12.243   2.365  10.889
31399W        W93062  10.713  30.590   5.298
31400W        W93063  26.953  33.381   2.271
31401W        W93064  43.440  31.098  12.939
31402W        W93065  18.698  27.506  14.897
31403W        W93066  23.699  36.934  11.975
31404W        W93067  17.582  18.732  13.378
31405W        W93068  22.028  39.343  12.000
31406W        W93069  43.020  14.267   2.785
31407W        W93070  14.265  28.132   1.831
31408W        W93071  23.141  36.360   1.441
31409W        W93072   1.738  24.492   0.757
31410W        W93073   0.339  21.064   2.250
31411W        W93074  39.827  33.559   0.410
31412W        W93075   0.777   3.738  11.461
31413W        W93076  30.430  15.644   3.780
31414W        W93077  32.976  43.011   1.823
31415W        W93078   3.922  26.471   1.278
31416W        W93079   2.357  29.474  10.472
31417W        W93080  41.972  38.389  11.010
31418W        W93081  40.327  24.062   3.280
31419W        W93082  18.614   5.385  11.497
31420W        W93083  42.999   2.395   1.264
31421W        W93084  34.087   4.442   2.740
31422W        W93085  13.198   1.240   3.230
31423W        W93086  30.508  22.187   1.309
31424W        W93087   2.444   1.778   9.944
31425W        W93088  11.332  28.934  14.325
31426W        W93089  36.908  43.960   3.648
31427W        W93090   7.302   4.423  13.353
31428W        W93091   2.774  36.551   4.126
31429W        W93092  28.168  38.943   4.244
31430W        W93093  27.158  20.208  10.931
31431W        W93094  16.595  13.695   0.283
31432W        W93095  18.149  10.711  10.929
31433W        W93096  42.491  40.542   0.437
31434W        W93097  15.323  41.796   3.322
31435W        W93098  10.330  30.652  12.539
31436W        W93099  14.740   2.419  12.003
31437W        W93100  36.571  40.361   3.640
31438W        W93101  15.636  12.251   1.317
31439W        W93102  28.525  35.401   0.400
31440W        W93103  30.101  35.375   3.168
31441W        W93104  37.993   1.916   2.306
31442W        W93105  23.552  31.088   1.801
31443W        W93106  38.905  20.231  10.446
31444W        W93107  27.181   2.423   4.176
31445W        W93108  12.298   1.421  12.870
31446W        W93109  43.892  39.842  12.914
31447W        W93110  10.190  12.313   5.289
31448W        W93111  12.717  40.985  11.021
31449W        W93112   8.229  24.158   3.798
31450W        W93113  27.627  28.057  12.864
31451W        W93114  18.111  22.546  13.521
31452W        W93115   5.876  18.063  11.439
31453W        W93116  29.146   8.889   0.812
31454W        W93117   2.398  25.034  12.085
31455W        W93118  35.535  40.379  13.399
31456W        W93119  18.217  27.479   2.753
31457W        W93120  30.021  11.279  13.050
31458W        W93121  32.585   4.415  12.413
31459W        W93122  31.064  31.473  14.978
31460W        W93123  36.548  28.672   0.353
31461W        W93124  13.648   3.899  12.974
31462W        W93125  25.514   1.731   1.281
31463W        W93126  32.572   5.341   4.119
31464W        W93127   6.416   6.397   0.936
31465W        W93128   2.447  40.960   4.603
31466W        W93129  41.447  11.718   0.379
31467W        W93130   4.292  13.714   3.281
31468W        W93131  30.107  40.829   4.744
31469W        W93132  34.933  40.839   1.849
31470W        W93133  15.256  44.443  14.396
31471W        W93134   7.227  17.191   2.818
31472W        W93135  21.228  34.381   1.292
31473W        W93136  12.814  13.613  12.949
31474W        W93137  20.647   8.780   4.219
31475W        W93138  39.875  34.486  13.846
31476W        W93139  39.042   0.482  12.077
31477W        W93140  17.067  24.012  14.494
31478W        W93141  16.653  31.421   2.270
31479W        W93142  25.602  31.543   4.281
31480W        W93143  14.708  13.742   1.274
31481W        W93144  18.663   4.400  11.923
31482W        W93145  23.535  24.013   0.788
31483W        W93146  43.361  35.531  10.991
31484W        W93147   2.237  15.240  12.833
31485W        W93148  17.723   2.961  13.953
31486W        W93149  36.935  13.631  12.553
31487W        W93150  41.895  20.045   4.168
31488W        W93151  28.964  30.490  14.430
31489W        W93152   2.246  15.204   4.310
31490W        W93153  30.954  43.365  14.442
31491W        W93154  14.820  37.358   4.617
31492W        W93155  37.499  40.908  13.035
31493W        W93156  39.360  44.010  13.471
31494W        W93157  15.743   8.405   0.300
31495W        W93158  44.818  10.760   2.301
31496W        W93159  43.450  41.492   0.727
31497W        W93160  43.293  19.778   1.220
31498W        W93161  20.621  42.518  12.833
31499W        W93162   2.252  33.945   4.637
31500W        W93163  28.967  25.538   2.690
31501W        W93164   8.684  36.915  12.844
31502W        W93165  16.318  42.480   2.338
31503W        W93166   3.954  33.561  12.567
31504W        W93167  37.851  27.662  12.010
31505W        W93168  39.932  39.813   0.474
31506W        W93169  42.388  31.485  14.866
31507W        W93170  18.220  15.098   3.385
31508W        W93171   0.750   5.366   3.867
31509W        W93172  35.873  14.329  14.973
31510W        W93173  12.693  27.564   3.826
31511W        W93174  43.914  43.864  11.937
31512W        W93175  34.943   6.252   4.340
31513W        W93176  21.212  18.645  11.889
31514W        W93177   5.358  44.844   0.808
31515W        W93178  27.160   6.787  10.645
31516W        W93179   7.263  38.859   2.389
31517W        W93180  31.986   8.860   1.881
31518W        W93181  10.787   4.879   2.794
31519W        W93182  38.389  44.449  11.433
31520W        W93183  40.948  39.375   0.817
31521W        W93184  44.765  25.203  14.286
31522W        W93185  17.228  27.687   4.300
31523W        W93186   0.796  34.508  12.500
31524W        W93187  19.141   3.263  12.885
31525W        W93188  28.940  31.900   3.325
31526W        W93189  18.251   8.193   4.288
31527W        W93190  16.219   2.940  13.011
31528W        W93191  38.480  16.159   4.786
31529W        W93192   6.260  16.695   1.301
31530W        W93193   8.317   8.191   3.636
31531W        W93194  32.886  24.050   4.249
31532W        W93195  19.073  38.835   4.707
31533W        W93196  24.027  34.056  11.420
31534W        W93197   9.752   3.267   0.368
31535W        W93198  14.631  35.393   5.290
31536W        W93199  16.698  19.577   0.888
31537W        W93200   9.738  19.663  11.986
31538W        W93201  37.414  29.453   2.391
31539W        W93202  33.970  20.616   0.340
31540W        W93203  10.738  39.428   4.754
31541W        W93204  42.019  27.179   0.247
31542W        W93205  11.644  28.071  11.445
31543W        W93206  22.518  32.932   1.250
31544W        W93207  30.061   5.900  11.426
31545W        W93208  13.700   6.880  10.925
31546W        W93209   5.420  26.491   2.417
31547W        W93210  14.812  18.691   2.267
31548W        W93211  27.467  26.044   3.380
31549W        W93212   3.355  34.545  10.047
31550W        W93213  15.147  22.561  11.929
31551W        W93214  26.986  27.611  14.005
31552W        W93215  33.024  15.622   1.824
31553W        W93216  20.074  42.817   1.374
31554W        W93217  37.991   8.725  12.035
31555W        W93218  39.949  39.933  14.923
31556W        W93219   2.926  25.157  11.111
31557W        W93220  24.698  31.644   3.689
31558W        W93221   0.354  16.130  14.982
31559W        W93222  33.413  31.023  14.806
31560W        W93223  14.135  24.099   0.464
31561W        W93224  43.939  35.499  11.450
31562W        W93225  44.773  26.976  14.032
31563W        W93226  10.376  15.691  13.858
31564W        W93227  24.091  27.096   2.288
31565W        W93228   0.921  29.652  12.394
31566W        W93229  32.896  43.780   2.751
31567W        W93230  14.323   8.846   0.302
31568W        W93231   6.825  23.239   4.299
31569W        W93232  12.736  15.101   0.879
31570W        W93233  17.673  41.422  11.016
31571W        W93234   3.345  16.643   4.708
31572W        W93235  11.370  28.633  10.933
31573W        W93236  14.209   1.735   2.866
31574W        W93237   7.704  25.505  14.835
31575W        W93238   1.325   5.800  12.404
31576W        W93239  40.014  23.735  12.487
31577W        W93240  44.938  19.088   3.850
31578W        W93241  16.798  24.188  11.054
31579W        W93242  14.284   8.197  12.051
31580W        W93243  40.969   4.735  14.283
31581W        W93244  11.136  37.847  12.867
31582W        W93245   6.357  44.308   1.363
31583W        W93246   5.855   6.684  10.602
31584W        W93247  36.432   6.385   2.892
31585W        W93248  43.452  34.922   0.376
31586W        W93249  42.797  15.596  14.932
31587W        W93250  44.383   4.774   1.733
31588W        W93251  30.097  28.941  13.064
31589W        W93252  40.393  31.593   1.231
31590W        W93253  42.326  11.628   2.338
31591W        W93254   2.346  27.631   3.231
31592W        W93255  27.570  14.645  12.490
31593W        W93256  39.511  42.425   4.798
31594W        W93257   3.257  11.293  12.528
31595W        W93258  11.665   9.749   4.271
31596W        W93259   8.674  26.082  14.881
31597W        W93260  33.131  22.179   3.147
31598W        W93261  43.876  19.112   3.279
31599W        W93262  40.992  42.011  10.902
31600W        W93263   2.862   2.797  10.615
31601W        W93264  33.097   8.194   1.907
31602W        W93265  20.637  23.515   2.804
31603W        W93266  34.593  43.770  12.011
31604W        W93267  39.537  30.445  10.631
31605W        W93268  23.622  42.345  10.887
31606W        W93269   5.860  21.691  12.893
31607W        W93270  28.122  28.502   2.894
31608W        W93271   7.414  31.452   2.703
31609W        W93272   0.253  21.682   1.401
31610W        W93273  13.223  32.967   1.376
31611W        W93274  34.452  21.082  12.877
31612W        W93275   1.280  26.102   1.336
31613W        W93276  12.300   4.719   4.727
31614W        W93277  43.992  22.715  14.924
31615W        W93278  17.601  12.254   0.758
31616W        W93279  34.042  36.081   2.830
31617W        W93280  20.099  31.623  14.969
31618W        W93281  33.409  28.650  14.880
31619W        W93282  21.025  17.770  10.959
31620W        W93283  20.700  14.690   5.321
31621W        W93284  30.921   1.312  14.494
31622W        W93285  15.135  15.210  12.894
31623W        W93286  44.982   1.340   3.681
31624W        W93287  15.733  18.187   4.740
31625W        W93288  17.724  39.849   4.760
31626W        W93289   9.717  26.554   0.359
31627W        W93290   4.350  41.305   4.319
31628W        W93291   4.304   8.885   2.391
31629W        W93292  32.447  42.000   1.835
31630W        W93293   2.356  22.578  12.453
31631W        W93294  39.938  30.444   4.765
31632W        W93295  13.342  14.603  11.565
31633W        W93296  26.072  36.873  10.507
31634W        W93297  32.955  43.382   1.225
31635W        W93298  11.250  16.594  13.374
31636W        W93299  16.227  35.549  12.071
31637W        W93300   9.885   9.808   1.757
31638W        W93301  11.726  41.447   0.846
31639W        W93302   1.444  16.632  12.975
31640W        W93303  26.137  22.569  10.521
31641W        W93304  37.925  13.248  11.402
31642W        W93305  12.116   0.408  12.548
31643W        W93306  14.776  36.936  11.064
31644W        W93307   8.229  44.910   0.830
31645W        W93308   6.918  11.363   4.812
31646W        W93309   4.835  35.897  13.485
31647W        W93310  35.027  43.878  11.008
31648W        W93311   7.190  38.923   3.845
31649W        W93312  44.846   5.278  12.383
31650W        W93313  25.215  21.071  11.467
31651W        W93314  28.113  24.973  14.012
31652W        W93315   2.360  30.913  13.857
31653W        W93316   5.274   9.301  13.027
31654W        W93317  37.495  41.787   2.708
31655W        W93318   6.181  12.342  11.372
31656W        W93319  27.999  36.472   1.885
31657W        W93320   9.151  39.930  10.553
31658W        W93321  20.605  34.916   1.781
31659W        W93322  42.289   4.325   2.354
31660W        W93323   2.244  26.995  12.349
31661W        W93324   2.273  41.025  12.530
31662W        W93325  39.890  37.452   0.887
31663W        W93326  18.633   0.466   2.766
31664W        W93327   6.869  24.559  11.999
31665W        W93328  35.454  37.522  14.979
31666W        W93329  15.632  44.390  10.504
31667W        W93330  23.598  15.689   3.685
31668W        W93331   5.246   3.361   4.149
31669W        W93332   3.303  17.201  12.937
31670W        W93333  30.519  11.747  14.955
31671W        W93334  42.350  16.134   4.809
31672W        W93335  12.248  10.763   4.215
31673W        W93336  43.914   0.863   1.234
31674W        W93337  33.887  17.623   0.887
31675W        W93338  16.120   6.751  14.990
31676W        W93339  43.343  29.038   4.688
31677W        W93340   2.919  17.642  13.009
31678W        W93341   1.785  10.331   4.821
31679W        W93342  24.123   3.744  12.916
31680W        W93343  16.302  10.734   4.230
31681W        W93344  25.096   1.444   2.329
31682W        W93345  11.174  21.572  14.356
31683W        W93346  37.433  31.998   0.848
31684W        W93347  43.925  39.988   0.832
31685W        W93348   2.257  13.241  12.557
31686W        W93349  39.979  44.874   2.366
31687W        W93350  25.545  11.340  14.297
31688W        W93351  34.950   1.959   3.726
31689W        W93352  19.540  31.006  12.048
31690W        W93353  29.496  33.441   3.862
31691W        W93354   3.459  13.148   4.608
31692W        W93355   9.816  21.682  11.909
31693W        W93356   0.254  22.142   0.814
31694W        W93357  34.542  40.049   1.214
31695W        W93358  33.085  31.614   0.883
31696W        W93359  26.637  42.796  14.319
31697W        W93360  44.450  12.835  14.965
31698W        W93361  26.116  18.626   3.786
31699W        W93362  23.238  38.056  14.359
31700W        W93363   0.806  27.093  14.429
31701W        W93364  33.934   4.761   1.823
31702W        W93365  15.577  43.981  13.016
31703W        W93366   7.218  28.934   0.442
31704W        W93367  37.419  28.630  14.858
31705W        W93368  26.964  34.462   2.392
31706W        W93369  19.620  28.645   2.238
31707W        W93370  26.017  24.710  11.856
31708W        W93371  36.467  19.730  11.601
31709W        W93372  28.954  21.518  13.445
31710W        W93373  19.202  16.566  11.517
31711W        W93374  22.077  24.192   1.746
31712W        W93375   1.483  38.870  11.428
31713W        W93376  15.186  13.836   4.198
31714W        W93377  24.575  36.578  14.941
31715W        W93378  18.643  42.404  11.865
31716W        W93379   4.210  32.047   0.356
31717W        W93380  41.957  12.792   5.159
31718W        W93381  40.908   6.766   1.303
31719W        W93382  20.633  32.489  12.455
31720W        W93383  29.111  37.833   0.438
31721W        W93384  30.972  21.668   1.431
31722W        W93385  44.412  23.691   0.392
31723W        W93386  41.959  22.064  14.497
31724W        W93387  30.950   9.286   4.335
31725W        W93388   1.409  19.600   3.291
31726W        W93389  20.168  35.861   4.193
31727W        W93390   1.351   3.800  13.309
31728W        W93391  25.024  44.335   4.194
31729W        W93392  34.492  24.685  12.074
31730W        W93393  17.626  28.971   2.713
31731W        W93394  30.433  36.430   1.777
31732W        W93395  26.538  44.451  13.366
31733W        W93396  39.962  39.983  11.101
31734W        W93397   8.297  41.985  14.813
31735W        W93398   3.944   6.299   1.765
31736W        W93399  42.920  27.948  12.567
31737W        W93400  25.530  17.582   4.238
31738W        W93401  22.998  25.668   3.682
31739W        W93402   0.476   1.847  12.860
31740W        W93403  17.625  39.541   3.351
31741W        W93404  14.126  23.656  14.918
31742W        W93405  25.508  28.038   9.609
31743W        W93406  16.670  35.907  13.319
31744W        W93407  17.157  17.275   0.870
31745W        W93408  26.599  22.592   4.317
31746W        W93409  17.564  11.267   3.180
31747W        W93410  43.362  25.980  11.063
31748W        W93411  35.950  20.617   2.279
31749W        W93412  21.187  44.768  14.478
31750W        W93413  35.554  19.686  14.283
31751W        W93414  25.216  18.711   5.228
31752W        W93415  33.068  27.155   4.149
31753W        W93416  30.553   5.352  11.487
31754W        W93417  15.795  27.102   3.223
31755W        W93418  35.560   8.398   3.154
31756W        W93419  22.159   9.668  13.332
31757W        W93420  16.784  29.503  11.947
31758W        W93421  18.061  23.151   3.679
31759W        W93422  41.920   3.458  13.010
31760W        W93423  27.625   7.752  14.462
31761W        W93424  19.045  22.032  12.847
31762W        W93425  27.002   9.843   4.338
31763W        W93426  44.358   4.360  13.345
31764W        W93427  38.366  39.990   2.797
31765W        W93428   4.785  26.591   2.264
31766W        W93429   0.375  44.454  13.420
31767W        W93430  26.161  25.661  14.450
31768W        W93431  30.936   6.698   4.150
31769W        W93432  44.354  15.765   4.184
31770W        W93433  34.539   5.402   5.628
31771W        W93434  34.430  14.259   4.134
31772W        W93435  28.156  22.580   3.182
31773W        W93436  28.152  43.949  11.463
31774W        W93437  33.019  24.587   9.443
31775W        W93438  32.485  26.156   2.206
31776W        W93439  33.982  32.406  14.013
31777W        W93440  12.767  18.058  13.794
31778W        W93441   7.387  37.882   3.814
31779W        W93442   7.195  35.087   0.289
31780W        W93443  41.031   0.453   4.791
31781W        W93444  38.882  11.756   2.861
31782W        W93445  29.668  37.057  14.776
31783W        W93446  12.358  19.239  10.470
31784W        W93447  20.669  38.402   0.939
31785W        W93448  38.350   1.941   0.950
31786W        W93449   6.885  42.307  10.623
31787W        W93450  19.653   9.877   0.349
31788W        W93451   8.755  30.650   9.996
31789W        W93452  30.002   7.803  11.924
31790W        W93453  44.368  18.148   4.662
31791W        W93454  30.532  39.039   9.980
31792W        W93455  21.707   1.416  14.813
31793W        W93456  17.717   3.347   1.237
31794W        W93457  38.482  25.537  10.408
31795W        W93458  41.525  43.962   2.316
31796W        W93459   9.291  12.665  10.937
31797W        W93460  32.942  41.986  11.100
31798W        W93461  24.977  16.190  12.375
31799W        W93462  12.635  36.015  10.911
31800W        W93463  25.558  18.248  13.407
31801W        W93464  15.716  26.656   4.260
31802W        W93465  32.130   3.386   1.334
31803W        W93466  25.481   0.825   1.212
31804W        W93467  31.898   2.421   0.768
31805W        W93468   1.298  11.622   4.628
31806W        W93469  43.514  42.424  12.556
31807W        W93470  19.686  22.188   2.311
31808W        W93471  37.393  24.988  12.036
31809W        W93472  34.571  10.321  13.994
31810W        W93473   7.320  19.041   0.368
31811W        W93474   0.492  13.661   0.880
31812W        W93475   3.403  35.047   1.704
31813W        W93476  39.888  41.521  14.378
31814W        W93477   3.428  30.943  12.871
31815W        W93478  36.065  31.442  12.442
31816W        W93479   3.919   4.735   2.736
31817W        W93480  31.109   3.942   2.380
31818W        W93481  31.480  27.975  12.547
31819W        W93482  43.352  15.678  12.942
31820W        W93483  34.410  13.625   3.207
31821W        W93484  13.812  20.677  11.861
31822W        W93485  35.086  44.376  12.831
31823W        W93486  24.528   6.405  12.064
31824W        W93487  33.502  12.834  12.412
31825W        W93488  33.032  33.602  12.435
31826W        W93489  17.062  21.561   3.290
31827W        W93490  17.065  29.435  12.081
31828W        W93491  20.202   7.414   3.353
31829W        W93492  20.123  29.964  14.474
31830W        W93493  26.699  43.930   2.215
31831W        W93494  11.787  26.542   3.197
31832W        W93495  16.183  26.678  14.335
31833W        W93496  37.461  10.848  12.459
31834W        W93497  28.569  30.443  14.935
31835W        W93498  36.440  34.439   0.354
31836W        W93499   6.288   6.774  11.893
31837W        W93500  43.813   4.214  14.432
31838W        W93501  28.475  21.754  11.946
31839W        W93502  16.682  15.218  13.471
31840W        W93503  20.086   3.776  10.575
31841W        W93504   5.229  23.169   4.724
31842W        W93505  41.293  11.683  13.954
31843W        W93506  39.343  33.568  12.933
31844W        W93507   5.837  12.841   3.334
31845W        W93508  15.165  28.977   4.181
31846W        W93509  10.840  32.623   0.946
31847W        W93510  30.456  39.854  12.988
31848W        W93511  25.482  10.359   4.664
31849W        W93512  15.144  16.772   0.924
31850W        W93513  26.481   3.825   2.721
31851W        W93514   3.773  23.232  14.975
31852W        W93515  43.796   3.850  11.956
31853W        W93516  38.874  17.722   0.751
31854W        W93517  28.623  27.468   2.330
31855W        W93518  20.697  26.002   0.943
31856W        W93519  29.088   3.252   2.388
31857W        W93520  31.084   2.957  11.492
31858W        W93521  36.586  21.184   1.708
31859W        W93522   6.388   1.295   2.888
31860W        W93523  19.567   4.266  12.851
31861W        W93524  32.469  44.452   4.744
31862W        W93525  31.612   0.985   3.384
31863W        W93526  41.956  27.029  13.011
31864W        W93527  28.073  36.536   0.912
31865W        W93528   3.832  22.556   4.347
31866W        W93529  43.973  19.224   0.827
31867W        W93530  43.786  32.568   1.839
31868W        W93531  29.969  41.916   1.331
31869W        W93532  41.972  18.554   4.301
31870W        W93533  37.043   5.889  11.948
31871W        W93534  13.343  32.564   0.406
31872W        W93535  26.034  35.593  13.907
31873W        W93536   8.289  17.100  11.494
31874W        W93537  12.278  15.256  10.614
31875W        W93538   3.844   3.235  14.296
31876W        W93539  34.517   1.772   1.287
31877W        W93540  14.277  25.189   0.245
31878W        W93541   6.251  26.989  13.405
31879W        W93542   9.889   1.769   2.178
31880W        W93543  44.413  37.450  12.370
31881W        W93544  21.027  15.672  12.044
31882W        W93545  24.641  11.764   4.605
31883W        W93546  37.877  12.147   2.843
31884W        W93547   9.388  17.576   2.816
31885W        W93548   2.965   0.869   3.768
31886W        W93549  36.487  29.490  13.840
31887W        W93550  38.399   4.698   2.377
31888W        W93551  43.982  12.340   0.437
31889W        W93552  38.456  16.807   1.876
31890W        W93553  24.076  32.613   0.410
31891W        W93554  17.246  39.819  14.320
31892W        W93555  10.878  11.352   0.763
31893W        W93556  43.912  14.791  14.810
31894W        W93557  32.431  10.694   2.748
31895W        W93558  17.662   4.332  13.500
31896W        W93559  27.541  25.077  10.602
31897W        W93560  15.786  17.747  11.925
31898W        W93561   5.771  13.321   1.351
31899W        W93562  40.838  43.344  12.011
31900W        W93563  40.969  29.630  13.365
31901W        W93564  32.425  34.405  11.939
31902W        W93565  24.053  34.908  10.153
31903W        W93566   9.273   1.820  14.881
31904W        W93567   5.378  21.676  13.051
31905W        W93568   8.695  36.900   2.667
31906W        W93569  17.728   5.822  14.296
31907W        W93570   8.162  24.013  14.834
31908W        W93571   3.296   9.716   3.845
31909W        W93572  10.720   2.822  14.495
31910W        W93573  15.179  10.709  14.447
31911W        W93574  13.134  17.106   5.104
31912W        W93575  38.438  31.084   2.871
31913W        W93576  36.978  34.020   0.878
31914W        W93577  28.523  16.313  13.064
31915W        W93578  21.570  44.358   0.468
31916W        W93579  21.660  34.987   0.921
31917W        W93580  40.543   4.389  13.536
31918W        W93581  31.072  34.558   1.754
31919W        W93582  14.296  16.624  14.014
31920W        W93583   8.357  23.028   1.871
31921W        W93584  39.930   3.417  14.347
31922W        W93585  18.109  36.467   3.263
31923W        W93586  11.629  35.018  13.840
31924W        W93587   4.309   5.804   2.192
31925W        W93588   4.330  34.459   0.248
31926W        W93589  38.490  22.220   1.912
31927W        W93590  16.299  16.095   1.915
31928W        W93591  19.566  18.557   3.206
31929W        W93592   5.831   4.762   1.259
31930W        W93593  31.507  33.416  14.883
31931W        W93594  24.109   4.279   4.271
31932W        W93595  43.458  22.511   0.279
31933W        W93596  20.538  42.286   2.748
31934W        W93597  25.130  38.073   2.387
31935W        W93598  41.470   5.765  11.568
31936W        W93599  24.990  35.537  12.061
31937W        W93600   4.710   1.779  13.516
31938W        W93601  24.152  12.314  13.832
31939W        W93602  39.858  12.199  14.493
31940W        W93603   3.766  21.654   2.205
31941W        W93604   4.937   4.837   3.749
31942W        W93605   6.258   4.284   2.779
31943W        W93606  11.323   6.835  10.977
31944W        W93607  34.473  23.687  10.565
31945W        W93608  40.972  28.601   4.658
31946W        W93609  37.043  39.826  11.094
31947W        W93610  21.102  24.182   0.367
31948W        W93611  21.254  42.856  13.820
31949W        W93612   7.353  43.420   4.316
31950W        W93613  43.408   8.371   4.686
31951W        W93614  11.252   2.722  14.846
31952W        W93615   0.398  33.989   0.433
31953W        W93616  12.611  14.658   5.215
31954W        W93617  43.394  21.144   9.960
31955W        W93618   8.772  30.606  13.484
31956W        W93619  31.638  12.673  11.053
31957W        W93620  30.079  28.939   1.775
31958W        W93621  20.209  26.034  10.425
31959W        W93622  19.185  19.195   2.268
31960W        W93623  10.711   6.195  12.502
31961W        W93624  38.898   6.723   3.311
31962W        W93625  30.585  41.894   0.344
31963W        W93626  17.663  29.479   3.253
31964W        W93627  30.436  43.977  12.476
31965W        W93628  41.876  40.041   0.288
31966W        W93629  34.103  13.314  14.462
31967W        W93630  32.561  10.694  14.388
31968W        W93631   2.956  10.250   0.254
31969W        W93632  37.556  15.110  10.969
31970W        W93633  12.849  33.621  12.572
31971W        W93634  32.573  42.019   0.471
31972W        W93635  17.643  33.380   1.239
31973W        W93636  16.660  23.985   2.211
31974W        W93637  32.988  42.950   3.381
31975W        W93638  29.027  19.222   1.351
31976W        W93639  11.657  13.152   0.338
31977W        W93640   7.379  39.326  12.400
31978W        W93641  27.652  30.606   4.223
31979W        W93642  22.170  26.557   3.285
31980W        W93643  44.912  33.537   0.404
31981W        W93644   9.865  15.277  10.608
31982W        W93645  30.415  39.337   1.282
31983W        W93646   5.918  42.942  11.402
31984W        W93647   1.782  21.524   1.722
31985W        W93648   9.650   8.295   3.835
31986W        W93649  19.070  21.663  14.295
31987W        W93650  30.649   1.846   3.190
31988W        W93651  38.375  18.072   0.852
31989W        W93652  28.560  30.616   4.274
31990W        W93653   5.393  29.008   0.267
31991W        W93654  42.960  41.842  10.910
31992W        W93655   4.269  39.051  11.442
31993W        W93656  26.683  21.683  13.453
31994W        W93657  11.343   2.824  12.960
31995W        W93658  23.178  40.031  12.077
31996W        W93659   6.405  28.636  10.506
31997W        W93660  27.965  34.969  12.843
31998W        W93661   3.720  42.988  13.954
31999W        W93662  16.148  13.337  14.334
32000W        W93663  36.990  31.642   3.759
32001W        W93664  14.317  41.329  10.119
32002W        W93665  16.207  30.631  14.501
32003W        W93666   5.392  26.567  10.457
32004W        W93667   2.429  16.568  12.370
32005W        W93668  38.570   0.760   3.631
32006W        W93669  14.143  29.048   1.344
32007W        W93670   7.297  10.260  14.981
32008W        W93671  15.768  37.518  12.548
32009W        W93672  42.380  19.599   1.734
32010W        W93673  39.475   1.958  10.895
32011W        W93674  17.304  41.403   4.662
32012W        W93675  14.118  13.118   2.234
32013W        W93676  31.595  23.514   1.919
32014W        W93677  16.675  39.357   0.966
32015W        W93678   4.262  44.397  11.522
32016W        W93679  38.967  28.161   4.179
32017W        W93680  17.116   1.962   3.287
32018W        W93681  28.002  33.039   3.302
32019W        W93682   8.819   8.847  14.879
32020W        W93683  14.716  35.396  13.505
32021W        W93684   0.372  16.261   3.181
32022W        W93685  12.328  23.497   3.740
32023W        W93686  18.189   1.839   4.812
32024W        W93687  26.079  15.158   2.290
32025W        W93688  35.043  21.129   9.618
32026W        W93689  25.147  37.396   1.229
32027W        W93690  37.508  17.587   4.166
32028W        W93691   3.820  18.714   2.826
32029W        W93692  13.826  17.737  12.889
32030W        W93693  40.848  24.638   3.233
32031W        W93694   5.865  39.033   1.930
32032W        W93695  33.935   6.209  12.413
32033W        W93696  44.975  43.509  13.032
32034W        W93697  22.645  32.069  12.404
32035W        W93698  31.133   9.230   4.766
32036W        W93699  30.981  36.861  12.866
32037W        W93700   2.734  18.671  12.401
32038W        W93701  42.780  29.431  13.834
32039W        W93702   0.757   3.829  12.010
32040W        W93703  10.677  22.561  12.823
32041W        W93704  34.893  36.915  10.488
32042W        W93705  43.425  29.500   4.709
32043W        W93706  37.483  39.868  13.401
32044W        W93707  39.956  20.122   4.139
32045W        W93708   5.758  37.525   0.847
32046W        W93709  18.631   7.411   3.707
32047W        W93710  16.173  24.600  12.963
32048W        W93711  21.719   8.862   2.810
32049W        W93712  31.142  20.182  10.630
32050W        W93713  40.389  12.658   3.279
32051W        W93714  32.622  16.216  14.002
32052W        W93715  29.069   0.982  14.016
32053W        W93716  41.437  29.519  13.437
32054W        W93717  17.231   5.332   2.319
32055W        W93718  43.821   5.816   2.247
32056W        W93719   9.707  30.058  13.924
32057W        W93720  12.838  24.121  13.499
32058W        W93721  26.671  44.005  13.430
32059W        W93722  17.708  11.314   2.870
32060W        W93723  11.647  41.469  13.346
32061W        W93724  31.645  10.804   2.727
32062W        W93725  19.713  44.932  13.479
32063W        W93726  35.567  33.436   1.341
32064W        W93727   8.850   4.254   4.769
32065W        W93728  23.017  17.619  14.407
32066W        W93729  32.063  44.318  12.065
32067W        W93730  31.939  20.203   0.411
32068W        W93731  26.209  36.577  11.909
32069W        W93732   2.931  21.152  11.011
32070W        W93733  41.359  18.276   0.482
32071W        W93734  16.570  42.372  14.445
32072W        W93735  17.626  33.975  10.890
32073W        W93736  44.397  30.127   2.242
32074W        W93737  39.031  27.128  14.784
32075W        W93738  27.520   5.297   3.325
32076W        W93739  38.901  16.724   0.362
32077W        W93740  22.737  34.964  10.124
32078W        W93741  30.607  26.472  13.989
32079W        W93742   1.790  12.205   1.788
32080W        W93743  24.045  10.159  11.402
32081W        W93744   1.801  12.150  13.535
32082W        W93745  36.366  27.553   3.259
32083W        W93746  22.125  43.968  13.940
32084W        W93747  21.588  35.906  11.448
32085W        W93748  15.105  17.602   4.269
32086W        W93749  20.208  41.975  14.815
32087W        W93750  32.124  23.023  13.978
32088W        W93751  34.600  40.522  14.968
32089W        W93752  35.945   4.234  13.908
32090W        W93753   9.282  31.476   4.784
32091W        W93754   9.744  12.258   4.673
32092W        W93755  41.997  38.561   1.912
32093W        W93756  10.676   0.946   3.667
32094W        W93757  32.462  27.056   2.669
32095W        W93758  44.268  16.122  11.035
32096W        W93759   9.310  13.301  14.864
32097W        W93760  10.790  10.683  14.434
32098W        W93761   4.395  37.428  11.491
32099W        W93762  15.154  43.273   0.415
32100W        W93763   5.743  29.001   0.405
32101W        W93764  12.679   6.235   3.270
32102W        W93765   0.395  24.481   2.766
32103W        W93766  23.593   1.971  11.427
32104W        W93767  10.661  41.838  12.835
32105W        W93768  34.035  42.468   1.792
32106W        W93769  28.044  44.356   0.440
32107W        W93770  23.550  10.807  13.339
32108W        W93771   3.367  27.991   4.779
32109W        W93772  18.130  14.172   1.695
32110W        W93773  21.105  16.260   4.204
32111W        W93774  42.521  25.474  14.976
32112W        W93775  36.012  14.310   1.333
32113W        W93776  23.171  31.069  10.519
32114W        W93777  25.098   5.203   2.724
32115W        W93778  41.809  36.487  12.883
32116W        W93779  36.874  44.446   0.962
32117W        W93780  22.717  39.494   3.733
32118W        W93781   2.254  10.822   4.710
32119W        W93782  34.608  38.918  14.499
32120W        W93783  28.938  31.629   0.281
32121W        W93784  38.413  39.396   0.858
32122W        W93785  30.164  11.665   3.799
32123W        W93786  19.052  41.312  13.545
32124W        W93787  30.036  22.574   4.836
32125W        W93788  23.566   3.219   3.314
32126W        W93789   4.377   3.917  12.445
32127W        W93790  17.122   1.244  10.419
32128W        W93791  23.631  25.119   1.799
32129W        W93792  39.858   6.707   9.938
32130W        W93793  35.891  15.084   3.668
32131W        W93794  28.088   0.392  11.052
32132W        W93795  26.468  24.521   0.844
32133W        W93796   1.435  24.975  14.284
32134W        W93797  41.889   9.249  13.880
32135W        W93798  13.821   9.869  13.468
32136W        W93799  19.543   4.245  13.942
32137W        W93800  23.215  26.696  14.501
32138W        W93801  40.045   0.776  10.518
32139W        W93802  30.996  22.221  13.495
32140W        W93803   1.931  17.249  12.944
32141W        W93804  14.138  30.490   0.364
32142W        W93805  21.716  32.600   3.246
32143W        W93806   2.287  32.406   3.364
32144W        W93807  35.003  28.077   4.263
32145W        W93808   1.414  29.087   3.232
32146W        W93809  33.947  36.457   2.285
32147W        W93810   1.848  32.582  10.899
32148W        W93811   6.811   8.165   4.748
32149W        W93812  44.786  29.171  14.476
32150W        W93813  23.065   2.359  11.011
32151W        W93814  39.844   5.275  11.903
32152W        W93815  30.112  36.871  11.460
32153W        W93816  29.501  33.908  11.973
32154W        W93817  29.098  21.736  12.076
32155W        W93818  22.727  22.673  12.349
32156W        W93819  18.675  15.617  11.871
32157W        W93820  16.774  30.005   0.939
32158W        W93821  22.635   4.369  13.861
32159W        W93822  19.755  27.473   2.179
32160W        W93823  20.264  31.077  11.393
32161W        W93824  38.957  15.325   0.770
32162W        W93825  19.767  19.573   1.898
32163W        W93826  18.633   6.679  11.104
32164W        W93827  41.405  17.680   0.908
32165W        W93828  33.395  22.711   2.714
32166W        W93829  25.194  31.588  13.441
32167W        W93830  23.232  20.166  13.508
32168W        W93831  31.937  24.209   5.138
32169W        W93832  28.056  10.257   4.604
32170W        W93833   1.777  12.739   3.781
32171W        W93834  17.177   0.442  11.463
32172W        W93835  12.146   0.762  10.897
32173W        W93836   5.869  34.016   2.839
32174W        W93837  20.035  40.542  14.461
32175W        W93838  22.701  29.147  10.492
32176W        W93839  19.537  32.394   2.313
32177W        W93840  11.801  31.484   0.765
32178W        W93841  21.604   7.725   4.263
32179W        W93842  24.656  36.026   1.802
32180W        W93843   8.283  15.771   3.851
32181W        W93844  14.237  41.917   4.248
32182W        W93845  18.763  16.264  13.808
32183W        W93846  19.729   1.360  10.066
32184W        W93847  23.144  22.615  13.978
32185W        W93848  35.438   4.912   4.177
32186W        W93849   9.837  37.928  10.539
32187W        W93850  14.187   0.494  12.498
32188W        W93851   2.878  35.427  14.888
32189W        W93852  38.431  43.452  11.928
32190W        W93853  11.850  23.124  13.884
32191W        W93854  16.729  10.277   1.429
32192W        W93855   4.939  27.682   4.651
32193W        W93856  12.119  12.344   3.841
32194W        W93857  31.972  33.459   4.139
32195W        W93858  21.024  43.905  14.761
32196W        W93859   3.815  34.592  10.966
32197W        W93860  21.043  14.670   5.762
32198W        W93861  40.891  29.034  11.970
32199W        W93862  38.841  37.352  13.862
32200W        W93863   8.786   2.783  10.474
32201W        W93864  10.274  30.422   2.778
32202W        W93865   4.445   4.747   1.904
32203W        W93866  35.069  22.200   2.721
32204W        W93867  39.365  42.016  13.504
32205W        W93868  21.119   5.400  11.474
32206W        W93869  13.732  21.160  14.493
32207W        W93870  29.055   5.250   3.718
32208W        W93871  35.464   2.423  13.971
32209W        W93872  18.208  31.995   1.399
32210W        W93873   2.827   0.441   3.194
32211W        W93874  17.776   5.379  14.470
32212W        W93875   5.724  32.986   4.149
32213W        W93876   1.840   0.452   0.926
32214W        W93877  15.629  29.424   2.693
32215W        W93878  25.160  29.610  11.873
32216W        W93879  33.038  35.510   1.361
32217W        W93880  40.471  28.575  11.024
32218W        W93881  14.340  41.972   3.308
32219W        W93882   0.443  10.241   3.768
32220W        W93883  15.722  38.416   4.831
32221W        W93884  17.227  15.156  12.370
32222W        W93885   4.750  28.982   1.211
32223W        W93886  24.176  12.313  12.067
32224W        W93887  21.178   4.368   3.661
32225W        W93888  41.316  34.101  12.510
32226W        W93889  39.334  26.619  13.520
32227W        W93890  33.499  14.711   1.931
32228W        W93891   1.451  44.352   1.217
32229W        W93892  41.397   7.189   0.276
32230W        W93893  21.527  11.741  13.939
32231W        W93894  21.192  38.835   4.735
32232W        W93895   7.793  23.188  13.813
32233W        W93896  15.231   6.856  13.450
32234W        W93897  19.213  30.013   2.375
32235W        W93898  11.746  17.249  10.959
32236W        W93899  30.474  10.830   3.225
32237W        W93900  41.446  37.045   4.806
32238W        W93901  25.089  42.415   4.343
32239W        W93902  15.807  25.707  13.959
32240W        W93903  19.079  12.278  12.929
32241W        W93904  20.046  24.996  10.901
32242W        W93905   0.926  18.054   3.265
32243W        W93906  22.133   1.780   1.279
32244W        W93907  23.552  40.972  11.469
32245W        W93908  15.306  22.599   4.821
32246W        W93909  35.555  39.967  13.813
32247W        W93910  32.595  24.063  12.948
32248W        W93911  37.973  32.059  12.489
32249W        W93912   7.765  23.666   9.966
32250W        W93913   0.916  37.877   0.861
32251W        W93914  39.842  33.082  14.481
32252W        W93915  14.778  16.729   4.308
32253W        W93916  42.383  33.089  12.862
32254W        W93917   9.358  41.400  13.342
32255W        W93918  22.658  41.395   0.834
32256W        W93919  19.695  23.027   1.357
32257W        W93920  41.930   6.191   2.729
32258W        W93921  29.557   7.381   4.278
32259W        W93922  18.757  21.166  10.460
32260W        W93923  18.127   0.930  11.053
32261W        W93924  39.038   2.890  14.946
32262W        W93925  25.539  16.169  13.858
32263W        W93926   4.929  15.283  11.113
32264W        W93927  32.993   1.908   0.470
32265W        W93928  35.382  43.274   2.402
32266W        W93929  26.508   2.924  13.027
32267W        W93930  44.938  18.193  14.298
32268W        W93931  30.577   9.678  13.935
32269W        W93932  27.487  16.793  12.867
32270W        W93933  35.026  26.618  11.389
32271W        W93934   7.176   1.884  11.379
32272W        W93935  33.389  33.483  12.408
32273W        W93936  29.581  41.872  11.055
32274W        W93937   6.220   6.726   0.810
32275W        W93938  39.373  22.140  12.538
32276W        W93939  12.285  18.231  13.473
32277W        W93940  27.126   5.832   2.300
32278W        W93941  20.205  24.179   4.693
32279W        W93942  21.238   0.284   1.249
32280W        W93943  42.021  25.502  14.942
32281W        W93944  28.447  18.637   0.428
32282W        W93945  21.724  26.579  11.422
32283W        W93946  11.136  34.390   2.206
32284W        W93947  23.030  23.495   0.274
32285W        W93948  42.422  44.429   2.723
32286W        W93949   7.760  13.138  10.942
32287W        W93950  36.350  31.145   4.215
32288W        W93951  31.592  37.883   0.828
32289W        W93952  14.780  21.638  13.053
32290W        W93953  30.447  21.128   0.907
32291W        W93954  16.734   1.263  10.428
32292W        W93955   3.349  41.354  10.926
32293W        W93956  19.080  35.092  13.481
32294W        W93957  20.651  16.138   2.257
32295W        W93958  44.942  15.724   3.754
32296W        W93959   5.721  34.556   1.394
32297W        W93960  42.464  22.051   4.597
32298W        W93961  40.815   5.833   3.747
32299W        W93962  28.580  34.921   4.697
32300W        W93963  35.402  27.109  14.846
32301W        W93964  29.083  21.601  11.111
32302W        W93965  34.611  31.407  13.323
32303W        W93966   5.284   5.746  14.344
32304W        W93967  36.586  41.951  11.997
32305W        W93968  41.362  23.121  10.590
32306W        W93969  26.124  11.172   1.777
32307W        W93970  29.512  34.589  14.958
32308W        W93971   6.916  13.748   4.206
32309W        W93972   8.365  34.964  12.094
32310W        W93973  27.151  44.423   1.233
32311W        W93974   5.428  22.229  10.613
32312W        W93975  24.708  27.539  13.973
32313W        W93976  30.610  10.869   4.149
32314W        W93977  13.109   1.877   0.780
32315W        W93978  11.368  44.948  12.399
32316W        W93979   8.263  43.389   1.338
32317W        W93980   9.233  18.636   1.698
32318W        W93981  27.666   9.707   3.699
32319W        W93982  34.945   6.318  11.498
32320W        W93983   3.828   2.872  12.448
32321W        W93984  12.316  24.222  14.787
32322W        W93985   4.808  29.443   2.274
32323W        W93986  39.936  41.329   2.682
32324W        W93987  29.516   6.918  10.442
32325W        W93988   2.902  30.519  10.933
32326W        W93989  15.716  15.652   1.243
32327W        W93990  10.781  14.757  12.030
32328W        W93991  39.900  41.907   2.800
32329W        W93992   2.449  30.152  12.504
32330W        W93993  21.648  35.517  13.368
32331W        W93994  25.036  26.621   4.622
32332W        W93995  19.177  12.121  12.352
32333W        W93996  41.438  43.281  11.582
32334W        W93997  43.505   7.728  12.341
32335W        W93998   8.892  44.974   4.690
32336W        W93999  10.173  41.448  11.858
32337W        W94000  42.448  22.187  11.503
32338W        W94001  19.683  10.198  13.506
32339W        W94002  44.765  15.276  11.089
32340W        W94003  44.868  37.865   0.295
32341W        W94004   4.448   0.447   4.337
32342W        W94005   1.459  28.563  12.827
32343W        W94006   0.757  11.805   4.250
32344W        W94007  25.213  33.510  12.021
32345W        W94008  31.096  36.049   2.351
32346W        W94009  19.215  29.433  13.928
32347W        W94010  38.941  32.568  14.835
32348W        W94011   4.204  31.551   2.782
32349W        W94012   8.234  33.023   3.165
32350W        W94013  32.017  24.114  11.017
32351W        W94014  38.914  42.493   0.264
32352W        W94015   6.302  28.582   2.294
32353W        W94016  41.857  10.728  14.816
32354W        W94017  43.940  24.686  10.465
32355W        W94018  30.456  32.067  10.417
32356W        W94019  18.590   2.356   2.689
32357W        W94020  27.166  41.382   1.279
32358W        W94021   3.786  38.932   3.803
32359W        W94022   0.916  29.057  12.550
32360W        W94023  38.949  27.101   3.727
32361W        W94024  13.788  38.857  14.987
32362W        W94025  41.446   7.192   1.270
32363W        W94026  24.481  17.140  14.791
32364W        W94027   9.292  27.082  12.832
32365W        W94028  10.334   6.379   1.428
32366W        W94029  28.056  10.846  14.899
32367W        W94030   8.216  35.941  11.570
32368W        W94031  34.947   3.330  14.275
32369W        W94032  34.048  38.894  13.811
32370W        W94033  31.440  21.180  14.472
32371W        W94034   6.730  26.120   4.167
32372W        W94035   7.792  37.560  14.783
32373W        W94036  42.361  34.885   2.185
32374W        W94037  12.748  26.574   5.210
32375W        W94038  22.571  24.502   1.409
32376W        W94039  26.094  17.238   2.714
32377W        W94040  13.732  37.941   1.228
32378W        W94041   9.207  13.157   2.845
32379W        W94042   8.244  15.317   0.352
32380W        W94043   4.385   9.661  13.488
32381W        W94044  44.776   1.914  12.095
32382W        W94045  24.516  28.981   3.654
32383W        W94046  14.671   6.834   1.768
32384W        W94047   0.987  25.969  11.554
32385W        W94048   0.903  33.113   1.213
32386W        W94049  29.122   0.942   4.254
32387W        W94050   6.700  15.155   2.835
32388W        W94051   1.341  37.939  10.907
32389W        W94052  26.491  38.541  12.359
32390W        W94053   2.409  41.384   2.330
32391W        W94054  34.530  34.067   3.863
32392W        W94055   5.393   1.283   0.752
32393W        W94056  31.546  28.471  11.926
32394W        W94057  31.553  17.178   4.231
32395W        W94058  14.735  43.777  12.579
32396W        W94059   0.865  33.609   4.319
32397W        W94060   9.337   7.356   1.367
32398W        W94061  33.469   4.445  13.949
32399W        W94062  10.713   1.473   3.669
32400W        W94063  13.728  33.907   2.330
32401W        W94064  41.946   7.253  14.933
32402W        W94065  23.002  44.415   4.159
32403W        W94066   7.673  35.949  10.962
32404W        W94067  15.328  29.588  14.006
32405W        W94068  44.801   7.815   4.238
32406W        W94069  36.964  26.653  13.416
32407W        W94070  19.656   0.948   3.287
32408W        W94071  18.643  34.929  13.435
32409W        W94072  13.651   7.836  14.435
32410W        W94073  41.442  17.200   1.402
32411W        W94074   2.764  13.165  13.894
32412W        W94075  32.054  30.539  11.894
32413W        W94076  23.104  22.227   4.278
32414W        W94077  21.632  20.537   0.897
32415W        W94078  43.372  28.543   4.790
32416W        W94079   2.817  44.924   2.753
32417W        W94080  21.198  16.589  13.409
32418W        W94081  35.603   4.258  12.415
32419W        W94082   7.684  28.117  10.644
32420W        W94083   8.341  33.382  12.512
32421W        W94084  10.364  23.687   3.705
32422W        W94085  15.172  11.368   3.180
32423W        W94086   1.779  32.977  11.973
32424W        W94087  41.404  30.164   1.279
32425W        W94088  11.326  16.275   3.206
32426W        W94089   6.251  26.151  13.917
32427W        W94090  19.594  39.970  12.475
32428W        W94091  24.532  36.868   2.346
32429W        W94092  42.411  42.326   3.811
32430W        W94093  32.637   0.837   3.740
32431W        W94094  34.951  28.446   0.957
32432W        W94095   9.351  28.040  12.557
32433W        W94096   2.904   5.372   3.350
32434W        W94097   4.749   4.811   0.857
32435W        W94098  40.364  37.533  13.317
32436W        W94099  23.546  20.131   1.290
32437W        W94100  38.360  17.726   3.826
32438W        W94101  16.751  26.469   0.757
32439W        W94102  36.519  18.087  11.059
32440W        W94103  29.004  36.867   4.290
32441W        W94104  17.662   4.772   0.398
32442W        W94105  29.459  25.468  13.927
32443W        W94106  26.093  17.714   0.475
32444W        W94107   2.888  39.047  13.832
32445W        W94108  11.258   0.425   4.643
32446W        W94109  24.998  22.184  13.507
32447W        W94110  15.801  24.218   2.290
32448W        W94111   0.948   9.162   0.404
32449W        W94112  34.609  29.952   0.392
32450W        W94113  22.672  21.535  14.502
32451W        W94114  17.701  38.459   4.276
32452W        W94115  15.317  12.184   3.642
32453W        W94116   3.267   9.810   3.322
32454W        W94117   4.436  39.973  10.576
32455W        W94118  34.542  27.165   0.252
32456W        W94119  19.770   8.290   4.292
32457W        W94120  37.938  16.218   1.787
32458W        W94121  22.696  31.431  11.390
32459W        W94122  14.261  10.156  13.877
32460W        W94123  31.151  10.300   3.848
32461W        W94124  16.098  39.360   1.808
32462W        W94125  19.602  17.249   4.247
32463W        W94126  31.021   4.237  14.792
32464W        W94127  30.605  35.593  11.458
32465W        W94128  32.948  38.505  12.904
32466W        W94129  18.560  37.919  12.985
32467W        W94130  17.261  36.462   3.797
32468W        W94131  42.506   9.835   2.252
32469W        W94132  32.540  44.946  11.945
32470W        W94133   5.424  29.534   4.212
32471W        W94134  22.226  30.965   2.315
32472W        W94135   9.715   0.749   4.267
32473W        W94136  43.275  32.535  12.517
32474W        W94137   5.280  19.143  13.524
32475W        W94138  17.801  35.900   0.780
32476W        W94139  21.673  12.287   4.141
32477W        W94140   8.834  22.618  13.837
32478W        W94141   4.444   4.906  13.405
32479W        W94142  17.092   7.298   3.677
32480W        W94143  19.681  38.951   4.346
32481W        W94144  44.418  27.949   4.171
32482W        W94145  43.335  42.024   2.276
32483W        W94146  15.580  36.019  11.545
32484W        W94147  34.097  22.563   2.676
32485W        W94148  39.030  29.462  14.502
32486W        W94149  17.203  23.632  13.063
32487W        W94150   3.322  17.275  12.572
32488W        W94151  21.636  42.024   0.330
32489W        W94152  32.589  10.666  13.865
32490W        W94153  36.973  25.031  13.532
32491W        W94154  41.359  31.430  10.902
32492W        W94155   1.320  38.980  12.489
32493W        W94156  36.983  13.631   2.844
32494W        W94157  16.266   6.331  10.956
32495W        W94158  28.578  39.390   0.950
32496W        W94159   7.803  37.876   1.232
32497W        W94160  40.464  23.197   1.718
32498W        W94161  21.645  24.612  11.575
32499W        W94162   2.879  22.690  11.513
32500W        W94163  23.499  18.735  14.767
32501W        W94164  13.135  22.243  10.490
32502W        W94165   9.228  10.877  11.535
32503W        W94166  27.105  15.144  11.584
32504W        W94167  28.528  20.054   1.931
32505W        W94168  38.850  23.626   3.312
32506W        W94169  14.145   7.684   4.158
32507W        W94170   9.231  25.658  10.975
32508W        W94171  21.037   4.791  14.496
32509W        W94172  42.004  24.662  13.421
32510W        W94173   5.894  11.298   3.836
32511W        W94174  23.556  39.366   3.813
32512W        W94175   3.818   8.345  10.953
32513W        W94176  31.085  11.198  14.477
32514W        W94177  37.985   2.962   2.308
32515W        W94178  43.308  37.836   2.239
32516W        W94179  25.219  42.410   0.301
32517W        W94180  17.778  26.611   2.301
32518W        W94181   1.936  32.533  12.913
32519W        W94182  29.495  29.961   2.743
32520W        W94183  13.210   1.958   3.215
32521W        W94184  26.547  36.579   4.599
32522W        W94185  19.578  24.622   2.272
32523W        W94186  40.336  16.766   1.331
32524W        W94187   8.279  35.080   0.952
32525W        W94188  40.317  29.493  11.024
32526W        W94189  25.592  36.569  11.502
32527W        W94190  39.372  34.385   4.810
32528W        W94191  43.427  28.031  13.367
32529W        W94192  20.547  29.615   4.264
32530W        W94193   8.166  37.926   0.447
32531W        W94194  40.997   3.328   2.807
32532W        W94195  25.696  25.157   0.365
32533W        W94196  28.599  42.032  11.397
32534W        W94197   3.252  21.113   0.451
32535W        W94198   2.421  13.318  11.954
32536W        W94199  15.229  33.487   3.832
32537W        W94200  41.397   9.725  14.435
32538W        W94201   4.807  12.673  14.775
32539W        W94202  31.403  29.652  11.458
32540W        W94203  31.995  41.431  13.511
32541W        W94204  19.268  43.393   3.716
32542W        W94205   8.851  31.989   3.795
32543W        W94206  23.240   3.906   5.179
32544W        W94207  24.121  44.765  13.798
32545W        W94208  23.130  15.098   0.329
32546W        W94209  39.035  32.595  12.055
32547W        W94210  21.042  20.220  13.429
32548W        W94211   7.355  23.122   1.824
32549W        W94212  16.703   9.715   2.393
32550W        W94213  28.941  36.347  10.890
32551W        W94214   5.752  25.216  12.824
32552W        W94215  22.136  24.587   2.781
32553W        W94216  29.519  10.770  14.915
32554W        W94217  36.895  42.392  12.392
32555W        W94218  29.057   2.299   1.427
32556W        W94219  33.463  11.738   4.713
32557W        W94220  36.485   3.879   2.705
32558W        W94221  25.174   9.885   0.363
32559W        W94222  32.008  29.468   1.335
32560W        W94223  13.299   6.903  13.507
32561W        W94224   9.865  28.553   4.729
32562W        W94225  18.169  19.579   1.754
32563W        W94226  21.241  36.072   2.367
32564W        W94227  35.457  35.408  13.396
32565W        W94228   5.817  35.996  11.985
32566W        W94229  39.328  22.028  11.996
32567W        W94230  19.091  33.916  12.509
32568W        W94231  30.074  27.953   3.318
32569W        W94232  28.969   9.875  14.275
32570W        W94233  21.524  44.417   1.260
32571W        W94234  36.892  19.598  14.299
32572W        W94235   1.974  23.692  14.340
32573W        W94236   1.482  30.453   0.741
32574W        W94237   7.674  14.713   0.826
32575W        W94238  24.137  41.010  12.886
32576W        W94239  35.950  31.641  13.373
32577W        W94240  20.676  39.363  12.361
32578W        W94241  11.810  14.766   4.728
32579W        W94242   3.816  14.650   2.210
32580W        W94243  14.721  42.449   1.912
32581W        W94244  26.664  24.518  11.946
32582W        W94245  33.570  14.272   3.787
32583W        W94246  38.540   3.310  14.918
32584W        W94247  22.185  10.802   2.682
32585W        W94248   1.434  30.554  12.042
32586W        W94249  35.407  20.755   1.254
32587W        W94250   1.947  28.461   3.374
32588W        W94251  16.747  10.228  10.430
32589W        W94252  27.167   5.708   3.730
32590W        W94253  36.890  30.975   1.921
32591W        W94254  16.780   9.754   1.870
32592W        W94255   9.212  36.462  11.484
32593W        W94256  43.306  17.146  10.159
32594W        W94257   9.887   5.759   1.841
32595W        W94258  23.712  27.142  14.313
32596W        W94259  29.525  21.061   4.343
32597W        W94260  40.965  31.086   3.779
32598W        W94261  44.783  42.428   4.785
32599W        W94262  34.428  26.967   1.237
32600W        W94263  43.798  43.372  12.406
32601W        W94264  13.227  44.858  12.896
32602W        W94265  11.710  23.194   4.761
32603W        W94266  26.036   9.279   1.702
32604W        W94267  10.641  42.479   4.809
32605W        W94268  18.779  25.094   3.379
32606W        W94269  39.974  17.220   2.746
32607W        W94270  12.264  39.017   2.378
32608W        W94271  44.758  27.539  12.065
32609W        W94272  26.977  27.107   3.639
32610W        W94273  33.057  29.053   0.964
32611W        W94274  19.729  35.053   1.215
32612W        W94275  43.943   1.865  13.023
32613W        W94276  14.164   1.390  11.419
32614W        W94277   6.298   3.222  11.491
32615W        W94278  44.802  18.625   2.699
32616W        W94279  39.030  26.505  13.319
32617W        W94280  24.478  12.817  11.079
32618W        W94281  43.019  23.663  11.576
32619W        W94282  38.484  40.521   2.379
32620W        W94283  29.052   1.964   4.241
32621W        W94284  39.453  32.417   0.405
32622W        W94285   6.240   1.961  11.090
32623W        W94286  31.519   1.778  11.013
32624W        W94287   3.394  15.673  10.426
32625W        W94288  27.969  34.384  14.425
32626W        W94289   1.913  10.340   2.805
32627W        W94290  40.014  11.204  12.856
32628W        W94291  18.688  18.553  13.935
32629W        W94292  22.021  10.688  13.400
32630W        W94293  18.619  10.808   1.819
32631W        W94294  44.953  28.977   0.254
32632W        W94295  33.454   5.408  11.964
32633W        W94296   9.719  43.823   3.682
32634W        W94297  14.743  42.468  11.965
32635W        W94298   1.297  43.327   2.815
32636W        W94299   7.282   7.413  12.990
32637W        W94300   0.801  18.596  10.933
32638W        W94301  16.778  43.899   0.464
32639W        W94302  35.451  14.712  13.804
32640W        W94303   7.767  24.500   3.772
32641W        W94304  41.982   8.789   2.216
32642W        W94305  43.820  31.080   2.685
32643W        W94306  15.295   9.707  14.333
32644W        W94307   5.236  11.663   0.357
32645W        W94308  39.853   1.865  13.915
32646W        W94309  23.228  10.859   1.392
32647W        W94310  25.660   5.433   2.810
32648W        W94311  42.960  38.536   3.333
32649W        W94312   5.408  35.483  13.370
32650W        W94313  11.301  38.959   4.123
32651W        W94314  44.478  32.408   4.665
32652W        W94315  28.130   6.418  11.931
32653W        W94316  23.999  19.581  14.833
32654W        W94317  27.112  28.666  12.550
32655W        W94318  38.910   6.716   1.834
32656W        W94319  18.181  29.146   0.756
32657W        W94320  31.953  40.050   1.794
32658W        W94321   0.939   4.442  12.893
32659W        W94322  21.549  44.946  11.883
32660W        W94323  38.339  28.107  10.417
32661W        W94324  15.302  13.316   4.283
32662W        W94325  33.125  24.994  11.480
32663W        W94326   2.942  23.697   4.214
32664W        W94327  25.177  28.459   1.320
32665W        W94328  40.856  10.295  10.488
32666W        W94329  36.015  23.508   0.780
32667W        W94330   4.403  31.959   3.802
32668W        W94331  36.386  36.519   1.759
32669W        W94332  39.933   0.772   1.879
32670W        W94333  15.094  20.061  13.442
32671W        W94334  37.563  30.435   1.415
32672W        W94335   3.298  39.969   3.362
32673W        W94336   6.820  15.126  13.843
32674W        W94337  34.078  37.396   0.277
32675W        W94338  42.021   8.218  12.980
32676W        W94339  33.985  10.711   0.441
32677W        W94340  20.562  13.224   1.875
32678W        W94341   6.758  39.951  11.488
32679W        W94342  16.279  41.447  14.895
32680W        W94343  29.965  21.216  13.412
32681W        W94344  32.597  14.326   4.134
32682W        W94345  10.776  38.929  12.855
32683W        W94346  12.146   9.245   0.441
32684W        W94347  43.804  35.089  13.052
32685W        W94348   4.260  17.664  12.347
32686W        W94349   5.699  41.950  11.980
32687W        W94350   2.226  12.718   0.439
32688W        W94351  17.270  21.260   4.830
32689W        W94352  33.935  29.160  12.063
32690W        W94353  14.112   9.806  12.883
32691W        W94354  26.538   1.965   2.282
32692W        W94355  24.554  17.643  10.476
32693W        W94356  13.834  43.390   1.373
32694W        W94357  34.888  22.548  13.857
32695W        W94358   5.353  28.489  11.544
32696W        W94359  15.150  42.499  12.064
32697W        W94360  25.158  33.944  12.048
32698W        W94361  11.246  15.672   0.354
32699W        W94362  10.870  24.657   2.316
32700W        W94363  22.075  34.449  13.366
32701W        W94364  28.064  20.732   4.761
32702W        W94365  17.747  17.776  10.566
32703W        W94366  24.115  36.963  14.776
32704W        W94367  30.644  18.551   1.277
32705W        W94368  19.234   1.479  13.053
32706W        W94369   8.800  42.011  10.927
32707W        W94370   5.803   6.194  13.351
32708W        W94371  38.893  12.788  12.951
32709W        W94372  12.654  31.099   1.779
32710W        W94373  26.995  19.188   3.348
32711W        W94374  11.761   2.231   0.375
32712W        W94375  21.249  10.184  14.815
32713W        W94376   7.726  39.855   4.351
32714W        W94377  18.183  17.704  13.921
32715W        W94378  13.325  19.734   2.229
32716W        W94379  22.200   6.299  11.867
32717W        W94380  11.690   5.261   1.442
32718W        W94381  38.840  40.513  14.422
32719W        W94382   3.245   1.438   3.813
32720W        W94383  40.962  35.864   2.686
32721W        W94384  43.868  14.632  12.080
32722W        W94385  41.506  40.428  10.947
32723W        W94386  16.085  26.522   3.690
32724W        W94387   4.447   6.193   3.683
32725W        W94388   0.882  16.703   3.700
32726W        W94389   2.877  19.049   0.447
32727W        W94390  24.510   1.869  10.552
32728W        W94391  27.039  27.641   0.416
32729W        W94392  25.198  35.477   2.179
32730W        W94393  19.080  35.441   0.830
32731W        W94394  22.136  19.567   0.264
32732W        W94395  38.897  25.516  14.327
32733W        W94396   5.687  28.011  12.000
32734W        W94397   1.414  10.714   3.783
32735W        W94398   0.756  14.717  14.918
32736W        W94399  12.758  32.403   0.911
32737W        W94400  37.865  21.655   0.461
32738W        W94401   1.254  41.994   3.177
32739W        W94402  40.897   9.374   1.861
32740W        W94403  29.608  18.742  10.447
32741W        W94404  15.577  36.029  12.368
32742W        W94405  25.094  22.080   2.881
32743W        W94406  23.505  30.516  11.075
32744W        W94407  19.625  20.582  11.052
32745W        W94408  38.334  21.022   0.836
32746W        W94409  20.635   1.370  12.902
32747W        W94410   7.736  44.290  10.082
32748W        W94411  39.547  24.615   2.194
32749W        W94412  17.654   7.754   3.278
32750W        W94413  24.012  41.441  12.873
32751W        W94414   2.371   2.761  12.560
32752W        W94415  25.145  37.085   3.776
32753W        W94416  20.710  30.004  11.032
32754W        W94417   8.893  17.639  11.460
32755W        W94418   4.755  18.241  13.024
32756W        W94419  41.904  43.515   1.296
32757W        W94420  15.284  18.157  13.453
32758W        W94421  14.775   3.791   2.845
32759W        W94422  24.556  12.786   4.757
32760W        W94423  29.493  36.352   0.258
32761W        W94424   0.421  10.832  13.340
32762W        W94425   2.290  29.558  11.609
32763W        W94426  18.788   5.338   4.602
32764W        W94427   0.870   7.775   1.370
32765W        W94428  39.442  32.957   3.189
32766W        W94429  22.019   7.897   4.117
32767W        W94430  36.909  32.000  13.382
32768W        W94431  17.557  41.861   3.154
32769W        W94432  13.328   1.968   3.757
32770W        W94433  36.543  41.954  13.816
32771W        W94434  22.019  22.529   2.807
32772W        W94435  14.100  25.124  12.880
32773W        W94436   1.890  17.246  14.947
32774W        W94437   3.380   6.206   3.801
32775W        W94438   5.742  38.482   4.669
32776W        W94439   7.383   1.942   2.306
32777W        W94440  31.079   9.888   1.923
32778W        W94441   7.228  23.057   4.759
32779W        W94442  34.451  32.534  14.364
32780W        W94443  30.469   3.437   1.386
32781W        W94444   2.779  23.117  12.860
32782W        W94445  23.042  37.038  12.383
32783W        W94446  14.210  42.418   1.348
32784W        W94447  11.319   2.238  10.586
32785W        W94448  13.804  14.683  13.396
32786W        W94449  24.671  33.973   4.778
32787W        W94450  43.793  27.117  10.459
32788W        W94451  20.265  24.522   2.300
32789W        W94452  26.619  11.793  14.286
32790W        W94453  17.618  42.426  11.457
32791W        W94454  10.818  31.055   2.375
32792W        W94455  20.158   6.199   2.850
32793W        W94456  11.135  43.851  10.448
32794W        W94457  27.503  10.376  10.573
32795W        W94458  31.936  43.485   3.276
32796W        W94459  24.565  19.065  11.417
32797W        W94460  38.863  23.119  13.942
32798W        W94461  15.258  36.896   1.398
32799W        W94462  23.513  36.906   2.791
32800W        W94463   7.381  37.836   1.931
32801W        W94464   3.429  26.595  14.284
32802W        W94465   9.183  39.398   2.806
32803W        W94466  13.748  22.527   2.368
32804W        W94467  24.187   5.738   2.730
32805W        W94468  23.567   4.938   1.707
32806W        W94469  31.614  25.704  12.494
32807W        W94470  17.751  19.112  10.897
32808W        W94471  24.048   8.197  14.315
32809W        W94472   4.728  42.445  13.537
32810W        W94473   8.241   7.899   1.865
32811W        W94474  43.944   2.414  12.898
32812W        W94475  40.999  24.101   1.898
32813W        W94476   1.896  15.759  10.993
32814W        W94477  17.659  37.479  13.858
32815W        W94478  26.626  28.971  10.044
32816W        W94479  12.776  16.806  10.943
32817W        W94480   6.821  14.336  14.903
32818W        W94481  38.364  15.660  11.111
32819W        W94482   6.391  10.304  12.956
32820W        W94483   8.290   5.267  13.797
32821W        W94484  34.914   6.280  12.000
32822W        W94485  27.064  34.436   3.807
32823W        W94486  28.673  25.546  12.391
32824W        W94487  21.743  39.469   2.366
32825W        W94488  25.657  44.365   0.737
32826W        W94489  39.519   1.791   1.307
32827W        W94490  29.517  40.319  12.502
32828W        W94491   1.332  15.792  14.784
32829W        W94492  13.334  40.022  14.871
32830W        W94493  11.322   7.244   1.706
32831W        W94494   6.717  20.582  11.477
32832W        W94495  18.098  38.045   1.867
32833W        W94496  29.663  31.548  13.000
32834W        W94497  28.659  41.440   3.317
32835W        W94498   7.798  16.214   0.243
32836W        W94499   8.873  43.328   0.888
32837W        W94500  14.208  39.396   3.806
32838W        W94501  41.399  21.125   1.446
32839W        W94502   8.240  13.199   1.757
32840W        W94503  11.157  11.831   3.337
32841W        W94504   9.344  35.996   3.735
32842W        W94505   7.669  16.177   0.732
32843W        W94506   4.433  29.478   1.240
32844W        W94507  21.086  15.194  12.031
32845W        W94508  11.368  39.360   3.860
32846W        W94509  24.158   1.383   1.404
32847W        W94510   8.250  19.574  11.019
32848W        W94511  25.210  34.886   4.767
32849W        W94512  36.988  42.498   0.258
32850W        W94513   6.762  13.335  12.464
32851W        W94514  36.353  15.770  14.796
32852W        W94515  35.489  44.473   4.707
32853W        W94516  36.934  29.011  12.916
32854W        W94517  42.365  37.577   2.193
32855W        W94518  39.915  38.331  12.546
32856W        W94519  21.132  38.065  10.542
32857W        W94520  41.474  29.995  14.830
32858W        W94521  13.775   5.434   0.861
32859W        W94522  15.084  41.028  11.544
32860W        W94523  10.695  29.031  10.615
32861W        W94524  25.595  37.392  14.804
32862W        W94525  26.994   1.938   2.705
32863W        W94526  26.670  10.287  14.953
32864W        W94527  16.766  31.642  14.362
32865W        W94528  25.499  40.367  14.323
32866W        W94529  43.323  39.375  11.998
32867W        W94530   9.361   5.687  10.607
32868W        W94531  19.576  37.448   1.415
32869W        W94532  42.897  43.441  13.417
32870W        W94533  27.553  17.210  12.950
32871W        W94534  22.623  20.761   1.285
32872W        W94535   6.378  15.814   1.310
32873W        W94536   7.756  11.143  12.960
32874W        W94537   9.367  39.429  13.365
32875W        W94538   6.807  22.141   3.699
32876W        W94539  43.359  31.125   0.316
32877W        W94540  29.989  19.253   4.192
32878W        W94541  42.865   8.891   2.256
32879W        W94542  24.700  22.574  11.611
32880W        W94543  21.725  23.700   1.430
32881W        W94544  13.796  14.285  14.886
32882W        W94545  42.802  33.459  13.315
32883W        W94546  24.691   3.232  11.531
32884W        W94547  40.339  10.210  13.544
32885W        W94548   8.781  19.196  12.062
32886W        W94549   8.371   8.298   2.739
32887W        W94550  18.653   3.951  10.941
32888W        W94551  37.483  40.347   4.619
32889W        W94552  33.479   2.379  10.958
32890W        W94553  35.435  15.769   3.222
32891W        W94554   0.809   1.404   0.365
32892W        W94555  22.565  29.572  14.837
32893W        W94556  28.642  26.544   2.831
32894W        W94557  43.431  24.576  11.056
32895W        W94558  34.384  39.998  12.931
32896W        W94559  28.981   9.762  13.521
32897W        W94560  12.662   8.830   3.261
32898W        W94561  25.591  15.677   1.362
32899W        W94562  37.520  23.081   3.364
32900W        W94563   7.330   4.788   1.277
32901W        W94564  12.639  13.331  12.948
32902W        W94565  19.599  16.712  14.497
32903W        W94566  39.377  10.737  13.454
32904W        W94567  35.881  24.652  14.978
32905W        W94568  26.985  24.676  10.945
32906W        W94569  43.322  11.635   4.727
32907W        W94570   0.910  27.979  14.852
32908W        W94571  30.074  35.080   3.764
32909W        W94572  41.864  40.493  11.859
32910W        W94573   6.249   5.774  11.091
32911W        W94574  25.499  34.019   1.802
32912W        W94575  14.157  13.139   1.232
32913W        W94576  21.254  21.744  12.091
32914W        W94577  44.919   2.746   2.310
32915W        W94578  40.913  14.604   0.792
32916W        W94579  21.647   7.186  13.064
32917W        W94580   3.400   7.807   4.630
32918W        W94581  19.079  37.477   1.718
32919W        W94582  39.924   1.740   3.646
32920W        W94583  28.942  42.781  11.872
32921W        W94584  17.746  35.519  12.392
32922W        W94585  28.975   7.676  13.863
32923W        W94586  32.018  25.031  12.922
32924W        W94587  11.305  32.557   0.346
32925W        W94588  19.134  33.588  14.869
32926W        W94589  23.542  13.198   3.219
32927W        W94590  14.623  39.053   3.334
32928W        W94591  34.020   9.719  13.486
32929W        W94592  17.271   5.424  12.553
32930W        W94593   2.919  32.056  13.368
32931W        W94594  13.605   8.368   0.383
32932W        W94595  32.614  14.650  13.494
32933W        W94596  28.501  24.066   0.773
32934W        W94597   5.731  12.346  14.820
32935W        W94598  19.661  11.868  13.398
32936W        W94599  32.898  12.283   1.350
32937W        W94600  41.324   6.917   1.859
32938W        W94601   3.736  35.063   2.823
32939W        W94602   5.848   1.881  13.319
32940W        W94603  20.078   1.885   2.735
32941W        W94604  38.958  24.714  13.438
32942W        W94605  17.578   8.250  12.394
32943W        W94606   4.216  12.126   1.235
32944W        W94607   6.286   1.450   0.945
32945W        W94608  37.504  20.560  11.609
32946W        W94609  39.391  37.013  12.884
32947W        W94610   8.769  36.409  14.893
32948W        W94611  28.514  31.967   9.943
32949W        W94612  44.310   2.371   3.840
32950W        W94613  40.032  28.573   1.283
32951W        W94614   8.330  16.742   1.248
32952W        W94615  38.910  11.183   2.360
32953W        W94616  42.893  38.487  10.620
32954W        W94617  18.735  27.682   2.779
32955W        W94618  23.621   4.349   2.902
32956W        W94619  44.355  28.179  14.761
32957W        W94620  20.754  10.734  11.112
32958W        W94621  17.633  28.624   0.843
32959W        W94622  26.126  33.574   4.752
32960W        W94623  31.508  17.262  14.787
32961W        W94624  31.916  19.070  14.290
32962W        W94625   3.818   2.366  14.812
32963W        W94626  35.009  27.996  12.004
32964W        W94627   7.773  38.562   1.267
32965W        W94628  12.350  10.723   2.855
32966W        W94629  37.865  40.362   2.704
32967W        W94630  33.416  32.039  11.057
32968W        W94631  44.425  20.191   1.853
32969W        W94632  28.501  19.703  12.985
32970W        W94633  39.921  20.078  11.522
32971W        W94634  31.122   5.422  12.829
32972W        W94635  32.922  20.685   1.257
32973W        W94636  33.506  31.592   1.280
32974W        W94637  39.340  31.520  11.959
32975W        W94638  25.603   2.321  12.874
32976W        W94639  16.208  28.523   2.314
32977W        W94640  40.826  28.982   0.796
32978W        W94641  26.966  34.897   1.817
32979W        W94642   1.397  35.979   1.822
32980W        W94643  13.824  28.529   3.647
32981W        W94644  16.766   2.287   4.738
32982W        W94645  41.365  37.512   1.743
32983W        W94646  22.661  29.501   3.227
32984W        W94647  42.893  14.796  12.371
32985W        W94648   9.156  29.030   5.189
32986W        W94649   9.278  20.703   0.727
32987W        W94650  42.342  30.026   0.752
32988W        W94651   6.282  28.186   2.241
32989W        W94652  21.740  41.882  14.839
32990W        W94653  18.699  33.960   1.364
32991W        W94654  12.685   6.187   3.827
32992W        W94655  19.707  27.155   1.336
32993W        W94656  16.638   7.298   2.711
32994W        W94657  25.106  36.433   4.679
32995W        W94658  36.976  35.091   2.306
32996W        W94659  20.738   1.849  14.450
32997W        W94660  36.010  21.130  11.519
32998W        W94661  20.136  44.334   0.733
32999W        W94662  24.054  20.713  14.424
33000W        W94663   0.348  17.216  14.875
33001W        W94664  40.335  15.205   3.155
33002W        W94665   8.222  18.251  10.637
33003W        W94666  26.576   2.414   0.730
33004W        W94667  44.915  32.955  10.619
33005W        W94668  41.309  29.611   4.673
33006W        W94669  16.312  16.629   1.376
33007W        W94670  31.043  16.697   0.769
33008W        W94671  11.705   9.665  12.872
33009W        W94672  39.056   8.719   2.199
33010W        W94673  13.630  35.950  10.038
33011W        W94674  37.421  20.557   4.123
33012W        W94675  12.856   2.771   1.428
33013W        W94676  22.540  11.210   2.767
33014W        W94677   3.872  28.950  11.106
33015W        W94678  16.698  19.219  14.346
33016W        W94679  26.498  28.557   4.142
33017W        W94680  41.936  14.697   1.868
33018W        W94681  36.090  32.425  12.556
33019W        W94682  28.986  33.537  14.858
33020W        W94683  38.425  12.242  14.921
33021W        W94684  38.051   5.272  14.307
33022W        W94685  14.191  32.531  11.004
33023W        W94686  25.979  32.942  11.005
33024W        W94687  16.292  28.939  13.500
33025W        W94688  38.976   2.886  14.321
33026W        W94689  38.407  15.680  13.859
33027W        W94690  24.652   1.793  12.440
33028W        W94691  39.859   0.312   1.413
33029W        W94692  27.691  32.025   3.310
33030W        W94693  35.461  40.808  11.951
33031W        W94694  23.153  14.201  14.281
33032W        W94695  43.984   5.909  14.836
33033W        W94696  21.243  43.991  14.424
33034W        W94697  39.868   8.213   3.722
33035W        W94698   1.790   2.362   4.241
33036W        W94699   0.327   1.310   0.270
33037W        W94700  22.088  39.881  10.934
33038W        W94701  36.441   2.913   2.692
33039W        W94702  24.195  11.674   5.098
33040W        W94703   7.266  13.293   4.180
33041W        W94704  36.523  24.040   2.818
33042W        W94705   7.748  32.002   2.242
33043W        W94706  28.939  25.618   0.320
33044W        W94707  35.904  29.566  11.431
33045W        W94708  12.717  21.543  13.837
33046W        W94709  14.131  27.961  10.521
33047W        W94710  11.156  14.146   3.302
33048W        W94711  38.562  32.000   4.316
33049W        W94712  42.355  41.042   4.672
33050W        W94713   2.417   6.261  12.007
33051W        W94714  35.053  39.402  13.001
33052W        W94715   4.272  39.832   4.210
33053W        W94716  16.107  21.691   1.730
33054W        W94717   7.734  28.584  10.435
33055W        W94718  44.366   2.256  12.004
33056W        W94719  30.575  33.102  11.585
33057W        W94720   3.787  16.175  13.062
33058W        W94721  18.250  20.695   4.610
33059W        W94722   0.454  38.329  14.827
33060W        W94723  33.554  14.118   1.695
33061W        W94724   5.733  21.682  13.350
33062W        W94725  19.051  41.996   2.222
33063W        W94726   2.869   3.779   3.336
33064W        W94727  29.130  40.014  10.110
33065W        W94728  21.213  30.162   4.146
33066W        W94729  37.339  14.736   3.343
33067W        W94730   8.673  26.161  10.935
33068W        W94731  38.528   9.265   3.842
33069W        W94732  38.482  33.094   4.616
33070W        W94733  32.942  18.081   2.725
33071W        W94734  32.408  41.309   3.799
33072W        W94735  20.682   4.903  12.069
33073W        W94736  13.150  10.147   3.239
33074W        W94737  11.763  39.488   3.332
33075W        W94738  38.444   0.976   4.785
33076W        W94739  14.663   2.735   2.386
33077W        W94740  18.252  14.158  11.072
33078W        W94741  30.029   0.891   1.914
33079W        W94742  40.373  16.732  11.877
33080W        W94743   3.712  21.587  13.985
33081W        W94744  34.394  28.509   0.824
33082W        W94745  30.475  20.172   1.824
33083W        W94746  34.866   1.745   4.816
33084W        W94747  12.690  11.642  14.971
33085W        W94748  10.314   8.812   2.733
33086W        W94749  17.689   9.150  11.887
33087W        W94750  34.082  16.672   0.345
33088W        W94751  40.991   4.758  13.479
33089W        W94752  22.501  16.805   1.791
33090W        W94753  44.273  27.064  10.476
33091W        W94754  41.948  28.578   2.412
33092W        W94755  43.346  12.855   0.743
33093W        W94756   9.820  36.950  12.084
33094W        W94757  37.077   1.976   4.296
33095W        W94758   1.889  23.102   4.323
33096W        W94759   7.849  40.403  10.938
33097W        W94760  13.599   4.932  14.303
33098W        W94761  38.571   6.215  13.052
33099W        W94762  11.862  14.739  11.999
33100W        W94763  17.224  16.773  13.944
33101W        W94764   1.388  38.958   0.935
33102W        W94765  41.962  18.118  12.568
33103W        W94766  16.297   6.700   4.282
33104W        W94767  43.858  32.022  14.941
33105W        W94768   1.388  35.911   1.267
33106W        W94769  37.470   5.250   3.733
33107W        W94770  30.009   4.913  14.494
33108W        W94771  18.729  33.014  14.439
33109W        W94772  34.103  33.977  13.449
33110W        W94773  30.423  28.493  14.028
33111W        W94774  30.523  44.949  13.010
33112W        W94775  11.665  18.191  13.026
33113W        W94776  41.487  25.524   3.722
33114W        W94777  44.010   3.352   0.331
33115W        W94778  16.140   3.297  10.602
33116W        W94779  17.644  13.796   5.687
33117W        W94780  21.099  38.977   1.849
33118W        W94781  17.124  20.719   3.680
33119W        W94782  19.190  16.100  14.275
33120W        W94783  40.981  29.573   0.392
33121W        W94784  24.150   7.749   1.415
33122W        W94785  20.132   4.734   0.807
33123W        W94786  11.833  29.592  12.441
33124W        W94787  37.041   3.872   2.260
33125W        W94788  42.980  22.056   3.148
33126W        W94789  11.263  36.570   9.458
33127W        W94790  41.010  10.856  14.306
33128W        W94791  28.968  28.969  12.404
33129W        W94792  26.652  37.038   4.264
33130W        W94793   4.825  31.008   1.329
33131W        W94794  19.086  20.572  13.877
33132W        W94795  33.548   5.860   3.827
33133W        W94796   4.902  19.253  14.857
33134W        W94797  15.150  29.584  12.848
33135W        W94798  23.069  31.611  13.055
33136W        W94799   2.386  28.147  11.009
33137W        W94800  32.142  11.632  14.431
33138W        W94801  16.221  11.773   0.909
33139W        W94802  14.331  11.173   3.380
33140W        W94803  14.763  18.275   2.893
33141W        W94804  38.324  17.673   2.384
33142W        W94805   4.908   8.836   4.805
33143W        W94806  23.063   5.356  10.569
33144W        W94807  15.737  28.072   5.266
33145W        W94808  18.569  38.063  10.420
33146W        W94809  30.428  23.129   1.870
33147W        W94810  11.260  29.554  11.125
33148W        W94811  41.350  17.567  10.989
33149W        W94812  27.000  37.929   3.629
33150W        W94813  15.318  14.827   5.729
33151W        W94814  36.433   3.897  11.932
33152W        W94815   5.205  31.479  11.428
33153W        W94816  26.543  39.375   2.185
33154W        W94817  29.034  35.955  13.958
33155W        W94818  28.453  18.565   2.864
33156W        W94819  15.590  36.848   1.913
33157W        W94820  18.278  26.475   5.199
33158W        W94821  36.513   4.918  11.101
33159W        W94822  16.290  38.928  14.476
33160W        W94823  29.016  30.494  10.567
33161W        W94824  22.707  29.478  13.903
33162W        W94825   6.297  22.656   4.321
33163W        W94826  44.390   4.736  11.566
33164W        W94827  32.472  28.665   3.195
33165W        W94828   0.948  36.041   1.913
33166W        W94829  14.171  33.440  10.991
33167W        W94830  13.241   0.839   3.767
33168W        W94831  11.697  44.855  14.328
33169W        W94832  42.410  26.175  11.417
33170W        W94833  31.599  22.029  10.573
33171W        W94834  20.550   8.745  12.951
33172W        W94835  36.546  37.458  10.967
33173W        W94836  24.517  24.722   2.282
33174W        W94837   4.244   1.318   4.255
33175W        W94838  33.515  27.575   9.921
33176W        W94839  19.042   7.865  10.948
33177W        W94840  43.385   8.378   1.394
33178W        W94841  22.711   7.229   3.657
33179W        W94842  11.680  24.223  10.074
33180W        W94843  17.795  24.614   2.772
33181W        W94844   1.883  37.907  12.518
33182W        W94845  25.052  33.030   1.311
33183W        W94846   2.461  38.878  12.036
33184W        W94847   9.191  22.501   2.699
33185W        W94848  24.110  22.747   1.830
33186W        W94849  11.844  16.288   4.700
33187W        W94850  33.070  33.006   3.751
33188W        W94851  32.940  16.650  14.006
33189W        W94852  21.664  15.289   2.324
33190W        W94853  32.483   7.891  11.078
33191W        W94854  30.526  20.560  12.556
33192W        W94855  37.008   7.331  12.566
33193W        W94856   5.698  42.994   2.828
33194W        W94857  21.030  42.926   4.778
33195W        W94858  27.092  38.568   2.257
33196W        W94859  11.645  37.361   3.256
33197W        W94860  25.628  42.960   4.747
33198W        W94861   7.366  38.544   0.940
33199W        W94862  30.913  39.813   4.132
33200W        W94863  16.188   7.275   1.882
33201W        W94864  19.541  32.922   2.846
33202W        W94865  24.574  33.564  13.417
33203W        W94866   5.845  22.568  13.548
33204W        W94867  30.008  25.548  11.971
33205W        W94868  23.554  27.003   0.276
33206W        W94869  16.732  23.116   0.370
33207W        W94870  23.176  39.032  11.077
33208W        W94871  32.976  41.810  12.073
33209W        W94872  32.141  20.563  14.390
33210W        W94873  25.152  30.030  12.053
33211W        W94874  20.133  39.818  12.900
33212W        W94875  11.859  27.156  12.850
33213W        W94876  43.485  16.750   4.837
33214W        W94877  36.407   1.326   1.246
33215W        W94878  22.620  23.600  11.860
33216W        W94879  17.751  41.957   1.927
33217W        W94880  23.078  10.746   2.297
33218W        W94881   5.300  35.873   4.160
33219W        W94882  22.235  19.627   2.875
33220W        W94883  31.425  31.127   3.673
33221W        W94884   0.480  19.665  13.963
33222W        W94885  24.505  22.547   3.364
33223W        W94886  42.912   9.159   0.742
33224W        W94887   0.860  12.315   2.823
33225W        W94888  12.645   9.695   2.859
33226W        W94889  33.540  16.264  11.384
33227W        W94890  26.540  11.737   3.160
33228W        W94891  12.224  32.924   2.775
33229W        W94892  19.198  42.943   1.262
33230W        W94893  21.075  39.954  14.492
33231W        W94894  21.232  12.301   2.341
33232W        W94895  29.084  43.288  10.577
33233W        W94896  16.652   4.316   0.379
33234W        W94897  41.413  22.565  12.432
33235W        W94898  30.437  23.108   0.312
33236W        W94899  22.012  25.200  14.885
33237W        W94900  13.218  40.049  14.365
33238W        W94901  40.347   3.313  11.872
33239W        W94902  20.763   6.425  14.023
33240W        W94903  28.639   7.196  13.905
33241W        W94904  16.298  15.642  11.117
33242W        W94905  16.619  40.926   2.816
33243W        W94906   5.359  42.282  11.038
33244W        W94907  37.536  43.809  12.542
33245W        W94908  34.865  26.462   2.280
33246W        W94909  41.347  21.239  13.352
33247W        W94910  27.664  13.322   0.446
33248W        W94911  29.431   4.207   4.130
33249W        W94912  34.118  18.757  11.983
33250W        W94913   5.917  40.365   0.316
33251W        W94914  37.380  11.250  12.968
33252W        W94915  29.950  43.856   0.926
33253W        W94916  11.136   5.379   0.848
33254W        W94917  20.167  32.571  12.475
33255W        W94918   4.888  28.095  13.548
33256W        W94919  36.552  13.774  12.869
33257W        W94920  17.798   1.448   0.913
33258W        W94921  14.673  16.154   0.269
33259W        W94922  44.382  33.052   3.373
33260W        W94923  24.222  11.847  11.376
33261W        W94924  41.817  33.908  12.453
33262W        W94925  14.105   6.796   3.741
33263W        W94926  17.788   9.876   1.771
33264W        W94927  28.451  24.155  14.815
33265W        W94928   5.414   4.430   2.254
33266W        W94929  39.942  43.271  14.778
33267W        W94930  14.331   4.300  12.976
33268W        W94931  11.632  17.191   1.410
33269W        W94932  23.063  19.713  11.387
33270W        W94933  35.050  14.769  11.451
33271W        W94934  33.107  37.580   2.727
33272W        W94935  23.642  39.479   0.429
33273W        W94936   0.961   9.869   2.300
33274W        W94937   9.889   9.291   4.771
33275W        W94938   5.720   5.335  12.083
33276W        W94939   2.238   4.419  14.004
33277W        W94940   7.309  23.984   4.725
33278W        W94941  13.232  39.025   2.221
33279W        W94942  34.528  38.020   4.692
33280W        W94943   4.372   4.873   1.451
33281W        W94944  19.075  40.900  14.493
33282W        W94945  25.992  15.092   1.880
33283W        W94946   4.277  41.529  14.022
33284W        W94947   2.276  26.564  13.894
33285W        W94948  29.022  10.699   1.301
33286W        W94949   0.802  43.276   0.307
33287W        W94950  17.254  25.691   2.307
33288W        W94951  22.708   7.402  13.001
33289W        W94952  20.604  37.932   0.738
33290W        W94953  35.372  17.769  14.300
33291W        W94954  34.106  30.631   4.719
33292W        W94955  15.249  37.996   2.750
33293W        W94956  19.779  36.969   3.308
33294W        W94957   9.375  26.015   2.886
33295W        W94958  38.407  27.666  14.469
33296W        W94959  18.573  40.452  14.821
33297W        W94960  27.992   2.945  14.936
33298W        W94961   1.778  27.511  14.358
33299W        W94962  26.567  32.519   0.449
33300W        W94963   5.339  13.761  12.936
33301W        W94964  24.033  39.815  12.566
33302W        W94965  29.009  18.653   2.288
33303W        W94966  32.970   1.938  10.467
33304W        W94967  29.966  33.119  12.917
33305W        W94968   6.821  35.445   2.305
33306W        W94969   8.889  34.073   2.298
33307W        W94970  10.280  33.608   3.651
33308W        W94971   9.226   9.296   4.156
33309W        W94972  32.975  13.243   4.264
33310W        W94973  24.017  32.141   0.383
33311W        W94974  33.561  22.173  11.915
33312W        W94975  12.185  31.907   2.331
33313W        W94976  42.920  22.016   1.289
33314W        W94977   5.431  18.219   3.360
33315W        W94978  24.592  16.651   0.805
33316W        W94979  15.141  25.215   1.261
33317W        W94980  29.021   2.866  12.493
33318W        W94981  30.933  36.858   4.731
33319W        W94982   3.345  18.127  11.039
33320W        W94983  42.367  23.103  10.492
33321W        W94984  12.252  16.284  14.840
33322W        W94985   3.329  28.674  11.050
33323W        W94986   0.876  14.340  14.354
33324W        W94987  11.144  28.930   2.895
33325W        W94988   6.418  14.275   1.431
33326W        W94989  29.658  15.186   1.827
33327W        W94990  44.938  37.422  12.956
33328W        W94991  26.998   4.749  12.424
33329W        W94992  34.105  13.736  14.960
33330W        W94993  16.674  16.666  11.035
33331W        W94994  28.637  36.507  12.485
33332W        W94995  40.921  16.151   2.839
33333W        W94996   1.928   8.369   1.743
33334W        W94997  39.991  36.962  14.477
33335W        W94998  10.223  16.107  12.549
33336W        W94999  27.669  40.489  13.446
33337W        W95000  43.508  17.170  13.338
33338W        W95001  39.982  44.889  13.044
33339W        W95002  19.692   0.876   3.760
33340W        W95003   2.835   1.889  13.455
33341W        W95004  32.398  17.576  10.412
33342W        W95005  13.147  22.101   2.303
33343W        W95006  17.094  11.784   3.341
33344W        W95007   1.841   5.408  12.869
33345W        W95008  31.062  36.561   2.347
33346W        W95009   9.701  15.320   3.380
33347W        W95010   3.260  24.666   4.819
33348W        W95011   2.869  29.462  11.109
33349W        W95012   0.462  35.480   2.822
33350W        W95013  37.975  13.291  12.826
33351W        W95014  14.115  17.190   3.263
33352W        W95015  18.714  39.535  14.918
33353W        W95016  35.907   8.718  13.930
33354W        W95017   6.408   4.876   0.336
33355W        W95018  13.795  26.471  14.961
33356W        W95019  16.144  12.235   0.830
33357W        W95020  43.444   5.229   0.840
33358W        W95021   7.745  13.115   2.416
33359W        W95022  41.965   9.686  14.318
33360W        W95023  24.546  26.581  10.052
33361W        W95024  10.316   5.820  10.011
33362W        W95025  34.464  43.912   1.287
33363W        W95026  43.491  44.376   2.327
33364W        W95027  31.048  29.084   0.901
33365W        W95028  25.494  12.615   2.380
33366W        W95029  29.035  25.508   3.679
33367W        W95030  13.704  17.146  11.515
33368W        W95031  27.509   2.850   2.803
33369W        W95032  28.018  22.543   2.331
33370W        W95033  32.573  33.448  10.523
33371W        W95034  16.702   8.744  13.447
33372W        W95035  43.408  31.949   3.362
33373W        W95036  21.628  30.548  14.368
33374W        W95037  38.464  38.400   3.304
33375W        W95038   9.380  36.017   0.884
33376W        W95039  30.513   6.330  13.353
33377W        W95040  39.316  26.661   9.985
33378W        W95041   8.239  30.922   0.418
33379W        W95042  34.561   7.267   0.795
33380W        W95043  17.796   5.822   0.757
33381W        W95044  29.096  27.615  11.466
33382W        W95045   4.386  14.302   3.814
33383W        W95046  25.112  38.541  13.960
33384W        W95047  22.234  43.814   2.226
33385W        W95048  29.076   8.308   3.378
33386W        W95049  34.924  10.768  10.556
33387W        W95050  36.350  31.007   3.288
33388W        W95051   9.291   5.296  11.937
33389W        W95052  15.210   7.302  10.412
33390W        W95053  26.698  21.042  14.816
33391W        W95054  30.634   4.825   2.766
33392W        W95055   9.833  25.713   3.703
33393W        W95056  41.004  33.060   2.361
33394W        W95057  18.705   3.444   4.803
33395W        W95058  37.895  39.954  11.994
33396W        W95059  33.047  14.242  11.067
33397W        W95060  30.978  31.528  11.072
33398W        W95061   6.821  31.642   3.672
33399W        W95062   9.675   1.404  12.479
33400W        W95063  43.776  17.263  12.045
33401W        W95064  20.121  33.129  11.943
33402W        W95065   9.301  30.086  10.560
33403W        W95066   7.335  13.817  11.487
33404W        W95067  22.214  17.220   3.707
33405W        W95068  43.286  15.738   0.874
33406W        W95069  39.484  19.135   2.248
33407W        W95070   5.814  17.776   4.131
33408W        W95071  29.172  19.269  10.463
33409W        W95072  25.476  34.893  13.933
33410W        W95073  39.470  35.543  14.018
33411W        W95074  21.655  16.283   0.364
33412W        W95075  25.046  29.452   1.903
33413W        W95076  27.672  31.970   1.896
33414W        W95077   5.702  30.619  10.961
33415W        W95078   0.980  10.749   5.292
33416W        W95079   1.761  29.536   4.786
33417W        W95080  17.253   9.334  14.378
33418W        W95081  28.980   0.372  12.466
33419W        W95082   8.813  16.641   1.420
33420W        W95083  26.580   6.874   4.258
33421W        W95084  41.883  11.687  12.039
33422W        W95085   3.892  18.567  12.340
33423W        W95086   4.893  32.053  10.456
33424W        W95087  38.832  41.524   3.671
33425W        W95088  11.714  44.392   1.706
33426W        W95089  37.369  35.392   4.147
33427W        W95090  18.609   9.259  11.497
33428W        W95091  11.249  42.502  13.926
33429W        W95092  35.395  18.055  10.430
33430W        W95093   1.742  17.560   4.814
33431W        W95094  40.820  20.712  10.616
33432W        W95095   4.791  25.008   2.782
33433W        W95096  21.520  34.898  14.824
33434W        W95097  28.490  33.960   4.349
33435W        W95098  31.050  20.591   2.238
33436W        W95099  17.751  28.490  10.419
33437W        W95100   2.357  18.546   0.878
33438W        W95101  41.323  16.659  12.538
33439W        W95102   0.874  44.802   4.220
33440W        W95103   6.245  14.135   4.140
33441W        W95104  31.896  14.097   0.910
33442W        W95105  39.816  27.497   0.472
33443W        W95106  20.721  31.140  14.926
33444W        W95107   3.258  26.145   1.322
33445W        W95108   9.661  29.667   4.646
33446W        W95109  10.224  18.685  14.794
33447W        W95110  38.823  24.166   0.338
33448W        W95111  28.469   4.444   0.882
33449W        W95112  24.047  43.490   1.388
33450W        W95113  32.999   5.871  11.581
33451W        W95114   0.910  28.085   2.735
33452W        W95115   1.871  17.727  11.955
33453W        W95116  42.775   9.779   2.680
33454W        W95117  20.718  21.644  13.436
33455W        W95118  35.861  10.770   1.235
33456W        W95119  27.002   2.293   1.376
33457W        W95120  17.757   9.360  13.803
33458W        W95121  16.252  13.324  13.936
33459W        W95122  10.727   8.373   2.241
33460W        W95123  26.475  13.647   0.331
33461W        W95124  20.193  36.402  14.872
33462W        W95125  25.674  43.381  14.316
33463W        W95126   0.478  28.630  14.830
33464W        W95127  26.667  26.643  11.398
33465W        W95128  30.590  14.788   3.775
33466W        W95129  14.182  31.629  12.021
33467W        W95130  30.951  39.021   9.956
33468W        W95131  27.546  43.967  14.419
33469W        W95132  33.621  32.101   3.178
33470W        W95133  15.195  44.277  10.939
33471W        W95134  18.216  41.481  11.972
33472W        W95135   7.868  41.498   2.844
33473W        W95136  39.373  10.744   0.296
33474W        W95137  21.065  43.457  12.058
33475W        W95138  43.989  21.523  11.096
33476W        W95139  36.033   3.309   2.211
33477W        W95140  12.703  26.501   2.233
33478W        W95141  42.368  16.175   2.210
33479W        W95142  15.192  40.449   5.705
33480W        W95143  12.138  25.988  10.589
33481W        W95144   1.750  18.562   0.345
33482W        W95145  26.997   5.873  12.970
33483W        W95146  11.860  13.764   3.744
33484W        W95147  23.626  43.964  11.996
33485W        W95148   5.268  15.270  13.977
33486W        W95149  27.607  20.732   2.252
33487W        W95150  20.173  10.826   1.792
33488W        W95151  36.528   4.756  14.873
33489W        W95152  30.077  12.649  11.030
33490W        W95153  15.151   2.298  13.531
33491W        W95154  34.057  12.117  13.016
33492W        W95155  11.205  12.734  13.920
33493W        W95156  39.554  39.851   3.772
33494W        W95157  21.670  36.981   4.333
33495W        W95158   3.416   9.173   4.618
33496W        W95159  17.588  41.347  13.319
33497W        W95160  18.123  25.048  11.891
33498W        W95161   2.379  24.124  11.516
33499W        W95162  11.757  10.259  10.943
33500W        W95163  39.540   7.214  10.542
33501W        W95164  22.741  17.176   1.845
33502W        W95165  13.706   5.908   3.278
33503W        W95166  16.242  39.009   3.159
33504W        W95167  13.717  14.103   4.163
33505W        W95168   3.372  13.309  10.449
33506W        W95169  18.280  21.560   0.273
33507W        W95170  17.696  38.519  12.415
33508W        W95171   0.312   4.388  13.899
33509W        W95172  23.076  22.250   0.358
33510W        W95173   0.435  16.143  14.292
33511W        W95174   7.778  40.496   0.311
33512W        W95175  33.418  14.268   5.229
33513W        W95176  41.043   5.841  11.545
33514W        W95177  32.628  44.881   1.268
33515W        W95178  27.640  20.746   3.366
33516W        W95179   5.426  23.081   4.172
33517W        W95180  12.131   4.222   2.302
33518W        W95181  25.568   5.355   3.348
33519W        W95182  24.170  13.707  12.947
33520W        W95183   5.291  20.761  14.286
33521W        W95184  11.847  18.681   0.771
33522W        W95185   6.867   3.823   1.266
33523W        W95186   5.726   5.293   1.852
33524W        W95187   9.691  44.331  12.836
33525W        W95188  25.088  44.881  13.979
33526W        W95189   3.937  12.219   0.915
33527W        W95190   9.869  14.750  13.835
33528W        W95191  40.327  33.423   4.703
33529W        W95192  21.134  12.735   2.853
33530W        W95193  44.310   8.847  12.522
33531W        W95194  30.427   8.754   4.780
33532W        W95195  39.437  23.105  12.050
33533W        W95196  21.630  20.646  12.522
33534W        W95197   5.858  19.221   0.423
33535W        W95198   3.904  24.047  11.500
33536W        W95199  15.270  40.834  10.626
33537W        W95200  16.628  10.651  12.356
33538W        W95201  25.499  34.402   0.406
33539W        W95202  38.385  36.015  11.865
33540W        W95203   0.288  26.019  11.039
33541W        W95204   3.389  19.777   2.206
33542W        W95205  34.935  33.978   3.317
33543W        W95206  24.166  23.605   0.959
33544W        W95207  43.810  24.508  11.385
33545W        W95208  25.092   5.923   3.822
33546W        W95209  21.035  29.121  11.069
33547W        W95210  28.956  44.773   1.290
33548W        W95211  22.022  11.206  13.472
33549W        W95212  12.295  36.983   1.239
33550W        W95213  38.549   7.360  10.557
33551W        W95214  27.616   4.724  14.867
33552W        W95215  22.073  17.652   3.738
33553W        W95216  32.126  44.350   5.276
33554W        W95217  15.732  42.394  10.913
33555W        W95218  21.144  44.912  13.513
33556W        W95219   6.266   2.928  11.925
33557W        W95220  29.957  23.666   1.930
33558W        W95221  19.039  22.102   0.756
33559W        W95222   7.179  29.526   2.203
33560W        W95223  27.120   4.424  10.406
33561W        W95224  20.596  12.715  12.961
33562W        W95225  19.635  17.612  13.877
33563W        W95226  17.698  30.157   0.360
33564W        W95227  30.098  20.701   0.432
33565W        W95228  37.004  33.403   0.338
33566W        W95229  37.860  37.415   3.238
33567W        W95230  36.488  24.157  11.886
33568W        W95231  41.470  33.901   4.273
33569W        W95232  28.620  26.537   2.311
33570W        W95233  13.603  28.004   1.330
33571W        W95234   6.384  25.632  10.636
33572W        W95235  39.557  27.609  12.904
33573W        W95236  36.465  13.116   3.775
33574W        W95237   3.397  14.639   1.906
33575W        W95238  42.323  33.920  13.523
33576W        W95239   0.963   5.399   4.304
33577W        W95240  32.990   9.225  13.432
33578W        W95241   3.339   8.859   0.312
33579W        W95242  14.328  10.228  13.314
33580W        W95243   3.755  28.435  11.393
33581W        W95244  39.425  13.283   4.219
33582W        W95245   1.898  23.107   1.700
33583W        W95246   4.863   4.304   2.202
33584W        W95247  44.987  44.925  12.349
33585W        W95248  31.537  12.140   3.318
33586W        W95249  23.662   1.286  13.902
33587W        W95250  37.062   6.677   1.734
33588W        W95251  25.714  33.622  13.334
33589W        W95252  20.188  28.982  10.939
33590W        W95253  35.878  16.733   4.622
33591W        W95254  29.575  24.588   1.727
33592W        W95255  28.579   0.374   3.841
33593W        W95256  24.013  43.975  14.903
33594W        W95257  44.816  35.090   0.807
33595W        W95258  23.190   7.233  12.050
33596W        W95259   9.832  25.049  10.637
33597W        W95260  21.192  37.466  12.828
33598W        W95261  29.942  40.043  13.811
33599W        W95262  27.175  10.219  12.840
33600W        W95263  32.133  34.951   5.112
33601W        W95264   1.776  12.257   2.212
33602W        W95265  29.648  27.140   3.375
33603W        W95266  19.066   9.326  12.892
33604W        W95267  19.153  14.595  12.022
33605W        W95268  37.415   7.320   3.253
33606W        W95269  44.327   0.357  10.440
33607W        W95270  26.136   0.911   2.372
33608W        W95271  39.524  16.738  14.918
33609W        W95272  29.634  15.599   2.276
33610W        W95273  19.647  17.761   1.242
33611W        W95274   9.822  18.193   0.242
33612W        W95275   5.413  10.347  10.020
33613W        W95276  44.420  41.316   9.991
33614W        W95277  22.525  28.677   2.269
33615W        W95278  40.050  12.184   2.808
33616W        W95279   7.371  37.015  13.061
33617W        W95280  12.669  34.529  14.880
33618W        W95281   7.351  34.104  11.069
33619W        W95282  22.697  25.044   0.862
33620W        W95283  35.460  26.084   0.839
33621W        W95284  43.395  35.481  10.538
33622W        W95285   7.761   0.775  10.568
33623W        W95286  36.534  40.459  13.312
33624W        W95287  32.608  20.655  12.353
33625W        W95288   0.883  10.236  14.492
33626W        W95289  20.658  37.464   0.449
33627W        W95290   5.867   1.463  14.348
33628W        W95291   2.731   3.302  12.051
33629W        W95292   1.479  18.642   2.246
33630W        W95293  11.276  14.759   2.387
33631W        W95294  41.425  22.559  11.950
33632W        W95295  31.449  33.583   3.223
33633W        W95296  18.622  16.624   9.580
33634W        W95297  28.547  33.965  12.507
33635W        W95298   2.854  36.408  13.797
33636W        W95299  30.939  44.372   2.759
33637W        W95300  15.587  40.844  12.497
33638W        W95301   7.347  21.546  12.059
33639W        W95302   3.330  16.706  13.473
33640W        W95303  30.060  34.931   3.228
33641W        W95304   1.362   1.371   1.352
33642W        W95305  27.167  36.552  13.947
33643W        W95306   2.332  24.181  12.558
33644W        W95307  30.588  15.264   3.805
33645W        W95308   4.324   2.953   4.136
33646W        W95309   8.721  29.521  11.066
33647W        W95310   6.313   1.829  10.445
33648W        W95311  21.182  20.700  13.861
33649W        W95312   7.292  41.863   1.397
33650W        W95313  37.571  12.800  10.071
33651W        W95314   1.325   1.443  14.903
33652W        W95315  34.962  12.150   0.332
33653W        W95316  17.784  28.176   0.457
33654W        W95317  14.645  12.158   4.256
33655W        W95318  32.547  21.203  13.927
33656W        W95319  16.111  10.380  14.462
33657W        W95320  38.877  44.265  11.920
33658W        W95321  12.302  10.638   4.608
33659W        W95322   9.751  31.998  13.315
33660W        W95323  26.058  34.936  13.358
33661W        W95324  26.644  43.500  13.857
33662W        W95325  10.730  25.169   0.869
33663W        W95326  29.463  32.006  14.882
33664W        W95327  32.606  18.729   3.861
33665W        W95328  44.397   7.761   0.451
33666W        W95329   7.203  40.921  14.022
33667W        W95330  14.789  13.772  14.911
33668W        W95331  15.706   1.868  13.011
33669W        W95332   5.396  15.803  13.980
33670W        W95333  11.780  19.081   0.938
33671W        W95334  18.556  24.506   4.717
33672W        W95335  22.606   9.199  11.867
33673W        W95336  19.587  40.439   0.742
33674W        W95337  15.158  10.322  14.840
33675W        W95338  12.221  17.298  13.989
33676W        W95339  41.829  15.615  13.545
33677W        W95340  26.180  32.894   0.400
33678W        W95341  27.003  42.974   1.290
33679W        W95342  27.511  37.032  13.445
33680W        W95343  17.645   8.854   1.932
33681W        W95344  25.639  24.010   2.374
33682W        W95345  43.980  35.991   3.274
33683W        W95346  16.724  22.011   1.775
33684W        W95347   9.232   8.236   1.290
33685W        W95348  19.692   9.203  11.113
33686W        W95349  32.039   6.749  13.365
33687W        W95350  30.953  34.415   3.802
33688W        W95351  33.413  17.725  11.478
33689W        W95352  33.477  21.175   3.229
33690W        W95353   1.254  32.942  10.526
33691W        W95354  30.505  11.818   2.401
33692W        W95355  27.598  38.071   4.186
33693W        W95356  15.710   3.869   4.612
33694W        W95357  16.629  14.218  11.479
33695W        W95358  15.129  17.063  14.026
33696W        W95359   5.691  13.290   2.405
33697W        W95360  35.976  31.106  13.529
33698W        W95361  29.532  26.131  11.884
33699W        W95362  20.549   7.374  14.371
33700W        W95363  21.213  16.117  13.931
33701W        W95364  18.183   7.244   0.289
33702W        W95365   6.373   8.686  11.473
33703W        W95366  10.819  42.366  13.448
33704W        W95367  42.844  29.557   3.146
33705W        W95368  18.085   0.934   1.227
33706W        W95369   8.374  41.029   4.812
33707W        W95370   1.860  11.725   3.228
33708W        W95371   8.191  42.425  12.871
33709W        W95372  33.609   6.901   1.933
33710W        W95373  22.641  33.070  12.000
33711W        W95374  10.335  17.652  13.362
33712W        W95375  16.199  14.663   2.367
33713W        W95376  37.425  30.424   4.285
33714W        W95377   3.952   5.261   3.363
33715W        W95378  15.763  32.975   2.691
33716W        W95379  33.610  21.065   0.868
33717W        W95380  13.318   8.164   3.659
33718W        W95381  38.922  15.741  11.450
33719W        W95382  14.297   9.685   1.717
33720W        W95383  39.946  40.391   4.764
33721W        W95384   2.899  23.662  13.309
33722W        W95385  42.811  33.095  11.439
33723W        W95386  44.812  39.049  13.312
33724W        W95387  34.918  27.607   3.782
33725W        W95388   2.801  32.456  14.471
33726W        W95389  44.813  10.835  12.938
33727W        W95390  21.734   8.391   4.600
33728W        W95391   4.233  10.288   2.198
33729W        W95392  33.565  18.553  10.994
33730W        W95393   1.816   1.786  13.416
33731W        W95394   9.190  21.069  13.014
33732W        W95395  21.201  12.265  12.370
33733W        W95396   8.205  16.801  10.618
33734W        W95397  15.266  23.684   0.872
33735W        W95398  37.462   1.978  13.821
33736W        W95399  26.490  14.789   2.357
33737W        W95400  25.655  42.393  13.506
33738W        W95401  33.971  11.329  13.879
33739W        W95402   8.322  11.147  11.943
33740W        W95403   1.313  28.073  10.917
33741W        W95404  12.138  26.133  14.863
33742W        W95405  25.575  17.113   1.749
33743W        W95406  44.291   6.750  10.644
33744W        W95407  32.632   7.812   0.798
33745W        W95408  15.638  16.302   0.252
33746W        W95409  15.108  15.742   2.289
33747W        W95410  18.216   0.376   4.608
33748W        W95411  18.722  30.032  14.393
33749W        W95412  22.687  30.613   5.125
33750W        W95413  24.503  29.101  10.500
33751W        W95414  18.723  12.755  10.531
33752W        W95415   8.807   7.889  11.025
33753W        W95416  11.281  12.296   0.252
33754W        W95417   3.363  21.262  12.067
33755W        W95418   0.479   3.779  12.490
33756W        W95419   7.806  27.448   2.186
33757W        W95420   3.881   4.878  11.393
33758W        W95421  27.969  23.543   0.915
33759W        W95422   1.976   6.329   4.652
33760W        W95423  38.369  11.798  13.930
33761W        W95424  16.099  38.355   3.697
33762W        W95425  12.240  35.994  13.514
33763W        W95426  21.582  16.254  13.512
33764W        W95427  31.026  43.812   3.339
33765W        W95428   0.302  34.504  14.007
33766W        W95429  22.143  22.050  11.473
33767W        W95430   9.291  29.579  14.436
33768W        W95431  16.310  28.943  14.315
33769W        W95432  10.177  34.913   5.116
33770W        W95433   0.262  42.446   0.307
33771W        W95434  40.448  42.464   0.363
33772W        W95435   4.235  18.587  10.622
33773W        W95436  34.928   7.250   1.929
33774W        W95437  35.580  20.072   3.205
33775W        W95438  33.448   6.417  12.878
33776W        W95439  23.729  42.437   3.246
33777W        W95440  16.257  29.546   4.616
33778W        W95441   9.807  39.377  14.909
33779W        W95442  40.857  33.595  12.371
33780W        W95443  44.968  26.529  12.420
33781W        W95444  22.548  15.320   4.726
33782W        W95445  34.968   7.777  14.416
33783W        W95446  14.659  39.060  11.468
33784W        W95447  10.702  44.991   1.379
33785W        W95448  38.393  39.516   3.252
33786W        W95449  18.740  38.534   3.147
33787W        W95450   3.230   9.645  12.426
33788W        W95451  28.048  14.328  13.330
33789W        W95452  23.656  15.580   0.755
33790W        W95453  33.577  23.073  10.118
33791W        W95454  31.143  23.051   0.763
33792W        W95455  26.552  43.449  12.062
33793W        W95456  24.517   9.389   4.665
33794W        W95457  41.839  42.874  12.894
33795W        W95458  42.979  38.502  11.874
33796W        W95459  37.400   9.338   9.445
33797W        W95460  36.403  37.842   1.801
33798W        W95461  17.268  18.586  12.906
33799W        W95462  16.571   6.233   2.790
33800W        W95463   6.691  16.134  10.618
33801W        W95464  11.802   4.312   2.347
33802W        W95465  42.487  11.277   9.999
33803W        W95466  19.143  38.358  11.544
33804W        W95467   5.205  34.429   3.336
33805W        W95468  11.368  28.038  14.379
33806W        W95469  35.409   9.225  14.280
33807W        W95470  18.722  39.824   4.269
33808W        W95471   9.823   8.249  12.369
33809W        W95472  31.568  26.104   3.684
33810W        W95473  11.760   4.205  10.506
33811W        W95474  37.539  13.676   4.609
33812W        W95475  10.826  40.549  11.119
33813W        W95476  16.234   6.880   3.213
33814W        W95477  12.310  31.126  12.423
33815W        W95478  29.090  23.088  12.925
33816W        W95479  37.510  28.962  13.497
33817W        W95480  37.540  40.485   2.887
33818W        W95481  34.407  33.057  12.350
33819W        W95482  22.599   2.257   2.212
33820W        W95483  38.993  15.245   3.221
33821W        W95484   7.294  36.023  14.785
33822W        W95485  25.134  18.736   0.868
33823W        W95486  17.656  23.539   2.849
33824W        W95487  41.465  43.021  11.875
33825W        W95488  32.090  12.629   2.706
33826W        W95489  24.669  17.220  13.063
33827W        W95490  28.965  22.605   1.781
33828W        W95491  25.117  44.452   2.352
33829W        W95492  34.546   9.787   2.797
33830W        W95493  30.644   5.751   1.250
33831W        W95494  34.372  39.939   4.341
33832W        W95495   5.820  33.004   4.642
33833W        W95496  30.143  29.113   0.425
33834W        W95497  25.477   2.385  12.458
33835W        W95498   8.888   6.267   0.962
33836W        W95499  11.781   2.388   4.807
33837W        W95500  16.128   1.346  12.346
33838W        W95501  22.115  35.095   1.277
33839W        W95502  36.056  29.971   3.370
33840W        W95503  14.106  35.593   3.348
33841W        W95504  29.081  17.727  13.493
33842W        W95505  30.554  43.331  12.504
33843W        W95506  34.382  29.483  10.471
33844W        W95507  16.208   9.242  13.937
33845W        W95508   6.811  43.308  14.944
33846W        W95509  38.456  23.639   3.794
33847W        W95510   2.359  38.510  13.370
33848W        W95511  37.862  32.008  14.361
33849W        W95512  40.862  13.304   1.257
33850W        W95513   0.423  18.073  14.329
33851W        W95514  40.413  21.172   2.771
33852W        W95515  17.753  25.067  13.456
33853W        W95516  16.174  35.457   3.712
33854W        W95517  36.473  30.046   4.293
33855W        W95518  17.241   9.813   2.272
33856W        W95519  23.529  33.906   2.355
33857W        W95520   3.382   4.880   0.320
33858W        W95521  11.866   8.208   3.792
33859W        W95522  33.047   3.375  14.952
33860W        W95523  31.987  13.209   5.168
33861W        W95524  40.386  34.921  11.061
33862W        W95525  28.630  23.052  10.942
33863W        W95526  34.416   4.885  11.486
33864W        W95527  25.674  23.149   1.308
33865W        W95528  25.686   3.455   1.260
33866W        W95529  21.047  12.834   2.403
33867W        W95530   0.942  18.667   4.721
33868W        W95531  31.938  21.047   3.824
33869W        W95532  37.921  25.500   3.757
33870W        W95533  40.382  27.148   3.230
33871W        W95534  36.444  31.099   2.742
33872W        W95535  14.665  13.209   4.625
33873W        W95536  32.482  24.562   3.363
33874W        W95537  33.469  42.829   4.345
33875W        W95538   1.402  10.234  10.964
33876W        W95539  35.594  15.790   9.954
33877W        W95540  21.149  12.266  13.004
33878W        W95541  26.202   4.852  10.480
33879W        W95542  43.407   5.204   4.233
33880W        W95543  14.109  27.082  11.974
33881W        W95544  21.061  44.952   0.808
33882W        W95545  24.560  37.070   0.751
33883W        W95546   0.836  19.048   2.312
33884W        W95547  37.067  25.060   3.793
33885W        W95548  17.283  39.388  11.515
33886W        W95549  10.371  15.616  12.033
33887W        W95550  12.774  39.867   5.252
33888W        W95551  44.320   2.244   3.145
33889W        W95552  36.436  27.980   3.271
33890W        W95553  34.999  24.209   1.224
33891W        W95554  25.997  24.544   2.256
33892W        W95555  28.058  27.689   3.857
33893W        W95556  39.030  33.125  11.108
33894W        W95557  39.856  11.714   1.279
33895W        W95558  25.690   3.953   5.693
33896W        W95559  32.604  20.135  14.024
33897W        W95560  11.250  38.009  13.946
33898W        W95561  21.106   1.837   0.454
33899W        W95562  23.602  12.770  14.918
33900W        W95563   5.796  10.381  13.970
33901W        W95564  29.453  36.056  10.047
33902W        W95565  20.131  12.233  14.783
33903W        W95566  23.699  44.428   2.197
33904W        W95567  44.346  36.569  13.841
33905W        W95568  28.943  17.641   4.189
33906W        W95569  19.253  12.666   4.661
33907W        W95570  10.826  42.794   4.816
33908W        W95571  37.405  40.826   0.457
33909W        W95572   6.745   6.683  10.631
33910W        W95573  24.708  27.624  10.914
33911W        W95574  27.118  44.772  11.544
33912W        W95575  16.697  39.057   3.277
33913W        W95576  23.622  15.594  14.479
33914W        W95577  15.656  27.132   0.812
33915W        W95578   8.183  25.988   4.671
33916W        W95579  23.144  28.443   4.227
33917W        W95580   2.229  36.403  10.941
33918W        W95581  20.748   2.859  14.443
33919W        W95582  34.501  29.112   1.876
33920W        W95583   9.706   4.330  12.076
33921W        W95584  23.150  33.559   3.259
33922W        W95585  26.624  17.069  12.093
33923W        W95586  32.036  43.348  11.013
33924W        W95587  13.137  35.501  11.001
33925W        W95588  10.214  19.664  10.028
33926W        W95589   0.936   0.317  14.424
33927W        W95590   8.223  12.848  11.937
33928W        W95591   6.229   2.733  12.416
33929W        W95592  29.027  29.037   3.827
33930W        W95593  33.013  31.562   3.797
33931W        W95594  21.598  17.725  14.306
33932W        W95595   1.453  13.165  13.372
33933W        W95596   0.299  21.214   1.698
33934W        W95597  23.125  32.575   2.308
33935W        W95598   1.875  13.164  13.335
33936W        W95599  12.233  34.923  10.493
33937W        W95600  22.013  27.146  11.899
33938W        W95601  15.291   3.356   3.869
33939W        W95602  27.979  15.658   2.317
33940W        W95603  18.121  20.559  11.949
33941W        W95604   5.258   3.793  14.402
33942W        W95605  11.300  19.739  13.861
33943W        W95606  14.706  25.565  13.907
33944W        W95607  42.821  42.781  12.839
33945W        W95608  17.711  31.036   2.676
33946W        W95609  29.616  21.209  11.445
33947W        W95610  37.493  19.558  11.412
33948W        W95611  30.999  22.123   2.359
33949W        W95612  37.394  20.100  14.451
33950W        W95613  38.852   4.337   0.763
33951W        W95614  25.485   5.827  10.508
33952W        W95615  34.894  36.380   2.772
33953W        W95616  21.676  16.604   9.635
33954W        W95617  22.522  30.060  11.388
33955W        W95618   8.195  19.688  10.521
33956W        W95619   6.737  34.509   2.181
33957W        W95620   2.855  11.780   0.817
33958W        W95621  17.117  17.656   3.632
33959W        W95622  30.543  15.653  14.378
33960W        W95623  17.644  43.410   4.351
33961W        W95624   4.882  10.777   1.835
33962W        W95625  29.440  42.506   4.764
33963W        W95626  15.273  20.639  13.498
33964W        W95627  12.273  21.034  14.432
33965W        W95628   3.316  35.542   2.723
33966W        W95629  44.380  35.410   2.815
33967W        W95630  26.657  41.514   5.203
33968W        W95631  10.858  15.188   2.410
33969W        W95632  26.488  24.203   3.217
33970W        W95633  10.637  14.765   4.782
33971W        W95634  14.796  36.930   4.198
33972W        W95635  43.506   8.243  10.489
33973W        W95636  24.187  30.438   9.982
33974W        W95637  16.121  23.660  13.451
33975W        W95638   8.834  10.142   4.191
33976W        W95639  28.545  12.178   2.829
33977W        W95640  18.626  43.863   0.940
33978W        W95641  31.455  38.353  13.448
33979W        W95642  22.548  20.571   4.214
33980W        W95643   8.160  13.315  10.620
33981W        W95644  36.912  23.138  12.989
33982W        W95645   7.900  24.202   1.396
33983W        W95646  36.078   6.255   3.802
33984W        W95647  43.891  38.533   3.814
33985W        W95648   5.916  27.553   0.805
33986W        W95649  31.084   3.794   4.269
33987W        W95650   7.903  35.936   9.920
33988W        W95651  10.263  29.060  11.083
33989W        W95652  37.872  39.444  11.978
33990W        W95653   1.470  28.654   4.701
33991W        W95654  17.305  12.687   0.784
33992W        W95655  40.431  36.979  13.806
33993W        W95656   1.416  36.089   4.684
33994W        W95657  43.516  41.878   3.796
33995W        W95658  23.221  42.845  14.387
33996W        W95659  36.359  30.918   3.680
33997W        W95660  16.673  39.439  13.923
33998W        W95661  25.013  35.383  10.998
33999W        W95662  24.230  44.963   2.803
34000W        W95663  35.530  11.709  10.478
34001W        W95664   3.788  44.272  11.505
34002W        W95665   8.368  10.647   2.189
34003W        W95666  24.712   4.367  11.006
34004W        W95667  43.508  42.314  10.913
34005W        W95668  41.323  25.018   4.832
34006W        W95669  24.700   1.352   3.711
34007W        W95670  33.563  30.909  11.035
34008W        W95671  30.427   1.339  10.911
34009W        W95672   2.307  11.827  14.974
34010W        W95673  29.984  11.844  13.443
34011W        W95674  26.557  28.115   3.749
34012W        W95675  35.099  15.275  11.895
34013W        W95676  21.155   0.920   3.265
34014W        W95677  39.408  31.082  13.057
34015W        W95678  23.563  28.570  13.404
34016W        W95679  31.644  43.988   3.682
34017W        W95680  24.659  18.677   2.868
34018W        W95681   4.384   3.823   1.833
34019W        W95682   4.939  24.038   2.729
34020W        W95683  40.913  29.007   4.134
34021W        W95684  16.209   7.395   3.790
34022W        W95685  11.251  12.856  14.878
34023W        W95686  39.543  23.637   4.793
34024W        W95687  29.636  17.785   2.350
34025W        W95688  39.500  13.684   9.990
34026W        W95689  29.513   9.814   1.933
34027W        W95690  16.317   9.333   2.687
34028W        W95691  10.358   1.802  10.597
34029W        W95692  26.127   8.270  14.029
34030W        W95693  12.173  36.927   4.122
34031W        W95694   9.737  33.412  11.094
34032W        W95695  43.513  30.624   0.444
34033W        W95696  11.677  10.696   2.356
34034W        W95697   7.261  42.492   3.640
34035W        W95698  19.766  41.847   4.811
34036W        W95699  31.647  44.767   3.203
34037W        W95700  24.194   3.262   2.873
34038W        W95701  28.517  13.216   4.691
34039W        W95702  17.610  41.367   0.333
34040W        W95703  37.361  14.602   4.762
34041W        W95704  40.468  18.746  11.123
34042W        W95705   6.337  25.104   0.482
34043W        W95706  16.666  34.056   0.931
34044W        W95707  43.271  30.650   0.844
34045W        W95708  27.597  33.056  14.516
34046W        W95709  21.599  43.381  14.382
34047W        W95710  28.150  13.303   0.415
34048W        W95711  35.865  17.660   3.167
34049W        W95712  17.613  33.118   0.782
34050W        W95713   9.797  41.901   3.231
34051W        W95714   8.698  27.558  14.844
34052W        W95715  27.191  12.356  12.388
34053W        W95716  39.992   5.914   2.351
34054W        W95717   7.217  36.063  14.460
34055W        W95718  26.628  44.479   3.715
34056W        W95719  43.432  15.300   2.687
34057W        W95720   5.402  17.725   0.749
34058W        W95721  26.577  18.294   1.216
34059W        W95722   4.431  27.079   0.788
34060W        W95723   1.910  13.231   2.785
34061W        W95724  15.182  11.652   0.810
34062W        W95725  38.503  23.584   4.345
34063W        W95726  40.452  21.672   2.662
34064W        W95727  18.775   2.448  11.097
34065W        W95728   4.860  36.565   3.329
34066W        W95729  32.039  30.435   3.736
34067W        W95730  40.403  16.574   0.731
34068W        W95731  28.505  40.820  14.996
34069W        W95732  13.774  17.720   3.704
34070W        W95733  20.532   6.859  12.082
34071W        W95734   4.887   9.230   4.597
34072W        W95735   5.437  19.164  11.089
34073W        W95736   4.764  29.976  10.576
34074W        W95737   9.742   1.901   4.256
34075W        W95738  25.026  29.121  11.546
34076W        W95739   4.846   2.402  10.986
34077W        W95740  19.283  21.173   2.371
34078W        W95741   8.389   8.867  10.616
34079W        W95742  30.614  27.614  11.907
34080W        W95743   4.429   1.893  14.339
34081W        W95744  25.996  12.303  14.762
34082W        W95745  43.429   2.399  13.044
34083W        W95746  11.764   8.856  11.961
34084W        W95747  24.168   0.250   2.366
34085W        W95748  19.642  10.293   2.734
34086W        W95749  26.574  35.096  10.443
34087W        W95750  25.603  15.296   2.379
34088W        W95751  10.171  41.487   2.221
34089W        W95752  23.166  30.537   0.895
34090W        W95753  20.756  28.541  10.903
34091W        W95754  24.499  22.250  11.582
34092W        W95755  18.564  41.477  13.053
34093W        W95756  10.323  23.235   4.648
34094W        W95757   3.406  26.024   2.184
34095W        W95758  26.689   9.294   4.288
34096W        W95759   3.870  22.117  12.974
34097W        W95760  44.758  28.520  11.372
34098W        W95761  42.030  14.098   3.834
34099W        W95762   9.236   0.937  14.329
34100W        W95763   3.928   7.768   1.314
34101W        W95764  17.785  16.620   2.699
34102W        W95765  39.927   3.450   4.143
34103W        W95766  44.760  43.915   2.345
34104W        W95767   2.781   1.343  11.379
34105W        W95768  27.006  40.317   1.431
34106W        W95769   6.682  39.521  13.365
34107W        W95770  12.315  37.492  12.546
34108W        W95771  38.073  11.775   3.639
34109W        W95772  14.761  33.464  13.799
34110W        W95773  18.766  30.586  12.047
34111W        W95774  15.582  26.003   9.946
34112W        W95775   1.749  33.015   2.349
34113W        W95776  21.518  35.464  11.119
34114W        W95777  21.511   9.828   4.347
34115W        W95778  34.586  10.208   4.655
34116W        W95779  16.085  10.371  11.579
34117W        W95780  28.623  25.997  10.619
34118W        W95781  29.522  23.000   3.301
34119W        W95782  23.710  26.646   1.248
34120W        W95783  20.246  16.214  14.988
34121W        W95784   1.272  10.731   1.257
34122W        W95785  20.647  44.978  14.882
34123W        W95786  11.841  29.589  11.079
34124W        W95787   1.844  42.373  14.914
34125W        W95788   2.729  25.035   0.332
34126W        W95789  26.524  29.968  13.846
34127W        W95790  28.492   4.356   1.220
34128W        W95791   9.168   5.791   4.195
34129W        W95792   5.404   4.895  12.895
34130W        W95793  25.692   5.420  11.098
34131W        W95794  35.364  39.491   2.307
34132W        W95795  42.812  42.915   3.169
34133W        W95796  17.291  13.160   3.365
34134W        W95797  28.503  22.652  10.637
34135W        W95798  16.127  33.920  13.477
34136W        W95799  44.417  15.734   2.798
34137W        W95800  22.224  33.126  14.315
34138W        W95801  30.079   0.331  13.525
34139W        W95802  32.077  40.872   0.387
34140W        W95803  44.855  40.032   0.741
34141W        W95804  25.130  37.062  14.826
34142W        W95805  16.253  16.660  14.876
34143W        W95806  10.795  22.724   1.910
34144W        W95807  13.601  28.624  10.914
34145W        W95808  36.499  36.521  12.345
34146W        W95809  19.699  43.327   2.251
34147W        W95810  20.249  16.674   3.333
34148W        W95811  32.020   1.809  13.011
34149W        W95812   6.394  28.620   4.705
34150W        W95813  23.190  28.041  11.932
34151W        W95814  32.953  31.621   1.317
34152W        W95815   7.208  32.076  13.953
34153W        W95816   8.380  32.007   4.279
34154W        W95817  27.618  14.114  13.886
34155W        W95818  39.852  34.951   1.784
34156W        W95819   0.863   8.870  14.291
34157W        W95820  16.208  31.600  11.550
34158W        W95821  32.041  37.413   4.670
34159W        W95822  40.827  13.342  13.479
34160W        W95823  11.686   1.361  14.493
34161W        W95824  33.578  33.989   0.315
34162W        W95825  17.153  14.780  14.495
34163W        W95826  31.606  35.032  10.584
34164W        W95827   1.300   7.237   0.888
34165W        W95828   7.906  10.261   1.376
34166W        W95829  26.965  23.713   1.388
34167W        W95830  22.175  27.541   2.680
34168W        W95831  26.492  25.169   2.851
34169W        W95832   5.295  25.087   4.260
34170W        W95833   6.910  26.971  11.563
34171W        W95834  18.087   6.298  10.536
34172W        W95835  39.337  36.413   3.823
34173W        W95836  28.445   6.382  10.466
34174W        W95837  26.140  18.252  12.459
34175W        W95838  29.083  23.205  12.435
34176W        W95839   4.722  13.212   4.737
34177W        W95840  36.482  33.502  12.932
34178W        W95841  31.599  39.399   2.832
34179W        W95842   1.266   9.859   4.607
34180W        W95843  36.873  26.567   9.925
34181W        W95844  17.654   9.884  14.332
34182W        W95845  18.196   8.215  11.104
34183W        W95846  30.440  44.468   2.195
34184W        W95847  10.320   4.300  14.371
34185W        W95848   3.765  30.517  11.886
34186W        W95849  40.901   3.886  11.999
34187W        W95850  44.927   8.265  13.339
34188W        W95851  23.230  28.067  12.482
34189W        W95852   4.277  34.451  11.068
34190W        W95853   5.416  33.559  11.503
34191W        W95854  22.199  37.947  12.445
34192W        W95855  30.999  12.239   3.686
34193W        W95856  22.110  17.741  12.368
34194W        W95857  30.586  13.171  13.456
34195W        W95858  16.089  26.005   2.837
34196W        W95859  11.702  37.931   0.875
34197W        W95860  15.666  27.044  10.600
34198W        W95861   0.271  25.614   2.243
34199W        W95862  30.966   0.911   4.820
34200W        W95863  21.138  25.159   0.840
34201W        W95864  28.035  20.206  13.405
34202W        W95865  39.819  24.611  12.433
34203W        W95866  12.657  36.918  11.451
34204W        W95867  11.646  31.414  13.948
34205W        W95868  32.037  21.588  11.468
34206W        W95869  16.232   3.345   2.365
34207W        W95870  32.925   2.468   4.828
34208W        W95871  15.244  44.989   3.649
34209W        W95872  44.960  12.168   9.514
34210W        W95873  19.230   8.317  12.006
34211W        W95874  23.074   3.829  12.372
34212W        W95875  12.785  36.454   5.271
34213W        W95876  40.537  44.966   2.267
34214W        W95877  16.791   4.297  10.983
34215W        W95878  40.533  33.874   0.405
34216W        W95879  41.970  25.099   1.214
34217W        W95880  41.911  15.760  10.421
34218W        W95881   1.973  38.399   2.717
34219W        W95882  33.548  22.534   4.195
34220W        W95883  22.713  42.393  11.553
34221W        W95884  32.398   1.911  12.451
34222W        W95885  24.619  15.263  13.327
34223W        W95886  33.932  22.222   0.938
34224W        W95887  15.156  17.691  11.577
34225W        W95888  43.417  34.466   2.409
34226W        W95889  14.220   3.824   0.860
34227W        W95890  43.280   0.364   2.769
34228W        W95891  41.372  13.167   0.360
34229W        W95892  25.599  26.207  12.050
34230W        W95893  10.830  42.477   0.313
34231W        W95894  32.066  21.082  13.052
34232W        W95895  33.390  36.525   2.199
34233W        W95896   9.878  21.535   4.717
34234W        W95897  41.010  19.213   2.686
34235W        W95898  29.972   6.335   1.432
34236W        W95899  25.504  24.223  12.568
34237W        W95900  41.442  24.118   3.716
34238W        W95901  40.485  35.537   1.418
34239W        W95902  11.813  38.458   1.239
34240W        W95903  43.862  13.156   1.380
34241W        W95904  20.569  12.255   3.347
34242W        W95905  18.161  10.817  14.307
34243W        W95906  20.737  39.000   2.287
34244W        W95907  43.828  40.395  13.805
34245W        W95908  39.889  34.516   1.781
34246W        W95909  19.051   7.677  13.888
34247W        W95910  39.317  38.878   2.778
34248W        W95911   4.315  16.804   1.717
34249W        W95912   9.739  29.080  13.334
34250W        W95913   5.756  40.501   4.728
34251W        W95914  16.085   0.825   2.384
34252W        W95915  28.522  29.000  14.777
34253W        W95916  27.162  31.626  14.999
34254W        W95917  23.536  20.132  13.893
34255W        W95918   0.443  31.583   1.366
34256W        W95919  36.429   3.441   4.704
34257W        W95920  39.443  17.069   1.263
34258W        W95921  42.319  38.929   1.838
34259W        W95922   2.877  26.556   3.714
34260W        W95923   5.322  31.945   4.301
34261W        W95924  20.548   0.884   0.928
34262W        W95925  22.014  12.189   4.255
34263W        W95926  23.120   6.253  13.821
34264W        W95927  44.886  25.652   2.718
34265W        W95928  20.228  13.632  10.480
34266W        W95929  37.545   6.895   3.786
34267W        W95930  10.777   5.352  13.470
34268W        W95931  41.800   8.239  13.468
34269W        W95932  38.975   8.801   5.192
34270W        W95933   1.943  37.965  14.462
34271W        W95934  27.021  10.250  14.776
34272W        W95935  33.991  21.028  12.352
34273W        W95936  24.515  37.947   1.838
34274W        W95937  40.857  30.578   3.201
34275W        W95938  39.316  43.381  12.996
34276W        W95939  14.262  20.072   0.256
34277W        W95940  37.498   2.808  10.911
34278W        W95941  19.134  41.857  14.005
34279W        W95942  24.019  22.519   1.296
34280W        W95943   0.281  23.673  12.947
34281W        W95944   5.830  40.501  13.372
34282W        W95945  23.174   4.801  14.865
34283W        W95946  15.243  33.887  14.779
34284W        W95947  30.109   4.211  10.581
34285W        W95948  32.536  29.954  11.512
34286W        W95949   1.312  20.251   2.200
34287W        W95950  24.035  31.914   5.250
34288W        W95951  17.086   6.194   5.302
34289W        W95952  44.299  26.556  14.006
34290W        W95953   0.965  11.630  12.429
34291W        W95954  31.519  14.106  11.867
34292W        W95955  25.981  40.809   3.870
34293W        W95956  14.250  26.458  14.994
34294W        W95957  17.712  36.968  13.535
34295W        W95958  25.671  39.452  11.985
34296W        W95959  28.533  21.525  10.954
34297W        W95960  26.636  41.518   1.311
34298W        W95961   1.354  37.044  11.391
34299W        W95962  24.522  37.999   2.232
34300W        W95963  20.225  41.442  11.878
34301W        W95964  19.130  14.337  13.488
34302W        W95965  41.830   4.723  12.041
34303W        W95966  27.487  35.473  14.383
34304W        W95967  36.958  29.051  12.041
34305W        W95968   9.312  11.182  14.398
34306W        W95969  19.061  44.931   3.849
34307W        W95970  41.305   3.348   1.424
34308W        W95971  24.029  30.494  14.902
34309W        W95972  19.172  32.136   2.196
34310W        W95973  17.138  28.164  13.874
34311W        W95974  41.478   3.380  12.454
34312W        W95975  15.294   5.703  13.422
34313W        W95976  24.187  29.465  14.763
34314W        W95977  37.446  28.981   1.819
34315W        W95978  40.482  18.547  13.325
34316W        W95979  29.947  30.052  12.536
34317W        W95980  30.998  22.234   4.130
34318W        W95981  37.071  30.925   2.315
34319W        W95982  35.949  43.829  14.964
34320W        W95983   6.209  13.776  14.890
34321W        W95984  23.720  27.689   3.771
34322W        W95985   2.255   5.332   0.726
34323W        W95986  23.714  41.512   9.958
34324W        W95987  28.450  32.456   4.747
34325W        W95988  12.228  27.141  13.795
34326W        W95989  28.054   3.218  11.433
34327W        W95990  11.813   7.256   0.956
34328W        W95991  14.126   6.327  12.932
34329W        W95992  10.198  24.508  11.955
34330W        W95993  26.528  17.785   1.217
34331W        W95994  17.261  29.119   3.335
34332W        W95995  39.961   4.796   0.765
34333W        W95996  30.998  14.186  10.481
34334W        W95997   3.908  14.233  14.516
34335W        W95998   7.873  29.127  10.538
34336W        W95999  29.602  25.206  14.790
34337W        W96000   0.427  22.134  13.478
34338W        W96001   3.232   7.294  14.008
34339W        W96002  16.109  44.928   1.871
34340W        W96003  34.994  11.793  12.842
34341W        W96004  21.632  40.345  13.521
34342W        W96005   2.895   7.735  10.969
34343W        W96006  31.046   5.766   4.298
34344W        W96007  20.547   1.254   0.833
34345W        W96008  26.567  44.906  11.890
34346W        W96009  25.165  21.659   2.227
34347W        W96010   8.282  10.740   3.197
34348W        W96011   5.218   7.324   2.195
34349W        W96012  10.237   2.784   1.756
34350W        W96013   6.411  29.556   3.724
34351W        W96014  34.450  25.185   4.193
34352W        W96015   1.930  19.209  12.510
34353W        W96016  25.510  29.649   3.217
34354W        W96017  13.263   9.814   0.251
34355W        W96018  36.448  42.878  10.152
34356W        W96019  35.095  22.558  13.030
34357W        W96020  25.600   4.847   2.817
34358W        W96021  35.477  20.050  14.416
34359W        W96022  39.020  31.514  13.927
34360W        W96023  24.622  15.161  13.939
34361W        W96024   9.226   7.225   5.172
34362W        W96025  16.757  33.026  10.454
34363W        W96026   5.317  40.808  12.352
34364W        W96027  36.931  15.724  11.487
34365W        W96028  20.651  39.811   0.900
34366W        W96029   0.851  14.667  12.959
34367W        W96030  33.461  38.064  14.767
34368W        W96031   2.413  35.466   4.648
34369W        W96032  17.178  31.424   0.387
34370W        W96033   8.818   1.348  10.954
34371W        W96034   0.486   1.785   0.353
34372W        W96035  32.118  36.572   5.239
34373W        W96036  15.273  25.043  13.959
34374W        W96037   2.893   9.174   1.774
34375W        W96038  12.359   6.358  10.595
34376W        W96039  16.628   1.789  14.337
34377W        W96040  43.400  11.156  12.859
34378W        W96041  32.031  36.052  11.429
34379W        W96042  39.455  20.642  12.827
34380W        W96043  42.940  31.541  11.940
34381W        W96044  42.390   3.883  12.354
34382W        W96045  16.730  17.296  12.357
34383W        W96046   2.247   9.162   2.862
34384W        W96047  13.204  23.068   4.769
34385W        W96048  24.531  25.187  11.877
34386W        W96049  32.390  43.770  13.953
34387W        W96050  23.494  40.054   4.208
34388W        W96051   1.841   0.417  12.829
34389W        W96052  39.503   9.784  12.012
34390W        W96053   4.741  21.043  14.784
34391W        W96054  39.429  17.603  12.534
34392W        W96055   6.197  16.318   2.296
34393W        W96056  20.661   0.473  14.008
34394W        W96057  43.365  20.244  11.008
34395W        W96058  18.279  18.737   4.292
34396W        W96059   3.880  10.218  12.435
34397W        W96060  20.208   9.874   1.362
34398W        W96061   0.332  28.990   1.247
34399W        W96062  21.056  17.727  12.890
34400W        W96063  33.092  42.903   0.447
34401W        W96064  30.498  44.338   0.468
34402W        W96065  18.580  16.800   5.197
34403W        W96066  14.216  15.187  12.868
34404W        W96067  10.317  41.977  13.346
34405W        W96068  42.919   3.852  10.582
34406W        W96069  23.217  18.182   0.776
34407W        W96070  17.174  40.853   1.863
34408W        W96071  11.800  24.168   1.345
34409W        W96072  28.657   3.800  13.951
34410W        W96073  32.536   9.360  11.491
34411W        W96074   2.383  11.710   2.829
34412W        W96075  29.948  39.442  13.440
34413W        W96076  33.412  38.874  12.518
34414W        W96077  24.693  38.064   1.236
34415W        W96078  22.703   1.819   0.916
34416W        W96079  27.018   1.802  11.890
34417W        W96080   8.852  17.133   4.718
34418W        W96081   2.404   5.382  14.437
34419W        W96082  41.887  39.065  11.030
34420W        W96083  10.849  20.659   4.353
34421W        W96084   3.803  28.482  11.006
34422W        W96085   0.781  36.519  11.057
34423W        W96086  32.487  35.969   4.784
34424W        W96087  24.486  16.793   3.153
34425W        W96088  28.939  24.118   2.257
34426W        W96089   4.264  15.771  10.446
34427W        W96090  34.423  15.752   1.894
34428W        W96091   6.313  40.536  10.926
34429W        W96092  30.014  40.308   2.807
34430W        W96093   8.758   1.959   4.720
34431W        W96094   7.375  11.151  10.977
34432W        W96095  42.853  40.526  11.507
34433W        W96096  41.377  21.103   4.225
34434W        W96097  29.615  26.563  14.409
34435W        W96098   6.205  37.947   3.636
34436W        W96099  37.412  39.899  12.880
34437W        W96100   9.207  41.965   0.363
34438W        W96101  16.208  10.235   1.914
34439W        W96102  39.035  21.190   1.716
34440W        W96103  16.290  34.501  13.831
34441W        W96104   1.442  25.190   4.790
34442W        W96105  21.234  34.073   0.380
34443W        W96106  20.046   2.829   2.224
34444W        W96107   0.836   7.821   0.325
34445W        W96108  38.380  35.884   0.914
34446W        W96109  30.639  30.497  12.339
34447W        W96110   4.432  16.784  12.983
34448W        W96111  22.568   4.412   3.834
34449W        W96112   2.728  29.084  14.024
34450W        W96113  22.039  36.857  14.304
34451W        W96114  16.144   2.469  11.584
34452W        W96115  10.737   6.859  11.608
34453W        W96116   2.870   7.311  12.898
34454W        W96117  27.536   0.470   0.396
34455W        W96118  20.185  30.157  14.779
34456W        W96119  26.527  41.004  14.375
34457W        W96120  30.555  10.693   4.661
34458W        W96121  31.567  37.400   4.184
34459W        W96122  10.635  32.030   0.367
34460W        W96123  25.695  13.662  11.944
34461W        W96124  14.600  31.454   4.756
34462W        W96125  27.109  29.944   0.962
34463W        W96126   2.769  23.517   3.266
34464W        W96127  16.168   5.193  11.601
34465W        W96128   7.697   9.258   1.813
34466W        W96129  42.015   8.180   1.893
34467W        W96130  33.993  31.933  10.466
34468W        W96131  30.080  31.913  13.000
34469W        W96132  25.147  43.333   3.359
34470W        W96133  35.017  40.926  14.954
34471W        W96134  16.144  14.315  12.074
34472W        W96135  44.413  15.596  13.978
34473W        W96136  12.117  23.131  14.974
34474W        W96137  15.290   5.205  12.951
34475W        W96138  44.444  29.638   0.763
34476W        W96139   9.208  44.895  10.454
34477W        W96140  26.046  24.585   1.830
34478W        W96141   7.216   5.762  12.095
34479W        W96142   1.425  21.154  10.922
34480W        W96143  25.084  25.564   0.740
34481W        W96144  25.637  39.352   0.960
34482W        W96145  23.647  40.441   2.707
34483W        W96146   6.885   9.158   1.850
34484W        W96147  32.491  13.166   2.872
34485W        W96148  29.425  27.530  11.579
34486W        W96149   4.302  25.021   2.346
34487W        W96150  12.333  44.330  14.442
34488W        W96151  12.357  19.049   1.365
34489W        W96152  32.891  14.262   1.904
34490W        W96153  21.630  26.126  11.452
34491W        W96154  13.248  16.084  12.883
34492W        W96155  42.827  41.436  12.470
34493W        W96156  19.195   5.193   4.325
34494W        W96157  40.832  28.579   2.181
34495W        W96158  14.693  25.650   0.260
34496W        W96159  23.703  16.691  11.413
34497W        W96160  42.936  40.345  14.486
34498W        W96161   1.796  41.938   4.722
34499W        W96162   6.818  36.515   3.812
34500W        W96163   6.359  37.426   3.323
34501W        W96164   8.400  17.623   1.927
34502W        W96165   4.433  22.131   0.936
34503W        W96166   5.753  16.286   2.720
34504W        W96167  22.599  22.518  13.049
34505W        W96168  31.896  40.455   2.815
34506W        W96169  29.998  30.992   2.347
34507W        W96170  30.608  29.449   2.881
34508W        W96171  13.209  17.650   4.820
34509W        W96172  37.346  15.813   4.186
34510W        W96173  36.364  28.642  10.618
34511W        W96174  15.766  23.048  11.529
34512W        W96175  28.635  16.583   2.744
34513W        W96176   7.270  28.556  13.994
34514W        W96177   7.788   0.949   1.436
34515W        W96178   9.189  38.476  13.369
34516W        W96179   1.845  16.184   3.346
34517W        W96180  31.027   5.257  12.437
34518W        W96181  17.142  39.844  13.393
34519W        W96182  14.827  25.966  11.077
34520W        W96183   3.246  38.951   4.171
34521W        W96184  34.009   5.256   0.313
34522W        W96185  12.222  44.355   3.631
34523W        W96186   9.229  15.669   3.738
34524W        W96187  33.609   2.374  11.855
34525W        W96188  28.643   7.788   4.154
34526W        W96189  32.429  26.544  14.441
34527W        W96190  44.931  17.561   3.751
34528W        W96191  28.542  43.446   4.134
34529W        W96192  28.525  14.825  13.468
34530W        W96193  10.858  30.136   0.960
34531W        W96194  35.422  21.558  13.411
34532W        W96195  31.018  35.891  11.505
34533W        W96196   2.391  12.612   1.400
34534W        W96197  32.923   0.325   2.355
34535W        W96198  22.538  37.532  10.553
34536W        W96199  34.034   3.809   2.370
34537W        W96200  17.063   5.397  14.824
34538W        W96201  33.400  31.552   3.781
34539W        W96202  18.124  22.111   1.211
34540W        W96203   7.202  11.636  12.944
34541W        W96204  27.519  13.264   4.767
34542W        W96205  26.628  44.008  11.435
34543W        W96206  26.686   1.902   4.320
34544W        W96207  10.219  37.872   1.892
34545W        W96208   3.926   0.919  10.486
34546W        W96209  33.404   1.419  11.092
34547W        W96210  24.179  37.502  10.125
34548W        W96211   6.264  28.149  11.078
34549W        W96212   6.316  39.929   4.244
34550W        W96213  13.325  27.515  13.474
34551W        W96214   1.855  27.958   3.307
34552W        W96215   3.908   5.835  14.840
34553W        W96216  15.230   6.334  13.357
34554W        W96217   5.220   9.384  14.922
34555W        W96218  25.684  41.889  10.483
34556W        W96219  10.257  14.304  11.053
34557W        W96220  43.348  36.935   1.426
34558W        W96221   2.943  22.589   2.256
34559W        W96222   2.832  37.346   4.730
34560W        W96223  26.654  28.165  12.841
34561W        W96224   7.711  10.354  13.523
34562W        W96225   9.732  36.436  14.433
34563W        W96226  23.733   1.780   0.410
34564W        W96227   2.423  12.706  12.911
34565W        W96228  37.883  37.388   1.263
34566W        W96229  40.930  28.020   0.401
34567W        W96230  37.544  11.141  10.121
34568W        W96231  38.911  31.955   1.260
34569W        W96232  21.263  38.870  10.568
34570W        W96233   3.228  10.314   3.775
34571W        W96234   5.219  26.015   3.336
34572W        W96235  36.587  42.409  12.481
34573W        W96236  44.502  25.705  14.957
34574W        W96237  40.875   7.251  12.840
34575W        W96238  36.361  21.658   4.672
34576W        W96239   8.215  14.291  13.375
34577W        W96240  10.332   8.382  14.405
34578W        W96241  10.643   3.430  11.430
34579W        W96242  40.986  35.952  13.384
34580W        W96243  39.495  11.713  13.537
34581W        W96244  44.918  44.385   2.781
34582W        W96245   5.737   6.723   0.255
34583W        W96246  36.513  35.603  10.557
34584W        W96247  18.706  28.978   4.688
34585W        W96248  22.180  38.011   4.735
34586W        W96249  44.501   9.310   1.814
34587W        W96250  33.463   3.843  10.507
34588W        W96251   3.443   1.323  10.632
34589W        W96252  31.147   8.683   4.125
34590W        W96253  29.615   2.882   2.664
34591W        W96254  35.060  34.033   4.131
34592W        W96255   1.887  10.663   4.304
34593W        W96256  42.286  28.015  10.580
34594W        W96257  18.713  26.166  12.948
34595W        W96258  25.133  14.660   1.294
34596W        W96259  19.092  41.002  11.118
34597W        W96260  31.538  37.979  11.508
34598W        W96261  37.067  26.083   1.437
34599W        W96262  26.562   9.329  11.924
34600W        W96263  34.980  35.460  11.570
34601W        W96264   1.363   9.677  11.419
34602W        W96265  10.285  12.621  11.927
34603W        W96266   7.867   5.910   2.213
34604W        W96267  37.519  23.117  14.855
34605W        W96268  11.821  11.791  10.063
34606W        W96269  20.626   1.429   5.284
34607W        W96270  11.336  33.083   4.815
34608W        W96271  12.681  19.576   2.771
34609W        W96272  20.536  36.483   4.117
34610W        W96273   3.887  12.118  11.381
34611W        W96274  20.688  35.937   4.784
34612W        W96275  31.435  11.785  13.823
34613W        W96276  22.031   4.849   0.881
34614W        W96277   2.303  40.493   5.233
34615W        W96278   0.788  19.283  14.402
34616W        W96279   6.222  31.127   2.866
34617W        W96280  16.765  10.752  11.407
34618W        W96281  25.052  21.264   1.810
34619W        W96282  30.569  11.198   1.742
34620W        W96283  12.309   3.814   1.773
34621W        W96284  44.394  39.423   1.899
34622W        W96285  28.180   5.920   3.753
34623W        W96286   2.885  33.616  13.415
34624W        W96287  14.623  38.425  11.430
34625W        W96288   1.887  26.682   0.765
34626W        W96289  10.327  43.850  11.587
34627W        W96290   4.917   3.846  13.492
34628W        W96291  27.499   6.362   4.637
34629W        W96292  15.108  14.260   9.438
34630W        W96293  20.681  15.176  11.579
34631W        W96294   9.244   4.851  10.963
34632W        W96295  42.357  35.901   2.342
34633W        W96296   3.780   7.842  12.362
34634W        W96297  41.527  44.001  13.827
34635W        W96298  16.795  33.897   3.257
34636W        W96299  32.533  22.012  12.961
34637W        W96300  26.620  26.954  10.912
34638W        W96301  31.037  21.641   5.110
34639W        W96302  42.912  41.897  12.014
34640W        W96303  30.131  13.611  12.013
34641W        W96304  28.063  12.194   1.926
34642W        W96305   9.278  15.084  13.393
34643W        W96306  11.632  20.607  12.878
34644W        W96307  32.025   7.785   1.234
34645W        W96308   8.332  38.513  14.382
34646W        W96309  38.960  27.511   1.769
34647W        W96310   6.335  37.980  11.922
34648W        W96311  42.835  24.207   4.271
34649W        W96312  18.281  26.672  12.434
34650W        W96313  20.122  16.272   3.670
34651W        W96314  16.249   6.844   0.898
34652W        W96315  13.722   5.405  12.456
34653W        W96316  43.784  40.838  13.419
34654W        W96317   0.291  39.927  10.459
34655W        W96318  34.027  24.660   1.860
34656W        W96319   4.245  29.172  13.878
34657W        W96320  17.256  29.161   2.332
34658W        W96321  43.871  17.761   3.300
34659W        W96322  36.095   6.762  12.086
34660W        W96323  32.907  30.503  13.831
34661W        W96324  35.488   0.296  13.906
34662W        W96325   8.661  15.761  11.953
34663W        W96326   7.355  33.966  10.610
34664W        W96327  24.159  10.143  11.994
34665W        W96328  10.700   3.944  11.927
34666W        W96329  31.598   8.342   1.882
34667W        W96330  41.348  14.209  11.520
34668W        W96331  31.983   3.896   3.832
34669W        W96332   7.301  27.472   2.326
34670W        W96333  35.542  37.529  12.823
34671W        W96334   9.157  21.636  13.915
34672W        W96335  33.017   3.312   2.898
34673W        W96336  35.402   4.265  13.974
34674W        W96337  43.382  36.498  13.533
34675W        W96338  25.603  28.931  12.418
34676W        W96339   2.734  14.119   2.245
34677W        W96340  30.116  17.758   0.298
34678W        W96341  32.557  24.206   3.760
34679W        W96342   3.246  37.920   4.725
34680W        W96343   4.885  19.218  14.369
34681W        W96344  28.542  34.016   3.203
34682W        W96345  35.020  39.348  10.516
34683W        W96346  13.767  32.559   0.736
34684W        W96347  37.054   4.862  14.448
34685W        W96348  24.673  25.116   4.644
34686W        W96349  26.075   8.214  12.983
34687W        W96350   8.329  23.570  13.825
34688W        W96351  22.178  12.129  10.558
34689W        W96352   3.789  29.582  14.467
34690W        W96353  27.561  37.428   1.779
34691W        W96354   8.208  21.075  12.967
34692W        W96355   1.357  13.303   2.679
34693W        W96356  14.631  32.623   3.202
34694W        W96357  28.554  29.472   2.273
34695W        W96358  25.156  12.830   2.215
34696W        W96359  24.721  17.099   2.896
34697W        W96360  12.633  38.031   5.314
34698W        W96361   0.343   4.728   3.284
34699W        W96362   1.421  37.923   2.315
34700W        W96363  34.011  22.707   3.269
34701W        W96364  42.944  14.217   1.885
34702W        W96365  12.242  41.367   4.250
34703W        W96366   5.916  10.271  14.826
34704W        W96367  25.557  42.947  14.856
34705W        W96368   4.827  18.758  12.377
34706W        W96369   6.222  29.100   3.266
34707W        W96370  25.698  33.930  14.379
34708W        W96371  13.322  29.566  11.963
34709W        W96372   6.712  17.299  13.488
34710W        W96373  32.140  38.064   4.118
34711W        W96374   8.261   6.811   0.406
34712W        W96375  32.941   7.293   2.786
34713W        W96376  33.402  30.466  14.313
34714W        W96377  10.814  34.881   4.183
34715W        W96378  24.648  33.096  12.056
34716W        W96379  32.581  17.563  11.569
34717W        W96380  25.517  38.831  11.401
34718W        W96381  32.900   4.429   1.905
34719W        W96382  21.037  28.572  12.472
34720W        W96383  32.542   1.914  14.995
34721W        W96384  26.501  36.015   3.159
34722W        W96385  22.015  40.495  13.891
34723W        W96386  33.517   8.257   4.810
34724W        W96387  34.053   2.882   0.432
34725W        W96388  40.487  29.150   2.339
34726W        W96389   4.218  17.146   3.810
34727W        W96390  14.163  22.134  14.480
34728W        W96391  17.121  15.209   2.800
34729W        W96392  15.209  11.305   2.273
34730W        W96393   3.423   7.255  13.424
34731W        W96394   8.886  16.085   4.732
34732W        W96395   1.295  38.052   4.758
34733W        W96396  44.863  37.403  13.311
34734W        W96397  42.998  41.979   2.219
34735W        W96398   8.888   0.866   3.717
34736W        W96399  38.008  11.278   1.243
34737W        W96400  34.116  19.758   5.134
34738W        W96401  25.012  16.675  14.450
34739W        W96402  29.588  10.240   3.306
34740W        W96403   3.323  28.038  12.949
34741W        W96404  33.620  13.281   0.887
34742W        W96405  24.145  25.075   1.316
34743W        W96406  41.439  17.140   3.790
34744W        W96407  28.539  35.580  14.376
34745W        W96408  44.938  13.620   4.114
34746W        W96409  36.545  14.751  12.918
34747W        W96410   5.772  35.499  12.041
34748W        W96411   5.307   4.267   2.811
34749W        W96412  31.904   3.320   4.261
34750W        W96413   0.927  41.499   4.275
34751W        W96414  31.441  26.656   3.764
34752W        W96415   1.747  43.889  11.962
34753W        W96416  26.531  15.151  12.002
34754W        W96417  38.055  39.394   0.968
34755W        W96418  15.178   0.756  11.397
34756W        W96419   8.864   4.436   1.326
34757W        W96420  38.391  33.417   2.198
34758W        W96421  20.711  43.845  11.066
34759W        W96422  30.943  21.715   4.204
34760W        W96423  35.992   6.805   2.816
34761W        W96424  12.767  18.696  12.440
34762W        W96425  19.575  21.707   3.161
34763W        W96426   0.350  12.188  12.010
34764W        W96427  41.442  33.884  14.509
34765W        W96428  20.668  25.030  14.454
34766W        W96429  33.382  12.281   0.808
34767W        W96430  24.093  30.505   2.687
34768W        W96431  37.005  15.140  10.611
34769W        W96432  23.234  15.624  13.436
34770W        W96433   0.978  43.278  10.969
34771W        W96434  17.640  18.783  10.942
34772W        W96435  36.351   2.944   1.257
34773W        W96436  34.990  41.936   4.774
34774W        W96437  41.468  10.190   2.289
34775W        W96438   0.885  12.618  10.933
34776W        W96439  44.932   8.302   1.711
34777W        W96440   3.748  18.223   0.945
34778W        W96441   7.266  29.613   1.787
34779W        W96442  27.991  14.592  12.835
34780W        W96443  28.151  21.173   4.201
34781W        W96444  15.228  32.975  12.061
34782W        W96445  10.234  36.907  12.411
34783W        W96446  22.610  36.027  10.009
34784W        W96447  43.431   4.396  13.989
34785W        W96448   1.266  28.506   0.464
34786W        W96449  38.509   4.343  13.317
34787W        W96450  34.505   9.299  11.600
34788W        W96451  42.292  14.623   2.718
34789W        W96452  41.350  25.513   1.291
34790W        W96453  30.534  44.330  12.342
34791W        W96454  17.563  13.716  11.580
34792W        W96455   1.419  37.858   2.766
34793W        W96456  22.065  38.519  10.959
34794W        W96457  32.070  16.676   0.911
34795W        W96458  44.769   0.863  14.306
34796W        W96459   0.811  33.043   1.863
34797W        W96460   5.278  14.297   3.865
34798W        W96461  40.802  10.651   4.268
34799W        W96462  33.382   6.841  14.346
34800W        W96463  23.665  26.170  13.045
34801W        W96464  16.146  40.405   1.771
34802W        W96465  28.181  37.486  11.981
34803W        W96466  12.828  19.080   2.685
34804W        W96467  32.018  29.088   2.311
34805W        W96468  16.160  41.424   0.941
34806W        W96469  15.697  43.487   0.880
34807W        W96470   8.698  14.255  11.544
34808W        W96471  44.832  20.543   2.902
34809W        W96472   3.458   4.895   3.156
34810W        W96473  25.032   7.769   5.118
34811W        W96474   6.797  41.508  10.555
34812W        W96475   3.786  11.335  11.408
34813W        W96476  21.674  19.601  13.029
34814W        W96477  44.429   7.399  10.575
34815W        W96478  17.686   8.862   2.184
34816W        W96479  14.201  37.939  14.022
34817W        W96480  43.460  40.936   0.758
34818W        W96481  20.035   1.755  14.763
34819W        W96482   6.840   8.359   3.779
34820W        W96483  42.982  25.034  14.329
34821W        W96484  26.995  31.419   2.819
34822W        W96485  34.024  12.222   3.634
34823W        W96486  41.959  39.525  12.539
34824W        W96487  39.862  33.625  14.392
34825W        W96488  42.977  19.152   0.842
34826W        W96489   8.314  15.653   1.760
34827W        W96490  42.852  15.726   2.751
34828W        W96491  21.604  40.825  10.980
34829W        W96492  28.595  33.025  11.603
34830W        W96493  29.972  38.985  13.008
34831W        W96494  10.713   8.361  13.548
34832W        W96495  29.518  34.031  12.387
34833W        W96496  34.541  43.772  14.909
34834W        W96497   5.831  29.152   3.208
34835W        W96498   2.919  18.635   1.935
34836W        W96499  34.511   0.931  10.549
34837W        W96500  16.097  43.328  14.885
34838W        W96501  15.740  28.990   3.677
34839W        W96502  22.619  25.507  11.895
34840W        W96503   1.880  20.584   1.219
34841W        W96504   7.238  27.096   0.779
34842W        W96505  39.537  12.830  13.803
34843W        W96506   4.796   9.390  11.427
34844W        W96507  35.902   6.241  12.495
34845W        W96508  13.787   0.952   3.156
34846W        W96509  22.227  12.119  12.905
34847W        W96510  21.698  24.098  14.280
34848W        W96511  44.924  12.853   4.198
34849W        W96512  12.660  21.037  11.856
34850W        W96513  13.293  40.317   1.904
34851W        W96514  18.669  41.411  12.054
34852W        W96515  39.475   6.887   0.938
34853W        W96516  11.299  26.038  12.992
34854W        W96517  20.228  44.336  12.380
34855W        W96518   4.876   9.244  14.925
34856W        W96519  27.069  35.079  12.538
34857W        W96520  17.562  10.275  10.433
34858W        W96521  38.336  30.960   2.361
34859W        W96522  37.960  12.851  14.498
34860W        W96523  17.198  14.824  12.060
34861W        W96524  39.370  33.088  14.995
34862W        W96525  39.044  36.593   1.419
34863W        W96526  21.736  12.262   1.210
34864W        W96527   1.375  30.134  13.414
34865W        W96528  43.300  42.305   0.745
34866W        W96529   3.279  20.045   3.297
34867W        W96530  40.521   1.477   3.316
34868W        W96531  15.695  13.810  11.531
34869W        W96532  35.389  28.564   0.888
34870W        W96533   5.325  22.587   1.845
34871W        W96534  33.585  16.676  13.001
34872W        W96535  37.870  28.155   4.146
34873W        W96536  23.094  20.258  12.568
34874W        W96537   3.814  40.054  14.288
34875W        W96538   3.815  30.123   0.371
34876W        W96539  44.926  27.692  14.493
34877W        W96540  39.493  34.591   0.450
34878W        W96541  40.040  17.083   0.252
34879W        W96542  15.783  26.465   3.372
34880W        W96543   8.880   2.275   0.831
34881W        W96544  12.337  28.608  14.424
34882W        W96545   7.314  26.164   2.392
34883W        W96546  28.026   3.842   0.441
34884W        W96547  21.556  14.109  13.883
34885W        W96548  10.167  40.383   0.848
34886W        W96549  24.034  42.984  13.517
34887W        W96550  17.202   1.801   1.237
34888W        W96551  30.156   7.336  13.796
34889W        W96552  28.100   4.794   9.936
34890W        W96553  29.168  15.751   3.289
34891W        W96554  31.969  35.966   2.712
34892W        W96555  19.054  32.435  11.539
34893W        W96556  32.554  28.449   4.640
34894W        W96557  33.972  10.177  12.874
34895W        W96558   0.444  13.771  13.911
34896W        W96559   2.307  15.591  12.360
34897W        W96560   4.303  31.053  11.020
34898W        W96561  15.679  38.923   4.137
34899W        W96562  38.974  21.667   2.326
34900W        W96563   6.341   3.394  13.464
34901W        W96564  27.158  10.807   3.151
34902W        W96565   4.825  15.306  11.984
34903W        W96566  31.981  44.770  14.912
34904W        W96567  30.440  32.637   4.805
34905W        W96568  18.599  41.960   1.411
34906W        W96569  30.420   3.751  13.412
34907W        W96570   6.718  23.575  10.624
34908W        W96571   0.395  26.111   4.633
34909W        W96572  44.771  39.478  11.964
34910W        W96573  32.011  23.043  11.485
34911W        W96574  36.391  30.623   1.426
34912W        W96575  31.421   6.803  12.957
34913W        W96576  16.299   0.322   4.671
34914W        W96577  28.465   0.834   4.796
34915W        W96578  21.693  25.565  10.410
34916W        W96579  36.937  25.107  14.404
34917W        W96580  28.451  24.221  13.035
34918W        W96581  21.729  23.617  12.095
34919W        W96582  30.923  26.952   3.221
34920W        W96583  11.860   5.865   0.783
34921W        W96584  36.524  44.386  10.085
34922W        W96585   4.729  30.093   0.761
34923W        W96586  18.186  33.041  12.929
34924W        W96587  17.110  42.380   0.880
34925W        W96588  32.551   5.225  12.908
34926W        W96589  20.566   6.858   4.722
34927W        W96590  19.254   6.681  14.831
34928W        W96591  36.921  33.578  13.907
34929W        W96592  11.729  23.549   4.784
34930W        W96593  27.534  26.143  13.405
34931W        W96594  24.509   1.758   1.752
34932W        W96595  14.797  18.155  14.395
34933W        W96596   3.763   1.961  10.937
34934W        W96597  14.757  20.661  12.877
34935W        W96598  36.867  36.462  12.975
34936W        W96599  10.214  37.425  10.596
34937W        W96600   3.746  39.971   4.727
34938W        W96601   6.344  30.113   3.791
34939W        W96602  10.291   6.874  13.045
34940W        W96603  19.243   2.357   0.361
34941W        W96604  39.066  38.841  13.828
34942W        W96605  15.693   8.267   3.197
34943W        W96606  12.335   1.870   2.791
34944W        W96607  38.870  36.537  13.944
34945W        W96608  34.411  26.464  12.437
34946W        W96609   2.425  10.317   9.995
34947W        W96610  11.284  32.970  14.786
34948W        W96611  10.673   1.475  14.020
34949W        W96612  12.299  42.351   3.635
34950W        W96613  43.343  37.348  11.924
34951W        W96614  39.967  40.832  11.424
34952W        W96615   3.327  31.945   2.250
34953W        W96616  20.250  32.414  13.534
34954W        W96617  18.066  21.650   3.716
34955W        W96618  12.706  25.063   0.289
34956W        W96619  42.316  27.659  11.027
34957W        W96620  19.579   1.457  10.888
34958W        W96621  15.662  27.183   2.354
34959W        W96622  11.132  40.336   3.631
34960W        W96623  11.755   8.255  11.444
34961W        W96624  27.093  24.499   4.666
34962W        W96625  14.595   6.190   0.284
34963W        W96626  34.963  10.859  10.066
34964W        W96627  40.383  16.788   2.851
34965W        W96628  23.186  42.896   1.302
34966W        W96629  16.075  18.665   0.904
34967W        W96630  26.152  35.055  14.856
34968W        W96631  34.947  12.251   2.186
34969W        W96632  39.861  26.628  12.021
34970W        W96633  33.114  10.805   0.259
34971W        W96634  11.136   4.781   2.729
34972W        W96635  27.519   8.337  14.944
34973W        W96636  10.340   9.288  13.926
34974W        W96637   4.394  10.342   0.457
34975W        W96638  12.621  39.907   4.197
34976W        W96639   4.428  31.999   1.864
34977W        W96640   7.239  10.188   2.724
34978W        W96641  22.585  40.868   2.761
34979W        W96642  28.996   2.896  10.977
34980W        W96643   0.297  34.442  11.054
34981W        W96644   0.262  37.061  11.987
34982W        W96645  33.481   3.844  11.914
34983W        W96646  31.118  25.102   4.652
34984W        W96647  22.139  28.487  12.567
34985W        W96648  21.520  21.563   1.416
34986W        W96649  34.056  19.679  12.003
34987W        W96650  35.583  27.169  10.931
34988W        W96651  21.150  33.113   1.748
34989W        W96652  21.553  25.036   1.781
34990W        W96653   1.288   4.844   4.238
34991W        W96654  40.419   1.401   0.338
34992W        W96655  33.597  14.303  11.994
34993W        W96656  28.175  17.305  13.361
34994W        W96657   3.893   7.678   2.750
34995W        W96658  38.562   2.389   4.786
34996W        W96659  13.211  43.857  11.973
34997W        W96660  24.993   9.862   3.702
34998W        W96661  37.085  16.296   2.734
34999W        W96662  13.709  39.990   0.332
35000W        W96663  33.482  15.310  12.514
35001W        W96664   7.877  11.149   0.381
35002W        W96665  38.531  44.344   3.678
35003W        W96666  39.049  33.446  11.995
35004W        W96667   9.154  40.366  10.627
35005W        W96668  38.843   2.317   3.320
35006W        W96669  43.438  27.104   2.225
35007W        W96670   0.942  30.953  14.487
35008W        W96671  18.232  26.085   0.449
35009W        W96672  30.639  40.436  11.102
35010W        W96673  34.399  13.195   2.752
35011W        W96674  36.563   9.357  11.598
35012W        W96675  25.557  26.604  11.999
35013W        W96676  40.866  18.595  13.323
35014W        W96677  17.190  34.053  13.323
35015W        W96678  35.454   3.855  14.001
35016W        W96679   6.211   9.657   4.688
35017W        W96680  25.701  34.405   3.185
35018W        W96681  24.184  14.185   4.684
35019W        W96682  32.519  44.999  12.856
35020W        W96683   3.778   7.844  12.834
35021W        W96684  36.897  13.145   2.754
35022W        W96685  32.537  29.454  14.909
35023W        W96686  36.461  17.218  10.428
35024W        W96687  30.420  28.611  12.513
35025W        W96688   8.839   9.171  11.941
35026W        W96689  40.383  26.058  14.516
35027W        W96690  24.227  23.699  13.520
35028W        W96691  11.862   5.199   3.325
35029W        W96692  24.478  35.590  11.105
35030W        W96693  22.019   6.766  14.372
35031W        W96694   8.670  29.171   1.301
35032W        W96695  22.576  19.546  12.574
35033W        W96696  40.540  20.072  14.005
35034W        W96697  41.402   4.434   2.390
35035W        W96698  27.024   6.756  12.342
35036W        W96699  31.132   4.711  13.052
35037W        W96700  14.132  37.954  12.018
35038W        W96701  27.683  25.063   2.886
35039W        W96702  30.643  20.148   0.473
35040W        W96703  42.844  23.200   3.150
35041W        W96704  13.826  15.711   3.826
35042W        W96705   6.314  11.687  11.952
35043W        W96706  33.540  28.436   4.720
35044W        W96707  10.268  21.536  12.955
35045W        W96708  35.886  14.657  13.820
35046W        W96709  18.596   0.429   3.653
35047W        W96710  27.663   6.898  12.573
35048W        W96711  34.532  32.082   5.286
35049W        W96712  30.150   6.364  12.068
35050W        W96713  15.679   4.712   0.436
35051W        W96714  32.447  36.061  12.932
35052W        W96715  13.713   5.342   0.283
35053W        W96716  25.573  44.359  11.005
35054W        W96717  25.713  30.607   3.654
35055W        W96718  19.127  39.852   0.890
35056W        W96719   8.276  43.799  13.917
35057W        W96720   0.816  24.514  11.117
35058W        W96721  37.345  30.422  14.943
35059W        W96722   2.815  41.361  14.457
35060W        W96723   5.751  15.691   3.837
35061W        W96724  35.560  28.182  10.642
35062W        W96725  25.023  19.207   1.245
35063W        W96726  41.024  33.939   1.400
35064W        W96727  20.696  19.173  14.822
35065W        W96728  44.454  13.633  13.547
35066W        W96729   5.887  37.489   4.162
35067W        W96730  22.237  29.984  13.008
35068W        W96731  19.774   2.745  10.556
35069W        W96732   1.359   9.799  14.799
35070W        W96733  16.207   2.957  11.413
35071W        W96734   4.709  11.778   0.452
35072W        W96735  43.351  13.331  12.561
35073W        W96736  34.011  21.754   0.811
35074W        W96737  33.442  38.346   0.478
35075W        W96738  18.224  20.058   4.347
35076W        W96739  21.035  23.104  14.318
35077W        W96740  28.597  15.751  12.019
35078W        W96741  26.653   0.809  14.977
35079W        W96742  37.465  27.019   4.330
35080W        W96743  35.373  21.592   1.804
35081W        W96744  39.024  18.256   1.244
35082W        W96745   0.424  34.389  12.432
35083W        W96746  36.052  16.248  13.873
35084W        W96747  17.750  16.223  12.911
35085W        W96748  42.980  28.112   5.249
35086W        W96749  43.849  14.202  12.039
35087W        W96750  29.109   4.773   2.369
35088W        W96751  28.151  19.251  12.507
35089W        W96752   9.228  18.135   3.224
35090W        W96753  30.468  42.321   2.190
35091W        W96754  27.627  29.551   1.280
35092W        W96755  11.679  42.451  12.923
35093W        W96756   5.738  26.560  14.776
35094W        W96757  16.809  26.516  11.428
35095W        W96758  26.534   5.925   1.850
35096W        W96759   0.329  21.741   1.841
35097W        W96760  29.502  22.225  11.477
35098W        W96761   6.743  24.020   4.785
35099W        W96762  37.970  13.722  13.871
35100W        W96763  18.547   4.730   1.737
35101W        W96764  42.972   7.862  14.430
35102W        W96765  22.621  37.992   4.786
35103W        W96766  11.787  16.291  10.548
35104W        W96767  37.449  32.906   3.231
35105W        W96768  13.772  19.121  13.324
35106W        W96769  17.295  23.530   0.858
35107W        W96770  18.237   3.429   2.196
35108W        W96771  31.571  11.622   2.396
35109W        W96772   3.227  16.693  11.993
35110W        W96773  21.594  38.870  11.889
35111W        W96774   6.731  26.630   2.877
35112W        W96775   1.776  26.177  13.443
35113W        W96776   5.247   2.804   1.899
35114W        W96777   1.936  29.464  10.636
35115W        W96778  20.089  16.795   1.932
35116W        W96779   4.854  43.976  14.932
35117W        W96780   7.219  19.238  14.294
35118W        W96781   5.388  12.221   2.664
35119W        W96782  29.953  27.035  12.093
35120W        W96783  24.195   5.262  14.345
35121W        W96784   1.421  35.079   3.807
35122W        W96785   9.265  13.780  13.912
35123W        W96786  43.274  41.528   4.340
35124W        W96787  34.477  18.591   0.884
35125W        W96788  26.132   1.917   4.807
35126W        W96789  32.078  12.640   1.716
35127W        W96790  14.651  13.184   2.217
35128W        W96791   9.166  16.712  12.376
35129W        W96792  41.879  28.172  10.071
35130W        W96793  41.933   2.853   0.361
35131W        W96794  27.528  42.834   0.307
35132W        W96795  11.720  32.908  11.469
35133W        W96796  16.283   5.361   1.699
35134W        W96797  44.406  20.162   3.835
35135W        W96798   5.873  13.280   3.290
35136W        W96799  15.246  11.335  12.985
35137W        W96800  15.662  33.087   2.353
35138W        W96801   2.832  39.468   3.736
35139W        W96802  42.407   9.757  11.507
35140W        W96803  28.959  12.765  13.814
35141W        W96804  35.063  36.350  12.970
35142W        W96805  11.638  29.600   1.830
35143W        W96806  21.153   7.222  10.084
35144W        W96807  44.267  31.127   0.392
35145W        W96808  14.813  20.130   4.141
35146W        W96809   4.214   7.866  12.841
35147W        W96810   0.341  30.434   0.425
35148W        W96811  14.211  17.258   1.761
35149W        W96812   5.921  12.189  12.947
35150W        W96813  17.137   1.392  14.814
35151W        W96814  11.268   3.776   3.279
35152W        W96815  30.591  43.966  13.816
35153W        W96816   8.802   3.762   2.806
35154W        W96817  11.795  12.784  11.520
35155W        W96818  21.650  12.280  14.395
35156W        W96819  21.520  36.488   3.225
35157W        W96820  21.616  37.434  10.005
35158W        W96821   0.801  15.704  11.383
35159W        W96822  17.148  37.997   0.920
35160W        W96823  22.121  19.166   3.336
35161W        W96824   6.231  25.559  14.806
35162W        W96825  22.031  31.028   4.181
35163W        W96826  24.495  18.772  13.011
35164W        W96827  27.653  29.122   4.827
35165W        W96828  20.119  38.372  12.895
35166W        W96829  39.437  32.962   4.644
35167W        W96830  27.622   4.922   4.322
35168W        W96831  27.942  22.098  11.493
35169W        W96832  24.715  28.644   4.167
35170W        W96833  20.100  12.195   1.313
35171W        W96834   9.761   9.177   4.239
35172W        W96835  40.369   9.295   0.828
35173W        W96836  33.071  20.183   0.249
35174W        W96837  39.926  19.696  13.926
35175W        W96838  23.132  23.077  10.896
35176W        W96839  14.210   5.345  13.372
35177W        W96840  42.292  32.116  14.876
35178W        W96841  22.600  27.016  12.510
35179W        W96842  13.258  25.474   2.186
35180W        W96843  14.674  40.443  12.381
35181W        W96844  26.598   3.387   1.842
35182W        W96845  14.594  10.186   4.301
35183W        W96846  31.518  19.213  14.029
35184W        W96847  11.260  30.970   0.395
35185W        W96848   1.938  23.637  13.497
35186W        W96849   5.313   4.368  12.034
35187W        W96850  28.938   3.378  11.092
35188W        W96851  24.066   2.775   1.415
35189W        W96852  34.095  12.221  12.087
35190W        W96853  36.848   0.352  12.394
35191W        W96854  28.535  40.958  12.379
35192W        W96855  19.269  42.784   2.374
35193W        W96856  39.826  35.493  13.928
35194W        W96857  29.112   0.890  12.059
35195W        W96858   0.337  33.115  14.386
35196W        W96859  25.517   1.803   1.717
35197W        W96860  32.139  30.057  13.959
35198W        W96861  25.693  27.984  14.460
35199W        W96862  42.965  11.772  11.015
35200W        W96863  39.536  24.690  11.897
35201W        W96864  44.851  15.820  14.968
35202W        W96865  16.187  22.685  14.367
35203W        W96866  12.251  24.687  12.066
35204W        W96867  11.194  42.367  12.988
35205W        W96868  30.471  21.196   5.110
35206W        W96869  18.583  28.009  10.122
35207W        W96870   4.237  35.924   0.481
35208W        W96871   2.471  33.399  12.936
35209W        W96872   9.696  44.449   3.741
35210W        W96873   0.960  36.904   1.404
35211W        W96874  41.373  43.931   3.192
35212W        W96875  25.000  22.711  13.846
35213W        W96876  25.969  30.151  11.990
35214W        W96877   0.296   2.241  13.394
35215W        W96878  20.259  34.881   0.776
35216W        W96879  12.760  17.061  14.502
35217W        W96880  23.696   8.741   4.155
35218W        W96881   9.833  11.329  13.925
35219W        W96882  41.386  34.036  13.463
35220W        W96883   3.396  29.058  12.892
35221W        W96884  26.983   1.469   4.215
35222W        W96885   1.768  14.816  13.812
35223W        W96886  43.779  12.199  11.938
35224W        W96887   8.307  40.949   4.338
35225W        W96888  40.886  19.690  14.842
35226W        W96889   4.751   9.369   4.278
35227W        W96890   6.856  41.932  10.531
35228W        W96891   4.293  19.238   1.278
35229W        W96892  41.912  20.748  13.968
35230W        W96893  10.739  31.568  12.078
35231W        W96894  12.262  33.537  11.894
35232W        W96895  38.018  31.035   0.780
35233W        W96896  12.296  44.781   2.212
35234W        W96897  34.086  35.988   3.238
35235W        W96898   0.893  24.217  13.369
35236W        W96899  21.627  42.344  12.860
35237W        W96900  19.770  39.508   3.701
35238W        W96901  28.146  33.982   2.886
35239W        W96902  32.950  28.507   1.852
35240W        W96903   3.761  29.151  11.955
35241W        W96904  15.229  36.349   1.242
35242W        W96905   4.886  13.124  10.424
35243W        W96906  25.617  36.090   2.352
35244W        W96907  23.657  24.676   5.672
35245W        W96908  12.255  13.695  11.508
35246W        W96909  10.661  24.545   0.438
35247W        W96910   7.355  18.631   2.837
35248W        W96911  22.569  44.772  14.392
35249W        W96912  18.681  32.426   0.433
35250W        W96913  43.925  11.716  13.319
35251W        W96914  19.188   0.933   2.236
35252W        W96915  21.758   6.333  11.087
35253W        W96916  39.927  24.515  10.530
35254W        W96917  27.081  26.136  12.563
35255W        W96918  25.507  41.908  12.952
35256W        W96919   0.763   3.888  14.848
35257W        W96920  22.213  17.756   2.359
35258W        W96921  32.126  22.131   2.225
35259W        W96922  16.268  29.110   4.830
35260W        W96923  25.681  18.057  12.362
35261W        W96924   3.356  14.148   0.908
35262W        W96925  17.162  13.662  12.453
35263W        W96926  30.625  41.793   4.233
35264W        W96927   8.835  33.103  12.442
35265W        W96928  36.578   6.299   1.701
35266W        W96929  23.106  18.665  10.942
35267W        W96930  12.825   9.746  13.033
35268W        W96931  14.291  16.789   2.864
35269W        W96932  30.083  42.282  12.044
35270W        W96933  31.054  12.248   4.721
35271W        W96934   4.781  24.573  12.893
35272W        W96935  28.478   5.899   3.838
35273W        W96936  15.718  39.900  10.927
35274W        W96937  38.531  23.063  11.462
35275W        W96938   5.329  38.346   1.315
35276W        W96939   3.845  24.719  13.452
35277W        W96940  42.943  37.473   4.652
35278W        W96941  42.321   2.326   0.856
35279W        W96942   1.936   1.248  11.095
35280W        W96943  20.045  21.734  11.865
35281W        W96944  43.015  21.138  13.876
35282W        W96945  39.950  28.674   4.661
35283W        W96946  13.735  19.605   4.817
35284W        W96947  21.225   0.271  13.926
35285W        W96948   8.760  15.221  11.511
35286W        W96949  10.743   8.262   2.775
35287W        W96950  18.165   7.725   4.225
35288W        W96951  10.781   9.842   2.888
35289W        W96952   1.831   4.393   1.777
35290W        W96953   2.320   7.798   4.780
35291W        W96954  16.791   1.884   3.151
35292W        W96955  28.083  37.952   1.441
35293W        W96956  32.116   6.737  11.125
35294W        W96957  20.758  33.514   0.361
35295W        W96958  21.742  26.031   2.673
35296W        W96959   2.393  36.549   4.741
35297W        W96960  14.328  24.673   2.380
35298W        W96961  35.975  37.387   4.800
35299W        W96962  40.468  11.625  12.497
35300W        W96963  16.239   3.346  14.288
35301W        W96964   0.385  43.766  14.773
35302W        W96965  39.023  17.265   1.848
35303W        W96966  14.775  43.801   3.700
35304W        W96967  11.289  44.362   0.329
35305W        W96968  29.580  29.595   1.909
35306W        W96969   3.326  43.995  12.491
35307W        W96970   2.459  27.057   2.198
35308W        W96971   5.826   8.407  13.506
35309W        W96972   4.395  15.302   2.883
35310W        W96973  41.301  29.611   0.940
35311W        W96974   9.181  38.375   0.838
35312W        W96975   1.258  18.222  11.583
35313W        W96976  32.484  18.710  13.473
35314W        W96977  27.050   0.451  12.852
35315W        W96978   9.790   0.288  12.958
35316W        W96979   1.337  32.455   4.165
35317W        W96980  28.081  23.076   3.653
35318W        W96981  32.619   0.490  14.418
35319W        W96982  26.697  19.201   3.681
35320W        W96983  17.776  43.789  11.891
35321W        W96984   5.316  40.004  10.622
35322W        W96985  40.010  17.589  13.858
35323W        W96986   0.872  19.097   1.759
35324W        W96987  27.619  31.090  13.916
35325W        W96988  23.116  37.913  13.459
35326W        W96989  26.107  30.503  12.558
35327W        W96990  34.037  24.098  11.490
35328W        W96991  42.026  10.855  13.013
35329W        W96992  31.589   5.704  12.435
35330W        W96993  26.694  15.730  14.013
35331W        W96994  44.957   3.946   0.386
35332W        W96995  23.677  41.897   3.286
35333W        W96996  41.888  10.833   1.741
35334W        W96997   0.802  18.216  12.446
35335W        W96998  16.639  32.395  14.398
35336W        W96999  29.503   7.305  10.903
35337W        W97000  11.690  11.165  10.960
35338W        W97001  23.693  13.207   2.356
35339W        W97002   0.436  25.546  10.596
35340W        W97003  22.996  18.116   2.683
35341W        W97004   1.273  33.575   3.379
35342W        W97005  15.721  40.025   3.372
35343W        W97006  28.936   2.320   1.822
35344W        W97007  14.214  20.134   2.356
35345W        W97008  39.816  11.696  12.004
35346W        W97009  18.613  34.420  11.612
35347W        W97010  36.560  10.317   2.388
35348W        W97011  27.689  27.130   1.434
35349W        W97012   6.361  22.594  13.545
35350W        W97013  14.300  36.034  10.625
35351W        W97014  34.867   3.231  10.559
35352W        W97015  26.041  11.668  10.936
35353W        W97016   3.852  35.967  10.641
35354W        W97017  35.507  43.849   3.351
35355W        W97018  31.984  24.120   3.322
35356W        W97019  44.008  18.652  14.881
35357W        W97020   0.818  43.795  12.066
35358W        W97021  43.912   4.800   3.279
35359W        W97022  13.642  14.720  11.984
35360W        W97023  23.706  44.435   0.376
35361W        W97024  34.041  37.991  13.886
35362W        W97025   3.762   7.259  12.936
35363W        W97026  16.603   1.410  14.774
35364W        W97027  42.498  39.025  10.543
35365W        W97028  27.080  41.451   2.283
35366W        W97029  35.853   2.424   1.399
35367W        W97030   3.371  17.717  12.964
35368W        W97031  20.057  12.310  11.063
35369W        W97032  14.606  43.286  14.481
35370W        W97033   5.875  26.501   2.796
35371W        W97034   3.759   2.272  14.470
35372W        W97035  29.149  14.109   2.248
35373W        W97036  32.563  15.712  13.410
35374W        W97037  14.232  23.053   0.266
35375W        W97038   9.880  42.802   1.695
35376W        W97039  29.062  10.294  13.896
35377W        W97040  14.137  29.004  10.909
35378W        W97041  28.007  16.785   2.248
35379W        W97042   5.790  44.880  13.972
35380W        W97043   9.882  35.001   2.233
35381W        W97044   6.388  13.256   0.836
35382W        W97045   6.850  36.367   4.224
35383W        W97046  39.886  34.061  10.526
35384W        W97047  14.639  23.009   1.302
35385W        W97048   1.780  20.558   0.737
35386W        W97049  18.778  10.850  13.806
35387W        W97050  24.150  38.946  11.537
35388W        W97051  40.317  31.910  14.500
35389W        W97052   2.878   2.776   3.162
35390W        W97053  27.996  33.488   1.765
35391W        W97054   9.341  33.914  11.097
35392W        W97055  31.070  18.670  10.966
35393W        W97056  11.801   5.431   0.274
35394W        W97057  12.668   5.218   4.310
35395W        W97058  38.416  18.699   3.825
35396W        W97059  11.824   8.862   0.340
35397W        W97060   3.358  40.864   4.221
35398W        W97061  42.309  43.996  12.443
35399W        W97062  35.557   0.962   0.368
35400W        W97063  41.848  25.522   2.333
35401W        W97064  13.347  44.450  14.963
35402W        W97065   1.367   8.761  13.999
35403W        W97066  33.990   6.268   0.296
35404W        W97067  29.007  38.055   0.881
35405W        W97068  10.759  34.076   1.801
35406W        W97069   1.441  39.445  12.041
35407W        W97070  20.688   2.351   2.182
35408W        W97071  17.637  31.063  11.092
35409W        W97072  25.486  22.156   2.688
35410W        W97073   4.292  30.100   1.889
35411W        W97074  19.618   8.757   1.884
35412W        W97075   8.186  15.125  12.929
35413W        W97076  24.191  40.801   1.912
35414W        W97077   9.169  19.204   0.871
35415W        W97078   6.416  43.317   0.332
35416W        W97079   8.323   6.261  14.438
35417W        W97080  35.902   3.343   4.151
35418W        W97081   5.278  24.651  13.398
35419W        W97082  26.507  25.694  13.477
35420W        W97083   8.255  36.558   2.219
35421W        W97084  28.138  21.110   3.155
35422W        W97085  14.336  26.027  14.295
35423W        W97086  24.090   4.213   1.339
35424W        W97087  28.111  34.985  14.441
35425W        W97088  42.420  25.154   2.744
35426W        W97089  14.320  36.397   2.253
35427W        W97090  18.232  28.560  12.953
35428W        W97091  44.503  40.842  10.415
35429W        W97092  28.164  41.334  13.386
35430W        W97093   0.940  20.707  12.910
35431W        W97094   2.309  35.526   2.361
35432W        W97095  29.520  36.015   1.265
35433W        W97096   6.287  32.592  11.465
35434W        W97097   1.411   4.834  12.876
35435W        W97098  10.809  11.847   4.631
35436W        W97099  22.576  24.198   3.310
35437W        W97100  23.559  24.065  11.115
35438W        W97101  40.861  14.199   4.272
35439W        W97102  42.831  27.490  11.059
35440W        W97103  29.483   3.393   1.328
35441W        W97104  28.079   9.318  10.959
35442W        W97105  20.733  38.924   3.351
35443W        W97106  44.334   4.797  10.933
35444W        W97107  18.077   4.210  11.405
35445W        W97108  33.117   0.811  14.828
35446W        W97109  12.123  27.064   0.958
35447W        W97110   5.200  17.789  10.586
35448W        W97111  30.950  38.986  14.332
35449W        W97112  44.964  25.986   1.329
35450W        W97113  42.789  16.782   1.743
35451W        W97114  26.598   6.372   5.192
35452W        W97115  33.968  26.539   2.855
35453W        W97116   2.294  27.119  13.006
35454W        W97117   0.277   7.830   1.761
35455W        W97118  34.095  38.541  10.524
35456W        W97119   9.846  16.632  11.376
35457W        W97120   2.901  18.278   0.382
35458W        W97121   1.911  13.116   1.847
35459W        W97122  41.798  17.101  12.881
35460W        W97123  20.230  17.077   2.263
35461W        W97124  10.732   7.413   1.442
35462W        W97125  16.273  24.198  12.374
35463W        W97126  40.993  35.414  11.064
35464W        W97127  23.522   0.379   0.767
35465W        W97128  40.925  22.678   3.233
35466W        W97129  35.499  22.703   2.686
35467W        W97130  28.055  38.459   0.263
35468W        W97131   0.950  15.590   9.992
35469W        W97132  44.347  23.235   4.130
35470W        W97133   5.898   0.283  13.344
35471W        W97134  37.878  28.187   3.817
35472W        W97135  23.006  28.609  10.909
35473W        W97136  20.681  27.603   3.293
35474W        W97137  44.818  10.248  14.350
35475W        W97138  21.617   8.217   2.829
35476W        W97139  36.854  43.843  11.928
35477W        W97140   8.864  22.743   5.240
35478W        W97141  24.064  36.932  13.392
35479W        W97142  20.073  11.339   3.827
35480W        W97143  17.799   7.402  14.319
35481W        W97144  19.607   4.450   4.626
35482W        W97145  11.659  32.079   5.280
35483W        W97146  35.452  20.638   2.876
35484W        W97147  42.482  38.491  10.893
35485W        W97148   1.289   7.412  11.490
35486W        W97149  34.891  29.430   4.684
35487W        W97150  15.632  22.034   0.381
35488W        W97151  17.677  25.004   0.790
35489W        W97152  32.427  29.452   1.341
35490W        W97153  24.693  43.338   2.705
35491W        W97154   5.708  42.526   2.232
35492W        W97155  40.363  25.621   0.273
35493W        W97156   8.170  31.606  13.874
35494W        W97157   5.280  42.938  10.948
35495W        W97158   5.917  29.527  10.916
35496W        W97159  19.771  13.214   2.279
35497W        W97160   6.914  34.941  10.530
35498W        W97161  34.112  35.594  14.801
35499W        W97162  25.577   8.391  12.989
35500W        W97163  12.716  32.535   4.173
35501W        W97164  38.534  10.372  10.554
35502W        W97165  36.881   3.739   3.216
35503W        W97166   7.850   9.331  10.076
35504W        W97167   0.928  43.808   3.715
35505W        W97168   3.450   6.397   5.259
35506W        W97169  42.863  21.072  11.899
35507W        W97170  12.727  10.286   3.841
35508W        W97171  13.324  23.087   0.313
35509W        W97172  44.295  32.603  10.979
35510W        W97173  14.231  37.467   0.812
35511W        W97174   5.262  18.217   0.414
35512W        W97175  37.996  21.576   4.286
35513W        W97176  38.850  11.290   3.740
35514W        W97177  39.541  41.023   1.826
35515W        W97178  19.139  29.653  13.521
35516W        W97179  42.377  18.560   1.414
35517W        W97180  18.053  42.915  14.763
35518W        W97181  31.458  19.178   3.861
35519W        W97182  26.149  35.361  14.934
35520W        W97183  23.674  31.548  11.968
35521W        W97184  43.368  38.983   2.204
35522W        W97185  20.670   4.709   2.406
35523W        W97186  16.113   2.957   4.332
35524W        W97187  42.891  24.189   5.090
35525W        W97188   9.835  41.527   4.251
35526W        W97189   0.461   4.943  14.878
35527W        W97190  13.279  13.126   2.244
35528W        W97191  22.162  13.744   4.680
35529W        W97192   5.709  37.557   2.358
35530W        W97193  44.007   1.755   2.894
35531W        W97194  14.630  18.231  10.489
35532W        W97195  15.625  12.265   2.288
35533W        W97196  36.081  29.936  14.896
35534W        W97197  13.706   8.271   4.308
35535W        W97198  41.963  42.434   0.453
35536W        W97199  20.167  26.155  13.909
35537W        W97200  19.547  35.889  11.989
35538W        W97201  10.789  23.703  13.060
35539W        W97202  29.549  35.380   2.899
35540W        W97203   4.261  20.190   3.683
35541W        W97204  19.710   5.324  10.590
35542W        W97205   0.477  44.379  11.986
35543W        W97206  10.699  31.440  10.425
35544W        W97207  39.819  20.176  13.329
35545W        W97208   6.812  15.599   0.308
35546W        W97209   1.379  37.006   1.285
35547W        W97210  43.884  10.776   1.226
35548W        W97211  24.602   0.800   4.191
35549W        W97212  33.097  11.334  14.762
35550W        W97213   1.345  19.559  10.483
35551W        W97214  27.548  15.328  11.589
35552W        W97215  43.983  11.713   2.889
35553W        W97216  42.859   2.837   1.259
35554W        W97217  20.124   9.651   3.844
35555W        W97218  26.055  28.051   0.812
35556W        W97219  13.828   6.417  11.575
35557W        W97220  41.384  39.485   1.389
35558W        W97221  24.620  37.565  14.509
35559W        W97222   7.884  44.388  14.339
35560W        W97223   0.921   0.894  14.779
35561W        W97224  21.243  36.015  10.028
35562W        W97225  16.185  11.357   3.665
35563W        W97226  26.114  20.195   2.252
35564W        W97227  28.002  12.779  11.567
35565W        W97228  25.575   0.827   0.921
35566W        W97229  16.723  24.126   1.266
35567W        W97230  24.488  31.435  14.909
35568W        W97231   2.320  21.715  13.331
35569W        W97232  35.996  11.713  11.514
35570W        W97233  39.541  17.100  14.844
35571W        W97234  17.633   8.756  14.867
35572W        W97235  37.534  23.553  14.835
35573W        W97236  40.422  34.904   0.458
35574W        W97237  12.621  26.691   0.249
35575W        W97238  42.015  36.504   0.430
35576W        W97239  24.977  13.716  14.980
35577W        W97240  19.629   6.386   3.331
35578W        W97241  36.033   8.247   4.342
35579W        W97242  22.167  36.504   3.635
35580W        W97243   7.690   8.848  14.472
35581W        W97244  21.072  11.221   2.199
35582W        W97245   9.691   0.450   2.884
35583W        W97246  18.054   9.384   3.306
35584W        W97247  32.585  30.482  10.615
35585W        W97248  32.011  20.033   3.762
35586W        W97249  38.053  18.251  14.820
35587W        W97250   3.378  43.011  10.635
35588W        W97251  37.470  34.534   3.647
35589W        W97252  30.144   5.881  13.936
35590W        W97253  31.590   5.753  14.373
35591W        W97254   4.839  29.108  12.912
35592W        W97255  23.648   4.203  14.002
35593W        W97256  36.071  18.295  10.529
35594W        W97257  22.564  25.696   0.291
35595W        W97258  26.993  38.945  14.387
35596W        W97259  19.611  26.487   3.319
35597W        W97260  39.350  26.155   2.213
35598W        W97261  40.046  41.925  12.858
35599W        W97262  42.873  32.043   9.934
35600W        W97263  35.110  34.378   4.345
35601W        W97264  22.043  42.025  12.085
35602W        W97265  16.581  15.133   1.899
35603W        W97266  28.062  30.028  13.952
35604W        W97267  31.972   6.869  10.513
35605W        W97268   8.393  21.572   2.819
35606W        W97269  10.846  41.983   3.863
35607W        W97270   2.790  17.566   3.816
35608W        W97271  22.184  41.872  11.479
35609W        W97272  21.513   1.852   1.451
35610W        W97273  41.850  19.588   0.333
35611W        W97274  24.621  12.645   1.347
35612W        W97275  33.883   4.895  14.440
35613W        W97276  42.404  24.533  13.847
35614W        W97277   0.745  27.677  13.874
35615W        W97278  44.837   4.418  13.804
35616W        W97279  18.704  27.984  11.380
35617W        W97280  16.170  43.405   3.689
35618W        W97281  24.613  34.397   2.210
35619W        W97282  14.670  33.498   3.770
35620W        W97283  11.264  18.245   1.398
35621W        W97284  35.041  30.012  14.436
35622W        W97285  28.097   0.283   1.831
35623W        W97286  33.478   4.863   1.243
35624W        W97287  19.539  26.679   1.877
35625W        W97288  18.764   7.305  14.439
35626W        W97289  37.838  18.114   2.355
35627W        W97290  14.261  36.854  10.908
35628W        W97291   5.785  34.015   1.417
35629W        W97292  31.029  44.937   0.476
35630W        W97293  31.146   5.204   2.835
35631W        W97294   9.391   9.802   3.268
35632W        W97295  20.029  16.083   0.362
35633W        W97296  29.592  35.858  13.946
35634W        W97297  36.995  15.132  12.574
35635W        W97298  37.967  36.068  12.550
35636W        W97299  33.495  24.977   1.447
35637W        W97300  36.553  32.110   0.946
35638W        W97301  24.195   4.877  14.774
35639W        W97302  32.089  37.962   4.806
35640W        W97303  32.558  29.625  12.457
35641W        W97304  23.627   7.173   2.862
35642W        W97305  13.628  33.958  12.017
35643W        W97306  42.990  23.037  14.344
35644W        W97307   8.819  40.047   9.997
35645W        W97308   7.726  40.445  10.557
35646W        W97309  17.191  25.495   3.349
35647W        W97310  38.984   0.390  11.564
35648W        W97311   7.374  36.902   1.341
35649W        W97312  37.087  21.178  11.944
35650W        W97313  20.224  18.132  10.591
35651W        W97314  24.519  26.518   4.300
35652W        W97315  30.078  30.118   1.730
35653W        W97316  18.774  41.325   0.814
35654W        W97317   3.294  18.736   3.764
35655W        W97318  34.050   8.677  11.570
35656W        W97319   7.377   4.753   2.217
35657W        W97320  24.987  25.137   2.831
35658W        W97321   9.303  38.042  12.422
35659W        W97322  10.712  19.686   3.346
35660W        W97323  15.295  19.772   0.866
35661W        W97324  42.810   2.880   1.743
35662W        W97325  13.175   6.838  10.637
35663W        W97326  28.628   2.346  12.501
35664W        W97327  36.433   2.303   4.806
35665W        W97328   4.264  12.292  11.539
35666W        W97329  38.825  11.774  13.939
35667W        W97330   8.735   0.923  12.922
35668W        W97331  27.527  23.528  12.033
35669W        W97332  16.739  12.797  14.397
35670W        W97333  13.179  44.273   2.346
35671W        W97334  20.116  40.404  11.098
35672W        W97335  17.717  32.944  10.535
35673W        W97336  20.108  10.765   2.254
35674W        W97337  21.100  26.676  13.521
35675W        W97338  19.125  40.832   3.666
35676W        W97339  12.718  14.305   3.656
35677W        W97340  20.561  31.506  12.840
35678W        W97341  40.411   2.348   2.223
35679W        W97342  19.741  32.897  11.952
35680W        W97343  20.062  25.007  11.409
35681W        W97344  36.470  21.032   4.759
35682W        W97345  44.778  41.901  12.914
35683W        W97346  31.557  42.028   3.762
35684W        W97347  22.222  14.180   3.379
35685W        W97348  10.812  30.920  13.815
35686W        W97349   5.314  19.726  13.917
35687W        W97350  17.649  32.134  13.507
35688W        W97351  36.470  17.665   2.802
35689W        W97352  32.894  17.623  11.875
35690W        W97353  15.721  28.543  13.359
35691W        W97354  18.201  14.671  13.419
35692W        W97355   2.354  24.087   2.733
35693W        W97356  23.095  25.580  12.367
35694W        W97357  16.122  39.901   3.666
35695W        W97358  24.024   0.939  11.894
35696W        W97359  18.210  28.496   1.393
35697W        W97360  29.055  40.490   2.844
35698W        W97361  34.971  31.979   5.289
35699W        W97362  14.699  30.550  12.560
35700W        W97363  39.448  39.324   1.350
35701W        W97364   9.233  22.721   3.865
35702W        W97365   3.879  37.870  14.449
35703W        W97366  36.573   8.355  12.377
35704W        W97367  27.027  37.368   2.781
35705W        W97368  14.635  29.158   3.867
35706W        W97369  17.275  24.558  10.589
35707W        W97370  42.292  27.457  11.384
35708W        W97371  19.668  39.915   4.717
35709W        W97372  34.604   0.837  14.790
35710W        W97373  43.974  34.536  11.865
35711W        W97374  36.591  41.857  14.372
35712W        W97375  37.336  32.474   0.267
35713W        W97376  28.052  25.646  14.401
35714W        W97377  32.142   8.332   5.693
35715W        W97378  20.707   8.198  13.056
35716W        W97379  21.178   7.681   0.436
35717W        W97380  34.990   4.861  12.573
35718W        W97381  20.586  44.471   1.329
35719W        W97382  32.419   2.893   4.318
35720W        W97383   0.264   8.676   3.353
35721W        W97384  43.769  35.597  12.882
35722W        W97385  38.519  15.118   0.443
35723W        W97386  42.342  17.071   1.292
35724W        W97387   2.431  30.921  12.004
35725W        W97388  44.974  39.833   2.255
35726W        W97389   9.162  11.774   3.220
35727W        W97390   7.237  30.909  11.970
35728W        W97391  18.238  18.166   1.816
35729W        W97392  22.696  42.809   2.412
35730W        W97393  25.482   3.384   2.858
35731W        W97394   6.692  19.588   2.717
35732W        W97395  36.035  16.616  11.872
35733W        W97396   5.801  19.601   2.878
35734W        W97397  18.634  11.635   0.859
35735W        W97398  30.024  43.815   3.159
35736W        W97399  25.584  40.415   3.337
35737W        W97400   1.826  28.169  14.508
35738W        W97401  12.850  13.346   3.237
35739W        W97402  13.137  35.952  11.568
35740W        W97403  34.494  42.904  13.011
35741W        W97404  28.938   3.738  14.513
35742W        W97405  30.082   4.401   2.191
35743W        W97406  44.764  15.696   2.267
35744W        W97407  39.336  43.397  11.397
35745W        W97408  39.943   2.325  12.485
35746W        W97409  29.634  31.013   4.717
35747W        W97410  16.173  10.357   3.821
35748W        W97411  37.579  26.980   2.408
35749W        W97412  24.516  38.990  10.622
35750W        W97413  23.607  43.895  13.991
35751W        W97414  37.449  40.495   2.294
35752W        W97415  36.589   8.734  14.288
35753W        W97416   6.786  26.537   4.768
35754W        W97417  36.353  28.595   3.675
35755W        W97418  24.060   7.671   0.898
35756W        W97419  34.379  14.218   2.184
35757W        W97420  28.063   7.231  10.454
35758W        W97421  20.591  16.681  14.849
35759W        W97422   4.919  17.106   5.280
35760W        W97423  16.708  10.157  12.876
35761W        W97424  15.200   6.185   0.250
35762W        W97425  33.035  38.538   1.316
35763W        W97426  30.113  33.091   3.263
35764W        W97427   8.796  30.942   0.892
35765W        W97428  40.339  14.097   2.273
35766W        W97429  43.816  11.309  12.957
35767W        W97430  17.649  26.652   1.764
35768W        W97431  26.664  15.298   1.829
35769W        W97432  11.141  17.134  10.645
35770W        W97433  19.117  11.755  12.033
35771W        W97434  44.340  14.717   0.774
35772W        W97435  16.745  32.984   4.313
35773W        W97436  10.183   5.826   4.120
35774W        W97437  40.977  35.475   2.804
35775W        W97438  10.781  18.181  12.954
35776W        W97439  42.808  30.443   3.726
35777W        W97440  15.593  35.407   1.833
35778W        W97441  30.434  39.850   3.318
35779W        W97442  26.014  13.808  12.373
35780W        W97443  36.060  33.506   2.800
35781W        W97444  30.015   3.832  10.925
35782W        W97445  11.857  13.277  11.500
35783W        W97446  28.053  31.540   0.892
35784W        W97447  28.999  26.633  10.533
35785W        W97448  22.998  44.290  13.388
35786W        W97449  12.186  23.522   0.757
35787W        W97450  21.171  37.491  11.389
35788W        W97451   2.378   1.767  11.611
35789W        W97452   0.493  19.543   0.860
35790W        W97453  28.971  40.008  13.467
35791W        W97454  14.725  42.818   0.353
35792W        W97455  44.875  10.696   2.716
35793W        W97456  20.539  34.885  11.535
35794W        W97457  42.972  15.724   0.910
35795W        W97458  20.074  40.841  11.538
35796W        W97459  41.924  43.393   0.876
35797W        W97460   7.224  31.035  14.470
35798W        W97461   1.936   4.374   0.874
35799W        W97462  28.169  31.009   5.125
35800W        W97463  17.267  22.527  11.984
35801W        W97464  34.866   8.201  11.430
35802W        W97465  41.843  12.121  12.923
35803W        W97466  13.684  12.312   0.925
35804W        W97467  20.661  10.365  11.531
35805W        W97468  14.788  30.936   0.443
35806W        W97469  35.859  28.566   1.280
35807W        W97470  41.320  41.009   2.314
35808W        W97471  12.243  18.101  12.506
35809W        W97472  43.314  40.040  11.499
35810W        W97473  42.353   8.678  13.384
35811W        W97474  25.068  11.838   3.819
35812W        W97475  33.056  24.621  12.437
35813W        W97476   8.757  42.845  10.505
35814W        W97477  25.085  24.702  14.820
35815W        W97478  25.219   3.906  14.004
35816W        W97479  19.086  42.495  14.897
35817W        W97480  12.781  24.719   1.831
35818W        W97481  15.175  26.554   9.992
35819W        W97482   1.940   4.790   4.822
35820W        W97483  35.859  24.486   4.824
35821W        W97484  24.122  21.063   1.727
35822W        W97485   2.349   9.374   0.340
35823W        W97486  20.650   4.274   4.196
35824W        W97487  21.575   6.677   1.912
35825W        W97488   3.734  39.553  11.949
35826W        W97489  38.523   7.219   3.334
35827W        W97490  42.946  18.142   3.663
35828W        W97491   5.840   2.433   4.621
35829W        W97492  37.935  41.043  12.454
35830W        W97493  13.249  35.432   1.920
35831W        W97494  10.177   7.830   3.674
35832W        W97495  16.624  31.568   1.921
35833W        W97496  14.693  41.976   4.251
35834W        W97497  42.893  11.847   2.362
35835W        W97498  23.624  27.648   0.411
35836W        W97499  37.924  35.081  14.959
35837W        W97500  12.718  44.492  12.891
35838W        W97501  10.801  41.505  10.483
35839W        W97502  11.857  22.168   1.413
35840W        W97503  35.936  23.128  12.829
35841W        W97504   0.349   7.199   2.795
35842W        W97505   2.314  11.302  14.767
35843W        W97506   0.364  44.332  10.138
35844W        W97507  18.166  44.853   0.937
35845W        W97508  29.978   1.409  13.334
35846W        W97509  11.706   0.914   1.302
35847W        W97510  10.666  31.493  14.803
35848W        W97511  26.629   5.215   1.365
35849W        W97512  36.907  24.225   4.665
35850W        W97513  33.582  38.334   3.370
35851W        W97514  41.437  44.846  14.031
35852W        W97515  15.644  20.701   3.812
35853W        W97516  31.039  19.733  11.933
35854W        W97517  31.537  22.048  13.418
35855W        W97518  25.535  14.778  10.591
35856W        W97519  33.574  33.499   1.775
35857W        W97520  39.446   1.805  11.992
35858W        W97521  15.318  40.373  12.835
35859W        W97522  19.047  29.453  11.989
35860W        W97523  11.181  27.144  11.478
35861W        W97524  28.458  16.747   1.383
35862W        W97525  25.970  24.717  12.968
35863W        W97526   3.726  29.523  14.966
35864W        W97527  12.658  40.797   3.150
35865W        W97528   9.346   7.866  12.023
35866W        W97529  30.009   5.852   2.874
35867W        W97530  12.217  27.489   1.338
35868W        W97531   2.777   1.359   3.213
35869W        W97532  34.863  13.169  11.872
35870W        W97533  21.043  22.711  14.811
35871W        W97534  44.998   2.800   0.439
35872W        W97535  20.083  42.029  12.074
35873W        W97536   9.292  38.466   1.389
35874W        W97537   0.388  13.821  14.857
35875W        W97538  19.053  35.048   2.188
35876W        W97539  35.082  35.864   0.912
35877W        W97540  18.067   2.382  13.532
35878W        W97541  38.410  36.433  13.473
35879W        W97542  39.877  17.127   2.350
35880W        W97543  44.755  11.254   3.742
35881W        W97544  39.925   4.284  14.290
35882W        W97545  19.213  29.985   0.437
35883W        W97546  24.677   8.665  13.892
35884W        W97547  42.395  12.234   4.190
35885W        W97548  25.161   1.340  12.483
35886W        W97549  40.516  13.633  14.777
35887W        W97550  22.079   4.920   1.931
35888W        W97551   6.910  25.469  11.891
35889W        W97552  28.643   2.306  13.401
35890W        W97553  31.025  37.366   1.292
35891W        W97554  13.819  17.161  10.495
35892W        W97555  41.332   9.297  10.479
35893W        W97556  11.271  44.462  14.818
35894W        W97557   1.345  10.265   0.303
35895W        W97558  26.076  15.677  11.391
35896W        W97559  35.528  13.268  13.423
35897W        W97560  21.147  44.868  13.920
35898W        W97561  17.192  40.886  14.931
35899W        W97562  33.557  29.931   1.348
35900W        W97563   0.975  17.665   1.857
35901W        W97564  28.993   4.706  13.316
35902W        W97565  19.588   6.238  14.968
35903W        W97566  13.630  14.267   3.673
35904W        W97567  32.526   4.883   3.843
35905W        W97568   3.349  10.150  12.412
35906W        W97569   5.932   1.433  10.415
35907W        W97570  40.907  32.457   4.189
35908W        W97571  19.171   8.782   2.873
35909W        W97572  40.350  23.186   3.832
35910W        W97573  14.182  17.650  11.487
35911W        W97574   1.970  33.020  13.031
35912W        W97575  29.069  26.161  11.409
35913W        W97576  27.601  37.917  14.850
35914W        W97577  33.494  35.941   1.769
35915W        W97578  26.157  37.365   2.799
35916W        W97579  16.628  40.473   0.786
35917W        W97580   7.670  26.159   3.700
35918W        W97581  17.135   7.717  14.880
35919W        W97582  27.028  23.589   5.270
35920W        W97583  43.799  28.651  12.080
35921W        W97584  22.201   1.463  13.852
35922W        W97585  31.516   0.332  12.929
35923W        W97586  36.001   0.815   1.220
35924W        W97587   9.242  24.020   2.698
35925W        W97588   2.388  19.201   0.273
35926W        W97589  31.465  16.599   2.301
35927W        W97590  15.584  43.516  11.098
35928W        W97591  19.132  41.872   4.663
35929W        W97592   2.261  35.943  12.873
35930W        W97593   6.373  27.692   3.228
35931W        W97594  16.644   5.249  13.992
35932W        W97595   7.676  17.598  13.336
35933W        W97596  31.039  30.650   1.848
35934W        W97597  19.590  22.138   3.863
35935W        W97598   8.390   1.241   0.861
35936W        W97599  30.070  18.621   3.800
35937W        W97600   7.674  10.869   3.686
35938W        W97601  21.124   7.882   0.767
35939W        W97602   9.721  21.189   1.283
35940W        W97603  28.584   2.939   1.372
35941W        W97604   3.825   4.380  11.473
35942W        W97605   2.457  15.820   1.443
35943W        W97606  11.319   9.672  13.320
35944W        W97607   1.440  33.124  11.099
35945W        W97608   4.761   3.287  13.933
35946W        W97609   2.869  41.903   3.179
35947W        W97610   6.299  35.480  13.050
35948W        W97611  24.604  24.642   2.832
35949W        W97612  24.676  16.657  13.321
35950W        W97613  10.650  22.579   0.438
35951W        W97614  27.182  31.029  14.937
35952W        W97615  19.561  34.068  12.951
35953W        W97616  33.054  38.377   0.475
35954W        W97617  44.895  26.483   4.838
35955W        W97618  42.372  10.784  13.800
35956W        W97619  21.025  43.814  10.055
35957W        W97620   4.400   3.389  13.493
35958W        W97621  21.182  30.936  14.843
35959W        W97622  20.589  40.547   1.881
35960W        W97623   4.843   8.238   2.385
35961W        W97624   2.333  19.581   2.217
35962W        W97625  41.337  34.475  11.917
35963W        W97626  20.706  30.131   2.739
35964W        W97627  21.518  42.030  13.351
35965W        W97628   3.935  30.454  11.117
35966W        W97629  27.189  15.289   4.712
35967W        W97630   2.888  23.205  13.375
35968W        W97631   5.922  42.932  14.370
35969W        W97632  32.906   2.459  13.813
35970W        W97633  10.288  41.952  10.998
35971W        W97634  21.653  26.093   0.928
35972W        W97635  12.194  31.075  14.000
35973W        W97636  41.333  14.671   0.947
35974W        W97637  23.189  28.493   5.255
35975W        W97638   1.364  14.122   2.734
35976W        W97639   1.853   6.818  12.545
35977W        W97640  22.737   2.329  14.495
35978W        W97641   2.456  18.680   3.147
35979W        W97642  31.404   5.379   3.303
35980W        W97643  35.460  28.652   1.252
35981W        W97644  17.713   4.876  13.359
35982W        W97645  43.413  14.703  13.012
35983W        W97646  43.489  27.688  10.995
35984W        W97647  33.051   1.284  12.967
35985W        W97648   9.375   0.455   1.819
35986W        W97649  20.540  14.213  10.045
35987W        W97650  18.593   7.736  14.805
35988W        W97651  37.569  12.732   1.892
35989W        W97652  25.114  12.285  10.960
35990W        W97653  12.136   6.729  13.010
35991W        W97654  22.677  43.810   4.305
35992W        W97655   9.176  34.480  14.965
35993W        W97656  28.048  13.141  14.826
35994W        W97657   7.695  13.183   5.205
35995W        W97658  40.048  35.493   2.720
35996W        W97659  30.437  11.858   2.704
35997W        W97660   5.414  15.809   2.700
35998W        W97661  29.537   9.707  11.037
35999W        W97662  15.257   8.401  12.087
36000W        W97663  31.522  18.281   3.368
36001W        W97664  28.932  14.719   2.678
36002W        W97665  28.584  16.593  13.895
36003W        W97666  18.266  37.896   2.224
36004W        W97667  18.558  13.623   2.413
36005W        W97668  31.008  31.106  11.493
36006W        W97669  29.564  21.550   2.413
36007W        W97670  36.973  33.014  11.964
36008W        W97671  19.278   1.389  14.468
36009W        W97672  34.417   0.388   1.911
36010W        W97673  27.012  44.333   2.851
36011W        W97674  37.472  30.958   0.829
36012W        W97675   4.813   6.334  14.329
36013W        W97676  32.443  35.569  12.401
36014W        W97677  41.859  39.025   1.261
36015W        W97678  27.039  40.904   9.936
36016W        W97679  42.390  21.218   3.686
36017W        W97680  13.817  33.581  14.017
36018W        W97681  34.004  41.868   4.178
36019W        W97682  25.522  13.309  12.000
36020W        W97683  27.142  10.257   4.792
36021W        W97684  36.040  15.796  11.545
36022W        W97685  10.710   6.246  11.502
36023W        W97686  28.004  41.967  14.949
36024W        W97687   0.775  11.766  10.408
36025W        W97688  44.776  38.873  11.456
36026W        W97689  26.623  44.361   0.736
36027W        W97690  14.705  25.077  12.887
36028W        W97691   1.917   3.838  13.545
36029W        W97692   5.323   4.886   2.803
36030W        W97693  22.640  19.777  10.133
36031W        W97694  23.628   8.796  14.461
36032W        W97695  37.546   3.835  12.072
36033W        W97696  37.398  17.775   4.816
36034W        W97697  31.577   5.741   0.793
36035W        W97698  41.453  36.005   0.726
36036W        W97699  30.556  23.732  14.477
36037W        W97700  40.406  40.367  14.973
36038W        W97701  15.124  44.900  12.560
36039W        W97702   5.719  40.808   3.859
36040W        W97703  43.476   6.209   0.868
36041W        W97704  40.361  41.292   5.265
36042W        W97705  31.634  16.103  11.530
36043W        W97706  13.621   5.763   9.450
36044W        W97707  16.104   2.320   2.283
36045W        W97708  32.140  22.020   1.826
36046W        W97709  30.918  18.669  13.947
36047W        W97710   5.799  17.709  13.324
36048W        W97711  15.290   8.188   1.216
36049W        W97712  41.473  41.999   4.143
36050W        W97713  25.658   0.492   3.160
36051W        W97714   3.898  35.522   4.712
36052W        W97715  44.930  32.414  14.289
36053W        W97716  40.814  17.608   2.877
36054W        W97717  40.955   2.421   3.719
36055W        W97718  12.277   8.736  14.389
36056W        W97719   5.201   8.717   1.920
36057W        W97720   2.418  23.490   4.150
36058W        W97721  43.908   5.285   1.781
36059W        W97722   2.736  32.077   3.721
36060W        W97723   4.733  25.702   1.224
36061W        W97724  25.675  14.790   0.873
36062W        W97725   0.279  35.959  13.832
36063W        W97726  15.679  36.390  13.359
36064W        W97727   7.346  32.444   4.822
36065W        W97728  10.214  44.942  12.940
36066W        W97729   5.357  33.051  14.026
36067W        W97730  19.753  20.207  10.562
36068W        W97731  38.542  35.867  14.316
36069W        W97732  38.846  25.111  10.891
36070W        W97733  11.270   1.741  12.369
36071W        W97734  37.350  21.246  11.892
36072W        W97735  13.729  29.048  13.942
36073W        W97736   0.415  16.802  11.029
36074W        W97737  13.700   4.269   4.297
36075W        W97738  13.169  39.552  13.341
36076W        W97739  16.601   8.846   3.362
36077W        W97740  25.664   9.343   4.735
36078W        W97741   2.905   9.207   4.179
36079W        W97742  27.943   0.970  12.992
36080W        W97743  24.126  41.786   1.751
36081W        W97744  12.641  43.290  13.940
36082W        W97745  41.952  15.612   3.689
36083W        W97746   1.779   8.265   3.682
36084W        W97747   8.205  31.958   9.964
36085W        W97748  35.365  22.732   1.821
36086W        W97749  13.267  11.674   0.778
36087W        W97750  13.237   7.275  10.898
36088W        W97751  26.465   2.350   2.745
36089W        W97752  34.600  31.542   3.723
36090W        W97753  15.723  24.171  13.522
36091W        W97754  25.558  42.861  10.906
36092W        W97755  25.999  39.009   9.575
36093W        W97756  25.700  18.657  11.429
36094W        W97757  40.917  44.840  14.313
36095W        W97758   0.453  44.823  14.460
36096W        W97759  40.490  18.057  11.879
36097W        W97760  33.565   6.770  12.957
36098W        W97761   9.172   5.356   1.818
36099W        W97762  23.170  30.935  13.532
36100W        W97763   2.401  31.050  13.313
36101W        W97764  19.559  12.211  13.466
36102W        W97765  34.975   2.731  12.886
36103W        W97766  18.060  32.142  12.420
36104W        W97767  14.212  30.428   1.224
36105W        W97768  38.410  12.167   2.256
36106W        W97769  32.503   9.246  12.466
36107W        W97770  21.709  29.115   4.761
36108W        W97771  11.629  33.028  13.006
36109W        W97772  24.153  11.294   1.443
36110W        W97773  12.657   3.769  10.426
36111W        W97774  20.238  19.687  14.444
36112W        W97775  43.848  22.136  13.986
36113W        W97776  31.944  38.930  11.926
36114W        W97777  32.887  39.880   1.804
36115W        W97778  42.955   9.308   1.338
36116W        W97779  20.664   0.445   3.641
36117W        W97780  11.808  28.480  11.875
36118W        W97781  13.161  14.622   2.187
36119W        W97782   8.271  10.179   1.398
36120W        W97783  20.036  15.088  13.408
36121W        W97784   2.777  15.220  13.480
36122W        W97785  33.901  10.270  10.557
36123W        W97786  17.293  31.444   2.409
36124W        W97787  24.481  30.458   1.913
36125W        W97788  39.020  23.086  13.400
36126W        W97789  44.292  25.660   0.745
36127W        W97790   9.814   2.235   4.220
36128W        W97791  39.898  24.066   0.948
36129W        W97792  28.985  35.555   3.351
36130W        W97793  22.077   2.418   0.884
36131W        W97794  22.107  16.265  13.516
36132W        W97795  22.507  12.638  10.531
36133W        W97796   2.301  35.436  12.063
36134W        W97797  35.956  14.643   0.888
36135W        W97798  37.986  29.929  13.918
36136W        W97799  36.089  25.126   0.946
36137W        W97800  11.258  17.142   4.173
36138W        W97801  28.143  30.100   2.701
36139W        W97802  35.550  12.814   1.448
36140W        W97803   2.447  19.747   0.367
36141W        W97804  28.171  32.139   0.383
36142W        W97805  24.138  28.185   1.348
36143W        W97806  19.167  19.050   0.909
36144W        W97807  42.304   6.244   0.883
36145W        W97808  10.783  25.526  10.640
36146W        W97809  37.846   0.925   2.888
36147W        W97810   9.350  24.006   4.190
36148W        W97811  11.663   4.334  11.579
36149W        W97812  29.023  39.884   4.610
36150W        W97813  29.153  21.662   4.180
36151W        W97814  42.506  41.022   3.161
36152W        W97815  29.601  32.087   9.929
36153W        W97816  38.384  42.942  10.429
36154W        W97817   1.924   2.465   3.675
36155W        W97818  19.722  23.063   0.283
36156W        W97819   2.266  27.489   4.634
36157W        W97820  41.021   2.296  13.405
36158W        W97821  23.494  43.789  12.954
36159W        W97822  42.983  21.647  14.372
36160W        W97823   0.315  35.468  11.471
36161W        W97824   3.896  40.542  14.916
36162W        W97825  22.127  23.065   3.667
36163W        W97826  11.165  16.644  14.477
36164W        W97827  22.076  24.570  12.857
36165W        W97828  17.564  10.331  12.376
36166W        W97829  44.388  39.494  11.903
36167W        W97830  30.924  14.709   4.306
36168W        W97831  20.256  18.551  12.438
36169W        W97832  34.934  17.151   1.224
36170W        W97833  38.470   1.814   4.738
36171W        W97834  17.064  33.037   1.435
36172W        W97835  16.210  11.275   3.154
36173W        W97836  27.079  15.773   1.421
36174W        W97837  36.982   1.799   3.788
36175W        W97838   2.391  44.891  13.930
36176W        W97839  38.508  11.271   1.246
36177W        W97840  28.460  34.077   0.445
36178W        W97841  38.343  37.454  12.358
36179W        W97842  29.661  34.941   0.371
36180W        W97843  28.589  34.482   2.792
36181W        W97844   6.884   8.773   4.823
36182W        W97845  21.567  34.615  12.390
36183W        W97846   3.254  11.352  11.101
36184W        W97847  17.786   7.863   4.719
36185W        W97848  20.124  32.059   3.324
36186W        W97849  40.934  43.800   0.358
36187W        W97850  43.449   6.853   0.372
36188W        W97851  33.881  18.628  10.438
36189W        W97852  37.580   6.819   1.334
36190W        W97853   5.771  32.009   2.822
36191W        W97854  20.254   8.820   3.815
36192W        W97855  16.230  10.875  14.381
36193W        W97856  17.679  43.476  14.850
36194W        W97857  16.185   5.224  13.380
36195W        W97858   8.758  16.303  13.876
36196W        W97859  31.076  32.012  14.946
36197W        W97860  15.739  31.127   1.879
36198W        W97861   9.773  13.742  12.423
36199W        W97862   2.865  42.924  13.438
36200W        W97863  44.785  26.121   3.862
36201W        W97864   2.767  10.634  13.984
36202W        W97865  36.466  25.986  12.434
36203W        W97866  17.083  34.035  12.399
36204W        W97867  42.425   4.908   0.348
36205W        W97868  13.649   3.944  14.807
36206W        W97869  29.995  15.693   0.446
36207W        W97870   1.765  44.309   4.733
36208W        W97871  20.587  21.666   4.217
36209W        W97872   1.933   4.368  13.535
36210W        W97873   0.933  12.845   3.799
36211W        W97874  27.134  29.993   3.236
36212W        W97875   9.866   8.772   1.913
36213W        W97876  14.136  36.579  11.896
36214W        W97877  28.144  23.052   4.775
36215W        W97878  44.957  17.177  11.110
36216W        W97879  34.401  10.219  13.000
36217W        W97880  37.354  14.811   1.727
36218W        W97881  44.782   5.922   2.361
36219W        W97882  18.271  26.484  14.466
36220W        W97883   2.342   6.784  13.843
36221W        W97884  23.168  19.650  10.920
36222W        W97885  33.543  44.988   3.644
36223W        W97886  17.212   3.259  10.458
36224W        W97887  41.950   7.384   3.851
36225W        W97888  31.903  38.882   4.784
36226W        W97889   8.810  27.577   3.384
36227W        W97890  33.472  21.544  12.347
36228W        W97891  30.475  25.029   2.203
36229W        W97892  24.505  18.725  10.524
36230W        W97893  11.813  29.474   3.779
36231W        W97894  26.133  32.032   1.804
36232W        W97895   8.218   5.719  13.528
36233W        W97896  23.223  41.795   3.318
36234W        W97897  10.326  43.980   1.368
36235W        W97898  27.471   6.199  12.509
36236W        W97899  11.828  14.154  12.527
36237W        W97900  14.615  18.608   2.705
36238W        W97901  26.179  28.996  11.105
36239W        W97902  17.191  38.919  11.955
36240W        W97903   2.348  19.612   4.698
36241W        W97904  37.051   5.335   3.372
36242W        W97905  15.604   9.757   4.150
36243W        W97906  18.266  34.932  12.954
36244W        W97907   8.288  17.755  13.500
36245W        W97908  31.105  23.192  14.380
36246W        W97909   8.721   2.458   1.696
36247W        W97910   6.919  21.531   0.813
36248W        W97911  18.251  43.809   1.412
36249W        W97912  42.395   4.287  10.917
36250W        W97913   3.781  40.997   4.247
36251W        W97914   4.781  42.922   3.306
36252W        W97915   5.314  20.146   4.837
36253W        W97916  44.420  43.890   3.777
36254W        W97917  18.242  40.839  10.512
36255W        W97918  15.716  19.149   3.855
36256W        W97919   7.378  15.237   0.887
36257W        W97920   5.750   2.254   2.710
36258W        W97921  14.620  40.446   4.296
36259W        W97922  33.908  11.265   4.292
36260W        W97923  33.540   3.407   1.769
36261W        W97924  22.118  33.439   2.223
36262W        W97925   6.876  39.533  12.018
36263W        W97926  40.838  17.639  13.486
36264W        W97927  41.424   2.893   3.856
36265W        W97928   7.869  22.135   3.234
36266W        W97929  35.083   0.759  11.968
36267W        W97930  41.425  16.293   2.205
36268W        W97931  23.572  32.510  12.065
36269W        W97932  23.722   6.206  11.979
36270W        W97933   9.200  12.700  11.446
36271W        W97934  33.538  38.023   1.357
36272W        W97935  39.065  20.187   2.867
36273W        W97936   8.874  22.204   0.790
36274W        W97937  40.985   1.473   4.719
36275W        W97938  18.772  11.168   0.345
36276W        W97939  34.876   5.252   0.272
36277W        W97940  39.468  38.372   1.830
36278W        W97941  36.474  11.223   4.616
36279W        W97942  36.538  10.840  12.898
36280W        W97943  34.563  15.313  14.289
36281W        W97944  27.587  37.389   2.284
36282W        W97945  13.112  33.019  14.776
36283W        W97946  41.025  33.553  12.054
36284W        W97947   3.320  29.111   2.894
36285W        W97948  29.467  38.037  14.806
36286W        W97949  29.065  31.131  14.353
36287W        W97950  41.972   8.678   0.790
36288W        W97951  22.082  22.232   4.737
36289W        W97952  23.182   4.412   4.726
36290W        W97953  23.530  10.706  11.006
36291W        W97954  16.302  40.439   2.788
36292W        W97955  21.624  42.008   2.240
36293W        W97956  44.996  16.077   3.289
36294W        W97957  35.996  44.934   4.209
36295W        W97958  36.920   9.884   3.149
36296W        W97959  38.975  42.453   3.780
36297W        W97960  29.519  16.671  10.467
36298W        W97961   9.351  34.086  10.528
36299W        W97962  21.115  23.078  11.044
36300W        W97963  40.870  21.566  12.523
36301W        W97964  13.226  11.685   9.946
36302W        W97965  27.522  35.957  13.472
36303W        W97966  27.662  41.961   3.324
36304W        W97967  14.794  19.198  10.569
36305W        W97968  21.263  29.174   3.215
36306W        W97969   1.877  44.458  11.440
36307W        W97970  24.664   4.795  13.357
36308W        W97971  33.887  17.290  11.064
36309W        W97972  13.346  17.252  14.827
36310W        W97973  17.585  17.298   0.935
36311W        W97974   8.701  34.865   3.760
36312W        W97975  23.150  26.515   0.835
36313W        W97976  44.480  37.336  14.836
36314W        W97977  31.004  32.628  14.441
36315W        W97978  35.895   9.234   3.221
36316W        W97979   1.919   8.273   2.297
36317W        W97980  11.290  29.562   2.198
36318W        W97981  25.474  22.704  11.564
36319W        W97982  22.523  14.151  11.056
36320W        W97983  43.919  16.244  14.956
36321W        W97984   2.298   4.223  11.540
36322W        W97985  14.683  24.643  11.385
36323W        W97986  37.894   6.375   5.091
36324W        W97987   1.375  13.332  12.891
36325W        W97988  12.290   7.681   2.207
36326W        W97989  18.222  12.766   1.351
36327W        W97990  33.609  36.926  14.859
36328W        W97991  10.716  44.882  12.087
36329W        W97992  29.157  37.389  10.928
36330W        W97993  20.139   0.830  10.993
36331W        W97994   0.452   9.149  13.033
36332W        W97995  33.498   2.326   4.192
36333W        W97996   0.854  40.396   4.335
36334W        W97997  20.663  17.206   0.258
36335W        W97998  37.526   9.376  12.906
36336W        W97999   0.482  25.467  12.446
36337W        W98000  21.147   0.431  13.442
36338W        W98001   5.193  33.595   0.428
36339W        W98002  39.464   2.765   3.788
36340W        W98003  12.329  28.964   4.720
36341W        W98004  42.985  24.143  11.012
36342W        W98005  42.348  12.842   2.750
36343W        W98006  42.295  12.777   4.708
36344W        W98007   4.284  15.744   0.950
36345W        W98008   8.323  14.294   1.862
36346W        W98009   1.291  25.642   2.799
36347W        W98010  40.961   9.278   5.106
36348W        W98011   8.293   5.918  14.362
36349W        W98012  14.317  28.962  12.400
36350W        W98013  32.959  40.548  13.448
36351W        W98014  23.049   1.477  14.440
36352W        W98015  10.633   9.845   5.093
36353W        W98016  11.859  12.254   4.680
36354W        W98017   8.193  37.046   3.808
36355W        W98018  36.971  39.929   4.223
36356W        W98019  42.445  28.962  14.030
36357W        W98020  24.646  36.974   3.382
36358W        W98021  22.603  39.921  11.396
36359W        W98022  28.674  25.156  12.851
36360W        W98023  32.978  28.169  11.881
36361W        W98024  28.956  36.463  12.352
36362W        W98025  11.799  15.213  10.893
36363W        W98026  11.813   4.807  11.089
36364W        W98027  42.410  43.298   1.347
36365W        W98028   1.780  11.693  11.009
36366W        W98029  35.502  31.625  11.074
36367W        W98030   4.839  37.849  11.382
36368W        W98031  14.327  40.434  12.026
36369W        W98032  37.351  30.429  12.047
36370W        W98033  24.064  25.630  14.881
36371W        W98034   0.493  18.788  10.590
36372W        W98035  33.065  20.261   4.236
36373W        W98036  35.059  16.074  10.416
36374W        W98037   6.235   9.785  13.033
36375W        W98038   6.302  22.148  14.435
36376W        W98039   0.862   0.922   0.367
36377W        W98040  44.422  17.139  13.796
36378W        W98041   2.254  26.131   2.203
36379W        W98042  42.871  23.062  13.994
36380W        W98043   4.930  19.576   1.814
36381W        W98044  37.493  39.058  14.859
36382W        W98045  40.009  41.889   1.701
36383W        W98046  24.543  44.416  14.475
36384W        W98047  38.068  43.503  14.383
36385W        W98048  44.462  41.301  12.499
36386W        W98049  24.081  16.793  11.522
36387W        W98050  40.413  28.125  14.372
36388W        W98051   3.787  30.468   5.209
36389W        W98052  27.681  16.082   1.926
36390W        W98053  36.855   9.834  14.303
36391W        W98054  20.592  29.020  13.050
36392W        W98055  25.599  42.001   1.810
36393W        W98056  30.011   2.801  10.476
36394W        W98057  20.112  36.978  12.540
36395W        W98058  28.025   4.840   1.372
36396W        W98059   3.269  29.963  11.430
36397W        W98060  20.095  44.279  10.616
36398W        W98061  16.082  12.328   1.873
36399W        W98062  41.961  11.176  14.365
36400W        W98063  15.200  20.706  11.087
36401W        W98064  32.411  21.575  14.023
36402W        W98065  10.739  14.761   2.266
36403W        W98066   8.189  34.004   2.708
36404W        W98067   5.688  34.523  13.504
36405W        W98068  29.982  42.377   1.762
36406W        W98069  29.457   1.444  10.991
36407W        W98070  44.465  27.994   0.447
36408W        W98071  20.738  33.487  12.927
36409W        W98072  21.681  40.997  13.391
36410W        W98073  22.046  41.324   3.345
36411W        W98074  10.720  41.007  13.347
36412W        W98075  28.030  26.116  14.467
36413W        W98076  37.561  26.114  11.579
36414W        W98077  23.494  40.306   1.302
36415W        W98078  19.245  22.592  14.470
36416W        W98079   7.370   4.910   3.732
36417W        W98080  11.793  38.358   0.830
36418W        W98081  25.064  14.280  13.941
36419W        W98082  39.405  35.484   3.246
36420W        W98083   2.304  39.539  12.958
36421W        W98084  37.475  20.660   1.421
36422W        W98085   8.880   4.249  12.547
36423W        W98086   3.739  41.480  13.000
36424W        W98087  32.000  32.539  14.012
36425W        W98088  23.119   5.374  14.904
36426W        W98089  37.348  37.374  10.104
36427W        W98090  32.096  26.958  11.405
36428W        W98091  19.777  23.092   3.308
36429W        W98092  12.710  23.610  12.969
36430W        W98093  10.310   4.221  11.399
36431W        W98094  20.172  24.484  13.450
36432W        W98095  11.291  41.979   1.289
36433W        W98096   6.717  42.929   3.359
36434W        W98097  11.821   6.737  13.805
36435W        W98098  34.507  44.267   3.763
36436W        W98099   3.887  15.254  11.908
36437W        W98100  26.014  27.027  12.984
36438W        W98101  22.712  38.948   5.173
36439W        W98102   6.195  28.021   0.888
36440W        W98103  22.180  44.775   5.286
36441W        W98104  12.856   0.396  14.495
36442W        W98105  17.793   2.296   4.739
36443W        W98106  13.669  25.634  12.993
36444W        W98107   1.845  26.645  14.025
36445W        W98108   4.291  23.695  12.409
36446W        W98109  37.912  20.143   0.362
36447W        W98110   4.779  33.906   1.239
36448W        W98111   3.883  29.146  11.386
36449W        W98112  29.140  36.000  12.040
36450W        W98113  22.642  14.192  12.395
36451W        W98114   5.796  42.946   3.211
36452W        W98115   7.337  15.586   0.899
36453W        W98116   5.328  23.519   1.755
36454W        W98117   9.870  29.506  14.770
36455W        W98118   1.923  15.238   1.362
36456W        W98119  18.120   3.930   2.271
36457W        W98120  35.899  16.112   2.847
36458W        W98121  10.177  33.014  12.368
36459W        W98122  29.471  15.222  10.460
36460W        W98123  31.579  30.141   4.599
36461W        W98124  29.523  44.366  13.049
36462W        W98125  35.931  11.221  14.032
36463W        W98126  43.453  28.498  12.475
36464W        W98127   2.290  27.530  14.507
36465W        W98128   0.878  28.636   1.787
36466W        W98129  11.305   5.361  11.963
36467W        W98130  44.404  42.005   3.681
36468W        W98131   7.247  43.829   1.751
36469W        W98132  40.304  26.043   4.746
36470W        W98133  19.042   2.891  13.058
36471W        W98134  35.551  29.527   1.408
36472W        W98135  19.767  44.935   1.268
36473W        W98136  18.258  41.427  10.587
36474W        W98137   0.760  37.039  10.898
36475W        W98138  31.924  22.656  12.422
36476W        W98139   4.752  28.586  10.560
36477W        W98140   5.817  12.824   4.639
36478W        W98141  15.815   9.738   2.247
36479W        W98142   3.396  23.646   1.380
36480W        W98143  34.865  28.461   3.231
36481W        W98144  26.197  11.218   3.709
36482W        W98145  41.531  42.018  14.792
36483W        W98146  17.305  34.486   4.116
36484W        W98147  44.353  11.702   2.888
36485W        W98148  28.931  34.080   2.740
36486W        W98149  20.731  10.741  12.850
36487W        W98150  42.469   3.931  10.479
36488W        W98151  37.083   0.796  12.930
36489W        W98152  43.493  43.375   4.723
36490W        W98153  11.219  25.008   2.206
36491W        W98154  28.572  24.130  10.586
36492W        W98155  41.351  32.075   4.818
36493W        W98156  15.581   7.264  12.532
36494W        W98157  25.633  31.923  14.759
36495W        W98158   5.815  32.950   2.733
36496W        W98159  17.217   0.376  11.890
36497W        W98160  36.915  12.181   2.742
36498W        W98161  11.666   0.828  11.992
36499W        W98162  16.667  39.879  11.965
36500W        W98163   5.331  29.625  11.021
36501W        W98164  31.534  21.235   5.691
36502W        W98165  29.119  26.110  14.857
36503W        W98166   5.319  18.640   2.326
36504W        W98167  30.489  19.197  14.309
36505W        W98168   4.831  14.804  14.895
36506W        W98169  22.046  11.291  11.489
36507W        W98170  22.661  34.556   4.122
36508W        W98171  12.719  17.735  13.006
36509W        W98172  28.502  12.132  13.883
36510W        W98173  40.493  27.015   4.706
36511W        W98174  33.916   7.737  14.288
36512W        W98175  33.406   9.321   1.398
36513W        W98176  21.565   7.265  14.819
36514W        W98177  23.595  41.951  11.024
36515W        W98178  27.007  17.204   0.827
36516W        W98179  16.169   7.310   2.790
36517W        W98180  32.953  15.272  10.902
36518W        W98181  17.780   4.800  12.012
36519W        W98182  34.489  18.636  12.491
36520W        W98183  18.095   5.918  10.607
36521W        W98184  18.094   7.817  11.057
36522W        W98185  20.707  36.987   4.183
36523W        W98186   7.208  15.600  11.612
36524W        W98187   7.884  22.521  11.897
36525W        W98188   8.714  22.611   4.329
36526W        W98189  20.253   9.270   1.735
36527W        W98190  29.064  10.182   3.171
36528W        W98191   3.426  40.417  11.485
36529W        W98192  17.188  12.845   4.259
36530W        W98193  29.948   5.360   0.819
36531W        W98194  15.796  18.137  10.136
36532W        W98195   2.451  33.573   9.990
36533W        W98196  10.695  10.679   0.943
36534W        W98197   7.223  35.069  12.909
36535W        W98198  29.941  28.029  10.529
36536W        W98199  27.463   8.300  12.929
36537W        W98200  14.243   9.862  10.112
36538W        W98201  25.534  17.797   2.897
36539W        W98202   6.322  13.152  10.452
36540W        W98203  39.913  42.420  13.895
36541W        W98204  34.599  30.933  13.861
36542W        W98205  43.432  10.263  10.076
36543W        W98206   9.846  33.571   3.748
36544W        W98207   4.810  18.276   9.948
36545W        W98208  20.113  37.978   1.762
36546W        W98209  13.315   3.827   2.773
36547W        W98210  23.044   4.886   5.146
36548W        W98211  19.681  24.697   1.736
36549W        W98212  10.656   9.702  11.994
36550W        W98213  23.534   7.700  11.934
36551W        W98214  11.262  24.210  14.814
36552W        W98215  33.912  30.490   0.344
36553W        W98216  21.210  35.098  10.597
36554W        W98217  25.064  39.320  13.487
36555W        W98218  42.318  25.535  14.001
36556W        W98219   4.398   5.296   0.445
36557W        W98220  39.873   4.316  11.891
36558W        W98221  14.205  42.790  11.094
36559W        W98222  39.420   0.915  13.809
36560W        W98223  32.033  40.361  11.486
36561W        W98224  22.692  32.512  12.515
36562W        W98225  42.967  15.821  14.399
36563W        W98226  10.301  16.689   3.346
36564W        W98227   0.420   2.875  11.558
36565W        W98228  34.882  30.933   3.770
36566W        W98229   9.215  16.676   1.221
36567W        W98230   4.791  28.564  11.496
36568W        W98231  39.428  28.443  13.398
36569W        W98232  35.543  26.132  12.359
36570W        W98233  41.890  15.654   1.381
36571W        W98234  32.891  28.082   2.247
36572W        W98235  28.065  16.292  14.404
36573W        W98236  33.618   1.352  10.425
36574W        W98237  40.443  32.468   2.685
36575W        W98238  11.255  39.345   4.750
36576W        W98239  40.966   2.317   1.370
36577W        W98240   1.742   2.259  14.900
36578W        W98241  27.039  31.583   1.909
36579W        W98242  32.018  35.387  14.469
36580W        W98243   4.395  27.596  14.406
36581W        W98244  17.159   5.789   0.910
36582W        W98245   1.949  23.118  14.308
36583W        W98246  20.718   4.430   0.893
36584W        W98247  22.524   8.310   2.302
36585W        W98248  39.441  37.986  14.381
36586W        W98249  17.566  12.288   5.295
36587W        W98250  31.956  27.584   1.760
36588W        W98251  23.670  23.526   3.202
36589W        W98252  12.183  39.043  12.355
36590W        W98253   9.182   8.726  12.955
36591W        W98254  41.867   1.288   1.897
36592W        W98255  35.575  37.047  14.925
36593W        W98256  41.312  25.098  13.845
36594W        W98257  28.464  28.473  13.851
36595W        W98258  38.964  12.283  13.873
36596W        W98259   7.703   6.262  12.020
36597W        W98260  15.620  24.024   1.339
36598W        W98261   6.732  33.038  10.609
36599W        W98262  21.108   8.783  13.041
36600W        W98263  28.137  16.716   1.359
36601W        W98264  22.999  41.866  10.452
36602W        W98265  15.286   9.206  10.897
36603W        W98266  31.112   2.867   4.778
36604W        W98267  16.772   8.333  13.949
36605W        W98268  16.132   7.819  10.581
36606W        W98269   4.732  41.997  12.015
36607W        W98270  25.587  39.866  11.609
36608W        W98271   5.267  19.696  11.932
36609W        W98272  19.142   4.925   4.167
36610W        W98273   4.298  33.518   0.901
36611W        W98274  42.383  32.012  10.604
36612W        W98275  34.450  43.457   0.345
36613W        W98276   8.827  32.982   3.270
36614W        W98277  24.694  33.932  14.355
36615W        W98278  34.534   4.342  12.050
36616W        W98279  19.606  34.991  10.936
36617W        W98280   3.818  12.719   2.719
36618W        W98281  18.600  44.330   0.364
36619W        W98282  29.565  29.603   1.300
36620W        W98283  39.985  15.700  11.986
36621W        W98284  41.001  31.120   2.773
36622W        W98285  36.491  28.484   2.390
36623W        W98286   3.746  28.079  13.005
36624W        W98287   0.854  25.970  10.497
36625W        W98288   8.815  31.602  14.980
36626W        W98289  17.731  22.220   1.318
36627W        W98290   4.777  43.466   2.349
36628W        W98291  34.106  41.301  14.789
36629W        W98292  16.239  36.463   0.433
36630W        W98293  19.164  42.876  12.505
36631W        W98294  36.393  20.546   3.278
36632W        W98295  36.882  36.464   3.662
36633W        W98296  44.409  19.627  14.393
36634W        W98297  29.014  29.111  11.474
36635W        W98298  23.699  42.015   0.402
36636W        W98299  26.141   7.344   2.894
36637W        W98300  25.043   0.278  14.970
36638W        W98301  24.197  34.539   4.679
36639W        W98302  32.900   2.340  10.928
36640W        W98303  38.512  29.488  10.543
36641W        W98304  15.229  33.971   3.669
36642W        W98305   0.847  41.796   3.252
36643W        W98306   4.231  39.888  11.538
36644W        W98307  31.519   6.705  12.415
36645W        W98308  29.491  12.745   0.882
36646W        W98309  22.738  32.524   3.777
36647W        W98310  31.116   5.850  11.975
36648W        W98311  29.145  10.356   2.736
36649W        W98312  43.292  26.553  11.383
36650W        W98313  23.160  38.413   4.798
36651W        W98314  29.628  19.236  11.991
36652W        W98315   9.738  13.120   4.192
36653W        W98316  41.918  28.493  12.887
36654W        W98317  21.261  27.174   9.935
36655W        W98318  17.738  37.412   2.263
36656W        W98319  31.496  44.337  10.603
36657W        W98320  16.640   8.285  13.330
36658W        W98321  17.721   1.259  14.397
36659W        W98322  17.702  39.468  10.574
36660W        W98323  10.658  11.657  10.422
36661W        W98324  31.978  38.857   0.838
36662W        W98325  35.077  40.989  12.515
36663W        W98326   5.279  33.456   3.735
36664W        W98327  42.291  34.032   1.334
36665W        W98328  13.310  28.047  13.992
36666W        W98329  27.062   7.785  14.333
36667W        W98330   1.874  16.298   4.632
36668W        W98331   1.801  21.532   0.940
36669W        W98332  22.736  15.614   3.821
36670W        W98333  26.083   2.311   3.852
36671W        W98334   2.730   8.333   2.398
36672W        W98335  40.031   5.829   4.298
36673W        W98336  21.630  33.960  12.386
36674W        W98337  16.804  12.314  12.360
36675W        W98338  23.204   1.312   4.291
36676W        W98339  31.925  44.480   2.228
36677W        W98340   0.347  33.425   2.884
36678W        W98341  23.041  14.749  10.444
36679W        W98342  28.145  38.544  10.418
36680W        W98343  34.999  38.467   1.838
36681W        W98344  34.478   9.340   2.358
36682W        W98345  11.856   8.178  10.584
36683W        W98346   2.456  19.667  13.830
36684W        W98347  33.073  18.661   2.201
36685W        W98348  40.831  12.163   2.806
36686W        W98349  22.019  40.897   4.806
36687W        W98350  42.382  27.645   3.343
36688W        W98351  10.241  32.410   4.143
36689W        W98352   0.254  31.491  11.080
36690W        W98353   6.423  12.285  13.805
36691W        W98354  25.035   2.228   3.268
36692W        W98355   9.732   5.819   1.220
36693W        W98356  19.277  25.053  10.897
36694W        W98357  40.406   7.387   1.827
36695W        W98358   1.393  26.594   4.192
36696W        W98359  26.475  15.202   4.162
36697W        W98360  25.202  38.991  10.998
36698W        W98361  36.382  38.997  10.619
36699W        W98362  42.360  38.476  12.937
36700W        W98363  32.473  17.587   4.243
36701W        W98364  29.569  13.785   1.373
36702W        W98365  15.795  12.245  12.359
36703W        W98366   1.819   4.247  13.850
36704W        W98367  23.162   0.910   1.928
36705W        W98368  13.182  11.662   1.875
36706W        W98369  11.732  13.203  13.975
36707W        W98370  41.363  29.061   1.786
36708W        W98371   7.191   6.323  14.993
36709W        W98372  13.253   8.292  13.337
36710W        W98373  18.122  22.704   3.729
36711W        W98374  22.554  12.326   4.312
36712W        W98375  13.738  22.534  13.793
36713W        W98376  27.464  24.480   0.366
36714W        W98377  10.334  18.088  13.337
36715W        W98378  42.385  31.921   2.859
36716W        W98379   9.804  13.114  12.835
36717W        W98380  25.517  42.924   0.830
36718W        W98381  11.348  32.499  13.949
36719W        W98382   0.971  40.821   3.630
36720W        W98383  35.089  44.008   3.746
36721W        W98384   2.784   4.302   0.382
36722W        W98385  28.932  21.619  10.503
36723W        W98386   8.194  14.256   3.346
36724W        W98387  17.677  42.439   0.243
36725W        W98388   5.206  37.411  10.588
36726W        W98389  24.109  34.084  10.948
36727W        W98390  21.183  40.043   1.295
36728W        W98391  29.663  41.480  13.018
36729W        W98392  10.255   1.869  12.069
36730W        W98393  16.073  30.161  12.536
36731W        W98394   1.408  24.677   4.162
36732W        W98395   4.797  11.176  14.843
36733W        W98396  32.511   1.472  13.395
36734W        W98397  26.509  14.749  13.052
36735W        W98398  42.922  30.544   0.384
36736W        W98399  37.571  27.956   3.861
36737W        W98400  37.874  13.707   3.256
36738W        W98401   5.906  13.259  11.555
36739W        W98402  26.508  15.733   0.375
36740W        W98403  28.674  19.692  14.996
36741W        W98404  24.597  19.649  13.417
36742W        W98405  41.453  16.277   1.288
36743W        W98406  42.020  20.093   1.909
36744W        W98407  14.320  19.136  12.952
36745W        W98408  29.571  27.015  12.440
36746W        W98409  37.349  13.285   0.883
36747W        W98410  30.524  11.219   3.262
36748W        W98411  20.550  10.198   4.189
36749W        W98412  24.060  16.786   0.806
36750W        W98413  14.238   0.916  11.464
36751W        W98414  18.063  36.968  14.279
36752W        W98415   9.879  27.979   0.295
36753W        W98416  34.426   0.268  12.351
36754W        W98417  11.337  31.982   1.442
36755W        W98418  10.306  36.879   1.312
36756W        W98419  38.901  15.255  12.087
36757W        W98420  12.833  39.857  10.990
36758W        W98421  10.772   5.357  12.862
36759W        W98422  24.554   6.902   0.477
36760W        W98423  24.119   3.380  13.456
36761W        W98424  27.097  41.529   0.809
36762W        W98425  28.007   1.306  14.509
36763W        W98426   6.849   4.235  13.938
36764W        W98427  29.550  35.050  13.042
36765W        W98428  29.470  26.695   9.983
36766W        W98429  22.012  35.902  14.800
36767W        W98430  35.066  35.870  10.513
36768W        W98431  17.735  38.051   2.798
36769W        W98432  38.372  35.473  13.499
36770W        W98433  14.175   4.425   1.716
36771W        W98434  13.312  32.488   2.664
36772W        W98435  39.916  29.584   1.356
36773W        W98436  34.988  23.688   2.756
36774W        W98437  16.119   1.746   3.859
36775W        W98438  43.914  40.957   1.279
36776W        W98439  11.248  43.003  14.490
36777W        W98440  17.640   3.386   2.788
36778W        W98441  31.601  11.209   1.715
36779W        W98442   2.856  17.079  12.421
36780W        W98443  21.081  32.452  11.859
36781W        W98444  29.155  24.633  13.325
36782W        W98445  37.431  40.038   3.158
36783W        W98446   4.768   8.334   4.118
36784W        W98447  41.477  24.612   2.847
36785W        W98448  29.016   2.275  11.938
36786W        W98449   3.739  26.005  14.386
36787W        W98450  38.441  14.699   3.783
36788W        W98451  28.080   7.388  14.798
36789W        W98452  34.426  26.458  11.089
36790W        W98453  23.580   2.243   2.384
36791W        W98454   8.736   2.395  13.519
36792W        W98455  31.439   1.935  12.389
36793W        W98456   3.224  24.101   2.186
36794W        W98457   7.255  44.963   3.194
36795W        W98458  24.665  41.485  12.095
36796W        W98459  39.017  25.501   4.157
36797W        W98460  37.581  10.679  13.433
36798W        W98461  13.678   8.401  10.918
36799W        W98462   4.815   6.345  14.786
36800W        W98463  18.061   7.313  10.910
36801W        W98464  34.916  32.901   2.348
36802W        W98465  37.898  33.974   0.373
36803W        W98466  28.036  17.607  13.369
36804W        W98467  43.436  29.513  11.024
36805W        W98468  23.144  37.491  12.093
36806W        W98469   8.322  37.867  11.038
36807W        W98470   8.163  13.302   4.178
36808W        W98471  30.454  27.157   4.605
36809W        W98472  32.924  41.906   0.397
36810W        W98473   8.709  41.791   4.305
36811W        W98474  13.271  12.337  11.868
36812W        W98475   0.954  11.162   0.809
36813W        W98476   2.865   2.858   4.138
36814W        W98477  14.298  21.545  12.402
36815W        W98478  17.735  36.438   4.773
36816W        W98479  23.128  42.874  11.014
36817W        W98480  36.934  39.460   2.841
36818W        W98481  27.690   7.253  13.875
36819W        W98482   4.296   9.848   2.239
36820W        W98483   6.287  11.856   2.384
36821W        W98484  37.835  40.345   0.726
36822W        W98485  44.457  16.754   2.801
36823W        W98486  23.700  37.549   0.466
36824W        W98487  34.517  11.696  12.406
36825W        W98488  25.130  29.440   2.355
36826W        W98489  35.489   9.753   1.219
36827W        W98490   0.487  22.021   3.807
36828W        W98491  36.393  16.103   2.695
36829W        W98492  34.395   9.317  14.380
36830W        W98493  12.297   3.224   4.641
36831W        W98494  11.855  15.635   5.301
36832W        W98495  23.520  13.707   2.779
36833W        W98496  44.331   5.375  13.906
36834W        W98497   0.416  26.690  11.004
36835W        W98498  40.919   6.788  10.523
36836W        W98499  17.717  23.687   0.329
36837W        W98500  41.491  29.066   2.371
36838W        W98501  33.409  29.932   0.889
36839W        W98502  29.123  38.333  14.898
36840W        W98503   2.388  27.651   3.750
36841W        W98504  13.659  18.744  14.881
36842W        W98505   0.860  43.986  13.025
36843W        W98506  28.154   5.905  13.479
36844W        W98507  34.097  24.617   3.212
36845W        W98508  41.823   7.280  13.500
36846W        W98509  34.383  37.929   3.722
36847W        W98510  21.122  20.696  13.310
36848W        W98511  37.969   7.812  14.463
36849W        W98512  27.559   3.371   5.301
36850W        W98513   4.854  16.718  13.838
36851W        W98514  15.290  43.970   1.726
36852W        W98515  26.513  27.658  10.970
36853W        W98516  38.508  28.671  13.881
36854W        W98517  16.660   4.277   3.177
36855W        W98518  21.102   6.832  14.452
36856W        W98519  36.950   9.835  13.942
36857W        W98520  22.633  36.490   1.774
36858W        W98521  13.180  30.500  13.018
36859W        W98522  36.957   9.206  11.372
36860W        W98523  12.846  35.896  13.979
36861W        W98524  38.926  22.236  10.937
36862W        W98525  11.639  31.075   1.797
36863W        W98526  26.654  11.802  12.982
36864W        W98527   4.897  12.716  14.451
36865W        W98528   9.253  32.941  14.943
36866W        W98529  21.097   1.363   4.815
36867W        W98530  24.717  11.744   3.636
36868W        W98531  10.876  42.422   4.204
36869W        W98532   5.345  23.038   2.813
36870W        W98533  37.547  36.914   4.687
36871W        W98534  10.730   4.835  12.843
36872W        W98535   4.921  17.205   1.417
36873W        W98536  43.364  33.547   4.215
36874W        W98537   9.770   1.337  10.565
36875W        W98538  37.077  15.084  10.927
36876W        W98539   4.249  16.779  14.983
36877W        W98540  30.638  30.941   0.728
36878W        W98541  20.673  22.689  12.465
36879W        W98542  38.854  31.966   2.844
36880W        W98543  16.800  16.580   0.928
36881W        W98544  27.506  42.983  14.919
36882W        W98545   4.822  31.504  13.923
36883W        W98546   4.808  19.232   1.714
36884W        W98547  37.964   4.338  14.497
36885W        W98548  42.950   9.858   1.401
36886W        W98549  30.141  32.549  13.506
36887W        W98550  42.901   7.326  13.321
36888W        W98551  24.570   1.328  12.543
36889W        W98552   5.399  40.916   3.845
36890W        W98553  42.439  33.048  11.093
36891W        W98554  24.080  21.611  13.877
36892W        W98555  37.547  42.365  13.314
36893W        W98556  26.550  33.929  12.055
36894W        W98557  40.507   6.246   2.711
36895W        W98558   4.362  13.189  10.522
36896W        W98559  22.502   9.283   4.661
36897W        W98560  43.812  23.012  10.589
36898W        W98561  10.686  30.608  10.582
36899W        W98562  44.382  27.027  12.404
36900W        W98563  40.400  33.977  13.478
36901W        W98564  14.696   9.698  14.886
36902W        W98565  18.599  26.495  14.003
36903W        W98566   0.382  11.767  12.962
36904W        W98567   9.313  21.174  14.389
36905W        W98568  42.491  39.478   3.799
36906W        W98569  35.380   7.398   3.734
36907W        W98570  24.481  20.105   0.879
36908W        W98571  14.192  21.020  12.919
36909W        W98572  44.796  34.073  11.444
36910W        W98573  11.683  19.765   2.405
36911W        W98574  16.247  31.439   1.834
36912W        W98575  43.298  10.706  10.920
36913W        W98576  28.981  32.554  10.894
36914W        W98577  44.757  29.111   2.715
36915W        W98578  34.023   7.280   2.741
36916W        W98579  12.824  10.159  11.109
36917W        W98580   4.422   4.777   0.767
36918W        W98581  10.360  39.956   2.242
36919W        W98582  41.844  42.800  10.967
36920W        W98583  35.564  26.188  10.582
36921W        W98584  37.041  12.839  11.043
36922W        W98585  41.447  44.297   3.687
36923W        W98586  21.226  35.100   1.447
36924W        W98587  42.787   7.215  13.063
36925W        W98588  30.600  14.823   1.250
36926W        W98589  29.980  14.224   0.962
36927W        W98590  15.649  24.991   2.757
36928W        W98591   5.215  29.557   4.776
36929W        W98592   6.310   1.862  13.427
36930W        W98593  12.273  11.137   0.831
36931W        W98594  42.384  22.139  11.964
36932W        W98595  19.214  20.562   2.823
36933W        W98596   2.819  32.028  14.947
36934W        W98597   9.800  38.519   3.331
36935W        W98598  42.396  29.158   4.767
36936W        W98599  33.011   2.755   0.269
36937W        W98600  22.066  15.739  14.847
36938W        W98601  29.512  33.511  13.974
36939W        W98602  17.229  31.450  14.511
36940W        W98603  25.124  20.119  13.522
36941W        W98604   5.854  12.326  14.428
36942W        W98605  29.130  11.848   4.830
36943W        W98606   8.285  34.418   0.877
36944W        W98607   2.855  35.949  10.530
36945W        W98608  31.025  26.181  10.924
36946W        W98609   6.731  25.486   2.276
36947W        W98610  20.569  37.556  11.386
36948W        W98611  33.967   4.895   9.463
36949W        W98612   5.764  37.830   0.901
36950W        W98613  25.154  42.483   1.906
36951W        W98614  42.951  32.423   3.319
36952W        W98615  26.184  12.736   0.250
36953W        W98616  22.630  11.134  13.831
36954W        W98617   5.229  13.694  10.907
36955W        W98618  30.496   3.223  13.539
36956W        W98619  33.470  29.124  11.601
36957W        W98620   6.877  11.746  14.417
36958W        W98621  22.576  42.989  14.950
36959W        W98622  39.372  15.792   2.282
36960W        W98623  34.492   5.263   1.824
36961W        W98624  37.516   1.735  12.033
36962W        W98625   8.256  31.497  14.275
36963W        W98626  42.778  21.527   3.759
36964W        W98627   2.444  38.048   4.832
36965W        W98628  23.675  40.900   0.284
36966W        W98629   2.809  40.829  12.957
36967W        W98630  17.647   2.862   4.121
36968W        W98631  10.335  39.833  14.999
36969W        W98632   6.791   0.468  12.559
36970W        W98633  10.195   5.933  11.518
36971W        W98634  35.924  29.939  11.988
36972W        W98635  22.085  29.111  11.977
36973W        W98636  29.078  24.712  12.339
36974W        W98637  16.289  15.705   3.701
36975W        W98638   7.751  11.832   9.955
36976W        W98639  11.692  44.500   5.293
36977W        W98640  39.339  26.189   4.792
36978W        W98641  10.742  19.175   3.790
36979W        W98642  22.521  16.263   3.256
36980W        W98643  38.835  12.760   0.418
36981W        W98644   4.873  39.026   0.421
36982W        W98645  26.680   3.887   2.218
36983W        W98646  35.110  43.839   4.724
36984W        W98647  36.518  21.601  11.105
36985W        W98648  26.584   7.687   1.418
36986W        W98649   7.717  23.497  11.105
36987W        W98650  17.558  12.756  10.583
36988W        W98651   6.381   3.796  12.038
36989W        W98652  30.004   0.782   4.323
36990W        W98653  24.071  40.942   4.322
36991W        W98654  22.728  36.024   3.695
36992W        W98655  25.195  26.197  14.401
36993W        W98656  16.759  18.065   2.903
36994W        W98657  44.970  19.129  14.004
36995W        W98658  35.587  10.828  12.944
36996W        W98659  39.914   0.264  14.779
36997W        W98660  25.675  25.513   0.945
36998W        W98661  17.606  23.092  10.906
36999W        W98662   8.701  27.166   4.778
37000W        W98663  38.064   2.799  11.966
37001W        W98664  10.325  33.881   0.831
37002W        W98665  19.256  39.375   0.386
37003W        W98666  36.919  23.612  12.895
37004W        W98667  27.128  28.518   0.338
37005W        W98668  41.818  40.514  14.327
37006W        W98669  17.253   0.473  13.043
37007W        W98670  36.065  13.130  11.599
37008W        W98671   9.683  10.248  14.360
37009W        W98672  27.152  38.434  14.330
37010W        W98673  20.117  36.526   4.716
37011W        W98674  39.524  15.252  13.982
37012W        W98675  20.628  36.056   1.886
37013W        W98676  12.265   7.231   2.282
37014W        W98677  40.489  39.531  11.077
37015W        W98678   1.286  14.751   0.748
37016W        W98679  33.003  23.133   1.789
37017W        W98680  12.361  24.080   1.918
37018W        W98681  23.080  22.126   2.803
37019W        W98682  17.776  20.669  13.315
37020W        W98683  29.051  15.194   3.154
37021W        W98684  28.506  33.549  11.113
37022W        W98685  41.950  21.597   2.293
37023W        W98686   6.211  27.012   2.726
37024W        W98687  14.242   4.940  11.109
37025W        W98688  35.424  32.135   1.743
37026W        W98689  29.429  11.166   0.385
37027W        W98690  20.186   3.454   5.244
37028W        W98691   8.887   5.256   4.178
37029W        W98692   0.284  35.004   0.840
37030W        W98693  14.665   1.282   1.367
37031W        W98694   7.813  17.624   2.210
37032W        W98695   6.211  15.325  11.104
37033W        W98696  25.043  36.591  12.927
37034W        W98697  14.111  24.507  11.967
37035W        W98698  18.656  13.766  11.066
37036W        W98699  34.949  28.971   2.694
37037W        W98700  42.020  17.742  13.395
37038W        W98701  41.034   9.366  14.461
37039W        W98702  24.488  16.711  12.548
37040W        W98703  24.607  39.894  11.603
37041W        W98704  34.579  14.181  11.381
37042W        W98705   8.250  14.636   0.834
37043W        W98706  13.681  19.283   0.784
37044W        W98707  43.386   9.823   0.386
37045W        W98708  21.719   2.452   2.329
37046W        W98709  27.495  19.054  12.891
37047W        W98710  40.864  10.346  12.349
37048W        W98711  39.448  17.673  13.906
37049W        W98712  33.489  13.186   1.905
37050W        W98713  36.967   7.892   5.159
37051W        W98714  24.070  18.577  14.479
37052W        W98715  17.219  15.235   3.252
37053W        W98716   6.679   8.183   3.313
37054W        W98717  34.060  40.406   1.840
37055W        W98718  16.800  35.940   3.240
37056W        W98719  38.862  25.493   2.252
37057W        W98720  10.183  39.420   0.836
37058W        W98721  12.666  26.021   0.845
37059W        W98722  22.101   4.407   1.329
37060W        W98723  24.042  15.324  13.433
37061W        W98724   0.815   2.405   0.294
37062W        W98725  42.383  28.082  11.385
37063W        W98726   5.713  23.596   4.350
37064W        W98727  29.074  43.909  11.043
37065W        W98728   2.358  21.052  12.389
37066W        W98729  30.132  44.499   4.270
37067W        W98730  31.098  13.807   4.298
37068W        W98731  17.183  18.748   4.751
37069W        W98732  16.669  38.379  13.042
37070W        W98733   9.657  44.353   4.197
37071W        W98734  21.577  27.573   0.960
37072W        W98735  41.373  12.333  11.466
37073W        W98736   1.801  40.506  12.940
37074W        W98737  39.381  31.579  13.924
37075W        W98738   1.793  39.991   3.782
37076W        W98739  16.248   2.801  10.419
37077W        W98740  15.112  12.304  13.389
37078W        W98741  25.674  27.145   1.315
37079W        W98742  23.531   4.318   1.718
37080W        W98743  38.897  30.447  10.053
37081W        W98744   2.337  23.217  10.551
37082W        W98745   5.314  35.498   0.295
37083W        W98746  43.474  13.656   3.841
37084W        W98747  11.248  16.272   1.717
37085W        W98748   1.804   4.255  12.395
37086W        W98749  22.569  44.402  12.854
37087W        W98750  37.569  30.641  10.902
37088W        W98751  30.035   3.331   5.144
37089W        W98752  38.383  42.446   1.831
37090W        W98753  38.025  10.159  11.552
37091W        W98754  18.758   5.763  11.558
37092W        W98755  35.528  29.137  10.623
37093W        W98756  34.017   2.343   0.441
37094W        W98757  24.215   0.468  11.982
37095W        W98758  33.995  15.783  10.630
37096W        W98759  10.756  28.528  13.929
37097W        W98760  21.603   8.315  10.469
37098W        W98761   5.281  27.617   3.854
37099W        W98762  21.666  30.996   4.648
37100W        W98763  25.508   3.759  11.491
37101W        W98764   5.782  31.965  12.884
37102W        W98765   1.857  28.993   2.351
37103W        W98766  44.469  31.084  14.896
37104W        W98767   9.379  32.494   0.959
37105W        W98768   1.834   2.377  14.274
37106W        W98769  10.171  27.049  14.955
37107W        W98770  40.407  24.714  14.488
37108W        W98771  25.507  26.469  14.449
37109W        W98772  43.440  29.663  14.955
37110W        W98773  29.136   0.767   2.401
37111W        W98774  22.098   9.711   1.869
37112W        W98775  28.184   0.966  11.938
37113W        W98776  14.726  40.516  11.472
37114W        W98777   2.337   3.271  12.447
37115W        W98778   7.890  27.517  10.597
37116W        W98779  34.043  36.962   0.274
37117W        W98780  24.684  16.587   2.408
37118W        W98781  24.644  17.706   4.261
37119W        W98782  21.055   1.258   3.632
37120W        W98783  30.537   7.373   2.307
37121W        W98784  39.951  14.263  11.058
37122W        W98785  29.085  23.632   0.752
37123W        W98786  20.069  18.691   4.725
37124W        W98787  18.237  14.720  11.571
37125W        W98788   1.900  27.539  14.850
37126W        W98789  22.549  12.652  11.076
37127W        W98790  36.953  22.557   3.336
37128W        W98791  43.991  28.993  14.298
37129W        W98792   2.320  17.676  14.426
37130W        W98793  19.649  22.625  12.081
37131W        W98794   1.735  34.037  13.371
37132W        W98795  21.200  24.703   4.606
37133W        W98796  10.314  12.656  12.870
37134W        W98797  17.073  28.607  12.390
37135W        W98798   0.309   1.842   2.278
37136W        W98799  35.520  26.631  13.941
37137W        W98800  13.784  33.593   2.330
37138W        W98801   3.416  11.255   2.309
37139W        W98802  20.055  18.086  13.472
37140W        W98803   5.351   5.218   3.275
37141W        W98804  27.084  30.149  11.980
37142W        W98805   2.284  27.490  13.344
37143W        W98806  41.473   7.268  13.063
37144W        W98807  18.053   4.826  13.463
37145W        W98808  42.839  12.336   0.842
37146W        W98809  39.995  44.367  13.442
37147W        W98810  29.441  26.602   3.337
37148W        W98811  13.209  33.610   0.834
37149W        W98812  13.701  28.966   3.740
37150W        W98813   8.833  39.318   3.212
37151W        W98814  19.050  31.487  13.492
37152W        W98815  35.045  32.566   4.186
37153W        W98816  30.928  19.070   4.807
37154W        W98817  16.789  13.734  14.872
37155W        W98818  20.761  13.160   3.262
37156W        W98819  13.227   6.862   2.300
37157W        W98820  10.653  23.710   0.363
37158W        W98821  30.464  10.813   3.746
37159W        W98822  22.637  33.543  12.510
37160W        W98823  18.202  22.217   3.816
37161W        W98824   9.779   9.686   4.632
37162W        W98825  13.818  43.324  12.553
37163W        W98826  12.828  21.076   4.722
37164W        W98827  43.323  16.236  11.936
37165W        W98828   0.299  13.799  14.479
37166W        W98829  10.781  29.523   3.676
37167W        W98830   2.358  42.438   2.188
37168W        W98831  22.747  37.055  11.586
37169W        W98832  31.628   5.211  11.440
37170W        W98833   8.391  19.045   3.754
37171W        W98834  35.049  39.884   2.226
37172W        W98835  29.479  21.240  12.529
37173W        W98836  17.280  29.004   1.239
37174W        W98837  10.642  43.467  13.899
37175W        W98838  44.973  21.188   2.412
37176W        W98839  23.989   9.888   3.197
37177W        W98840   4.803  26.641   0.846
37178W        W98841   4.370  42.489   4.761
37179W        W98842  10.297  25.096   0.940
37180W        W98843  10.764  37.422   1.786
37181W        W98844   6.686  16.199   3.798
37182W        W98845  38.004  20.090  11.946
37183W        W98846  11.276  40.932  12.091
37184W        W98847   8.348  20.672  13.994
37185W        W98848  22.647  37.550   3.860
37186W        W98849  33.467  36.871   2.731
37187W        W98850   1.472  36.368  13.421
37188W        W98851  26.188  12.814   1.339
37189W        W98852  11.862  10.645   3.274
37190W        W98853  21.233  17.776  14.845
37191W        W98854  18.080  44.446  12.052
37192W        W98855  21.033  27.168   4.828
37193W        W98856  35.595  39.055   4.789
37194W        W98857  33.012  12.666   2.811
37195W        W98858  17.652  12.261  14.915
37196W        W98859  13.845  21.563  12.918
37197W        W98860  29.603  35.088   1.811
37198W        W98861   8.899  29.145  11.532
37199W        W98862  11.360  16.154  12.046
37200W        W98863  34.098  15.241   2.720
37201W        W98864  26.007  21.715   0.274
37202W        W98865   8.307   4.898  11.514
37203W        W98866   7.703   6.747  12.987
37204W        W98867   7.209  11.715   2.727
37205W        W98868  25.708  42.869  12.832
37206W        W98869  29.082  26.138   0.740
37207W        W98870  30.931  31.120  13.041
37208W        W98871  13.655  31.117  13.989
37209W        W98872  25.480  22.515   0.377
37210W        W98873   2.840  40.836   0.363
37211W        W98874  12.269  19.572  13.038
37212W        W98875  27.989  17.744   1.906
37213W        W98876   4.735  38.465   3.752
37214W        W98877  18.578  27.183   3.746
37215W        W98878  39.318  14.663  11.592
37216W        W98879  17.204   3.267   3.798
37217W        W98880  30.023  22.527   3.793
37218W        W98881  12.822  13.158   0.753
37219W        W98882  36.381   5.803  14.782
37220W        W98883  37.060  28.595   0.244
37221W        W98884   3.748  25.683  13.958
37222W        W98885  37.557  33.420  13.823
37223W        W98886   7.171  10.148   3.228
37224W        W98887  31.091  41.410  10.556
37225W        W98888  18.123  27.034   3.268
37226W        W98889  29.029  15.690  11.489
37227W        W98890  36.014  36.534   1.907
37228W        W98891  26.501   3.266  10.432
37229W        W98892  44.330  44.805  12.410
37230W        W98893   2.734  28.060  12.836
37231W        W98894   1.451   9.318  11.406
37232W        W98895  42.832  22.634  14.854
37233W        W98896  22.543  42.511   4.187
37234W        W98897  27.060  44.324  11.498
37235W        W98898  40.045  12.799   0.339
37236W        W98899  40.048   0.747  13.933
37237W        W98900   6.207  29.617  10.938
37238W        W98901  10.824  28.569  14.857
37239W        W98902  31.099  43.350  12.017
37240W        W98903  29.589   2.360   3.239
37241W        W98904  26.698  19.110  14.968
37242W        W98905  27.467  37.485  14.825
37243W        W98906  38.553   0.257  11.594
37244W        W98907   0.304  20.218   3.231
37245W        W98908   4.796  23.680   1.905
37246W        W98909  27.010  24.060  13.363
37247W        W98910  12.668  28.020   2.233
37248W        W98911  37.929   6.216   3.357
37249W        W98912  28.447   4.790  11.500
37250W        W98913  37.894  35.055   4.649
37251W        W98914  36.846  39.479  11.125
37252W        W98915  36.970   5.323  10.911
37253W        W98916  31.602  30.633  14.830
37254W        W98917  20.645  22.057  13.468
37255W        W98918  31.596   7.909   3.320
37256W        W98919  18.098  17.773  10.095
37257W        W98920   0.301  44.963  10.898
37258W        W98921   9.702  37.009  11.089
37259W        W98922  20.557  29.102   3.634
37260W        W98923  37.385   3.355   1.859
37261W        W98924   2.421   5.704   0.403
37262W        W98925  33.619  23.602  11.962
37263W        W98926  43.953  33.460  14.991
37264W        W98927  15.652  44.267  14.381
37265W        W98928  11.839   1.444   3.292
37266W        W98929  25.136  23.651   5.104
37267W        W98930  19.644   3.218   5.245
37268W        W98931   7.175  11.833   4.767
37269W        W98932  19.275  27.961   2.306
37270W        W98933  11.150  34.064   0.271
37271W        W98934  20.753   7.768   2.716
37272W        W98935  22.119  44.488   0.377
37273W        W98936  30.465  24.092   2.403
37274W        W98937   8.305  16.260   3.311
37275W        W98938  20.762   6.287  11.393
37276W        W98939  38.009   7.897   3.823
37277W        W98940  16.315  32.945  10.958
37278W        W98941  12.712   8.773   3.844
37279W        W98942  10.821  38.431   1.911
37280W        W98943  34.045  16.281  11.536
37281W        W98944  12.302   6.349   4.685
37282W        W98945  13.806  33.991   5.167
37283W        W98946   4.359  43.468  11.911
37284W        W98947   2.767   2.316   0.786
37285W        W98948  43.813  28.523   4.237
37286W        W98949   6.824  39.007   4.668
37287W        W98950  11.758  28.148  13.908
37288W        W98951   0.312  44.409   4.673
37289W        W98952  15.664  19.155   0.409
37290W        W98953  41.862  15.725   3.387
37291W        W98954  20.642   6.738  14.024
37292W        W98955  25.588  26.556  12.542
37293W        W98956  23.643  12.280  13.877
37294W        W98957  25.007  24.619  11.500
37295W        W98958   6.379   8.751  12.850
37296W        W98959  11.709  20.657   1.353
37297W        W98960  23.647  12.147   4.309
37298W        W98961  41.820  17.595   4.255
37299W        W98962   7.199   2.467  11.371
37300W        W98963  14.696  42.922  14.811
37301W        W98964  40.434  32.080   3.828
37302W        W98965  18.111  30.574  11.884
37303W        W98966  21.744  16.614  10.427
37304W        W98967   4.293  35.406   2.413
37305W        W98968  13.285  32.469  12.413
37306W        W98969   4.787  37.947   0.346
37307W        W98970   8.270   9.680   3.704
37308W        W98971   4.768  17.284  14.490
37309W        W98972  15.746  31.034   3.181
37310W        W98973  22.557  16.774  14.967
37311W        W98974  43.016  17.750   0.728
37312W        W98975  23.193   2.286  15.000
37313W        W98976  39.866   3.945  14.828
37314W        W98977  31.977  27.967  11.945
37315W        W98978  38.014   7.701  12.922
37316W        W98979  22.202  22.666   2.373
37317W        W98980  18.655  16.263  10.920
37318W        W98981   7.885  35.854   2.848
37319W        W98982  20.678  19.172  12.844
37320W        W98983  22.603   1.320   4.328
37321W        W98984  10.330  32.482  11.537
37322W        W98985  37.041   9.714  11.076
37323W        W98986  44.452  39.834   0.888
37324W        W98987  43.849  42.459   1.907
37325W        W98988  11.724  27.615   1.435
37326W        W98989  22.126  34.931   0.411
37327W        W98990  39.898   7.254   9.585
37328W        W98991   4.448   9.741  10.493
37329W        W98992  13.216   3.424  11.858
37330W        W98993  26.505  26.575  11.886
37331W        W98994  36.932  42.313   0.895
37332W        W98995  24.153  23.511   5.784
37333W        W98996  20.205   7.366  11.522
37334W        W98997  13.278   5.763   1.321
37335W        W98998   1.918  30.154   1.286
37336W        W98999  26.072  19.561  13.971
37337W        W99000  24.058  33.572  13.446
37338W        W99001  37.492   0.435   0.407
37339W        W99002  10.712  30.025  14.954
37340W        W99003   2.438   8.204   2.314
37341W        W99004  26.128  42.793   5.118
37342W        W99005   3.929  25.580   2.815
37343W        W99006  28.583  40.375  10.005
37344W        W99007  43.800  12.705   0.932
37345W        W99008  17.665  32.136  10.938
37346W        W99009  11.266  23.046   3.253
37347W        W99010   9.244  30.523   5.206
37348W        W99011  28.518  41.013  13.507
37349W        W99012  35.603   5.229   0.814
37350W        W99013  18.223   0.913   3.865
37351W        W99014  16.667   7.767  10.924
37352W        W99015  23.187  22.207  11.444
37353W        W99016  37.393  40.368   0.442
37354W        W99017  21.209  29.043   0.967
37355W        W99018   0.938  17.066  13.388
37356W        W99019   0.421  18.089  13.001
37357W        W99020  11.236  17.570   4.243
37358W        W99021  12.708  10.680   1.866
37359W        W99022  15.755  25.210   0.783
37360W        W99023  32.546  44.793  11.565
37361W        W99024   6.241  12.170  10.634
37362W        W99025  14.110  42.300   4.635
37363W        W99026  24.159  31.509  14.872
37364W        W99027  27.980  40.939   0.745
37365W        W99028  28.074  25.643   4.693
37366W        W99029  39.974  40.458  11.936
37367W        W99030   3.826  22.730   0.942
37368W        W99031   3.909  43.791  14.412
37369W        W99032  27.689  34.475  13.505
37370W        W99033  35.872  30.514   0.320
37371W        W99034  31.147  20.215  11.916
37372W        W99035  39.391  35.570   1.769
37373W        W99036  36.074   6.681   0.458
37374W        W99037  11.713  16.088   4.140
37375W        W99038  40.884  22.040   2.783
37376W        W99039  38.543  10.185   3.821
37377W        W99040  32.582  34.444  11.510
37378W        W99041  32.627  44.941   2.663
37379W        W99042  39.914  42.005   0.327
37380W        W99043  20.092  11.195   3.325
37381W        W99044  10.140  23.630  12.416
37382W        W99045  19.096   6.399  11.563
37383W        W99046  13.115   3.780  13.801
37384W        W99047  11.808  11.262   5.213
37385W        W99048  43.935  29.040   4.816
37386W        W99049   8.201  35.393  10.962
37387W        W99050  10.166   6.344  13.831
37388W        W99051  27.183  43.278  11.935
37389W        W99052   3.408  23.534  11.533
37390W        W99053   5.827  31.030  10.890
37391W        W99054  24.112  15.820   4.228
37392W        W99055   7.704   7.264  14.337
37393W        W99056   6.256   1.736   3.783
37394W        W99057  11.686  44.394   3.207
37395W        W99058  35.486  31.641  12.489
37396W        W99059   2.962   4.708  13.830
37397W        W99060  17.585  26.150  10.958
37398W        W99061   6.185  35.888  12.905
37399W        W99062  36.981  36.037   4.313
37400W        W99063  31.943   6.735  12.039
37401W        W99064   8.290  19.608   2.274
37402W        W99065   8.661  32.504   4.599
37403W        W99066  36.956  10.711   0.331
37404W        W99067   1.933   5.732   2.804
37405W        W99068  12.855   4.399   2.236
37406W        W99069   8.721  43.009  14.836
37407W        W99070  34.561  20.073  14.289
37408W        W99071  19.606  20.039  12.535
37409W        W99072  31.152  43.373   0.302
37410W        W99073  41.804  34.879   0.819
37411W        W99074  28.138  27.565  13.864
37412W        W99075  36.849  20.209  13.429
37413W        W99076  11.294  25.987  13.525
37414W        W99077  17.599  35.394   3.340
37415W        W99078   6.781  39.872  12.501
37416W        W99079  32.404  35.530  11.396
37417W        W99080  37.455   0.837   4.826
37418W        W99081  16.304  14.277   3.284
37419W        W99082  35.974  21.572  11.899
37420W        W99083  25.658  36.494  13.796
37421W        W99084   1.477   8.213  10.934
37422W        W99085  13.656  11.656  10.471
37423W        W99086  11.242   5.409  14.316
37424W        W99087  39.880  10.805  12.845
37425W        W99088  17.577  41.794   0.898
37426W        W99089  31.423  14.275   4.694
37427W        W99090  30.588  22.683   3.384
37428W        W99091  35.482  10.382   0.845
37429W        W99092  13.743  31.971  13.410
37430W        W99093  15.635  13.105  12.522
37431W        W99094  27.190  43.483  11.035
37432W        W99095  33.575  39.377  14.390
37433W        W99096   3.753  19.128   2.321
37434W        W99097  33.434  23.639  13.959
37435W        W99098  29.512  17.096  14.282
37436W        W99099  26.577  28.042  11.002
37437W        W99100  26.530  21.172   3.837
37438W        W99101  41.471  18.105   3.330
37439W        W99102  20.147  12.276  10.601
37440W        W99103  24.637  38.375  13.417
37441W        W99104  34.592  35.397   1.894
37442W        W99105  12.118  15.125  14.348
37443W        W99106  37.401  42.336  10.584
37444W        W99107  37.930  29.559  13.438
37445W        W99108  19.259   0.447   0.373
37446W        W99109  39.969  12.796  11.924
37447W        W99110  26.110  44.969  10.941
37448W        W99111  12.665  44.783   4.345
37449W        W99112   2.368  38.466   3.676
37450W        W99113  38.014  41.463  12.408
37451W        W99114  10.275  18.693  14.450
37452W        W99115  38.938  40.980   3.240
37453W        W99116  30.069  16.725  10.596
37454W        W99117  17.627   1.327  12.407
37455W        W99118  21.139  40.529  12.461
37456W        W99119  40.816  22.035   3.347
37457W        W99120  44.441  42.993   1.313
37458W        W99121   8.696   9.342  12.902
37459W        W99122  24.018   4.731  11.543
37460W        W99123  40.920  21.046  12.456
37461W        W99124  43.303  35.976   0.453
37462W        W99125  24.013  37.999  11.571
37463W        W99126  27.522  35.090   2.731
37464W        W99127  27.174  22.234  11.457
37465W        W99128  43.480   6.355   0.281
37466W        W99129  38.979   5.354  12.067
37467W        W99130  37.468  14.203   4.250
37468W        W99131  44.819   7.250   3.281
37469W        W99132   7.309  33.953   1.735
37470W        W99133  29.536  39.458  14.760
37471W        W99134  43.972  13.658  13.510
37472W        W99135  37.525   8.399  10.943
37473W        W99136   0.827  24.023   3.794
37474W        W99137  27.675  35.969  11.109
37475W        W99138  39.328  38.446   4.188
37476W        W99139  42.365  40.864  13.483
37477W        W99140   9.786   5.760   4.625
37478W        W99141  20.088  35.018  14.940
37479W        W99142  32.041  36.930   4.270
37480W        W99143  39.022  11.220  12.402
37481W        W99144  37.478  31.440  14.413
37482W        W99145   5.263   2.913   1.327
37483W        W99146  36.383  42.029   3.826
37484W        W99147  39.811   4.235   1.897
37485W        W99148  43.910  35.020   1.314
37486W        W99149  18.740  28.025   0.467
37487W        W99150   5.436   8.311  13.358
37488W        W99151   5.765  12.725  14.888
37489W        W99152  15.161   5.723  14.968
37490W        W99153   0.424  27.468   0.324
37491W        W99154  17.734  26.994  13.051
37492W        W99155   9.762  30.940  12.911
37493W        W99156  20.651  40.495   2.864
37494W        W99157   2.394   9.664   1.746
37495W        W99158  44.894  28.956  12.554
37496W        W99159  18.084  29.581   4.254
37497W        W99160  24.668  34.937   0.363
37498W        W99161   5.872  31.045  13.500
37499W        W99162   3.757   9.393  12.982
37500W        W99163  39.984  23.093  13.983
37501W        W99164   9.224   9.215  10.515
37502W        W99165  38.990  38.015  11.068
37503W        W99166  18.625  42.868  13.494
37504W        W99167  17.622   1.926  11.013
37505W        W99168   2.288  42.330   0.306
37506W        W99169  40.541  36.968  11.410
37507W        W99170  36.989  43.823   2.320
37508W        W99171  17.799  16.256  11.572
37509W        W99172   8.160  42.486   0.815
37510W        W99173   8.334  37.477   3.244
37511W        W99174  34.908  26.032   0.735
37512W        W99175  36.955  24.079  12.985
37513W        W99176   3.301   0.450  12.966
37514W        W99177  34.888   8.681  13.463
37515W        W99178  30.054  17.758  11.466
37516W        W99179   0.901  17.665   2.335
37517W        W99180   6.705  39.843  14.771
37518W        W99181  34.483  28.026   1.785
37519W        W99182  22.633  43.790   0.435
37520W        W99183  29.046  13.163  14.924
37521W        W99184  18.610  42.337   3.360
37522W        W99185   6.354  22.045   4.727
37523W        W99186  42.969  11.235  11.469
37524W        W99187  40.953  23.521  12.452
37525W        W99188  13.326  42.343   3.188
37526W        W99189   9.394  28.624   4.321
37527W        W99190  21.164  13.141   0.955
37528W        W99191   6.286  17.195   1.721
37529W        W99192  12.261   6.729  12.572
37530W        W99193  40.333   5.320  13.327
37531W        W99194  26.569  33.074   1.289
37532W        W99195  43.293  31.455  12.466
37533W        W99196  36.953   5.784   4.600
37534W        W99197  18.725  15.229  13.311
37535W        W99198   1.940  33.914  14.296
37536W        W99199  17.113  43.424  10.572
37537W        W99200  32.901   7.865  14.888
37538W        W99201  42.973  43.483   2.354
37539W        W99202   7.780  21.084  11.985
37540W        W99203  40.889  25.212   3.693
37541W        W99204   4.903  29.927   1.792
37542W        W99205  18.188  18.681   2.880
37543W        W99206  27.120   7.364  12.874
37544W        W99207  36.002   2.299   0.863
37545W        W99208  12.324  34.996  11.577
37546W        W99209   4.840   5.199  12.935
37547W        W99210  21.734  15.287  14.779
37548W        W99211  36.475  22.627   2.682
37549W        W99212  13.330  36.063   0.780
37550W        W99213  12.736  36.550   5.802
37551W        W99214  10.808   6.392  11.925
37552W        W99215  18.580   2.805  12.398
37553W        W99216  25.004  12.125   4.118
37554W        W99217  43.852  42.788   0.408
37555W        W99218   6.756  30.467   2.221
37556W        W99219  14.716  36.016  12.048
37557W        W99220  39.049  30.442   0.818
37558W        W99221  22.643  20.039  13.009
37559W        W99222   5.324  22.598   0.743
37560W        W99223  13.638  44.851  12.386
37561W        W99224  23.690  27.193  12.528
37562W        W99225  40.006   3.925   3.196
37563W        W99226   5.863  23.694   3.712
37564W        W99227  19.672  30.607  10.055
37565W        W99228  28.101  14.665   1.290
37566W        W99229  34.944  16.317  13.864
37567W        W99230  33.469   8.865  11.035
37568W        W99231   6.771  24.106   2.211
37569W        W99232  11.654  10.265  14.329
37570W        W99233   8.722  19.054  10.537
37571W        W99234  27.612  14.315  14.764
37572W        W99235  15.820  21.638   2.715
37573W        W99236  14.791  32.509   2.850
37574W        W99237  30.515  35.523   0.906
37575W        W99238  33.597  34.085  11.450
37576W        W99239   6.231   9.311   4.265
37577W        W99240  12.829  30.628   3.666
37578W        W99241   9.315  15.083   0.331
37579W        W99242  23.117  32.393  13.309
37580W        W99243  11.745  40.039   0.900
37581W        W99244   5.350  16.797   3.683
37582W        W99245  12.131   5.749   4.727
37583W        W99246   5.377   0.973   0.310
37584W        W99247   5.249   1.358   1.929
37585W        W99248   4.232  18.125   3.667
37586W        W99249  26.659  20.198  14.460
37587W        W99250  43.933   6.746  12.364
37588W        W99251  28.551   0.313   1.726
37589W        W99252  40.944  36.586   2.764
37590W        W99253  23.636  25.487  14.966
37591W        W99254  27.060   0.831   1.380
37592W        W99255  19.671  43.932   4.646
37593W        W99256   4.861  32.502   1.700
37594W        W99257  21.142   4.816   0.759
37595W        W99258  20.085  27.489   1.220
37596W        W99259   2.226  32.411  10.572
37597W        W99260  22.114  10.728   0.366
37598W        W99261  36.449  13.705  10.951
37599W        W99262  18.605  38.845   0.355
37600W        W99263  14.233   1.756  14.900
37601W        W99264   2.341  27.048   1.934
37602W        W99265  11.642  39.543  11.428
37603W        W99266  11.187  26.142   0.410
37604W        W99267  26.065  32.598  13.368
37605W        W99268  33.971  43.396  12.563
37606W        W99269  29.059  27.996  13.826
37607W        W99270  15.159  15.296  13.489
37608W        W99271   2.862  28.100  13.370
37609W        W99272  28.980  42.989   1.886
37610W        W99273  28.553  11.343  13.015
37611W        W99274  24.049  25.540  11.569
37612W        W99275  28.053  11.815   3.306
37613W        W99276  30.983  43.495  13.500
37614W        W99277  19.165  39.390  13.940
37615W        W99278  42.827  29.122  14.889
37616W        W99279  41.495  17.258  13.876
37617W        W99280  27.944   7.892  12.402
37618W        W99281  32.522   2.331  11.121
37619W        W99282   2.386  30.536   3.745
37620W        W99283  12.139   5.315  10.910
37621W        W99284   6.707   8.865  10.503
37622W        W99285  42.941  17.763   2.701
37623W        W99286   9.798   0.868   1.249
37624W        W99287  36.353  42.923   1.876
37625W        W99288  20.569  36.499  14.977
37626W        W99289  36.044  39.497  12.849
37627W        W99290  44.857  32.046   4.689
37628W        W99291  42.906   1.467   3.787
37629W        W99292  38.038   8.193   0.795
37630W        W99293  22.011  12.678  11.865
37631W        W99294  35.420   7.278  13.486
37632W        W99295  21.524   2.397  12.527
37633W        W99296  12.243  26.125  12.539
37634W        W99297  20.175   6.907  10.485
37635W        W99298  41.520  38.882   4.708
37636W        W99299  43.355  11.790   0.474
37637W        W99300  20.735  44.459  13.886
37638W        W99301  13.268  27.471   4.605
37639W        W99302  34.996  32.921   0.784
37640W        W99303  33.446  19.659  12.841
37641W        W99304   2.889   4.319  13.938
37642W        W99305   2.384   0.311  12.531
37643W        W99306  17.120  21.747  13.050
37644W        W99307  37.560  13.669   1.903
37645W        W99308  20.667  35.997   0.956
37646W        W99309   0.948   1.835   5.092
37647W        W99310  24.637  39.419   0.359
37648W        W99311  38.354   8.238   0.825
37649W        W99312  15.690  36.546   3.303
37650W        W99313  11.811  31.595   2.264
37651W        W99314  27.072   5.705  11.064
37652W        W99315  29.443  15.672  12.535
37653W        W99316  35.108   5.328  14.437
37654W        W99317   5.756  40.958  14.306
37655W        W99318  16.730  13.679   1.319
37656W        W99319  38.386   7.821  10.543
37657W        W99320  39.376   5.929   4.245
37658W        W99321  35.852   3.389  14.347
37659W        W99322  36.513  33.485  14.921
37660W        W99323   9.879   9.796  11.482
37661W        W99324  34.009  18.060  11.504
37662W        W99325   1.286  24.021  12.038
37663W        W99326  37.943  35.968   3.704
37664W        W99327  27.991  43.348  14.458
37665W        W99328  20.748  27.538   3.726
37666W        W99329  18.269  28.076   1.213
37667W        W99330  12.618  17.088  12.866
37668W        W99331  41.854   3.895  12.021
37669W        W99332  41.886  41.408   1.405
37670W        W99333  19.209  20.035  13.382
37671W        W99334  25.528  15.611   4.232
37672W        W99335  15.297  32.603   2.285
37673W        W99336  33.501  36.441   3.813
37674W        W99337  35.067  35.530   4.207
37675W        W99338  34.459  26.993   3.312
37676W        W99339   1.307   1.875   2.834
37677W        W99340  43.961  28.974   0.805
37678W        W99341  23.139  22.169  13.868
37679W        W99342  12.715  17.160  10.543
37680W        W99343  22.222  27.532   2.359
37681W        W99344  40.029  15.753  14.808
37682W        W99345  22.713  10.366   4.170
37683W        W99346   5.842  15.772   2.189
37684W        W99347  25.100  32.555  12.874
37685W        W99348  25.087   9.730   4.152
37686W        W99349  13.141   6.263   2.216
37687W        W99350  21.721  28.040   3.672
37688W        W99351  21.536  17.714   2.901
37689W        W99352  32.139  28.187  14.382
37690W        W99353  26.648  37.954   1.362
37691W        W99354  16.749  15.255   0.271
37692W        W99355   3.279  31.904   1.886
37693W        W99356  37.378  24.120   1.842
37694W        W99357  31.603  15.659   3.210
37695W        W99358   1.941  35.883   4.222
37696W        W99359  17.286  15.727   1.283
37697W        W99360   1.270  11.354  12.472
37698W        W99361  11.704  10.848   2.712
37699W        W99362  16.742  42.296  12.934
37700W        W99363  13.116  43.831   0.922
37701W        W99364  18.113   6.713   3.265
37702W        W99365  16.721  41.028  14.412
37703W        W99366  42.352  16.669  14.510
37704W        W99367  20.123  12.311   0.905
37705W        W99368  21.702  36.473   1.328
37706W        W99369  35.086   1.380  10.412
37707W        W99370  22.740   7.181  13.497
37708W        W99371  43.413  21.628   2.699
37709W        W99372  11.355  40.034   4.210
37710W        W99373  26.046  30.144   3.249
37711W        W99374  15.755  22.618  11.505
37712W        W99375  12.150   9.172   0.939
37713W        W99376  40.924  39.390  11.122
37714W        W99377  39.873  15.212   1.317
37715W        W99378   7.183   5.886   0.839
37716W        W99379  39.496  43.483   4.174
37717W        W99380  32.076  17.305   2.797
37718W        W99381   1.322  16.218  12.932
37719W        W99382  13.341   7.302   4.759
37720W        W99383  17.186  12.210  13.376
37721W        W99384  24.639  36.574  10.449
37722W        W99385  40.349  12.204  13.888
37723W        W99386   2.426   0.834  10.979
37724W        W99387  27.538  33.549  14.975
37725W        W99388   6.833  11.769  12.950
37726W        W99389  43.973  22.237   3.637
37727W        W99390  30.414  37.880   0.783
37728W        W99391  34.405  29.625  14.932
37729W        W99392  14.282   7.368   2.684
37730W        W99393  23.653  39.465  12.880
37731W        W99394  20.038   8.252  13.849
37732W        W99395   3.932  32.414   3.646
37733W        W99396   4.700  30.025  13.791
37734W        W99397  15.314  26.629  14.463
37735W        W99398   1.247   4.448  13.400
37736W        W99399  25.681  24.717  14.297
37737W        W99400   9.751  25.972   0.950
37738W        W99401  42.340  22.735  13.898
37739W        W99402  13.833  31.550  12.444
37740W        W99403  25.570  33.889  14.970
37741W        W99404  24.976  32.511  11.456
37742W        W99405   7.708  29.649  12.562
37743W        W99406  40.314   3.267   9.936
37744W        W99407   7.844  37.346  12.851
37745W        W99408  14.149  36.959   4.134
37746W        W99409  42.513  23.603   0.357
37747W        W99410  38.060  31.065   3.832
37748W        W99411  42.942  32.056   4.238
37749W        W99412  11.677  35.426  11.491
37750W        W99413  11.796   9.363  12.823
37751W        W99414  40.396  44.803   3.783
37752W        W99415  18.133   5.390  14.424
37753W        W99416  17.577  26.532   5.178
37754W        W99417   6.698  26.089  14.028
37755W        W99418  42.505  14.333  12.001
37756W        W99419  26.647  19.199   0.389
37757W        W99420  20.542  19.158  12.352
37758W        W99421  39.944  40.962   2.224
37759W        W99422   0.979   4.206   2.324
37760W        W99423  12.125  25.115   4.220
37761W        W99424  41.985  32.964   2.229
37762W        W99425  34.990  37.375  13.030
37763W        W99426  39.022  24.545   1.889
37764W        W99427  43.984   8.701  14.451
37765W        W99428  20.231  27.958  14.422
37766W        W99429   3.321  38.506   0.893
37767W        W99430  23.026   0.983   2.272
37768W        W99431  34.442  11.623  10.929
37769W        W99432  32.489   6.790  14.368
37770W        W99433   9.668  33.565   2.873
37771W        W99434  29.637  21.247  14.502
37772W        W99435  32.566   2.355  14.372
37773W        W99436  31.445  44.329  12.981
37774W        W99437   3.257  18.546  10.568
37775W        W99438  11.333  17.633   0.807
37776W        W99439  33.027  37.483   1.926
37777W        W99440  10.785  35.538  11.522
37778W        W99441   5.229  19.051   4.808
37779W        W99442   8.269   9.648   3.188
37780W        W99443  20.049  27.466   3.259
37781W        W99444   6.399  19.677  11.410
37782W        W99445  38.863  15.643  12.340
37783W        W99446  16.781   4.336  14.297
37784W        W99447  41.476  19.742  13.874
37785W        W99448  40.002  39.049  11.603
37786W        W99449   5.778  26.463  13.889
37787W        W99450  14.828  14.230  10.594
37788W        W99451  27.493   1.306   2.230
37789W        W99452  40.393  16.211  14.385
37790W        W99453   4.723  22.041   3.653
37791W        W99454  23.189  26.561  11.958
37792W        W99455  16.128  17.307  12.349
37793W        W99456  32.518  40.961   2.388
37794W        W99457  21.683  38.468   4.124
37795W        W99458  39.958  24.131  14.851
37796W        W99459  19.621   5.212   4.669
37797W        W99460  15.592   0.978  14.978
37798W        W99461  42.433  31.923   0.305
37799W        W99462  24.622  37.573  12.445
37800W        W99463  14.823   1.944   3.253
37801W        W99464   4.809  23.577  10.514
37802W        W99465   0.921  12.640  12.027
37803W        W99466  21.720  23.717  14.277
37804W        W99467   1.476  12.619   4.672
37805W        W99468  27.981  30.647  10.062
37806W        W99469  41.514   4.879  11.387
37807W        W99470  15.623   4.711  10.566
37808W        W99471  43.908  13.276  11.114
37809W        W99472  43.899  25.644   0.899
37810W        W99473  38.936  31.926  10.446
37811W        W99474  11.302   5.414  10.082
37812W        W99475  22.187  24.192  12.478
37813W        W99476  10.145  40.020  13.860
37814W        W99477  22.607  14.177   2.890
37815W        W99478  25.153   4.404   3.242
37816W        W99479  44.813  30.052   0.440
37817W        W99480   0.489  19.551   4.823
37818W        W99481  29.533  25.606   3.649
37819W        W99482  35.531   3.950  14.876
37820W        W99483  14.630   6.721   1.287
37821W        W99484  11.792  33.571  12.965
37822W        W99485  11.310   6.230   5.236
37823W        W99486  20.569  40.934   4.167
37824W        W99487  42.815  18.153  13.925
37825W        W99488  43.278  20.245   2.352
37826W        W99489  28.603  32.051   3.854
37827W        W99490  19.235  24.191  14.915
37828W        W99491   9.767  23.111   1.430
37829W        W99492  41.947  33.582  12.052
37830W        W99493  28.662  15.129   4.676
37831W        W99494   1.291  16.163   2.895
37832W        W99495  16.188  15.108  14.980
37833W        W99496  30.978  11.674  11.538
37834W        W99497  40.316   2.389  11.406
37835W        W99498  38.019   8.699   4.234
37836W        W99499  31.935  13.690  12.396
37837W        W99500  37.050  41.043   4.826
37838W        W99501  16.132  28.652   1.930
37839W        W99502  13.291   8.243  14.916
37840W        W99503  33.112  11.662   4.630
37841W        W99504  41.842  41.371  13.013
37842W        W99505  22.664  12.138  14.391
37843W        W99506  26.457  20.728  11.465
37844W        W99507   1.948   6.381  12.867
37845W        W99508  29.040  11.678  14.794
37846W        W99509  27.545  35.467  10.568
37847W        W99510   7.359   4.816  10.909
37848W        W99511   3.356  43.798  14.437
37849W        W99512  22.635  24.993  14.407
37850W        W99513  39.817  19.544  14.842
37851W        W99514  31.010  10.213  10.960
37852W        W99515  21.253  23.001   2.754
37853W        W99516  28.138  40.437   3.164
37854W        W99517   5.321  35.981  13.810
37855W        W99518  11.716  26.490  13.529
37856W        W99519  24.110  44.935   3.722
37857W        W99520  39.934  23.161  12.949
37858W        W99521  26.609  38.408   0.409
37859W        W99522  35.976  10.216   0.864
37860W        W99523   4.317  37.551   0.769
37861W        W99524  28.491  21.028   4.738
37862W        W99525  22.115  11.696   2.193
37863W        W99526  29.465  27.136  13.812
37864W        W99527  26.531  29.584  12.874
37865W        W99528  24.724  16.761  14.374
37866W        W99529   8.225   3.394  10.430
37867W        W99530  39.895  33.883  13.800
37868W        W99531  24.102   1.263   3.821
37869W        W99532  14.252  13.654   3.336
37870W        W99533  22.229  35.053   0.921
37871W        W99534  12.253  35.980  12.425
37872W        W99535   1.348  37.072  10.942
37873W        W99536  35.459  27.094   1.289
37874W        W99537  37.948  13.751   1.358
37875W        W99538  17.185  31.110   2.230
37876W        W99539  29.490  16.212  14.497
37877W        W99540  43.019   5.861   9.998
37878W        W99541  10.787  11.623   2.748
37879W        W99542  36.578  16.693   4.274
37880W        W99543  13.321  29.122   0.461
37881W        W99544  31.446  10.771  11.451
37882W        W99545  20.639  17.257   2.271
37883W        W99546  29.555  40.327  10.064
37884W        W99547  18.114  32.901   0.829
37885W        W99548   6.340  18.171   2.301
37886W        W99549   1.873   6.426   2.712
37887W        W99550  38.013  28.104   2.735
37888W        W99551  40.052  13.203  12.859
37889W        W99552   7.180  16.242   3.329
37890W        W99553  24.149  19.603   0.823
37891W        W99554  43.473  11.847  14.027
37892W        W99555   8.372  12.225  14.856
37893W        W99556  13.797  16.807   2.746
37894W        W99557  13.759  30.022   1.236
37895W        W99558  32.099  18.112   1.866
37896W        W99559  41.400  31.108   1.358
37897W        W99560  10.722  29.524  12.361
37898W        W99561  42.296  13.288   1.418
37899W        W99562   0.376  27.088  12.033
37900W        W99563  28.953  14.775   3.256
37901W        W99564  34.030  39.472   3.849
37902W        W99565   4.408  22.551   3.246
37903W        W99566  31.480   8.280   4.769
37904W        W99567  41.434  42.481   4.655
37905W        W99568  37.557  21.717  12.479
37906W        W99569  36.508  40.306   1.304
37907W        W99570  15.783  17.693   3.692
37908W        W99571  11.662  31.561  10.957
37909W        W99572   4.795  21.175   5.259
37910W        W99573  39.826   7.302   4.653
37911W        W99574  27.626   1.291  14.493
37912W        W99575  20.237   6.402  11.011
37913W        W99576   8.730  37.896   2.289
37914W        W99577  35.600  16.683   2.743
37915W        W99578  35.861  43.296  13.503
37916W        W99579  41.498   4.272   3.301
37917W        W99580  44.419  30.095  10.579
37918W        W99581  25.994   2.287   4.233
37919W        W99582  26.665  39.816  14.485
37920W        W99583  37.847  25.205  10.530
37921W        W99584  14.311  11.777  11.969
37922W        W99585  33.581   8.346   1.861
37923W        W99586   2.899  44.416   2.354
37924W        W99587  19.711  40.332  14.784
37925W        W99588  25.998  26.066   1.857
37926W        W99589   4.940  40.870  12.467
37927W        W99590  25.645   7.845  12.090
37928W        W99591  22.021  38.415  13.377
37929W        W99592   4.282   0.453  12.893
37930W        W99593  28.100  39.466   0.729
37931W        W99594   5.219  16.221   2.669
37932W        W99595  31.486  37.490  13.393
37933W        W99596  11.144  11.206   1.748
37934W        W99597   4.898   1.867  14.870
37935W        W99598  34.949   7.215  14.485
37936W        W99599   7.846  23.545   1.769
37937W        W99600  18.279   3.762   4.321
37938W        W99601   0.392   7.207  10.130
37939W        W99602  27.059  13.159   0.394
37940W        W99603   8.802  28.589   0.964
37941W        W99604  27.598  32.968  12.066
37942W        W99605  44.502  38.505  12.496
37943W        W99606  12.719  32.988  12.939
37944W        W99607  16.754  30.587   0.352
37945W        W99608   8.894   6.725  11.508
37946W        W99609   5.290   0.371   1.755
37947W        W99610  17.074  26.987  14.345
37948W        W99611  36.359  39.888  11.601
37949W        W99612  12.622   1.778  12.490
37950W        W99613  32.073   9.703   4.313
37951W        W99614  28.978  31.089  13.882
37952W        W99615  32.391   5.252   0.818
37953W        W99616  29.627  31.902   2.391
37954W        W99617  37.990   5.699   1.728
37955W        W99618  12.835   0.313   3.643
37956W        W99619   3.930  33.029   2.227
37957W        W99620   8.887  10.877   4.235
37958W        W99621  19.754  24.070   3.810
37959W        W99622  42.443  22.014  14.476
37960W        W99623   8.662  31.401  11.123
37961W        W99624  23.158  35.578   4.223
37962W        W99625  34.519  40.324  11.377
37963W        W99626  15.718  10.304   0.260
37964W        W99627  44.447  16.245  13.933
37965W        W99628  37.504  27.002  10.566
37966W        W99629  17.721   2.431  12.448
37967W        W99630  20.668  17.563  12.850
37968W        W99631  39.437   6.893   0.294
37969W        W99632  30.501  10.358   4.180
37970W        W99633   4.429  12.228  12.353
37971W        W99634  15.175  43.424   3.229
37972W        W99635  12.644   6.859   0.901
37973W        W99636  12.736  42.436   2.321
37974W        W99637  19.214   9.764  12.552
37975W        W99638  22.574  42.023   4.151
37976W        W99639   9.162  13.742  11.574
37977W        W99640  18.600   8.664   3.816
37978W        W99641  29.662   1.832   0.948
37979W        W99642   7.282  44.482   3.214
37980W        W99643  43.958  19.202   4.606
37981W        W99644   0.311  44.842   4.811
37982W        W99645  43.812  23.162  13.853
37983W        W99646  30.493  27.955   0.957
37984W        W99647  21.558   1.802   0.730
37985W        W99648  41.942  12.318   3.850
37986W        W99649  25.184  31.544  13.005
37987W        W99650  10.705  22.705  11.915
37988W        W99651  40.033  26.026   3.377
37989W        W99652   7.909   3.850  13.840
37990W        W99653  36.368  23.009   1.361
37991W        W99654  32.458   6.860   1.245
37992W        W99655  35.600   8.788   1.816
37993W        W99656  25.195  43.296  10.477
37994W        W99657   9.355  15.240  10.426
37995W        W99658   3.764   4.894   1.796
37996W        W99659   1.252  35.929   3.387
37997W        W99660  39.912   4.764   3.211
37998W        W99661  39.521  28.132   4.264
37999W        W99662  44.466  20.143   4.757
38000W        W99663  39.983  31.409   3.209
38001W        W99664  28.471   6.423  12.049
38002W        W99665  16.243   9.695  10.453
38003W        W99666  21.732  33.447  11.055
38004W        W99667  35.456  25.525   3.663
38005W        W99668  41.850  13.651   3.695
38006W        W99669  32.040  31.972  13.921
38007W        W99670  34.917  11.645   0.836
38008W        W99671  33.026  26.671   2.402
38009W        W99672  37.856  26.703  12.392
38010W        W99673  24.188  17.163   1.824
38011W        W99674  41.851  17.192  13.959
38012W        W99675  14.788  25.621  11.384
38013W        W99676  11.171  11.322  11.425
38014W        W99677  38.397  39.886   1.766
38015W        W99678  20.238  31.993   4.220
38016W        W99679  30.102  36.875  14.984
38017W        W99680  39.908  11.263   4.606
38018W        W99681   9.157  31.618  14.353
38019W        W99682  12.682   1.832   2.772
38020W        W99683  31.119  22.662  13.381
38021W        W99684  22.171  27.020  10.584
38022W        W99685   1.453  20.660  11.998
38023W        W99686  13.820  28.933  14.924
38024W        W99687  14.270  30.076   2.318
38025W        W99688  35.359  33.039  14.316
38026W        W99689  44.913  19.173  13.049
38027W        W99690   2.908  24.719   2.722
38028W        W99691  15.214   1.355   2.187
38029W        W99692  26.991  25.180   2.210
38030W        W99693  10.835  40.007   2.246
38031W        W99694  40.384  38.463   4.172
38032W        W99695   5.704  25.620  13.418
38033W        W99696  33.424  42.452  13.002
38034W        W99697  36.984  22.099  12.893
38035W        W99698  23.530   6.802   5.296
38036W        W99699  32.471  22.559  13.921
38037W        W99700  29.046  31.053   4.327
38038W        W99701  40.345  10.240  14.853
38039W        W99702  27.551   1.304  10.903
38040W        W99703  26.642  20.159  11.999
38041W        W99704  16.642  16.125  12.406
38042W        W99705  17.560  37.083   4.687
38043W        W99706   8.714  34.089   0.434
38044W        W99707   3.814   0.294   4.791
38045W        W99708  35.937  39.862   0.296
38046W        W99709  15.321  15.663   1.350
38047W        W99710  44.474  26.505  10.130
38048W        W99711   4.740   0.868   0.930
38049W        W99712  35.957  10.178  11.098
38050W        W99713   4.798  38.051   4.807
38051W        W99714  34.526  44.420  11.579
38052W        W99715   7.855  40.374  12.894
38053W        W99716   2.401  14.235   2.331
38054W        W99717  20.659   7.892  13.818
38055W        W99718  43.894  44.778  10.921
38056W        W99719  36.066   2.386   2.724
38057W        W99720  35.482  19.535  14.911
38058W        W99721   5.829  21.065   4.331
38059W        W99722  10.694  38.016   0.942
38060W        W99723   1.853  42.970  11.065
38061W        W99724   0.957  20.203   4.199
38062W        W99725  44.362  33.908   3.363
38063W        W99726  36.533  13.753   3.323
38064W        W99727  25.536   5.804  13.993
38065W        W99728  44.330  24.055   1.808
38066W        W99729  33.993  44.961   4.756
38067W        W99730  15.587  26.656  10.974
38068W        W99731  26.582  41.887   2.860
38069W        W99732   2.359  20.533  10.470
38070W        W99733  15.084  12.132  11.037
38071W        W99734   0.409   9.866   2.384
38072W        W99735  44.346  24.513   1.315
38073W        W99736  42.024  28.112   4.641
38074W        W99737  37.444  15.201   3.705
38075W        W99738  16.771   9.254  12.408
38076W        W99739  17.093  18.588   4.229
38077W        W99740  12.217  22.577  13.432
38078W        W99741  12.130  27.684   0.346
38079W        W99742  25.697  12.222   0.466
38080W        W99743  45.000   8.315  12.368
38081W        W99744   0.800  35.416  10.492
38082W        W99745  13.736   3.445  14.446
38083W        W99746  14.614  42.027  14.417
38084W        W99747   0.482   8.321  14.856
38085W        W99748   5.791   9.881  12.481
38086W        W99749  27.680   5.786  12.073
38087W        W99750  11.859  24.610   4.704
38088W        W99751  36.948  28.127   3.232
38089W        W99752  33.069  38.984  10.937
38090W        W99753  41.425  11.312  12.951
38091W        W99754  27.476  11.361  12.353
38092W        W99755  14.294   5.709  10.589
38093W        W99756  36.941   8.384  10.406
38094W        W99757  14.774   5.335  10.410
38095W        W99758   8.341  12.818  13.511
38096W        W99759   8.340  33.939   0.387
38097W        W99760  29.574   4.391   1.759
38098W        W99761  24.986  15.148  11.007
38099W        W99762  14.623  35.889  14.838
38100W        W99763  17.246   1.438   0.449
38101W        W99764  43.364  39.549   1.802
38102W        W99765  38.846  44.388   5.108
38103W        W99766  38.843  24.162  14.007
38104W        W99767   7.390  30.525   2.370
38105W        W99768   6.202  28.049  10.635
38106W        W99769   4.232   6.258  13.899
38107W        W99770  40.529  33.065  12.414
38108W        W99771  23.650   4.850   3.305
38109W        W99772  36.024   0.423  13.353
38110W        W99773  43.807  32.608  10.941
38111W        W99774   5.881   1.397   1.709
38112W        W99775   2.227   1.422  14.874
38113W        W99776   0.805  17.769  14.849
38114W        W99777   8.399  30.053   2.766
38115W        W99778   5.791  16.104   3.701
38116W        W99779  33.879  43.466  11.523
38117W        W99780   5.343   7.877  14.383
38118W        W99781  41.390  42.998   5.262
38119W        W99782  10.716  11.675   5.286
38120W        W99783  20.741  18.287  11.971
38121W        W99784  20.719  39.930   4.129
38122W        W99785  26.120  14.803  14.430
38123W        W99786  31.435  17.257   2.270
38124W        W99787  25.520  38.501   1.447
38125W        W99788  23.626  22.209   2.389
38126W        W99789  36.496  27.564  11.415
38127W        W99790  40.971   6.882  14.801
38128W        W99791  39.036  29.468   2.856
38129W        W99792  29.583  36.026  14.377
38130W        W99793   9.379  16.307  13.342
38131W        W99794  11.808  39.540  12.018
38132W        W99795  24.149   7.674  12.469
38133W        W99796  33.403  32.559  10.496
38134W        W99797  20.566   3.288   3.300
38135W        W99798  19.780  21.754  10.461
38136W        W99799  23.118  30.563   4.343
38137W        W99800   3.727  28.650   3.284
38138W        W99801  18.698  21.138   4.290
38139W        W99802  12.181  38.558  14.442
38140W        W99803  17.721  34.972  13.902
38141W        W99804  28.578  32.060   4.267
38142W        W99805  40.481  40.525   2.390
38143W        W99806  40.878  29.015   2.860
38144W        W99807  16.594   6.427  10.891
38145W        W99808  23.148  32.595  12.874
38146W        W99809  11.241  17.148   1.711
38147W        W99810  12.290  33.039  14.791
38148W        W99811   1.445   4.409   0.836
38149W        W99812  41.043  20.594   0.302
38150W        W99813  29.648  28.637  12.439
38151W        W99814  41.984  13.825   1.900
38152W        W99815   0.842  31.502   4.774
38153W        W99816   3.749   0.757  12.865
38154W        W99817   0.331  33.107  10.940
38155W        W99818   8.296  26.115  11.871
38156W        W99819  10.182  43.827  13.989
38157W        W99820   0.273  31.137   4.607
38158W        W99821  38.931   6.846   2.397
38159W        W99822  30.483  30.119   0.927
38160W        W99823   2.788   9.838   1.347
38161W        W99824  42.905  25.164  12.969
38162W        W99825   1.888  33.963   3.675
38163W        W99826  25.139  14.240   3.781
38164W        W99827  44.889   3.424  12.847
38165W        W99828   4.848   0.762   1.697
38166W        W99829  44.841   6.680   4.311
38167W        W99830  16.801   0.304   0.396
38168W        W99831  43.776  25.607   3.262
38169W        W99832  26.960  26.045  10.089
38170W        W99833  30.581  33.041   4.224
38171W        W99834  15.130   3.219   3.233
38172W        W99835  31.133  11.804  12.550
38173W        W99836  44.428   9.291   3.183
38174W        W99837  23.685  23.077  12.424
38175W        W99838   6.197  15.288  11.875
38176W        W99839  19.778  37.069   2.749
38177W        W99840  31.003  21.199   1.892
38178W        W99841  12.687  44.895   0.727
38179W        W99842  16.266  40.855   3.643
38180W        W99843  12.816  28.002  11.926
38181W        W99844  41.436  20.038  14.484
38182W        W99845  31.460   9.864   0.253
38183W        W99846   8.689   5.715  12.496
38184W        W99847  38.439  41.483   2.734
38185W        W99848  36.841   5.227  13.318
38186W        W99849  44.329  18.253   1.243
38187W        W99850   9.261  35.540  14.843
38188W        W99851  19.710  27.095  13.411
38189W        W99852  36.368  17.609  10.527
38190W        W99853  42.861  40.526   5.111
38191W        W99854  35.078  34.979  13.876
38192W        W99855  19.774   8.364   0.843
38193W        W99856   0.918  14.777   4.220
38194W        W99857  10.781  38.504   4.341
38195W        W99858   6.252  23.102  13.810
38196W        W99859  35.874  16.189  12.524
38197W        W99860   1.341  20.565  14.354
38198W        W99861   7.894  19.090  14.786
38199W        W99862  36.003  17.689   1.934
38200W        W99863   8.802  13.129   1.247
38201W        W99864  26.661  40.862  11.881
38202W        W99865  15.274  17.276   3.799
38203W        W99866  11.695   0.248  14.458
38204W        W99867  26.626  23.016   4.196
38205W        W99868   9.214  16.599   2.778
38206W        W99869  13.606  38.393  13.319
38207W        W99870  14.150  20.523  14.504
38208W        W99871  26.560  20.054   0.461
38209W        W99872  14.794  18.134   5.145
38210W        W99873  32.436   3.732  13.545
38211W        W99874   0.976  12.709  10.433
38212W        W99875  42.900  44.360   0.874
38213W        W99876  17.638   8.177   3.160
38214W        W99877  38.445  22.611   1.902
38215W        W99878  36.899  17.134   4.320
38216W        W99879  27.579  30.466   0.399
38217W        W99880  31.922  43.923  13.314
38218W        W99881  41.912  41.843   5.164
38219W        W99882  42.462  34.949  11.429
38220W        W99883  38.374  27.948   1.694
38221W        W99884  27.668  38.491  10.492
38222W        W99885  31.054  33.588  11.597
38223W        W99886   7.300  30.967   4.685
38224W        W99887  11.143   4.292   2.214
38225W        W99888   5.435  44.341   9.943
38226W        W99889  17.629   0.750  12.531
38227W        W99890  35.395  36.436  13.888
38228W        W99891  43.857   0.348  12.854
38229W        W99892  29.506   6.185  11.031
38230W        W99893  31.958   7.680   2.381
38231W        W99894  12.791  23.734  11.972
38232W        W99895  28.082  43.443   1.750
38233W        W99896  10.832  31.469   2.358
38234W        W99897  14.192  31.424  14.031
38235W        W99898   9.262   2.963  10.423
38236W        W99899  34.418  23.143  10.895
38237W        W99900  37.076   3.776   0.856
38238W        W99901   3.225  10.666  11.449
38239W        W99902  34.911  17.771   0.919
38240W        W99903  25.714  13.803   4.313
38241W        W99904  37.069  30.117   3.710
38242W        W99905   7.681  18.733  10.907
38243W        W99906   8.657  24.043   4.751
38244W        W99907   6.390  26.545  13.920
38245W        W99908  32.585   0.973  13.800
38246W        W99909  16.752  29.071  10.413
38247W        W99910  14.198  31.441  14.988
38248W        W99911  39.474  33.416  13.994
38249W        W99912   4.738   4.756   2.416
38250W        W99913  26.495  25.990  12.093
38251W        W99914   3.332  35.525  14.765
38252W        W99915  34.046  32.534  10.640
38253W        W99916  34.895  32.402  13.868
38254W        W99917  27.651  42.367  14.926
38255W        W99918  20.197  28.089   4.601
38256W        W99919  27.009  40.008  14.293
38257W        W99920  31.622  27.000   3.758
38258W        W99921  24.114   7.672   5.173
38259W        W99922  10.357   5.413   0.246
38260W        W99923   2.868  28.156  10.462
38261W        W99924  44.991   1.414  12.934
38262W        W99925   7.183  40.374   1.328
38263W        W99926  36.410   6.365  10.479
38264W        W99927  12.357   4.280  14.308
38265W        W99928  32.600   4.705   0.399
38266W        W99929  43.016  19.681  11.500
38267W        W99930  12.784   1.325   3.194
38268W        W99931  33.052  13.826   0.920
38269W        W99932  30.504  34.520  10.599
38270W        W99933  42.411   1.740  11.573
38271W        W99934  31.501   3.815  13.354
38272W        W99935  18.145   0.799  11.871
38273W        W99936  36.030  42.832  14.024
38274W        W99937  37.917  20.135   1.867
38275W        W99938  39.441  36.569   4.301
38276W        W99939  17.173  12.338  11.921
38277W        W99940   5.868   6.679   4.625
38278W        W99941  15.090  16.168  12.350
38279W        W99942  17.250  22.231   0.911
38280W        W99943  26.519  39.978  11.106
38281W        W99944  44.877  38.470  14.782
38282W        W99945  17.061  31.479   1.886
38283W        W99946   0.897  41.881  13.321
38284W        W99947  18.170  32.925  10.980
38285W        W99948   5.283  25.512  14.971
38286W        W99949  39.965   1.331  14.431
38287W        W99950  22.588  37.031  11.125
38288W        W99951  31.133  18.097  11.021
38289W        W99952   1.457  30.989   4.635
38290W        W99953  30.015  42.419   4.787
38291W        W99954  41.324   6.370   4.231
38292W        W99955  33.507  34.381  12.836
38293W        W99956  14.615  36.939  14.794
38294W        W99957  10.169  15.740   3.163
38295W        W99958   4.346  42.983   2.378
38296W        W99959   1.318  17.072  13.875
38297W        W99960  33.045  14.699  10.517
38298W        W99961   2.287  24.980  13.969
38299W        W99962  20.741  33.469   0.881
38300W        W99963  24.079  10.326  12.505
38301W        W99964   1.386  33.128   4.694
38302W        W99965   0.434   2.369  14.450
38303W        W99966   2.846  20.621   2.345
38304W        W99967   8.203   7.723   5.146
38305W        W99968  34.588  16.302   2.209
38306W        W99969  38.504  33.113   0.411
38307W        W99970  24.985  36.050   4.759
38308W        W99971  35.047  41.974  11.563
38309W        W99972   3.302   6.248   0.401
38310W        W99973   8.871  39.058  12.371
38311W        W99974  11.360   3.335  14.358
38312W        W99975  10.670  31.926  14.400
38313W        W99976  32.585  17.732   3.281
38314W        W99977   4.448  17.774   3.156
38315W        W99978  20.219   5.730  12.545
38316W        W99979  18.696  19.184  13.943
38317W        W99980  18.559  15.818   4.640
38318W        W99981  13.817  14.156  11.424
38319W        W99982  12.345   9.884   0.292
38320W        W99983  38.414  36.003   2.683
38321W        W99984  41.905  24.019  12.504
38322W        W99985  28.070  11.163   4.647
38323W        W99986  17.676  44.005   3.791
38324W        W99987  37.379   3.298   0.772
38325W        W99988   5.376  43.816  12.088
38326W        W99989  44.906  29.597  12.360
38327W        W99990   7.826  42.433  12.993
38328W        W99991  33.491  23.184  11.065
38329W        W99992  26.134  20.655  12.381
38330W        W99993  10.367   1.394   4.628
38331W        W99994  24.547  43.439  10.612
38332W        W99995   5.330  26.996  11.469
38333W        W99996  36.400  28.660   3.177
38334W        W99997   6.904  37.463  13.011
38335W        W99998   9.339   0.823   0.365
38336W        W99999  39.515  31.599  14.892
38337W        W    0  19.695  23.996   1.238
38338W        W    1  38.913   6.239  12.003
38339W        W    2  42.304  18.131   1.244
38340W        W    3  33.466  11.739   0.764
38341W        W    4  43.298  14.611   9.599
38342W        W    5  35.887  21.713   4.254
38343W        W    6  30.477  42.001  12.042
38344W        W    7  32.023  21.131   0.860
38345W        W    8  37.578   3.283   0.390
38346W        W    9   0.489   5.779  13.857
38347W        W   10  20.692  22.515  14.372
38348W        W   11   7.341  28.088   4.643
38349W        W   12  32.526  15.083   1.757
38350W        W   13  34.924  22.596  12.347
38351W        W   14  13.835  13.274   0.383
38352W        W   15  11.179  11.220   3.640
38353W        W   16  33.559  39.952  10.916
38354W        W   17   2.816  34.056  10.953
38355W        W   18  30.164  29.076   2.804
38356W        W   19  30.644   2.913   3.630
38357W        W   20  20.057   2.451   4.689
38358W        W   21  15.322  36.075   4.181
38359W        W   22   7.703  38.981  10.083
38360W        W   23  39.891  35.541  12.047
38361W        W   24  21.568  33.460  12.896
38362W        W   25   8.395  35.379  13.874
38363W        W   26  11.795   8.403  14.476
38364W        W   27  14.744   7.692   1.865
38365W        W   28  39.417   2.378   4.144
38366W        W   29  14.189   4.433   4.691
38367W        W   30  43.440   9.753   1.888
38368W        W   31   0.780  33.382   0.803
38369W        W   32   3.377   1.790   2.858
38370W        W   33   5.293  23.626   4.788
38371W        W   34  23.041  11.203  10.624
38372W        W   35  24.154   6.767   1.221
38373W        W   36  39.945  23.990  13.489
38374W        W   37   5.703  10.678  14.418
38375W        W   38  35.449   2.358  12.915
38376W        W   39  31.430  12.208  13.542
38377W        W   40   7.278  26.078  12.863
38378W        W   41  42.992   0.901   4.276
38379W        W   42  24.670   3.223  12.355
38380W        W   43   3.330  36.424  14.291
38381W        W   44  29.658   8.308  13.392
38382W        W   45  29.048   8.719  12.405
38383W        W   46  37.346   5.705  12.887
38384W        W   47  37.569  34.411   4.120
38385W        W   48   7.193   5.355   2.272
38386W        W   49  11.361   6.322   2.852
38387W        W   50  32.981   9.684   4.598
38388W        W   51  19.581  33.993   3.223
38389W        W   52  13.233  13.225   3.343
38390W        W   53  11.702  23.224   1.750
38391W        W   54  38.840  17.261   3.210
38392W        W   55   2.423  15.768  13.916
38393W        W   56   7.272  19.560   2.320
38394W        W   57  24.493  37.498   2.891
38395W        W   58  31.900  31.625   1.821
38396W        W   59   4.407  24.709   0.402
38397W        W   60  28.936  22.707   0.853
38398W        W   61  20.075  44.868  12.537
38399W        W   62  12.162  36.858   3.645
38400W        W   63  43.881  44.461  14.775
38401W        W   64  38.984  33.440   3.359
38402W        W   65  44.863  25.655  12.516
38403W        W   66  17.125  15.293  14.831
38404W        W   67   3.871  12.362   0.468
38405W        W   68  36.876  15.118  11.941
38406W        W   69  17.101   5.350   2.810
38407W        W   70  13.650  40.053  12.844
38408W        W   71  19.583  25.022  12.553
38409W        W   72   0.336  43.482   4.821
38410W        W   73  19.092   9.773   1.242
38411W        W   74   5.878  41.388  13.903
38412W        W   75  32.996  16.786   1.287
38413W        W   76  11.851   3.439   0.860
38414W        W   77   2.361  36.026  14.327
38415W        W   78  42.464  15.093  14.333
38416W        W   79  17.297  15.649   9.508
38417W        W   80  39.317   5.880  14.845
38418W        W   81  16.700  19.189  11.505
38419W        W   82  10.195  25.013  11.023
38420W        W   83  14.117  30.082  12.070
38421W        W   84  17.234  10.633   4.602
38422W        W   85  28.002  32.030  11.944
38423W        W   86  26.990  10.310   3.649
38424W        W   87  35.364  17.124  10.940
38425W        W   88  37.474  43.889   2.834
38426W        W   89  21.161  41.844  11.897
38427W        W   90  18.138  42.431   4.238
38428W        W   91   9.330  23.122   0.482
38429W        W   92  43.949  31.615   1.388
38430W        W   93  24.146   0.825   2.870
38431W        W   94  44.914  18.582  12.834
38432W        W   95  37.009  12.693   4.624
38433W        W   96  32.126  38.542  13.809
38434W        W   97  22.554  20.056   3.693
38435W        W   98  27.189  33.491  12.374
38436W        W   99  30.918  13.169  13.950
38437W        W  100  10.801   3.387   4.171
38438W        W  101  41.015   5.884  12.463
38439W        W  102  30.152  19.190   1.335
38440W        W  103   5.703  34.409   1.899
38441W        W  104  21.028  16.725   4.747
38442W        W  105  10.352  42.886   0.765
38443W        W  106   6.392  39.937  11.050
38444W        W  107  29.510  34.429  12.945
38445W        W  108   6.235  37.026  11.943
38446W        W  109   3.811  32.132   0.764
38447W        W  110  14.187   9.227   4.639
38448W        W  111  30.456  30.083   3.190
38449W        W  112  13.820  25.001  10.640
38450W        W  113  28.055  18.108  13.900
38451W        W  114  36.032   2.386  13.821
38452W        W  115  30.512  43.992  13.444
38453W        W  116  15.797   0.894  14.514
38454W        W  117  36.464  37.001  10.550
38455W        W  118  30.595   2.857  12.498
38456W        W  119  15.170   8.862  11.052
38457W        W  120  27.986   4.852   5.168
38458W        W  121  41.376  24.574  14.482
38459W        W  122  31.617  14.095  13.466
38460W        W  123  32.090  12.656   0.423
38461W        W  124  11.133  31.104  12.845
38462W        W  125  12.627   4.304   4.644
38463W        W  126   9.271  25.198  13.047
38464W        W  127  21.140   4.210   3.259
38465W        W  128  22.185  42.464   0.735
38466W        W  129  11.231  10.348   2.308
38467W        W  130  18.554  12.274  10.017
38468W        W  131   5.431  32.480   0.286
38469W        W  132   6.723  31.114   1.296
38470W        W  133  27.492  20.169   2.243
38471W        W  134  29.628  29.468   4.273
38472W        W  135   3.440  23.604   0.891
38473W        W  136   4.341  28.482  14.817
38474W        W  137  15.161   2.446   2.279
38475W        W  138   0.337  17.625  13.530
38476W        W  139  21.522  20.566   1.404
38477W        W  140  25.077  37.519   2.884
38478W        W  141  21.194  43.516   0.843
38479W        W  142  37.032  11.232  10.923
38480W        W  143  23.657  10.230  12.966
38481W        W  144   7.416  15.244  12.931
38482W        W  145  23.624   7.786   2.228
38483W        W  146  28.643  39.960  13.333
38484W        W  147  33.112  21.598   4.707
38485W        W  148  40.008  39.364  10.478
38486W        W  149  15.139   1.859  13.855
38487W        W  150  41.941  29.064  12.449
38488W        W  151  44.351  34.495   3.680
38489W        W  152   9.831  35.358  14.339
38490W        W  153  42.433   1.338  13.383
38491W        W  154  37.464   3.322   2.327
38492W        W  155   1.809   3.340  11.547
38493W        W  156  22.150  26.670  10.424
38494W        W  157  21.710  19.189  14.286
38495W        W  158  43.436  17.742  12.410
38496W        W  159  13.689  33.588   0.874
38497W        W  160  38.072  17.567   1.897
38498W        W  161  17.102  34.988   3.194
38499W        W  162  30.578  18.079  10.999
38500W        W  163  11.788  19.690   3.785
38501W        W  164  28.166  44.398   9.953
38502W        W  165  15.223  41.793  14.817
38503W        W  166   9.833  30.953  13.811
38504W        W  167  35.435  13.263   0.246
38505W        W  168  33.562  29.955  10.959
38506W        W  169   5.320  39.874  11.942
38507W        W  170   4.711  36.495  11.580
38508W        W  171   2.308  15.737   3.238
38509W        W  172  38.828  40.019   2.289
38510W        W  173  11.854   8.275   2.190
38511W        W  174  36.950  17.086  12.350
38512W        W  175  24.545  36.926   1.875
38513W        W  176   9.298   8.858   1.857
38514W        W  177  34.086  39.852  11.593
38515W        W  178  44.780  31.472   3.862
38516W        W  179  18.612  27.140  10.433
38517W        W  180  41.489  35.032   1.270
38518W        W  181   0.900  10.184  11.497
38519W        W  182  17.098  18.725  14.277
38520W        W  183  39.971  37.463  14.373
38521W        W  184  39.400  39.459  10.577
38522W        W  185  28.436  32.564  11.032
38523W        W  186  32.002  42.415  14.986
38524W        W  187  19.598   6.384  13.467
38525W        W  188  39.518  38.527  10.961
38526W        W  189   2.720   9.194  12.352
38527W        W  190  15.315  10.749  14.986
38528W        W  191  29.124   2.345  13.543
38529W        W  192   0.857   4.226  10.440
38530W        W  193  25.679   2.265   3.263
38531W        W  194   7.254  15.740  13.878
38532W        W  195  29.067  25.076  14.398
38533W        W  196  37.882  33.605   3.250
38534W        W  197  24.088  16.112  13.399
38535W        W  198  36.452   8.672   0.947
38536W        W  199   8.243  38.527  13.503
38537W        W  200  12.278  28.524   2.680
38538W        W  201   7.708  24.672  11.412
38539W        W  202  43.974  42.484  10.992
38540W        W  203  18.187  12.614  13.383
38541W        W  204  14.696  28.680  13.858
38542W        W  205  39.348  35.493   3.871
38543W        W  206   7.322  15.185  14.375
38544W        W  207  33.036  23.036   0.790
38545W        W  208  35.953   0.968   1.869
38546W        W  209  18.718   3.736   3.244
38547W        W  210  40.508  27.097   1.253
38548W        W  211  29.048  30.972  12.859
38549W        W  212   0.807  37.365   5.296
38550W        W  213   7.739  40.891   1.739
38551W        W  214  36.535  24.148  11.083
38552W        W  215  28.065  17.711  10.431
38553W        W  216  26.685   8.719   3.270
38554W        W  217  42.804  39.457  12.874
38555W        W  218  29.437   0.378  14.386
38556W        W  219  38.354  13.320   4.758
38557W        W  220  23.554  15.726   2.795
38558W        W  221  12.263  18.728  13.529
38559W        W  222  43.360  15.807   4.313
38560W        W  223  15.593   6.237  14.759
38561W        W  224  36.954   9.868   1.397
38562W        W  225   8.870  38.859  13.377
38563W        W  226  20.697  31.634   2.316
38564W        W  227  38.378  22.604   2.863
38565W        W  228  22.693  23.181   1.315
38566W        W  229  35.968  28.469  14.368
38567W        W  230  28.569  13.239  10.935
38568W        W  231  14.263  34.529   3.276
38569W        W  232  11.305  14.632  11.454
38570W        W  233  29.661  18.142   2.897
38571W        W  234   9.772  31.442   2.288
38572W        W  235  19.687  29.644   0.340
38573W        W  236  12.768  19.273   3.335
38574W        W  237  17.787  29.541  11.419
38575W        W  238   7.667  42.503   2.821
38576W        W  239   9.196  13.161   0.788
38577W        W  240  40.438   4.437  14.932
38578W        W  241   7.910  26.491   2.824
38579W        W  242   8.402  15.607  13.860
38580W        W  243  29.507  38.373   3.665
38581W        W  244  36.917  43.426   1.307
38582W        W  245  32.975  27.650  14.351
38583W        W  246  44.993  27.952   2.301
38584W        W  247  15.667   2.471  12.963
38585W        W  248  17.561  19.703   3.632
38586W        W  249  20.625  32.070   1.842
38587W        W  250  24.195   8.669  14.291
38588W        W  251   6.763  37.871   4.784
38589W        W  252  30.523  36.928   0.472
38590W        W  253   8.864   0.932   0.282
38591W        W  254  29.475  32.437   4.295
38592W        W  255   2.791  21.109  10.631
38593W        W  256  43.846  31.636  11.608
38594W        W  257   4.341  31.561  10.596
38595W        W  258  42.352  20.123  13.469
38596W        W  259  32.130   1.903   4.687
38597W        W  260  40.404  37.518  10.636
38598W        W  261  24.713  25.152  14.381
38599W        W  262   1.790  20.566  12.896
38600W        W  263  39.493  33.032   2.803
38601W        W  264  41.876  29.946   3.645
38602W        W  265  11.717  13.334   5.225
38603W        W  266  39.870   9.299   9.923
38604W        W  267   1.482  17.580  14.849
38605W        W  268  17.580   0.917  13.495
38606W        W  269   8.809  34.884  12.833
38607W        W  270  18.162  36.074  12.541
38608W        W  271  24.041  16.809  12.968
38609W        W  272   0.312  42.411  11.427
38610W        W  273  30.489  40.914  14.804
38611W        W  274  15.687  31.483   4.299
38612W        W  275  26.459  23.178  10.440
38613W        W  276  39.986  21.608   3.656
38614W        W  277  35.024  36.081   3.721
38615W        W  278   3.864  35.073  12.416
38616W        W  279  24.979  23.120  11.402
38617W        W  280  35.436  17.210  11.512
38618W        W  281  11.727  37.022   4.277
38619W        W  282  22.720  38.829  11.567
38620W        W  283  17.238  31.898  12.957
38621W        W  284  37.972   7.853  12.393
38622W        W  285  25.657  29.063  14.472
38623W        W  286   7.679  28.159  10.125
38624W        W  287  31.439  17.172   3.364
38625W        W  288  20.119  23.696  10.632
38626W        W  289  41.906  42.895  10.010
38627W        W  290  26.208  36.551  12.551
38628W        W  291  30.106  19.249   3.722
38629W        W  292  38.069  26.480   9.924
38630W        W  293   6.423  25.067   2.738
38631W        W  294  40.437   1.925   9.922
38632W        W  295  42.911  16.744   0.757
38633W        W  296  26.691  29.515   1.863
38634W        W  297  12.644  25.585  13.003
38635W        W  298  15.806   5.351  11.128
38636W        W  299  20.716  41.508   1.318
38637W        W  300  29.587  19.737   2.900
38638W        W  301   8.370  41.330  13.414
38639W        W  302  18.231  18.147   3.275
38640W        W  303  14.109   5.277   2.762
38641W        W  304  17.244  12.787   3.209
38642W        W  305   7.900  44.792  10.927
38643W        W  306   7.816  42.484   0.907
38644W        W  307  36.391  15.270   0.301
38645W        W  308  26.560  21.705   3.247
38646W        W  309   5.402   6.332   4.678
38647W        W  310  10.275   2.436   3.178
38648W        W  311  43.007   6.338  14.867
38649W        W  312  19.546   4.805   0.796
38650W        W  313  18.597  38.365   4.665
38651W        W  314  29.426  44.860   1.259
38652W        W  315  30.541  42.409  12.042
38653W        W  316  14.756  42.524  10.406
38654W        W  317  22.234  15.160   2.817
38655W        W  318  10.851  32.969   1.795
38656W        W  319  32.090  21.537  12.402
38657W        W  320   4.224  31.521   1.869
38658W        W  321  18.204  27.465  13.963
38659W        W  322   6.721  12.641   2.183
38660W        W  323  41.929   2.450   2.785
38661W        W  324  19.140  33.880  11.920
38662W        W  325  27.683  10.859   3.347
38663W        W  326  14.307  26.115  11.554
38664W        W  327  12.277  10.343   2.187
38665W        W  328  39.393  36.011  13.533
38666W        W  329  31.909  20.183  11.541
38667W        W  330   7.841  22.669   3.225
38668W        W  331   7.911  44.502  12.418
38669W        W  332  31.632  22.237   1.865
38670W        W  333  33.113  17.275  14.960
38671W        W  334  33.402   1.750  10.442
38672W        W  335  13.721  18.152  14.828
38673W        W  336  16.569  43.299   0.892
38674W        W  337  30.433  17.632  12.057
38675W        W  338  40.533  26.592  12.905
38676W        W  339   0.786   0.461  12.843
38677W        W  340  24.197  42.851  10.570
38678W        W  341  19.182  10.187   4.660
38679W        W  342  10.190  38.903   2.814
38680W        W  343   6.230  33.490  12.834
38681W        W  344  22.513  12.720  12.891
38682W        W  345  15.199   3.782  13.813
38683W        W  346  30.921  37.537  10.608
38684W        W  347  13.341  13.272  13.925
38685W        W  348  36.444  20.073   2.220
38686W        W  349  44.778  14.233  12.443
38687W        W  350   2.770   9.315  10.975
38688W        W  351   4.924  37.498  10.419
38689W        W  352  39.859  24.523   4.242
38690W        W  353   2.755  16.253  11.375
38691W        W  354   8.842   1.351   3.691
38692W        W  355  14.810  43.283   4.706
38693W        W  356  23.708  38.363   1.700
38694W        W  357   1.441  44.824  11.903
38695W        W  358  34.985  39.406   4.155
38696W        W  359  41.474  29.949  13.523
38697W        W  360  43.500  44.963  10.975
38698W        W  361  42.339  29.127   1.758
38699W        W  362  17.241   0.939   2.312
38700W        W  363  39.043  29.086  12.844
38701W        W  364  23.070   2.916  13.021
38702W        W  365  20.064   1.303   4.755
38703W        W  366  43.299  38.901  10.464
38704W        W  367  10.311   1.752   4.136
38705W        W  368  29.163  32.083   2.386
38706W        W  369  39.467  42.823  14.775
38707W        W  370  33.890  44.497  11.038
38708W        W  371  22.154  33.944   4.124
38709W        W  372   7.234  36.354  12.939
38710W        W  373   0.297  44.329   2.378
38711W        W  374  26.679  20.262   2.699
38712W        W  375  30.509  41.512  12.876
38713W        W  376  18.733  42.343  13.355
38714W        W  377  10.820  31.972  10.613
38715W        W  378   2.276  17.187  14.328
38716W        W  379   2.270  24.206  11.927
38717W        W  380  28.665  24.678   1.739
38718W        W  381   5.316  25.632  10.587
38719W        W  382   9.734  14.229  13.965
38720W        W  383  28.953  20.233  13.446
38721W        W  384   5.200  25.073  12.412
38722W        W  385   3.456  33.617  13.890
38723W        W  386  14.102  37.567   2.402
38724W        W  387  36.530  15.798   4.602
38725W        W  388  16.681  22.101   2.322
38726W        W  389  36.504  42.483  13.935
38727W        W  390  39.548  26.576  14.015
38728W        W  391   3.720  42.350  13.956
38729W        W  392  38.044   7.369  12.513
38730W        W  393  27.624  40.392   3.845
38731W        W  394  29.480   1.969  11.423
38732W        W  395  38.863  33.381  12.989
38733W        W  396  27.458  44.858   0.326
38734W        W  397  38.856  44.804  10.484
38735W        W  398   6.298   2.228  12.573
38736W        W  399   2.309  14.245   1.424
38737W        W  400  44.333  35.543   0.734
38738W        W  401  34.999  27.588   2.753
38739W        W  402  33.593  25.216   3.369
38740W        W  403  24.165  19.252   4.312
38741W        W  404  35.896  18.673  14.788
38742W        W  405   9.363   0.337   2.879
38743W        W  406  38.962  16.683   1.267
38744W        W  407  13.749  16.647  10.404
38745W        W  408   0.327   9.240   0.268
38746W        W  409  43.819   2.315  14.492
38747W        W  410  15.212  29.611  11.576
38748W        W  411   7.239   2.733  13.049
38749W        W  412  44.774  12.807  12.478
38750W        W  413  18.139  14.243  10.496
38751W        W  414  37.488  28.014   0.474
38752W        W  415  14.242  13.747   3.796
38753W        W  416  13.617  41.872  12.826
38754W        W  417   2.288  34.927   1.288
38755W        W  418  37.866  43.301   1.770
38756W        W  419   9.794   7.297  12.921
38757W        W  420  33.130  16.111  12.005
38758W        W  421  25.520  38.490  10.030
38759W        W  422  44.758  28.053   0.747
38760W        W  423  20.212  22.165   4.770
38761W        W  424  33.504  40.803  12.075
38762W        W  425  23.143  30.049   0.808
38763W        W  426  38.344  18.682   1.428
38764W        W  427  33.559  11.254  10.071
38765W        W  428  20.655   8.860   1.847
38766W        W  429  43.416  33.999   2.771
38767W        W  430  30.638  39.039  13.525
38768W        W  431  44.768   9.761  12.357
38769W        W  432  29.032  18.118  13.859
38770W        W  433   5.359  38.340   0.468
38771W        W  434  13.658   6.892   0.881
38772W        W  435  40.844   9.703   0.936
38773W        W  436   0.270  34.881  12.968
38774W        W  437  31.534   8.260   0.400
38775W        W  438  39.471  38.036  11.558
38776W        W  439  41.351  23.584   0.844
38777W        W  440  34.495  33.933  12.084
38778W        W  441  21.078  20.569  14.381
38779W        W  442  43.375  16.597  12.360
38780W        W  443  43.323  15.624   2.329
38781W        W  444   9.702  26.656  13.029
38782W        W  445  38.856   3.928   3.772
38783W        W  446   9.824  42.806  11.436
38784W        W  447  23.073   9.210  11.604
38785W        W  448  35.027  34.516  10.629
38786W        W  449  44.984   8.215  11.974
38787W        W  450  28.516  20.037  14.467
38788W        W  451   8.337  38.937  10.566
38789W        W  452   5.706  38.480  11.411
38790W        W  453  19.191  10.734   2.758
38791W        W  454   9.823  27.137   0.464
38792W        W  455  15.106   2.812  11.097
38793W        W  456   7.280  32.540  13.838
38794W        W  457  34.076  37.381  12.836
38795W        W  458   8.856   5.208  13.404
38796W        W  459  11.715   1.806  14.461
38797W        W  460  21.172  40.904   1.893
38798W        W  461  15.617   0.418   4.752
38799W        W  462   5.905   4.434  14.323
38800W        W  463  26.031  17.137  14.424
38801W        W  464  11.277  40.422   0.850
38802W        W  465  28.580  24.490  14.801
38803W        W  466  41.795   5.251  14.001
38804W        W  467   1.968  25.217   2.409
38805W        W  468   4.763  43.853  14.300
38806W        W  469  16.795  32.139   4.772
38807W        W  470   6.774   0.316  14.298
38808W        W  471  21.155   5.691  13.453
38809W        W  472  36.915   4.243   1.364
38810W        W  473  18.556  22.559  14.281
38811W        W  474  16.308   0.982  14.355
38812W        W  475  26.061  23.520  14.471
38813W        W  476  37.577  39.940  12.421
38814W        W  477  37.406   7.185   5.615
38815W        W  478   8.229  38.552   4.682
38816W        W  479  36.545  26.128   4.692
38817W        W  480   6.183   7.773   3.354
38818W        W  481  30.481  30.064   2.234
38819W        W  482  40.381  37.451  11.109
38820W        W  483  24.601  15.617  11.051
38821W        W  484   0.401  11.166  13.916
38822W        W  485  25.045  12.206   2.828
38823W        W  486  41.018  34.102  11.118
38824W        W  487  17.172  39.960   2.206
38825W        W  488  41.892  31.934   5.244
38826W        W  489  33.479  16.165   0.803
38827W        W  490  29.076  18.280  14.368
38828W        W  491  23.080  34.384  12.056
38829W        W  492  41.499  16.308   2.723
38830W        W  493  42.896   3.823  14.427
38831W        W  494  24.503  16.783   2.747
38832W        W  495   4.725  22.085   0.943
38833W        W  496  29.645  32.419  13.342
38834W        W  497  40.309  15.580  12.537
38835W        W  498   0.781  12.232   1.865
38836W        W  499  13.187  17.712   0.948
38837W        W  500  37.559  26.045  12.374
38838W        W  501  14.783  25.007   0.402
38839W        W  502   7.377   2.742  13.447
38840W        W  503  44.403  25.469   4.817
38841W        W  504   2.380  12.670  12.085
38842W        W  505   8.842  43.335  14.029
38843W        W  506  32.495  14.822  13.023
38844W        W  507  19.123  44.320  14.800
38845W        W  508  13.188  43.333   1.905
38846W        W  509  27.166  42.009   4.115
38847W        W  510  42.343   8.202   1.350
38848W        W  511  42.316  39.558  13.522
38849W        W  512  28.155   9.669   1.309
38850W        W  513  25.077  39.517  10.640
38851W        W  514   3.852  14.192   5.124
38852W        W  515  34.384   3.228   0.905
38853W        W  516  13.800  42.934   3.729
38854W        W  517  19.586  26.647   9.950
38855W        W  518   2.799  40.012   4.791
38856W        W  519  40.027  29.512   1.770
38857W        W  520   8.341  42.527   1.363
38858W        W  521  35.854  30.412  12.357
38859W        W  522  23.196   5.427   2.828
38860W        W  523  14.749  19.235  13.325
38861W        W  524  14.240   4.832   4.751
38862W        W  525  12.836  14.304  10.990
38863W        W  526  42.972   4.856   3.774
38864W        W  527  27.664  19.209   3.299
38865W        W  528  36.583  29.039   0.276
38866W        W  529  21.616  17.230  13.004
38867W        W  530   2.266   2.363   2.330
38868W        W  531  28.529  28.569   2.863
38869W        W  532  33.462  42.886   1.739
38870W        W  533  32.907  21.537  12.360
38871W        W  534  32.466  26.192  10.557
38872W        W  535  38.445  42.380   0.899
38873W        W  536   2.471  26.685   4.176
38874W        W  537   9.755   2.448  13.411
38875W        W  538  16.647  32.417  12.888
38876W        W  539  30.464  18.234  13.854
38877W        W  540  13.146  42.304   1.296
38878W        W  541   6.681  31.479  10.995
38879W        W  542  30.584  26.572   1.866
38880W        W  543  36.393  29.066  10.103
38881W        W  544  29.166  36.358   4.626
38882W        W  545  36.068  13.194  12.546
38883W        W  546  11.285  37.875   1.757
38884W        W  547  39.394  27.178  13.030
38885W        W  548  13.238  43.014   1.433
38886W        W  549  32.129  30.581   1.897
38887W        W  550  26.973  24.631  11.476
38888W        W  551  29.429   1.944  13.954
38889W        W  552   4.913  40.968  13.407
38890W        W  553  21.744  36.841   0.313
38891W        W  554  15.812  18.122  11.448
38892W        W  555  40.994  29.485   1.389
38893W        W  556   6.844  20.102  14.912
38894W        W  557  13.761   1.444   2.333
38895W        W  558   5.368  40.477   4.837
38896W        W  559  18.728  20.707   2.742
38897W        W  560   0.755  25.637  11.536
38898W        W  561   5.402  11.248  11.479
38899W        W  562  44.796  36.467  13.347
38900W        W  563  24.227  25.527  14.373
38901W        W  564  39.452   9.648   2.233
38902W        W  565  43.356  12.715  10.099
38903W        W  566  29.608  28.514  14.811
38904W        W  567  32.517  25.695  11.489
38905W        W  568   2.447  36.079   3.711
38906W        W  569  29.545  19.630  12.375
38907W        W  570  33.467  28.027   0.907
38908W        W  571   2.368  24.668   2.733
38909W        W  572  32.985  12.177   4.685
38910W        W  573   2.830  44.783   0.862
38911W        W  574  31.933   2.954  12.940
38912W        W  575   5.897   6.377   0.765
38913W        W  576   6.783   9.710   4.186
38914W        W  577  40.390   5.692   2.288
38915W        W  578  27.638  27.639   3.816
38916W        W  579  29.030  15.600   4.347
38917W        W  580  34.866   2.807  11.961
38918W        W  581  15.215  16.732   2.863
38919W        W  582  29.937  42.281  12.419
38920W        W  583  14.316   9.358  13.033
38921W        W  584  30.152  20.620  13.950
38922W        W  585  19.129   1.943   1.448
38923W        W  586  38.383   4.899  13.331
38924W        W  587  43.413  19.579  12.568
38925W        W  588   7.905  29.032   4.829
38926W        W  589   3.240  40.535  13.913
38927W        W  590  31.999  12.808  13.943
38928W        W  591  33.903  26.137  12.044
38929W        W  592  31.551   7.669  14.912
38930W        W  593  43.911  39.833   4.334
38931W        W  594  37.846  41.454   3.633
38932W        W  595  17.718   9.765  14.832
38933W        W  596  26.138  16.598   1.288
38934W        W  597  33.415  37.488   0.364
38935W        W  598   1.752  17.069  10.439
38936W        W  599  12.263  19.544  11.039
38937W        W  600  39.523  11.301   0.934
38938W        W  601  26.595  39.417   5.204
38939W        W  602  30.497  13.657  14.485
38940W        W  603  26.695  18.209  12.052
38941W        W  604  24.722   4.789  13.894
38942W        W  605  11.160  22.544  13.930
38943W        W  606  36.372  34.472  13.039
38944W        W  607  38.372  13.723   3.691
38945W        W  608  30.462  10.844   2.398
38946W        W  609   9.195  44.880  11.906
38947W        W  610  14.150  25.063   2.405
38948W        W  611   0.385   8.305  13.945
38949W        W  612  19.685  10.308  12.922
38950W        W  613  10.142  11.714   2.377
38951W        W  614  26.596   0.904   3.714
38952W        W  615  41.795   1.280   2.219
38953W        W  616  27.027  26.034  10.643
38954W        W  617  44.994  44.271  12.919
38955W        W  618  40.815  15.098  10.995
38956W        W  619  18.735   8.832  14.320
38957W        W  620   0.293  35.965  14.305
38958W        W  621  35.898  10.761   0.784
38959W        W  622  41.386  32.498  14.972
38960W        W  623  12.257  41.886  14.943
38961W        W  624  43.470  41.796  12.949
38962W        W  625  20.152  38.898  13.441
38963W        W  626  40.005  19.707   3.790
38964W        W  627  33.454   2.308   1.358
38965W        W  628   1.778  19.619   1.823
38966W        W  629   1.407  33.081  11.463
38967W        W  630  16.581  38.062   3.636
38968W        W  631  38.531  36.581   4.734
38969W        W  632  31.417   0.356  13.379
38970W        W  633  13.335  29.539   0.821
38971W        W  634  16.080  26.178  13.807
38972W        W  635  11.269  10.141   3.636
38973W        W  636  42.862  41.329   4.183
38974W        W  637  15.287  38.924   5.742
38975W        W  638   3.219  32.996  14.394
38976W        W  639  23.007  39.025   2.662
38977W        W  640  43.500  40.838   4.172
38978W        W  641  33.534  23.999   2.267
38979W        W  642   8.870  26.574   3.796
38980W        W  643  29.565  10.342   1.353
38981W        W  644   5.289  39.882   4.773
38982W        W  645  39.389  18.106  10.600
38983W        W  646  11.623  24.680  13.372
38984W        W  647  36.022  13.115   4.221
38985W        W  648  28.104  40.378   0.873
38986W        W  649  18.773   5.213  11.968
38987W        W  650  37.020  16.262   1.922
38988W        W  651  39.491   4.256  11.585
38989W        W  652  28.962  44.866   4.651
38990W        W  653  32.091  39.065  10.434
38991W        W  654  18.690  23.713  14.510
38992W        W  655  33.034  21.753   0.731
38993W        W  656  18.137   3.438  12.869
38994W        W  657  29.112  13.198  10.612
38995W        W  658  25.086  23.009  11.935
38996W        W  659   6.277  39.373   2.720
38997W        W  660  17.245  35.878  14.428
38998W        W  661  34.527   5.787   3.696
38999W        W  662  17.789  33.062   4.696
39000W        W  663  44.423   7.399   0.928
39001W        W  664   2.247  41.400   1.364
39002W        W  665  13.667  22.162  12.956
39003W        W  666  25.569  12.698   1.769
39004W        W  667  15.592  43.271   4.294
39005W        W  668  28.584  28.654   0.939
39006W        W  669  23.189  33.997  11.008
39007W        W  670  37.375  37.568   3.814
39008W        W  671  44.429  20.174  13.006
39009W        W  672  40.486   3.718   0.397
39010W        W  673  31.905  27.192  14.447
39011W        W  674  34.556   3.881   3.684
39012W        W  675   7.410  29.151   2.666
39013W        W  676  32.392  36.980  13.845
39014W        W  677  31.548  28.048  14.363
39015W        W  678  40.050  42.025  12.071
39016W        W  679   8.885  40.415   1.441
39017W        W  680  15.739   2.889   3.282
39018W        W  681  13.606  26.132  14.797
39019W        W  682  27.539  43.009  13.351
39020W        W  683  43.862  41.366   0.323
39021W        W  684   6.690  38.964  11.948
39022W        W  685   5.725  28.566   4.304
39023W        W  686  32.579  23.730   1.330
39024W        W  687  13.198   0.270   1.830
39025W        W  688  20.570  35.969   1.374
39026W        W  689  11.661  34.446  10.556
39027W        W  690   2.265   3.848   1.324
39028W        W  691  15.798  13.174  12.996
39029W        W  692  27.097   4.205  11.556
39030W        W  693  25.070  19.584   1.336
39031W        W  694  18.751  36.980   3.708
39032W        W  695  43.332   8.814   4.661
39033W        W  696  40.375  38.823  10.082
39034W        W  697  36.960  12.715  13.320
39035W        W  698  26.628  32.136   1.362
39036W        W  699  12.816   3.743   2.311
39037W        W  700  19.171  28.068  12.977
39038W        W  701  32.412  41.798   0.918
39039W        W  702  22.169  25.584   1.279
39040W        W  703  17.177  43.399   3.641
39041W        W  704  38.005  14.710   1.336
39042W        W  705  39.313   0.932  14.963
39043W        W  706  17.098   7.884   0.786
39044W        W  707  28.074  12.767   1.308
39045W        W  708  31.980  27.469   1.409
39046W        W  709  21.568  38.369  11.121
39047W        W  710  20.711   0.824  12.562
39048W        W  711   1.777   1.382  12.454
39049W        W  712   9.839  22.076  13.464
39050W        W  713  44.764  13.691  11.051
39051W        W  714  27.493  22.997   3.342
39052W        W  715  22.629  28.476  11.415
39053W        W  716  39.337  41.440  12.348
39054W        W  717   7.766  13.129   4.714
39055W        W  718  11.341  15.198   2.416
39056W        W  719  21.753  33.547   1.270
39057W        W  720  37.436   7.681   3.647
39058W        W  721   3.428  13.829   3.800
39059W        W  722  12.250  11.264   2.686
39060W        W  723   9.180  27.634   4.835
39061W        W  724   0.765  21.207   2.396
39062W        W  725  29.476  30.594  12.896
39063W        W  726  24.230  30.623   5.216
39064W        W  727  37.559  11.363   4.751
39065W        W  728  27.683   3.880  13.995
39066W        W  729  34.905  38.469   2.414
39067W        W  730  40.865   1.964  13.544
39068W        W  731   6.836   8.870  14.786
39069W        W  732  38.459  43.985  11.393
39070W        W  733   4.317  12.358  10.950
39071W        W  734   5.278  21.132   4.693
39072W        W  735  29.524  24.660  14.506
39073W        W  736  38.540  16.104   1.359
39074W        W  737  10.819  10.253  10.625
39075W        W  738   9.213  19.546  14.508
39076W        W  739  37.976  23.984  10.093
39077W        W  740   1.926  15.088  13.967
39078W        W  741   3.733  22.012  11.038
39079W        W  742  27.682  29.473  10.984
39080W        W  743  33.102  15.654   2.853
39081W        W  744  37.474  11.846   0.952
39082W        W  745  19.639   6.293   1.381
39083W        W  746   4.855  38.971  14.785
39084W        W  747  39.428  18.636   3.303
39085W        W  748  25.484  29.540  12.068
39086W        W  749  27.010  17.742   3.782
39087W        W  750  29.541   9.312  11.039
39088W        W  751   7.828  39.454   0.395
39089W        W  752   0.978  36.487   0.734
39090W        W  753  24.484  24.605  12.883
39091W        W  754   4.322  38.461   1.328
39092W        W  755  19.631  43.447  12.431
39093W        W  756  33.615  39.322   9.969
39094W        W  757  39.484  32.571  12.506
39095W        W  758  26.509  33.959  11.596
39096W        W  759  15.156   8.755   0.793
39097W        W  760   2.436   1.266  14.003
39098W        W  761   1.438  35.950  11.025
39099W        W  762   3.270  39.351  12.909
39100W        W  763  22.603  35.540   3.678
39101W        W  764  42.781   8.656  14.351
39102W        W  765   7.874  27.631   4.693
39103W        W  766  15.237   3.308   0.809
39104W        W  767  11.358  25.481  10.538
39105W        W  768  14.595  21.072   4.755
39106W        W  769  23.669  32.503  11.088
39107W        W  770  13.800  26.066  11.879
39108W        W  771  33.604  29.603  13.815
39109W        W  772  33.093  23.566  14.879
39110W        W  773  28.178  42.413  14.799
39111W        W  774  12.835  38.938  12.464
39112W        W  775  27.957  24.596  10.553
39113W        W  776  24.589  25.083   1.309
39114W        W  777  23.234  35.965   4.707
39115W        W  778  21.555  11.370  12.362
39116W        W  779   1.843  24.037  10.478
39117W        W  780   4.383  43.833  11.871
39118W        W  781  13.811  30.156  12.529
39119W        W  782   2.468  16.224  13.853
39120W        W  783  22.532  14.121  14.995
39121W        W  784  20.163  21.629   3.331
39122W        W  785   0.493  23.562  11.477
39123W        W  786   7.318  14.313   1.873
39124W        W  787  29.954  39.062  11.439
39125W        W  788  21.697  31.478   0.891
39126W        W  789   3.724  43.930  10.529
39127W        W  790  11.314  24.185   4.118
39128W        W  791  41.788  17.260  12.050
39129W        W  792  40.451  43.353  12.479
39130W        W  793  13.274   2.454  11.061
39131W        W  794   1.877  23.170  14.000
39132W        W  795  39.413   6.314  13.471
39133W        W  796  35.865  29.578   3.805
39134W        W  797  43.904  37.050   2.857
39135W        W  798  32.431  28.657  11.507
39136W        W  799  40.826   5.425  14.289
39137W        W  800  21.127  11.777   5.133
39138W        W  801  15.266  18.590  13.940
39139W        W  802  24.483  30.487  13.811
39140W        W  803  11.210  44.842  13.945
39141W        W  804  44.840  26.679   2.710
39142W        W  805  17.072   8.758   1.228
39143W        W  806  21.186  21.106  11.508
39144W        W  807  40.361  32.093  10.459
39145W        W  808  30.021  39.500  14.815
39146W        W  809  13.757   3.745  12.463
39147W        W  810  31.961   3.351  10.617
39148W        W  811   7.912  27.139  14.763
39149W        W  812  27.666  38.388  12.881
39150W        W  813  34.088  13.806  11.881
39151W        W  814  40.317   4.340  10.551
39152W        W  815  22.592  38.020   3.735
39153W        W  816   1.465   0.345   4.672
39154W        W  817  42.973  44.946  14.478
39155W        W  818  11.711   6.735   5.144
39156W        W  819   4.262  26.612  13.430
39157W        W  820  15.233   4.257   0.812
39158W        W  821  11.661  13.202   4.598
39159W        W  822   6.240  14.593  13.442
39160W        W  823  13.163  38.068  13.057
39161W        W  824  28.949  29.060   2.752
39162W        W  825   8.802   7.678  14.014
39163W        W  826   4.388   9.890   3.836
39164W        W  827  26.172  16.148  10.485
39165W        W  828   3.749   5.317   4.644
39166W        W  829  26.025  14.824  14.987
39167W        W  830  30.148  40.348  11.477
39168W        W  831  37.871  11.791   0.770
39169W        W  832  43.289  28.184   1.823
39170W        W  833  42.473   8.185   2.685
39171W        W  834  29.067  10.720  14.807
39172W        W  835  14.648  21.238  13.323
39173W        W  836  12.269  39.345  13.395
39174W        W  837   8.807   3.811  10.485
39175W        W  838   5.770  19.059   1.223
39176W        W  839  20.705  11.361   1.279
39177W        W  840  14.768  17.645  13.459
39178W        W  841  14.730   4.308  11.595
39179W        W  842  27.481  19.564  13.422
39180W        W  843   7.346  23.045  11.107
39181W        W  844  14.238  41.821   5.311
39182W        W  845  16.584  21.664   2.266
39183W        W  846   2.347  25.665  12.965
39184W        W  847  38.454   7.910   0.916
39185W        W  848  27.477  13.642  14.029
39186W        W  849  16.607  36.558   9.977
39187W        W  850  34.401  44.965   4.133
39188W        W  851  39.330   2.284   2.195
39189W        W  852  24.040  35.520   3.670
39190W        W  853   1.337   2.757  11.979
39191W        W  854  24.124  13.159   1.355
39192W        W  855  17.180  37.448   4.300
39193W        W  856  35.403  31.977   2.189
39194W        W  857  20.175  35.387   4.309
39195W        W  858  15.581  26.031   4.652
39196W        W  859   4.837  35.044  10.516
39197W        W  860  22.036  37.546  13.883
39198W        W  861   1.345  13.739   0.933
39199W        W  862  42.814  10.807  10.461
39200W        W  863  44.473  12.724  12.523
39201W        W  864  31.921  44.964   3.834
39202W        W  865  38.417  28.617  12.934
39203W        W  866  38.986  18.191   3.276
39204W        W  867   4.406   7.250  14.763
39205W        W  868  10.173  29.080  11.933
39206W        W  869  15.656  42.324  13.839
39207W        W  870  38.395  41.382   3.212
39208W        W  871   9.780  13.218  14.920
39209W        W  872  38.386  23.107   3.678
39210W        W  873  41.363  38.510  12.836
39211W        W  874   3.408   2.301   3.647
39212W        W  875   8.696  36.030   3.283
39213W        W  876   7.417   3.228  12.916
39214W        W  877  30.059  25.206  13.905
39215W        W  878  36.424  17.157   1.810
39216W        W  879   5.300  44.431  12.399
39217W        W  880  13.161  14.781  14.894
39218W        W  881  13.112  39.347  11.513
39219W        W  882  23.552  26.958   3.151
39220W        W  883   6.828   5.901  11.483
39221W        W  884  18.616   9.841  11.066
39222W        W  885   4.305  16.212  14.875
39223W        W  886  19.266  34.012  10.414
39224W        W  887   9.735   0.346   4.643
39225W        W  888  39.859  17.125  13.005
39226W        W  889  34.020  21.738  12.974
39227W        W  890  26.584  22.143   4.238
39228W        W  891  31.896  18.672   0.846
39229W        W  892   8.748  41.438  11.092
39230W        W  893  32.040  10.774  14.938
39231W        W  894  23.022   0.966  10.611
39232W        W  895  14.777  21.524   0.455
39233W        W  896   5.723  44.936   4.792
39234W        W  897  12.760  31.423   0.868
39235W        W  898  36.930  38.413   0.767
39236W        W  899  18.100   6.188  14.409
39237W        W  900  29.055  19.702  13.935
39238W        W  901   1.748  17.638   2.842
39239W        W  902  18.253  19.226   3.850
39240W        W  903  30.950  25.009   4.355
39241W        W  904  32.919  32.487   0.790
39242W        W  905  11.261  16.118   4.327
39243W        W  906  44.405  19.169   2.738
39244W        W  907   5.918  33.448  14.427
39245W        W  908   9.270  30.986  12.017
39246W        W  909  22.008  36.492  13.956
39247W        W  910  36.455   5.791  11.532
39248W        W  911  38.963  13.668  11.530
39249W        W  912  13.606  29.930  14.881
39250W        W  913  31.533  21.713   3.368
39251W        W  914  32.961   4.253  11.883
39252W        W  915   8.246  37.871   3.630
39253W        W  916   8.860   8.710   5.761
39254W        W  917   1.276  43.515   1.348
39255W        W  918  31.913  40.924   0.826
39256W        W  919   0.348   9.675   0.330
39257W        W  920  12.160  34.372  10.015
39258W        W  921  14.686  10.262  13.045
39259W        W  922  39.841   6.228  11.951
39260W        W  923  11.764  23.696   0.460
39261W        W  924  25.998  38.964   1.843
39262W        W  925  28.156  42.882   2.332
39263W        W  926  32.546  30.007  12.348
39264W        W  927  20.061  19.203  12.376
39265W        W  928  33.885   5.913   0.420
39266W        W  929  35.504  32.907  11.076
39267W        W  930  39.029  39.349   0.739
39268W        W  931  20.046  32.583   3.283
39269W        W  932   5.303   0.765  12.517
39270W        W  933   2.250   1.301  14.444
39271W        W  934  43.345  32.118  13.948
39272W        W  935  30.608  35.981  12.004
39273W        W  936  44.360   8.177  12.943
39274W        W  937   6.277  14.337  12.421
39275W        W  938   3.279   3.731   3.339
39276W        W  939  29.106  30.466  11.031
39277W        W  940  32.075  38.446   1.392
39278W        W  941   0.954  15.731  12.539
39279W        W  942  10.157  36.530  11.883
39280W        W  943  12.794   1.744  11.910
39281W        W  944  37.386  42.302  14.001
39282W        W  945  22.165  36.897   0.813
39283W        W  946  41.462  20.199  11.583
39284W        W  947  44.469  35.996   1.891
39285W        W  948  34.956  23.550   3.710
39286W        W  949   0.460   9.161   2.346
39287W        W  950  37.929  19.248  11.459
39288W        W  951  34.398  39.988  14.488
39289W        W  952  14.204  21.626   2.385
39290W        W  953  10.864  22.184  14.995
39291W        W  954  44.354  29.011  10.437
39292W        W  955  15.308  10.221  14.012
39293W        W  956   3.437  32.540  13.994
39294W        W  957  10.182  38.834   3.372
39295W        W  958   8.872  13.301  10.545
39296W        W  959  14.224  10.730  12.380
39297W        W  960   9.693  42.397  10.639
39298W        W  961  36.510  18.156  14.956
39299W        W  962  26.583  31.498  10.621
39300W        W  963  24.132  11.331   2.291
39301W        W  964  31.407   5.895  10.132
39302W        W  965  26.650  26.594   0.296
39303W        W  966  13.132  42.011  13.835
39304W        W  967  10.262  11.666  11.909
39305W        W  968  16.743  42.861  14.346
39306W        W  969  23.015  22.099  12.946
39307W        W  970  17.267  16.313  14.290
39308W        W  971  28.930  22.204  13.386
39309W        W  972  32.944  31.133  11.106
39310W        W  973  14.317  17.148   2.229
39311W        W  974  22.713  44.931  11.984
39312W        W  975  20.088  30.604   1.211
39313W        W  976   6.847   4.242  14.868
39314W        W  977   5.408  41.929  12.865
39315W        W  978  17.269   7.859   3.730
39316W        W  979   4.392   2.338  10.937
39317W        W  980  40.892  24.503  10.634
39318W        W  981  27.508  21.678   1.910
39319W        W  982  28.122  37.831   3.679
39320W        W  983  36.414   5.304  14.917
39321W        W  984  25.713  44.008   2.694
39322W        W  985  15.304   5.242   3.382
39323W        W  986  43.495   2.859  12.478
39324W        W  987  14.123  23.527  11.891
39325W        W  988   2.861  29.434   4.601
39326W        W  989  19.613  27.619  12.434
39327W        W  990   3.288   5.782   1.324
39328W        W  991  40.813   0.279   2.322
39329W        W  992  24.688  32.399   3.860
39330W        W  993  23.699  34.097   1.437
39331W        W  994  42.519  33.082  12.032
39332W        W  995  41.931  26.567   3.251
39333W        W  996  20.186  31.993  14.414
39334W        W  997   3.279  25.688  13.546
39335W        W  998   4.920  39.461   2.879
39336W        W  999  21.063  32.544  11.470
39337W        W 1000  42.386  10.234   3.842
39338W        W 1001   7.901  30.943  11.103
39339W        W 1002  18.717  22.201  12.412
39340W        W 1003  39.462  41.022   2.364
39341W        W 1004  18.671  36.444   2.321
39342W        W 1005  40.549  29.479  11.955
39343W        W 1006   0.326  33.450  12.971
39344W        W 1007  29.928  25.605  11.128
39345W        W 1008  44.947  35.992  12.093
39346W        W 1009   8.376  40.915  14.905
39347W        W 1010  23.214   7.349  12.379
39348W        W 1011  15.184  37.874   0.941
39349W        W 1012  27.525  21.657   2.847
39350W        W 1013  19.129  14.165  14.320
39351W        W 1014  39.909   0.798   3.682
39352W        W 1015  43.321  24.068  12.996
39353W        W 1016   4.222  12.792  11.966
39354W        W 1017  27.489   0.943  12.846
39355W        W 1018   6.200  18.583   4.175
39356W        W 1019  30.106  41.809   3.724
39357W        W 1020  18.635   7.792  12.573
39358W        W 1021  21.615   5.402  14.454
39359W        W 1022  18.225  11.338  13.410
39360W        W 1023   6.309  24.110  10.624
39361W        W 1024  22.113  37.466  14.782
39362W        W 1025  32.500   6.359   4.309
39363W        W 1026  11.766   4.863   5.214
39364W        W 1027  36.936  37.035  10.946
39365W        W 1028  44.905   5.311  14.972
39366W        W 1029  20.592  17.295  12.356
39367W        W 1030  31.013  44.922  11.026
39368W        W 1031   6.887  34.395   4.819
39369W        W 1032  40.388  25.515   4.779
39370W        W 1033   5.363  35.000   2.867
39371W        W 1034  25.683  43.937   4.317
39372W        W 1035  17.232  23.197  12.090
39373W        W 1036  16.593   1.459   1.734
39374W        W 1037   6.342   8.758  11.976
39375W        W 1038  40.407   9.283   9.649
39376W        W 1039  42.008  19.234  11.050
39377W        W 1040   8.713  26.134  12.473
39378W        W 1041  19.684  13.760  13.348
39379W        W 1042   3.431  15.200   2.400
39380W        W 1043   2.345  13.129  10.592
39381W        W 1044  30.485   3.814   3.276
39382W        W 1045  15.126   8.291   0.815
39383W        W 1046  35.026  41.375   3.371
39384W        W 1047   4.438   1.738  10.900
39385W        W 1048  19.771  21.230   0.761
39386W        W 1049  35.386   3.388   2.204
39387W        W 1050  35.899   2.757  13.047
39388W        W 1051  24.535  13.112   0.425
39389W        W 1052   2.306  36.070  12.447
39390W        W 1053  37.041  27.506   2.204
39391W        W 1054   0.333  17.304   2.347
39392W        W 1055  20.749   5.910   1.885
39393W        W 1056  26.637  31.499   0.904
39394W        W 1057  42.525  42.854  11.125
39395W        W 1058  34.068   9.720   4.185
39396W        W 1059   1.929  15.278  11.609
39397W        W 1060  42.472   7.698  14.940
39398W        W 1061  39.883  18.590   1.297
39399W        W 1062  29.597  32.461   3.277
39400W        W 1063   0.804  27.458   0.960
39401W        W 1064  16.721   9.804  13.488
39402W        W 1065  16.300  11.693   2.215
39403W        W 1066   2.918  27.572  14.841
39404W        W 1067  32.494  36.538  14.923
39405W        W 1068  25.131  25.592   3.768
39406W        W 1069   0.933  30.543   4.217
39407W        W 1070  44.468   6.825  12.476
39408W        W 1071  16.807  28.524  12.546
39409W        W 1072  14.780   2.827  14.401
39410W        W 1073  35.408   4.236  14.480
39411W        W 1074  13.798  38.929   0.738
39412W        W 1075  38.373  36.007  13.411
39413W        W 1076  26.534  19.156   4.682
39414W        W 1077  32.435  23.715   4.711
39415W        W 1078   4.425  29.998   4.605
39416W        W 1079   8.374   2.939  14.922
39417W        W 1080   2.737  16.668  11.053
39418W        W 1081  39.538  20.227  14.840
39419W        W 1082  36.481   5.859   0.319
39420W        W 1083  41.793   2.391  10.443
39421W        W 1084  16.731  43.962   4.121
39422W        W 1085  20.145  29.574  14.447
39423W        W 1086   7.223  27.008   1.896
39424W        W 1087   9.828  19.222   1.769
39425W        W 1088  44.458  30.144  14.350
39426W        W 1089  12.207   6.791   9.991
39427W        W 1090  34.121  15.701   2.831
39428W        W 1091   5.732   5.741   2.865
39429W        W 1092  39.343   0.957  11.037
39430W        W 1093   4.799   3.442  11.079
39431W        W 1094   3.940   7.188  10.533
39432W        W 1095  25.480  15.819  14.816
39433W        W 1096   4.283  35.405  13.471
39434W        W 1097  19.277   2.723   1.437
39435W        W 1098  18.084   7.893   1.893
39436W        W 1099  24.156  12.831   2.369
39437W        W 1100  16.759  40.824  13.476
39438W        W 1101  27.197   9.863  12.496
39439W        W 1102  13.765  27.681   4.791
39440W        W 1103  29.658  19.246   2.745
39441W        W 1104  37.018  30.992  11.937
39442W        W 1105  27.642  32.548  12.538
39443W        W 1106  20.096  33.473  14.971
39444W        W 1107   1.403  37.989  14.778
39445W        W 1108  27.641  29.491  12.858
39446W        W 1109   7.740  34.049   3.156
39447W        W 1110  41.322   9.816   0.937
39448W        W 1111   5.250  28.643   2.854
39449W        W 1112   6.691  39.871   4.669
39450W        W 1113  42.285  22.154   2.731
39451W        W 1114  20.621  31.141  11.569
39452W        W 1115   4.818   5.256   5.261
39453W        W 1116   3.864  14.306   2.890
39454W        W 1117   2.853  21.104  12.898
39455W        W 1118  34.563   8.853  11.555
39456W        W 1119  27.670  37.582  11.373
39457W        W 1120  11.767  23.011   4.198
39458W        W 1121  41.997  21.236  13.813
39459W        W 1122   0.829  29.010   1.442
39460W        W 1123   4.812  23.610   0.311
39461W        W 1124  36.912  30.500  13.321
39462W        W 1125  10.865  16.095  11.070
39463W        W 1126  26.087  14.239   3.335
39464W        W 1127  21.078   5.904   4.347
39465W        W 1128   1.475  42.839   0.962
39466W        W 1129  12.160  27.073   1.339
39467W        W 1130  38.027  32.395   0.851
39468W        W 1131  38.525  10.326  11.098
39469W        W 1132  39.032  38.484  14.288
39470W        W 1133   6.784  19.600  10.481
39471W        W 1134  14.770  36.347  14.456
39472W        W 1135  41.802  19.244   1.440
39473W        W 1136   0.900  35.550   1.303
39474W        W 1137  27.973  17.723  14.979
39475W        W 1138  35.392  32.539  10.469
39476W        W 1139   8.669  11.864  13.409
39477W        W 1140  30.960  41.978  11.548
39478W        W 1141  28.036  35.937  10.912
39479W        W 1142  28.530   1.237  14.881
39480W        W 1143  44.505  37.341  13.821
39481W        W 1144  18.781  13.152   2.258
39482W        W 1145   9.867  17.668  11.917
39483W        W 1146  18.645  40.934   0.843
39484W        W 1147  23.628  29.150  11.539
39485W        W 1148  30.592  29.000  12.381
39486W        W 1149   2.871   6.339  13.974
39487W        W 1150  28.980  36.087   4.127
39488W        W 1151  39.488  28.614   0.897
39489W        W 1152  33.914  19.271   3.866
39490W        W 1153  35.039  11.800   4.827
39491W        W 1154  22.592  30.045  13.860
39492W        W 1155  34.916  18.712  13.494
39493W        W 1156  10.227   8.370   0.756
39494W        W 1157  29.163  13.669  13.840
39495W        W 1158  24.617  34.484  13.409
39496W        W 1159  39.919  42.310  14.434
39497W        W 1160  31.074  41.368   0.751
39498W        W 1161   0.836  28.096  13.400
39499W        W 1162  36.031   1.933   1.700
39500W        W 1163   2.305  42.475  13.518
39501W        W 1164  37.945  42.342  12.423
39502W        W 1165  35.483  28.651  11.522
39503W        W 1166   0.423  27.643  14.294
39504W        W 1167   7.781  25.217   0.809
39505W        W 1168  24.615  20.628  12.087
39506W        W 1169  13.712  20.689  10.485
39507W        W 1170  43.811  24.157   3.673
39508W        W 1171   5.782  33.462   0.298
39509W        W 1172  34.569  39.060   2.881
39510W        W 1173   9.327  40.399   9.963
39511W        W 1174  25.655  18.139   0.367
39512W        W 1175  30.570   8.761  14.854
39513W        W 1176  20.646  22.087   1.791
39514W        W 1177  35.962  33.482  14.885
39515W        W 1178  41.920   4.754   4.643
39516W        W 1179   6.307  26.620   4.641
39517W        W 1180  14.678  21.644   4.325
39518W        W 1181  12.238  31.142   1.867
39519W        W 1182  11.139  18.180   0.441
39520W        W 1183  17.179  37.016   1.789
39521W        W 1184  27.984   8.750  11.401
39522W        W 1185  19.666   2.832  13.802
39523W        W 1186   7.696  12.325   1.440
39524W        W 1187  13.127  29.441   4.289
39525W        W 1188  11.148   1.326  10.554
39526W        W 1189  36.958  23.152  12.067
39527W        W 1190  23.082  25.038   1.350
39528W        W 1191  24.096  24.139  13.998
39529W        W 1192  18.674  17.229  12.029
39530W        W 1193  43.001   1.799   0.870
39531W        W 1194  44.811  41.907  12.007
39532W        W 1195  11.640  21.232  11.096
39533W        W 1196  24.143  40.339  11.894
39534W        W 1197  26.554  37.962   2.749
39535W        W 1198  16.183  12.689  13.855
39536W        W 1199  21.718  37.416   3.381
39537W        W 1200  26.088  36.011   0.825
39538W        W 1201  43.869  38.496  14.869
39539W        W 1202  34.923  43.353   2.316
39540W        W 1203  32.480   7.396  13.427
39541W        W 1204   1.792  40.876  12.420
39542W        W 1205  36.415  39.357   2.754
39543W        W 1206  21.568  22.249  13.527
39544W        W 1207  34.050  21.675  11.611
39545W        W 1208  12.666  43.338   0.736
39546W        W 1209  31.149  28.457   3.280
39547W        W 1210  16.628   7.849  10.483
39548W        W 1211  38.568  14.800  12.033
39549W        W 1212  30.475   1.481  11.983
39550W        W 1213   0.889   2.362  14.865
39551W        W 1214   2.447  40.985  14.384
39552W        W 1215  39.834  30.109   2.206
39553W        W 1216  37.945   5.349   3.285
39554W        W 1217   8.406  39.001  12.828
39555W        W 1218  27.646   9.271   4.677
39556W        W 1219  43.457  20.143  12.462
39557W        W 1220   0.790   5.862   0.729
39558W        W 1221   5.899   3.348  12.052
39559W        W 1222  31.129  27.197  11.545
39560W        W 1223  37.445  19.766   3.768
39561W        W 1224   1.324  11.363   0.729
39562W        W 1225  40.486  31.034   4.752
39563W        W 1226  38.338  14.309   1.275
39564W        W 1227  29.929  24.063  14.313
39565W        W 1228  44.500   5.212  12.496
39566W        W 1229   8.281  44.284   4.609
39567W        W 1230  36.418  32.414  11.433
39568W        W 1231  16.299  23.041  12.045
39569W        W 1232  11.194  33.601  10.421
39570W        W 1233  25.652  32.919   3.728
39571W        W 1234  37.001  41.033   3.208
39572W        W 1235  12.853  44.002   2.827
39573W        W 1236  18.055  27.610   1.249
39574W        W 1237  36.853  27.181  14.029
39575W        W 1238   5.787  44.438  12.567
39576W        W 1239  18.756  23.546  13.993
39577W        W 1240  43.456  11.758  12.890
39578W        W 1241  28.624   6.757   0.417
39579W        W 1242  30.625   3.424   2.706
39580W        W 1243  37.930  14.130  11.988
39581W        W 1244  23.087  11.780   0.825
39582W        W 1245  35.037  15.270   1.731
39583W        W 1246  43.324   3.219  11.479
39584W        W 1247   1.898  25.050  14.763
39585W        W 1248  42.358  30.921   0.414
39586W        W 1249  30.969  42.306   2.836
39587W        W 1250  30.422  35.857  14.475
39588W        W 1251  10.835  33.108  10.589
39589W        W 1252  14.255  42.431  12.871
39590W        W 1253   3.732  14.187   1.874
39591W        W 1254  11.135   5.808  10.052
39592W        W 1255   1.438   4.873  13.807
39593W        W 1256  36.867  33.620  13.373
39594W        W 1257  19.272  19.224  12.540
39595W        W 1258   0.353  29.606   3.291
39596W        W 1259  16.649  28.665  11.896
39597W        W 1260  44.889   6.210   4.638
39598W        W 1261  36.878   7.827   1.802
39599W        W 1262  14.150  44.492   2.264
39600W        W 1263  15.232  30.524   2.304
39601W        W 1264  26.650  16.199   4.765
39602W        W 1265  37.036  11.694  13.437
39603W        W 1266   9.206  23.045  12.832
39604W        W 1267   1.891   8.811   4.197
39605W        W 1268  25.647  32.425   0.961
39606W        W 1269  26.558   4.828  10.966
39607W        W 1270  42.384  32.482  12.443
39608W        W 1271  28.659   5.695   2.893
39609W        W 1272  40.956   8.172  12.493
39610W        W 1273  40.428  18.163  13.415
39611W        W 1274  18.767  31.563   3.236
39612W        W 1275  34.898   1.408   2.210
39613W        W 1276   1.317  12.796   1.711
39614W        W 1277  10.759  41.387   4.774
39615W        W 1278  33.904   5.214   4.698
39616W        W 1279  15.118   3.289   1.316
39617W        W 1280  40.346   9.198   2.394
39618W        W 1281  16.205  25.115  14.977
39619W        W 1282  28.186   0.788  12.416
39620W        W 1283  33.117  18.788  13.505
39621W        W 1284  43.508   8.260   3.743
39622W        W 1285  43.880   5.730  11.028
39623W        W 1286   5.924  43.514  11.482
39624W        W 1287  16.305  16.640   0.432
39625W        W 1288  26.118   9.841   1.254
39626W        W 1289  31.070  17.146   0.889
39627W        W 1290  26.974  17.204  13.831
39628W        W 1291  29.125  39.994  14.825
39629W        W 1292  41.315   5.249  11.000
39630W        W 1293   3.377  26.109  10.569
39631W        W 1294  14.816  42.366   2.279
39632W        W 1295  18.179  24.520   3.681
39633W        W 1296  31.970  14.232  12.346
39634W        W 1297  34.552  19.066   3.289
39635W        W 1298  29.617  34.885  12.384
39636W        W 1299  10.138  22.015   1.347
39637W        W 1300  42.815   4.289   1.857
39638W        W 1301   9.335  44.322  13.315
39639W        W 1302  12.821  40.822  12.497
39640W        W 1303   3.740  12.763  11.530
39641W        W 1304  32.940   6.876  11.467
39642W        W 1305  12.142  15.195  12.851
39643W        W 1306  27.106  36.860   2.686
39644W        W 1307  13.786  35.064  10.067
39645W        W 1308  14.702  39.917   4.711
39646W        W 1309  32.403   2.241  12.526
39647W        W 1310  26.052   4.854  13.545
39648W        W 1311   8.689  28.128  10.921
39649W        W 1312  37.871  34.934  12.047
39650W        W 1313  28.599  44.873   3.229
39651W        W 1314   4.870  29.521  11.002
39652W        W 1315  37.443  39.379   0.852
39653W        W 1316  27.005   1.832  14.339
39654W        W 1317   7.388  15.634   5.142
39655W        W 1318  34.878   1.795  14.956
39656W        W 1319   8.224  13.796   3.828
39657W        W 1320  20.551  23.620  13.534
39658W        W 1321  22.516  44.797   5.241
39659W        W 1322  35.866  13.822  12.573
39660W        W 1323  13.616  19.770   1.425
39661W        W 1324  43.973  20.039  11.017
39662W        W 1325   7.318   6.359   4.182
39663W        W 1326   9.339  40.530   4.159
39664W        W 1327  13.119  23.097   2.752
39665W        W 1328   0.746   9.876   3.272
39666W        W 1329  19.726  13.638  13.973
39667W        W 1330  31.949  18.700   4.831
39668W        W 1331  18.717  44.412  12.575
39669W        W 1332  20.231  29.106   2.221
39670W        W 1333  11.295  35.043   4.778
39671W        W 1334  40.042  28.018  13.317
39672W        W 1335  43.500   4.378   4.793
39673W        W 1336  19.605  17.278   3.196
39674W        W 1337  21.235  26.081  13.023
39675W        W 1338   6.251  37.915   4.790
39676W        W 1339   0.407  20.206  14.976
39677W        W 1340  26.037  14.674   1.382
39678W        W 1341  15.751  11.325   2.887
39679W        W 1342  24.721  15.136   4.157
39680W        W 1343  39.421   2.745  13.548
39681W        W 1344  35.590   6.344   0.437
39682W        W 1345  39.030  26.984   4.301
39683W        W 1346   3.721  44.478  13.478
39684W        W 1347  42.492   1.940   4.790
39685W        W 1348  21.039  10.863   4.234
39686W        W 1349  22.568  28.587  12.833
39687W        W 1350   7.260   5.426   3.670
39688W        W 1351   5.702  21.186   0.950
39689W        W 1352   8.170  12.696   1.710
39690W        W 1353  37.074  39.873  13.873
39691W        W 1354  43.802   6.375  14.382
39692W        W 1355   6.734  34.095   3.259
39693W        W 1356  37.897  19.211   0.361
39694W        W 1357  28.444  13.610  10.530
39695W        W 1358   7.762  30.533  14.461
39696W        W 1359  39.864  19.187   0.835
39697W        W 1360  28.567   1.396  12.944
39698W        W 1361  30.134  32.601  14.430
39699W        W 1362  13.677  10.153  13.502
39700W        W 1363  12.743  33.494   0.445
39701W        W 1364   4.234  34.993  14.826
39702W        W 1365   6.879  32.489  10.992
39703W        W 1366  44.388  38.554   2.360
39704W        W 1367  18.243  21.149  12.393
39705W        W 1368  23.033  42.905  14.903
39706W        W 1369  14.255  14.274  14.901
39707W        W 1370  35.963  40.338   4.732
39708W        W 1371  44.428   9.869  11.039
39709W        W 1372  44.296  20.029   4.313
39710W        W 1373   1.972  41.307   0.296
39711W        W 1374   5.707   7.232  10.532
39712W        W 1375  28.168  28.019  10.431
39713W        W 1376  37.976  35.551   0.790
39714W        W 1377  14.766   7.695   5.204
39715W        W 1378  36.583  39.464  14.475
39716W        W 1379  28.177  40.481  14.312
39717W        W 1380   8.206  21.078   0.819
39718W        W 1381  32.885  15.113  14.381
39719W        W 1382  18.603  29.131  10.634
39720W        W 1383   0.870  29.536   5.141
39721W        W 1384  31.896  42.883  12.536
39722W        W 1385  30.921   3.451  13.045
39723W        W 1386   8.269   5.712   4.777
39724W        W 1387  21.744  29.120  14.285
39725W        W 1388  31.971  14.175  11.484
39726W        W 1389  41.980   4.802  14.298
39727W        W 1390  16.744  11.767  10.588
39728W        W 1391   4.251  33.566  14.483
39729W        W 1392  30.506  10.296  12.348
39730W        W 1393  23.010  44.980  14.337
39731W        W 1394  38.490  16.296  11.883
39732W        W 1395  27.530  22.648   2.277
39733W        W 1396  19.665  23.084   2.196
39734W        W 1397   6.195  21.536  10.102
39735W        W 1398   7.882  36.426  10.419
39736W        W 1399  11.689  11.852  12.907
39737W        W 1400  18.591  16.763  14.429
39738W        W 1401   2.913  16.135  12.555
39739W        W 1402  26.701  43.389   3.834
39740W        W 1403   7.678  17.748  13.025
39741W        W 1404  43.853  44.963   0.827
39742W        W 1405  32.101  42.925  13.801
39743W        W 1406   6.803  40.986  11.588
39744W        W 1407  32.910  32.049  11.506
39745W        W 1408  41.889  34.977  13.372
39746W        W 1409  38.549  44.396  11.886
39747W        W 1410  31.429  38.823   0.732
39748W        W 1411  28.117  39.809  14.314
39749W        W 1412  25.702   2.812  14.928
39750W        W 1413  13.328  11.268   3.346
39751W        W 1414  30.461  13.642  13.400
39752W        W 1415   1.913   1.802   3.220
39753W        W 1416  25.484  26.139  12.898
39754W        W 1417  32.446  39.980  13.420
39755W        W 1418   1.327  34.373   1.694
39756W        W 1419  14.593  15.648   0.336
39757W        W 1420  20.144  32.451  10.629
39758W        W 1421  28.533  43.477  10.530
39759W        W 1422   5.693  29.660  14.840
39760W        W 1423  19.066  19.215  14.450
39761W        W 1424  16.569  40.305   3.660
39762W        W 1425   4.326  11.326   4.156
39763W        W 1426   7.366  19.116   3.261
39764W        W 1427  36.052  40.476   1.379
39765W        W 1428  28.598  31.448   3.770
39766W        W 1429  24.667  20.763   3.634
39767W        W 1430  17.745  44.880  14.508
39768W        W 1431  28.460   8.684  12.895
39769W        W 1432   5.746  26.669   0.470
39770W        W 1433  26.482  29.530   1.372
39771W        W 1434  42.913   8.811  14.816
39772W        W 1435  40.826   7.881  14.333
39773W        W 1436  27.090  30.140  11.049
39774W        W 1437  25.600  19.776   3.786
39775W        W 1438   2.376  14.319  13.477
39776W        W 1439  30.438  41.345  11.004
39777W        W 1440  33.940  16.605  10.955
39778W        W 1441  25.666  19.649  14.363
39779W        W 1442  19.749  22.672  12.418
39780W        W 1443  11.314  38.886  14.443
39781W        W 1444  21.599  39.367  14.027
39782W        W 1445  17.301   2.881   1.251
39783W        W 1446  30.031  33.463  11.899
39784W        W 1447   5.901   1.903  12.473
39785W        W 1448  19.148  34.488  13.480
39786W        W 1449   5.228  35.011  14.488
39787W        W 1450  12.646   2.784  14.935
39788W        W 1451   8.261  14.732   0.435
39789W        W 1452  11.627  19.200  10.590
39790W        W 1453   1.890  14.693   4.271
39791W        W 1454  39.369  29.507   2.705
39792W        W 1455  32.622   3.289  12.019
39793W        W 1456  12.855  35.073  13.546
39794W        W 1457  30.050  26.035   1.841
39795W        W 1458  40.386  20.060   3.759
39796W        W 1459  18.133  35.966   0.962
39797W        W 1460  42.499  26.045   1.383
39798W        W 1461  30.130   4.335  12.339
39799W        W 1462  26.623  23.205  11.521
39800W        W 1463  32.566  17.787  10.140
39801W        W 1464  39.819   4.874   4.755
39802W        W 1465  42.483  29.162  11.478
39803W        W 1466  15.584  11.662   3.773
39804W        W 1467  43.946  31.504  12.000
39805W        W 1468  15.630  10.663  10.949
39806W        W 1469  15.810  41.410  13.544
39807W        W 1470  27.979  27.139   1.698
39808W        W 1471  39.391   6.319   1.293
39809W        W 1472   5.724   2.337   0.348
39810W        W 1473  30.006   2.366   0.270
39811W        W 1474  44.995  27.536   2.233
39812W        W 1475   2.785   1.864   4.672
39813W        W 1476  37.386   7.676   3.347
39814W        W 1477  19.626   6.274   2.715
39815W        W 1478   9.781  37.511   1.917
39816W        W 1479   1.831  26.156  12.925
39817W        W 1480   9.369  15.645  12.083
39818W        W 1481  26.188  22.719  12.390
39819W        W 1482  33.431  28.556  12.990
39820W        W 1483  10.157  17.759  14.014
39821W        W 1484  36.359   3.756   1.327
39822W        W 1485  25.072  43.897   1.910
39823W        W 1486   4.863  13.783  13.529
39824W        W 1487  29.543  38.061  13.383
39825W        W 1488  34.551  41.393  12.081
39826W        W 1489  40.381  26.013   2.194
39827W        W 1490  10.267  30.574  13.043
39828W        W 1491  31.929  24.156   4.132
39829W        W 1492  26.113  28.473   2.265
39830W        W 1493  15.718  15.788  14.300
39831W        W 1494  34.105   9.261   4.640
39832W        W 1495  30.151  37.519   2.726
39833W        W 1496  34.063  17.133  14.427
39834W        W 1497  44.988  37.426   3.278
39835W        W 1498  12.322  44.758  10.472
39836W        W 1499  41.040  32.604  14.476
39837W        W 1500  36.043  27.947  12.844
39838W        W 1501  27.600  10.748  13.526
39839W        W 1502  11.865   8.711  12.368
39840W        W 1503  33.117  13.773  14.299
39841W        W 1504   2.961  44.944  11.523
39842W        W 1505  13.703  35.578   1.369
39843W        W 1506  21.050  23.612   3.861
39844W        W 1507   3.280   5.876   3.319
39845W        W 1508  35.557  17.777   2.214
39846W        W 1509  22.665  43.456   4.350
39847W        W 1510  19.055   5.730  10.616
39848W        W 1511  29.980  39.876   9.455
39849W        W 1512  30.139   8.285   1.782
39850W        W 1513  23.046  28.662   4.601
39851W        W 1514  16.123  12.223   0.402
39852W        W 1515  41.504  39.944   3.198
39853W        W 1516  21.544   4.429  11.974
39854W        W 1517  40.377  16.187   1.382
39855W        W 1518   0.861   6.308   4.295
39856W        W 1519  39.503  42.524  14.407
39857W        W 1520   0.853  30.596   1.904
39858W        W 1521  14.600  30.523  12.085
39859W        W 1522  31.076  23.015   9.944
39860W        W 1523  36.014   1.349  11.975
39861W        W 1524  43.385   3.401   5.109
39862W        W 1525  26.626  16.783   0.297
39863W        W 1526  43.834  30.952  11.600
39864W        W 1527   2.425  25.130  10.992
39865W        W 1528  36.016  31.051   3.706
39866W        W 1529  11.792  44.872  12.860
39867W        W 1530  15.602  21.718   0.941
39868W        W 1531  10.235   1.800  13.376
39869W        W 1532   4.772  36.856   3.802
39870W        W 1533  17.099  13.829   3.822
39871W        W 1534  35.882  38.434  11.495
39872W        W 1535  31.618  32.589  12.450
39873W        W 1536   7.836   0.350   4.626
39874W        W 1537  30.558   5.693  10.442
39875W        W 1538   1.460  34.568   4.626
39876W        W 1539  23.081   5.841   2.869
39877W        W 1540  34.404  14.296   3.285
39878W        W 1541  18.142  15.251  12.030
39879W        W 1542  25.669  35.397   0.247
39880W        W 1543  39.953  40.435   0.408
39881W        W 1544  23.235  37.992  12.085
39882W        W 1545  13.836  44.361  14.825
39883W        W 1546  21.545  30.985  13.974
39884W        W 1547  23.081  40.874  13.972
39885W        W 1548   4.836  23.636   3.266
39886W        W 1549  33.521  24.172  11.029
39887W        W 1550  14.259  26.565  11.014
39888W        W 1551  10.693  21.239  10.540
39889W        W 1552  10.804   3.866  10.487
39890W        W 1553  43.456   9.357   1.287
39891W        W 1554  41.973  29.639   1.386
39892W        W 1555  25.110  44.288  11.434
39893W        W 1556  43.291  17.086   1.864
39894W        W 1557   6.861  21.213   0.434
39895W        W 1558  11.781  32.093  10.635
39896W        W 1559   7.325  14.795  14.377
39897W        W 1560  16.161  21.181   0.431
39898W        W 1561  32.511   1.884   4.211
39899W        W 1562  41.339   0.817   0.770
39900W        W 1563   8.858   1.790  11.940
39901W        W 1564   5.310  30.525  14.318
39902W        W 1565  15.301  24.031   0.327
39903W        W 1566  23.682   8.827   5.169
39904W        W 1567  13.216  18.576  13.943
39905W        W 1568   8.726  17.598   4.116
39906W        W 1569  17.600  37.453  14.933
39907W        W 1570  14.330  37.444  14.483
39908W        W 1571   9.681  44.371  12.381
39909W        W 1572  22.038  17.120  13.383
39910W        W 1573  31.057  19.083  12.366
39911W        W 1574   3.845  38.885   0.762
39912W        W 1575  33.477  11.316  11.534
39913W        W 1576   0.336  33.584   4.699
39914W        W 1577  35.485  16.787  12.446
39915W        W 1578  15.224  15.153  11.540
39916W        W 1579  16.722   6.817  10.962
39917W        W 1580  42.878  36.975   2.711
39918W        W 1581  41.878  21.676   0.387
39919W        W 1582   0.310  16.728   4.713
39920W        W 1583  11.676  43.019   4.263
39921W        W 1584  42.030   3.298   4.671
39922W        W 1585  37.874  23.074   2.209
39923W        W 1586  33.909   2.920   2.288
39924W        W 1587   3.923  18.630   1.275
39925W        W 1588  36.052  34.551   1.224
39926W        W 1589   4.431  24.006  13.045
39927W        W 1590  38.822   7.358  10.628
39928W        W 1591  21.229  14.189  13.791
39929W        W 1592  31.905   7.893   0.350
39930W        W 1593  39.955  44.966   3.713
39931W        W 1594  17.716   8.882  13.000
39932W        W 1595  37.987   3.447   0.363
39933W        W 1596  30.535  10.211   1.446
39934W        W 1597  16.120   7.343  11.069
39935W        W 1598  10.246  23.690  13.040
39936W        W 1599  19.198   6.779  11.998
39937W        W 1600  40.873  43.407   1.909
39938W        W 1601   7.365  20.555   2.671
39939W        W 1602  25.999  41.509   5.752
39940W        W 1603  12.348  39.061   3.197
39941W        W 1604  23.025  39.432  13.523
39942W        W 1605  22.170  10.658  10.486
39943W        W 1606  30.059  42.514   1.391
39944W        W 1607   6.192  42.326   0.730
39945W        W 1608  36.399  24.212   3.771
39946W        W 1609  10.356   8.171  12.386
39947W        W 1610  15.256  35.438  11.478
39948W        W 1611  27.686  17.564  11.005
39949W        W 1612  18.566  10.362  10.051
39950W        W 1613  25.603  13.191   3.870
39951W        W 1614  19.713  40.023  11.485
39952W        W 1615   8.748  39.960  10.500
39953W        W 1616  10.263  26.539   0.360
39954W        W 1617  39.517   6.411   3.359
39955W        W 1618  31.133  32.495   1.802
39956W        W 1619  15.084   4.336  13.534
39957W        W 1620   1.385  36.568   0.437
39958W        W 1621  23.630   9.221   0.339
39959W        W 1622   4.325  43.923   4.345
39960W        W 1623  13.717  30.535  10.463
39961W        W 1624  16.742  38.343  10.431
39962W        W 1625  26.147  41.961  14.994
39963W        W 1626   7.383  14.737   3.816
39964W        W 1627  20.656  33.893   3.257
39965W        W 1628  37.339   2.868  11.516
39966W        W 1629  18.153  38.965  12.394
39967W        W 1630  30.055  31.932   1.248
39968W        W 1631   4.854   4.428   2.808
39969W        W 1632   6.413  14.722  10.979
39970W        W 1633  28.535  23.541   1.370
39971W        W 1634  30.160  26.038   0.935
39972W        W 1635  20.673  43.864  11.488
39973W        W 1636  30.479  36.062  12.947
39974W        W 1637   9.214  42.843  14.988
39975W        W 1638  30.499  10.679  14.333
39976W        W 1639   5.194  26.569   4.693
39977W        W 1640  26.169  15.597   2.800
39978W        W 1641  31.987  41.804  12.036
39979W        W 1642   8.185  22.103   4.637
39980W        W 1643   8.686  37.567  13.490
39981W        W 1644   1.937   8.241   1.446
39982W        W 1645   1.388  33.019   1.914
39983W        W 1646  25.103  28.447  11.867
39984W        W 1647   9.326  25.519  12.985
39985W        W 1648   0.827   6.235   3.819
39986W        W 1649   6.873  25.144   1.272
39987W        W 1650  23.227  12.799  14.021
39988W        W 1651  43.509  33.474   3.834
39989W        W 1652   9.858   4.707   3.172
39990W        W 1653  13.720  28.651   3.146
39991W        W 1654  12.362   5.328   2.309
39992W        W 1655  31.007  14.142   1.790
39993W        W 1656   7.205   0.750   2.751
39994W        W 1657  11.719  25.124  13.839
39995W        W 1658  21.610   8.280   2.290
39996W        W 1659  24.720  41.376  14.017
39997W        W 1660   5.249  41.358  14.362
39998W        W 1661   7.276  12.653  14.348
39999W        W 1662  41.384  12.827  12.549
40000W        W 1663  28.058  15.710  10.544
40001W        W 1664   9.871   0.751  14.904
40002W        W 1665  18.622  35.103  12.870
40003W        W 1666  32.493   8.862   0.409
40004W        W 1667  33.021  23.162  10.627
40005W        W 1668  18.268  31.971   3.844
40006W        W 1669  36.004  28.438  10.644
40007W        W 1670   8.298  13.819  12.876
40008W        W 1671  39.550  35.526   4.262
40009W        W 1672  11.134  36.021  13.918
40010W        W 1673  18.621   4.746   2.740
40011W        W 1674  19.708  26.600  14.474
40012W        W 1675  22.624  31.586  12.424
40013W        W 1676  17.131   1.832   3.686
40014W        W 1677   6.805  22.728   1.349
40015W        W 1678  40.898  20.761   2.402
40016W        W 1679  39.384  22.500  14.810
40017W        W 1680   9.375  36.974   3.234
40018W        W 1681  20.254   6.382   3.152
40019W        W 1682  17.092  29.176   0.458
40020W        W 1683  30.413  25.146  11.997
40021W        W 1684  24.600  26.049   3.291
40022W        W 1685  26.553   4.233  12.386
40023W        W 1686  30.102   2.389  12.934
40024W        W 1687   6.277   1.780   1.240
40025W        W 1688   7.819  13.206  11.455
40026W        W 1689  38.009  28.464  13.060
40027W        W 1690  31.901  38.338   2.346
40028W        W 1691  41.016   5.346  12.961
40029W        W 1692   2.943  11.834   4.253
40030W        W 1693  42.327  42.848   3.265
40031W        W 1694  24.655   1.768   0.462
40032W        W 1695   7.686  35.418  13.442
40033W        W 1696  14.242   9.304   1.926
40034W        W 1697  42.930  22.158  10.055
40035W        W 1698  38.423  33.987   1.408
40036W        W 1699  16.591  20.719  13.973
40037W        W 1700   4.895  33.076  10.490
40038W        W 1701  42.788  28.051   4.266
40039W        W 1702  17.681  20.570   0.918
40040W        W 1703  21.709  43.404   2.237
40041W        W 1704   2.393  33.046   4.154
40042W        W 1705  20.575  18.725   1.363
40043W        W 1706   4.839  43.380  14.275
40044W        W 1707   8.856  34.556  13.824
40045W        W 1708  28.988  19.230   3.737
40046W        W 1709  16.616   5.856   3.779
40047W        W 1710  13.247  29.058  10.441
40048W        W 1711  29.560  17.277   3.741
40049W        W 1712  39.000  21.089  13.952
40050W        W 1713  43.787   1.803   4.782
40051W        W 1714  40.982  36.492  14.280
40052W        W 1715   8.382  17.743  13.820
40053W        W 1716  27.489  43.332  13.347
40054W        W 1717  18.564  35.959  10.469
40055W        W 1718  42.964  15.319  12.970
40056W        W 1719  11.663  41.950   9.925
40057W        W 1720  36.046  22.621  10.632
40058W        W 1721  19.646   2.789  14.405
40059W        W 1722  29.003  36.540   0.934
40060W        W 1723  22.714  15.220  10.442
40061W        W 1724  41.423  22.538  10.418
40062W        W 1725  23.523  20.627   3.340
40063W        W 1726   9.222  34.924  10.445
40064W        W 1727  10.664  26.107  14.439
40065W        W 1728  40.475  34.412  12.036
40066W        W 1729  37.067  38.493   0.322
40067W        W 1730  22.187  36.963   2.722
40068W        W 1731  39.023  20.223   3.673
40069W        W 1732  22.150   0.841   4.807
40070W        W 1733  33.022  12.614   3.796
40071W        W 1734  31.474  28.142  10.509
40072W        W 1735  39.826  36.462   1.365
40073W        W 1736  29.493  44.471  13.863
40074W        W 1737  28.629  11.170   3.334
40075W        W 1738   1.422  43.934   4.658
40076W        W 1739  13.830   9.819  14.963
40077W        W 1740  15.207  42.849  10.477
40078W        W 1741  19.619  12.151  14.808
40079W        W 1742  31.401   6.217  11.108
40080W        W 1743  14.707   7.178  13.957
40081W        W 1744   5.291  36.911  13.795
40082W        W 1745  23.127  33.993   0.370
40083W        W 1746  35.904  27.655   2.806
40084W        W 1747   5.876   5.931   4.632
40085W        W 1748  27.101  38.973  12.955
40086W        W 1749  23.575  26.524   0.746
40087W        W 1750  18.234  39.063   9.920
40088W        W 1751  16.667  15.139   1.409
40089W        W 1752   4.220   0.880   4.180
40090W        W 1753  44.398   1.483  13.344
40091W        W 1754  34.402   4.872   3.650
40092W        W 1755  41.858  35.481  13.390
40093W        W 1756  41.806  42.425   0.935
40094W        W 1757  38.975  20.221  10.950
40095W        W 1758  13.830  31.449  11.528
40096W        W 1759  38.471  41.490   1.711
40097W        W 1760   6.752  23.148  14.361
40098W        W 1761  10.663  27.047   0.392
40099W        W 1762  10.141  22.225  13.948
40100W        W 1763  19.572  36.439   1.443
40101W        W 1764  29.945  24.133   0.470
40102W        W 1765  27.612  30.069   4.671
40103W        W 1766  13.709   8.301  14.943
40104W        W 1767  26.661  37.934   0.258
40105W        W 1768  14.121   6.718  10.890
40106W        W 1769   4.803  24.612  10.490
40107W        W 1770  42.804  23.132  12.031
40108W        W 1771  38.075  19.102  10.609
40109W        W 1772   4.333  38.531   3.842
40110W        W 1773  11.150  26.063   0.829
40111W        W 1774  35.375  10.684   9.516
40112W        W 1775  20.093   5.933   4.340
40113W        W 1776   5.873  29.163   3.845
40114W        W 1777  44.442  40.451  13.487
40115W        W 1778  44.851  29.540   0.898
40116W        W 1779  16.582  11.183   2.414
40117W        W 1780  27.151  22.707   1.713
40118W        W 1781  16.100  21.544   0.317
40119W        W 1782  31.402  40.907  10.628
40120W        W 1783   0.259  44.761  13.858
40121W        W 1784  42.840  44.326  11.439
40122W        W 1785  27.635  27.570  11.050
40123W        W 1786  31.976  44.878  10.429
40124W        W 1787   0.350  23.656  12.396
40125W        W 1788   8.794  40.345   5.288
40126W        W 1789  40.320  19.584  14.382
40127W        W 1790   7.867  22.090  12.459
40128W        W 1791  11.215  29.636   3.154
40129W        W 1792  25.680  16.636   4.333
40130W        W 1793  11.811  36.498  10.594
40131W        W 1794  17.307  27.643  11.406
40132W        W 1795  28.673   2.303  13.048
40133W        W 1796  43.299  39.840   0.827
40134W        W 1797   9.357   5.279  11.536
40135W        W 1798  19.125  14.168   0.895
40136W        W 1799  14.662   2.962   4.217
40137W        W 1800   1.872  27.027   1.760
40138W        W 1801  30.466  13.834   3.852
40139W        W 1802  16.126  31.563  14.935
40140W        W 1803  43.877  38.908   1.726
40141W        W 1804  36.518  10.358  14.892
40142W        W 1805  18.194  17.631  10.527
40143W        W 1806   4.375   4.245   4.263
40144W        W 1807  21.065  24.138  12.086
40145W        W 1808  31.509  10.317  12.450
40146W        W 1809  39.848  23.166   0.734
40147W        W 1810  15.154   5.708  11.026
40148W        W 1811   5.762  13.170   4.345
40149W        W 1812  27.612  19.722  10.558
40150W        W 1813  20.561  34.919  12.371
40151W        W 1814   3.941  24.636  14.005
40152W        W 1815   3.946  41.349   4.633
40153W        W 1816  22.126   9.859   0.752
40154W        W 1817  33.923  11.239  10.608
40155W        W 1818  30.640  17.265   4.190
40156W        W 1819  23.103  15.312  12.418
40157W        W 1820   8.720  18.773  11.006
40158W        W 1821  32.034  22.049  10.442
40159W        W 1822  26.678   0.416   4.235
40160W        W 1823  17.215   4.269  11.484
40161W        W 1824  24.524  25.646   3.185
40162W        W 1825  21.214  19.742   5.227
40163W        W 1826  27.195  42.404   3.844
40164W        W 1827  35.886  15.698   2.199
40165W        W 1828  41.855  33.503   5.320
40166W        W 1829  42.969  21.737  12.569
40167W        W 1830  33.903   5.849   9.457
40168W        W 1831  26.994   1.443  11.999
40169W        W 1832  13.823  20.066   4.222
40170W        W 1833  25.175  43.008  12.405
40171W        W 1834  17.721   7.366  12.946
40172W        W 1835  25.192   4.817   3.260
40173W        W 1836   0.491  19.707  11.928
40174W        W 1837  10.793  13.612  10.434
40175W        W 1838  37.483  32.954  10.941
40176W        W 1839  17.098  31.608   2.675
40177W        W 1840  43.770  44.005  14.278
40178W        W 1841   1.846  27.957  10.597
40179W        W 1842  21.724  19.767   2.692
40180W        W 1843  35.492  19.139  13.851
40181W        W 1844  40.450  11.265  10.955
40182W        W 1845  31.445  41.440   3.849
40183W        W 1846   3.342  34.083   2.378
40184W        W 1847  33.573  34.493  11.078
40185W        W 1848  30.058  23.105   1.415
40186W        W 1849  14.121  42.395   3.696
40187W        W 1850   8.331  11.744   0.837
40188W        W 1851  26.961  41.981  14.486
40189W        W 1852  16.290  12.836  10.471
40190W        W 1853  42.351  35.360  11.475
40191W        W 1854   2.816  31.535  12.499
40192W        W 1855  33.577  32.604   0.277
40193W        W 1856  40.890   5.716   5.674
40194W        W 1857   9.705   4.433   4.618
40195W        W 1858  37.904  40.371  10.631
40196W        W 1859  11.651  33.022   0.400
40197W        W 1860   6.903  28.992   0.740
40198W        W 1861  20.192  38.565  11.510
40199W        W 1862   4.913  36.947   4.800
40200W        W 1863  40.926   5.231   0.459
40201W        W 1864  11.134  36.412   1.246
40202W        W 1865  24.115  10.266   9.955
40203W        W 1866  12.219  21.070   4.248
40204W        W 1867  18.290  29.558   3.639
40205W        W 1868  39.061   1.788  13.906
40206W        W 1869  40.390  41.877  13.801
40207W        W 1870  19.166   1.873   4.647
40208W        W 1871  34.400  32.550   4.645
40209W        W 1872  20.120  22.717   1.850
40210W        W 1873  37.944  27.964   0.880
40211W        W 1874  32.576  13.233  13.505
40212W        W 1875  15.271   1.912   2.361
40213W        W 1876   3.217  14.719   0.923
40214W        W 1877  36.407  19.771   2.714
40215W        W 1878  24.663  29.480  12.510
40216W        W 1879  16.087  38.548  11.421
40217W        W 1880  12.261   9.251   4.610
40218W        W 1881   6.710  43.820  11.486
40219W        W 1882  16.787  18.555   0.456
40220W        W 1883   8.224   1.943  11.406
40221W        W 1884  40.310   5.376   4.801
40222W        W 1885  12.212  25.991   2.416
40223W        W 1886  41.038  26.165  11.931
40224W        W 1887  37.022  38.423   3.723
40225W        W 1888  13.310  40.356  10.031
40226W        W 1889  38.864  40.417  10.630
40227W        W 1890  39.487  23.547   3.786
40228W        W 1891  34.517  37.954  13.817
40229W        W 1892  14.591  36.885   0.890
40230W        W 1893  28.967  35.058   1.285
40231W        W 1894  30.083  20.728   4.686
40232W        W 1895  30.516  13.244   2.260
40233W        W 1896  11.715  21.107  10.015
40234W        W 1897  32.107  42.923  11.104
40235W        W 1898  39.047  42.453   1.867
40236W        W 1899  37.004  43.381   4.611
40237W        W 1900  24.612  29.533  13.461
40238W        W 1901  10.194  13.600  13.960
40239W        W 1902  20.725  17.082  10.550
40240W        W 1903  21.730   7.785  10.555
40241W        W 1904  20.665  18.679  11.097
40242W        W 1905  21.229  11.786   0.831
40243W        W 1906  35.947   8.839   4.743
40244W        W 1907  20.621  14.753  14.388
40245W        W 1908  16.659   9.882  12.969
40246W        W 1909  30.003   9.657  10.922
40247W        W 1910  27.615  35.480   3.309
40248W        W 1911   8.765  27.616   0.938
40249W        W 1912   1.830   5.736  11.898
40250W        W 1913  11.677   9.847   3.307
40251W        W 1914  38.411  44.439  12.436
40252W        W 1915  34.897  40.840  12.033
40253W        W 1916   8.815  17.704   3.244
40254W        W 1917  32.040  36.360   2.812
40255W        W 1918  41.454  42.868  12.446
40256W        W 1919  17.137  37.983   9.973
40257W        W 1920  12.796   0.421  11.928
40258W        W 1921  29.112  15.161  10.900
40259W        W 1922  10.217  22.136  10.589
40260W        W 1923   9.726  26.594  10.485
40261W        W 1924  32.412  28.632  13.401
40262W        W 1925   0.744  41.295  13.541
40263W        W 1926   4.871  40.926   0.474
40264W        W 1927  11.343   6.404  11.545
40265W        W 1928  14.719  37.481  11.451
40266W        W 1929  16.760  28.042  14.856
40267W        W 1930  44.885   5.317  12.862
40268W        W 1931   0.403   0.859  14.938
40269W        W 1932  11.147   5.915  10.989
40270W        W 1933  30.622  33.413   4.687
40271W        W 1934  41.895  40.398   5.120
40272W        W 1935  12.824  13.816   1.280
40273W        W 1936   8.713  41.027  10.510
40274W        W 1937  28.576  26.051  12.928
40275W        W 1938   3.337  14.636   4.258
40276W        W 1939  37.403  28.169  11.449
40277W        W 1940  22.700   5.719  14.429
40278W        W 1941  32.515  13.781  14.506
40279W        W 1942  35.369   1.333   3.771
40280W        W 1943  24.683   4.425  11.588
40281W        W 1944  10.664  18.287   4.795
40282W        W 1945  26.068  20.582   3.246
40283W        W 1946  36.878   4.234  13.950
40284W        W 1947  41.815  31.900  11.091
40285W        W 1948  37.470  30.542   0.316
40286W        W 1949   5.272   7.820   1.815
40287W        W 1950  13.757  22.608  13.061
40288W        W 1951  36.081   6.791  14.421
40289W        W 1952  39.430  36.393   0.897
40290W        W 1953  40.474   9.842   1.281
40291W        W 1954   3.777  31.619   3.242
40292W        W 1955  26.958  40.406  12.965
40293W        W 1956   5.802  18.744   3.216
40294W        W 1957  20.227  44.824   1.925
40295W        W 1958   4.409  40.394   1.302
40296W        W 1959  26.481  22.646   4.789
40297W        W 1960  42.856  42.994   0.899
40298W        W 1961  17.700  22.243  12.488
40299W        W 1962   3.236   3.901  14.960
40300W        W 1963   0.265  16.782   1.818
40301W        W 1964  29.640  39.342  10.564
40302W        W 1965  26.020  32.519  14.882
40303W        W 1966  39.384  13.717  10.909
40304W        W 1967   4.339   7.877   3.351
40305W        W 1968  31.967   5.356  12.029
40306W        W 1969  10.789  22.187   2.868
40307W        W 1970   6.775  20.525  12.529
40308W        W 1971   8.677  28.442   1.330
40309W        W 1972  21.655   5.371   2.286
40310W        W 1973  17.594   9.684  12.933
40311W        W 1974   2.271   9.799   1.417
40312W        W 1975   9.720  33.066   1.753
40313W        W 1976  21.170  35.986   2.871
40314W        W 1977  13.267  14.655  12.893
40315W        W 1978   6.752  25.540  11.554
40316W        W 1979  34.923  19.754   5.164
40317W        W 1980  20.213   0.440   0.472
40318W        W 1981  42.997   4.823   4.344
40319W        W 1982  41.858  29.928  14.922
40320W        W 1983  28.454   0.977  13.542
40321W        W 1984  19.627  27.181   2.675
40322W        W 1985   6.346  17.714  14.850
40323W        W 1986   5.249  28.484  12.370
40324W        W 1987   8.767   0.982  13.322
40325W        W 1988  35.874  42.962   0.743
40326W        W 1989  44.796  25.105   1.244
40327W        W 1990   9.832  30.637   1.702
40328W        W 1991  43.465  35.543   1.725
40329W        W 1992  31.634  42.919  11.567
40330W        W 1993   8.806  43.003   4.642
40331W        W 1994  36.589   1.433   4.775
40332W        W 1995  24.992  31.045  13.467
40333W        W 1996   1.954   6.310   3.225
40334W        W 1997  25.015   4.265   4.193
40335W        W 1998   1.284  17.643   0.368
40336W        W 1999  25.150   6.912   1.407
40337W        W 2000   5.726   5.439   3.837
40338W        W 2001  11.364   5.208  13.886
40339W        W 2002  39.935  16.290   0.916
40340W        W 2003   1.942  34.113   0.741
40341W        W 2004  32.114  39.038   4.289
40342W        W 2005   9.176  43.980  13.911
40343W        W 2006   9.290  10.786   9.969
40344W        W 2007   8.335  28.452  11.008
40345W        W 2008  33.573  32.129  14.909
40346W        W 2009  40.955  12.689   1.797
40347W        W 2010  36.986  37.915   0.810
40348W        W 2011  26.604  31.118   3.869
40349W        W 2012  43.003  36.419   5.178
40350W        W 2013  34.040  32.063  10.002
40351W        W 2014  12.229  32.963  10.409
40352W        W 2015  21.073  14.319   9.542
40353W        W 2016  19.773   4.363  11.455
40354W        W 2017  18.168   7.902  10.562
40355W        W 2018  20.654   7.752  14.766
40356W        W 2019  25.551  34.923  11.095
40357W        W 2020  35.549  36.462   4.811
40358W        W 2021  40.473  43.921   4.273
40359W        W 2022  27.448  17.790   0.906
40360W        W 2023  28.083  44.432   2.724
40361W        W 2024  28.554  32.455   2.331
40362W        W 2025   6.847   5.820   2.722
40363W        W 2026  20.665  29.031  12.067
40364W        W 2027  34.475  42.291  14.308
40365W        W 2028  33.533   9.814   0.771
40366W        W 2029  10.253  36.970   0.831
40367W        W 2030  15.135  36.986   2.208
40368W        W 2031  27.641  22.578   4.311
40369W        W 2032   9.348  25.999  13.522
40370W        W 2033  42.454  15.780  11.584
40371W        W 2034  16.636  23.491  13.966
40372W        W 2035  37.952  28.627  11.051
40373W        W 2036  31.096  19.747  10.543
40374W        W 2037  44.779  23.148   4.746
40375W        W 2038  36.942  39.027   0.914
40376W        W 2039  18.183  37.463  13.057
40377W        W 2040  13.238   8.891  12.362
40378W        W 2041  10.803  44.776  13.309
40379W        W 2042  22.018  30.972  11.892
40380W        W 2043  13.256  30.426  10.495
40381W        W 2044   3.805   5.847  13.957
40382W        W 2045  19.562  42.962  14.908
40383W        W 2046   2.263  28.984   0.440
40384W        W 2047  39.836  31.129   1.889
40385W        W 2048  26.080  15.104   3.166
40386W        W 2049  30.489  11.762   1.228
40387W        W 2050  16.744  18.696   1.411
40388W        W 2051  40.990  17.125  13.031
40389W        W 2052  13.721  11.257   4.208
40390W        W 2053  36.466  20.555   2.301
40391W        W 2054  42.016   7.219   0.253
40392W        W 2055  43.499  37.358  14.015
40393W        W 2056   2.854  30.023   1.805
40394W        W 2057  18.588  18.610   1.271
40395W        W 2058   7.286  31.006  11.569
40396W        W 2059  20.165   9.818  10.435
40397W        W 2060  23.183  13.349   0.966
40398W        W 2061  29.116   7.668  10.970
40399W        W 2062  34.046  29.140  12.341
40400W        W 2063   5.397  32.992   1.768
40401W        W 2064   7.261   9.881  13.403
40402W        W 2065  40.357   1.975  13.064
40403W        W 2066   6.220  14.700  14.838
40404W        W 2067  19.139  14.744   0.962
40405W        W 2068   8.305   8.283  11.859
40406W        W 2069  26.085   9.854  12.901
40407W        W 2070  34.545  23.572  12.002
40408W        W 2071  13.288  28.540  12.940
40409W        W 2072  27.173   4.719   3.821
40410W        W 2073   1.354  31.483   0.921
40411W        W 2074  23.168  21.221  11.036
40412W        W 2075  14.260  27.194  10.923
40413W        W 2076   3.335  43.457   5.222
40414W        W 2077  21.709   7.669  11.507
40415W        W 2078  11.719  21.182   5.122
40416W        W 2079  26.633  18.684  13.029
40417W        W 2080  27.525  21.651   4.141
40418W        W 2081   6.867  23.125   3.243
40419W        W 2082  43.321   6.368   2.357
40420W        W 2083  20.525  37.889  12.513
40421W        W 2084  34.379   8.814  14.407
40422W        W 2085   6.411  22.628  11.980
40423W        W 2086   3.295   6.269   2.213
40424W        W 2087   4.911  26.067  12.887
40425W        W 2088  27.453  28.042   4.606
40426W        W 2089  14.280  14.146  13.331
40427W        W 2090  28.557  32.078   1.704
40428W        W 2091  34.545  12.672  12.957
40429W        W 2092  44.311  29.661  11.073
40430W        W 2093  21.624   8.674   3.744
40431W        W 2094   9.392  27.030   2.743
40432W        W 2095  27.073   9.198   2.893
40433W        W 2096  43.844   3.862  14.277
40434W        W 2097  37.400  32.928  12.503
40435W        W 2098  23.517  24.115   3.693
40436W        W 2099   8.839  27.175   4.333
40437W        W 2100  13.632  24.533   3.356
40438W        W 2101  21.060  14.187  13.486
40439W        W 2102  28.516   0.791  12.045
40440W        W 2103  12.683  44.932   2.311
40441W        W 2104  38.960   7.314  13.461
40442W        W 2105  24.157  40.979   1.248
40443W        W 2106  28.581  35.031   2.714
40444W        W 2107  36.403   2.339   2.749
40445W        W 2108  18.710  33.608  12.353
40446W        W 2109  36.984  35.417  14.775
40447W        W 2110  14.144  10.673  11.949
40448W        W 2111  13.825   9.789  14.002
40449W        W 2112   3.363  22.610   1.713
40450W        W 2113  31.960  33.034  14.412
40451W        W 2114  29.469  28.158  10.001
40452W        W 2115  38.914  23.552   3.643
40453W        W 2116  30.141  11.255   0.939
40454W        W 2117  13.708  12.316   4.179
40455W        W 2118  42.287  15.671  13.321
40456W        W 2119  15.241  12.350   3.337
40457W        W 2120  22.571  13.344   4.619
40458W        W 2121  36.926  36.031   1.230
40459W        W 2122  31.461  44.842   1.746
40460W        W 2123  39.455  34.906  13.505
40461W        W 2124  17.108  35.031   5.251
40462W        W 2125  10.173  15.746  12.553
40463W        W 2126  23.025  12.328  12.951
40464W        W 2127   6.696  19.549   1.704
40465W        W 2128  14.750  20.255  11.603
40466W        W 2129   3.806   8.363   2.301
40467W        W 2130  37.359  17.203   2.754
40468W        W 2131  28.459  41.525  11.417
40469W        W 2132  15.095   0.391   3.250
40470W        W 2133  29.047  20.057  14.975
40471W        W 2134  26.577  30.993   4.113
40472W        W 2135  23.062  36.391  13.476
40473W        W 2136  42.418  10.753  10.121
40474W        W 2137  17.162   2.952  11.085
40475W        W 2138  19.690  35.856   2.378
40476W        W 2139  10.658   6.872  13.970
40477W        W 2140  30.991   0.400   2.852
40478W        W 2141   7.796  33.468   2.243
40479W        W 2142  43.784  30.425  12.351
40480W        W 2143   0.316  22.150  14.778
40481W        W 2144  16.587   8.387  14.298
40482W        W 2145   0.291  28.669   3.327
40483W        W 2146  28.975  10.217  14.874
40484W        W 2147  41.410   7.284  14.312
40485W        W 2148  30.927  42.403   3.744
40486W        W 2149   9.660  21.060   1.787
40487W        W 2150  19.161   1.245  13.312
40488W        W 2151  21.189  33.438  10.957
40489W        W 2152  21.132  41.858  11.126
40490W        W 2153  20.244  39.448   2.241
40491W        W 2154  36.448  35.095  14.286
40492W        W 2155  13.109   6.748  14.308
40493W        W 2156  15.166  40.921   2.771
40494W        W 2157  38.477  41.016   3.204
40495W        W 2158  15.737  10.640   2.758
40496W        W 2159  14.660   4.311   3.221
40497W        W 2160  37.577   2.944   4.697
40498W        W 2161   2.262  15.114   2.901
40499W        W 2162  41.951  32.456   3.245
40500W        W 2163  34.492  11.270  10.409
40501W        W 2164   8.180  44.975  13.999
40502W        W 2165  19.753  44.387   3.718
40503W        W 2166  43.886  33.534  13.832
40504W        W 2167   7.291  42.801  12.072
40505W        W 2168  11.200  25.135  14.813
40506W        W 2169   4.445  32.601  10.936
40507W        W 2170   7.411  20.535  11.477
40508W        W 2171  23.156  26.993   4.289
40509W        W 2172  42.332  24.169  12.849
40510W        W 2173  33.074  39.487   0.388
40511W        W 2174  27.465  21.634  13.514
40512W        W 2175  41.905   8.704  13.861
40513W        W 2176   5.369   4.268   3.270
40514W        W 2177   3.224  12.841  13.528
40515W        W 2178  16.255  39.831  12.396
40516W        W 2179   8.367   4.441  12.885
40517W        W 2180  13.840  30.982   0.925
40518W        W 2181  21.569   3.865  12.972
40519W        W 2182  40.917  11.158   1.780
40520W        W 2183  16.217   8.746  10.611
40521W        W 2184   5.789  42.359  11.477
40522W        W 2185  41.401   2.867  11.921
40523W        W 2186  26.460  39.533   5.719
40524W        W 2187   7.251  10.339   4.188
40525W        W 2188  22.073  12.618  13.868
40526W        W 2189  43.487  34.563  13.410
40527W        W 2190  34.932  10.653   0.967
40528W        W 2191  26.139  18.183  14.949
40529W        W 2192  43.335  26.205  11.417
40530W        W 2193  40.007   0.898  12.878
40531W        W 2194  42.902   7.678   3.181
40532W        W 2195  37.057  11.229  11.496
40533W        W 2196  44.862  16.708   4.754
40534W        W 2197  24.198  26.955   2.688
40535W        W 2198  32.584  13.662  10.631
40536W        W 2199  33.121  11.864   4.200
40537W        W 2200  32.113  33.565   3.264
40538W        W 2201  35.946   3.365  11.874
40539W        W 2202   9.698  10.196   1.877
40540W        W 2203  41.476  34.533   0.244
40541W        W 2204  44.491   1.442  14.306
40542W        W 2205  23.027  20.257  10.555
40543W        W 2206   3.813  10.221   4.611
40544W        W 2207  22.515  11.718  11.582
40545W        W 2208  11.236  14.307  13.852
40546W        W 2209   2.955  43.479   2.339
40547W        W 2210  31.084  10.693   0.738
40548W        W 2211   7.724  20.743   3.716
40549W        W 2212  40.813  37.967  14.773
40550W        W 2213  11.298  41.389  11.471
40551W        W 2214  34.072  36.033  14.768
40552W        W 2215   8.756  27.643  11.383
40553W        W 2216   2.397   0.820  12.519
40554W        W 2217   0.448  35.365  11.096
40555W        W 2218  37.459  32.392   0.840
40556W        W 2219   4.220  41.940   1.843
40557W        W 2220  34.395  44.367  10.505
40558W        W 2221  28.945  36.365   2.899
40559W        W 2222  41.814  16.577  14.417
40560W        W 2223  27.582  39.394   0.290
40561W        W 2224  10.772  22.212  11.462
40562W        W 2225  21.559  28.669  13.452
40563W        W 2226  16.289  29.061  14.860
40564W        W 2227   8.748  36.017   0.756
40565W        W 2228   6.201  24.662  12.981
40566W        W 2229  40.346   3.300   0.930
40567W        W 2230  42.948  14.781  12.972
40568W        W 2231   3.906  12.764   0.449
40569W        W 2232  24.640  42.481  11.105
40570W        W 2233  27.515   4.296   0.404
40571W        W 2234  25.700  42.982  12.351
40572W        W 2235  38.040  17.160  12.846
40573W        W 2236  42.869  20.746   4.790
40574W        W 2237   0.778   7.181  14.941
40575W        W 2238   1.975  30.095   4.795
40576W        W 2239  44.776   4.270   2.789
40577W        W 2240  44.928  44.390  13.472
40578W        W 2241  42.788  12.754  12.894
40579W        W 2242  27.659   3.903  11.426
40580W        W 2243  19.743  11.295  10.997
40581W        W 2244  24.125  32.973   3.715
40582W        W 2245   8.828  20.156  10.628
40583W        W 2246  13.727  30.989   2.373
40584W        W 2247  31.601  25.974  11.553
40585W        W 2248  44.272   3.934  14.907
40586W        W 2249  26.028  41.851  12.054
40587W        W 2250  29.058  31.917  12.400
40588W        W 2251  17.264   1.780   0.931
40589W        W 2252  14.654   6.208   4.239
40590W        W 2253   9.805  10.272  14.865
40591W        W 2254  11.147   8.189  11.387
40592W        W 2255   5.729   6.213  13.893
40593W        W 2256  11.201   1.396   3.787
40594W        W 2257  17.608  30.485  14.881
40595W        W 2258  23.220  13.350   3.772
40596W        W 2259   8.816  42.383   0.391
40597W        W 2260   7.395   9.853  14.950
40598W        W 2261  19.731  34.450   0.818
40599W        W 2262  10.871  26.145   3.150
40600W        W 2263  16.126  41.939   2.834
40601W        W 2264  10.838  15.099  13.400
40602W        W 2265  19.163   0.819   3.183
40603W        W 2266   3.231  26.176  12.042
40604W        W 2267  42.901   3.410  12.580
40605W        W 2268  14.125  26.140  12.379
40606W        W 2269  15.774  36.846   2.770
40607W        W 2270  22.526  20.691  11.985
40608W        W 2271  36.446  40.382   2.399
40609W        W 2272  31.595  16.678  12.494
40610W        W 2273  18.239  18.756  11.041
40611W        W 2274   5.283  23.218   0.942
40612W        W 2275   6.203  33.050   0.951
40613W        W 2276  10.218  27.497  12.088
40614W        W 2277  22.068   7.350   2.366
40615W        W 2278  30.558   0.310  13.839
40616W        W 2279  37.857   1.865   1.434
40617W        W 2280  40.877  35.983   1.816
40618W        W 2281   9.343  35.001   4.289
40619W        W 2282  44.269  12.332  14.975
40620W        W 2283  24.713   1.326   0.405
40621W        W 2284  43.308  20.160  13.494
40622W        W 2285  18.567  41.989  12.510
40623W        W 2286   9.874   4.449  13.985
40624W        W 2287   0.494  19.548   0.329
40625W        W 2288  17.306  35.959   4.780
40626W        W 2289  13.802  19.100  11.932
40627W        W 2290  44.975  24.596   1.695
40628W        W 2291   2.445  11.190   1.228
40629W        W 2292  31.500   3.910   4.346
40630W        W 2293   4.916   6.193   2.251
40631W        W 2294  44.874  27.195  14.873
40632W        W 2295  15.264   3.404  11.429
40633W        W 2296  20.037   1.241   1.340
40634W        W 2297  39.890  37.903  13.374
40635W        W 2298  21.692  34.573   1.342
40636W        W 2299  21.521  40.359  12.948
40637W        W 2300  13.133  19.570   1.411
40638W        W 2301  31.428  33.085   1.827
40639W        W 2302   8.704  21.568   2.772
40640W        W 2303  30.051  19.616   0.909
40641W        W 2304  19.105  15.690  11.379
40642W        W 2305   5.381  11.366  13.476
40643W        W 2306  13.634  41.520  14.973
40644W        W 2307  21.724  13.830   3.717
40645W        W 2308  17.217   7.270  10.525
40646W        W 2309  35.444  42.009  14.424
40647W        W 2310  13.770  34.108   4.173
40648W        W 2311   0.254  25.042   2.215
40649W        W 2312   8.690  33.620  10.544
40650W        W 2313   6.882  24.704  14.013
40651W        W 2314  14.131  34.946  14.410
40652W        W 2315  19.061  44.818  12.862
40653W        W 2316  31.430  19.761  11.437
40654W        W 2317  26.189  29.617   2.811
40655W        W 2318   0.953  12.249   4.685
40656W        W 2319  13.286  33.122  13.412
40657W        W 2320   3.740  35.874  14.454
40658W        W 2321   5.220   8.849  12.994
40659W        W 2322  42.871  43.908   0.244
40660W        W 2323   8.333  40.840  11.978
40661W        W 2324   2.846  35.376  12.441
40662W        W 2325  35.876  36.969   2.299
40663W        W 2326  13.817  44.490  13.519
40664W        W 2327   9.716  19.174   2.785
40665W        W 2328  38.357  36.080  14.762
40666W        W 2329  14.809  30.013   4.298
40667W        W 2330   1.743  25.541  11.933
40668W        W 2331  35.052  41.484  14.484
40669W        W 2332  27.940  29.538   1.901
40670W        W 2333  11.691   8.216  13.903
40671W        W 2334  18.052   1.925  14.283
40672W        W 2335  38.442  22.248  13.832
40673W        W 2336  37.069   2.343   2.867
40674W        W 2337  44.285  34.584   9.932
40675W        W 2338  25.060  34.505   2.308
40676W        W 2339  33.034  44.397  10.962
40677W        W 2340  29.546  18.724  12.048
40678W        W 2341  11.372  41.018   2.302
40679W        W 2342  16.577  21.171  10.592
40680W        W 2343  15.687   9.840  13.925
40681W        W 2344  12.179  11.820  10.444
40682W        W 2345  40.894  15.272   3.852
40683W        W 2346  24.227   9.181   2.213
40684W        W 2347   5.870  27.608  11.995
40685W        W 2348   3.370  22.705   0.771
40686W        W 2349  20.153  33.548   3.652
40687W        W 2350   1.885  18.768  13.352
40688W        W 2351  15.253   8.778  13.365
40689W        W 2352  16.181  22.522   3.828
40690W        W 2353   1.337  43.368  14.353
40691W        W 2354  29.642  33.542  10.547
40692W        W 2355  35.383  20.177  13.388
40693W        W 2356  20.704   6.344  11.870
40694W        W 2357   2.904   6.233   3.648
40695W        W 2358   4.248  29.926   2.319
40696W        W 2359  26.486  11.296  14.480
40697W        W 2360  15.802  10.856   1.435
40698W        W 2361  40.871  26.065   1.334
40699W        W 2362   1.737  34.906  11.385
40700W        W 2363  24.043  35.093  14.476
40701W        W 2364  10.150  33.946  12.530
40702W        W 2365  23.151  11.147  14.274
40703W        W 2366  13.285  42.354  14.409
40704W        W 2367  40.311  38.053   4.165
40705W        W 2368   7.793  32.592   3.371
40706W        W 2369  14.147  34.481  13.812
40707W        W 2370  24.560   7.296   0.793
40708W        W 2371  11.139  35.991   2.215
40709W        W 2372  40.879  20.121   2.409
40710W        W 2373  44.385  10.319   3.374
40711W        W 2374   0.433  29.095   0.380
40712W        W 2375   9.758  11.258   3.159
40713W        W 2376   9.811  23.009  14.459
40714W        W 2377  41.869  35.580   4.240
40715W        W 2378  41.895  22.550  10.019
40716W        W 2379  32.416   4.712  12.577
40717W        W 2380   4.434  32.516  11.980
40718W        W 2381  31.560  42.308  11.049
40719W        W 2382  39.541  13.822   1.395
40720W        W 2383  13.790  14.243   0.418
40721W        W 2384  25.551  12.223  13.791
40722W        W 2385   5.269  30.646   4.136
40723W        W 2386  33.910  29.031   2.700
40724W        W 2387  11.627   0.944  11.077
40725W        W 2388  43.920  15.121   0.460
40726W        W 2389  42.332  14.702  11.511
40727W        W 2390  24.031  24.707   1.699
40728W        W 2391   9.695  25.644   0.246
40729W        W 2392  41.450  17.600  13.843
40730W        W 2393  28.584  43.280  10.158
40731W        W 2394  32.915  10.833  13.519
40732W        W 2395  22.177  43.340  14.409
40733W        W 2396  38.856  11.833  11.912
40734W        W 2397  17.063  24.673   1.278
40735W        W 2398  27.026  27.957   0.446
40736W        W 2399   6.232  40.924  12.947
40737W        W 2400  20.596   1.446  13.452
40738W        W 2401  38.830  34.066   3.763
40739W        W 2402  10.667  38.440   2.274
40740W        W 2403  17.676   4.924   4.655
40741W        W 2404  32.142   5.871   2.325
40742W        W 2405  14.301  14.289  12.561
40743W        W 2406  25.985  21.558  13.883
40744W        W 2407   4.413  13.179   3.727
40745W        W 2408   7.344  20.138   0.343
40746W        W 2409  15.099  20.587  12.352
40747W        W 2410   9.191   2.722   2.841
40748W        W 2411   0.399  19.087   2.882
40749W        W 2412  24.555  17.678  11.449
40750W        W 2413  15.267  31.913   2.675
40751W        W 2414   3.901  15.206  13.004
40752W        W 2415  17.691  44.315   2.714
40753W        W 2416  12.310   1.316   1.398
40754W        W 2417  21.688   6.352   0.793
40755W        W 2418   3.774   7.839  14.765
40756W        W 2419  27.083  21.592  13.873
40757W        W 2420  10.694  38.871  14.006
40758W        W 2421   9.825  20.743  14.332
40759W        W 2422  36.414  20.533  11.411
40760W        W 2423  36.572  17.592  12.989
40761W        W 2424  44.768  15.240   0.287
40762W        W 2425  23.189  24.118  14.970
40763W        W 2426  15.788  26.696  11.989
40764W        W 2427  15.183   9.152  10.420
40765W        W 2428   4.361  14.695  14.907
40766W        W 2429  11.693  20.541  10.087
40767W        W 2430  14.273  12.164  12.837
40768W        W 2431  12.218  20.743  11.010
40769W        W 2432   1.782  44.367   3.232
40770W        W 2433   7.371   6.369   2.823
40771W        W 2434  31.637  42.327   4.667
40772W        W 2435   0.961  10.723  10.115
40773W        W 2436  32.141  18.567  13.364
40774W        W 2437  20.107  27.973  13.408
40775W        W 2438   4.914   7.894  12.085
40776W        W 2439  35.363  44.990   4.250
40777W        W 2440   3.911  24.172  13.026
40778W        W 2441  30.010  23.092   9.555
40779W        W 2442  31.490   1.367  13.509
40780W        W 2443  32.476   4.762   2.834
40781W        W 2444  10.303  26.665  12.976
40782W        W 2445  22.021   5.383   3.234
40783W        W 2446  23.151  33.957  13.021
40784W        W 2447   6.188  32.890  11.084
40785W        W 2448  37.576   4.342  10.992
40786W        W 2449  26.459  40.340  10.985
40787W        W 2450  10.317  26.458   2.738
40788W        W 2451  35.513  31.112   4.727
40789W        W 2452  42.372  17.718  10.031
40790W        W 2453  18.240  38.881   4.812
40791W        W 2454  36.937  10.748  13.376
40792W        W 2455  29.470   0.250   4.330
40793W        W 2456  41.842  27.539  14.977
40794W        W 2457  12.129  37.917  12.934
40795W        W 2458  41.820  34.055   2.739
40796W        W 2459  28.068  37.912   0.255
40797W        W 2460  40.803  17.091  12.422
40798W        W 2461  24.644  34.429  12.953
40799W        W 2462  43.941  13.688  11.861
40800W        W 2463  43.344   5.910   4.721
40801W        W 2464  38.871  40.318   1.898
40802W        W 2465  43.493  43.306  14.422
40803W        W 2466  31.613  29.138   3.718
40804W        W 2467  15.748  15.214   9.945
40805W        W 2468   8.317  37.968  12.428
40806W        W 2469  33.016  26.468   4.795
40807W        W 2470  30.124  14.819  13.984
40808W        W 2471  10.754  17.670   2.719
40809W        W 2472   0.468  34.598   3.273
40810W        W 2473   3.269  26.204   1.780
40811W        W 2474   3.944  27.073  13.011
40812W        W 2475  34.381  26.551   2.801
40813W        W 2476  34.099  26.611  10.474
40814W        W 2477  11.795   2.785  13.338
40815W        W 2478  17.208   4.398   0.440
40816W        W 2479  18.596  39.375   3.720
40817W        W 2480  28.603  41.994   4.615
40818W        W 2481  24.542  13.693   1.790
40819W        W 2482  18.588  21.742   3.641
40820W        W 2483  15.093  13.798  12.499
40821W        W 2484  26.611  25.143  10.946
40822W        W 2485   2.935   1.868   1.403
40823W        W 2486  17.723  23.000  14.025
40824W        W 2487   9.268  44.917   4.117
40825W        W 2488   4.423  27.541   3.687
40826W        W 2489   6.879  23.556  11.914
40827W        W 2490   4.918  26.080   2.396
40828W        W 2491  43.907  28.442  14.421
40829W        W 2492   3.895  32.952   3.283
40830W        W 2493  24.502  22.035   3.236
40831W        W 2494  43.371  13.692   0.309
40832W        W 2495  30.515  31.501  11.479
40833W        W 2496   3.765  32.138  13.851
40834W        W 2497  39.373  38.999   3.169
40835W        W 2498  41.032  22.115  14.900
40836W        W 2499  38.836  38.522   0.738
40837W        W 2500   6.296  32.994  10.133
40838W        W 2501  14.097  26.594  11.944
40839W        W 2502  37.409   6.702  11.990
40840W        W 2503  42.795  27.674  12.454
40841W        W 2504  37.987  26.643   2.339
40842W        W 2505  25.104  33.565   4.195
40843W        W 2506   8.779  26.964   1.346
40844W        W 2507   4.931  11.237   9.960
40845W        W 2508  17.674  18.132   4.764
40846W        W 2509  31.574  40.802   4.794
40847W        W 2510  15.704  11.778   3.150
40848W        W 2511   5.244  38.926   1.399
40849W        W 2512  35.466  36.531   3.266
40850W        W 2513  35.492  23.562  12.847
40851W        W 2514  12.230  35.953   4.158
40852W        W 2515   7.226  38.488   1.434
40853W        W 2516  15.253  24.537  14.323
40854W        W 2517  17.718   5.724   1.760
40855W        W 2518  43.860  44.997  12.851
40856W        W 2519  35.009  25.477   4.832
40857W        W 2520  33.923  31.979   3.743
40858W        W 2521  33.886  40.041  12.058
40859W        W 2522   9.318  22.534   1.449
40860W        W 2523  24.134  43.927   1.825
40861W        W 2524   6.312  35.491   2.329
40862W        W 2525  31.938  23.564   0.459
40863W        W 2526  31.643   9.199   2.686
40864W        W 2527  34.024  38.492  12.825
40865W        W 2528  31.099   3.921  11.555
40866W        W 2529  35.066  27.470   4.223
40867W        W 2530  28.077  24.185  13.008
40868W        W 2531  29.558  16.619  12.483
40869W        W 2532   6.233  27.005  14.831
40870W        W 2533  28.627  40.441   9.498
40871W        W 2534  12.224  43.993  13.807
40872W        W 2535  28.680  39.959   5.291
40873W        W 2536  34.430  44.006  12.905
40874W        W 2537   7.327  28.057  13.429
40875W        W 2538  43.449  23.540  10.466
40876W        W 2539  26.199  41.838   2.835
40877W        W 2540  44.378  19.765   4.679
40878W        W 2541  37.842  42.852   5.143
40879W        W 2542  44.927   8.379  12.894
40880W        W 2543  31.568   8.897   3.763
40881W        W 2544  43.465   1.363   0.747
40882W        W 2545   6.736  17.604  13.532
40883W        W 2546  44.487  19.235  11.514
40884W        W 2547   4.358  38.435   2.673
40885W        W 2548  34.398  19.650   3.865
40886W        W 2549  44.473   3.451  11.060
40887W        W 2550  23.021   1.306  13.991
40888W        W 2551  14.648  14.709   3.227
40889W        W 2552  18.703  13.168  13.948
40890W        W 2553  25.686  14.254   4.838
40891W        W 2554  34.902  13.146   4.252
40892W        W 2555   0.908   4.259  14.859
40893W        W 2556  12.161  36.495   4.779
40894W        W 2557  11.806  20.074   1.290
40895W        W 2558  35.006  41.316   2.259
40896W        W 2559  43.486  23.056   0.462
40897W        W 2560  42.946  42.286   2.199
40898W        W 2561  39.991  21.136   0.323
40899W        W 2562  18.610  32.545   3.343
40900W        W 2563  34.408   7.854   1.428
40901W        W 2564  40.399  41.454  13.989
40902W        W 2565  26.461  35.467  13.481
40903W        W 2566  39.859   1.463   2.802
40904W        W 2567  23.241  40.434  14.453
40905W        W 2568   2.813   2.388  14.907
40906W        W 2569   6.427  18.718   3.270
40907W        W 2570  20.226  11.821   2.678
40908W        W 2571  20.642  20.561   2.389
40909W        W 2572  30.949  28.458   2.192
40910W        W 2573   3.403  25.502   3.300
40911W        W 2574  39.917  27.690   1.352
40912W        W 2575  27.188  11.354  12.946
40913W        W 2576   5.883   8.835   1.739
40914W        W 2577  28.591  25.578  13.881
40915W        W 2578   1.807   8.745   4.629
40916W        W 2579  31.631  17.115   3.846
40917W        W 2580  26.535  32.025   0.435
40918W        W 2581  16.686  43.384   4.337
40919W        W 2582  16.798  24.497  14.957
40920W        W 2583  33.484  26.484   0.766
40921W        W 2584  21.548  37.901  13.321
40922W        W 2585  19.744   0.315   3.276
40923W        W 2586  26.623  10.178   4.644
40924W        W 2587  43.283  28.111  10.906
40925W        W 2588  10.238   1.394  13.431
40926W        W 2589  18.568  38.415  13.333
40927W        W 2590  29.480  13.158   0.470
40928W        W 2591  39.990  38.981   3.305
40929W        W 2592  36.949   1.775  14.292
40930W        W 2593  16.671  26.114   0.348
40931W        W 2594  40.515  16.701  14.923
40932W        W 2595  37.422  30.914   5.208
40933W        W 2596  37.935   1.414   0.755
40934W        W 2597  19.166  30.414  11.107
40935W        W 2598  16.794   3.947   2.214
40936W        W 2599  18.062  11.851   1.305
40937W        W 2600  22.184  31.964  14.758
40938W        W 2601  44.309   7.320  12.506
40939W        W 2602   2.257   1.874  10.506
40940W        W 2603  25.962  43.450  12.875
40941W        W 2604  25.148  10.170   2.359
40942W        W 2605   3.842  36.903  14.493
40943W        W 2606   7.899   7.779   1.901
40944W        W 2607  10.378   5.235  14.832
40945W        W 2608  15.158  29.990   3.147
40946W        W 2609  16.756  38.462   4.782
40947W        W 2610   0.956  11.705  11.575
40948W        W 2611   2.364  16.661  11.587
40949W        W 2612  21.180   9.675  14.397
40950W        W 2613  31.545  15.321  12.844
40951W        W 2614   8.271  27.687  11.539
40952W        W 2615  40.476  15.301  10.634
40953W        W 2616  38.464  40.035   0.481
40954W        W 2617  28.523  16.224   2.698
40955W        W 2618  18.634   9.817  12.856
40956W        W 2619   3.929  34.545   2.825
40957W        W 2620  41.857  16.076  13.023
40958W        W 2621  26.017  11.682   4.328
40959W        W 2622  40.009   0.308  11.125
40960W        W 2623  38.523   6.304   4.773
40961W        W 2624  31.420  28.569  13.468
40962W        W 2625   1.924  21.727  14.371
40963W        W 2626  28.501  20.108   2.276
40964W        W 2627  41.534  16.585   3.761
40965W        W 2628  23.026  18.258  14.950
40966W        W 2629  35.059  26.465   4.157
40967W        W 2630   2.727  42.857   5.175
40968W        W 2631  21.223  10.794  10.915
40969W        W 2632  35.078   1.440  11.421
40970W        W 2633  42.025  19.616   4.658
40971W        W 2634  15.129  19.115   3.869
40972W        W 2635  25.478  31.104   2.875
40973W        W 2636  14.728  13.831   3.734
40974W        W 2637  24.083  30.925  11.020
40975W        W 2638  23.073  21.124   0.290
40976W        W 2639  35.391  42.821   0.297
40977W        W 2640  41.319  36.857   1.450
40978W        W 2641  19.536  25.022   4.656
40979W        W 2642  38.532   9.289  10.622
40980W        W 2643  14.118   6.919  10.445
40981W        W 2644  28.503  41.294  10.465
40982W        W 2645  40.422  21.642   0.939
40983W        W 2646  26.489  19.592  11.385
40984W        W 2647  16.679  33.875  13.413
40985W        W 2648  23.507  44.408   4.221
40986W        W 2649  17.625  28.591   4.807
40987W        W 2650  25.986  18.743   1.751
40988W        W 2651  23.622  43.468  14.014
40989W        W 2652  43.854  39.408  13.316
40990W        W 2653   5.420  34.987  10.054
40991W        W 2654  27.455   5.787  10.625
40992W        W 2655   0.759  15.617  14.878
40993W        W 2656   9.661  15.717  14.900
40994W        W 2657  22.537  28.513  12.413
40995W        W 2658   6.827  43.843  13.429
40996W        W 2659   1.391  10.856   3.292
40997W        W 2660  35.986  33.971  10.988
40998W        W 2661  32.093  20.102   2.310
40999W        W 2662  13.613  18.080   3.378
41000W        W 2663  24.018  30.969  11.390
41001W        W 2664  24.650  21.029   2.713
41002W        W 2665  44.859   9.256   2.823
41003W        W 2666  26.173  44.320  13.989
41004W        W 2667  31.977  17.656  12.932
41005W        W 2668  38.939  24.096  14.509
41006W        W 2669  16.283  14.259  12.389
41007W        W 2670  39.051  25.519   1.333
41008W        W 2671  36.054  33.581  12.399
41009W        W 2672  31.491  24.709   2.391
41010W        W 2673  42.908  21.222  10.136
41011W        W 2674  32.592  23.667  14.350
41012W        W 2675  41.369  39.366   0.945
41013W        W 2676  32.130  11.177  14.390
41014W        W 2677  20.562  18.575   2.351
41015W        W 2678  31.606   8.369   5.263
41016W        W 2679  17.296   8.776  10.476
41017W        W 2680  13.718  33.380  11.893
41018W        W 2681  35.601  38.566   3.773
41019W        W 2682  33.532  29.047   4.815
41020W        W 2683  39.367  14.108  10.557
41021W        W 2684  23.677  38.055   1.877
41022W        W 2685   0.966  22.513   3.788
41023W        W 2686  32.532  10.665   4.804
41024W        W 2687  39.886  13.247  14.385
41025W        W 2688   9.656  17.276   3.865
41026W        W 2689  18.750  11.347   0.942
41027W        W 2690  14.724  43.931   0.887
41028W        W 2691  15.271  42.845  12.053
41029W        W 2692   2.410  32.944  11.475
41030W        W 2693  43.925   3.236  12.832
41031W        W 2694   4.383  31.069   4.156
41032W        W 2695  24.494   1.895  11.430
41033W        W 2696  19.117  33.898   0.910
41034W        W 2697  22.997   3.349   0.362
41035W        W 2698  36.006  36.459  12.933
41036W        W 2699  37.060  40.001  12.416
41037W        W 2700  13.326   8.834   0.307
41038W        W 2701   4.215  26.545  11.873
41039W        W 2702  44.261   2.269   0.918
41040W        W 2703  29.027  12.319  11.543
41041W        W 2704   4.850   8.812   2.820
41042W        W 2705  25.486  29.645  13.931
41043W        W 2706  40.505   9.685   4.244
41044W        W 2707  17.688  28.488   2.233
41045W        W 2708  41.862  40.516  10.121
41046W        W 2709  37.544   9.273   2.687
41047W        W 2710  39.887  18.766   3.182
41048W        W 2711   6.220   7.756  11.096
41049W        W 2712  27.008  23.691  12.837
41050W        W 2713  37.350  14.611   2.365
41051W        W 2714   3.252   7.368   1.419
41052W        W 2715  33.588  29.667   0.819
41053W        W 2716   1.247   1.736   0.894
41054W        W 2717  13.685  11.824   4.207
41055W        W 2718   3.863  10.372   1.919
41056W        W 2719  26.617   5.285  14.903
41057W        W 2720  33.545  35.872  10.535
41058W        W 2721  33.483  36.458   4.330
41059W        W 2722   7.820  32.402  10.414
41060W        W 2723  10.189   6.704   1.223
41061W        W 2724  24.541   6.829  11.533
41062W        W 2725   4.885  27.496  14.453
41063W        W 2726  29.476  24.612  11.010
41064W        W 2727  20.608  43.842   0.840
41065W        W 2728  11.658   8.243  12.951
41066W        W 2729  17.215  27.193  12.388
41067W        W 2730   0.985  37.384  13.475
41068W        W 2731  21.514  31.982   9.966
41069W        W 2732   1.803  11.130  11.504
41070W        W 2733  17.721  21.062  12.949
41071W        W 2734  31.934  40.023   4.157
41072W        W 2735   6.238   3.909  10.566
41073W        W 2736  27.579  23.712   4.602
41074W        W 2737  39.542  14.327  12.011
41075W        W 2738   8.345  44.833  12.350
41076W        W 2739  33.423  31.464  13.965
41077W        W 2740  22.031  17.101  10.448
41078W        W 2741   3.314  38.557   3.371
41079W        W 2742  15.786  41.515   5.279
41080W        W 2743  21.542  27.511   0.387
41081W        W 2744  16.112  18.135   4.710
41082W        W 2745  41.915  40.904   1.312
41083W        W 2746  22.089  38.020  10.642
41084W        W 2747  24.493  44.419  12.837
41085W        W 2748  27.073  16.148   0.366
41086W        W 2749  29.974  19.100  13.419
41087W        W 2750   0.863  20.702   3.178
41088W        W 2751  35.533   1.434  13.414
41089W        W 2752  44.835  33.016   4.808
41090W        W 2753  14.760  27.622   1.820
41091W        W 2754  39.375   2.819  11.443
41092W        W 2755  30.443   2.239  14.339
41093W        W 2756  38.045  24.683  14.978
41094W        W 2757   3.886  27.019   4.704
41095W        W 2758  38.029  20.668   0.846
41096W        W 2759  36.411  18.056  12.565
41097W        W 2760  44.368  17.574   4.775
41098W        W 2761  30.634  25.085  11.109
41099W        W 2762  14.733  39.414   1.227
41100W        W 2763  44.340  23.592   9.924
41101W        W 2764   3.785  30.019   4.220
41102W        W 2765  20.714   1.773   1.801
41103W        W 2766  41.025  40.393  13.533
41104W        W 2767  24.607  27.452  11.494
41105W        W 2768  17.152  23.134  12.934
41106W        W 2769  29.598  36.391   1.363
41107W        W 2770  31.461  20.222  11.447
41108W        W 2771  42.952  18.144   2.784
41109W        W 2772  37.441  28.489   3.349
41110W        W 2773  12.130  37.447   3.657
41111W        W 2774  15.286  41.454  13.056
41112W        W 2775  14.762  19.284   2.247
41113W        W 2776  38.412  18.652   4.816
41114W        W 2777  36.406   4.428  11.877
41115W        W 2778  27.078  10.292  13.885
41116W        W 2779  27.510  44.348   1.443
41117W        W 2780   4.702   9.741  11.608
41118W        W 2781  15.600  24.609   0.942
41119W        W 2782  38.034   8.231   9.558
41120W        W 2783  12.153  44.492   2.268
41121W        W 2784  30.514  26.484  10.604
41122W        W 2785  26.492  36.440   4.116
41123W        W 2786  27.677  26.104   3.759
41124W        W 2787  38.019  13.700   3.629
41125W        W 2788  36.579  14.308  13.398
41126W        W 2789  35.465  42.479   2.308
41127W        W 2790   2.393  11.861   1.891
41128W        W 2791   0.919  32.918   3.261
41129W        W 2792  40.327  25.611  11.387
41130W        W 2793  14.835   9.276   1.856
41131W        W 2794  35.083   5.328   0.743
41132W        W 2795  44.472  17.175   1.892
41133W        W 2796  18.690  12.301   5.295
41134W        W 2797  37.376  25.181  14.792
41135W        W 2798  12.754   1.409   0.331
41136W        W 2799  38.011  40.008  14.995
41137W        W 2800  38.961   7.223  10.917
41138W        W 2801   5.270  26.585  11.872
41139W        W 2802  16.157  37.545  11.987
41140W        W 2803  35.425  24.586   0.248
41141W        W 2804  20.725  25.021   3.146
41142W        W 2805   0.751   1.412   1.261
41143W        W 2806  24.706  11.633   0.252
41144W        W 2807   8.860  37.578   3.859
41145W        W 2808  36.856  10.332  12.544
41146W        W 2809   2.750  39.050   4.128
41147W        W 2810  32.409  15.818  11.416
41148W        W 2811  34.445  21.220   0.422
41149W        W 2812  43.969   0.933  10.560
41150W        W 2813  20.677  32.048  13.058
41151W        W 2814   2.337  40.936   1.405
41152W        W 2815  38.497   9.772   0.324
41153W        W 2816  28.634   5.883  14.825
41154W        W 2817  39.825   7.757   2.823
41155W        W 2818  37.882  43.824   2.870
41156W        W 2819  37.503   0.988  14.880
41157W        W 2820  26.619   2.740   4.175
41158W        W 2821  40.533  32.971  10.622
41159W        W 2822  38.068  16.700   4.769
41160W        W 2823  21.742   5.307  13.970
41161W        W 2824  30.112  30.002   0.905
41162W        W 2825  16.590   8.675   0.312
41163W        W 2826  37.463  35.881  14.771
41164W        W 2827   2.380  32.544  13.425
41165W        W 2828  14.775  27.473  11.609
41166W        W 2829   5.268   1.312   4.730
41167W        W 2830  41.370  30.577  14.958
41168W        W 2831  22.507   9.244  12.961
41169W        W 2832   9.201  27.496   4.199
41170W        W 2833  39.477  15.168   0.342
41171W        W 2834  22.146   0.968  13.887
41172W        W 2835   1.319  37.955  12.935
41173W        W 2836   4.754  34.584  11.572
41174W        W 2837  28.993  32.965  13.937
41175W        W 2838  38.909   4.373  14.402
41176W        W 2839   4.281  40.397  14.958
41177W        W 2840  34.575  30.162   3.733
41178W        W 2841  21.097  44.493  11.964
41179W        W 2842  28.598  12.174   1.433
41180W        W 2843  37.051  32.558  11.078
41181W        W 2844  27.633   3.264  11.924
41182W        W 2845   9.884  43.395  12.938
41183W        W 2846  24.646  37.056   2.719
41184W        W 2847  18.284  21.649   1.853
41185W        W 2848  12.324  14.126   4.725
41186W        W 2849   5.254   9.791  10.528
41187W        W 2850   5.397  42.506   2.358
41188W        W 2851   6.744  42.960  13.497
41189W        W 2852  43.410  22.141   4.643
41190W        W 2853  29.012  20.671  12.539
41191W        W 2854   8.773   7.825   0.800
41192W        W 2855   6.710  20.185  11.494
41193W        W 2856  22.598  40.945  11.023
41194W        W 2857  13.342  10.659   3.787
41195W        W 2858  20.703  39.484   4.817
41196W        W 2859  43.834  28.525   2.397
41197W        W 2860   0.947  36.949  11.972
41198W        W 2861  37.994  19.081   4.267
41199W        W 2862  41.378  12.225   1.285
41200W        W 2863  32.919  24.086  13.545
41201W        W 2864  39.380  18.687   1.898
41202W        W 2865  38.456  18.715   3.344
41203W        W 2866  13.603   6.196  12.973
41204W        W 2867  18.108  26.985   4.218
41205W        W 2868  25.681  23.187   1.803
41206W        W 2869   7.710   9.757  11.906
41207W        W 2870   4.357  27.029  14.968
41208W        W 2871  39.958  33.424  12.412
41209W        W 2872  36.410  30.155   1.435
41210W        W 2873  39.033   0.327  13.426
41211W        W 2874  21.661  29.092  13.358
41212W        W 2875  11.258   0.433   0.939
41213W        W 2876  39.406  25.701   4.150
41214W        W 2877  30.058  16.586  12.349
41215W        W 2878  18.285  44.301  11.049
41216W        W 2879   7.884  22.084   0.915
41217W        W 2880  16.164  34.966  10.613
41218W        W 2881  36.887  32.970  13.834
41219W        W 2882  16.189   0.979   0.257
41220W        W 2883   0.988  24.211  11.610
41221W        W 2884  38.985   7.365   0.465
41222W        W 2885  30.599  30.130   0.424
41223W        W 2886   2.395  35.104  12.973
41224W        W 2887  23.063  15.759  10.417
41225W        W 2888  17.611  12.835   4.644
41226W        W 2889   4.298  31.096   3.820
41227W        W 2890  22.020  16.779   1.397
41228W        W 2891  26.557  25.098   4.288
41229W        W 2892  11.296  30.500  13.464
41230W        W 2893   9.745  35.477  14.965
41231W        W 2894  30.077  35.565  12.071
41232W        W 2895  38.490  26.686  10.423
41233W        W 2896  18.708  10.139   3.794
41234W        W 2897  29.555  20.559  11.899
41235W        W 2898  41.834  35.941   0.816
41236W        W 2899  22.039  23.553   1.326
41237W        W 2900   5.249  40.328  14.962
41238W        W 2901   6.209  20.130   2.895
41239W        W 2902  17.730  41.881   4.670
41240W        W 2903  41.410  14.244   2.215
41241W        W 2904  25.077  33.393  11.465
41242W        W 2905  32.428  30.441   1.894
41243W        W 2906   3.424  36.973   0.325
41244W        W 2907  42.458  25.011  14.364
41245W        W 2908  39.351  13.602   2.276
41246W        W 2909   2.445  23.160  13.026
41247W        W 2910  26.101  17.217  12.829
41248W        W 2911  12.682  35.985   0.451
41249W        W 2912  11.840  35.445  14.298
41250W        W 2913   1.450  14.311  14.430
41251W        W 2914  19.235  36.970   0.743
41252W        W 2915  14.176   1.919   0.310
41253W        W 2916  26.566  29.439   5.180
41254W        W 2917   8.396  23.073   3.723
41255W        W 2918  14.653  34.375   0.736
41256W        W 2919  14.129  29.549  11.555
41257W        W 2920  29.661  42.303  11.107
41258W        W 2921  10.678  32.043   1.761
41259W        W 2922   3.272   2.781   0.452
41260W        W 2923   8.803  43.363  10.616
41261W        W 2924  22.623  20.272  12.050
41262W        W 2925  36.486  36.072   4.648
41263W        W 2926  33.000  44.780   2.900
41264W        W 2927  19.724   5.823  13.797
41265W        W 2928   8.369  20.190  11.609
41266W        W 2929  42.515  34.400  13.330
41267W        W 2930  29.633  10.691   1.742
41268W        W 2931  33.924   9.811   3.672
41269W        W 2932  32.093  11.683   2.196
41270W        W 2933  44.946  13.603   9.533
41271W        W 2934   4.720  23.172   3.741
41272W        W 2935   9.250  37.396  13.849
41273W        W 2936  14.658  43.981  14.327
41274W        W 2937  41.351  38.514   2.793
41275W        W 2938  22.040  42.014  10.974
41276W        W 2939  28.968  19.113   0.439
41277W        W 2940   0.896  13.676   3.377
41278W        W 2941  34.040   3.339   1.401
41279W        W 2942  15.679  26.580  14.390
41280W        W 2943  40.408  22.155  11.976
41281W        W 2944  18.637  24.647   2.197
41282W        W 2945  26.522  17.652  12.474
41283W        W 2946  13.261  31.594   1.260
41284W        W 2947  11.165  28.645   4.699
41285W        W 2948  19.559  17.732  11.999
41286W        W 2949   3.870  41.010  11.913
41287W        W 2950  15.760   4.263   5.088
41288W        W 2951  33.497   9.649  14.833
41289W        W 2952  18.583  17.119   2.370
41290W        W 2953  36.011  25.149  12.531
41291W        W 2954  17.105  38.076  14.778
41292W        W 2955   7.785   5.394   3.786
41293W        W 2956   8.397  31.603  11.520
41294W        W 2957  21.672  13.201  13.826
41295W        W 2958  41.304  41.362   3.685
41296W        W 2959  11.714  15.177   1.313
41297W        W 2960  28.604  32.112  13.028
41298W        W 2961  24.990  34.064  14.418
41299W        W 2962  25.076   5.809  10.619
41300W        W 2963  42.329   9.365   3.235
41301W        W 2964   5.925  40.326   3.352
41302W        W 2965  23.148  33.115   4.628
41303W        W 2966  23.126  15.651  14.992
41304W        W 2967   6.352  30.974   4.132
41305W        W 2968  10.353  12.658  14.501
41306W        W 2969  22.522  18.783  14.382
41307W        W 2970  38.353  21.757  12.009
41308W        W 2971  17.625  26.149  11.423
41309W        W 2972  44.369   8.266   3.640
41310W        W 2973  38.381  31.139   1.247
41311W        W 2974  16.180  12.221  12.005
41312W        W 2975  34.905  23.180  12.983
41313W        W 2976  31.427  30.519  13.322
41314W        W 2977   0.313  35.522   0.859
41315W        W 2978  34.900  35.000   0.377
41316W        W 2979  17.792   6.896   0.757
41317W        W 2980  20.118  26.962   4.288
41318W        W 2981  32.591  39.034  13.003
41319W        W 2982  24.717  35.080   3.798
41320W        W 2983  27.673  14.601  10.506
41321W        W 2984   4.209   6.734   1.875
41322W        W 2985   1.455   0.276  14.918
41323W        W 2986  21.682   1.815  12.354
41324W        W 2987  41.475  43.465   1.428
41325W        W 2988  11.363  40.891  14.480
41326W        W 2989  14.180  20.255   1.824
41327W        W 2990  42.322  39.418  10.555
41328W        W 2991  44.852   8.745  11.447
41329W        W 2992  25.469  34.935   1.910
41330W        W 2993  25.575   1.800  11.458
41331W        W 2994  15.670  15.777   3.640
41332W        W 2995  28.070  14.309   3.305
41333W        W 2996  32.539  15.811   1.715
41334W        W 2997  16.186   7.907  13.036
41335W        W 2998   9.191  12.332  13.799
41336W        W 2999  39.516  17.132  11.045
41337W        W 3000  21.165   3.858   0.814
41338W        W 3001  37.854  29.425   2.865
41339W        W 3002   5.796  16.807   3.856
41340W        W 3003  10.856  32.052   2.814
41341W        W 3004  26.989  37.856   1.846
41342W        W 3005   1.794   0.893   3.810
41343W        W 3006   8.834   3.359   2.880
41344W        W 3007  15.735  41.372  12.410
41345W        W 3008  43.982   9.316   2.857
41346W        W 3009   9.209  20.100  14.339
41347W        W 3010  35.376   3.844  12.985
41348W        W 3011  14.690  20.064  12.558
41349W        W 3012   9.777  25.657   2.385
41350W        W 3013  17.222  24.987   1.299
41351W        W 3014  26.059  38.533  10.978
41352W        W 3015  31.969   6.278  12.419
41353W        W 3016   5.373  29.426   1.896
41354W        W 3017   6.327  28.175  11.593
41355W        W 3018   0.929  15.804   4.781
41356W        W 3019   7.207  34.379   4.805
41357W        W 3020  20.620  32.126  13.998
41358W        W 3021  24.174  11.665  10.569
41359W        W 3022  35.086  19.042   3.840
41360W        W 3023  22.538  28.999   3.208
41361W        W 3024  42.009  25.045   4.816
41362W        W 3025  14.777  27.574  14.895
41363W        W 3026   6.240   5.773   3.222
41364W        W 3027  37.483  44.436   0.471
41365W        W 3028  32.635   8.317   1.285
41366W        W 3029  19.236  29.978  12.060
41367W        W 3030  25.073  42.955   0.290
41368W        W 3031   8.297  23.571   3.782
41369W        W 3032  11.299  43.461   4.741
41370W        W 3033  41.816   1.746   1.887
41371W        W 3034   1.775  14.671   2.345
41372W        W 3035   6.270   5.807   0.750
41373W        W 3036  15.170  44.894   4.738
41374W        W 3037  32.428  34.058   3.789
41375W        W 3038   4.817  34.542   0.300
41376W        W 3039  20.164  35.984  10.451
41377W        W 3040  18.714  40.997   4.828
41378W        W 3041  43.813  21.146  11.002
41379W        W 3042  41.956  22.578   2.260
41380W        W 3043  11.669  20.061  12.044
41381W        W 3044  14.720   7.724   0.787
41382W        W 3045  27.656   9.207  12.471
41383W        W 3046  31.983  37.365  11.546
41384W        W 3047   1.358  21.598  11.566
41385W        W 3048  35.024  16.111   0.388
41386W        W 3049  19.629  37.527  10.618
41387W        W 3050  44.799  12.651  12.012
41388W        W 3051  40.947  16.794  14.767
41389W        W 3052  42.412   9.218  11.991
41390W        W 3053   8.737   3.360  12.927
41391W        W 3054  33.900  21.031   0.833
41392W        W 3055  40.806  21.573   4.181
41393W        W 3056  17.707  38.995   3.246
41394W        W 3057   7.873  39.326   1.926
41395W        W 3058  17.124  20.539   1.323
41396W        W 3059  40.896  34.420  10.584
41397W        W 3060  38.448  11.186  12.545
41398W        W 3061  39.496  39.854  13.384
41399W        W 3062   0.361  18.582   2.812
41400W        W 3063  22.548  12.636  14.763
41401W        W 3064  11.738  31.624   3.864
41402W        W 3065   5.259  37.571   4.757
41403W        W 3066  44.330  30.578   1.912
41404W        W 3067  23.523  11.863   2.373
41405W        W 3068  19.649  12.764  13.938
41406W        W 3069  31.073  28.594   0.252
41407W        W 3070  25.083  26.642   5.107
41408W        W 3071   9.775  23.621   2.869
41409W        W 3072  28.458   9.791   1.246
41410W        W 3073  39.406  41.495   2.286
41411W        W 3074  27.677   5.926  12.905
41412W        W 3075  16.210   3.443   1.269
41413W        W 3076  35.890   0.291   2.288
41414W        W 3077  41.424  30.116   2.233
41415W        W 3078   7.766  42.952  14.335
41416W        W 3079  21.683  35.988   1.746
41417W        W 3080  36.491   9.161  12.564
41418W        W 3081   3.932  17.172  10.596
41419W        W 3082  36.858  40.433  14.362
41420W        W 3083  31.416   6.798  13.985
41421W        W 3084  36.914  14.305  14.013
41422W        W 3085   9.828  41.485  13.806
41423W        W 3086  24.586   6.289   2.801
41424W        W 3087  14.709  38.506   2.353
41425W        W 3088  11.668  44.761  13.361
41426W        W 3089  41.849  21.227   0.846
41427W        W 3090   6.337  32.602  13.872
41428W        W 3091  19.750  37.947   3.199
41429W        W 3092  38.987  26.486   1.830
41430W        W 3093  33.436  11.711   2.272
41431W        W 3094  14.752  26.192  13.539
41432W        W 3095  12.829  44.886  12.070
41433W        W 3096  27.160  28.474  12.884
41434W        W 3097   9.814  19.120  12.873
41435W        W 3098  40.350  25.648  12.353
41436W        W 3099  19.648  15.213  14.016
41437W        W 3100  29.644  11.808   1.324
41438W        W 3101  34.863  41.813  12.059
41439W        W 3102   1.953  36.872  12.438
41440W        W 3103  19.674  18.259   4.174
41441W        W 3104   6.385  16.223  10.970
41442W        W 3105  31.121  19.099  11.600
41443W        W 3106  40.413  24.033  12.077
41444W        W 3107  15.211  24.611   4.806
41445W        W 3108  29.656  15.145  13.418
41446W        W 3109  24.524  33.924  14.813
41447W        W 3110  18.259  24.581  13.901
41448W        W 3111  18.179  22.108  12.384
41449W        W 3112  42.818  31.404   4.710
41450W        W 3113  40.839  18.240   3.725
41451W        W 3114  18.633  11.371  11.923
41452W        W 3115  17.626  16.568   2.290
41453W        W 3116   8.839  44.349  12.056
41454W        W 3117  14.825  16.600  11.110
41455W        W 3118  43.835  33.945   4.693
41456W        W 3119  20.198  22.735  12.918
41457W        W 3120  33.545  41.357   3.751
41458W        W 3121   0.887  19.115   4.809
41459W        W 3122  27.691  34.101   3.189
41460W        W 3123  43.414  37.455  13.439
41461W        W 3124  13.763  28.974   0.821
41462W        W 3125  26.180  18.134  10.412
41463W        W 3126  41.994  22.158   1.340
41464W        W 3127   7.796   1.736   4.615
41465W        W 3128  28.123   2.301   2.338
41466W        W 3129   3.315  20.048   2.319
41467W        W 3130  23.052   5.293  14.342
41468W        W 3131  26.601  20.126   3.185
41469W        W 3132   3.896  23.686  13.856
41470W        W 3133   5.417  13.154   2.756
41471W        W 3134   1.977   5.853   3.847
41472W        W 3135  15.129  29.942  13.017
41473W        W 3136  15.240  40.914  13.406
41474W        W 3137  31.990  43.990  10.893
41475W        W 3138  36.877  27.185  12.851
41476W        W 3139  18.546  24.179  13.314
41477W        W 3140  10.795  37.388  12.354
41478W        W 3141  31.050  33.538   4.643
41479W        W 3142  41.844  43.019  13.501
41480W        W 3143  31.572  10.717   4.269
41481W        W 3144  33.415   9.152  11.513
41482W        W 3145  24.502  17.674  14.384
41483W        W 3146  37.389  22.031   2.193
41484W        W 3147  26.622  30.103  11.926
41485W        W 3148  40.879   1.426   2.293
41486W        W 3149  37.955  36.402  14.827
41487W        W 3150  32.009   5.771   3.736
41488W        W 3151  34.947  11.653   3.721
41489W        W 3152  18.745  30.943   2.379
41490W        W 3153  12.774  36.067  11.460
41491W        W 3154  18.210  40.003   0.339
41492W        W 3155   2.837  31.976   4.782
41493W        W 3156   1.238  37.528   4.334
41494W        W 3157  44.936   9.394   3.152
41495W        W 3158  39.548  39.903  12.042
41496W        W 3159  43.821  11.155  10.490
41497W        W 3160   7.279  20.089  11.882
41498W        W 3161  15.204  43.009   4.274
41499W        W 3162   0.436  31.073   2.250
41500W        W 3163  24.568  23.080   2.807
41501W        W 3164  12.685   0.844   1.880
41502W        W 3165  41.444  35.414  10.507
41503W        W 3166   4.253  21.143  10.619
41504W        W 3167   9.674  39.319  12.855
41505W        W 3168   1.466  26.524   5.128
41506W        W 3169  43.011   1.346   1.755
41507W        W 3170  38.001  43.331  12.935
41508W        W 3171  40.799  30.046  11.494
41509W        W 3172  29.169  42.525   1.235
41510W        W 3173  33.613  13.221  10.425
41511W        W 3174   9.320   6.278  13.517
41512W        W 3175  22.725  21.025  14.980
41513W        W 3176  19.259  27.196   0.805
41514W        W 3177  37.004   4.707  11.896
41515W        W 3178  37.992  30.979   4.829
41516W        W 3179  38.043   3.224   1.739
41517W        W 3180   2.934   5.364  12.851
41518W        W 3181   6.777  16.806  12.077
41519W        W 3182  42.899  39.037   1.312
41520W        W 3183  20.634  23.529  12.830
41521W        W 3184   5.875  39.516   2.818
41522W        W 3185  17.555  23.628   0.741
41523W        W 3186  28.033   3.805   2.274
41524W        W 3187  27.679  30.644  12.874
41525W        W 3188  30.984  37.436  10.953
41526W        W 3189   0.453  38.830  10.576
41527W        W 3190  20.252  35.459   4.707
41528W        W 3191  38.933  19.041   1.437
41529W        W 3192  30.148   0.450  12.403
41530W        W 3193  32.091  28.588  10.504
41531W        W 3194  14.720  15.139   4.768
41532W        W 3195  38.840  25.578   3.789
41533W        W 3196  28.062  13.634   2.785
41534W        W 3197  30.543  18.234  10.048
41535W        W 3198   9.288   5.866   3.148
41536W        W 3199   2.339  35.107  11.577
41537W        W 3200  30.974  13.248   4.645
41538W        W 3201  39.398  29.051  13.354
41539W        W 3202  14.645  44.982   3.746
41540W        W 3203   8.730  22.024  11.460
41541W        W 3204   6.339  11.214  14.876
41542W        W 3205   9.716  25.994  12.849
41543W        W 3206  34.044  10.312  11.536
41544W        W 3207  18.267  13.658  10.023
41545W        W 3208  37.839  39.000   1.367
41546W        W 3209   4.268   7.812  11.990
41547W        W 3210   8.227  37.986  13.908
41548W        W 3211   3.258   6.798   2.777
41549W        W 3212  33.951  43.377   4.288
41550W        W 3213  19.140  43.356   4.744
41551W        W 3214  20.534  36.931  14.819
41552W        W 3215  39.820  36.099   2.857
41553W        W 3216  44.859  22.077   0.390
41554W        W 3217  37.428  34.043   3.802
41555W        W 3218  38.859   5.910   1.436
41556W        W 3219  30.647  39.939  12.452
41557W        W 3220  13.734  29.103  12.078
41558W        W 3221   7.221  26.603   2.692
41559W        W 3222  26.534  31.961  12.458
41560W        W 3223  29.459   0.927   2.226
41561W        W 3224  13.224  24.193   1.320
41562W        W 3225  10.286  38.933   2.289
41563W        W 3226  22.647  26.061  13.990
41564W        W 3227   4.887  34.045  14.309
41565W        W 3228  22.582  25.114  13.500
41566W        W 3229   7.295  27.946  11.461
41567W        W 3230  10.703  31.047  11.086
41568W        W 3231  20.204  33.512  14.348
41569W        W 3232  29.526  13.346  14.877
41570W        W 3233  40.988  10.838   3.344
41571W        W 3234  23.511  34.584   4.768
41572W        W 3235  18.563   3.777  13.358
41573W        W 3236  39.537  11.735   3.233
41574W        W 3237  15.810  36.882   1.222
41575W        W 3238  15.096  34.955   4.155
41576W        W 3239  10.264  10.667  13.531
41577W        W 3240  44.432  40.485   1.278
41578W        W 3241  29.158   0.364   0.906
41579W        W 3242  14.268  16.089  10.422
41580W        W 3243   2.315  12.282  14.362
41581W        W 3244  39.984  27.564  13.020
41582W        W 3245  37.472  38.450  11.587
41583W        W 3246  42.444  15.797  14.814
41584W        W 3247  30.963   1.874  12.835
41585W        W 3248  35.361   4.838   0.778
41586W        W 3249  37.989   2.292  14.789
41587W        W 3250   0.440  17.603   0.404
41588W        W 3251  37.876  18.621  12.023
41589W        W 3252   4.923  22.145  14.800
41590W        W 3253  23.192   4.919  11.010
41591W        W 3254  15.735  36.427  14.314
41592W        W 3255   1.823  43.461   2.271
41593W        W 3256   5.400  15.603   2.362
41594W        W 3257  22.571   4.240   1.231
41595W        W 3258   5.253  33.537   2.859
41596W        W 3259  42.410  36.011   3.370
41597W        W 3260  16.773  18.295   0.364
41598W        W 3261  35.014  12.292   2.878
41599W        W 3262  24.705  33.896   0.377
41600W        W 3263  19.534   2.878   1.803
41601W        W 3264  12.762  16.649   2.406
41602W        W 3265  30.414  14.784   2.707
41603W        W 3266  26.585  24.635   1.859
41604W        W 3267  43.506  10.871  14.306
41605W        W 3268  19.687  34.607  12.985
41606W        W 3269  11.813  13.692   2.863
41607W        W 3270   0.288  18.708   3.764
41608W        W 3271  33.940  39.542  13.001
41609W        W 3272  36.385  29.931  10.539
41610W        W 3273  13.669  43.434  13.542
41611W        W 3274  34.883  36.971  13.331
41612W        W 3275  32.533  27.033   4.166
41613W        W 3276  15.196  10.700   3.317
41614W        W 3277  24.666   0.807   2.832
41615W        W 3278  18.580  10.656  14.346
41616W        W 3279  31.596   3.840   3.238
41617W        W 3280  28.546  31.643  11.536
41618W        W 3281  32.522   5.409   1.411
41619W        W 3282   0.388  13.736  12.410
41620W        W 3283   8.791  19.195  13.968
41621W        W 3284  42.502  31.416   3.247
41622W        W 3285  19.597   0.458  11.557
41623W        W 3286  32.992  40.980  12.398
41624W        W 3287  21.608  25.548  13.350
41625W        W 3288  17.757  20.647   2.779
41626W        W 3289  25.546  27.628   2.387
41627W        W 3290  10.717  24.169   3.676
41628W        W 3291  35.015  19.193  11.523
41629W        W 3292   4.806  11.252  13.031
41630W        W 3293  25.070  16.171  11.587
41631W        W 3294  40.949  38.990  14.400
41632W        W 3295   7.180  21.705   4.749
41633W        W 3296  21.624   9.726  12.378
41634W        W 3297  32.454   7.699  11.491
41635W        W 3298   1.794  43.930   3.668
41636W        W 3299  30.019  22.708  11.939
41637W        W 3300  36.874  29.980  13.858
41638W        W 3301  44.779  16.232  13.946
41639W        W 3302  43.331  17.719  11.434
41640W        W 3303  30.602  16.571  12.977
41641W        W 3304  20.570  30.146  14.405
41642W        W 3305  43.277   9.311   1.745
41643W        W 3306  19.107  17.236   4.280
41644W        W 3307  18.052  43.320   1.766
41645W        W 3308  18.576  33.902  13.053
41646W        W 3309  17.101  31.439   0.783
41647W        W 3310  27.191  26.500   1.250
41648W        W 3311  41.351   6.843  14.842
41649W        W 3312  23.109   9.193  10.889
41650W        W 3313  35.015  22.204  10.585
41651W        W 3314   9.860  31.437   4.786
41652W        W 3315  14.143   2.852  14.404
41653W        W 3316   1.316  12.152  13.010
41654W        W 3317  27.451   0.353   2.394
41655W        W 3318   0.898  35.437  11.503
41656W        W 3319  15.110  21.158  14.931
41657W        W 3320   3.373  35.877   2.186
41658W        W 3321  29.544  27.044  11.397
41659W        W 3322  27.969  39.403  13.442
41660W        W 3323  28.674  42.353   3.254
41661W        W 3324  13.213   5.383   1.301
41662W        W 3325  21.115  42.859  10.925
41663W        W 3326   1.735  10.247  13.501
41664W        W 3327  41.322   2.312   2.725
41665W        W 3328   7.396  33.021  12.026
41666W        W 3329   1.834  40.353   0.762
41667W        W 3330  41.957  36.462  11.541
41668W        W 3331  28.550  36.965   0.268
41669W        W 3332   7.844  13.132  12.545
41670W        W 3333  38.976  17.292  11.432
41671W        W 3334  24.228  11.661  14.457
41672W        W 3335  27.583  38.048   1.342
41673W        W 3336  43.507  15.233  12.488
41674W        W 3337  25.668  25.678   1.905
41675W        W 3338  18.282  27.130   1.350
41676W        W 3339  22.520   2.230   1.776
41677W        W 3340   9.336  19.774  11.960
41678W        W 3341  32.077   7.244   3.159
41679W        W 3342  26.089  41.311   0.873
41680W        W 3343   2.856  31.535   2.263
41681W        W 3344  39.016  38.915  14.802
41682W        W 3345  44.992  39.997   4.688
41683W        W 3346  21.020  11.845   3.344
41684W        W 3347   2.730  16.711  14.027
41685W        W 3348   5.406   2.303   4.679
41686W        W 3349  12.623  35.006   1.255
41687W        W 3350  20.250  18.197  11.374
41688W        W 3351  43.300  18.187   0.763
41689W        W 3352  15.097  37.395  13.455
41690W        W 3353  13.333  10.671   5.225
41691W        W 3354  44.792  40.395   0.260
41692W        W 3355   8.370   8.317   4.322
41693W        W 3356   6.339  36.387  13.050
41694W        W 3357   5.293  14.620   0.905
41695W        W 3358  12.835  40.486  14.830
41696W        W 3359  26.079   3.930   1.775
41697W        W 3360  26.022  25.660   1.369
41698W        W 3361  19.646   1.284  11.967
41699W        W 3362   2.949  19.767  12.491
41700W        W 3363   1.470  23.602  14.303
41701W        W 3364  23.010  27.504  11.605
41702W        W 3365  16.110  16.189  14.763
41703W        W 3366  39.018  29.053   1.249
41704W        W 3367  28.556   2.722  14.448
41705W        W 3368  12.663  27.148  13.889
41706W        W 3369  27.085  10.335  11.459
41707W        W 3370   7.334  39.991   2.868
41708W        W 3371  31.905  23.188  14.385
41709W        W 3372  18.144   1.735  11.579
41710W        W 3373  13.696  21.698  13.462
41711W        W 3374  39.879  34.557   4.739
41712W        W 3375  36.990  43.500   2.364
41713W        W 3376  12.186  33.898  12.948
41714W        W 3377   7.818   6.233  14.875
41715W        W 3378  25.213  36.854  11.603
41716W        W 3379   0.350  26.175  14.970
41717W        W 3380   2.353  12.810  10.090
41718W        W 3381  38.930  15.190  11.452
41719W        W 3382   3.778  27.589  14.910
41720W        W 3383  27.515   0.976  14.766
41721W        W 3384   9.666  33.897   3.185
41722W        W 3385  35.987  15.710   3.342
41723W        W 3386  22.697  35.373   2.376
41724W        W 3387  43.292  44.477   1.727
41725W        W 3388  26.999  39.446   3.319
41726W        W 3389  35.052   1.859  11.480
41727W        W 3390  34.866  27.453  14.793
41728W        W 3391  26.076  40.905  14.850
41729W        W 3392  37.367  30.915   1.916
41730W        W 3393  20.051   4.311  14.331
41731W        W 3394   6.254  20.597   4.140
41732W        W 3395  43.413  27.672   2.183
41733W        W 3396  14.250   3.823  13.936
41734W        W 3397   9.183  22.133  11.448
41735W        W 3398  37.072   3.837  10.635
41736W        W 3399  43.469  18.651   3.191
41737W        W 3400  11.222   3.322  14.939
41738W        W 3401   4.289  22.509   2.347
41739W        W 3402  43.843  23.507   2.392
41740W        W 3403  40.800  22.016  13.887
41741W        W 3404  21.135   1.314  11.963
41742W        W 3405   9.177   9.192  12.443
41743W        W 3406  12.696   3.435  11.503
41744W        W 3407  36.427  26.180   4.250
41745W        W 3408   6.689   6.846   2.848
41746W        W 3409  40.922   2.362  12.484
41747W        W 3410  23.734  27.448   1.381
41748W        W 3411  14.772  16.179  14.892
41749W        W 3412  23.636  13.786  11.930
41750W        W 3413  13.808  36.446   3.160
41751W        W 3414  12.776  30.121  13.853
41752W        W 3415  39.842  20.540  10.528
41753W        W 3416  31.573  25.597   0.287
41754W        W 3417  22.668  15.102  12.480
41755W        W 3418  30.542  19.209   3.370
41756W        W 3419  33.020  11.703  14.469
41757W        W 3420  17.276   6.722  14.809
41758W        W 3421  27.020   9.268  11.413
41759W        W 3422  10.779  14.200  13.866
41760W        W 3423  28.106  40.898  11.388
41761W        W 3424   4.716  39.836   0.377
41762W        W 3425  34.422   6.690   3.673
41763W        W 3426   8.166  40.403  10.577
41764W        W 3427  29.550  42.961   4.156
41765W        W 3428  19.550  36.500   2.358
41766W        W 3429  24.121  29.514   3.652
41767W        W 3430   4.737  14.826   4.342
41768W        W 3431  43.437   8.374   2.733
41769W        W 3432  27.051   6.915   4.259
41770W        W 3433   7.772  29.949   4.652
41771W        W 3434  19.700  39.521   0.736
41772W        W 3435   7.787   7.388   0.359
41773W        W 3436   9.825  21.570  12.452
41774W        W 3437  23.003  18.639  10.539
41775W        W 3438  12.187   6.414   2.251
41776W        W 3439  25.692  33.879  10.493
41777W        W 3440  41.457  40.339  14.764
41778W        W 3441  20.630  21.619   1.435
41779W        W 3442  11.643  10.232   0.355
41780W        W 3443  27.451  32.563   1.434
41781W        W 3444  35.942  40.489   4.159
41782W        W 3445  20.034  19.096  11.594
41783W        W 3446  25.525  25.106   1.914
41784W        W 3447  32.570  13.687   4.137
41785W        W 3448  25.132  14.256   2.331
41786W        W 3449  17.669   4.255   1.213
41787W        W 3450  42.880   7.381  14.798
41788W        W 3451   9.326  17.614   0.324
41789W        W 3452  19.611  17.739   4.124
41790W        W 3453  14.694  36.939  14.412
41791W        W 3454  24.486  19.692  11.588
41792W        W 3455  18.555  34.948  11.059
41793W        W 3456  27.188  16.610   2.287
41794W        W 3457   2.826   4.388   4.272
41795W        W 3458  38.938   5.880  10.596
41796W        W 3459  28.493   7.389  10.974
41797W        W 3460  12.630  12.282  10.974
41798W        W 3461  25.098  18.164  12.872
41799W        W 3462  35.903   9.801   4.201
41800W        W 3463  14.677  25.600   4.332
41801W        W 3464   5.361  35.898   1.788
41802W        W 3465   3.367  43.957  13.972
41803W        W 3466  12.273  34.928   5.125
41804W        W 3467   8.834  14.264  14.998
41805W        W 3468   4.886  22.050   4.352
41806W        W 3469  17.643  27.185   2.730
41807W        W 3470  18.546  21.567  10.631
41808W        W 3471  13.624   4.835   4.221
41809W        W 3472  39.405  43.787  12.433
41810W        W 3473   9.652  12.351  11.425
41811W        W 3474   4.220  18.291   3.221
41812W        W 3475   9.210  19.094   2.833
41813W        W 3476   1.390  41.855   1.918
41814W        W 3477  13.164  20.554   2.189
41815W        W 3478  24.117  22.664  10.110
41816W        W 3479  18.099  17.224  14.968
41817W        W 3480  40.894  32.896   4.345
41818W        W 3481  30.100  43.821  13.368
41819W        W 3482  35.939  44.419   0.730
41820W        W 3483  42.360  19.281   1.325
41821W        W 3484  38.492  10.341  13.330
41822W        W 3485  12.814   1.854  10.417
41823W        W 3486  12.355  32.076   0.782
41824W        W 3487  20.665  24.010   1.267
41825W        W 3488  16.105  37.025   0.840
41826W        W 3489  23.521  25.061   1.410
41827W        W 3490  30.065  40.957   1.383
41828W        W 3491  43.316  34.415  14.354
41829W        W 3492  33.007  29.016   3.722
41830W        W 3493  43.282  15.238  11.584
41831W        W 3494  41.374   6.394  14.975
41832W        W 3495   5.777  17.672  11.377
41833W        W 3496  44.848  26.593  12.018
41834W        W 3497   1.891   5.271   4.197
41835W        W 3498  36.421  38.037  14.850
41836W        W 3499  16.639  20.055   0.965
41837W        W 3500  33.889   2.939   3.381
41838W        W 3501  13.615   5.373   2.311
41839W        W 3502  36.446  15.793   0.268
41840W        W 3503  30.055  41.860  11.521
41841W        W 3504  26.466  14.637  12.485
41842W        W 3505  38.898  36.877  10.599
41843W        W 3506  17.609  19.774  11.543
41844W        W 3507  37.931  11.631  13.978
41845W        W 3508  38.046  31.950   3.384
41846W        W 3509  18.258  36.014   1.320
41847W        W 3510   1.756  34.393  14.505
41848W        W 3511  24.085  40.307   3.676
41849W        W 3512  39.948   6.761  14.793
41850W        W 3513  36.877  44.337  13.043
41851W        W 3514   4.935  34.454  12.928
41852W        W 3515  22.074  23.602   3.383
41853W        W 3516  13.821  18.132  12.409
41854W        W 3517  17.148  11.797   0.330
41855W        W 3518  35.423  25.989  14.870
41856W        W 3519  37.893  25.972   0.959
41857W        W 3520  24.534  33.581   2.838
41858W        W 3521  24.227  23.138  12.477
41859W        W 3522   5.307   0.426  10.454
41860W        W 3523  43.847  20.718   0.796
41861W        W 3524  29.156  27.555  11.083
41862W        W 3525   6.770  29.925  12.521
41863W        W 3526  16.604   2.269  13.398
41864W        W 3527  25.197  10.380  13.968
41865W        W 3528  31.626   8.361  11.401
41866W        W 3529  11.294  11.776  10.507
41867W        W 3530  38.056  11.624   4.623
41868W        W 3531  44.928   8.262  14.800
41869W        W 3532   5.815  12.291  13.436
41870W        W 3533  15.295  18.165   2.355
41871W        W 3534  40.312  18.119   4.643
41872W        W 3535  21.237  43.430   3.337
41873W        W 3536   8.747  36.522   3.867
41874W        W 3537  17.729   6.874   1.324
41875W        W 3538  31.919   7.371   9.972
41876W        W 3539  32.974  43.842  11.100
41877W        W 3540   4.781  30.115  10.905
41878W        W 3541  34.409  29.064  10.455
41879W        W 3542  33.497  14.762  12.042
41880W        W 3543   8.693  34.042   3.833
41881W        W 3544  30.152  21.186  11.875
41882W        W 3545  22.146  12.128  11.087
41883W        W 3546  12.182  14.616  14.966
41884W        W 3547   6.234  17.669  12.095
41885W        W 3548   1.412  13.125   2.327
41886W        W 3549  41.369  41.832   3.760
41887W        W 3550  22.624  25.546  14.483
41888W        W 3551  24.036   3.805  11.894
41889W        W 3552   4.269  32.997  13.048
41890W        W 3553  21.670  12.827   1.700
41891W        W 3554  40.042  31.021   4.236
41892W        W 3555  35.075  24.636  12.015
41893W        W 3556  11.834  16.779  12.361
41894W        W 3557  16.794  26.534  13.532
41895W        W 3558  42.818   2.334   1.827
41896W        W 3559  44.963  41.347  14.786
41897W        W 3560   7.788  17.673  14.905
41898W        W 3561  25.178  27.657   9.938
41899W        W 3562  27.169  36.013   4.801
41900W        W 3563   7.845  38.913  11.596
41901W        W 3564  15.217   2.426   3.177
41902W        W 3565   2.936  15.084   0.775
41903W        W 3566  28.649  27.096  11.119
41904W        W 3567  17.293  25.993   4.723
41905W        W 3568   8.257   7.308   3.776
41906W        W 3569   9.697  26.167  13.406
41907W        W 3570   2.226  12.778  10.449
41908W        W 3571  37.077   2.291  14.772
41909W        W 3572  42.322  17.631   2.838
41910W        W 3573   3.759   5.757   0.772
41911W        W 3574  31.096   3.295   2.699
41912W        W 3575  14.817  23.113  12.507
41913W        W 3576  41.409  18.071   2.886
41914W        W 3577   9.308  14.209   0.760
41915W        W 3578  18.703  13.607   1.235
41916W        W 3579   3.779  41.854  12.430
41917W        W 3580  12.692   9.791  13.815
41918W        W 3581  30.568   5.276  10.471
41919W        W 3582  43.351  10.841  10.599
41920W        W 3583  39.025  35.872  11.984
41921W        W 3584  17.189  20.073  11.111
41922W        W 3585   4.741  18.694   5.116
41923W        W 3586  32.521  43.348   2.775
41924W        W 3587  38.044  11.366  10.933
41925W        W 3588  43.984  29.166  11.924
41926W        W 3589  41.489   0.756  14.459
41927W        W 3590   7.254  24.610   4.327
41928W        W 3591  41.997  29.062   4.349
41929W        W 3592  43.950  43.923   4.214
41930W        W 3593  10.856  28.609   4.171
41931W        W 3594  32.450  20.196  13.517
41932W        W 3595   1.808  12.773  14.381
41933W        W 3596  40.488  21.208  10.122
41934W        W 3597  35.044  31.484   2.379
41935W        W 3598  16.293  26.969   1.862
41936W        W 3599  32.463  15.683   2.864
41937W        W 3600   0.376  27.447  12.530
41938W        W 3601  22.509  10.361   3.851
41939W        W 3602   2.248  18.079   4.749
41940W        W 3603  20.648  12.132   2.743
41941W        W 3604  22.504  20.633  12.919
41942W        W 3605  25.174  32.094   3.371
41943W        W 3606  31.471  32.101  14.894
41944W        W 3607  16.706   0.873  11.595
41945W        W 3608  16.712  14.820  12.428
41946W        W 3609  16.791  33.490   3.670
41947W        W 3610  35.551  24.215  13.921
41948W        W 3611  43.779   9.240  14.923
41949W        W 3612  24.644  35.540  12.057
41950W        W 3613  18.207  10.764   4.794
41951W        W 3614  28.126  20.638  14.317
41952W        W 3615  19.732  43.421   1.330
41953W        W 3616  39.430  14.219   0.825
41954W        W 3617  25.164  21.595  11.051
41955W        W 3618  29.475  38.934   4.753
41956W        W 3619  25.138  42.307  14.289
41957W        W 3620  15.241  36.010   3.185
41958W        W 3621  36.974  33.101  14.309
41959W        W 3622   2.245  14.695  13.371
41960W        W 3623  28.486  29.951  13.480
41961W        W 3624   7.732  41.525  12.557
41962W        W 3625   4.345  21.631  11.897
41963W        W 3626  37.017  26.593  14.963
41964W        W 3627  28.592   9.881  10.431
41965W        W 3628  22.648  35.516   0.448
41966W        W 3629  18.643  39.472   4.665
41967W        W 3630  28.080  31.539  13.443
41968W        W 3631  16.111  39.392   0.372
41969W        W 3632  11.195   3.879  10.616
41970W        W 3633  34.594  12.293   1.846
41971W        W 3634  31.529  32.987   1.364
41972W        W 3635   2.946  41.909   4.732
41973W        W 3636   5.920   5.928  10.492
41974W        W 3637  21.526  20.261   1.853
41975W        W 3638  21.574  37.895   1.809
41976W        W 3639  15.317  25.003  14.877
41977W        W 3640   4.388   4.395  10.639
41978W        W 3641  16.255  17.130   4.158
41979W        W 3642   7.239  21.082   1.281
41980W        W 3643  37.064  11.792  12.433
41981W        W 3644  15.208  12.628   3.236
41982W        W 3645  18.661  20.187  13.401
41983W        W 3646  19.106  42.398   3.175
41984W        W 3647  21.680  13.719  12.030
41985W        W 3648  23.572  10.306   1.445
41986W        W 3649  16.131  20.582   1.859
41987W        W 3650   8.243  22.740   2.698
41988W        W 3651  21.554   5.421   3.329
41989W        W 3652  24.005  27.940  12.463
41990W        W 3653  13.328  20.192   3.762
41991W        W 3654  19.268  16.296   1.792
41992W        W 3655  36.564  14.305   4.835
41993W        W 3656   6.818  22.069   0.414
41994W        W 3657  32.908  21.180  11.866
41995W        W 3658   8.757  42.483  11.428
41996W        W 3659  11.736  20.525   3.713
41997W        W 3660   9.375  44.396   1.240
41998W        W 3661  32.024  17.153  13.328
41999W        W 3662  22.088   9.701  10.974
42000W        W 3663  44.412  19.708   2.355
42001W        W 3664   1.865  23.226  13.437
42002W        W 3665  16.172  23.118  14.978
42003W        W 3666  40.863  21.168   1.447
42004W        W 3667  29.023  29.068  11.129
42005W        W 3668  43.286   2.878  11.592
42006W        W 3669  21.558   7.732   4.802
42007W        W 3670  37.982  36.504  14.371
42008W        W 3671  29.095  26.561   0.751
42009W        W 3672  30.535  13.316   0.842
42010W        W 3673  36.391  38.935   0.360
42011W        W 3674   1.935  19.054  14.887
42012W        W 3675  43.347  28.655  10.583
42013W        W 3676  42.011  28.581   4.711
42014W        W 3677  18.101  21.170   3.685
42015W        W 3678  32.420  36.511   0.382
42016W        W 3679   2.469  34.914   2.791
42017W        W 3680   1.420  23.091  10.481
42018W        W 3681  31.013  37.389   3.182
42019W        W 3682  13.225  23.064   3.834
42020W        W 3683  28.112   2.946   3.751
42021W        W 3684  32.041   4.757  13.043
42022W        W 3685  40.537  36.950   4.237
42023W        W 3686  35.905  14.679   3.845
42024W        W 3687   7.384   7.807   5.308
42025W        W 3688  11.325  13.242   4.154
42026W        W 3689  27.186  40.838   3.773
42027W        W 3690  23.621  33.579  12.400
42028W        W 3691  37.990   4.426  14.949
42029W        W 3692   8.822  12.755  11.456
42030W        W 3693  42.394   9.676  12.973
42031W        W 3694   4.247  24.481   4.190
42032W        W 3695  33.483  26.055  10.472
42033W        W 3696   8.259  27.652   2.713
42034W        W 3697  25.475   3.764  11.003
42035W        W 3698   8.750  11.662  12.023
42036W        W 3699  27.667   9.716   3.353
42037W        W 3700  23.502  17.669  12.506
42038W        W 3701   9.826   9.238  14.501
42039W        W 3702  42.319  29.580  13.480
42040W        W 3703  25.157  24.701   2.793
42041W        W 3704  10.271  38.830   4.250
42042W        W 3705  40.918   6.807  14.383
42043W        W 3706  21.525  16.617   0.789
42044W        W 3707  19.673  26.523   4.209
42045W        W 3708  35.919  31.942  11.860
42046W        W 3709   1.397  10.361  14.331
42047W        W 3710  44.998  36.425   3.178
42048W        W 3711  28.013  18.110  14.375
42049W        W 3712  37.545   4.845  10.632
42050W        W 3713  19.628  34.049   0.912
42051W        W 3714  42.471  22.195   2.266
42052W        W 3715  20.112  10.238   0.430
42053W        W 3716  43.298  35.522   2.356
42054W        W 3717   7.189  44.800  11.376
42055W        W 3718  42.788  36.453  14.278
42056W        W 3719  38.028  28.516  12.506
42057W        W 3720   5.429  33.099   4.753
42058W        W 3721  42.371  33.540  12.877
42059W        W 3722  14.798   6.407  11.412
42060W        W 3723  29.053  27.080  14.024
42061W        W 3724  17.618  37.009  10.558
42062W        W 3725  39.051  28.674  14.443
42063W        W 3726  37.044  14.667   1.768
42064W        W 3727  14.244  36.446  14.773
42065W        W 3728  23.225  35.858   3.770
42066W        W 3729  21.263  15.162  10.644
42067W        W 3730   1.355   5.253  11.514
42068W        W 3731  44.946  44.379   2.300
42069W        W 3732  22.698  33.484  12.019
42070W        W 3733  38.422  38.991   0.312
42071W        W 3734  42.337  39.973  12.848
42072W        W 3735  16.122  44.445   1.878
42073W        W 3736  38.935  17.253  14.974
42074W        W 3737  40.312  20.692  14.334
42075W        W 3738  34.891  25.206   4.746
42076W        W 3739   0.768  15.719   2.703
42077W        W 3740  11.367   2.459  11.036
42078W        W 3741   6.331  15.651  10.555
42079W        W 3742  27.994  35.107   1.312
42080W        W 3743  19.257  19.707  13.447
42081W        W 3744   5.700  28.979  14.299
42082W        W 3745  12.733  38.454  12.927
42083W        W 3746   2.930  19.235   4.738
42084W        W 3747  31.593  12.179  13.794
42085W        W 3748   2.758   4.255  14.411
42086W        W 3749   2.402  34.397  10.540
42087W        W 3750  43.458  22.594   1.446
42088W        W 3751  31.137  23.623   0.299
42089W        W 3752   2.917  19.078   2.814
42090W        W 3753  42.995  14.799  14.298
42091W        W 3754  42.994   4.351   3.836
42092W        W 3755  38.010  17.777   4.709
42093W        W 3756  11.249   8.730  14.942
42094W        W 3757  12.752  42.032   1.923
42095W        W 3758  12.610  20.047  13.848
42096W        W 3759  16.773  29.424   0.879
42097W        W 3760  36.444   0.815   4.334
42098W        W 3761  42.509   3.811   0.909
42099W        W 3762  17.184   8.199  12.378
42100W        W 3763   2.458  42.960  12.078
42101W        W 3764  44.343  14.245  10.041
42102W        W 3765  16.288  29.969  11.499
42103W        W 3766   8.159   0.915  13.848
42104W        W 3767  34.095   8.369   1.862
42105W        W 3768  22.551  34.507  14.416
42106W        W 3769  10.187   1.921   0.955
42107W        W 3770  12.819   3.410  14.847
42108W        W 3771  24.191  12.626  13.974
42109W        W 3772   0.259  24.694   0.378
42110W        W 3773  23.208  19.555  13.896
42111W        W 3774   6.817  16.786  14.361
42112W        W 3775  42.446  33.612   4.155
42113W        W 3776  36.430  17.608   0.255
42114W        W 3777  24.590  28.938  13.916
42115W        W 3778  41.959  28.472  11.461
42116W        W 3779   1.930  16.743  11.389
42117W        W 3780  32.527   0.260   4.712
42118W        W 3781   2.471  19.094  14.872
42119W        W 3782  11.773  11.305  13.033
42120W        W 3783  23.027  16.636  10.934
42121W        W 3784  27.178   3.291   4.226
42122W        W 3785  30.052  37.438  12.839
42123W        W 3786  13.609  32.495   1.238
42124W        W 3787  11.728   3.895  12.507
42125W        W 3788  15.697  35.487   2.350
42126W        W 3789  16.791  14.629  12.004
42127W        W 3790  36.517  34.005   1.438
42128W        W 3791  20.629  18.764  11.570
42129W        W 3792   3.359  10.705  11.075
42130W        W 3793  13.734  23.665  12.551
42131W        W 3794   2.401  11.329   2.337
42132W        W 3795  32.052  23.668  10.408
42133W        W 3796  19.204  11.838   3.814
42134W        W 3797  37.008  17.209  14.344
42135W        W 3798  35.082  24.031  13.504
42136W        W 3799  40.518   4.788   5.268
42137W        W 3800  39.942   0.821   1.299
42138W        W 3801  39.963  33.512  10.567
42139W        W 3802  31.529  10.231  11.610
42140W        W 3803   6.863  27.963  13.313
42141W        W 3804  30.960  24.581   3.667
42142W        W 3805  39.859  34.039  14.865
42143W        W 3806   6.813  42.464  14.394
42144W        W 3807   0.820  38.965   2.839
42145W        W 3808  29.428   7.703  13.489
42146W        W 3809  43.987  10.340  11.542
42147W        W 3810   0.290  31.997   0.931
42148W        W 3811   3.282  17.210  14.827
42149W        W 3812   7.678  33.477   0.958
42150W        W 3813  35.050  25.075  11.010
42151W        W 3814  22.009  43.944   4.244
42152W        W 3815   3.716  14.829  11.565
42153W        W 3816  42.863  30.542  13.904
42154W        W 3817  43.999  30.996   1.862
42155W        W 3818   5.384  13.639   1.223
42156W        W 3819  13.321   3.808   2.379
42157W        W 3820   1.903   0.864  14.907
42158W        W 3821  41.919  36.880   2.810
42159W        W 3822  22.089  44.948  11.055
42160W        W 3823  39.334   0.799   2.816
42161W        W 3824  36.568   8.677   3.188
42162W        W 3825  25.141  19.667  11.039
42163W        W 3826  36.908  28.088  12.842
42164W        W 3827  28.513  22.237  14.439
42165W        W 3828  21.610   6.822  11.869
42166W        W 3829  26.529  14.791   1.300
42167W        W 3830  19.633  13.180  12.912
42168W        W 3831  31.973  19.700  10.499
42169W        W 3832   1.805  34.453  14.820
42170W        W 3833  38.361  11.799  12.558
42171W        W 3834  38.394  43.774   0.383
42172W        W 3835   0.312   7.799   5.244
42173W        W 3836   6.814  25.001   4.157
42174W        W 3837  26.608   6.184   0.845
42175W        W 3838  39.818  30.550  11.476
42176W        W 3839  21.560  18.758  10.927
42177W        W 3840  19.679  23.566   2.359
42178W        W 3841  31.515  13.260  14.416
42179W        W 3842  39.897  26.557   1.426
42180W        W 3843  12.682   8.758   1.213
42181W        W 3844  29.512  21.745  13.409
42182W        W 3845  44.377  36.958   4.838
42183W        W 3846   7.359  39.427   1.316
42184W        W 3847  30.571  38.361  12.836
42185W        W 3848  26.497   5.357  10.637
42186W        W 3849   6.245   3.228   2.703
42187W        W 3850  38.835   4.324  11.035
42188W        W 3851  22.741  17.711  13.847
42189W        W 3852  37.343  41.386  12.839
42190W        W 3853  29.670  26.079  13.795
42191W        W 3854   1.268   8.730  10.450
42192W        W 3855  12.268  33.956  10.630
42193W        W 3856  19.751  13.691  10.404
42194W        W 3857  44.961  33.077  14.000
42195W        W 3858  26.602  30.582   4.259
42196W        W 3859   9.737  37.888  11.044
42197W        W 3860  28.674  42.284   4.318
42198W        W 3861  36.940  40.517   1.403
42199W        W 3862  38.561  35.503  11.457
42200W        W 3863  24.663  26.091  13.427
42201W        W 3864   4.801  20.705  13.309
42202W        W 3865  12.333  36.909   9.480
42203W        W 3866  32.406  37.928  13.890
42204W        W 3867   7.855  17.144  13.534
42205W        W 3868  23.703  41.877   5.671
42206W        W 3869  22.007  31.489  11.998
42207W        W 3870  21.627   3.713   5.266
42208W        W 3871  28.097  27.109   0.761
42209W        W 3872  41.350  15.195   1.293
42210W        W 3873  13.659   0.966  13.027
42211W        W 3874  41.974  30.988  12.354
42212W        W 3875   4.893  34.118   1.794
42213W        W 3876  34.056  15.699  11.039
42214W        W 3877  39.996   8.245   0.428
42215W        W 3878   1.805   7.223   0.422
42216W        W 3879  18.221  14.124   3.296
42217W        W 3880  37.530   6.702  13.373
42218W        W 3881   6.872  37.391  12.080
42219W        W 3882  34.101   9.766  14.903
42220W        W 3883  30.992   8.822  13.327
42221W        W 3884  37.009  10.299   2.188
42222W        W 3885  27.636  15.646  13.325
42223W        W 3886  26.023  36.895   4.656
42224W        W 3887  18.727   5.905  14.383
42225W        W 3888  33.398  42.973   0.729
42226W        W 3889  34.497  30.596   3.723
42227W        W 3890  10.634  35.010   1.891
42228W        W 3891  29.596   6.372  10.434
42229W        W 3892  39.526  13.736  12.087
42230W        W 3893   6.762   1.859  10.428
42231W        W 3894  24.009   7.337  11.011
42232W        W 3895  32.574   3.379   1.217
42233W        W 3896  30.002  44.326  10.514
42234W        W 3897  13.231   7.773   5.206
42235W        W 3898  29.566  13.796   0.861
42236W        W 3899  15.581  16.317   1.214
42237W        W 3900  15.642  16.114   5.687
42238W        W 3901  17.557  13.156  12.556
42239W        W 3902  38.350   3.412   1.932
42240W        W 3903  26.958  23.126   5.119
42241W        W 3904  32.062  10.765  10.577
42242W        W 3905   3.369  31.633  13.518
42243W        W 3906   1.865  32.115  12.473
42244W        W 3907  43.476  41.950   4.614
42245W        W 3908   7.735  21.603   1.896
42246W        W 3909  31.941  28.978  10.056
42247W        W 3910  36.020  21.069  13.908
42248W        W 3911  43.010   7.339  11.907
42249W        W 3912  31.591   0.359  11.453
42250W        W 3913  28.032  13.776   1.394
42251W        W 3914  27.002  12.694   3.213
42252W        W 3915  24.070   8.777  12.427
42253W        W 3916  40.981  12.279  10.983
42254W        W 3917  34.866  32.637  14.789
42255W        W 3918  18.145  43.302   1.290
42256W        W 3919  41.457  13.184  12.861
42257W        W 3920  31.013  25.982  13.445
42258W        W 3921   5.876  30.545   2.755
42259W        W 3922   3.319  41.017   2.321
42260W        W 3923  20.154  26.155   0.813
42261W        W 3924   5.752  25.655  12.094
42262W        W 3925  15.109  31.511  12.427
42263W        W 3926   9.836  16.186   2.875
42264W        W 3927   7.734  15.803  14.916
42265W        W 3928  42.442  23.023  13.479
42266W        W 3929  30.644   6.778   4.175
42267W        W 3930  40.901  36.090  13.013
42268W        W 3931  16.146  34.025   3.354
42269W        W 3932  19.632  20.137  13.932
42270W        W 3933  17.265  40.953  12.095
42271W        W 3934  33.905  14.214   3.757
42272W        W 3935   3.223  10.239  14.301
42273W        W 3936  24.692  26.955  14.897
42274W        W 3937  44.269  19.775   3.210
42275W        W 3938  32.939  17.699   0.458
42276W        W 3939  11.779  37.927  11.504
42277W        W 3940   8.331  18.717   4.610
42278W        W 3941  32.923  41.947  11.452
42279W        W 3942  17.090  22.136   4.303
42280W        W 3943  28.599   1.959   2.316
42281W        W 3944  40.997   8.226  14.396
42282W        W 3945  40.897  20.677  13.797
42283W        W 3946  13.752   1.839   4.250
42284W        W 3947   7.872  34.424  10.457
42285W        W 3948  37.485  31.088   3.190
42286W        W 3949  22.056  13.302   0.806
42287W        W 3950  41.895  36.984  14.482
42288W        W 3951  22.109  31.949  12.518
42289W        W 3952  28.106  30.980   4.653
42290W        W 3953   6.883   3.798  13.485
42291W        W 3954  13.301  14.301  14.434
42292W        W 3955  35.017  32.556  10.899
42293W        W 3956  35.601  19.615  12.574
42294W        W 3957  39.978  10.842  14.007
42295W        W 3958  15.787   7.732  10.949
42296W        W 3959  20.258  26.659   3.318
42297W        W 3960  26.534  23.010   4.733
42298W        W 3961  19.274   9.774  13.514
42299W        W 3962  23.693  37.511  14.445
42300W        W 3963  39.854  16.764   2.181
42301W        W 3964  13.785  38.418  12.539
42302W        W 3965  23.042  28.024   1.874
42303W        W 3966   7.261  10.791  13.857
42304W        W 3967   8.803  25.992   3.351
42305W        W 3968   2.730  20.094  10.586
42306W        W 3969  38.552  40.934  10.636
42307W        W 3970   7.369   5.284   1.404
42308W        W 3971  39.517  27.576  13.804
42309W        W 3972   2.415   7.869  14.451
42310W        W 3973  22.058   3.946   5.191
42311W        W 3974  31.545   1.899  11.545
42312W        W 3975   7.706  35.486  14.783
42313W        W 3976  32.521  34.067   0.310
42314W        W 3977  19.165  16.658  13.347
42315W        W 3978  24.569  23.670  10.010
42316W        W 3979   5.315  40.971   3.338
42317W        W 3980  43.443  29.595  11.595
42318W        W 3981  16.113  42.451   4.208
42319W        W 3982  33.983   4.811   0.743
42320W        W 3983  43.889  36.938  13.026
42321W        W 3984  35.922  36.553   4.323
42322W        W 3985  27.519   6.917   2.207
42323W        W 3986  24.186  41.392   4.158
42324W        W 3987  18.627  18.642   4.741
42325W        W 3988   2.463  40.544  10.459
42326W        W 3989  21.133  43.784  12.376
42327W        W 3990  29.552  40.906   1.748
42328W        W 3991  34.613  10.682  12.835
42329W        W 3992   1.262   3.925   1.396
42330W        W 3993  42.951   3.295  11.556
42331W        W 3994   7.905  31.439  10.486
42332W        W 3995   6.237  40.978   2.771
42333W        W 3996  39.461  43.915   0.380
42334W        W 3997  33.996  37.953   3.364
42335W        W 3998  30.502  23.005  13.051
42336W        W 3999   6.317  24.613  14.437
42337W        W 4000  18.670  19.568  10.504
42338W        W 4001  27.028  40.437   1.716
42339W        W 4002  25.481  25.132   0.851
42340W        W 4003  32.997   1.872   1.701
42341W        W 4004  42.956  12.170  14.797
42342W        W 4005  29.525  18.739   3.750
42343W        W 4006  29.123  12.719  11.381
42344W        W 4007  39.884   8.305  14.377
42345W        W 4008  18.692  12.303  11.453
42346W        W 4009   4.888  13.821  10.919
42347W        W 4010   8.894   6.886   4.637
42348W        W 4011  20.566  38.859  12.445
42349W        W 4012  13.203   1.958  11.102
42350W        W 4013  41.394   0.429   0.785
42351W        W 4014  40.859  32.976   0.924
42352W        W 4015   5.850  13.149  11.120
42353W        W 4016  39.422   8.212  11.947
42354W        W 4017   1.837  25.026  13.445
42355W        W 4018   8.252  30.114   4.668
42356W        W 4019  28.040  26.608  13.336
42357W        W 4020  36.465  39.916  10.504
42358W        W 4021  12.125  36.975   2.262
42359W        W 4022  29.010  18.249   4.724
42360W        W 4023  24.053  41.530  11.882
42361W        W 4024  29.503  28.940   3.665
42362W        W 4025  38.394  38.980  11.501
42363W        W 4026  15.764  17.285   4.686
42364W        W 4027  29.104  21.626   1.764
42365W        W 4028   8.795  37.498  11.493
42366W        W 4029  19.688  23.547  12.946
42367W        W 4030  14.701  27.004  12.369
42368W        W 4031  13.725   5.821   1.246
42369W        W 4032  12.305  15.117  14.855
42370W        W 4033   4.776  28.115   3.187
42371W        W 4034  21.045  24.646  11.011
42372W        W 4035   1.826   5.917  13.905
42373W        W 4036   9.291   6.186   4.613
42374W        W 4037  21.260  22.655   3.362
42375W        W 4038   0.939  16.748   3.296
42376W        W 4039  35.433  28.073   1.318
42377W        W 4040  38.526  40.310   1.366
42378W        W 4041  21.520  34.021   3.198
42379W        W 4042  24.614   0.811   0.327
42380W        W 4043  18.681  40.395  11.381
42381W        W 4044   5.360   6.400   3.378
42382W        W 4045  30.932  40.898   2.849
42383W        W 4046  36.355   0.350   4.624
42384W        W 4047  28.620   0.941   2.339
42385W        W 4048   0.252   0.267  13.505
42386W        W 4049  40.520  11.625   2.885
42387W        W 4050  37.971   9.726   2.848
42388W        W 4051  24.194  17.075   4.633
42389W        W 4052  38.950  12.209  12.480
42390W        W 4053  41.903  15.804   4.673
42391W        W 4054  35.940  18.120   0.419
42392W        W 4055  44.822  36.538  11.414
42393W        W 4056  38.337  32.401  12.919
42394W        W 4057  13.177  32.409   1.336
42395W        W 4058  30.048  34.020   2.387
42396W        W 4059  23.534  13.252  11.958
42397W        W 4060   0.382  17.124   1.929
42398W        W 4061  31.080  32.636   0.861
42399W        W 4062  12.313  26.557  11.379
42400W        W 4063  31.482  20.114   2.269
42401W        W 4064  37.457  28.606  12.477
42402W        W 4065   9.207   3.929  14.293
42403W        W 4066  17.677   8.266   0.816
42404W        W 4067  18.213  18.672  13.823
42405W        W 4068  28.167  37.030   0.336
42406W        W 4069   4.314  43.812  13.393
42407W        W 4070  43.856  11.668  14.435
42408W        W 4071  12.794  33.421  14.358
42409W        W 4072   2.914   0.921  11.612
42410W        W 4073   0.948  44.460   5.183
42411W        W 4074   9.337  42.004  11.068
42412W        W 4075  16.595   9.256  12.001
42413W        W 4076  32.003  20.149  14.301
42414W        W 4077   5.241  44.476  11.608
42415W        W 4078  33.120  29.104   0.442
42416W        W 4079  21.244  33.486  11.559
42417W        W 4080   5.233   3.836  12.453
42418W        W 4081  40.466  37.388   5.120
42419W        W 4082   3.385  10.161   0.425
42420W        W 4083  25.099  34.441   0.760
42421W        W 4084  35.396   5.841   0.948
42422W        W 4085  41.992  26.539   5.208
42423W        W 4086  11.198  26.042   2.260
42424W        W 4087   7.687  24.677  11.068
42425W        W 4088  29.633  35.446   0.254
42426W        W 4089  41.345  34.909   1.881
42427W        W 4090  36.580  19.690  14.956
42428W        W 4091  27.468  34.553   3.831
42429W        W 4092  29.122  42.871   3.773
42430W        W 4093   7.716  40.862  14.458
42431W        W 4094  26.670  14.296  14.514
42432W        W 4095  39.846   8.677   4.813
42433W        W 4096  42.010  10.874   0.954
42434W        W 4097  30.590   8.800  13.021
42435W        W 4098   0.989  31.460   4.319
42436W        W 4099   4.828   3.851  13.062
42437W        W 4100  25.075  35.522   3.744
42438W        W 4101  27.113  22.197  14.826
42439W        W 4102  28.064  25.600   3.268
42440W        W 4103   8.220   2.389   3.855
42441W        W 4104  43.304  28.157   0.958
42442W        W 4105  35.392  34.088  10.489
42443W        W 4106  32.033  28.028   4.199
42444W        W 4107  12.210   4.837  11.009
42445W        W 4108  29.082  35.064  13.487
42446W        W 4109  30.156  35.512   1.914
42447W        W 4110   6.685  42.994  13.818
42448W        W 4111  42.313  42.435   1.238
42449W        W 4112  39.408  10.834  12.954
42450W        W 4113  12.677  31.549  13.973
42451W        W 4114  21.213  43.995  13.441
42452W        W 4115  37.875  34.379   1.738
42453W        W 4116  26.021   3.911   2.238
42454W        W 4117  23.108  17.773   3.737
42455W        W 4118  17.066  16.809   0.389
42456W        W 4119   6.404   7.237   3.159
42457W        W 4120   1.288  19.063  11.044
42458W        W 4121  31.642   9.748  14.953
42459W        W 4122   2.337  10.761   1.894
42460W        W 4123  15.204  23.180   2.187
42461W        W 4124   6.677  23.204  12.033
42462W        W 4125  30.966  17.096  13.490
42463W        W 4126  23.578  12.156   1.421
42464W        W 4127  35.993  11.176   0.779
42465W        W 4128  43.889  39.486  13.845
42466W        W 4129  16.682  22.148   0.467
42467W        W 4130  20.143  31.551   0.251
42468W        W 4131  31.006  14.626   0.804
42469W        W 4132  28.120  31.072   1.900
42470W        W 4133  18.123  13.674  13.406
42471W        W 4134  13.337  27.561  12.510
42472W        W 4135  24.088  43.955  14.445
42473W        W 4136   8.213   1.483   0.471
42474W        W 4137  39.812   0.392   2.405
42475W        W 4138  43.976   3.880  11.585
42476W        W 4139   8.712  23.076   1.744
42477W        W 4140  44.002  20.200   0.952
42478W        W 4141  23.537  20.648  14.433
42479W        W 4142   3.228  10.653   0.475
42480W        W 4143  10.706  14.692  14.968
42481W        W 4144  43.335  29.985   0.453
42482W        W 4145  19.220  11.290   0.312
42483W        W 4146   8.171  12.675  12.835
42484W        W 4147  14.238  13.107   2.691
42485W        W 4148   7.778  26.493  14.934
42486W        W 4149  41.901  19.731  12.838
42487W        W 4150  12.723   1.957   4.208
42488W        W 4151  19.732  22.086  14.839
42489W        W 4152  30.912  24.699   0.740
42490W        W 4153  20.685  27.161   3.258
42491W        W 4154  20.084   3.337   1.249
42492W        W 4155  16.217   6.753  12.473
42493W        W 4156   4.331  38.821   3.814
42494W        W 4157  23.082  36.013  13.054
42495W        W 4158  44.427  13.770  10.047
42496W        W 4159  20.070  33.430   0.797
42497W        W 4160  32.631  14.746   4.252
42498W        W 4161   8.706  12.830  13.860
42499W        W 4162  12.792   5.421  14.382
42500W        W 4163  32.464  20.141   1.774
42501W        W 4164  14.175   9.866   3.656
42502W        W 4165  17.066   7.385  14.814
42503W        W 4166  40.415  39.824  13.878
42504W        W 4167   0.851  18.104  13.431
42505W        W 4168  43.832  40.837   3.246
42506W        W 4169  12.724   1.288   2.372
42507W        W 4170  26.160  29.642   4.773
42508W        W 4171  16.247   1.265   1.399
42509W        W 4172  28.050  34.096   0.878
42510W        W 4173  24.988  22.601   5.186
42511W        W 4174   2.291  20.084  13.409
42512W        W 4175  29.139  18.141  12.389
42513W        W 4176  10.250   2.788  10.437
42514W        W 4177  39.932  10.664   1.782
42515W        W 4178  25.026  11.220  14.960
42516W        W 4179   3.767  35.973  13.921
42517W        W 4180   9.680  32.992   0.435
42518W        W 4181  10.267   4.849  10.607
42519W        W 4182   0.288   8.744   1.221
42520W        W 4183  16.208  19.771  11.416
42521W        W 4184  16.132  38.868   1.706
42522W        W 4185  37.469  20.162   0.373
42523W        W 4186   2.312  32.626   0.433
42524W        W 4187   4.757  30.451  11.381
42525W        W 4188   3.954   8.748  10.020
42526W        W 4189  29.428  27.988   0.262
42527W        W 4190  12.833  26.101   3.359
42528W        W 4191   8.202  41.462   3.728
42529W        W 4192   1.776  36.363   0.375
42530W        W 4193  25.053  23.694   9.514
42531W        W 4194   3.897  14.171  13.010
42532W        W 4195  30.003   2.403  14.328
42533W        W 4196  18.659  11.729   3.386
42534W        W 4197  15.162  39.357  10.945
42535W        W 4198   8.797  22.539   1.364
42536W        W 4199   6.395  27.182  14.487
42537W        W 4200  33.383   5.245   2.407
42538W        W 4201  34.385  35.896   1.724
42539W        W 4202  25.134  10.382  14.880
42540W        W 4203  36.555  34.028  12.912
42541W        W 4204  14.326  27.049   2.192
42542W        W 4205  42.010  15.208  14.425
42543W        W 4206  32.931  13.325   4.598
42544W        W 4207   5.735   3.948  10.517
42545W        W 4208  31.451  26.494  10.993
42546W        W 4209  22.662  34.386   0.420
42547W        W 4210  42.903  10.276   5.706
42548W        W 4211  31.523   6.396   3.306
42549W        W 4212  23.618  41.912   1.437
42550W        W 4213  22.687   0.386   1.717
42551W        W 4214  42.953  38.884  11.046
42552W        W 4215  25.030  23.192   4.197
42553W        W 4216  13.170  38.351  14.023
42554W        W 4217  31.495  17.082  13.506
42555W        W 4218   4.257   5.389  12.368
42556W        W 4219  44.485   2.429  14.988
42557W        W 4220   4.911  31.981  13.831
42558W        W 4221  38.000   1.309   3.323
42559W        W 4222  28.053   8.185  13.027
42560W        W 4223  40.997   6.903  11.868
42561W        W 4224   5.228  28.934  12.021
42562W        W 4225  18.588  16.803   4.819
42563W        W 4226  13.735  29.130   2.892
42564W        W 4227  44.399   3.392   0.458
42565W        W 4228  19.185  28.976  14.314
42566W        W 4229  32.066  35.915   2.190
42567W        W 4230  38.048  30.659   2.718
42568W        W 4231  14.178  19.560   0.859
42569W        W 4232  33.541  36.490  12.857
42570W        W 4233  30.520   6.839  11.893
42571W        W 4234  42.889  25.192  10.445
42572W        W 4235   6.395   3.374  14.452
42573W        W 4236  33.896  39.518   2.714
42574W        W 4237   1.342  16.169  11.577
42575W        W 4238  29.579   1.756   3.747
42576W        W 4239  28.182  13.312   4.826
42577W        W 4240   2.293  25.608  13.471
42578W        W 4241  32.080   6.276   4.739
42579W        W 4242  17.210  31.532   4.659
42580W        W 4243  14.704  24.160  14.820
42581W        W 4244  15.785   6.854  11.373
42582W        W 4245  23.998   5.907   1.799
42583W        W 4246   3.868  13.811   0.871
42584W        W 4247  22.518  16.600   9.949
42585W        W 4248  34.439   1.838  12.551
42586W        W 4249  19.732  23.702   3.687
42587W        W 4250   5.729   1.887  11.011
42588W        W 4251  16.163  11.842  13.894
42589W        W 4252  37.087  40.865   2.832
42590W        W 4253   4.829  43.003  13.939
42591W        W 4254  20.129  12.303   1.735
42592W        W 4255  21.237  12.197   2.901
42593W        W 4256  41.787  38.839   1.738
42594W        W 4257  33.064   5.265   2.294
42595W        W 4258  15.112   6.203  14.436
42596W        W 4259  36.384   0.844   2.870
42597W        W 4260   2.451   3.907   0.382
42598W        W 4261  34.565   4.291  14.297
42599W        W 4262  13.338  33.384   1.798
42600W        W 4263  22.174  31.997   5.145
42601W        W 4264   2.953  33.105  12.483
42602W        W 4265  37.558  17.799   2.391
42603W        W 4266  13.834   2.962  10.614
42604W        W 4267  32.118   2.760  12.032
42605W        W 4268  18.633  24.608   3.740
42606W        W 4269   6.918  13.262  11.977
42607W        W 4270   5.296  20.713   1.437
42608W        W 4271  23.668  19.730  12.079
42609W        W 4272  19.234  33.516   3.261
42610W        W 4273  44.815  10.316   3.269
42611W        W 4274   7.170  16.797   1.746
42612W        W 4275  13.671   0.875   4.628
42613W        W 4276  25.470  21.258   1.225
42614W        W 4277  23.706  36.593   2.325
42615W        W 4278  26.667   4.429   2.789
42616W        W 4279   1.469  41.521  13.438
42617W        W 4280  36.082  12.857  14.949
42618W        W 4281   9.806  19.675   2.226
42619W        W 4282  44.362  43.894  11.065
42620W        W 4283  38.541  22.098   4.616
42621W        W 4284  32.120  40.050   3.750
42622W        W 4285  28.488  26.652  12.421
42623W        W 4286  38.948  25.978  13.480
42624W        W 4287  27.577  31.076  12.467
42625W        W 4288  16.306   2.298  12.927
42626W        W 4289  15.208  33.956   1.914
42627W        W 4290  14.668   7.893   9.978
42628W        W 4291   0.799   7.717  14.965
42629W        W 4292   4.759  14.096  14.989
42630W        W 4293  42.829  20.165  13.489
42631W        W 4294   1.393  25.531  10.524
42632W        W 4295  20.643  27.632  13.366
42633W        W 4296  26.966   3.948  14.308
42634W        W 4297   2.963  11.309  14.379
42635W        W 4298   4.333  12.141   4.206
42636W        W 4299  12.752  33.560   1.740
42637W        W 4300  41.990  19.647   4.268
42638W        W 4301  42.029  40.342   3.868
42639W        W 4302  44.945  19.257  12.042
42640W        W 4303  17.104  29.518   0.764
42641W        W 4304  25.968  21.743  11.491
42642W        W 4305  35.570   3.765   9.656
42643W        W 4306  10.715  21.665  13.980
42644W        W 4307  20.088   9.755  11.859
42645W        W 4308  32.105  10.306  11.589
42646W        W 4309  26.185  14.229  13.834
42647W        W 4310  11.131  33.476  11.108
42648W        W 4311  30.473  16.162   3.307
42649W        W 4312   4.357  34.974   0.774
42650W        W 4313  34.111  21.709  11.970
42651W        W 4314  38.554  21.207   3.686
42652W        W 4315   9.361  42.419   3.386
42653W        W 4316  43.966  44.365  12.026
42654W        W 4317  23.500  12.650   4.668
42655W        W 4318  23.072   0.753   4.216
42656W        W 4319  16.652  26.509   3.364
42657W        W 4320   2.457  37.977  12.419
42658W        W 4321  43.378   3.232   0.322
42659W        W 4322   1.874  41.996  12.010
42660W        W 4323  26.564   0.279   3.752
42661W        W 4324  30.593   0.410  10.491
42662W        W 4325  16.072  40.421   2.331
42663W        W 4326  42.955  32.104   2.752
42664W        W 4327  25.558  31.431   3.746
42665W        W 4328  19.759  38.887   3.155
42666W        W 4329  10.828  34.446  12.827
42667W        W 4330  43.414  34.397   4.743
42668W        W 4331  16.204  10.796  10.969
42669W        W 4332  30.119   3.250   1.232
42670W        W 4333   9.351  42.917  11.866
42671W        W 4334  38.963  32.065   3.215
42672W        W 4335  21.713  38.919   2.715
42673W        W 4336  36.963  12.351   1.345
42674W        W 4337  26.694  39.541   3.271
42675W        W 4338  21.647  39.470   0.276
42676W        W 4339  42.309  36.042   4.292
42677W        W 4340  26.639  18.075  14.916
42678W        W 4341   1.827  16.782  11.935
42679W        W 4342  30.005  34.082  14.833
42680W        W 4343  19.646  26.982   3.859
42681W        W 4344  30.958  29.131  11.068
42682W        W 4345   7.194   3.742   0.771
42683W        W 4346  40.926  20.690  12.556
42684W        W 4347  17.159  28.615  14.779
42685W        W 4348  33.431  16.153   2.797
42686W        W 4349  14.108  30.055   0.480
42687W        W 4350  43.856  38.476   0.411
42688W        W 4351  42.830   8.730  13.395
42689W        W 4352  23.643  42.855  10.422
42690W        W 4353  43.443  26.165   3.338
42691W        W 4354  36.366  12.730  10.159
42692W        W 4355  16.179   9.157  13.493
42693W        W 4356   9.178  33.518   4.176
42694W        W 4357  10.309  29.038  14.758
42695W        W 4358  27.506  27.028   4.797
42696W        W 4359  36.947   6.219  12.421
42697W        W 4360   0.336  32.063   5.180
42698W        W 4361  10.279  25.077  10.545
42699W        W 4362  35.513  21.638  10.114
42700W        W 4363  38.013   8.392  12.013
42701W        W 4364  18.105  38.350  13.026
42702W        W 4365  40.985  22.535   3.783
42703W        W 4366   8.862  14.322   2.208
42704W        W 4367  37.041  43.950  12.381
42705W        W 4368  26.500  11.282  13.991
42706W        W 4369  24.172  27.465   0.851
42707W        W 4370  34.007  10.813   1.330
42708W        W 4371  10.334   7.303  13.058
42709W        W 4372  26.608  35.985  13.811
42710W        W 4373  44.900  20.707   1.300
42711W        W 4374  36.889  20.175   1.903
42712W        W 4375  13.199   7.347  12.889
42713W        W 4376  27.654   3.920  12.339
42714W        W 4377  23.637  11.310   0.399
42715W        W 4378  22.223  36.018  11.956
42716W        W 4379  17.191  29.573  13.966
42717W        W 4380  26.512  30.053  12.894
42718W        W 4381   0.749   6.391  13.058
42719W        W 4382  21.699  14.617  12.360
42720W        W 4383  41.791  29.930   0.318
42721W        W 4384  39.810  30.140   1.913
42722W        W 4385  30.075  31.916   4.646
42723W        W 4386  32.945  34.408   4.737
42724W        W 4387  16.098  35.020   4.793
42725W        W 4388  24.192  38.443   4.726
42726W        W 4389  12.129  41.475  12.958
42727W        W 4390  42.493  19.061  14.501
42728W        W 4391  14.763  25.981  12.354
42729W        W 4392  42.370  22.661  13.396
42730W        W 4393   8.803  32.977   4.650
42731W        W 4394  10.272  19.590  13.826
42732W        W 4395  22.565  37.927   3.145
42733W        W 4396  35.511  33.953   0.946
42734W        W 4397   4.308  15.764  13.859
42735W        W 4398  18.178  23.627   4.701
42736W        W 4399   6.812  13.268   0.728
42737W        W 4400  26.207  37.851  13.410
42738W        W 4401  24.987  36.530   1.311
42739W        W 4402   8.784  25.524  13.934
42740W        W 4403  17.253  25.521  12.082
42741W        W 4404  16.757  15.624   5.630
42742W        W 4405   0.486  24.064   2.809
42743W        W 4406  42.783  36.991   3.352
42744W        W 4407  14.823  18.632   4.133
42745W        W 4408  10.868   4.879   1.933
42746W        W 4409  16.664  26.597   3.737
42747W        W 4410  15.752  28.938  10.116
42748W        W 4411  10.850   8.214   4.324
42749W        W 4412  31.420   1.329   1.435
42750W        W 4413  27.971  30.512  14.334
42751W        W 4414  39.529   4.444  10.960
42752W        W 4415  31.121  18.172   4.765
42753W        W 4416  34.996   2.764   3.203
42754W        W 4417   2.424   0.323  13.444
42755W        W 4418   6.703  29.447  12.507
42756W        W 4419  34.554   2.913  13.473
42757W        W 4420  42.022  29.606   1.885
42758W        W 4421  41.450  37.011  11.083
42759W        W 4422  16.163  17.603   3.272
42760W        W 4423  40.043  43.391   2.801
42761W        W 4424  37.017  16.633  11.085
42762W        W 4425  35.432  35.590   1.882
42763W        W 4426  37.565  28.662   0.304
42764W        W 4427  44.346  16.264   9.985
42765W        W 4428   4.783  24.694   2.391
42766W        W 4429  35.426  10.248  13.805
42767W        W 4430  44.332  30.159  10.109
42768W        W 4431   1.744  14.589  11.036
42769W        W 4432  41.344  25.168   1.231
42770W        W 4433   5.278  42.849  12.535
42771W        W 4434   0.957  29.599  12.976
42772W        W 4435   6.322  25.544   2.799
42773W        W 4436  36.573   7.884   3.246
42774W        W 4437  18.600  35.958   2.368
42775W        W 4438  18.052   5.365  12.460
42776W        W 4439  11.367  20.146   0.831
42777W        W 4440  20.179  30.523   1.906
42778W        W 4441  20.572   7.402  13.000
42779W        W 4442  25.165  23.105   1.768
42780W        W 4443   7.672  43.970  12.082
42781W        W 4444  30.430  14.235  11.519
42782W        W 4445  15.679   1.832  12.571
42783W        W 4446  40.864   0.956  12.843
42784W        W 4447  17.781   3.860  10.969
42785W        W 4448  42.003  41.834   3.680
42786W        W 4449   5.363  40.468  13.493
42787W        W 4450  23.628  30.014   0.256
42788W        W 4451  26.199  19.654   2.243
42789W        W 4452  42.881   1.450  11.066
42790W        W 4453   4.783  43.447   1.771
42791W        W 4454  34.884  40.036  13.450
42792W        W 4455  34.930   9.218   1.737
42793W        W 4456  44.996  29.928  13.515
42794W        W 4457  10.294  24.660  11.102
42795W        W 4458  14.143  22.714  10.531
42796W        W 4459  14.202  26.086   1.235
42797W        W 4460   2.435   9.186  10.955
42798W        W 4461  13.672  15.686  12.406
42799W        W 4462  31.935  38.370  11.068
42800W        W 4463   9.157   6.806   3.717
42801W        W 4464  23.720  33.406  13.500
42802W        W 4465  17.751  27.976   2.275
42803W        W 4466   0.943  28.605   3.700
42804W        W 4467  24.207   7.904   2.193
42805W        W 4468  44.328   3.936   3.185
42806W        W 4469   7.355   8.725   4.137
42807W        W 4470  11.281  14.257  12.034
42808W        W 4471  23.573  34.935   3.337
42809W        W 4472  19.548   1.349   1.927
42810W        W 4473   3.774  33.027   1.757
42811W        W 4474  11.841   6.882  13.030
42812W        W 4475   8.871  33.127  10.527
42813W        W 4476  30.487  39.550   2.685
42814W        W 4477  22.503   5.929   2.329
42815W        W 4478  23.676   3.303   0.901
42816W        W 4479  27.580  31.064  12.860
42817W        W 4480  28.657  32.421   1.700
42818W        W 4481  20.258  30.992   0.927
42819W        W 4482  22.605  42.968  13.809
42820W        W 4483  12.830  11.211  13.793
42821W        W 4484  13.627  24.617   0.873
42822W        W 4485  38.407  36.527  12.071
42823W        W 4486  40.918   4.412   4.650
42824W        W 4487  18.579  40.926  14.300
42825W        W 4488  22.706  12.723  13.800
42826W        W 4489  22.212  12.842  11.410
42827W        W 4490  32.561  37.998   0.270
42828W        W 4491   6.826  25.485  13.800
42829W        W 4492  26.598  26.534  12.970
42830W        W 4493  15.649  28.065  10.567
42831W        W 4494  37.917  16.707   1.776
42832W        W 4495  34.450  31.071  12.501
42833W        W 4496  41.877  35.932  12.929
42834W        W 4497  12.822  18.067  10.921
42835W        W 4498   1.763  31.006  13.472
42836W        W 4499  32.140   0.850   4.654
42837W        W 4500  13.778  21.260  12.517
42838W        W 4501   9.201  10.178  12.994
42839W        W 4502  32.450   7.217   3.181
42840W        W 4503  43.958  16.118   4.194
42841W        W 4504  12.737   7.336   1.360
42842W        W 4505  43.289  38.910   0.457
42843W        W 4506  30.584  21.512  13.827
42844W        W 4507   1.931  23.235  12.060
42845W        W 4508  44.366  35.535  10.460
42846W        W 4509  35.452  20.206   4.648
42847W        W 4510  43.345  44.822  13.327
42848W        W 4511  34.541  38.508  14.290
42849W        W 4512  44.941  38.996   0.784
42850W        W 4513  27.663  40.362  12.545
42851W        W 4514  44.493  21.712   9.978
42852W        W 4515  42.364  11.222  11.071
42853W        W 4516  20.634  13.190   1.267
42854W        W 4517   0.254  37.014  13.438
42855W        W 4518   1.951  24.045   4.278
42856W        W 4519  37.914  27.675  12.923
42857W        W 4520  19.641  26.987   4.215
42858W        W 4521  22.658  15.196  11.920
42859W        W 4522  43.820  12.745  12.850
42860W        W 4523   3.260   7.712  14.812
42861W        W 4524   5.411  10.685   1.711
42862W        W 4525  28.101  18.552   2.343
42863W        W 4526  24.190  26.084  12.397
42864W        W 4527  26.518  19.770  14.816
42865W        W 4528  29.469  20.581   0.397
42866W        W 4529   9.868  29.569   1.854
42867W        W 4530  36.566  35.043   0.348
42868W        W 4531   0.268  39.499   1.438
42869W        W 4532  18.754  21.135  12.062
42870W        W 4533  24.197  29.944   3.835
42871W        W 4534  10.711  37.849   3.858
42872W        W 4535  43.881  12.825  14.439
42873W        W 4536  19.615  44.880   3.707
42874W        W 4537  21.088  43.352   1.923
42875W        W 4538  13.767  11.805  12.848
42876W        W 4539  31.470   5.877  11.591
42877W        W 4540   6.888  38.492   1.337
42878W        W 4541  14.632  40.902   2.392
42879W        W 4542  11.672  24.528   2.313
42880W        W 4543   0.785  28.934   1.882
42881W        W 4544   8.820  13.613  14.450
42882W        W 4545  20.726   4.856   3.154
42883W        W 4546   6.744   9.204   4.675
42884W        W 4547  14.280  26.552  14.370
42885W        W 4548  30.071  15.677   3.337
42886W        W 4549  10.297  17.683  12.514
42887W        W 4550  22.532  10.310   1.932
42888W        W 4551   4.264   1.934   1.322
42889W        W 4552   7.892  34.534   4.196
42890W        W 4553  33.401  36.012  14.831
42891W        W 4554  40.304   0.959  12.079
42892W        W 4555  16.631  13.161   0.298
42893W        W 4556  18.079  28.056  12.831
42894W        W 4557  25.667   7.711   1.271
42895W        W 4558  23.177  15.106  14.846
42896W        W 4559  37.021  10.686  12.975
42897W        W 4560  14.828  43.410   0.889
42898W        W 4561   9.888  29.588   0.329
42899W        W 4562  30.023  43.995   1.856
42900W        W 4563  37.949  15.280   0.466
42901W        W 4564   6.231  28.486  14.476
42902W        W 4565  23.107  14.130  13.457
42903W        W 4566  15.651  42.781  10.987
42904W        W 4567  24.519  14.152  14.000
42905W        W 4568   0.478   9.792   0.941
42906W        W 4569  36.001  35.902  12.014
42907W        W 4570  40.915  25.996  13.889
42908W        W 4571  12.766   9.309   4.639
42909W        W 4572  16.087   9.715   2.747
42910W        W 4573  19.639   5.812   1.771
42911W        W 4574  27.591  30.534  10.446
42912W        W 4575  24.091  31.623   2.223
42913W        W 4576  11.271   0.895  10.440
42914W        W 4577  44.992  23.984  10.453
42915W        W 4578  16.247  23.684   0.251
42916W        W 4579  24.983  24.053   4.187
42917W        W 4580   4.942  16.084  12.342
42918W        W 4581  40.987  34.536   4.243
42919W        W 4582  42.910  32.560  14.302
42920W        W 4583  10.338  27.965  11.079
42921W        W 4584  25.502   3.715  11.872
42922W        W 4585  41.850  11.208  11.071
42923W        W 4586  23.607  39.389   3.370
42924W        W 4587  39.395  41.450   3.323
42925W        W 4588  37.461  41.418  10.628
42926W        W 4589  31.557  21.554  13.963
42927W        W 4590   5.303  32.433  10.570
42928W        W 4591  38.873   2.964  10.010
42929W        W 4592  31.504  11.147  14.880
42930W        W 4593  25.064  40.414  13.002
42931W        W 4594  22.074  23.144   1.242
42932W        W 4595  22.713   0.430  10.939
42933W        W 4596  16.180  13.135   4.193
42934W        W 4597   6.815  12.812  12.432
42935W        W 4598   4.364   3.299  11.520
42936W        W 4599  29.438   4.283   4.713
42937W        W 4600  31.577  38.986  10.483
42938W        W 4601  16.177   2.877  10.988
42939W        W 4602   3.898  31.567   4.807
42940W        W 4603  21.110  19.552   2.689
42941W        W 4604  38.848  43.283  11.381
42942W        W 4605  33.434  32.524   2.724
42943W        W 4606   0.374   8.226  13.032
42944W        W 4607  37.377  40.462   3.372
42945W        W 4608  36.560  34.053   4.734
42946W        W 4609  36.049  29.624   3.289
42947W        W 4610  32.485  39.478   2.396
42948W        W 4611  43.829  38.832   4.679
42949W        W 4612  10.653  33.474   1.371
42950W        W 4613  21.066  40.322   0.444
42951W        W 4614  16.285   2.226  14.882
42952W        W 4615  26.606  38.949  10.571
42953W        W 4616  38.397  13.260  13.449
42954W        W 4617   4.439  12.746   2.355
42955W        W 4618   2.963  29.551  12.844
42956W        W 4619  41.460   1.930   1.786
42957W        W 4620  10.827   5.801   9.988
42958W        W 4621  24.165  20.125   2.280
42959W        W 4622  27.004  25.581   0.837
42960W        W 4623  30.072  18.790   2.377
42961W        W 4624   9.817   5.327   1.321
42962W        W 4625  30.985  28.039  14.976
42963W        W 4626   4.323  38.966   1.296
42964W        W 4627  11.267  17.720  12.974
42965W        W 4628  30.989  21.526  14.341
42966W        W 4629  32.927  30.089   1.325
42967W        W 4630  27.524  36.582   0.879
42968W        W 4631  20.687  21.633   0.354
42969W        W 4632  19.629  11.134  12.994
42970W        W 4633  40.411  35.440  14.435
42971W        W 4634  40.048  12.828  13.808
42972W        W 4635  29.500  18.124  12.416
42973W        W 4636  27.036  39.316  14.786
42974W        W 4637  17.155  10.705  14.880
42975W        W 4638  34.064   0.839   3.860
42976W        W 4639  38.066  42.508   2.204
42977W        W 4640  26.478  41.537   4.718
42978W        W 4641  18.073   6.887   1.831
42979W        W 4642   6.727  37.836  13.821
42980W        W 4643  14.133  10.162   1.909
42981W        W 4644  25.157   5.218  10.982
42982W        W 4645  42.303  23.110  14.021
42983W        W 4646  18.595  28.039   2.765
42984W        W 4647  27.546  34.487   0.340
42985W        W 4648  37.907  26.012   2.339
42986W        W 4649  38.822  15.715   0.787
42987W        W 4650  22.020   9.206  13.338
42988W        W 4651  18.591  35.049  12.060
42989W        W 4652  41.428  12.841  10.032
42990W        W 4653  19.211   8.719   3.843
42991W        W 4654   6.717  36.085   3.188
42992W        W 4655  38.028  10.336   1.324
42993W        W 4656  30.162  13.302  12.502
42994W        W 4657  10.815  11.132  11.884
42995W        W 4658   6.736   6.413   4.779
42996W        W 4659  34.115  31.466  14.301
42997W        W 4660   2.949   5.910   3.323
42998W        W 4661  13.275  29.967  13.453
42999W        W 4662  31.422  42.907   4.293
43000W        W 4663  28.591  17.578  14.455
43001W        W 4664  34.973  34.554  10.891
43002W        W 4665  14.182  29.645  12.924
43003W        W 4666   0.439  35.974  14.827
43004W        W 4667  22.212  40.023  14.814
43005W        W 4668  40.031  41.423   3.344
43006W        W 4669  21.676  27.484  14.797
43007W        W 4670  26.602  30.462   2.235
43008W        W 4671  31.633   9.784  13.381
43009W        W 4672  28.451   4.398   3.821
43010W        W 4673  43.326  40.529   1.233
43011W        W 4674  17.187  17.612  14.305
43012W        W 4675   4.764  42.309  11.573
43013W        W 4676   0.462  40.409  14.343
43014W        W 4677  18.682  44.959   4.323
43015W        W 4678  43.499  23.051  11.412
43016W        W 4679  10.321  33.111  12.823
43017W        W 4680  30.624  11.219  14.785
43018W        W 4681   9.699  29.145  11.582
43019W        W 4682  19.093  39.371   1.825
43020W        W 4683   2.902  12.689   1.310
43021W        W 4684  21.564  11.651  13.312
43022W        W 4685  28.509   4.359   3.186
43023W        W 4686  10.200  21.658  10.027
43024W        W 4687   9.861  33.477  14.773
43025W        W 4688   1.731   1.889  14.795
43026W        W 4689  30.031  30.635   2.773
43027W        W 4690   1.401  32.587  11.098
43028W        W 4691   0.926  11.364   1.715
43029W        W 4692  28.055  27.677  14.851
43030W        W 4693  22.193  32.980  11.577
43031W        W 4694   3.217  28.472   1.414
43032W        W 4695  29.052  16.729   2.758
43033W        W 4696  22.608   5.330   2.776
43034W        W 4697   7.839  37.492  12.386
43035W        W 4698   8.822  28.581  14.389
43036W        W 4699  19.765  38.847  12.927
43037W        W 4700  34.003  11.794  11.883
43038W        W 4701  13.804   1.909   0.419
43039W        W 4702  40.411  38.380   3.681
43040W        W 4703  27.670  29.085  14.348
43041W        W 4704  36.460  23.010   3.745
43042W        W 4705   3.402  29.598  13.024
43043W        W 4706  44.409  19.645   0.940
43044W        W 4707   7.779  39.034   1.843
43045W        W 4708  17.684  22.685  14.284
43046W        W 4709  32.417  18.771   4.191
43047W        W 4710  21.136   0.423   2.735
43048W        W 4711  29.934  32.907   0.897
43049W        W 4712  29.157  25.982   1.884
43050W        W 4713   6.818   3.820   2.723
43051W        W 4714  32.622  12.614  11.374
43052W        W 4715  27.648  33.548   2.362
43053W        W 4716  29.978  38.976   2.719
43054W        W 4717  13.252  25.710  10.567
43055W        W 4718  37.069  13.114   3.172
43056W        W 4719  12.656  30.141  14.955
43057W        W 4720  16.169  35.868  13.482
43058W        W 4721  28.999   1.382  12.823
43059W        W 4722   6.296   8.226  11.033
43060W        W 4723  26.049   5.337   3.317
43061W        W 4724  20.642   3.911   0.398
43062W        W 4725  22.579   8.734  13.494
43063W        W 4726  26.078  12.728   3.213
43064W        W 4727  21.231  32.066   3.314
43065W        W 4728  16.317   2.387  11.995
43066W        W 4729   0.286   4.227   2.213
43067W        W 4730  33.623   8.367  11.080
43068W        W 4731  38.529  23.663   0.796
43069W        W 4732  15.225   4.361  12.526
43070W        W 4733  22.555  19.630   3.374
43071W        W 4734   7.304  20.236   0.890
43072W        W 4735  39.944  12.122   1.430
43073W        W 4736  43.990   1.270  13.352
43074W        W 4737  34.094  29.657   1.310
43075W        W 4738  13.649   6.769  14.951
43076W        W 4739  18.222   6.212  13.882
43077W        W 4740  28.929  43.459  12.373
43078W        W 4741  21.073  16.217   3.821
43079W        W 4742  22.689   2.841  10.975
43080W        W 4743   9.193  37.976  10.513
43081W        W 4744  33.880  24.660  13.336
43082W        W 4745   0.932  34.400   3.302
43083W        W 4746  25.135  38.030  12.859
43084W        W 4747  18.141   4.910  14.953
43085W        W 4748  22.537   8.692  11.391
43086W        W 4749  22.725   8.344   4.259
43087W        W 4750  24.086  30.444  11.553
43088W        W 4751   3.343  22.238   9.991
43089W        W 4752  20.223  41.444   2.241
43090W        W 4753   3.380  20.544  12.946
43091W        W 4754  34.504   5.785   5.122
43092W        W 4755   5.194  41.945  13.846
43093W        W 4756  16.141   2.343   1.874
43094W        W 4757  39.927  44.800  14.331
43095W        W 4758  41.368  42.803   3.735
43096W        W 4759  28.112  11.181  13.045
43097W        W 4760   3.815  23.209  13.012
43098W        W 4761  36.088  28.133  14.352
43099W        W 4762  31.452  36.519   2.302
43100W        W 4763  30.082  18.292   2.353
43101W        W 4764  38.508  31.938   0.913
43102W        W 4765  30.423   6.698   2.261
43103W        W 4766  22.702  29.168   2.727
43104W        W 4767  37.401   4.375   2.889
43105W        W 4768  21.130   7.363   2.732
43106W        W 4769  42.283  10.792   0.874
43107W        W 4770  33.885  12.347   1.444
43108W        W 4771   4.440  23.064   3.633
43109W        W 4772  10.316   9.363   4.669
43110W        W 4773   7.818  43.495  14.838
43111W        W 4774  29.654  12.740   4.213
43112W        W 4775  38.343   9.687   3.375
43113W        W 4776   5.853  31.960   3.300
43114W        W 4777  29.645  29.935   0.759
43115W        W 4778  27.491  24.635  13.819
43116W        W 4779  30.546   9.848  12.050
43117W        W 4780   5.417  42.947   2.694
43118W        W 4781  20.592  15.778   2.700
43119W        W 4782  11.330  10.304   5.171
43120W        W 4783  20.583  36.494  12.507
43121W        W 4784  12.141   0.320  11.547
43122W        W 4785  30.545  40.331  14.418
43123W        W 4786  20.618  10.246   4.805
43124W        W 4787  14.678   0.346   3.293
43125W        W 4788  39.500  24.617  14.767
43126W        W 4789  42.817  21.702  10.428
43127W        W 4790   9.780   4.922   4.677
43128W        W 4791  11.624  20.540  11.122
43129W        W 4792  39.909  23.999   2.335
43130W        W 4793  29.042  41.813  13.861
43131W        W 4794  27.997   8.806   0.903
43132W        W 4795  12.620   4.252  14.353
43133W        W 4796  25.622  37.886   2.742
43134W        W 4797  28.602  44.344  13.813
43135W        W 4798   1.351  15.660   0.835
43136W        W 4799  30.993  24.694   3.344
43137W        W 4800   3.954   1.331  12.458
43138W        W 4801  29.051  44.498   3.678
43139W        W 4802   6.703  40.958  14.815
43140W        W 4803  42.784  17.223   1.451
43141W        W 4804  24.506  15.823   0.838
43142W        W 4805  42.300  24.020   1.921
43143W        W 4806  18.598  21.074  14.947
43144W        W 4807  21.207  31.426  10.910
43145W        W 4808  39.983  41.880   4.641
43146W        W 4809  24.639  39.476  12.858
43147W        W 4810  39.456  40.925   3.221
43148W        W 4811   0.889  33.943   4.773
43149W        W 4812  13.195  36.893  14.973
43150W        W 4813  41.912  37.442   1.338
43151W        W 4814  39.903  16.581   1.355
43152W        W 4815  34.453  16.749  12.988
43153W        W 4816  28.670  44.457  14.945
43154W        W 4817  10.225  23.110  14.399
43155W        W 4818  25.102  12.790  10.422
43156W        W 4819  32.102   0.255  10.161
43157W        W 4820  14.260  11.824   3.866
43158W        W 4821  22.635   6.324   2.299
43159W        W 4822  35.033  14.626  10.542
43160W        W 4823  41.311  16.178   3.239
43161W        W 4824  34.064  38.437   1.366
43162W        W 4825  37.830  34.006   3.675
43163W        W 4826  43.472  27.657  12.427
43164W        W 4827  39.857   7.828  12.880
43165W        W 4828  21.063  12.301  13.882
43166W        W 4829   9.813  33.520   1.785
43167W        W 4830   2.879  35.999  14.329
43168W        W 4831  36.983  31.423  14.404
43169W        W 4832  23.107  23.541  14.319
43170W        W 4833   8.816  41.863   5.165
43171W        W 4834  33.555  20.119  14.945
43172W        W 4835  15.630  39.427  11.931
43173W        W 4836   0.979  13.119   0.750
43174W        W 4837   1.917  32.909  14.794
43175W        W 4838   1.774  20.161  14.331
43176W        W 4839  23.606  18.157  12.035
43177W        W 4840  39.062   1.256  13.998
43178W        W 4841  30.555  14.259   1.295
43179W        W 4842  22.670   0.978   0.275
43180W        W 4843   4.808   3.786   5.129
43181W        W 4844  27.120  26.691   4.205
43182W        W 4845  14.799  28.025   2.846
43183W        W 4846  35.455  11.241   3.328
43184W        W 4847  12.721  42.377   4.141
43185W        W 4848  22.999   9.165  14.968
43186W        W 4849  40.806  36.920  13.374
43187W        W 4850  10.809   8.187  12.976
43188W        W 4851   4.287  34.426   1.319
43189W        W 4852   3.255  20.204   4.254
43190W        W 4853  13.312   4.358  10.959
43191W        W 4854   8.710  31.644  10.450
43192W        W 4855  30.506  31.466  14.829
43193W        W 4856  38.485  27.021  11.094
43194W        W 4857   1.840   4.442   1.435
43195W        W 4858  27.641  13.642  13.328
43196W        W 4859   7.804  40.800   3.146
43197W        W 4860  15.312   8.189  14.856
43198W        W 4861  43.434   5.225   1.854
43199W        W 4862   8.180   8.291   1.381
43200W        W 4863  35.594  44.468  13.952
43201W        W 4864  27.514  18.681  13.037
43202W        W 4865  39.020  12.639   3.692
43203W        W 4866  14.694  42.376   0.354
43204W        W 4867  20.164  43.320   4.316
43205W        W 4868  16.171   5.417  10.966
43206W        W 4869  18.623   4.249  14.296
43207W        W 4870  26.620  33.434   2.792
43208W        W 4871   3.437  30.489   1.378
43209W        W 4872   6.267  38.531  12.041
43210W        W 4873  32.939  27.041   4.816
43211W        W 4874  18.713  11.240   1.827
43212W        W 4875  30.640  22.009  11.892
43213W        W 4876  42.847  12.221   3.745
43214W        W 4877  28.126  33.081   1.906
43215W        W 4878   3.426  41.358   1.405
43216W        W 4879   3.819  25.171  11.582
43217W        W 4880  41.908  15.129  10.567
43218W        W 4881  35.595   7.291  13.925
43219W        W 4882  29.073  18.611   3.178
43220W        W 4883  41.320   2.880   0.788
43221W        W 4884  33.895  32.589   0.742
43222W        W 4885  26.484  12.170  10.542
43223W        W 4886   7.388  17.201   4.144
43224W        W 4887  16.647  10.139   2.285
43225W        W 4888  27.472  16.601  10.528
43226W        W 4889  10.771  17.206   1.374
43227W        W 4890  35.025   4.944   9.987
43228W        W 4891  37.024  11.217  10.577
43229W        W 4892   8.797  34.594   3.846
43230W        W 4893   6.250  13.822   3.826
43231W        W 4894  38.917  33.089  13.489
43232W        W 4895  12.661  12.642   4.730
43233W        W 4896   3.396  13.655  10.932
43234W        W 4897  26.193  28.568  13.360
43235W        W 4898  15.822  38.850   1.233
43236W        W 4899  19.079  30.447   3.813
43237W        W 4900  43.403  19.751  13.871
43238W        W 4901  29.965  36.404   3.260
43239W        W 4902  38.497  29.459   4.207
43240W        W 4903  18.771   1.392  14.936
43241W        W 4904  28.598   2.849   4.250
43242W        W 4905   3.347  35.407  10.581
43243W        W 4906  12.269  37.838  13.966
43244W        W 4907  41.866  16.220   3.366
43245W        W 4908   3.294  36.574  14.784
43246W        W 4909  22.175  17.589  10.531
43247W        W 4910  11.776  26.033  10.420
43248W        W 4911  39.954  37.936   0.769
43249W        W 4912  31.567  18.108   0.806
43250W        W 4913   9.341  43.465   4.185
43251W        W 4914   1.275   2.423  11.467
43252W        W 4915  20.755  38.864   0.927
43253W        W 4916  27.183  40.992   9.637
43254W        W 4917  43.355  39.430   4.729
43255W        W 4918  38.441  42.423  14.870
43256W        W 4919  16.139  35.568  13.979
43257W        W 4920  32.019  25.620  13.981
43258W        W 4921  38.873   5.865  13.548
43259W        W 4922  30.976   7.828  12.567
43260W        W 4923   5.304  35.415  14.480
43261W        W 4924  35.855   3.946   0.482
43262W        W 4925  22.132  23.207  11.975
43263W        W 4926  12.698  43.465   2.748
43264W        W 4927  22.201  21.051  14.473
43265W        W 4928  26.028  41.883  10.447
43266W        W 4929  35.538  26.160  11.061
43267W        W 4930  38.829  25.626  12.401
43268W        W 4931  22.530   5.760   0.414
43269W        W 4932  24.988   1.372   1.883
43270W        W 4933  16.664  12.161   0.895
43271W        W 4934  41.822  15.193  13.483
43272W        W 4935  32.908  37.860   3.362
43273W        W 4936  24.533  22.540  14.449
43274W        W 4937  16.262  33.064   1.833
43275W        W 4938  31.586  24.073   0.483
43276W        W 4939  37.994  37.024  13.913
43277W        W 4940  44.299  39.353  12.985
43278W        W 4941  19.556  15.162  11.028
43279W        W 4942  30.928  16.579   2.373
43280W        W 4943  41.303  37.875  14.323
43281W        W 4944  39.913  34.909   2.268
43282W        W 4945  10.149  42.976  12.867
43283W        W 4946  41.299   5.844   2.409
43284W        W 4947  37.896  30.436   2.316
43285W        W 4948  40.399  34.497   4.821
43286W        W 4949  38.436   6.265  14.342
43287W        W 4950  43.278  13.153   3.848
43288W        W 4951  24.651  31.989   4.641
43289W        W 4952  27.977  18.762   2.804
43290W        W 4953  29.664  11.285  13.372
43291W        W 4954  32.015  10.317   4.643
43292W        W 4955  15.192  13.733   1.403
43293W        W 4956  28.512  35.422   0.818
43294W        W 4957  30.607  31.451  11.880
43295W        W 4958   9.817  16.158  11.116
43296W        W 4959   3.871  12.203  10.635
43297W        W 4960  32.625  40.375  13.466
43298W        W 4961  38.937  24.487   4.314
43299W        W 4962  21.586  13.340   4.832
43300W        W 4963  36.507  30.486   3.674
43301W        W 4964  13.673  43.944   1.702
43302W        W 4965  12.264  19.674   1.897
43303W        W 4966   0.282   1.887  13.969
43304W        W 4967   2.250   8.401  12.910
43305W        W 4968  16.772  17.723  14.360
43306W        W 4969  16.113   0.881   1.853
43307W        W 4970   8.254  42.895   3.847
43308W        W 4971  17.563  31.628  11.114
43309W        W 4972  12.151  28.622   1.421
43310W        W 4973   7.735  11.628   4.756
43311W        W 4974  38.870  20.756   3.702
43312W        W 4975  32.899  16.725   3.638
43313W        W 4976  14.123  27.942   4.778
43314W        W 4977  24.167  36.542  10.625
43315W        W 4978   9.773  38.879   4.686
43316W        W 4979   7.899  16.750  14.029
43317W        W 4980  27.987   8.811   1.259
43318W        W 4981  19.587   0.360  14.368
43319W        W 4982  11.212   8.850  12.484
43320W        W 4983  38.449   3.828  11.406
43321W        W 4984   4.754  41.977   0.852
43322W        W 4985  37.889  33.920  14.018
43323W        W 4986  32.619  28.011   0.764
43324W        W 4987  13.619  20.530  14.984
43325W        W 4988  40.309  30.119   4.718
43326W        W 4989  28.040  44.303  13.864
43327W        W 4990  22.138  19.761  11.945
43328W        W 4991   3.287  14.274  11.121
43329W        W 4992  15.328  32.918   1.392
43330W        W 4993   2.321  25.173  12.941
43331W        W 4994  17.179  44.934  13.333
43332W        W 4995  14.812   5.933   0.424
43333W        W 4996   1.446  41.903   2.881
43334W        W 4997  36.513   3.271  12.485
43335W        W 4998  40.512   2.294   1.781
43336W        W 4999   1.800  29.510   2.691
43337W        W 5000  29.086   4.933  11.565
43338W        W 5001  33.086  35.061  13.873
43339W        W 5002  19.262   4.232  11.995
43340W        W 5003  40.415  31.646  14.951
43341W        W 5004  42.834  11.638  14.942
43342W        W 5005  31.641   1.801  14.367
43343W        W 5006  20.166  30.149  13.872
43344W        W 5007  41.529  28.569   1.292
43345W        W 5008  15.716  39.387  14.337
43346W        W 5009  20.697   5.318  10.511
43347W        W 5010  14.739  11.626  13.388
43348W        W 5011   0.272   7.309  14.374
43349W        W 5012   6.685  11.304   0.472
43350W        W 5013  16.784  35.530  12.044
43351W        W 5014  13.107  35.590  13.850
43352W        W 5015  29.635   4.211  12.831
43353W        W 5016  24.626  27.160   1.911
43354W        W 5017   5.805   7.853   0.483
43355W        W 5018   6.277   9.728  14.889
43356W        W 5019  32.624  21.052  13.409
43357W        W 5020  38.408   1.338  14.415
43358W        W 5021  43.483   1.891  10.530
43359W        W 5022  38.365  30.511   4.219
43360W        W 5023  22.683   1.796   3.857
43361W        W 5024  23.539   1.977  10.036
43362W        W 5025  43.447   4.211  11.416
43363W        W 5026  41.456   3.244   4.613
43364W        W 5027  44.458  14.712   4.188
43365W        W 5028   2.309   3.841   4.677
43366W        W 5029  34.457  16.200   0.911
43367W        W 5030   2.310   9.834  14.513
43368W        W 5031  20.716  22.664   4.232
43369W        W 5032  13.118  44.308   3.868
43370W        W 5033  38.365  19.615  10.898
43371W        W 5034  35.014  38.905  10.636
43372W        W 5035  13.173  14.334  10.122
43373W        W 5036  11.793  14.743  12.500
43374W        W 5037  19.641  21.513  13.501
43375W        W 5038  19.606  43.476   4.739
43376W        W 5039  33.890  34.562  14.762
43377W        W 5040   0.326  28.016   2.378
43378W        W 5041  20.670   2.893   1.740
43379W        W 5042  26.185  15.138   4.627
43380W        W 5043  19.223   2.388   0.857
43381W        W 5044  35.061  13.789   4.696
43382W        W 5045   3.797  42.369  11.856
43383W        W 5046  24.019  22.039   5.222
43384W        W 5047  33.427  15.612   1.867
43385W        W 5048  40.011   9.765   0.807
43386W        W 5049  34.548  26.965  13.392
43387W        W 5050  21.217  41.788  12.440
43388W        W 5051  42.904  17.243  13.814
43389W        W 5052  44.337   1.836   3.248
43390W        W 5053   4.865   9.790   2.247
43391W        W 5054  30.423  44.435   4.689
43392W        W 5055  31.008   4.347  10.456
43393W        W 5056   0.780  37.934  14.418
43394W        W 5057  11.624   9.754  14.333
43395W        W 5058  26.101  42.434   2.223
43396W        W 5059  29.968  11.755  13.999
43397W        W 5060   6.755  41.365  11.996
43398W        W 5061  36.389   5.208   4.310
43399W        W 5062  13.184   1.837   1.316
43400W        W 5063  11.264  14.673  14.325
43401W        W 5064  15.100  31.985  14.453
43402W        W 5065  19.178  36.484  10.511
43403W        W 5066  11.179  27.623  12.543
43404W        W 5067  35.580  44.310   2.742
43405W        W 5068  39.909  14.332   3.689
43406W        W 5069   6.866  30.478  12.063
43407W        W 5070  33.006  42.983   0.798
43408W        W 5071  24.126  24.056  11.100
43409W        W 5072  16.695  14.688   2.377
43410W        W 5073  26.104  12.754  11.613
43411W        W 5074  38.553  44.771  13.435
43412W        W 5075  13.689  15.781  12.082
43413W        W 5076  13.324  41.871   2.248
43414W        W 5077   4.239  25.651   1.719
43415W        W 5078  42.437  35.951  12.020
43416W        W 5079  23.075  20.095  14.340
43417W        W 5080  33.416  32.948   4.606
43418W        W 5081  17.704  33.386  12.896
43419W        W 5082  41.377  41.839  11.599
43420W        W 5083   5.917  21.693  14.013
43421W        W 5084  33.031  24.112  11.072
43422W        W 5085   7.802  42.378  10.558
43423W        W 5086  22.738   1.275  14.429
43424W        W 5087  41.496  18.616  14.861
43425W        W 5088   2.877  21.529   1.212
43426W        W 5089   8.255  18.231  13.368
43427W        W 5090  12.765  37.496   5.668
43428W        W 5091  23.491  15.164   3.377
43429W        W 5092  12.338  30.443   4.720
43430W        W 5093  16.734  16.120   0.307
43431W        W 5094   9.302  38.888   1.935
43432W        W 5095   4.246  40.048   0.459
43433W        W 5096  26.532  34.409  12.349
43434W        W 5097  34.505  31.456  12.580
43435W        W 5098  11.367   8.800  13.850
43436W        W 5099  14.310  19.215  13.455
43437W        W 5100  44.834  12.207  11.121
43438W        W 5101  39.941  13.345   0.292
43439W        W 5102  28.558  11.749  11.420
43440W        W 5103  28.011  26.695  10.981
43441W        W 5104  40.906  42.857  14.861
43442W        W 5105  40.518  26.194   4.138
43443W        W 5106  25.529  15.154   1.766
43444W        W 5107  28.669  13.224  10.417
43445W        W 5108  19.708  21.237  12.416
43446W        W 5109   7.336  37.469   2.226
43447W        W 5110  17.078  31.100   4.268
43448W        W 5111  15.145  21.719   3.342
43449W        W 5112   5.288  24.176   4.229
43450W        W 5113  27.108  42.785   3.650
43451W        W 5114  40.527  18.208  11.448
43452W        W 5115  13.132  16.607   2.678
43453W        W 5116   5.377  10.751   0.252
43454W        W 5117   3.260  20.253  11.857
43455W        W 5118  40.483  14.684  10.525
43456W        W 5119  12.276   4.860   1.842
43457W        W 5120   9.679  16.610  11.878
43458W        W 5121  18.737  34.044  11.473
43459W        W 5122  23.026   6.242  14.428
43460W        W 5123  39.519  26.138  14.456
43461W        W 5124  43.478  14.743   3.842
43462W        W 5125   9.874  41.944   1.359
43463W        W 5126  39.880   5.239   0.447
43464W        W 5127  20.713  26.180   1.426
43465W        W 5128   3.445  38.998  11.931
43466W        W 5129  41.987  26.128   2.215
43467W        W 5130  12.702  20.126  12.055
43468W        W 5131  44.378  21.751   3.172
43469W        W 5132   6.334  34.029   0.767
43470W        W 5133  33.494  36.473  14.465
43471W        W 5134   7.818  12.357  10.954
43472W        W 5135  38.001  37.998   0.928
43473W        W 5136   0.869   8.258  14.491
43474W        W 5137  15.326  23.653   3.647
43475W        W 5138  37.481  13.168  10.453
43476W        W 5139  21.020   4.321  12.853
43477W        W 5140  24.590  25.561  10.630
43478W        W 5141  36.040  37.942   0.872
43479W        W 5142  17.701  34.374   3.815
43480W        W 5143   8.242   2.870  10.473
43481W        W 5144  25.175   2.327   5.108
43482W        W 5145  35.400  43.890  10.624
43483W        W 5146   8.257  32.920  14.031
43484W        W 5147  20.155  20.667  14.975
43485W        W 5148  14.724  12.134   4.785
43486W        W 5149  28.102  33.457   2.229
43487W        W 5150  31.987  17.763   2.774
43488W        W 5151  18.177  26.988  14.917
43489W        W 5152  39.991  34.966  11.903
43490W        W 5153  21.587  43.860   2.237
43491W        W 5154  31.136  30.149   0.381
43492W        W 5155  39.840  22.615   1.375
43493W        W 5156  37.353  26.063   3.266
43494W        W 5157  27.133   2.908   4.597
43495W        W 5158  14.142  19.235   2.897
43496W        W 5159  44.410  32.008  10.525
43497W        W 5160  29.432  10.809  10.589
43498W        W 5161   3.386  42.513   2.354
43499W        W 5162   2.760  18.162  13.527
43500W        W 5163  27.685   5.249  12.850
43501W        W 5164  10.264  18.552  13.338
43502W        W 5165   8.282  41.438  12.054
43503W        W 5166  33.527  24.519   2.883
43504W        W 5167  35.515  32.956   1.714
43505W        W 5168  42.348  32.559   4.702
43506W        W 5169  24.596  43.270  12.467
43507W        W 5170   7.799  21.657   4.696
43508W        W 5171  31.965  38.981  13.923
43509W        W 5172  39.976  40.535  13.040
43510W        W 5173  13.603  19.616  13.412
43511W        W 5174  22.669  18.721  11.576
43512W        W 5175  33.100  37.935   0.415
43513W        W 5176  43.821  30.141  14.324
43514W        W 5177  25.685  42.357   1.312
43515W        W 5178  31.602  39.814   4.191
43516W        W 5179   8.267  29.165   3.668
43517W        W 5180  41.968  39.863   4.211
43518W        W 5181  16.577   8.751   4.306
43519W        W 5182  26.503   6.186  11.422
43520W        W 5183  39.390  24.168  14.027
43521W        W 5184  25.681  10.262  14.508
43522W        W 5185  12.119   4.386   1.712
43523W        W 5186  15.770   2.927  13.541
43524W        W 5187  36.891  20.226  11.567
43525W        W 5188  36.466  30.107  13.814
43526W        W 5189   7.363   8.747   2.212
43527W        W 5190  26.014  17.797   2.352
43528W        W 5191  40.985  15.294  13.864
43529W        W 5192  41.528  21.149   3.311
43530W        W 5193   6.255  10.633   0.430
43531W        W 5194  22.101  12.273   2.762
43532W        W 5195  15.141  32.043   4.605
43533W        W 5196  39.548  27.448  11.913
43534W        W 5197  42.950  24.052   3.642
43535W        W 5198  17.569  14.179   2.285
43536W        W 5199  38.494   7.263  12.499
43537W        W 5200  13.193   1.434  11.433
43538W        W 5201   8.167  38.513   0.483
43539W        W 5202  22.211   9.679  11.896
43540W        W 5203  11.305   2.365   2.263
43541W        W 5204  13.158  18.233  10.975
43542W        W 5205   4.814  22.019   1.764
43543W        W 5206  39.536  23.569   0.922
43544W        W 5207  15.601   0.370   1.845
43545W        W 5208  25.638  11.627   2.264
43546W        W 5209  35.996  24.132   3.860
43547W        W 5210  38.919  13.193   3.353
43548W        W 5211  15.169  28.145   1.825
43549W        W 5212  29.160  15.609   4.722
43550W        W 5213  25.633  39.506  10.568
43551W        W 5214  31.131  29.031   4.158
43552W        W 5215   4.396  35.004  12.944
43553W        W 5216  41.921   0.774  14.324
43554W        W 5217  30.125  23.642   3.744
43555W        W 5218  40.958  17.750   4.128
43556W        W 5219  18.167  17.132  14.374
43557W        W 5220   2.862  42.794  10.632
43558W        W 5221  32.432  43.415   1.280
43559W        W 5222  14.222  44.374   0.730
43560W        W 5223  29.584   8.775  11.439
43561W        W 5224  35.471  33.119  13.525
43562W        W 5225  14.755  18.162   1.893
43563W        W 5226  32.125  25.654   2.241
43564W        W 5227   3.919  23.195   3.260
43565W        W 5228  22.746  31.044  14.967
43566W        W 5229  43.892   3.834   1.216
43567W        W 5230  44.826  42.890  11.387
43568W        W 5231  42.381  39.829   0.727
43569W        W 5232  30.580  16.605  12.558
43570W        W 5233  24.495  20.203   2.773
43571W        W 5234   1.901  30.144  14.804
43572W        W 5235  33.017  14.337  12.444
43573W        W 5236  44.430  43.295  12.552
43574W        W 5237  38.909  29.590  14.805
43575W        W 5238  38.986  41.853  14.326
43576W        W 5239  14.228  39.821  11.425
43577W        W 5240  41.878   5.211   1.334
43578W        W 5241  16.235  18.076  13.920
43579W        W 5242  16.668  12.212   2.695
43580W        W 5243  15.083  13.322   2.669
43581W        W 5244  32.079  10.216   4.132
43582W        W 5245  43.505  42.513   2.230
43583W        W 5246  15.609  28.593   2.699
43584W        W 5247  23.203  32.546   1.364
43585W        W 5248  22.145  39.961  13.434
43586W        W 5249  43.004  32.437   0.790
43587W        W 5250  16.105   5.833  12.570
43588W        W 5251  38.048  34.021  12.902
43589W        W 5252  22.580  20.561   3.797
43590W        W 5253  16.305   9.393  12.456
43591W        W 5254  40.324   2.359   1.411
43592W        W 5255  31.483  34.986   2.758
43593W        W 5256  16.185  36.950  14.879
43594W        W 5257  41.511   7.292  13.350
43595W        W 5258  43.850  37.914   0.883
43596W        W 5259  31.129  24.569   2.312
43597W        W 5260  23.552  28.992   3.175
43598W        W 5261  14.234  34.892  10.942
43599W        W 5262  39.556   3.359  14.399
43600W        W 5263  21.620  14.160   0.963
43601W        W 5264  18.723  11.691   2.360
43602W        W 5265  21.172  15.715   2.738
43603W        W 5266  37.032  11.307  13.412
43604W        W 5267  15.175  39.021   0.389
43605W        W 5268  37.452  19.043   2.313
43606W        W 5269  44.003  27.643   2.346
43607W        W 5270  38.525  27.598  13.476
43608W        W 5271   8.284   4.358  11.447
43609W        W 5272  18.161  42.459   0.406
43610W        W 5273  24.166  30.598  14.009
43611W        W 5274  23.216  37.397   1.740
43612W        W 5275  36.081   1.271   4.240
43613W        W 5276   9.755   9.675  13.517
43614W        W 5277  32.058  33.916   4.322
43615W        W 5278  10.657  14.674   3.866
43616W        W 5279  18.283   4.698   4.795
43617W        W 5280   2.741  43.376   0.412
43618W        W 5281  11.867  36.982   3.165
43619W        W 5282  17.095  24.665   4.185
43620W        W 5283  16.196  34.509  13.325
43621W        W 5284   7.221  44.989   1.785
43622W        W 5285  24.633  31.510  14.473
43623W        W 5286  33.436  41.896   1.264
43624W        W 5287  42.019  36.953   4.347
43625W        W 5288  32.480  32.602   3.719
43626W        W 5289  28.627  35.419   4.119
43627W        W 5290  17.653  38.508  11.401
43628W        W 5291  26.561   9.209   0.266
43629W        W 5292   3.779  21.638  13.492
43630W        W 5293   5.198  14.217  12.836
43631W        W 5294  24.003  13.744   4.337
43632W        W 5295  23.055  14.628  14.446
43633W        W 5296  28.680   7.229   4.313
43634W        W 5297  33.611  31.607  14.986
43635W        W 5298   7.768  21.258  14.457
43636W        W 5299   9.257  22.643   4.341
43637W        W 5300  42.386  12.817   9.556
43638W        W 5301  13.107  19.540  10.492
43639W        W 5302  11.838  22.006   3.839
43640W        W 5303  39.492  40.499   0.789
43641W        W 5304  19.215  43.369  12.572
43642W        W 5305  19.601   6.227   5.083
43643W        W 5306  15.190  21.713   3.778
43644W        W 5307  40.855  17.738  13.028
43645W        W 5308   7.404  14.148  14.373
43646W        W 5309  20.145  23.685   1.311
43647W        W 5310  41.926  34.069   2.358
43648W        W 5311  44.949  41.398   2.185
43649W        W 5312  43.316  13.256   5.601
43650W        W 5313  13.218  35.909   3.260
43651W        W 5314   2.907  11.352   4.645
43652W        W 5315   6.278  34.579   2.362
43653W        W 5316  35.881  40.400  10.596
43654W        W 5317  29.002  40.911  13.329
43655W        W 5318  26.607  37.381   1.421
43656W        W 5319   1.317  14.295   1.737
43657W        W 5320  31.470  11.370   1.346
43658W        W 5321  32.128  14.292  14.428
43659W        W 5322  43.949  29.505   3.684
43660W        W 5323   1.353  17.593   4.666
43661W        W 5324  12.674   6.196   1.405
43662W        W 5325  23.239  18.662  14.335
43663W        W 5326   2.401  44.466   1.728
43664W        W 5327  34.599   5.746  10.478
43665W        W 5328  12.673  19.078   0.837
43666W        W 5329  32.923  28.635  14.948
43667W        W 5330  22.522  26.694  11.408
43668W        W 5331   9.821   0.465  11.390
43669W        W 5332  17.673  21.638   3.180
43670W        W 5333   7.904  19.713  12.013
43671W        W 5334  39.471  39.315  14.993
43672W        W 5335  36.928  16.632  11.902
43673W        W 5336  42.302  12.841  10.114
43674W        W 5337  24.180  29.428   4.717
43675W        W 5338  36.416   8.182   9.951
43676W        W 5339   6.856  24.612  10.406
43677W        W 5340  21.052  23.636   0.292
43678W        W 5341  27.162  10.690  12.351
43679W        W 5342  37.832  42.853  11.536
43680W        W 5343  34.009  42.280  12.915
43681W        W 5344  40.458  39.910  11.036
43682W        W 5345  26.204  26.610  14.358
43683W        W 5346  36.915  36.348   0.907
43684W        W 5347   1.452  29.161   1.879
43685W        W 5348  25.165   2.345   4.279
43686W        W 5349  42.422   0.842  13.891
43687W        W 5350  15.255  14.232  10.484
43688W        W 5351  38.335  16.153   2.784
43689W        W 5352  20.107  20.230   4.340
43690W        W 5353  41.468  31.079  14.889
43691W        W 5354  28.169   3.215   4.702
43692W        W 5355   8.785  14.691  13.503
43693W        W 5356  23.203  28.939   1.727
43694W        W 5357  19.100  35.968  12.507
43695W        W 5358  21.039  14.809   0.413
43696W        W 5359  42.316   6.723  11.520
43697W        W 5360   2.448  33.450   4.347
43698W        W 5361  15.664  38.026   1.372
43699W        W 5362  39.378  17.745  11.906
43700W        W 5363  43.406  24.598  12.946
43701W        W 5364  44.926  10.246  13.801
43702W        W 5365  10.800  31.084   3.322
43703W        W 5366  24.560  13.320  11.462
43704W        W 5367  15.679  32.442   1.289
43705W        W 5368  17.763   3.231   3.348
43706W        W 5369  26.664  12.136   4.186
43707W        W 5370  43.788  19.120  14.874
43708W        W 5371   0.874   3.314  13.337
43709W        W 5372  39.858  13.341   2.280
43710W        W 5373   5.690  34.056  14.433
43711W        W 5374   9.272   5.924  11.420
43712W        W 5375   8.222   0.286  14.496
43713W        W 5376  10.694  31.499  13.390
43714W        W 5377  18.570  35.000   1.860
43715W        W 5378   9.167   6.231   2.758
43716W        W 5379  21.208  40.875   3.278
43717W        W 5380  13.660   1.383  13.471
43718W        W 5381  16.194  24.529   2.266
43719W        W 5382  31.534  32.119  13.807
43720W        W 5383   0.822   1.858  12.544
43721W        W 5384  37.441  20.637  14.952
43722W        W 5385  11.208  16.099  14.446
43723W        W 5386  15.681   2.803   4.348
43724W        W 5387  21.648  41.040   2.697
43725W        W 5388  44.845  22.713   3.740
43726W        W 5389  11.313  31.077  10.529
43727W        W 5390  44.346   4.362   2.869
43728W        W 5391  40.952  31.960  10.427
43729W        W 5392  39.316  35.961   0.356
43730W        W 5393  31.087   2.733  14.897
43731W        W 5394   3.312  34.578  12.924
43732W        W 5395  15.139  42.502  14.498
43733W        W 5396  10.250  15.318  13.002
43734W        W 5397   9.316  21.586   0.394
43735W        W 5398  31.447  44.481   3.725
43736W        W 5399  27.998  12.274  14.383
43737W        W 5400  25.520   7.875  14.761
43738W        W 5401  33.532  36.393   1.869
43739W        W 5402  10.229   8.782   1.702
43740W        W 5403  32.069  16.646  13.392
43741W        W 5404  38.415  37.369   0.753
43742W        W 5405  17.264  44.950   1.811
43743W        W 5406  36.942  39.487  13.930
43744W        W 5407   1.273  30.443  14.465
43745W        W 5408  23.714  37.337   4.701
43746W        W 5409  32.133  23.675   4.351
43747W        W 5410   1.948  40.319   1.759
43748W        W 5411  11.259   1.459   1.819
43749W        W 5412   0.831  17.601   4.747
43750W        W 5413  27.982  16.234  10.922
43751W        W 5414  34.031  38.336  14.855
43752W        W 5415  43.782  33.458   3.814
43753W        W 5416  20.649  25.064  14.911
43754W        W 5417  18.228  17.575   2.854
43755W        W 5418  28.020   9.685   3.165
43756W        W 5419  29.469  32.440   2.192
43757W        W 5420  36.478  22.580  12.478
43758W        W 5421   5.248  37.555   5.152
43759W        W 5422  28.493  15.234  12.459
43760W        W 5423  23.575   4.433  13.355
43761W        W 5424  28.516   8.889   1.732
43762W        W 5425  35.496   0.368  11.409
43763W        W 5426  24.664  40.958   9.662
43764W        W 5427  42.900   9.827  12.891
43765W        W 5428  29.469  43.854   3.301
43766W        W 5429  15.676  21.705   1.750
43767W        W 5430  35.560  20.550   0.927
43768W        W 5431  31.125  35.566   0.890
43769W        W 5432  27.131  24.712  13.312
43770W        W 5433   4.809   2.348   3.871
43771W        W 5434   8.810   1.438   1.421
43772W        W 5435  39.828  40.449  14.296
43773W        W 5436  26.983  37.403  10.084
43774W        W 5437  12.173  16.074   3.286
43775W        W 5438  34.931   4.242  11.434
43776W        W 5439   7.271  14.228  12.057
43777W        W 5440  38.998   2.289   1.865
43778W        W 5441   3.398  38.444  12.498
43779W        W 5442  12.349  40.356  12.510
43780W        W 5443   0.918  24.592  12.526
43781W        W 5444  41.417  39.826  11.031
43782W        W 5445  19.566   9.205  11.565
43783W        W 5446  40.907  20.124  12.391
43784W        W 5447  42.433  12.788   4.249
43785W        W 5448   5.814  14.123  14.916
43786W        W 5449  42.484  11.815   0.801
43787W        W 5450   6.376  20.269  13.547
43788W        W 5451   9.831  13.225   0.852
43789W        W 5452  39.552  20.592   0.741
43790W        W 5453  22.623  35.977   2.728
43791W        W 5454  16.090  28.112  11.055
43792W        W 5455  14.125  23.623  13.403
43793W        W 5456   9.870  29.567  12.458
43794W        W 5457  35.450  34.064   3.728
43795W        W 5458  28.088  42.413  14.289
43796W        W 5459  38.398  43.454  14.895
43797W        W 5460  21.520  31.428  11.937
43798W        W 5461  33.441  24.168   0.948
43799W        W 5462   0.493  18.057  10.595
43800W        W 5463  28.979  21.551   0.843
43801W        W 5464   8.678   6.254   0.363
43802W        W 5465   4.286   9.361  14.375
43803W        W 5466  13.636  23.038   1.705
43804W        W 5467  27.460  42.467   3.692
43805W        W 5468  41.976   1.271   4.265
43806W        W 5469   3.344   6.426  12.934
43807W        W 5470   4.342   1.823  14.015
43808W        W 5471  34.386   3.799   0.902
43809W        W 5472   2.891  44.921   4.723
43810W        W 5473  23.538  29.102   3.634
43811W        W 5474   6.401  10.664   0.787
43812W        W 5475  33.508  12.716   1.285
43813W        W 5476   9.331  33.527  12.055
43814W        W 5477  35.427  11.176   2.742
43815W        W 5478   0.262  38.022  11.004
43816W        W 5479  44.347  39.017  13.364
43817W        W 5480  17.278  33.062   0.802
43818W        W 5481   7.298  44.438  11.072
43819W        W 5482  31.940  15.734   0.410
43820W        W 5483   8.668  20.191   1.697
43821W        W 5484  35.572  11.277   1.384
43822W        W 5485  26.126  14.620   4.689
43823W        W 5486  32.403   0.454   0.732
43824W        W 5487   3.325   8.217   1.708
43825W        W 5488  11.373  22.089  13.535
43826W        W 5489  18.228   3.295  13.364
43827W        W 5490   4.882  42.396   2.688
43828W        W 5491  26.556  37.040  11.939
43829W        W 5492  38.565  39.818   1.410
43830W        W 5493  36.961  25.576   0.799
43831W        W 5494  27.183  29.658   0.881
43832W        W 5495   4.354  22.677  13.928
43833W        W 5496   1.312   8.888   3.306
43834W        W 5497  24.565  11.843  11.054
43835W        W 5498   9.353  12.703  13.813
43836W        W 5499  27.649  16.749   2.792
43837W        W 5500   8.171  30.107  13.914
43838W        W 5501  12.785  24.480  14.802
43839W        W 5502  30.086  20.176  10.007
43840W        W 5503   6.242  10.252   9.928
43841W        W 5504  20.087  33.387  11.513
43842W        W 5505  13.283  38.509   4.648
43843W        W 5506   5.807  10.805  10.959
43844W        W 5507  39.996  39.057   1.842
43845W        W 5508  41.845  35.445  11.448
43846W        W 5509   5.779  24.069   2.276
43847W        W 5510  44.978  26.509  14.360
43848W        W 5511  27.596  24.033  12.349
43849W        W 5512  25.522  31.500  14.953
43850W        W 5513  16.628  23.216   3.765
43851W        W 5514   2.776  10.727  14.927
43852W        W 5515  29.162   7.382  14.276
43853W        W 5516   2.297  44.337  11.388
43854W        W 5517  15.607  39.819   2.758
43855W        W 5518  23.012   3.926   2.735
43856W        W 5519   5.265  42.292  14.302
43857W        W 5520  27.561  16.187   1.268
43858W        W 5521  29.086  30.609   4.834
43859W        W 5522  28.131   7.260  11.434
43860W        W 5523  22.616  14.834  10.991
43861W        W 5524  41.921  20.045   3.170
43862W        W 5525  15.755  44.360  11.599
43863W        W 5526  22.226  14.150   0.445
43864W        W 5527  27.016  14.628   0.769
43865W        W 5528  36.591  35.547   3.212
43866W        W 5529   1.741  33.927   2.693
43867W        W 5530  23.620  10.755   3.252
43868W        W 5531  26.674  15.724  12.422
43869W        W 5532  21.217  10.720  11.448
43870W        W 5533  16.692  33.965  14.981
43871W        W 5534  26.681  29.987   1.314
43872W        W 5535  17.084   4.774  13.013
43873W        W 5536  10.716  35.502  10.471
43874W        W 5537  20.055  43.866   4.193
43875W        W 5538  27.088  44.330  13.997
43876W        W 5539  24.994  38.834  13.399
43877W        W 5540   6.319  13.710  11.468
43878W        W 5541  39.388  35.516  13.414
43879W        W 5542  42.408   0.903  11.898
43880W        W 5543  18.709  36.863   2.753
43881W        W 5544  40.020  28.963   3.691
43882W        W 5545  37.399  16.216  13.502
43883W        W 5546   3.356  15.310  14.933
43884W        W 5547   9.206   3.299  13.030
43885W        W 5548   8.236   5.904   2.263
43886W        W 5549   7.804  32.522  10.948
43887W        W 5550   0.285  21.744   3.660
43888W        W 5551  16.278  30.635   0.372
43889W        W 5552  16.205  33.985   0.745
43890W        W 5553   6.923  25.519   0.799
43891W        W 5554  30.128  38.450   0.812
43892W        W 5555  22.685  28.490   4.602
43893W        W 5556  41.844  12.362   2.828
43894W        W 5557   2.264  21.560   3.658
43895W        W 5558  42.797  41.798   5.200
43896W        W 5559  21.183   6.323  10.998
43897W        W 5560   9.207  36.369  13.428
43898W        W 5561  19.552  43.804  14.387
43899W        W 5562  32.995  41.817   4.821
43900W        W 5563  42.916  21.126  12.499
43901W        W 5564   3.930  39.002  13.326
43902W        W 5565  26.602  27.058   1.260
43903W        W 5566  27.071   0.315  12.501
43904W        W 5567  25.178  13.225   4.793
43905W        W 5568  31.962  14.767   4.131
43906W        W 5569  32.127  44.840  13.933
43907W        W 5570   6.884   6.233  11.501
43908W        W 5571  11.369   9.731   2.866
43909W        W 5572  11.238  30.527   0.457
43910W        W 5573  35.582  22.231   3.348
43911W        W 5574   2.759  39.414   2.770
43912W        W 5575  24.052  15.672  13.311
43913W        W 5576  38.987  10.207   0.794
43914W        W 5577  24.693  14.689   1.230
43915W        W 5578   0.343  20.553  11.122
43916W        W 5579  36.041  27.998  11.070
43917W        W 5580  41.423  44.812   1.434
43918W        W 5581  36.009  38.444  14.868
43919W        W 5582  31.120  37.515  14.008
43920W        W 5583  36.519   4.440   2.418
43921W        W 5584   5.912  34.494  12.889
43922W        W 5585  42.395  35.368   1.250
43923W        W 5586  15.646  42.441  10.631
43924W        W 5587  29.610  43.364   1.267
43925W        W 5588  35.899  39.532   4.758
43926W        W 5589  40.385   1.407  14.371
43927W        W 5590  16.659   7.888   3.219
43928W        W 5591   9.191  23.084  14.477
43929W        W 5592  35.975  28.459   4.836
43930W        W 5593  42.782  35.914   4.676
43931W        W 5594  27.073  16.291   1.795
43932W        W 5595  19.198   7.770   2.848
43933W        W 5596  24.724  24.541  10.586
43934W        W 5597  25.027   2.950  11.916
43935W        W 5598  16.113  42.915  11.966
43936W        W 5599  31.937  23.531   3.343
43937W        W 5600  36.463  34.442   2.742
43938W        W 5601  10.256   3.738   4.250
43939W        W 5602  22.025  23.162  13.937
43940W        W 5603  11.674  21.623   3.202
43941W        W 5604   8.390  29.638   3.686
43942W        W 5605  23.988  39.821   5.120
43943W        W 5606  38.469   0.906  10.630
43944W        W 5607  26.014  19.264  10.460
43945W        W 5608  35.053  15.704  12.062
43946W        W 5609  44.926   3.405  10.551
43947W        W 5610  32.973  13.645   2.270
43948W        W 5611  13.639  25.569  14.896
43949W        W 5612   1.835  44.300  12.949
43950W        W 5613  36.452  26.642   0.345
43951W        W 5614  36.012  21.547   5.680
43952W        W 5615  38.014  37.344   0.915
43953W        W 5616  27.590  26.638  13.473
43954W        W 5617  15.635  24.225  14.284
43955W        W 5618   7.317  22.721   3.661
43956W        W 5619  21.140  21.643   2.355
43957W        W 5620  33.978  39.027   0.367
43958W        W 5621   3.297  22.088  14.426
43959W        W 5622  17.256  38.408  13.389
43960W        W 5623  38.439  36.927  13.046
43961W        W 5624   4.436  24.077   4.266
43962W        W 5625  15.086  40.943   5.263
43963W        W 5626  16.257  16.254  13.796
43964W        W 5627  34.012  35.928  11.581
43965W        W 5628  30.578  11.754   3.280
43966W        W 5629  30.126  22.544  10.426
43967W        W 5630  38.910  42.420   1.312
43968W        W 5631  16.704  18.708   4.159
43969W        W 5632   3.399  43.907   0.484
43970W        W 5633  28.048  32.556  14.337
43971W        W 5634  25.518  22.689   2.307
43972W        W 5635  14.172  24.103  12.358
43973W        W 5636   0.373  15.149   4.327
43974W        W 5637  38.974   8.374   2.710
43975W        W 5638   5.285  44.982  12.888
43976W        W 5639  18.059  12.345  12.022
43977W        W 5640  24.148  23.728  12.047
43978W        W 5641   6.367  44.788   4.696
43979W        W 5642  21.034  26.500  12.973
43980W        W 5643  32.961   2.392  12.492
43981W        W 5644  14.732  37.574  12.842
43982W        W 5645  30.968  17.701   1.786
43983W        W 5646  20.103  26.492  11.453
43984W        W 5647   3.264  33.564   1.867
43985W        W 5648  39.835  12.748   1.356
43986W        W 5649  30.464  34.534   4.837
43987W        W 5650  27.454   0.796   1.443
43988W        W 5651  36.416  10.209   4.240
43989W        W 5652  16.270  33.514  12.093
43990W        W 5653  26.552  40.480   4.786
43991W        W 5654  18.721  43.446   1.289
43992W        W 5655  21.617   0.743   0.776
43993W        W 5656  41.407  37.342   2.212
43994W        W 5657  18.640  20.649  10.971
43995W        W 5658  20.079  14.106   1.766
43996W        W 5659   6.358  26.568  12.823
43997W        W 5660  35.047  17.258  10.133
43998W        W 5661  36.080  35.455  14.989
43999W        W 5662  23.156  15.812   4.703
44000W        W 5663   7.258   8.770   1.424
44001W        W 5664  12.189   3.370  13.978
44002W        W 5665   3.765   0.934  14.514
44003W        W 5666  30.116  41.454  11.496
44004W        W 5667  25.134  33.997   1.292
44005W        W 5668  20.130  26.537  11.898
44006W        W 5669  12.792   1.450  10.916
44007W        W 5670   3.720  26.999   1.290
44008W        W 5671  32.143  26.684  12.035
44009W        W 5672  18.183  27.691   1.894
44010W        W 5673  41.892  34.052  11.062
44011W        W 5674  13.789  44.412   1.722
44012W        W 5675  23.226  16.607  13.905
44013W        W 5676  16.634   0.451   1.884
44014W        W 5677  32.951  26.563  14.886
44015W        W 5678  14.152   1.441   2.859
44016W        W 5679   4.710  20.599   3.270
44017W        W 5680   2.872  19.617  12.993
44018W        W 5681  13.720   4.412  10.514
44019W        W 5682  21.018  27.533   4.278
44020W        W 5683   5.194  10.814  12.027
44021W        W 5684  23.115  23.994  13.993
44022W        W 5685  30.479  33.956  12.562
44023W        W 5686   4.299  19.722   2.742
44024W        W 5687  26.459  11.205  11.031
44025W        W 5688   1.277   6.285  11.532
44026W        W 5689  17.766  11.713  14.305
44027W        W 5690  11.191   5.728   2.764
44028W        W 5691  24.481  34.015   0.883
44029W        W 5692   0.481  25.007  12.344
44030W        W 5693  15.156  42.008  12.897
44031W        W 5694   3.879  23.179   3.697
44032W        W 5695  34.953  36.019   0.306
44033W        W 5696   2.745  12.295  14.424
44034W        W 5697  40.318  24.528   3.723
44035W        W 5698  22.589  12.297   3.808
44036W        W 5699  21.034  13.693  10.478
44037W        W 5700  38.508   6.769   3.822
44038W        W 5701  39.821  30.568   1.714
44039W        W 5702  11.278  22.027  11.503
44040W        W 5703  13.192   5.315   0.863
44041W        W 5704  38.938  16.657  13.826
44042W        W 5705  14.796  17.660   4.696
44043W        W 5706  40.806   0.339   1.416
44044W        W 5707  19.217  44.000   4.179
44045W        W 5708  34.964  36.903   1.795
44046W        W 5709  21.089  11.293  12.541
44047W        W 5710  25.594  18.591  13.449
44048W        W 5711   3.215   0.959   5.156
44049W        W 5712  33.490  29.138   0.791
44050W        W 5713  26.677  28.962   2.665
44051W        W 5714   5.371  22.627   3.230
44052W        W 5715  39.004   1.902  10.151
44053W        W 5716  16.652  36.554  12.467
44054W        W 5717   5.902  17.693  12.872
44055W        W 5718   9.253  26.509  11.901
44056W        W 5719  39.955  19.175  11.929
44057W        W 5720   2.341  20.261  14.338
44058W        W 5721   8.244  44.772   1.758
44059W        W 5722  11.853  38.527   1.837
44060W        W 5723  31.435  29.430   4.185
44061W        W 5724  41.997  32.017  12.862
44062W        W 5725  44.930  14.697  14.500
44063W        W 5726   2.824  17.080  12.918
44064W        W 5727  11.136  25.082  12.922
44065W        W 5728   5.401  15.138   3.386
44066W        W 5729  32.056   4.804   0.885
44067W        W 5730  13.350  15.277  14.359
44068W        W 5731  24.061  11.230   4.353
44069W        W 5732  40.922  41.537  14.327
44070W        W 5733  11.676   2.259  12.853
44071W        W 5734  34.505   0.302  13.534
44072W        W 5735  44.300  23.237   4.740
44073W        W 5736  37.060  16.242  13.990
44074W        W 5737   3.760  41.928   4.256
44075W        W 5738  42.522  25.215  10.452
44076W        W 5739   7.373  23.130  12.902
44077W        W 5740  31.048   7.853  11.531
44078W        W 5741  24.671  34.431   3.212
44079W        W 5742   0.250   9.246  14.441
44080W        W 5743  31.131   3.433  14.283
44081W        W 5744  12.735  32.480   4.738
44082W        W 5745  36.844  25.971   1.775
44083W        W 5746   2.316  32.113   5.084
44084W        W 5747   4.407  25.482  11.613
44085W        W 5748  25.038  10.832   4.261
44086W        W 5749  24.608  11.810  14.278
44087W        W 5750  34.530  33.010  10.548
44088W        W 5751  43.293  34.405  13.847
44089W        W 5752  40.431  28.072   4.682
44090W        W 5753   8.186  43.816  14.797
44091W        W 5754  36.056  10.858   4.606
44092W        W 5755  23.000  34.036   3.657
44093W        W 5756  28.144  39.019  11.517
44094W        W 5757   6.259  40.963  12.435
44095W        W 5758  20.547  32.114  14.869
44096W        W 5759  30.133  10.173  11.879
44097W        W 5760  22.688  39.047  10.922
44098W        W 5761  31.572  22.139   2.264
44099W        W 5762  13.108   2.445   3.668
44100W        W 5763  39.938   9.791  10.024
44101W        W 5764   0.844  16.206   0.402
44102W        W 5765  29.124  32.412  13.861
44103W        W 5766  10.724   5.397   2.727
44104W        W 5767  34.945  32.457   0.260
44105W        W 5768  34.556  10.705  14.307
44106W        W 5769  20.106  19.714  11.437
44107W        W 5770   0.896   1.326   2.695
44108W        W 5771  39.045  20.040   0.434
44109W        W 5772  16.268   6.268   4.307
44110W        W 5773  26.180  19.610  10.958
44111W        W 5774  34.071   2.764  14.474
44112W        W 5775   9.335  28.437  11.933
44113W        W 5776  43.329  10.154   4.132
44114W        W 5777   6.258  21.235   4.720
44115W        W 5778   3.827   8.256  10.411
44116W        W 5779  28.462  33.618  12.952
44117W        W 5780  38.528   8.886  13.373
44118W        W 5781  14.833  37.835  11.910
44119W        W 5782  20.105   3.328   3.863
44120W        W 5783   1.283  22.683   2.806
44121W        W 5784   6.280   1.965   1.748
44122W        W 5785   9.251  30.459   0.831
44123W        W 5786   0.277  31.003  14.481
44124W        W 5787  42.461  28.456   4.619
44125W        W 5788  34.979  11.755  13.980
44126W        W 5789   4.762  43.378  11.528
44127W        W 5790  33.131  12.654   0.905
44128W        W 5791  30.551  18.257   3.704
44129W        W 5792  42.946   1.822  14.380
44130W        W 5793  40.351  21.173   3.642
44131W        W 5794  26.597  10.186   1.878
44132W        W 5795  35.037  24.484  13.894
44133W        W 5796  32.557   2.754  14.508
44134W        W 5797  15.723  39.479   0.786
44135W        W 5798   9.843  20.245   1.702
44136W        W 5799  23.515  39.853  11.563
44137W        W 5800  42.922  43.280   1.268
44138W        W 5801  11.793   2.720   4.151
44139W        W 5802  43.834  22.698   2.785
44140W        W 5803   0.381   2.259   4.699
44141W        W 5804  35.095  33.897   2.385
44142W        W 5805  44.757  20.545  11.378
44143W        W 5806   6.780  35.523  11.064
44144W        W 5807  23.204  26.199   2.866
44145W        W 5808   9.704  10.712  12.060
44146W        W 5809  26.131  33.485  11.024
44147W        W 5810  10.258  35.388   0.427
44148W        W 5811  35.993  23.147  13.993
44149W        W 5812  12.639   3.799   3.236
44150W        W 5813   9.360  39.845   1.227
44151W        W 5814  10.766  14.127  10.591
44152W        W 5815  15.681  44.986  14.929
44153W        W 5816  19.220  37.533   2.719
44154W        W 5817  12.722  33.941  12.929
44155W        W 5818  33.110  28.065   1.282
44156W        W 5819   3.307  11.828   0.461
44157W        W 5820  17.301  25.711  13.005
44158W        W 5821   4.940  44.814   2.353
44159W        W 5822   7.728  34.523   5.103
44160W        W 5823  12.738  16.312  13.513
44161W        W 5824  32.013  10.177  10.467
44162W        W 5825  32.922  30.040   2.313
44163W        W 5826  34.914   2.432  11.033
44164W        W 5827  21.201  14.223   0.392
44165W        W 5828  41.986  38.877  10.055
44166W        W 5829   5.329  13.339   4.154
44167W        W 5830  30.132  23.562  14.780
44168W        W 5831   0.744   4.763  12.059
44169W        W 5832  23.551  44.829  13.847
44170W        W 5833   7.691   2.231  12.356
44171W        W 5834  12.319  23.984  11.580
44172W        W 5835   4.259  19.156   3.649
44173W        W 5836  23.690  13.722   4.334
44174W        W 5837   0.419  21.708   3.236
44175W        W 5838  38.342   7.365   4.668
44176W        W 5839  23.567  33.379  10.944
44177W        W 5840  18.579  31.579   2.772
44178W        W 5841  38.521  20.655   2.870
44179W        W 5842  25.066  12.254  14.442
44180W        W 5843   3.414  33.569   4.725
44181W        W 5844  20.214  27.628   0.369
44182W        W 5845  40.821  29.123   1.845
44183W        W 5846  22.666  29.464   1.398
44184W        W 5847   3.747  32.005   9.998
44185W        W 5848   9.655  24.494  14.776
44186W        W 5849  24.199  27.573  14.448
44187W        W 5850  15.271   5.736  11.876
44188W        W 5851  25.110  35.999   2.728
44189W        W 5852  16.116   1.871   1.897
44190W        W 5853  30.025   0.248   3.823
44191W        W 5854  28.580  32.004  10.931
44192W        W 5855  27.538  17.677   4.787
44193W        W 5856   6.301  32.010   3.146
44194W        W 5857   0.915   9.889   4.617
44195W        W 5858  30.474  42.297   0.333
44196W        W 5859  33.467  34.022   5.194
44197W        W 5860  20.558   5.351   0.875
44198W        W 5861   4.261   2.337  12.926
44199W        W 5862  40.862   2.876   0.465
44200W        W 5863  15.816  11.300  11.860
44201W        W 5864  31.934   4.240   3.180
44202W        W 5865  42.857  34.060   3.688
44203W        W 5866  21.676   6.891  14.433
44204W        W 5867  14.161  34.040  12.455
44205W        W 5868  42.354  40.482  12.444
44206W        W 5869  43.821  23.567  13.348
44207W        W 5870  34.999   3.218  12.394
44208W        W 5871  36.020  42.411  13.970
44209W        W 5872   3.929  11.690   2.347
44210W        W 5873  17.598  42.005  10.890
44211W        W 5874   5.303  33.911  13.880
44212W        W 5875  28.093  35.572   3.738
44213W        W 5876  13.835   0.286   4.246
44214W        W 5877   2.358   1.754   3.631
44215W        W 5878  13.683  17.214  11.021
44216W        W 5879   1.475  32.490  13.906
44217W        W 5880  35.085  39.971   3.846
44218W        W 5881  11.736  41.985   4.195
44219W        W 5882  31.423  31.598  13.045
44220W        W 5883   0.390   8.751  10.909
44221W        W 5884  27.082  25.526   1.836
44222W        W 5885  10.163  19.254  13.425
44223W        W 5886   9.759  14.737   3.386
44224W        W 5887   7.850  42.523   2.314
44225W        W 5888  39.024  22.150  13.540
44226W        W 5889  22.043  17.193   1.317
44227W        W 5890   7.203   0.804   3.808
44228W        W 5891  14.804   5.753   3.225
44229W        W 5892  31.580   9.669  11.025
44230W        W 5893   2.257  17.297  12.891
44231W        W 5894   5.828  23.127   2.237
44232W        W 5895  14.230  29.157  11.576
44233W        W 5896   5.793  40.829  12.505
44234W        W 5897  10.377   1.343  11.946
44235W        W 5898  19.091  36.569  14.395
44236W        W 5899  31.932  16.606  14.428
44237W        W 5900  39.953  12.303  10.639
44238W        W 5901  23.513   8.808  11.569
44239W        W 5902  19.780  32.507  11.100
44240W        W 5903  23.145  23.193  14.841
44241W        W 5904  10.716  13.333   4.290
44242W        W 5905  34.061   1.359  12.869
44243W        W 5906   9.888  12.613   1.383
44244W        W 5907  33.015  37.339  11.905
44245W        W 5908  25.970  30.133  11.475
44246W        W 5909  13.323  11.324  13.912
44247W        W 5910  33.976   2.255   1.398
44248W        W 5911  27.962  21.022  12.830
44249W        W 5912  31.066   5.390  14.493
44250W        W 5913   0.778   6.819   0.296
44251W        W 5914  18.274   9.374   2.892
44252W        W 5915  35.043  10.809  13.877
44253W        W 5916  22.139  34.092   3.838
44254W        W 5917  13.331  27.461   0.425
44255W        W 5918   1.802  30.080   4.314
44256W        W 5919  30.496  39.866  11.537
44257W        W 5920  16.296   2.263   4.630
44258W        W 5921   9.693  28.979   0.775
44259W        W 5922  21.613  39.340  11.568
44260W        W 5923  36.481  32.601  10.642
44261W        W 5924  24.593  24.554  13.507
44262W        W 5925  37.501  23.645   2.275
44263W        W 5926  14.594  28.994  11.035
44264W        W 5927  24.642  44.396   0.280
44265W        W 5928  38.460  17.192   0.879
44266W        W 5929   6.907  17.701   2.315
44267W        W 5930  19.657   1.319   0.319
44268W        W 5931  23.124  14.304  13.982
44269W        W 5932  35.868  14.824   1.369
44270W        W 5933   5.740  43.847  12.018
44271W        W 5934  19.566  31.065  12.373
44272W        W 5935  22.236  14.812  12.940
44273W        W 5936  25.605  32.008   1.893
44274W        W 5937  23.132  43.277   1.845
44275W        W 5938  19.641   8.160  12.519
44276W        W 5939  35.490  10.741   5.141
44277W        W 5940  28.509   0.266  11.013
44278W        W 5941  15.253   7.711  11.103
44279W        W 5942   3.882  12.833   4.333
44280W        W 5943  39.930  30.965  10.452
44281W        W 5944  23.068  31.646  11.540
44282W        W 5945   0.348  25.149  13.526
44283W        W 5946  38.350   6.832  11.531
44284W        W 5947  29.056  24.521  14.972
44285W        W 5948  17.163  37.830  12.884
44286W        W 5949  13.324  25.149  12.388
44287W        W 5950  15.628  18.241   2.359
44288W        W 5951  29.976  35.037  14.350
44289W        W 5952  11.663   1.248   2.236
44290W        W 5953  39.498   4.344  12.837
44291W        W 5954   7.720  17.631  10.478
44292W        W 5955  24.621  44.288   0.871
44293W        W 5956  14.263  27.949  12.004
44294W        W 5957  24.062  14.611  14.821
44295W        W 5958  43.788   8.884  13.343
44296W        W 5959  15.817  31.456  12.871
44297W        W 5960  31.608   1.253  12.474
44298W        W 5961  25.528  28.515   2.178
44299W        W 5962  22.237  17.589  12.969
44300W        W 5963  26.664   2.324  13.347
44301W        W 5964  32.942  13.825   3.835
44302W        W 5965  34.962  41.343   0.783
44303W        W 5966  37.990   9.715   0.405
44304W        W 5967   4.385  38.419  12.838
44305W        W 5968   4.869  33.473  10.614
44306W        W 5969  34.065  42.517   0.405
44307W        W 5970  31.080  30.022   2.900
44308W        W 5971  19.587  40.998  12.467
44309W        W 5972  15.149  29.110   1.897
44310W        W 5973  42.282  42.508  11.060
44311W        W 5974  40.321  15.238  13.802
44312W        W 5975   5.327  28.456   0.893
44313W        W 5976  25.539  33.956  12.430
44314W        W 5977  13.656  28.143  14.485
44315W        W 5978  38.359   4.233   1.695
44316W        W 5979  14.201   2.747   2.685
44317W        W 5980   6.195  37.880  12.429
44318W        W 5981  29.965  38.490   2.237
44319W        W 5982  41.383   6.697  14.320
44320W        W 5983  35.883  29.482   1.335
44321W        W 5984  19.607  13.712  14.467
44322W        W 5985  10.745  40.884   3.648
44323W        W 5986   1.844   7.887  12.913
44324W        W 5987  31.974  26.002  11.040
44325W        W 5988  35.874  26.700  10.089
44326W        W 5989  31.490  19.572  12.531
44327W        W 5990  36.555  20.738  14.465
44328W        W 5991  27.499  32.534  10.435
44329W        W 5992  42.490  42.382  12.054
44330W        W 5993  44.286  44.879  13.978
44331W        W 5994  29.540   8.745   0.335
44332W        W 5995  18.193  10.840   1.299
44333W        W 5996  24.176  22.655   3.222
44334W        W 5997  42.388   3.950   0.325
44335W        W 5998  27.597  35.593   4.662
44336W        W 5999  17.677  34.932   0.837
44337W        W 6000   8.758   8.277   3.672
44338W        W 6001  23.184  43.842   1.825
44339W        W 6002  31.434   0.438  12.461
44340W        W 6003   1.365  42.840   0.381
44341W        W 6004   7.700  12.721  14.833
44342W        W 6005  31.004  18.143   3.719
44343W        W 6006  12.807   7.675   3.743
44344W        W 6007  18.754  44.448   4.247
44345W        W 6008  39.866   7.734  12.403
44346W        W 6009   0.369  11.778   2.316
44347W        W 6010  36.349  24.551   0.926
44348W        W 6011  28.935  28.986  13.315
44349W        W 6012  36.046  26.160  12.079
44350W        W 6013  30.485  25.202  13.848
44351W        W 6014  23.067  43.495  14.472
44352W        W 6015  13.636  13.134  11.480
44353W        W 6016  33.072  40.466  10.502
44354W        W 6017  12.665  18.125   1.333
44355W        W 6018   6.242  35.397   0.439
44356W        W 6019  34.070  25.966  12.958
44357W        W 6020  34.894  30.572  13.016
44358W        W 6021  37.039   2.283  10.887
44359W        W 6022  10.322  26.540   1.734
44360W        W 6023  27.533   6.861   4.837
44361W        W 6024  23.716  27.476  12.571
44362W        W 6025  32.947   5.207  10.973
44363W        W 6026  21.624  27.550   4.177
44364W        W 6027  10.846  24.120  13.966
44365W        W 6028  18.605  12.616  13.461
44366W        W 6029  43.344   0.359  11.041
44367W        W 6030  34.876   7.279  10.642
44368W        W 6031  32.400  23.609   4.121
44369W        W 6032  30.917  34.922   4.631
44370W        W 6033  20.030  33.914  10.633
44371W        W 6034  39.940   8.397   1.377
44372W        W 6035  38.453   7.702   4.735
44373W        W 6036   7.414  28.579  12.890
44374W        W 6037  16.231  15.274  10.136
44375W        W 6038  38.859  30.017   2.743
44376W        W 6039  22.119  16.263   2.217
44377W        W 6040  40.009  38.359   0.729
44378W        W 6041  28.553   7.196  12.059
44379W        W 6042   8.387  39.513   4.184
44380W        W 6043  20.600  33.581   2.807
44381W        W 6044  22.160  42.375  10.887
44382W        W 6045  15.780  32.600  12.982
44383W        W 6046  41.423  40.946   4.303
44384W        W 6047   2.400  11.185  13.912
44385W        W 6048  29.586  15.314   3.258
44386W        W 6049   7.291  27.512   0.897
44387W        W 6050   6.205   6.772  12.395
44388W        W 6051  12.857  31.467   2.679
44389W        W 6052  17.138  10.377   3.847
44390W        W 6053  29.561  32.076  12.028
44391W        W 6054  12.812   9.730   3.795
44392W        W 6055  16.308   8.248  10.896
44393W        W 6056  33.103  21.688   0.366
44394W        W 6057  18.723  10.683  11.051
44395W        W 6058  33.075  42.931   1.376
44396W        W 6059  20.565   3.364  14.820
44397W        W 6060  25.661  31.933  10.938
44398W        W 6061  23.703  35.089   2.896
44399W        W 6062  14.705  18.237   4.615
44400W        W 6063  43.806  19.049  12.949
44401W        W 6064  37.517  33.450   2.358
44402W        W 6065  29.933   0.389  11.078
44403W        W 6066  23.176  29.950  12.421
44404W        W 6067  33.981  13.658   2.278
44405W        W 6068  41.955  34.904  10.943
44406W        W 6069  39.437  39.423   1.883
44407W        W 6070  40.305  33.593   4.202
44408W        W 6071  29.921  43.281   2.857
44409W        W 6072  12.253   1.266  11.969
44410W        W 6073   6.709  16.125   0.386
44411W        W 6074  40.343  40.485   3.201
44412W        W 6075  24.691  15.157  12.023
44413W        W 6076   7.770  29.602   0.369
44414W        W 6077   2.872  43.020  11.018
44415W        W 6078  17.222  35.442  14.947
44416W        W 6079  17.062  42.917  13.997
44417W        W 6080  24.145  13.679  10.921
44418W        W 6081  25.977  35.020  11.438
44419W        W 6082   8.234  20.629   4.137
44420W        W 6083   2.954  40.055   3.735
44421W        W 6084  35.411  22.561   0.265
44422W        W 6085   6.340   5.864  14.944
44423W        W 6086   2.400  23.201  11.610
44424W        W 6087  24.230  38.472   4.285
44425W        W 6088  16.623   7.242   3.200
44426W        W 6089  30.637   4.746  12.353
44427W        W 6090   8.824   1.908   0.757
44428W        W 6091  16.168  16.140  10.457
44429W        W 6092  22.227  15.782   4.649
44430W        W 6093  35.525  38.895   0.403
44431W        W 6094  43.451  14.207   0.358
44432W        W 6095  43.305  39.464  14.314
44433W        W 6096  35.569  18.735  10.133
44434W        W 6097  15.135  22.708   4.271
44435W        W 6098   3.273   2.925  12.984
44436W        W 6099   2.246   1.970   1.872
44437W        W 6100   2.394  42.972   0.827
44438W        W 6101  25.695   5.249  10.095
44439W        W 6102  40.469   9.874  14.762
44440W        W 6103   8.401  44.856  12.949
44441W        W 6104  20.133  43.920  14.767
44442W        W 6105  18.224  28.968   0.312
44443W        W 6106  24.091  26.592  13.042
44444W        W 6107   3.328  19.534   1.924
44445W        W 6108  32.993  10.819   4.824
44446W        W 6109   8.669   1.240   4.714
44447W        W 6110  26.131  28.944   4.215
44448W        W 6111  23.646  30.425   4.772
44449W        W 6112  29.455   8.373  12.490
44450W        W 6113  27.623  35.596   2.188
44451W        W 6114  23.504  18.165   2.691
44452W        W 6115   7.872  39.945   2.382
44453W        W 6116  10.772  24.634  12.496
44454W        W 6117   1.798  24.724  11.026
44455W        W 6118   9.803   5.395   3.192
44456W        W 6119   4.334  36.490   0.344
44457W        W 6120  16.072  33.486  11.528
44458W        W 6121   9.722   7.304  11.541
44459W        W 6122  27.614   2.252   4.814
44460W        W 6123   2.340  25.703   4.723
44461W        W 6124  14.708  42.477  14.017
44462W        W 6125  33.933  10.139   2.724
44463W        W 6126   1.480  39.971   2.178
44464W        W 6127  25.608   8.704   4.314
44465W        W 6128  10.259   9.813   4.730
44466W        W 6129  24.691  11.168   2.762
44467W        W 6130  16.162   0.898  14.879
44468W        W 6131   2.744  34.039  12.424
44469W        W 6132  44.975   7.846   3.222
44470W        W 6133   1.383  38.500  12.027
44471W        W 6134  21.619   0.470   4.675
44472W        W 6135  29.637   0.412   3.242
44473W        W 6136  40.390  28.952   3.706
44474W        W 6137  11.850  10.811  12.557
44475W        W 6138  15.237  19.675   3.856
44476W        W 6139  38.061  18.691   1.723
44477W        W 6140  35.395  14.651   4.698
44478W        W 6141  32.941  42.379   3.816
44479W        W 6142  10.731  10.215   1.419
44480W        W 6143  30.915  35.097   1.366
44481W        W 6144  26.092   5.403  13.390
44482W        W 6145   5.218  34.558  12.953
44483W        W 6146  25.481  21.585   2.675
44484W        W 6147  29.640  20.653   3.315
44485W        W 6148   5.383   8.662  12.388
44486W        W 6149  27.513   7.187   1.785
44487W        W 6150  14.226   2.825  13.398
44488W        W 6151  17.626  36.377   3.666
44489W        W 6152   8.311  32.455  13.461
44490W        W 6153  40.497  12.710   2.403
44491W        W 6154  27.501  25.037   4.805
44492W        W 6155  38.515  19.620  14.283
44493W        W 6156  32.962   9.667  11.992
44494W        W 6157  31.403   8.243   2.335
44495W        W 6158  43.908  24.660  12.558
44496W        W 6159   1.789  17.298   2.760
44497W        W 6160  17.082  36.051  11.501
44498W        W 6161  41.406  12.686   2.370
44499W        W 6162  32.027  31.467  13.371
44500W        W 6163  18.072  32.461  14.980
44501W        W 6164   8.831  32.615   1.440
44502W        W 6165   6.356  25.577  12.356
44503W        W 6166  15.773  39.489  11.108
44504W        W 6167   7.238  11.226   0.891
44505W        W 6168  29.466   1.832   4.694
44506W        W 6169  30.651  14.175  13.925
44507W        W 6170  40.492   9.883   0.779
44508W        W 6171   3.782  26.636  14.461
44509W        W 6172  26.554   9.817   1.756
44510W        W 6173  40.863  11.810  13.548
44511W        W 6174  13.135  30.450   2.759
44512W        W 6175  16.313   8.884   1.417
44513W        W 6176  40.497  10.700   4.650
44514W        W 6177  33.936  23.177   9.976
44515W        W 6178  16.182   7.797  11.607
44516W        W 6179  33.971  33.548  13.813
44517W        W 6180   2.733   4.276   4.799
44518W        W 6181  32.564   2.435   3.651
44519W        W 6182  12.687  20.029   3.782
44520W        W 6183  29.664   7.846   3.774
44521W        W 6184  17.778  38.418  13.870
44522W        W 6185  34.590  13.253  13.049
44523W        W 6186  34.540  10.722  14.953
44524W        W 6187  20.664  39.477   1.238
44525W        W 6188  10.670  12.660   2.276
44526W        W 6189  20.143  36.842  11.454
44527W        W 6190  29.005  19.183   2.214
44528W        W 6191  41.385   3.914   0.808
44529W        W 6192   2.886  26.976   0.761
44530W        W 6193  32.996  12.850  13.364
44531W        W 6194  23.151  24.709  12.939
44532W        W 6195   1.809  42.836  14.011
44533W        W 6196  25.597   1.301  10.055
44534W        W 6197   8.221  40.945  12.488
44535W        W 6198  29.444   1.736   5.256
44536W        W 6199  32.433  35.027   0.773
44537W        W 6200  44.464  28.660   1.300
44538W        W 6201   9.296  19.148  14.998
44539W        W 6202  27.178   5.275   0.850
44540W        W 6203  16.275   8.253  11.985
44541W        W 6204  10.236  29.919  13.441
44542W        W 6205  29.073  39.345   4.626
44543W        W 6206   0.398   3.805  12.944
44544W        W 6207   0.474  16.809   2.370
44545W        W 6208  43.418  19.667   4.706
44546W        W 6209  11.658  18.672  10.524
44547W        W 6210  23.009  21.211   1.370
44548W        W 6211  44.459  32.973  14.280
44549W        W 6212  23.219  39.476  14.468
44550W        W 6213  20.646   8.864   4.674
44551W        W 6214  36.357  11.238  11.021
44552W        W 6215  37.943   1.292   4.184
44553W        W 6216  24.667   4.359  13.900
44554W        W 6217  28.087   4.748   3.835
44555W        W 6218  36.921   6.186   3.346
44556W        W 6219  35.895  12.270  14.851
44557W        W 6220  33.488  23.596  11.064
44558W        W 6221  37.879   2.813   1.901
44559W        W 6222  13.625  32.097   4.717
44560W        W 6223  13.672  32.624  13.003
44561W        W 6224  36.864  42.869   0.270
44562W        W 6225  33.971  24.105  14.504
44563W        W 6226   3.950  43.516   3.656
44564W        W 6227  21.230   8.767  11.974
44565W        W 6228   0.399  14.227   4.158
44566W        W 6229  18.092  12.321  10.511
44567W        W 6230  12.781   3.450   0.438
44568W        W 6231  38.345   0.490   0.294
44569W        W 6232  29.587  19.775   5.137
44570W        W 6233   6.360  33.511  13.861
44571W        W 6234   3.896  29.965  11.562
44572W        W 6235  44.374  30.017   5.233
44573W        W 6236  27.461   0.397  13.984
44574W        W 6237  29.473  43.348  12.892
44575W        W 6238  20.734   3.398  11.860
44576W        W 6239  12.199  19.645  11.550
44577W        W 6240  25.088  21.535  13.532
44578W        W 6241  26.207  22.568   1.821
44579W        W 6242   9.693  22.696  13.341
44580W        W 6243  41.494  32.124   5.121
44581W        W 6244   5.407  11.741  13.837
44582W        W 6245   9.348  18.167  14.289
44583W        W 6246  31.415   8.271  12.389
44584W        W 6247  14.319  20.585  12.886
44585W        W 6248  35.573   4.342   1.732
44586W        W 6249  26.160   2.876   2.313
44587W        W 6250  19.237  12.681   3.172
44588W        W 6251  41.812  21.549   4.662
44589W        W 6252   8.213  33.048  11.533
44590W        W 6253  38.890  38.561   0.244
44591W        W 6254  10.726   5.855  14.431
44592W        W 6255   7.769  12.631   4.800
44593W        W 6256   4.785   7.889   2.211
44594W        W 6257  11.254  14.597  14.987
44595W        W 6258  42.413   1.881   3.347
44596W        W 6259  29.662   7.907  14.368
44597W        W 6260  32.432  19.711   1.895
44598W        W 6261  43.447   8.666   4.279
44599W        W 6262   2.260  38.854   0.475
44600W        W 6263  25.477  23.158  11.114
44601W        W 6264   1.337  35.042  13.906
44602W        W 6265  12.302  19.580  12.043
44603W        W 6266  44.981  25.611  13.041
44604W        W 6267  17.688  10.849  11.881
44605W        W 6268   3.408  34.383  13.854
44606W        W 6269  35.968   3.746  10.516
44607W        W 6270   4.443  18.076  13.996
44608W        W 6271   8.394   4.784  14.473
44609W        W 6272  15.248   4.727   3.798
44610W        W 6273  40.832  39.829   0.328
44611W        W 6274  38.356  37.981   4.696
44612W        W 6275  26.054  25.180  14.897
44613W        W 6276  26.678  35.503  10.518
44614W        W 6277  21.615  43.785   1.782
44615W        W 6278  37.501  30.967   0.284
44616W        W 6279  35.954   1.269  10.404
44617W        W 6280  41.931  29.599  13.485
44618W        W 6281  18.735  12.832   0.261
44619W        W 6282  23.034  38.557   2.336
44620W        W 6283  24.183  33.089   2.697
44621W        W 6284  13.767  25.653   4.656
44622W        W 6285   8.375  30.552   2.411
44623W        W 6286  24.045  30.445   4.114
44624W        W 6287  12.184   3.428  10.563
44625W        W 6288  31.128  28.138  11.525
44626W        W 6289  14.242  30.572  11.000
44627W        W 6290  23.177  15.631  14.473
44628W        W 6291  17.714   5.854  13.906
44629W        W 6292  41.299   6.696   4.771
44630W        W 6293  38.569  44.924  14.363
44631W        W 6294   8.830  19.561   2.377
44632W        W 6295   6.873  28.482  12.024
44633W        W 6296  33.608  25.218   4.744
44634W        W 6297  20.538   6.293   9.937
44635W        W 6298  38.951   9.790  10.590
44636W        W 6299  40.991  17.613  10.587
44637W        W 6300  43.884  20.593   2.183
44638W        W 6301   8.883   7.417  11.958
44639W        W 6302  15.157  30.547  14.363
44640W        W 6303  32.972  30.460  12.559
44641W        W 6304  32.446   1.916   2.840
44642W        W 6305  36.405  35.587   0.903
44643W        W 6306   0.340   3.847  14.488
44644W        W 6307  24.179  15.773  11.448
44645W        W 6308  11.741  37.893   3.372
44646W        W 6309   7.358  19.121  12.043
44647W        W 6310   6.332  44.503  11.905
44648W        W 6311  26.668  20.222   4.250
44649W        W 6312  35.070   3.781  10.946
44650W        W 6313  38.998   1.759   2.813
44651W        W 6314  11.623  18.285  14.826
44652W        W 6315   2.785   9.677   0.480
44653W        W 6316  18.155  32.012  12.020
44654W        W 6317  37.477   7.688   1.345
44655W        W 6318   3.321  35.584   2.364
44656W        W 6319  25.685  39.557  13.021
44657W        W 6320  25.645  37.528   4.774
44658W        W 6321  38.916  34.962  14.027
44659W        W 6322  41.516  34.060  13.986
44660W        W 6323  20.615  14.600   1.853
44661W        W 6324  30.121  33.586   1.733
44662W        W 6325  32.968  10.179   3.681
44663W        W 6326  28.181  39.350  10.117
44664W        W 6327   8.861  32.392  11.915
44665W        W 6328  29.104  26.051   2.178
44666W        W 6329  11.750  43.410   2.290
44667W        W 6330  22.735  30.046   0.273
44668W        W 6331  33.117  13.715  11.939
44669W        W 6332  21.688   7.830  13.392
44670W        W 6333  37.027  12.654   2.418
44671W        W 6334  25.037   3.834  11.428
44672W        W 6335  13.140   9.774   0.775
44673W        W 6336  11.628  18.756  11.061
44674W        W 6337  26.987  42.831  12.976
44675W        W 6338  16.754   9.245   2.877
44676W        W 6339  25.647  40.320   1.417
44677W        W 6340  40.492  12.333   4.162
44678W        W 6341  30.540  11.274   4.154
44679W        W 6342  35.858  18.202   2.208
44680W        W 6343   5.224  15.196  10.469
44681W        W 6344  40.886  34.547  14.360
44682W        W 6345  38.485   1.784  14.764
44683W        W 6346  38.445  29.927   4.295
44684W        W 6347  33.407   7.880   3.153
44685W        W 6348  33.536  13.806  12.459
44686W        W 6349  22.540  31.529  12.920
44687W        W 6350  16.589   3.295   4.838
44688W        W 6351  21.060  36.920   2.213
44689W        W 6352  16.200   7.908   1.446
44690W        W 6353   1.427  39.817  13.962
44691W        W 6354  23.506  38.413  12.515
44692W        W 6355  17.290  28.939  10.601
44693W        W 6356  19.541  37.878  13.812
44694W        W 6357  11.850  24.628   3.783
44695W        W 6358  29.520  37.452   3.156
44696W        W 6359  12.642  20.235   4.338
44697W        W 6360   5.233  34.491   4.189
44698W        W 6361   1.249  26.695   0.273
44699W        W 6362   2.301  40.026   4.216
44700W        W 6363  39.938  10.768   3.834
44701W        W 6364  10.303  13.143  14.368
44702W        W 6365  26.182   6.864  10.421
44703W        W 6366  31.037  29.529  12.003
44704W        W 6367   9.653   8.332  14.339
44705W        W 6368  12.192  28.997   1.914
44706W        W 6369  13.274  14.281   2.902
44707W        W 6370   9.858   9.350   3.197
44708W        W 6371   5.210  40.425   1.385
44709W        W 6372  37.899  26.543  11.056
44710W        W 6373  20.062  38.328   0.428
44711W        W 6374  26.649  16.195   4.215
44712W        W 6375  22.634  17.208   5.240
44713W        W 6376  29.025  35.449   1.301
44714W        W 6377   6.779   5.846   3.832
44715W        W 6378  25.611  29.009   3.843
44716W        W 6379  29.962   0.911  12.018
44717W        W 6380   6.684  31.488  12.552
44718W        W 6381   6.688  20.629  14.948
44719W        W 6382  42.910   8.339   0.253
44720W        W 6383   2.768  30.498   1.408
44721W        W 6384  20.155  37.397   1.325
44722W        W 6385   1.365  30.139   1.449
44723W        W 6386  23.114  19.197   4.827
44724W        W 6387  33.394  20.145  12.441
44725W        W 6388  14.146  24.569  10.412
44726W        W 6389   6.181   2.443  11.944
44727W        W 6390   5.921   8.715  14.875
44728W        W 6391  26.062  29.920   2.713
44729W        W 6392  42.892  43.971  12.498
44730W        W 6393  44.353  43.886   1.348
44731W        W 6394  29.967  30.646   2.251
44732W        W 6395   8.294  22.145  12.940
44733W        W 6396  26.961  32.411  12.951
44734W        W 6397  25.630   8.845   0.478
44735W        W 6398  17.780  40.382   3.844
44736W        W 6399  38.001  39.362  10.551
44737W        W 6400   2.757  28.436   4.652
44738W        W 6401   7.186   3.451  11.036
44739W        W 6402  38.488   8.894  11.377
44740W        W 6403  27.530  39.491   3.670
44741W        W 6404   5.398  31.946  12.000
44742W        W 6405  35.575  27.587   0.272
44743W        W 6406   5.346  20.219  14.842
44744W        W 6407  30.929   3.442  14.990
44745W        W 6408  43.985  22.531  13.927
44746W        W 6409   0.895   8.693   1.765
44747W        W 6410  32.084  37.842   0.309
44748W        W 6411   3.727  14.761   1.395
44749W        W 6412   4.821   6.203   3.734
44750W        W 6413  32.006  38.024   3.177
44751W        W 6414  20.031  43.935   4.637
44752W        W 6415  14.217  20.253  11.564
44753W        W 6416  26.486  36.563   3.173
44754W        W 6417   5.748  41.982  14.366
44755W        W 6418   1.372  33.979   0.933
44756W        W 6419  23.506  30.954  13.919
44757W        W 6420  10.289  23.665  10.977
44758W        W 6421  21.683  37.920  10.603
44759W        W 6422  23.649  21.659  14.442
44760W        W 6423  24.018  26.077  13.546
44761W        W 6424  30.997  24.143   1.359
44762W        W 6425  13.134  17.227  13.343
44763W        W 6426  43.286  33.072   2.817
44764W        W 6427  27.984   8.738  12.532
44765W        W 6428  37.388  38.492  10.521
44766W        W 6429  28.079  27.560   2.369
44767W        W 6430  43.019  10.670  13.391
44768W        W 6431   8.766  26.670  12.960
44769W        W 6432  41.944  29.133   0.466
44770W        W 6433  29.568  31.446  11.934
44771W        W 6434  44.373  35.099  10.564
44772W        W 6435  33.466  13.307   2.664
44773W        W 6436  40.798  40.042   3.785
44774W        W 6437  19.263   1.942  12.043
44775W        W 6438  29.591  35.438   3.630
44776W        W 6439  14.120  21.146   0.861
44777W        W 6440  30.100  15.607  12.886
44778W        W 6441  23.585   0.422   0.352
44779W        W 6442  21.697  25.126   2.403
44780W        W 6443  29.943   9.880   0.287
44781W        W 6444  35.107   1.446   3.750
44782W        W 6445  30.144  15.690  12.543
44783W        W 6446  19.195  16.091   5.123
44784W        W 6447  11.646  39.535   0.734
44785W        W 6448  10.365  30.921  14.346
44786W        W 6449   6.753  42.935   1.346
44787W        W 6450  21.156  16.155   1.841
44788W        W 6451  10.138  13.228  13.460
44789W        W 6452  43.773  38.063  10.560
44790W        W 6453  34.393  30.923   1.246
44791W        W 6454  38.074   0.254   3.817
44792W        W 6455   0.826  10.276   2.672
44793W        W 6456  12.688  22.585  13.478
44794W        W 6457   6.259  33.876  14.899
44795W        W 6458  19.741  29.174   4.678
44796W        W 6459  13.232  24.002   0.775
44797W        W 6460   7.257  39.437  11.586
44798W        W 6461  26.570  14.240   0.244
44799W        W 6462   7.748  44.951   2.748
44800W        W 6463  35.977   6.423  12.049
44801W        W 6464  27.532  43.325  14.505
44802W        W 6465  14.266  11.834   5.128
44803W        W 6466  37.396   2.370  11.600
44804W        W 6467  11.270  12.220   3.672
44805W        W 6468  39.856  26.639   1.728
44806W        W 6469  36.956  40.990  13.333
44807W        W 6470  20.751   9.210   0.475
44808W        W 6471  27.587   7.172  12.022
44809W        W 6472   7.818  25.055   2.328
44810W        W 6473  31.500  32.121   1.339
44811W        W 6474  37.435  23.525  11.027
44812W        W 6475   3.420  28.446  11.896
44813W        W 6476  39.925   8.390   1.804
44814W        W 6477  15.244  43.781   0.796
44815W        W 6478  31.480   7.228  14.427
44816W        W 6479   8.199  21.569  13.813
44817W        W 6480   7.255  20.158  14.498
44818W        W 6481  14.722  19.641   0.957
44819W        W 6482  28.014  39.858   1.302
44820W        W 6483   3.379  31.504   0.305
44821W        W 6484  40.864   7.318  13.920
44822W        W 6485   7.175  41.331   0.924
44823W        W 6486  22.711  31.426   1.789
44824W        W 6487  34.882  18.592  12.415
44825W        W 6488  21.713  23.612   0.909
44826W        W 6489   7.241  25.653  12.576
44827W        W 6490  22.708  34.037  13.315
44828W        W 6491   4.887  20.259  14.009
44829W        W 6492  35.916   3.854   1.231
44830W        W 6493  42.490   0.788  12.473
44831W        W 6494  38.424  41.434  11.927
44832W        W 6495  43.281  36.575  13.901
44833W        W 6496  37.877  43.998   4.694
44834W        W 6497  35.594  25.075  12.487
44835W        W 6498  33.486  38.390  12.040
44836W        W 6499   9.817   7.769  12.084
44837W        W 6500  13.347  25.593  14.796
44838W        W 6501   6.212  27.465  14.483
44839W        W 6502  33.459  34.511   3.793
44840W        W 6503  26.051   7.314   4.830
44841W        W 6504  27.563  12.133   2.396
44842W        W 6505   0.930  44.377   2.391
44843W        W 6506  27.488   6.210  10.514
44844W        W 6507  22.206   4.359  14.982
44845W        W 6508  24.712   4.774   2.371
44846W        W 6509   9.227  35.403   4.128
44847W        W 6510  32.508  26.132  13.947
44848W        W 6511  29.011  28.514   3.790
44849W        W 6512   3.387  31.059   5.122
44850W        W 6513  42.900  10.772   4.698
44851W        W 6514  43.828   6.708  13.452
44852W        W 6515   5.398  40.993   4.623
44853W        W 6516  10.869  39.816   2.672
44854W        W 6517   4.762   8.788  11.515
44855W        W 6518  20.673   4.366  12.348
44856W        W 6519   9.279  23.531   4.181
44857W        W 6520  18.776  12.145  11.002
44858W        W 6521  42.885   4.731  14.833
44859W        W 6522   4.391  20.212   4.713
44860W        W 6523   2.957   2.453   3.253
44861W        W 6524  17.164   7.751  11.029
44862W        W 6525  32.417   2.251   0.787
44863W        W 6526  30.127  35.530  11.579
44864W        W 6527  29.987   7.771  14.895
44865W        W 6528  33.071  16.655  14.446
44866W        W 6529  35.060  34.560  13.865
44867W        W 6530  39.845  36.888  10.440
44868W        W 6531  15.135   0.450  11.596
44869W        W 6532   0.469  42.023  12.874
44870W        W 6533  23.515  37.548  11.501
44871W        W 6534  42.845  11.247  14.312
44872W        W 6535  35.544  44.932   3.344
44873W        W 6536  15.181  41.430   2.743
44874W        W 6537  40.995  18.241   1.782
44875W        W 6538  19.635  20.117   0.482
44876W        W 6539  10.221  30.063   1.911
44877W        W 6540  20.738  17.773   2.410
44878W        W 6541  13.655  35.906   1.839
44879W        W 6542  36.590  10.835   0.357
44880W        W 6543  44.431  29.575   4.131
44881W        W 6544  36.492  11.674   2.677
44882W        W 6545  21.728  14.170   2.720
44883W        W 6546   5.252  31.526   2.853
44884W        W 6547  25.174  37.884  14.852
44885W        W 6548  36.528  24.724   0.367
44886W        W 6549  23.017  44.473  11.496
44887W        W 6550   4.333  21.650   3.275
44888W        W 6551  24.656  38.016  10.562
44889W        W 6552   2.326  29.079   1.236
44890W        W 6553   9.654  40.538   1.768
44891W        W 6554  37.381  37.888   3.359
44892W        W 6555  31.604  35.060  11.409
44893W        W 6556  38.965  40.457   0.380
44894W        W 6557  12.697  35.949  14.385
44895W        W 6558  38.985  43.788   2.391
44896W        W 6559  18.182  24.532   0.441
44897W        W 6560  17.254  14.096  12.451
44898W        W 6561  42.408  23.200   3.236
44899W        W 6562  44.767  29.482   4.805
44900W        W 6563   2.771   4.450   2.700
44901W        W 6564  29.114  24.523  11.463
44902W        W 6565   8.683  36.074  14.873
44903W        W 6566   0.779  34.060   0.911
44904W        W 6567  33.907  29.501  11.929
44905W        W 6568  25.162  18.182   3.701
44906W        W 6569  40.311  25.089  12.018
44907W        W 6570  32.487  24.093  10.592
44908W        W 6571  40.866  21.251   3.212
44909W        W 6572   5.221  37.081  11.084
44910W        W 6573   3.295  30.599   0.915
44911W        W 6574   2.358   9.769  10.462
44912W        W 6575   7.678  36.924   1.907
44913W        W 6576  33.617  40.865  14.965
44914W        W 6577   6.250  14.715  13.926
44915W        W 6578  24.975  29.476   9.959
44916W        W 6579  25.582  43.900   0.352
44917W        W 6580  34.890  44.938  13.918
44918W        W 6581   1.889   5.355  14.927
44919W        W 6582  21.074  36.576  14.905
44920W        W 6583  40.329   9.806   2.669
44921W        W 6584  26.174  25.040   2.230
44922W        W 6585  39.449  24.178  14.810
44923W        W 6586  10.282  36.457   4.733
44924W        W 6587   9.298  26.155  11.476
44925W        W 6588  29.575  10.744  13.360
44926W        W 6589  30.606  12.649   2.836
44927W        W 6590  38.034  25.622  14.030
44928W        W 6591  11.328  29.107  11.938
44929W        W 6592  10.203  21.131   2.345
44930W        W 6593  35.380  44.482   1.363
44931W        W 6594  28.012  31.011  14.312
44932W        W 6595  18.659  33.497  13.407
44933W        W 6596  43.930  19.123   0.479
44934W        W 6597  23.606  37.914   4.666
44935W        W 6598  23.074  32.120   1.866
44936W        W 6599  15.277  25.013  10.895
44937W        W 6600  23.689  22.047  12.044
44938W        W 6601  42.797  35.029  12.365
44939W        W 6602  28.130  37.552  10.475
44940W        W 6603  30.565  14.767  14.300
44941W        W 6604  31.897   4.830   2.391
44942W        W 6605   6.281  32.102  11.467
44943W        W 6606  21.156   8.740   3.208
44944W        W 6607  39.455  21.651   2.179
44945W        W 6608  27.669  25.205  12.078
44946W        W 6609   1.443   6.693  13.353
44947W        W 6610  16.226  41.372  10.454
44948W        W 6611   1.371   1.938   3.375
44949W        W 6612   0.297   7.217  11.379
44950W        W 6613  18.646  36.423  10.545
44951W        W 6614  32.063  42.410   1.215
44952W        W 6615  31.555  12.704  14.395
44953W        W 6616  29.933  42.483   0.871
44954W        W 6617  22.064  41.970  12.346
44955W        W 6618  26.645   6.834  14.479
44956W        W 6619  29.500  25.566   4.678
44957W        W 6620  30.998  25.641  10.595
44958W        W 6621  19.276  40.981   2.321
44959W        W 6622  44.499   1.884   2.836
44960W        W 6623   2.379  11.340  13.530
44961W        W 6624  37.885  28.678  11.891
44962W        W 6625  32.603  16.148  12.531
44963W        W 6626   0.760  22.136   2.332
44964W        W 6627  15.672  35.055   4.279
44965W        W 6628  30.939  10.789  12.988
44966W        W 6629   1.910   8.399  14.997
44967W        W 6630  29.969  44.431  11.907
44968W        W 6631  38.064  44.494  13.997
44969W        W 6632   7.705   0.311  11.076
44970W        W 6633   9.666  15.208  13.955
44971W        W 6634  19.578   3.825   3.296
44972W        W 6635  32.575  14.695   2.361
44973W        W 6636  26.686  35.556  11.960
44974W        W 6637  40.016  34.543   0.261
44975W        W 6638  37.410  22.598   3.255
44976W        W 6639  39.535  28.148   0.297
44977W        W 6640  40.802  23.684   3.343
44978W        W 6641  11.161  36.505  14.858
44979W        W 6642  14.194   7.290  13.518
44980W        W 6643  31.473  40.974  10.890
44981W        W 6644  14.715   7.717  11.491
44982W        W 6645  43.273  18.583  10.543
44983W        W 6646   0.920   7.297   3.863
44984W        W 6647  28.495  16.111  14.388
44985W        W 6648  16.680  10.745  11.928
44986W        W 6649  41.425  39.894   4.189
44987W        W 6650  33.131  39.951   4.756
44988W        W 6651  27.962  36.368  13.461
44989W        W 6652   5.753  43.377  11.088
44990W        W 6653  35.507   3.852   3.332
44991W        W 6654  38.360  33.444  10.571
44992W        W 6655   6.749  17.193   1.860
44993W        W 6656  12.222  19.260   2.408
44994W        W 6657  18.655  13.766   5.717
44995W        W 6658   8.222  27.003   0.809
44996W        W 6659   7.321  40.487  10.900
44997W        W 6660  34.514  10.300  11.891
44998W        W 6661   1.364  30.498  13.821
44999W        W 6662  14.200  20.669  11.440
45000W        W 6663  21.702  33.939  12.900
45001W        W 6664  23.731  24.580  12.440
45002W        W 6665  36.980  38.390   4.735
45003W        W 6666  33.419  25.689   3.219
45004W        W 6667  35.526  17.673   0.827
45005W        W 6668  19.678  22.546   3.164
45006W        W 6669  38.539   8.657  14.295
45007W        W 6670  21.536  16.766   1.275
45008W        W 6671   4.311  22.559   3.764
45009W        W 6672   3.793   4.865   2.323
45010W        W 6673  26.062  19.080  11.031
45011W        W 6674  28.141   9.889  14.972
45012W        W 6675  31.454  12.279  12.440
45013W        W 6676  12.841  18.210   2.297
45014W        W 6677   2.857  34.378   4.597
45015W        W 6678  26.188  37.483   4.252
45016W        W 6679  23.517  11.655   0.374
45017W        W 6680   6.739  33.380   1.923
45018W        W 6681  24.167   7.790   4.117
45019W        W 6682  32.434  23.176  12.857
45020W        W 6683  35.042  17.208   1.699
45021W        W 6684  19.085  32.607   1.377
45022W        W 6685  41.367   4.298  14.775
45023W        W 6686  35.454  13.148  11.606
45024W        W 6687  33.890  35.879   0.284
45025W        W 6688   9.273   8.897   4.333
45026W        W 6689   1.279  43.922   1.215
45027W        W 6690  44.982  25.625  14.787
45028W        W 6691   0.416   4.301  14.853
45029W        W 6692   8.184  24.536   2.196
45030W        W 6693  26.964   4.883   3.385
45031W        W 6694  17.678  22.542   3.839
45032W        W 6695   3.246   4.866   5.270
45033W        W 6696  24.044   9.227  10.898
45034W        W 6697  22.231  36.348  12.827
45035W        W 6698  38.367  32.527   2.233
45036W        W 6699  14.145  13.190  13.031
45037W        W 6700  42.305  21.045   2.276
45038W        W 6701   6.187  34.918   0.394
45039W        W 6702  27.648  33.042   0.782
45040W        W 6703  13.182  34.463  13.340
45041W        W 6704  15.649   5.804  13.020
45042W        W 6705  12.169  14.138  12.964
45043W        W 6706   8.330  33.874   3.387
45044W        W 6707  17.691  27.998  14.380
45045W        W 6708  14.261  28.536  14.782
45046W        W 6709  32.566  13.107  11.865
45047W        W 6710  25.103  35.501  13.415
45048W        W 6711  38.025  24.592  14.491
45049W        W 6712  29.603   4.372  13.829
45050W        W 6713  22.244  12.159  11.578
45051W        W 6714  20.163  41.535   3.784
45052W        W 6715  24.481   9.176  10.438
45053W        W 6716   2.770  18.227   4.291
45054W        W 6717  36.060  37.014  11.501
45055W        W 6718   3.844   0.296   3.662
45056W        W 6719  13.137  31.548  12.094
45057W        W 6720  29.521  42.488   0.455
45058W        W 6721  35.503  21.187   3.282
45059W        W 6722  21.218  35.441  12.349
45060W        W 6723   6.200  24.581   0.850
45061W        W 6724  24.094  27.150   4.340
45062W        W 6725  23.177  34.975  11.530
45063W        W 6726  12.850  14.124  10.612
45064W        W 6727  40.999   3.929   2.712
45065W        W 6728  42.410  17.653   0.312
45066W        W 6729  28.469   1.929   4.690
45067W        W 6730  17.281  37.875   5.309
45068W        W 6731   5.418  17.200  13.007
45069W        W 6732  33.528  19.735   5.261
45070W        W 6733  31.429  35.424  13.356
45071W        W 6734   6.865  10.798  12.952
45072W        W 6735  26.090  12.142   4.325
45073W        W 6736  44.819   2.409  12.385
45074W        W 6737  16.739   7.378  12.965
45075W        W 6738  39.430  11.170   1.408
45076W        W 6739   1.833  40.369  14.813
45077W        W 6740   9.256   4.700   3.199
45078W        W 6741   4.777   7.246   3.283
45079W        W 6742  33.127  21.747   3.374
45080W        W 6743  41.985  15.229   5.113
45081W        W 6744  10.643  24.202   4.690
45082W        W 6745   0.881  23.735  12.026
45083W        W 6746  32.535   0.924  11.519
45084W        W 6747  17.731  29.051   2.310
45085W        W 6748  33.551  44.355   0.801
45086W        W 6749   8.272  44.300   2.384
45087W        W 6750  14.201  11.242   0.348
45088W        W 6751   3.942  33.026  13.006
45089W        W 6752  17.192  17.777   0.408
45090W        W 6753   7.714  32.510   2.394
45091W        W 6754  34.875  44.342   2.853
45092W        W 6755  37.486  13.770   2.245
45093W        W 6756  29.544   1.964   2.309
45094W        W 6757  36.918   0.835  13.468
45095W        W 6758  30.062   2.246  14.988
45096W        W 6759  31.940   8.818   0.790
45097W        W 6760  14.665   7.319   3.303
45098W        W 6761   1.771  23.598  14.790
45099W        W 6762  23.119  21.579  10.436
45100W        W 6763  33.595  28.080  13.845
45101W        W 6764   0.869   4.828   2.867
45102W        W 6765  10.365  10.742  10.926
45103W        W 6766   8.876  19.234   4.226
45104W        W 6767  17.678  23.141   1.444
45105W        W 6768  12.754  30.982  10.576
45106W        W 6769  11.274   1.754   0.765
45107W        W 6770  16.186  27.495  11.950
45108W        W 6771  25.968  32.515   4.602
45109W        W 6772  32.441  34.504   3.695
45110W        W 6773  36.405  40.351  10.574
45111W        W 6774  42.481  30.503  13.348
45112W        W 6775   3.940  43.002   3.633
45113W        W 6776  38.932  23.509  13.953
45114W        W 6777  27.469  44.965  14.834
45115W        W 6778  24.022  42.961   3.294
45116W        W 6779   7.732   6.384  14.296
45117W        W 6780  21.512   5.833  11.484
45118W        W 6781  16.771   6.352  13.805
45119W        W 6782  22.132   4.206  10.553
45120W        W 6783  18.249  18.664  12.412
45121W        W 6784  40.903  33.076   0.248
45122W        W 6785  19.063  33.599   2.211
45123W        W 6786  31.459  29.659   1.715
45124W        W 6787  36.901  29.573   1.815
45125W        W 6788  24.157   4.877   4.618
45126W        W 6789  36.028  26.121   1.315
45127W        W 6790  40.974  35.003  14.905
45128W        W 6791  28.013  37.429  11.083
45129W        W 6792  41.804   6.298  11.496
45130W        W 6793   6.216   5.380  13.943
45131W        W 6794  27.156   0.951  12.563
45132W        W 6795  16.750  31.459  12.353
45133W        W 6796  15.294  20.193   1.894
45134W        W 6797  44.276  10.677   0.373
45135W        W 6798  14.725  10.221  14.024
45136W        W 6799  16.795  13.803  13.312
45137W        W 6800  19.095   5.197  13.019
45138W        W 6801  36.056  10.830  14.928
45139W        W 6802   5.814  27.096  14.320
45140W        W 6803  37.451  19.613  12.522
45141W        W 6804  39.381  14.313   2.837
45142W        W 6805  28.939  38.960  13.007
45143W        W 6806  16.712  33.417   0.349
45144W        W 6807   7.716  41.405  10.457
45145W        W 6808  28.562  25.535  14.403
45146W        W 6809   9.856  22.520   4.831
45147W        W 6810  43.000  22.546   5.229
45148W        W 6811  15.236   8.255   3.203
45149W        W 6812  35.023   3.735  14.934
45150W        W 6813  15.150  43.277  13.495
45151W        W 6814  34.985  28.454   1.786
45152W        W 6815  28.513  32.529  11.490
45153W        W 6816   4.858  13.321  13.962
45154W        W 6817  11.195  26.200   2.875
45155W        W 6818   9.347  34.100   1.766
45156W        W 6819  22.121  20.631   0.931
45157W        W 6820  14.173  44.920  14.884
45158W        W 6821  12.192  40.328   2.303
45159W        W 6822  27.062  33.099   0.769
45160W        W 6823  44.416  41.885  11.428
45161W        W 6824  17.620  31.425  12.541
45162W        W 6825  35.005   3.392  13.965
45163W        W 6826   5.202  37.077   3.157
45164W        W 6827  21.537  16.577  14.396
45165W        W 6828  15.731   1.947   2.299
45166W        W 6829  35.523  44.491  13.004
45167W        W 6830   4.251  44.903  13.326
45168W        W 6831  28.940  21.145   1.792
45169W        W 6832  20.185   0.428  14.515
45170W        W 6833   7.758  34.042   0.434
45171W        W 6834  29.151  20.746  10.535
45172W        W 6835  35.926  29.136   4.786
45173W        W 6836  25.554  20.623  13.865
45174W        W 6837  39.058  11.194  10.909
45175W        W 6838  39.526  24.182  12.422
45176W        W 6839   7.742  21.756   2.875
45177W        W 6840  21.040  19.073   1.798
45178W        W 6841  29.104  38.365  12.076
45179W        W 6842  36.528  34.067   3.756
45180W        W 6843  28.585  19.633  13.477
45181W        W 6844  35.602   3.394   3.302
45182W        W 6845  20.543  32.998  12.559
45183W        W 6846  14.320  30.149   3.304
45184W        W 6847  23.539  31.546  14.966
45185W        W 6848  20.261  36.885   2.336
45186W        W 6849  44.844  44.320  11.023
45187W        W 6850  38.015  20.535  12.867
45188W        W 6851  26.153   4.208  13.390
45189W        W 6852  21.598   9.768   4.661
45190W        W 6853   7.780  23.067  11.553
45191W        W 6854  32.964  28.106  13.919
45192W        W 6855  38.450  39.495   1.307
45193W        W 6856  19.680   8.252   1.316
45194W        W 6857  31.528   2.440  14.985
45195W        W 6858  38.507  19.131   2.381
45196W        W 6859  21.060  17.097   1.897
45197W        W 6860  42.798  44.930  10.986
45198W        W 6861  38.940  31.932   4.813
45199W        W 6862  31.987  14.677   2.268
45200W        W 6863  39.528  35.438   0.470
45201W        W 6864   0.795   7.370  11.534
45202W        W 6865   2.787  13.274   3.866
45203W        W 6866  31.103  15.748   0.245
45204W        W 6867  37.024  44.429   0.311
45205W        W 6868  40.882  26.493  10.477
45206W        W 6869   9.289   5.333   3.854
45207W        W 6870  13.331  16.193  11.387
45208W        W 6871  35.067   1.239   2.853
45209W        W 6872  34.515  39.362   2.328
45210W        W 6873  17.585  34.889  10.889
45211W        W 6874  41.847   5.834  14.453
45212W        W 6875  37.837  26.106  12.828
45213W        W 6876  24.989  21.548   4.680
45214W        W 6877  42.514  21.658   0.804
45215W        W 6878  39.426   2.870  11.956
45216W        W 6879  33.550  39.912   2.789
45217W        W 6880  31.123  33.575  10.053
45218W        W 6881  13.798  30.076   1.812
45219W        W 6882  15.194  27.661  11.100
45220W        W 6883  33.560  41.438  11.893
45221W        W 6884  23.994  20.733   4.272
45222W        W 6885  27.135  36.446   1.758
45223W        W 6886   1.822  10.141   2.282
45224W        W 6887   4.805  37.928   0.946
45225W        W 6888   5.739  14.771  14.450
45226W        W 6889   2.466  33.125  13.458
45227W        W 6890  18.590  29.614  10.997
45228W        W 6891  32.943   6.416  12.573
45229W        W 6892  42.999  27.632   0.821
45230W        W 6893  19.735  32.409  10.505
45231W        W 6894  28.679  35.093   4.194
45232W        W 6895  39.478  32.111   1.286
45233W        W 6896   3.218  20.131  13.465
45234W        W 6897  13.129  34.504  14.019
45235W        W 6898  44.975  25.687   4.331
45236W        W 6899  40.525  13.185   2.728
45237W        W 6900  24.175  31.012   1.930
45238W        W 6901   6.879  22.655  13.996
45239W        W 6902  16.151  36.572   3.795
45240W        W 6903  22.591  30.043   9.970
45241W        W 6904  16.310  23.499   3.189
45242W        W 6905  15.311  36.007   0.825
45243W        W 6906  28.931  43.411   3.386
45244W        W 6907  27.129   7.361   0.771
45245W        W 6908  32.012  23.120   0.358
45246W        W 6909  40.845   6.298   4.659
45247W        W 6910  22.071  14.238   4.162
45248W        W 6911  16.660  38.958  11.474
45249W        W 6912   2.842   6.885  10.634
45250W        W 6913  11.807  37.858   2.699
45251W        W 6914  21.210  42.306   3.803
45252W        W 6915  11.361  17.130  14.359
45253W        W 6916   2.927   0.444   4.600
45254W        W 6917  39.421  20.590   4.262
45255W        W 6918  35.459  11.202  11.580
45256W        W 6919  37.518  11.178  13.520
45257W        W 6920  43.012  23.728   4.747
45258W        W 6921   0.488  30.471   3.286
45259W        W 6922  31.969   8.279   4.609
45260W        W 6923  36.478  43.002  12.368
45261W        W 6924   4.738  17.749  11.944
45262W        W 6925  12.625  43.882   3.633
45263W        W 6926  32.438  40.448   3.190
45264W        W 6927   8.350  38.394  14.948
45265W        W 6928  16.586   8.726  13.053
45266W        W 6929   7.668  34.942  14.319
45267W        W 6930  12.838  29.125  11.392
45268W        W 6931   4.812  44.352   1.703
45269W        W 6932  25.676  19.130   2.739
45270W        W 6933  37.064  23.577  13.407
45271W        W 6934  23.169  37.980  10.544
45272W        W 6935  28.160  44.940  11.376
45273W        W 6936  42.877  29.941  12.995
45274W        W 6937  30.448  12.830  13.871
45275W        W 6938  31.060  30.594   2.269
45276W        W 6939  40.412   0.921  12.413
45277W        W 6940   2.811   1.369   1.730
45278W        W 6941   1.477  23.007  14.441
45279W        W 6942   1.387  38.338  13.467
45280W        W 6943   1.464   8.189   4.222
45281W        W 6944  33.992  25.052  12.380
45282W        W 6945  28.441  19.218   3.341
45283W        W 6946  25.708  27.492   1.909
45284W        W 6947  15.779   2.307  12.466
45285W        W 6948  23.216  41.928  14.992
45286W        W 6949  25.563  42.418   2.806
45287W        W 6950  21.572   6.378   3.242
45288W        W 6951   3.816  28.570   1.918
45289W        W 6952  37.854  27.614  11.488
45290W        W 6953   8.759  23.046   1.257
45291W        W 6954  27.111  19.642  13.796
45292W        W 6955  15.639  34.569   0.773
45293W        W 6956  15.127  11.867   2.678
45294W        W 6957   9.197  32.942  13.547
45295W        W 6958  31.474  38.560  10.500
45296W        W 6959  38.392  40.915   0.870
45297W        W 6960  16.193  17.778   1.867
45298W        W 6961   2.354  10.282   3.629
45299W        W 6962  20.718  26.658  12.525
45300W        W 6963  42.996   3.312   3.349
45301W        W 6964  23.197  10.756   1.929
45302W        W 6965   5.298  33.019   0.858
45303W        W 6966   2.794  14.287  10.945
45304W        W 6967  27.601  33.492   0.337
45305W        W 6968  19.706   5.227  10.933
45306W        W 6969  24.988   7.345  14.302
45307W        W 6970  36.587  42.860  11.982
45308W        W 6971  35.963   5.793   5.282
45309W        W 6972  14.744   2.727   1.773
45310W        W 6973  36.097  30.031   2.201
45311W        W 6974   9.822  25.606   1.437
45312W        W 6975  44.354  23.223  13.468
45313W        W 6976  19.077  16.248  11.970
45314W        W 6977  35.370  16.316  13.517
45315W        W 6978  20.646   7.860   3.172
45316W        W 6979   8.331   4.222  13.449
45317W        W 6980  23.032  30.538  12.537
45318W        W 6981  17.751  18.084   2.745
45319W        W 6982  44.977  19.204   2.254
45320W        W 6983  32.116  38.554   1.908
45321W        W 6984  29.947  33.441  14.922
45322W        W 6985  20.747  14.590  14.846
45323W        W 6986  32.056  11.219   3.815
45324W        W 6987  34.010   4.384  13.838
45325W        W 6988  31.993  25.125  13.455
45326W        W 6989   2.876  36.071  13.957
45327W        W 6990  17.748  18.569   1.801
45328W        W 6991   8.885   9.280   2.885
45329W        W 6992  15.819   9.320   1.791
45330W        W 6993  37.852  17.270   3.387
45331W        W 6994  40.889   2.896   4.320
45332W        W 6995   5.832  11.302   0.409
45333W        W 6996  20.028  25.662   1.244
45334W        W 6997   9.830  15.647  11.497
45335W        W 6998  26.697  19.693   4.173
45336W        W 6999  17.691  17.654   3.783
45337W        W 7000  34.889  34.493  12.927
45338W        W 7001  12.685  26.672  13.430
45339W        W 7002   2.851  19.680   1.265
45340W        W 7003  29.016  15.315   0.833
45341W        W 7004  18.722   1.976  12.355
45342W        W 7005  16.697  36.953   3.804
45343W        W 7006  28.577  26.992  10.497
45344W        W 7007  19.230  38.968   0.381
45345W        W 7008  37.562   6.324  11.480
45346W        W 7009  19.778   2.720  12.004
45347W        W 7010  11.639   9.676   5.225
45348W        W 7011  44.348  13.741  11.949
45349W        W 7012   5.312   9.773   4.778
45350W        W 7013  18.773  10.850  12.510
45351W        W 7014  25.152  31.096  12.496
45352W        W 7015   1.764  41.003   0.866
45353W        W 7016   1.793  34.591  12.888
45354W        W 7017  40.910  30.947  12.974
45355W        W 7018  33.584  13.173  12.355
45356W        W 7019  35.992  11.290  14.339
45357W        W 7020  41.484  15.636  14.419
45358W        W 7021  13.636  18.068  11.393
45359W        W 7022  34.587  28.108   3.271
45360W        W 7023  32.584  13.258  12.541
45361W        W 7024  34.526  23.684  14.028
45362W        W 7025  24.976  34.507   2.815
45363W        W 7026  34.071  15.150   4.240
45364W        W 7027  38.447   3.443  13.818
45365W        W 7028  23.104  26.476   1.450
45366W        W 7029   0.404  31.436   2.746
45367W        W 7030   9.308  27.675  12.486
45368W        W 7031   4.245  39.446  13.950
45369W        W 7032  13.649  10.174   1.262
45370W        W 7033  14.698  16.588  12.405
45371W        W 7034  40.828  41.384   1.400
45372W        W 7035  10.232  22.519  12.496
45373W        W 7036  24.525   2.352   4.644
45374W        W 7037  11.797  41.869   3.687
45375W        W 7038  41.440  21.680   3.759
45376W        W 7039  11.161  11.832   2.257
45377W        W 7040  10.211  39.317   3.345
45378W        W 7041  31.588  23.686  13.533
45379W        W 7042  32.135  36.554   3.736
45380W        W 7043   9.372  19.537  10.572
45381W        W 7044  25.693  43.331   2.407
45382W        W 7045  15.633  35.600  14.773
45383W        W 7046   4.352  26.051   2.882
45384W        W 7047  13.144  24.987   1.746
45385W        W 7048   6.874   3.247   4.279
45386W        W 7049   4.400  39.950  14.496
45387W        W 7050   4.875  41.897   2.356
45388W        W 7051  20.151  14.753  12.827
45389W        W 7052   9.742  22.017  12.396
45390W        W 7053  35.503  19.764   1.729
45391W        W 7054  11.868  20.149   3.370
45392W        W 7055   0.449  37.342   3.724
45393W        W 7056   1.936  32.615   0.900
45394W        W 7057  21.147   1.857  11.593
45395W        W 7058  44.913  11.757  14.863
45396W        W 7059   4.941  20.061  11.417
45397W        W 7060   5.905  17.231  12.010
45398W        W 7061  38.888  29.609  13.451
45399W        W 7062  28.977  30.086   3.691
45400W        W 7063  33.098  30.933   2.192
45401W        W 7064  40.891   6.684   0.928
45402W        W 7065  29.120   0.427   3.356
45403W        W 7066  22.019  21.254  11.581
45404W        W 7067  37.414   6.235  13.054
45405W        W 7068   3.335   2.728   2.248
45406W        W 7069  28.556   6.410   2.327
45407W        W 7070  12.729  12.798  11.908
45408W        W 7071  27.678  43.793  12.959
45409W        W 7072  23.599  12.616  13.349
45410W        W 7073  12.707   5.693  13.436
45411W        W 7074  27.660  22.678  14.319
45412W        W 7075  37.893  34.041   4.608
45413W        W 7076  38.941  25.034   2.325
45414W        W 7077  19.263  27.522   1.348
45415W        W 7078   6.313   9.246  12.927
45416W        W 7079   4.353  44.367   0.789
45417W        W 7080  17.096   6.417  12.510
45418W        W 7081   3.716  17.083   3.819
45419W        W 7082  10.692  39.974  12.936
45420W        W 7083   7.835   4.341   3.813
45421W        W 7084  44.435  14.609   3.232
45422W        W 7085  13.195   4.334   3.721
45423W        W 7086   1.826   3.790   4.184
45424W        W 7087  35.550  36.026  11.546
45425W        W 7088  11.830   3.446  13.015
45426W        W 7089   7.203  22.574  13.409
45427W        W 7090  44.402  35.038   0.393
45428W        W 7091  19.228  22.165   3.649
45429W        W 7092  33.544  20.596   2.789
45430W        W 7093  23.725  41.823   3.791
45431W        W 7094  25.512  25.657  11.486
45432W        W 7095  25.682  13.243   4.354
45433W        W 7096  28.652   6.272  13.818
45434W        W 7097   5.221  18.656  11.492
45435W        W 7098  36.358  22.745  11.041
45436W        W 7099  44.368  43.350   0.276
45437W        W 7100  18.290  39.437   1.429
45438W        W 7101  35.402  35.404  10.555
45439W        W 7102  14.308  25.697   2.306
45440W        W 7103   8.262  42.926   1.258
45441W        W 7104  15.116   2.728   4.821
45442W        W 7105  44.292   3.879  11.037
45443W        W 7106  38.351  11.209   4.122
45444W        W 7107   4.310  20.159  12.430
45445W        W 7108   4.434  10.353   4.617
45446W        W 7109   0.447  17.691   1.695
45447W        W 7110   0.775  18.710   1.710
45448W        W 7111  19.280  28.583  12.993
45449W        W 7112  18.611   7.784  14.026
45450W        W 7113  11.235  11.200   1.300
45451W        W 7114  17.077   8.365   4.828
45452W        W 7115  27.483  22.026  14.938
45453W        W 7116  31.428  43.438  14.999
45454W        W 7117  36.924   3.347   3.308
45455W        W 7118   9.863  13.675   4.766
45456W        W 7119  12.789  15.627   3.277
45457W        W 7120   3.401  16.193   3.280
45458W        W 7121   4.250  39.463   0.955
45459W        W 7122  27.577  31.634  11.004
45460W        W 7123  24.591  25.047  10.975
45461W        W 7124  24.544  10.346   4.698
45462W        W 7125  21.653  17.628   4.803
45463W        W 7126  28.994  13.191   3.700
45464W        W 7127  38.055  44.288  12.414
45465W        W 7128  36.384  30.642  12.538
45466W        W 7129  27.126  26.190   5.575
45467W        W 7130  41.968  41.829   3.347
45468W        W 7131   4.867  19.576   4.234
45469W        W 7132   0.489  42.393  12.884
45470W        W 7133  24.693  23.028  13.526
45471W        W 7134  31.122   9.707   2.359
45472W        W 7135  17.688  22.154   4.336
45473W        W 7136  20.216  40.846   2.227
45474W        W 7137  30.453  20.116   2.795
45475W        W 7138   8.795  31.514  11.379
45476W        W 7139  20.654  26.137  13.867
45477W        W 7140  37.083  36.020   2.714
45478W        W 7141  20.705   2.751   2.780
45479W        W 7142  35.906  21.206   0.900
45480W        W 7143  29.106  30.642  11.568
45481W        W 7144  33.539  34.535  12.559
45482W        W 7145  18.155  37.971  10.979
45483W        W 7146  23.502  23.626   2.894
45484W        W 7147  38.940  36.860  13.370
45485W        W 7148  41.849   0.345  14.375
45486W        W 7149  14.818  27.692  12.539
45487W        W 7150  19.613  30.055  12.399
45488W        W 7151  44.787  13.168   4.298
45489W        W 7152  17.754   8.271  13.960
45490W        W 7153  44.399  40.849   0.480
45491W        W 7154   2.882  43.310   4.171
45492W        W 7155  12.201  15.728   3.338
45493W        W 7156  21.638  11.847  12.002
45494W        W 7157  30.913  34.988  10.430
45495W        W 7158   8.281  37.905   4.604
45496W        W 7159  11.821  18.103  13.388
45497W        W 7160   4.451  19.094  11.501
45498W        W 7161  34.595  22.635   1.906
45499W        W 7162   0.911  12.185   1.353
45500W        W 7163  16.708  30.551  10.570
45501W        W 7164  10.814  28.115   2.382
45502W        W 7165  33.074  29.573   2.883
45503W        W 7166   3.849   7.838   4.759
45504W        W 7167  32.034  11.832  11.069
45505W        W 7168  22.136   1.766  11.372
45506W        W 7169  40.967  15.100   1.278
45507W        W 7170  16.634  44.967   1.910
45508W        W 7171  38.038   3.900   3.805
45509W        W 7172   8.893  32.003  13.061
45510W        W 7173  25.644   3.942  14.901
45511W        W 7174  17.642  25.077   3.279
45512W        W 7175  41.001  35.390  14.031
45513W        W 7176  26.472   5.310  14.435
45514W        W 7177  31.509  10.294   4.336
45515W        W 7178  36.565  11.853   0.244
45516W        W 7179  16.097  31.971   2.255
45517W        W 7180   7.841   0.425   2.823
45518W        W 7181   6.301   8.190  14.029
45519W        W 7182   7.811  19.262  11.380
45520W        W 7183  39.405  18.669  12.935
45521W        W 7184  31.463  36.457  12.017
45522W        W 7185  26.622  35.577  11.492
45523W        W 7186  35.971  43.834   4.621
45524W        W 7187  29.489  30.126  14.007
45525W        W 7188  16.605  37.894  14.791
45526W        W 7189   4.921  26.988  14.424
45527W        W 7190  41.795  23.152   2.394
45528W        W 7191  22.161  44.868  10.140
45529W        W 7192  35.966   7.306   0.867
45530W        W 7193  37.060  34.052  12.344
45531W        W 7194  33.608  25.969  11.021
45532W        W 7195  34.093  31.915   1.698
45533W        W 7196   2.792   1.318   2.807
45534W        W 7197   3.846  21.157   0.863
45535W        W 7198  29.061  12.361  12.859
45536W        W 7199  12.627  21.512   2.319
45537W        W 7200   8.199  44.378  11.944
45538W        W 7201  18.293  26.575  14.878
45539W        W 7202  21.654  16.134  11.892
45540W        W 7203   4.758   2.471  13.849
45541W        W 7204  26.607  44.306   4.338
45542W        W 7205  39.889  35.533  14.323
45543W        W 7206   7.274  35.410   0.770
45544W        W 7207  29.059   0.302  10.416
45545W        W 7208  34.023  44.500  11.549
45546W        W 7209  12.836  16.087  14.835
45547W        W 7210  16.228  31.105   4.263
45548W        W 7211  21.526  43.844  11.063
45549W        W 7212   4.210   2.248  14.029
45550W        W 7213   2.307  41.527   5.178
45551W        W 7214  39.455  31.133  10.590
45552W        W 7215  27.982  24.710  14.441
45553W        W 7216   3.345  20.070  14.969
45554W        W 7217  29.063  29.173   2.208
45555W        W 7218  37.557  41.296   1.326
45556W        W 7219  42.976  30.049  13.880
45557W        W 7220  26.460  42.308  11.444
45558W        W 7221   6.754  31.031  14.841
45559W        W 7222  35.049  38.835  12.488
45560W        W 7223  20.767  20.029  11.587
45561W        W 7224  12.281  42.471  10.938
45562W        W 7225  44.327   5.916  12.903
45563W        W 7226   8.657  22.014  14.349
45564W        W 7227  20.617  39.852  14.350
45565W        W 7228  37.045   5.393  11.384
45566W        W 7229  13.732   1.828   4.783
45567W        W 7230  11.710  41.383  13.019
45568W        W 7231  27.097  16.685  14.761
45569W        W 7232  31.030   8.174   3.854
45570W        W 7233  44.784  11.734   0.424
45571W        W 7234  27.092   1.405   3.203
45572W        W 7235  12.720   1.763   2.311
45573W        W 7236  29.494  37.459  11.934
45574W        W 7237  27.177  41.485  11.390
45575W        W 7238   5.787   9.178  11.056
45576W        W 7239  33.886   0.851  12.368
45577W        W 7240  28.464  39.363  14.348
45578W        W 7241  34.511   9.762  12.907
45579W        W 7242  41.533  39.912  13.503
45580W        W 7243   7.710  22.662  14.341
45581W        W 7244  23.003  29.556   4.600
45582W        W 7245   7.849  16.137  12.420
45583W        W 7246  10.864  28.442  13.006
45584W        W 7247  14.107   4.741   3.182
45585W        W 7248  19.137  42.340  11.536
45586W        W 7249  32.472  19.551   4.794
45587W        W 7250   8.163  40.467  11.459
45588W        W 7251  11.177  26.192  11.463
45589W        W 7252  42.392  41.901   0.447
45590W        W 7253   5.241  29.051   3.255
45591W        W 7254   3.322  28.510  13.458
45592W        W 7255   0.777  19.746  11.449
45593W        W 7256  11.834   9.377  12.042
45594W        W 7257  39.556  29.455  11.903
45595W        W 7258  16.676   3.294  13.363
45596W        W 7259   0.414  30.620   1.366
45597W        W 7260  21.225  14.143   3.825
45598W        W 7261  30.557   1.823  13.867
45599W        W 7262   2.818  13.711  13.019
45600W        W 7263   6.817  12.253   4.726
45601W        W 7264  20.268  39.410  14.808
45602W        W 7265   3.876  13.203   0.750
45603W        W 7266  43.475  17.132   5.296
45604W        W 7267  37.559  22.209  13.022
45605W        W 7268   3.724  29.431   2.307
45606W        W 7269   2.822   7.910   4.158
45607W        W 7270  28.082  35.078  11.872
45608W        W 7271  17.298   0.332   3.734
45609W        W 7272  29.988   7.794   2.272
45610W        W 7273  31.998   9.884   2.218
45611W        W 7274  13.241  10.767   4.607
45612W        W 7275  39.931  18.105   2.342
45613W        W 7276  22.181  38.041   0.385
45614W        W 7277  43.871  11.267   4.679
45615W        W 7278  15.220  42.390   4.211
45616W        W 7279   4.265   7.313  11.906
45617W        W 7280  41.874  44.777  13.853
45618W        W 7281   2.472  33.389  14.799
45619W        W 7282   3.779   8.233   0.927
45620W        W 7283  23.694  25.585   2.270
45621W        W 7284  38.506  37.023   0.243
45622W        W 7285  42.919   8.284   0.782
45623W        W 7286  17.716   0.354  12.914
45624W        W 7287  29.023  34.532   1.242
45625W        W 7288  22.045  13.770   2.417
45626W        W 7289   9.346  38.509  12.008
45627W        W 7290  21.570  31.616  12.987
45628W        W 7291   5.708  32.130   4.811
45629W        W 7292   9.368   7.371  11.545
45630W        W 7293  41.472  29.982   0.421
45631W        W 7294  42.308  28.603   1.865
45632W        W 7295  32.052  39.381   2.248
45633W        W 7296   4.215  34.969   2.903
45634W        W 7297  42.513   4.860   3.851
45635W        W 7298  28.587  41.885  13.838
45636W        W 7299   0.897  17.282  10.969
45637W        W 7300  28.145  20.579  12.964
45638W        W 7301  44.382   0.407   2.885
45639W        W 7302  43.872  27.630   0.881
45640W        W 7303  11.639   3.767   2.811
45641W        W 7304   6.369  36.579  13.539
45642W        W 7305   2.427  16.710   4.231
45643W        W 7306   4.415  40.497   3.270
45644W        W 7307  44.348  38.423   0.362
45645W        W 7308  14.137   6.911   2.688
45646W        W 7309  13.258  14.328  11.374
45647W        W 7310  33.993  44.977  14.319
45648W        W 7311  33.409  41.537  11.531
45649W        W 7312  29.053  41.894   4.820
45650W        W 7313  14.738  43.822  13.801
45651W        W 7314  14.624  22.112  10.974
45652W        W 7315  16.655  29.433  12.576
45653W        W 7316  19.564  30.631   0.860
45654W        W 7317  21.514  38.533   3.660
45655W        W 7318  43.380   4.905   1.843
45656W        W 7319  35.388   4.418  13.030
45657W        W 7320  44.914  16.165  11.388
45658W        W 7321   0.765   4.380   3.204
45659W        W 7322   0.316  31.129  14.831
45660W        W 7323   2.309  18.735  10.613
45661W        W 7324  37.057   7.358  13.886
45662W        W 7325   4.781   0.784   4.163
45663W        W 7326  15.280  20.703   3.633
45664W        W 7327  24.586  22.511   1.271
45665W        W 7328  25.187  12.690  13.323
45666W        W 7329   6.680   5.385   3.174
45667W        W 7330  11.316   8.250  14.383
45668W        W 7331  21.148  15.594  13.919
45669W        W 7332   9.661  41.803   0.798
45670W        W 7333  29.935  35.062   1.793
45671W        W 7334   7.734  31.965   2.818
45672W        W 7335  21.698  36.918   1.256
45673W        W 7336  38.458  22.036  11.875
45674W        W 7337  30.974  27.636   2.860
45675W        W 7338  19.158  41.341  12.375
45676W        W 7339  33.097  29.642   3.636
45677W        W 7340  33.554  25.686   2.250
45678W        W 7341  17.293   4.218   2.230
45679W        W 7342  11.790  20.267  10.104
45680W        W 7343  26.041  37.420  10.491
45681W        W 7344   8.293  41.810  13.037
45682W        W 7345  20.612  42.834  11.066
45683W        W 7346  22.093  10.167  10.519
45684W        W 7347   9.743  24.975   2.321
45685W        W 7348  38.895  32.619   0.741
45686W        W 7349  15.314  13.315   3.226
45687W        W 7350  43.513  18.110  12.513
45688W        W 7351   2.414   4.722   0.838
45689W        W 7352  22.240  43.369  12.476
45690W        W 7353  40.869  29.544   3.791
45691W        W 7354  42.828   3.745  12.013
45692W        W 7355  39.969  36.071   3.212
45693W        W 7356  11.130  15.141   3.740
45694W        W 7357  12.337  21.616   3.653
45695W        W 7358  22.157   3.927   0.812
45696W        W 7359  37.398  32.504  14.869
45697W        W 7360  16.194  21.214  12.499
45698W        W 7361  24.131  30.658  12.010
45699W        W 7362   6.896  36.902   4.733
45700W        W 7363  22.584  12.705   2.854
45701W        W 7364  26.155  38.437   2.337
45702W        W 7365  39.368  39.992   4.184
45703W        W 7366  10.341  36.572   4.218
45704W        W 7367  42.305  32.948   4.219
45705W        W 7368  21.244   6.373   2.217
45706W        W 7369  37.882   5.806  11.951
45707W        W 7370  27.197  35.900  11.989
45708W        W 7371  19.086  22.021  14.360
45709W        W 7372   6.362  20.174  10.614
45710W        W 7373   2.416   3.410  10.991
45711W        W 7374  24.716  41.022   1.384
45712W        W 7375   9.760  30.596  10.632
45713W        W 7376  18.764  29.173   2.350
45714W        W 7377   8.655  35.444   0.913
45715W        W 7378  11.137  19.223   4.777
45716W        W 7379  33.034   0.439   1.746
45717W        W 7380   8.888  26.057   0.263
45718W        W 7381   1.278  11.763  11.576
45719W        W 7382  15.261  15.216  11.972
45720W        W 7383  18.245  33.397  12.062
45721W        W 7384  39.830  22.226   0.358
45722W        W 7385   7.674   5.195   0.932
45723W        W 7386  41.928   9.307  13.394
45724W        W 7387  16.596  21.696   1.294
45725W        W 7388   9.719  17.784  10.957
45726W        W 7389   6.213  16.740   3.742
45727W        W 7390  10.338  17.169  10.993
45728W        W 7391  24.067  23.071  14.437
45729W        W 7392   1.865  27.607   0.730
45730W        W 7393  43.924  26.186  13.506
45731W        W 7394  11.716  39.881  14.417
45732W        W 7395  13.601  23.543   0.860
45733W        W 7396  27.066  37.047  14.973
45734W        W 7397  36.853  36.511   2.415
45735W        W 7398  19.661  30.052   0.456
45736W        W 7399  35.876  22.644   2.755
45737W        W 7400  25.183  40.457  14.809
45738W        W 7401  30.958   1.363  12.826
45739W        W 7402  41.461  23.536  14.892
45740W        W 7403  26.101  17.272   4.134
45741W        W 7404  24.675  20.140  12.361
45742W        W 7405  17.179  43.330  11.495
45743W        W 7406  35.493  42.519  13.863
45744W        W 7407  41.508  16.174  12.870
45745W        W 7408   2.764  36.436  12.084
45746W        W 7409  41.529  41.409   0.453
45747W        W 7410  31.581   7.710  14.497
45748W        W 7411  32.601  15.589  11.920
45749W        W 7412   9.710  42.471   0.772
45750W        W 7413   6.224   1.392   2.346
45751W        W 7414  14.167  36.576  11.460
45752W        W 7415  23.055  44.334   0.370
45753W        W 7416  29.114  32.967   0.778
45754W        W 7417   3.431  41.044   3.847
45755W        W 7418  28.958  43.949  13.791
45756W        W 7419   5.691   2.856  13.498
45757W        W 7420  38.981  37.532   2.662
45758W        W 7421   0.374  31.048   2.819
45759W        W 7422  30.568   0.475  10.933
45760W        W 7423  40.498  33.070  14.869
45761W        W 7424   9.342  36.907  10.641
45762W        W 7425  13.690  39.396   4.324
45763W        W 7426  39.979   5.754   3.822
45764W        W 7427  11.663  25.507   2.705
45765W        W 7428   3.849  36.385   0.479
45766W        W 7429   5.289  40.967   1.358
45767W        W 7430   1.295   0.844   3.146
45768W        W 7431   3.357  26.668  11.937
45769W        W 7432  20.554  32.011   2.288
45770W        W 7433  20.572  35.432   0.774
45771W        W 7434  42.434  33.419  12.040
45772W        W 7435   8.879   7.388   0.348
45773W        W 7436  41.322  20.749  10.934
45774W        W 7437   4.733  34.379  13.340
45775W        W 7438   5.931  33.912  10.552
45776W        W 7439  38.003  33.613   4.168
45777W        W 7440   2.278  11.356   0.838
45778W        W 7441  14.236  30.065   4.749
45779W        W 7442  33.900  10.633  14.944
45780W        W 7443   4.883  14.823  10.425
45781W        W 7444  15.196  44.811  13.882
45782W        W 7445  40.475  23.183   3.290
45783W        W 7446  36.432  23.115   3.362
45784W        W 7447   1.268  29.443  14.998
45785W        W 7448   0.976  36.453   0.453
45786W        W 7449  20.585  13.725   4.635
45787W        W 7450  41.022  25.629   4.199
45788W        W 7451  37.506  17.220   2.318
45789W        W 7452  35.097   1.328   0.782
45790W        W 7453  13.294   1.466   0.312
45791W        W 7454  21.019  44.367  10.419
45792W        W 7455  21.734  10.274  13.313
45793W        W 7456  28.563  19.638   2.202
45794W        W 7457   7.352  17.095  14.832
45795W        W 7458  28.648  11.726   1.246
45796W        W 7459  42.397  37.932  14.980
45797W        W 7460  30.437  35.874   0.946
45798W        W 7461  17.069  41.870  10.416
45799W        W 7462  36.410  12.157   2.233
45800W        W 7463  22.650  15.767   2.302
45801W        W 7464  13.127   0.391  13.504
45802W        W 7465   6.843  31.109   4.609
45803W        W 7466  26.160  12.243   2.317
45804W        W 7467  41.432  42.887  13.352
45805W        W 7468  23.704   6.797  11.535
45806W        W 7469  21.710  26.482  10.547
45807W        W 7470   0.893  39.969   3.868
45808W        W 7471   3.885   0.279   1.355
45809W        W 7472   4.755  30.469  12.344
45810W        W 7473  37.866  31.586   0.366
45811W        W 7474   2.360  26.062   3.206
45812W        W 7475  24.986  24.016  13.954
45813W        W 7476   6.810   2.319  14.953
45814W        W 7477  29.937  28.526  13.355
45815W        W 7478  37.996  12.808  14.886
45816W        W 7479  42.454  42.863   0.736
45817W        W 7480   1.355   9.383   5.717
45818W        W 7481  37.495   3.927   0.298
45819W        W 7482   1.848  16.577  10.638
45820W        W 7483  23.042  25.018  10.972
45821W        W 7484  18.154  35.102   3.660
45822W        W 7485  20.193  32.912  12.481
45823W        W 7486  25.205   2.727  14.303
45824W        W 7487   2.327   5.278   0.471
45825W        W 7488   6.308   5.345  13.459
45826W        W 7489   5.799  21.548  12.494
45827W        W 7490  11.720   0.291  11.445
45828W        W 7491  34.877   1.263   4.334
45829W        W 7492  29.570  34.562  13.451
45830W        W 7493  34.027   7.698  12.344
45831W        W 7494   0.431   2.417  13.041
45832W        W 7495  19.203  26.599   2.247
45833W        W 7496  17.658  36.091  14.955
45834W        W 7497  26.683  19.116  11.501
45835W        W 7498  33.901  14.729  11.959
45836W        W 7499  30.924  39.456  12.407
45837W        W 7500  25.052   7.288  13.919
45838W        W 7501  25.024  37.850  11.586
45839W        W 7502  29.474  40.317  13.988
45840W        W 7503  28.520  28.584  12.513
45841W        W 7504  24.494  28.965  10.146
45842W        W 7505  15.116  44.438   4.162
45843W        W 7506  29.055   0.465   2.667
45844W        W 7507   8.685  42.921   0.329
45845W        W 7508   3.740  26.527   4.661
45846W        W 7509  22.688  14.134  11.526
45847W        W 7510  25.045   1.875   3.286
45848W        W 7511  27.684   1.746  10.509
45849W        W 7512  27.012  30.958  10.927
45850W        W 7513  31.072  35.553  12.840
45851W        W 7514  39.560  11.638  11.976
45852W        W 7515  22.178  39.951   4.686
45853W        W 7516  38.554  14.135   2.221
45854W        W 7517  19.744  39.892   0.937
45855W        W 7518  38.483  32.424   3.216
45856W        W 7519   9.836  12.820   2.183
45857W        W 7520   3.854  29.642   3.277
45858W        W 7521   7.205  23.563   0.853
45859W        W 7522  12.173  19.597  14.303
45860W        W 7523   6.879  24.220  14.416
45861W        W 7524  23.732  29.954  13.910
45862W        W 7525   3.815  15.720  12.994
45863W        W 7526   7.361  44.959   0.281
45864W        W 7527   4.842  18.574  12.946
45865W        W 7528   2.403  17.776   4.188
45866W        W 7529   6.892  42.856  14.839
45867W        W 7530  21.726  24.678   4.308
45868W        W 7531  33.123  11.681   1.247
45869W        W 7532   6.725  12.824   0.960
45870W        W 7533  25.469  30.159  12.536
45871W        W 7534  24.681   5.879   4.787
45872W        W 7535  39.326  13.831   1.863
45873W        W 7536  16.236  13.131   1.837
45874W        W 7537  22.516   3.272   1.338
45875W        W 7538  17.763  22.159  14.982
45876W        W 7539  36.909  41.900   0.286
45877W        W 7540  15.647  30.451   0.355
45878W        W 7541  41.482  35.434   2.664
45879W        W 7542  28.098  20.113   2.337
45880W        W 7543   3.836   2.361   1.258
45881W        W 7544  20.067  25.093  12.533
45882W        W 7545  21.096   2.332   5.702
45883W        W 7546  18.706  19.154   3.748
45884W        W 7547  35.483  37.942  13.548
45885W        W 7548   1.384  40.345  11.571
45886W        W 7549  44.337  40.984   1.410
45887W        W 7550  37.975  37.083   0.908
45888W        W 7551  23.525  20.710   3.770
45889W        W 7552  42.914  39.548   1.808
45890W        W 7553  24.593   3.875  12.011
45891W        W 7554  13.275  32.454   2.218
45892W        W 7555  30.617   8.216   1.863
45893W        W 7556  29.613  26.594  14.838
45894W        W 7557  27.663  44.470   0.301
45895W        W 7558  19.605  27.006   3.310
45896W        W 7559  17.182   0.777   4.216
45897W        W 7560   0.319  34.101   1.278
45898W        W 7561  38.858  41.852   3.190
45899W        W 7562  41.972  31.986  14.849
45900W        W 7563  22.006  29.663  10.944
45901W        W 7564   4.944   1.798   4.728
45902W        W 7565  15.714  37.382   1.328
45903W        W 7566  35.857   7.739  11.595
45904W        W 7567  27.518  13.658  12.521
45905W        W 7568  13.776  40.825   1.404
45906W        W 7569  13.743  27.552  14.501
45907W        W 7570  37.578  37.503   0.931
45908W        W 7571  13.206  14.275   0.363
45909W        W 7572  24.641  39.875   1.280
45910W        W 7573  33.000  20.681   4.220
45911W        W 7574  20.092  30.459   3.832
45912W        W 7575  42.345  15.115   0.252
45913W        W 7576  42.948  37.339   0.430
45914W        W 7577   9.277  41.880   1.398
45915W        W 7578  39.537  14.216  14.912
45916W        W 7579  34.901  42.824  10.925
45917W        W 7580  15.581  11.190   3.172
45918W        W 7581  19.219  30.453  10.637
45919W        W 7582  34.061  17.186   4.780
45920W        W 7583  20.117   8.838  13.820
45921W        W 7584  44.431  40.352   1.704
45922W        W 7585  33.448  25.711  11.469
45923W        W 7586   5.394  20.655   4.830
45924W        W 7587  13.703  17.774   3.339
45925W        W 7588  24.119   8.168  13.403
45926W        W 7589  37.025  31.112   0.270
45927W        W 7590  28.003  17.063  11.543
45928W        W 7591  37.356   0.423   2.394
45929W        W 7592  14.653  44.307  13.455
45930W        W 7593  24.483  27.509   0.943
45931W        W 7594  44.938  27.021  14.297
45932W        W 7595  33.603  20.128  13.814
45933W        W 7596  27.092   5.867   3.277
45934W        W 7597  21.124  29.566  11.086
45935W        W 7598  39.454  33.027   1.388
45936W        W 7599  42.415  15.328  12.999
45937W        W 7600  14.210   6.270   0.337
45938W        W 7601  25.084  12.664  14.812
45939W        W 7602   3.295  35.933   4.633
45940W        W 7603   1.269  12.842  12.903
45941W        W 7604  16.661   4.891  13.908
45942W        W 7605  15.772   0.905   0.810
45943W        W 7606  44.478   3.295   1.712
45944W        W 7607  29.101  17.256  13.447
45945W        W 7608  27.535  42.399  13.931
45946W        W 7609  43.973  23.152  12.997
45947W        W 7610   3.841  19.609  14.824
45948W        W 7611  44.906  38.355   2.350
45949W        W 7612  39.356  10.224  12.426
45950W        W 7613  21.755   6.760  13.382
45951W        W 7614  42.386  36.875   4.333
45952W        W 7615   4.866  41.921  11.405
45953W        W 7616  42.025   3.880   3.329
45954W        W 7617  15.113   7.209  11.121
45955W        W 7618  21.749  31.478  14.475
45956W        W 7619   4.203  17.236  10.497
45957W        W 7620  13.717  21.665   2.195
45958W        W 7621   1.949  35.499  12.456
45959W        W 7622  15.680   6.324   2.855
45960W        W 7623   8.839  44.412  13.878
45961W        W 7624  22.647   4.731   3.314
45962W        W 7625  39.375  13.843   5.288
45963W        W 7626   8.257  29.620  11.903
45964W        W 7627  23.549   7.842   4.284
45965W        W 7628  30.010   5.353  11.538
45966W        W 7629  10.206  22.998  10.992
45967W        W 7630  35.028  32.042   3.220
45968W        W 7631   0.847  19.558  12.504
45969W        W 7632  12.241  32.904  12.915
45970W        W 7633  28.475  18.623  13.498
45971W        W 7634  14.660   8.311  10.486
45972W        W 7635  36.050  25.631   4.224
45973W        W 7636  19.047  26.582   4.339
45974W        W 7637  20.136  31.968   0.341
45975W        W 7638  24.644   1.937   3.674
45976W        W 7639  15.822  20.259   5.303
45977W        W 7640  40.320  29.641  10.604
45978W        W 7641  13.688  44.414   4.127
45979W        W 7642   4.226  19.764   1.371
45980W        W 7643   4.395  12.203   3.808
45981W        W 7644  38.859  41.355  11.965
45982W        W 7645  24.122  27.026  12.939
45983W        W 7646  29.117  33.465  12.345
45984W        W 7647  31.914  39.044   3.205
45985W        W 7648  16.747  10.222  12.510
45986W        W 7649   4.889  32.603   0.444
45987W        W 7650  21.177  39.920   4.603
45988W        W 7651  25.595  33.983   0.362
45989W        W 7652  41.451  41.390   4.801
45990W        W 7653  11.280  27.959   1.839
45991W        W 7654  22.570  30.499   3.792
45992W        W 7655   6.382  11.742  14.937
45993W        W 7656  18.743  40.036  12.934
45994W        W 7657  41.303  10.138   2.882
45995W        W 7658  30.588  29.520  13.957
45996W        W 7659   5.361  31.616  14.922
45997W        W 7660  26.139  28.116   0.282
45998W        W 7661  11.801  34.089  10.474
45999W        W 7662   6.317  36.488   3.719
46000W        W 7663   6.705  28.073  10.908
46001W        W 7664  17.644  30.920   4.745
46002W        W 7665   9.271  37.433  13.473
46003W        W 7666   1.889  17.214  13.478
46004W        W 7667  32.026  32.959  13.320
46005W        W 7668  37.901  38.325   1.342
46006W        W 7669   8.835   9.650  11.046
46007W        W 7670  28.171   7.211  10.136
46008W        W 7671  38.862  41.418   2.886
46009W        W 7672  28.549  44.979   1.778
46010W        W 7673  28.632   8.164   3.240
46011W        W 7674  34.900  11.239   0.353
46012W        W 7675  26.190  16.642  14.332
46013W        W 7676  30.085  39.048  10.902
46014W        W 7677  10.225   3.875   1.800
46015W        W 7678  11.808  14.702   3.347
46016W        W 7679  24.983  16.669  11.118
46017W        W 7680  43.495  35.589  11.558
46018W        W 7681  36.560  25.646  10.520
46019W        W 7682  38.873  20.244  14.866
46020W        W 7683  20.674  44.315   4.262
46021W        W 7684   0.443  27.041   1.787
46022W        W 7685   9.878  20.123   3.157
46023W        W 7686  32.922  28.148   4.245
46024W        W 7687  42.959   4.831  11.031
46025W        W 7688  15.159  31.115   2.350
46026W        W 7689  34.393  38.034   4.226
46027W        W 7690  26.528  18.558   1.347
46028W        W 7691   3.286  32.050   4.302
46029W        W 7692  39.426   5.233   2.735
46030W        W 7693   3.315  38.824  10.931
46031W        W 7694  23.502  35.473  12.965
46032W        W 7695  38.473   3.715  13.436
46033W        W 7696  43.899   2.737  13.053
46034W        W 7697  16.691   1.735  10.503
46035W        W 7698  32.001  25.546  14.905
46036W        W 7699  44.876   4.735  12.370
46037W        W 7700  17.635  29.109   0.347
46038W        W 7701  24.207  26.696  12.398
46039W        W 7702  34.569  22.061   4.631
46040W        W 7703  12.639  38.021  11.413
46041W        W 7704   2.337  24.486  10.997
46042W        W 7705  43.305  39.056   3.660
46043W        W 7706  39.815  42.325   3.713
46044W        W 7707  27.482  26.501  10.024
46045W        W 7708   3.315  10.321  12.990
46046W        W 7709  23.063  16.745   1.428
46047W        W 7710  28.181  11.319   3.644
46048W        W 7711  42.989  27.692  10.531
46049W        W 7712  17.293  31.130   3.380
46050W        W 7713  35.913   1.742   4.834
46051W        W 7714  12.679  20.532   4.227
46052W        W 7715   7.728   2.912   3.350
46053W        W 7716  24.177  37.346   0.382
46054W        W 7717   2.373   4.340   2.258
46055W        W 7718  35.993   9.352  12.471
46056W        W 7719   3.284  22.515   1.250
46057W        W 7720   0.936  25.075   2.286
46058W        W 7721  44.921  41.920  11.034
46059W        W 7722  10.371  24.511  12.845
46060W        W 7723  21.097  41.841   0.462
46061W        W 7724  12.704  30.435   2.299
46062W        W 7725   9.290   0.286  13.863
46063W        W 7726  27.003  18.190   1.428
46064W        W 7727  37.504   3.717   2.408
46065W        W 7728  36.080   4.266   3.863
46066W        W 7729  41.492  41.370   4.341
46067W        W 7730   4.316  33.494  12.898
46068W        W 7731  20.032   4.428  13.811
46069W        W 7732  10.840  11.227   5.199
46070W        W 7733  34.002  37.844   1.260
46071W        W 7734  27.523  33.994  11.919
46072W        W 7735  40.943  17.775   4.692
46073W        W 7736  22.178  23.990  12.858
46074W        W 7737  28.155  12.213  11.538
46075W        W 7738  14.138  34.939  12.937
46076W        W 7739   4.876   4.861  13.400
46077W        W 7740  18.082  25.077   1.311
46078W        W 7741  11.194   1.375  11.113
46079W        W 7742   4.760   0.382   0.475
46080W        W 7743  20.242   3.710  13.448
46081W        W 7744  40.042  20.557   3.222
46082W        W 7745   7.793   3.430   2.239
46083W        W 7746  40.371   1.744   4.713
46084W        W 7747   7.366  31.111   2.690
46085W        W 7748  16.588  43.409   4.721
46086W        W 7749  17.766  42.940   4.238
46087W        W 7750  27.682  25.963  10.987
46088W        W 7751  28.023  23.647   3.632
46089W        W 7752  15.175  22.683  12.892
46090W        W 7753  30.637  17.210   3.801
46091W        W 7754  10.272  35.450  13.943
46092W        W 7755  23.034  43.009  11.964
46093W        W 7756   9.674  26.995   4.742
46094W        W 7757  41.358  29.031  12.928
46095W        W 7758   1.459  14.175   0.753
46096W        W 7759  11.364   7.864   3.260
46097W        W 7760  15.299  31.575   4.618
46098W        W 7761  32.988   5.853  10.079
46099W        W 7762  37.025  23.704   4.665
46100W        W 7763  39.883   4.271  12.902
46101W        W 7764  18.179  26.183  13.033
46102W        W 7765  37.360  15.777  10.419
46103W        W 7766  14.739  38.384   4.754
46104W        W 7767   4.401  33.493  11.051
46105W        W 7768  36.962  18.773   2.788
46106W        W 7769  23.499  11.239  11.985
46107W        W 7770  18.756  43.940   4.278
46108W        W 7771  22.742   6.677  11.486
46109W        W 7772  44.354  40.013  13.909
46110W        W 7773  29.103  43.496   4.312
46111W        W 7774  22.633   0.316   4.291
46112W        W 7775  34.069   3.813   5.213
46113W        W 7776   2.422  11.246   0.297
46114W        W 7777   6.324  42.018   3.843
46115W        W 7778  44.269  15.134   1.774
46116W        W 7779  27.498   7.859   4.185
46117W        W 7780  17.756  40.356   1.798
46118W        W 7781  19.134   3.230  13.851
46119W        W 7782  30.943   0.949   2.766
46120W        W 7783  31.575  30.085   2.342
46121W        W 7784  17.172  32.519  13.007
46122W        W 7785  34.386  32.078   4.342
46123W        W 7786  12.729  41.393   1.931
46124W        W 7787  33.021  11.719  14.974
46125W        W 7788  39.840   7.247   3.185
46126W        W 7789  21.173   5.422  14.879
46127W        W 7790  40.539  19.723  14.923
46128W        W 7791  25.089  12.614  13.811
46129W        W 7792  44.979  42.416   0.940
46130W        W 7793  13.794  16.223   1.278
46131W        W 7794  15.820   6.236  13.412
46132W        W 7795  27.046  20.108  11.883
46133W        W 7796   0.854  40.031   4.128
46134W        W 7797  20.693  39.410   3.840
46135W        W 7798  31.431  31.634   1.743
46136W        W 7799   3.834  14.240   0.838
46137W        W 7800  33.946  40.811  14.904
46138W        W 7801  16.706  35.531  12.845
46139W        W 7802  21.682  13.665   2.212
46140W        W 7803  22.686  20.705   1.892
46141W        W 7804  21.087   6.272  12.492
46142W        W 7805  17.156  41.863   3.214
46143W        W 7806  30.658   9.867  13.051
46144W        W 7807  31.045  39.415  13.463
46145W        W 7808  42.331  19.540   2.890
46146W        W 7809  30.122  12.793   2.772
46147W        W 7810   3.305  35.532   3.789
46148W        W 7811   9.290  39.509  12.906
46149W        W 7812  44.468   3.323   4.805
46150W        W 7813  33.942  13.608   2.850
46151W        W 7814  32.435  16.711  13.366
46152W        W 7815  20.254  39.337   1.770
46153W        W 7816  35.445  40.544   1.239
46154W        W 7817  17.134   7.685  11.991
46155W        W 7818  19.736  10.723  11.930
46156W        W 7819  30.484  24.100  11.103
46157W        W 7820  16.216  42.396   4.753
46158W        W 7821  31.474  39.921   0.285
46159W        W 7822  31.940  22.730   1.414
46160W        W 7823  35.009   1.392  12.932
46161W        W 7824  21.668   7.353   0.461
46162W        W 7825  40.337  18.196  14.367
46163W        W 7826  11.163  43.865  14.988
46164W        W 7827  25.554   5.352  10.644
46165W        W 7828  26.576  12.772   2.882
46166W        W 7829   5.846  24.059  14.499
46167W        W 7830   4.779   0.272  12.411
46168W        W 7831  32.961  13.211  13.484
46169W        W 7832  44.826  44.881   1.346
46170W        W 7833  20.111  33.007  10.584
46171W        W 7834   6.196  41.471   0.741
46172W        W 7835  39.043  36.484   2.231
46173W        W 7836  32.922  37.016   4.735
46174W        W 7837  27.520  26.128   2.254
46175W        W 7838  36.372  36.954  14.767
46176W        W 7839  13.225  32.604  14.906
46177W        W 7840   3.796  19.164   2.837
46178W        W 7841  28.096  19.133   2.335
46179W        W 7842  44.487   2.334  13.393
46180W        W 7843   6.316  43.927   3.643
46181W        W 7844  32.402  31.090   4.198
46182W        W 7845   4.871  32.974   5.226
46183W        W 7846  28.547  36.071   1.404
46184W        W 7847  29.525  15.172   1.352
46185W        W 7848  10.645  12.211  12.850
46186W        W 7849   1.757  25.116  13.004
46187W        W 7850   3.746   7.713   3.370
46188W        W 7851  34.984  15.638  13.423
46189W        W 7852  36.884   9.759   4.193
46190W        W 7853   7.695   9.758  12.426
46191W        W 7854  21.245  15.103  13.493
46192W        W 7855  18.092  35.928   2.296
46193W        W 7856  34.415  28.049   1.449
46194W        W 7857  25.132  35.017  10.903
46195W        W 7858  37.854  36.374  10.570
46196W        W 7859   8.705   0.844   2.205
46197W        W 7860  17.788  19.117  12.994
46198W        W 7861   0.941  38.921   3.652
46199W        W 7862   9.745  15.699  11.112
46200W        W 7863  41.951  42.468  11.587
46201W        W 7864  34.374   9.851   5.305
46202W        W 7865  14.826  22.746  13.504
46203W        W 7866  34.435  16.151   4.600
46204W        W 7867  31.906  44.979   4.602
46205W        W 7868  44.267  25.543   3.808
46206W        W 7869  29.439   5.395  10.495
46207W        W 7870  14.184   3.407   0.269
46208W        W 7871  29.441  42.925   3.859
46209W        W 7872  12.632   6.758  14.809
46210W        W 7873  23.103  17.612  12.910
46211W        W 7874  17.150  37.375  13.478
46212W        W 7875  42.410  40.518   1.888
46213W        W 7876  14.656  40.964  13.860
46214W        W 7877   9.749  39.016  10.425
46215W        W 7878  12.776  40.801  14.014
46216W        W 7879   2.759  13.304   0.441
46217W        W 7880  30.425  24.481   4.278
46218W        W 7881   9.344  23.986  14.427
46219W        W 7882  40.867  32.509  10.440
46220W        W 7883   3.888   8.290  12.000
46221W        W 7884   1.800   5.739   0.772
46222W        W 7885  36.881   8.769   1.327
46223W        W 7886  32.614  28.514   0.861
46224W        W 7887  41.031  35.378  11.563
46225W        W 7888  18.774  27.455  13.881
46226W        W 7889  40.459  15.738  11.599
46227W        W 7890  18.695  35.957   1.309
46228W        W 7891   8.293  30.464  14.914
46229W        W 7892  33.079  44.351   4.319
46230W        W 7893  21.146  27.082   5.303
46231W        W 7894  11.722  18.101   0.774
46232W        W 7895  18.629  24.637  13.520
46233W        W 7896   9.245   3.812  12.524
46234W        W 7897  10.224  27.551   0.258
46235W        W 7898  33.574  25.132  13.987
46236W        W 7899  39.547  33.983  12.830
46237W        W 7900   0.981  43.361  11.478
46238W        W 7901  25.006   3.876   0.790
46239W        W 7902  40.006  14.636   2.183
46240W        W 7903  28.098   2.916  12.493
46241W        W 7904  28.149   6.882   0.463
46242W        W 7905  33.530  39.487  13.428
46243W        W 7906  17.558  14.736   0.282
46244W        W 7907  32.941   3.919   1.359
46245W        W 7908  25.012  21.262   3.265
46246W        W 7909  17.103  32.944  14.436
46247W        W 7910   6.307  22.620  11.484
46248W        W 7911  32.446  35.396   0.350
46249W        W 7912  29.963  22.087  11.964
46250W        W 7913  15.226  31.631   2.886
46251W        W 7914  24.641  21.053  11.964
46252W        W 7915  15.750  20.184   1.333
46253W        W 7916  10.301  35.023  14.897
46254W        W 7917   0.466  33.099  11.492
46255W        W 7918  41.888  23.101  13.421
46256W        W 7919   7.803  32.909  13.471
46257W        W 7920  37.960  15.284  10.548
46258W        W 7921   2.826  37.478   5.126
46259W        W 7922  10.152  39.314  13.398
46260W        W 7923   3.245   9.183  11.453
46261W        W 7924  23.495  15.695  11.034
46262W        W 7925  19.619  19.066  11.041
46263W        W 7926  36.867  15.784   4.792
46264W        W 7927  39.008  42.915   5.188
46265W        W 7928  13.250  35.066   4.666
46266W        W 7929   0.271  32.443  13.366
46267W        W 7930  39.505  26.694  14.769
46268W        W 7931  32.994   7.838  12.958
46269W        W 7932   1.259  16.160  12.033
46270W        W 7933  30.929  44.501  12.370
46271W        W 7934   5.863  15.681  12.860
46272W        W 7935  33.479  42.449   2.226
46273W        W 7936  38.052  21.756   2.860
46274W        W 7937   5.844   3.254   3.146
46275W        W 7938  28.614   1.772  13.831
46276W        W 7939   1.822  20.558  14.371
46277W        W 7940  29.560  24.533   1.434
46278W        W 7941  13.164   8.357   1.378
46279W        W 7942  37.071   6.297  13.434
46280W        W 7943  21.742  12.146   0.824
46281W        W 7944  12.809  18.602  14.027
46282W        W 7945  36.445   6.905   2.897
46283W        W 7946  16.092  39.419  14.475
46284W        W 7947   7.666  35.364  11.976
46285W        W 7948   3.291  43.405  11.911
46286W        W 7949   0.349   8.219   3.258
46287W        W 7950  37.522  30.415   3.773
46288W        W 7951   8.769   8.160  14.405
46289W        W 7952  28.489  20.563  11.426
46290W        W 7953   0.860  28.579  10.509
46291W        W 7954   1.447  42.009   3.817
46292W        W 7955  39.316  15.692  14.834
46293W        W 7956  40.025  44.904   4.653
46294W        W 7957  37.030   3.750  12.055
46295W        W 7958  22.045  24.218  14.995
46296W        W 7959  22.085  10.770  12.844
46297W        W 7960   1.931   5.901   1.849
46298W        W 7961   5.894   4.893  11.009
46299W        W 7962   3.405   3.855  14.501
46300W        W 7963  43.913  40.875  13.889
46301W        W 7964  25.630  13.285  14.962
46302W        W 7965   3.740  23.686   3.721
46303W        W 7966  13.108  37.865  12.339
46304W        W 7967  17.216  28.501  10.490
46305W        W 7968  33.969  41.025   4.155
46306W        W 7969  23.627  19.666   2.351
46307W        W 7970   5.788  16.625   4.123
46308W        W 7971   0.471   8.739  10.091
46309W        W 7972  41.794   7.855   3.648
46310W        W 7973   1.376  18.242   3.713
46311W        W 7974  17.698  31.406  11.879
46312W        W 7975   4.790  22.601  10.537
46313W        W 7976  30.527   7.349   0.949
46314W        W 7977   8.665  26.535  13.392
46315W        W 7978  31.088  38.919  10.452
46316W        W 7979  43.342  32.561  11.605
46317W        W 7980  18.757  12.288   3.764
46318W        W 7981  12.306  19.740   4.319
46319W        W 7982  18.083  42.867   2.259
46320W        W 7983  37.864   8.169  13.356
46321W        W 7984  13.270  43.992   4.204
46322W        W 7985  10.835   7.314   4.314
46323W        W 7986   1.835   2.904   2.293
46324W        W 7987   0.836  21.641  14.884
46325W        W 7988   8.351  16.280  13.471
46326W        W 7989  14.198  34.976   0.742
46327W        W 7990  44.760   0.386  11.071
46328W        W 7991  26.621   0.333   3.311
46329W        W 7992  21.263  12.352   1.932
46330W        W 7993  11.725  43.445  12.072
46331W        W 7994  22.678  42.375  14.955
46332W        W 7995  37.355  18.245   1.363
46333W        W 7996  21.213  25.643  12.925
46334W        W 7997   1.811  22.647   3.296
46335W        W 7998   0.446  15.732  14.443
46336W        W 7999  39.893  39.902   1.306
46337W        W 8000   9.241  43.905   2.383
46338W        W 8001  23.184  43.823   0.911
46339W        W 8002  33.954  17.610   1.263
46340W        W 8003  41.913   8.817  13.059
46341W        W 8004   7.273  37.052   2.186
46342W        W 8005  33.958  11.820   0.737
46343W        W 8006  19.071   3.406   4.723
46344W        W 8007  31.985  14.737   5.270
46345W        W 8008  12.314   4.420   0.444
46346W        W 8009   9.846  22.174  14.774
46347W        W 8010  18.073  16.257   2.416
46348W        W 8011  30.529  33.469   3.804
46349W        W 8012  13.754  12.772  11.018
46350W        W 8013  33.560  33.926   2.688
46351W        W 8014   2.856  41.946  13.836
46352W        W 8015  16.657  44.978  11.588
46353W        W 8016  28.167  13.714  14.384
46354W        W 8017  17.295   5.193  14.378
46355W        W 8018  38.369  23.190   2.731
46356W        W 8019  32.963   6.793   9.584
46357W        W 8020   5.825  23.006   4.743
46358W        W 8021  34.469   0.487  11.613
46359W        W 8022  26.132  10.791  12.426
46360W        W 8023   6.418  17.135   3.780
46361W        W 8024  17.124   0.273  13.338
46362W        W 8025  38.057   7.710  11.502
46363W        W 8026   8.894  11.630   2.662
46364W        W 8027  29.484  33.048   3.633
46365W        W 8028  26.175  42.310   2.668
46366W        W 8029   0.394  19.684  14.346
46367W        W 8030  40.001  22.129  12.394
46368W        W 8031  16.721  11.631   4.755
46369W        W 8032   4.751  10.733   1.353
46370W        W 8033  44.315  27.944  13.981
46371W        W 8034  41.027  19.282   1.784
46372W        W 8035  24.189  42.973   1.861
46373W        W 8036   8.791  44.345   3.230
46374W        W 8037  36.371  16.222  13.367
46375W        W 8038  14.727   3.859   2.320
46376W        W 8039  39.858   8.748  11.517
46377W        W 8040  37.027  20.647  10.415
46378W        W 8041  43.347  43.317  13.007
46379W        W 8042  14.727  35.489   9.514
46380W        W 8043  42.854   5.690   2.320
46381W        W 8044  38.486  14.162  12.039
46382W        W 8045  25.640   6.679  12.904
46383W        W 8046   6.324  42.460   2.272
46384W        W 8047  22.140  28.153   0.264
46385W        W 8048  22.156  22.533   0.263
46386W        W 8049  16.590  33.084   3.381
46387W        W 8050  13.313  33.114   2.888
46388W        W 8051  23.565   1.871   3.706
46389W        W 8052  28.669  10.657   2.663
46390W        W 8053  20.634  37.336  11.917
46391W        W 8054   9.768   8.873   3.688
46392W        W 8055  19.561  44.888  12.891
46393W        W 8056  15.288  18.670   0.268
46394W        W 8057  26.594  32.017   2.245
46395W        W 8058  22.709  27.028   1.884
46396W        W 8059   6.722  31.969  13.958
46397W        W 8060  41.872  14.205  12.493
46398W        W 8061   7.293  13.740   4.219
46399W        W 8062  22.079  10.323  12.454
46400W        W 8063  43.312  22.683   3.746
46401W        W 8064  13.155  14.327  10.492
46402W        W 8065  38.462  42.806   0.265
46403W        W 8066   8.776  40.885   4.199
46404W        W 8067  21.052  31.092  11.456
46405W        W 8068  20.604  44.757  14.017
46406W        W 8069   8.761   3.947   0.839
46407W        W 8070  21.629  34.080  11.086
46408W        W 8071  23.701  44.300  14.001
46409W        W 8072  21.538  39.553   3.330
46410W        W 8073  44.281  31.063   4.736
46411W        W 8074  27.981  10.282   4.241
46412W        W 8075  41.031  38.037   3.199
46413W        W 8076  41.945  23.095  12.343
46414W        W 8077  32.914   7.851  13.383
46415W        W 8078  17.698  37.522  10.466
46416W        W 8079  21.513   9.294   1.228
46417W        W 8080   5.904  26.179  10.525
46418W        W 8081  36.008  22.593   1.429
46419W        W 8082   6.751  20.259   3.192
46420W        W 8083  27.464   7.287  12.423
46421W        W 8084  40.433  12.696   0.478
46422W        W 8085  26.624  39.483   2.668
46423W        W 8086  44.905  27.472   3.341
46424W        W 8087  32.025   6.290   2.264
46425W        W 8088  42.923   9.775  13.449
46426W        W 8089   3.457  19.674  12.343
46427W        W 8090  19.257   4.725   0.823
46428W        W 8091  21.663  13.766  12.916
46429W        W 8092  31.635  37.858   0.441
46430W        W 8093  11.662   0.880   2.848
46431W        W 8094   6.387   6.376  13.488
46432W        W 8095  28.645  27.056  12.482
46433W        W 8096  26.572  14.159  10.418
46434W        W 8097   2.274  16.600   0.465
46435W        W 8098   4.335  30.526  11.983
46436W        W 8099  29.508  20.234   3.185
46437W        W 8100  18.141  43.900  14.850
46438W        W 8101  39.500  35.529   2.271
46439W        W 8102   2.859  34.879   4.600
46440W        W 8103   1.915  37.544  11.390
46441W        W 8104   7.238  22.675  10.518
46442W        W 8105  44.846  10.312   2.182
46443W        W 8106  39.514  34.059   2.840
46444W        W 8107   7.875  44.473  10.533
46445W        W 8108  10.801  34.928  11.865
46446W        W 8109   2.741  42.817  14.978
46447W        W 8110  42.776  15.784   4.216
46448W        W 8111  15.728   9.236  12.868
46449W        W 8112  39.871   8.733   1.442
46450W        W 8113  36.957  42.024   1.235
46451W        W 8114  35.473  21.044   1.412
46452W        W 8115  29.560  32.120   0.314
46453W        W 8116  43.821  17.753   5.094
46454W        W 8117   0.448  21.197  13.406
46455W        W 8118  13.827  36.443  11.926
46456W        W 8119   2.230  42.391  14.849
46457W        W 8120  36.842  16.214   3.182
46458W        W 8121  27.016   9.304   1.887
46459W        W 8122  19.576  38.964  13.950
46460W        W 8123  11.311  16.694  12.989
46461W        W 8124  25.033  24.524   4.341
46462W        W 8125  37.565  42.362   3.269
46463W        W 8126  39.947  23.559   0.268
46464W        W 8127  36.994   6.698   2.704
46465W        W 8128  31.908   6.308  10.075
46466W        W 8129  10.754   6.392   9.609
46467W        W 8130  13.666   1.263  12.949
46468W        W 8131  43.976   3.780   3.205
46469W        W 8132  23.001  20.079   0.958
46470W        W 8133  15.146   0.981  13.926
46471W        W 8134   2.836  10.754   2.322
46472W        W 8135  13.121   7.879  14.280
46473W        W 8136   2.759  30.011  13.011
46474W        W 8137  25.962  43.835  14.830
46475W        W 8138   1.375   5.317   1.334
46476W        W 8139   4.241  32.055  14.868
46477W        W 8140  34.445  20.607   2.220
46478W        W 8141  12.139  25.566  14.950
46479W        W 8142  38.006  27.542   3.676
46480W        W 8143   5.380  24.987  14.974
46481W        W 8144  19.563  27.974  13.507
46482W        W 8145  29.484  10.746   3.683
46483W        W 8146  19.649  30.539   1.424
46484W        W 8147  20.159  21.728  11.035
46485W        W 8148  41.409   8.875   3.288
46486W        W 8149   7.761  22.669  12.419
46487W        W 8150  43.296  43.888   3.643
46488W        W 8151  34.597  38.981  14.859
46489W        W 8152  13.704  44.276  11.947
46490W        W 8153   8.813   1.266  10.529
46491W        W 8154   9.704  38.439   3.660
46492W        W 8155  14.673   2.231  12.509
46493W        W 8156  27.053  40.988   1.714
46494W        W 8157  37.984  16.588   1.405
46495W        W 8158  14.778  30.481  13.527
46496W        W 8159  18.565  22.117   4.210
46497W        W 8160  24.662  25.544   4.119
46498W        W 8161  35.894   7.700   5.623
46499W        W 8162  42.290  13.154   0.420
46500W        W 8163  11.635  19.601  11.936
46501W        W 8164  43.512   0.296   0.927
46502W        W 8165  35.542  22.595  12.934
46503W        W 8166  35.906  14.834  14.353
46504W        W 8167  28.063  44.432   1.352
46505W        W 8168  36.439  11.221  14.938
46506W        W 8169  11.300  18.593   3.247
46507W        W 8170  31.596  37.342   1.392
46508W        W 8171  33.928  13.333   1.427
46509W        W 8172  34.916  27.996  11.397
46510W        W 8173  28.678  43.976   2.692
46511W        W 8174  44.851  22.078  11.058
46512W        W 8175  26.982  30.623   0.268
46513W        W 8176  37.922  27.131  13.380
46514W        W 8177  14.822   0.345  11.000
46515W        W 8178  27.150  43.354   2.787
46516W        W 8179  29.113  33.619   2.273
46517W        W 8180  26.540  17.783   3.722
46518W        W 8181  29.473  31.931  11.029
46519W        W 8182  29.605  39.522  11.113
46520W        W 8183   2.291  32.538  14.989
46521W        W 8184   6.713  32.592  12.368
46522W        W 8185  43.503  20.751   3.700
46523W        W 8186   9.207  15.627  11.111
46524W        W 8187  41.385   9.271  13.493
46525W        W 8188  30.955  29.123  12.888
46526W        W 8189  33.612  15.102   4.754
46527W        W 8190   1.298  27.995   2.196
46528W        W 8191   3.351  19.066   0.274
46529W        W 8192   4.890   4.218   1.878
46530W        W 8193   5.861   4.727   4.754
46531W        W 8194   0.387   6.425   0.961
46532W        W 8195  40.414  32.012   4.138
46533W        W 8196  28.994  43.293  12.059
46534W        W 8197  26.016  26.079   5.200
46535W        W 8198  12.216  11.327  14.930
46536W        W 8199  22.526  34.079   2.365
46537W        W 8200   3.857  38.894   4.250
46538W        W 8201   2.302  25.581  14.305
46539W        W 8202  33.959   2.274  12.552
46540W        W 8203  41.320  38.973  13.959
46541W        W 8204  25.201   3.846  12.549
46542W        W 8205   5.223  17.145   2.831
46543W        W 8206   6.394  44.821  11.994
46544W        W 8207  20.620  42.992   2.296
46545W        W 8208  12.130  10.833   0.938
46546W        W 8209   2.446   7.831  11.087
46547W        W 8210   7.243   2.906  13.813
46548W        W 8211  22.536  17.125   3.286
46549W        W 8212  24.042  13.351  12.030
46550W        W 8213   3.220  11.329  12.059
46551W        W 8214  31.964  42.862   4.640
46552W        W 8215  16.187   7.798  12.025
46553W        W 8216  41.012  11.187  12.992
46554W        W 8217  37.559  25.116   0.421
46555W        W 8218  29.567  20.172   3.809
46556W        W 8219  37.565  27.031  11.023
46557W        W 8220  13.611  38.904  13.820
46558W        W 8221   2.349  19.627  13.366
46559W        W 8222  12.720   4.914   2.391
46560W        W 8223   3.836  18.133  14.947
46561W        W 8224  10.642  22.056   3.818
46562W        W 8225  11.273  11.826   3.719
46563W        W 8226  12.215   4.839  11.476
46564W        W 8227   7.741  20.246   2.896
46565W        W 8228  35.999  15.751  14.925
46566W        W 8229  30.587  25.206   1.365
46567W        W 8230  19.684  27.981  12.365
46568W        W 8231  44.869  15.315  14.368
46569W        W 8232  13.346  13.150   3.665
46570W        W 8233  30.484   6.240   0.954
46571W        W 8234  35.017  31.411  14.852
46572W        W 8235   3.732   2.937   2.778
46573W        W 8236  32.076  34.909   4.626
46574W        W 8237  28.656   6.710  12.887
46575W        W 8238   6.791  29.972  13.874
46576W        W 8239  33.031  26.640  10.002
46577W        W 8240   9.692  20.596  13.489
46578W        W 8241  32.564  10.719   4.324
46579W        W 8242  19.269   0.871   0.781
46580W        W 8243   5.216  35.906  11.963
46581W        W 8244  44.343   0.446  13.891
46582W        W 8245  10.839  43.893  10.927
46583W        W 8246  31.553   9.856  12.034
46584W        W 8247  36.066  15.809   4.715
46585W        W 8248  23.660  13.285  14.509
46586W        W 8249  21.719  35.521  12.850
46587W        W 8250  37.370  37.521   1.912
46588W        W 8251  36.880  20.192   4.632
46589W        W 8252  24.680   9.155  14.986
46590W        W 8253  27.640   2.834  14.879
46591W        W 8254  40.920  43.447  11.553
46592W        W 8255  21.521  34.010   4.781
46593W        W 8256  43.808  22.087   0.890
46594W        W 8257  24.497  44.814   1.314
46595W        W 8258   6.383  35.885   5.287
46596W        W 8259   5.361  17.755  13.925
46597W        W 8260  39.321  17.614   4.291
46598W        W 8261  32.582   1.477   4.163
46599W        W 8262   2.746  44.963   4.333
46600W        W 8263   4.713  15.722   3.306
46601W        W 8264  29.120   2.875   4.676
46602W        W 8265  10.643  44.959   4.246
46603W        W 8266  36.438  21.591  11.881
46604W        W 8267  14.204  15.784   3.235
46605W        W 8268  23.607   3.933   5.136
46606W        W 8269  29.522  30.931   3.227
46607W        W 8270  43.921   6.372   1.445
46608W        W 8271  32.055   4.331   2.324
46609W        W 8272   9.662  14.610   3.699
46610W        W 8273  19.042  32.546   1.879
46611W        W 8274   5.838  43.781  14.450
46612W        W 8275   0.431   6.914  12.007
46613W        W 8276  20.615  13.336  13.842
46614W        W 8277  13.755  42.498  12.918
46615W        W 8278  39.423   9.805  10.925
46616W        W 8279  44.266  20.674   2.379
46617W        W 8280  44.413  42.343  10.637
46618W        W 8281  26.588  41.497  10.942
46619W        W 8282   7.302  24.541  10.563
46620W        W 8283  39.529  40.819  12.991
46621W        W 8284  14.718  36.406  13.030
46622W        W 8285   7.689   7.716  10.515
46623W        W 8286   8.324  18.571   4.153
46624W        W 8287  39.970  25.587   2.197
46625W        W 8288  28.177  18.132   3.347
46626W        W 8289   4.737  13.775   4.125
46627W        W 8290  44.449  38.489   2.678
46628W        W 8291   2.466  30.999   3.232
46629W        W 8292   1.912  11.839   0.738
46630W        W 8293  29.506  27.580  11.937
46631W        W 8294  19.676  36.055  13.540
46632W        W 8295   1.969   3.731   3.631
46633W        W 8296  21.189  40.466  14.326
46634W        W 8297  10.827   9.289   1.319
46635W        W 8298  16.228  16.205   2.270
46636W        W 8299  39.503  16.095   2.182
46637W        W 8300   4.826   2.875  12.056
46638W        W 8301  14.749  36.065   3.664
46639W        W 8302   2.263  22.566   3.349
46640W        W 8303  35.385  10.177   3.668
46641W        W 8304  34.470  17.085  14.435
46642W        W 8305  38.957   3.859   2.687
46643W        W 8306  30.550  33.574  10.978
46644W        W 8307   8.724  31.644  12.063
46645W        W 8308  16.189  23.017   4.254
46646W        W 8309  43.887  42.469  12.907
46647W        W 8310  33.615  26.546  10.899
46648W        W 8311  16.315  30.427   1.873
46649W        W 8312  43.939   2.883  12.091
46650W        W 8313  12.684   2.929   3.699
46651W        W 8314  20.591  20.126  11.915
46652W        W 8315  16.596  33.443  14.406
46653W        W 8316  35.554  43.912  14.959
46654W        W 8317  13.778  34.087  13.408
46655W        W 8318   4.423   2.379   0.336
46656W        W 8319  25.980   1.436   2.214
46657W        W 8320  21.625  16.686   2.300
46658W        W 8321  16.725  26.534   2.776
46659W        W 8322  43.809  27.940  14.029
46660W        W 8323  35.428  37.450   2.322
46661W        W 8324  30.100  16.102  13.967
46662W        W 8325  13.624  16.592  12.546
46663W        W 8326   8.221  43.505   1.709
46664W        W 8327  30.161  40.805  13.429
46665W        W 8328  22.068   5.796   4.221
46666W        W 8329  17.254  44.434  10.496
46667W        W 8330  10.372  40.498  14.812
46668W        W 8331  15.779  31.559  12.420
46669W        W 8332   5.400  24.676   1.929
46670W        W 8333   1.952  18.611  13.974
46671W        W 8334  24.507   7.845  12.542
46672W        W 8335  12.851  24.515  11.570
46673W        W 8336  16.116  29.507   2.191
46674W        W 8337   7.219  11.806  14.015
46675W        W 8338   8.177  42.010  11.502
46676W        W 8339  32.107  11.298  12.996
46677W        W 8340  32.109  43.844  12.864
46678W        W 8341  24.609  14.762   0.332
46679W        W 8342  34.885  30.555   2.214
46680W        W 8343   7.806  27.576  12.489
46681W        W 8344   8.307  30.072  11.883
46682W        W 8345  28.098  15.327  11.052
46683W        W 8346   5.340  16.603   2.870
46684W        W 8347   1.342  31.548   1.360
46685W        W 8348  41.395   1.881   4.715
46686W        W 8349  13.247  37.551  11.435
46687W        W 8350  21.742  27.120  11.382
46688W        W 8351  36.892  30.985   3.845
46689W        W 8352  25.148  15.152  12.828
46690W        W 8353  19.142  15.645   2.856
46691W        W 8354  34.003  12.650  13.495
46692W        W 8355  44.888  41.907   3.326
46693W        W 8356   1.399   8.900   0.938
46694W        W 8357  29.556  19.252  14.420
46695W        W 8358  12.287  35.949   2.866
46696W        W 8359  13.156   5.283   0.288
46697W        W 8360  43.785  24.554   0.480
46698W        W 8361  35.909  39.337  10.547
46699W        W 8362  44.790  39.910  12.390
46700W        W 8363  19.535  43.387   1.752
46701W        W 8364  11.266  26.541   2.405
46702W        W 8365  24.494  42.513   0.965
46703W        W 8366  22.663  39.035   0.436
46704W        W 8367  40.512  25.145   2.195
46705W        W 8368  11.126  32.449  14.443
46706W        W 8369   8.660  24.087  11.862
46707W        W 8370  19.094  23.672  11.865
46708W        W 8371  20.645  25.010   4.268
46709W        W 8372   8.743   0.485   3.336
46710W        W 8373  14.821  10.140   1.742
46711W        W 8374  27.981  16.723   3.309
46712W        W 8375  29.946   9.764  10.569
46713W        W 8376  30.648  32.092   4.800
46714W        W 8377  23.735  26.564   3.705
46715W        W 8378   6.290  29.550   0.304
46716W        W 8379   4.728   7.411   1.728
46717W        W 8380  35.051  41.464  10.509
46718W        W 8381  38.497  13.337   0.378
46719W        W 8382  22.517  43.800   3.746
46720W        W 8383  36.088  20.032  11.410
46721W        W 8384  13.608  15.818   3.206
46722W        W 8385  42.840  22.029  10.552
46723W        W 8386  36.454  25.646   4.671
46724W        W 8387   0.843  24.206  13.935
46725W        W 8388   6.242  34.379  12.480
46726W        W 8389  24.490  12.771   4.289
46727W        W 8390   9.213   6.860  10.083
46728W        W 8391  36.091  13.309   0.394
46729W        W 8392  14.800  25.212   4.718
46730W        W 8393  24.079  16.117   3.169
46731W        W 8394   5.849  15.183   1.317
46732W        W 8395  10.871   4.910   4.831
46733W        W 8396  11.627  40.542   5.134
46734W        W 8397  15.588   6.221  11.576
46735W        W 8398  10.822  33.948  11.068
46736W        W 8399  42.320  11.212   4.287
46737W        W 8400  43.409  20.628  14.974
46738W        W 8401  36.404  23.550  10.497
46739W        W 8402  34.027  11.289   3.707
46740W        W 8403  28.474  28.962   0.434
46741W        W 8404   2.403   2.249  14.423
46742W        W 8405  42.893  21.648  14.902
46743W        W 8406   9.294  21.689  11.047
46744W        W 8407  13.648   2.779  11.570
46745W        W 8408  28.613  25.653  14.860
46746W        W 8409  20.763  10.725   4.601
46747W        W 8410  22.726   0.883   1.742
46748W        W 8411  26.576  43.003  14.892
46749W        W 8412  38.045  28.043   0.385
46750W        W 8413  32.624   9.717   1.314
46751W        W 8414  33.475  28.553  10.550
46752W        W 8415   7.270  35.075  14.822
46753W        W 8416  29.462  29.458  12.347
46754W        W 8417   0.349  15.152   3.367
46755W        W 8418   1.870  17.174   4.158
46756W        W 8419  12.693  23.608  10.554
46757W        W 8420  34.610  24.505   2.872
46758W        W 8421   6.824  35.484   3.173
46759W        W 8422  13.243  25.621  11.558
46760W        W 8423  20.593  17.245  13.868
46761W        W 8424   7.687   5.864   3.728
46762W        W 8425   1.343  21.086   0.932
46763W        W 8426  23.589  13.234  12.981
46764W        W 8427  15.227  37.444  13.885
46765W        W 8428  11.706  40.509  10.612
46766W        W 8429  14.125  28.140  13.003
46767W        W 8430  27.527  34.922   2.313
46768W        W 8431  15.129  40.798   5.682
46769W        W 8432   5.302  33.037  14.828
46770W        W 8433  18.581  22.044  14.331
46771W        W 8434   6.891   4.892   1.792
46772W        W 8435  44.835   4.393   1.812
46773W        W 8436   4.893  42.503  12.480
46774W        W 8437  35.939   5.777   3.249
46775W        W 8438  23.621  26.994   4.622
46776W        W 8439   9.319  38.356  11.485
46777W        W 8440  37.866  15.146  13.327
46778W        W 8441  13.234  10.636  12.446
46779W        W 8442  35.382  14.179  10.577
46780W        W 8443   7.821   1.752  10.038
46781W        W 8444  22.078  24.700   1.904
46782W        W 8445  27.992   9.685  13.388
46783W        W 8446  35.427  36.411  11.504
46784W        W 8447  44.501  33.019  13.359
46785W        W 8448   0.812   7.875  11.608
46786W        W 8449   6.258   6.220  11.403
46787W        W 8450  32.127  27.972  12.512
46788W        W 8451   2.879  18.191  10.572
46789W        W 8452  19.158  27.484  13.453
46790W        W 8453  38.868  40.841  12.349
46791W        W 8454  27.025  33.618  12.038
46792W        W 8455   4.404  34.580   1.801
46793W        W 8456  13.743  16.119  13.909
46794W        W 8457  35.861   1.977  12.986
46795W        W 8458  12.239  30.154   4.291
46796W        W 8459  27.597  41.937  13.869
46797W        W 8460  26.599  35.494  14.909
46798W        W 8461   9.674  17.065   4.272
46799W        W 8462  16.759  12.843   4.126
46800W        W 8463  30.908  15.638   0.961
46801W        W 8464  26.597  13.789  14.361
46802W        W 8465  19.210  11.701  12.520
46803W        W 8466  29.606   3.791  14.976
46804W        W 8467  18.144  11.359  11.393
46805W        W 8468  42.355   7.219  12.972
46806W        W 8469   6.719  37.542  10.950
46807W        W 8470   3.953  15.282  13.995
46808W        W 8471   6.362  18.704   3.713
46809W        W 8472  15.749  38.554   1.451
46810W        W 8473   1.323   1.916  12.955
46811W        W 8474  25.000  28.634   3.249
46812W        W 8475  23.162  29.601  11.547
46813W        W 8476   9.310  13.835   2.256
46814W        W 8477  18.694  30.536  11.481
46815W        W 8478  30.074  26.623   5.227
46816W        W 8479  21.567  31.898   2.229
46817W        W 8480  44.483   5.806   4.246
46818W        W 8481   1.812  20.619   3.308
46819W        W 8482  19.754   8.711  12.986
46820W        W 8483  24.609   2.353   0.930
46821W        W 8484  18.275   1.379   1.410
46822W        W 8485  27.990  18.242   5.294
46823W        W 8486  36.962  23.489  10.559
46824W        W 8487  44.002   6.229  10.915
46825W        W 8488  32.048   8.819   4.759
46826W        W 8489  43.918  20.222   3.754
46827W        W 8490  23.170  42.803   4.723
46828W        W 8491  24.636  39.428  10.057
46829W        W 8492  15.320  20.244   1.355
46830W        W 8493  41.789  30.620   2.200
46831W        W 8494  18.617  10.723  10.469
46832W        W 8495   5.404  12.126   3.240
46833W        W 8496  14.589  23.066   3.657
46834W        W 8497  42.374  23.205   2.414
46835W        W 8498   1.743   2.837  13.952
46836W        W 8499  37.480  12.302   1.766
46837W        W 8500  40.500  24.132   4.748
46838W        W 8501  27.960  24.612   1.313
46839W        W 8502  40.812   2.355  11.090
46840W        W 8503  40.499  40.477  10.488
46841W        W 8504  16.734   4.723   2.246
46842W        W 8505  18.257  38.519  10.595
46843W        W 8506  25.019  30.484  13.980
46844W        W 8507  27.958  43.490  13.438
46845W        W 8508  37.925  34.431   0.745
46846W        W 8509  28.523  34.523   0.885
46847W        W 8510   8.180  36.393  13.530
46848W        W 8511  31.476  40.461  10.542
46849W        W 8512  12.200  22.510  14.966
46850W        W 8513   3.253  40.048  11.018
46851W        W 8514  21.031  31.915  13.015
46852W        W 8515  24.711  20.230  12.029
46853W        W 8516  41.524  33.950  10.936
46854W        W 8517  31.004  32.924   2.818
46855W        W 8518  31.051  39.845  14.497
46856W        W 8519   3.401  31.488   3.759
46857W        W 8520  31.133  20.035   0.301
46858W        W 8521  19.719   4.699  14.829
46859W        W 8522   4.317  10.340   1.426
46860W        W 8523   8.874  31.490   2.809
46861W        W 8524  14.681  15.691  12.538
46862W        W 8525   1.784  42.858   2.666
46863W        W 8526   1.961  42.375  14.479
46864W        W 8527  32.419  44.003   4.169
46865W        W 8528   6.742  16.112   1.412
46866W        W 8529  38.897   8.689  14.443
46867W        W 8530   7.889  37.459  11.486
46868W        W 8531  24.171  27.023  10.611
46869W        W 8532   9.858   3.262  11.077
46870W        W 8533  24.025  38.980   3.860
46871W        W 8534  44.758   5.712  14.454
46872W        W 8535  15.106   0.428  11.992
46873W        W 8536  27.161  28.949  11.038
46874W        W 8537  30.440  14.212   0.449
46875W        W 8538  37.889  15.234  12.078
46876W        W 8539  13.219  10.180  12.361
46877W        W 8540  28.989  40.441  13.812
46878W        W 8541  30.525  36.488  14.031
46879W        W 8542  37.519   8.292   3.357
46880W        W 8543   7.193  25.188   2.722
46881W        W 8544  40.497  25.987  11.080
46882W        W 8545  13.175   7.724   0.728
46883W        W 8546  10.170  27.598   4.283
46884W        W 8547   3.371   0.777   1.367
46885W        W 8548  43.399   6.202  12.484
46886W        W 8549   1.915  40.316  10.640
46887W        W 8550  11.226  34.379  12.437
46888W        W 8551   1.824   8.765   0.838
46889W        W 8552  39.899   0.810   2.242
46890W        W 8553  36.876  35.546  12.861
46891W        W 8554  24.975  38.858  12.007
46892W        W 8555   0.750  42.429  10.951
46893W        W 8556  32.034  43.910   4.258
46894W        W 8557  16.703  39.869   3.727
46895W        W 8558  43.012  20.742  12.938
46896W        W 8559  19.221  24.655   1.884
46897W        W 8560  14.782  39.013  12.839
46898W        W 8561  42.840  33.587   0.414
46899W        W 8562  26.018  19.769   2.835
46900W        W 8563  17.706   0.248   3.356
46901W        W 8564  24.535  18.180  12.903
46902W        W 8565  10.309   9.363  14.778
46903W        W 8566  15.740  34.560   1.696
46904W        W 8567   7.666  35.420   3.312
46905W        W 8568  40.389  39.874   4.204
46906W        W 8569  37.079  36.869   4.751
46907W        W 8570  38.938  16.245  14.334
46908W        W 8571   4.839  38.055   2.321
46909W        W 8572  29.114  44.008   2.319
46910W        W 8573   7.254   4.776   1.849
46911W        W 8574  11.733  18.233  10.593
46912W        W 8575  42.400  44.274  11.599
46913W        W 8576  16.611   8.870   1.743
46914W        W 8577  25.578  30.422   4.262
46915W        W 8578  10.704  12.632   3.812
46916W        W 8579  34.423  24.605   4.203
46917W        W 8580   9.211  21.664   4.221
46918W        W 8581  14.147  13.314  12.486
46919W        W 8582  13.201   9.662  13.430
46920W        W 8583  10.158  44.385   4.767
46921W        W 8584  23.521  39.059  12.840
46922W        W 8585  16.252  31.480  12.341
46923W        W 8586   7.804  22.242  13.348
46924W        W 8587  35.991   7.698   3.254
46925W        W 8588  38.911  11.648   0.764
46926W        W 8589   2.361  28.446  11.872
46927W        W 8590  24.527  30.545   0.319
46928W        W 8591  32.609  40.019   2.689
46929W        W 8592  13.173   4.943  14.343
46930W        W 8593   7.320  22.667   4.182
46931W        W 8594  29.489  12.139   4.115
46932W        W 8595   5.738   9.668   1.425
46933W        W 8596  38.478  40.862  14.473
46934W        W 8597  32.518  27.686   4.302
46935W        W 8598  36.419  35.432  13.923
46936W        W 8599  15.616   4.720   4.205
46937W        W 8600  37.980  30.096   1.879
46938W        W 8601   1.393  33.886  13.915
46939W        W 8602   0.378  14.787   2.249
46940W        W 8603  37.367  37.857  11.417
46941W        W 8604  35.977   5.839  11.482
46942W        W 8605  41.933  34.865   1.261
46943W        W 8606  33.395   3.823  14.908
46944W        W 8607  15.800  13.679  11.905
46945W        W 8608  38.950   2.888  12.465
46946W        W 8609   4.365   7.879   4.723
46947W        W 8610  28.929  20.073   4.728
46948W        W 8611   7.709  14.234  12.469
46949W        W 8612  31.431  20.715   0.480
46950W        W 8613   7.689  42.025   4.654
46951W        W 8614  40.859  16.654   0.268
46952W        W 8615  32.542  28.178  12.005
46953W        W 8616   9.665  39.985  12.376
46954W        W 8617  29.111  29.092   4.285
46955W        W 8618  36.407  16.762   1.711
46956W        W 8619  17.716   0.895  10.890
46957W        W 8620   0.272  18.269  13.815
46958W        W 8621  44.348  26.131  13.531
46959W        W 8622  33.619  11.131  10.403
46960W        W 8623  30.548  27.970   1.698
46961W        W 8624  25.040  19.163   4.621
46962W        W 8625  31.933  21.701   3.782
46963W        W 8626  10.701  42.399  10.433
46964W        W 8627  11.198  36.480   4.336
46965W        W 8628  15.777  26.161  13.514
46966W        W 8629  29.531  27.997   2.900
46967W        W 8630  35.435   1.939  12.567
46968W        W 8631  33.448  11.205   2.396
46969W        W 8632   9.860  17.744   1.844
46970W        W 8633  34.954   7.294  11.037
46971W        W 8634  42.991  17.278   5.282
46972W        W 8635  11.314  18.789  13.346
46973W        W 8636   8.858  40.989  14.515
46974W        W 8637   3.877   8.267  12.426
46975W        W 8638  27.947  15.669  14.844
46976W        W 8639  23.513  10.144   3.340
46977W        W 8640  29.548   2.928   3.255
46978W        W 8641  17.709  44.790   1.210
46979W        W 8642  20.581  10.305   3.154
46980W        W 8643   7.725  29.467  11.866
46981W        W 8644   5.365  14.181  12.545
46982W        W 8645  35.509   8.850   5.111
46983W        W 8646   6.188  14.783   2.802
46984W        W 8647   6.809  21.731   4.749
46985W        W 8648   6.421  19.058  10.938
46986W        W 8649  39.861   1.352  13.412
46987W        W 8650  10.746  21.651  13.027
46988W        W 8651  23.047   5.874  13.846
46989W        W 8652  33.610   0.327  14.372
46990W        W 8653  19.667  18.206   1.870
46991W        W 8654  11.709  42.855   3.699
46992W        W 8655   0.300   8.878  14.482
46993W        W 8656  34.954   3.838  11.468
46994W        W 8657  35.085   0.905   2.734
46995W        W 8658  30.027   4.867  11.957
46996W        W 8659   2.289  19.257  13.896
46997W        W 8660   5.778  28.574  13.915
46998W        W 8661  23.116   9.870  10.430
46999W        W 8662  29.938  20.115   4.783
47000W        W 8663  19.757  16.716  13.405
47001W        W 8664  44.989  39.521   1.757
47002W        W 8665  34.425   8.369  14.490
47003W        W 8666  27.951  37.368   2.862
47004W        W 8667  24.563  27.193   5.637
47005W        W 8668  11.766  35.871  13.809
47006W        W 8669   3.370  33.881  10.629
47007W        W 8670  17.074  39.560   1.901
47008W        W 8671  27.592  24.536  14.796
47009W        W 8672  20.535   4.722   2.729
47010W        W 8673   5.420   2.275   4.184
47011W        W 8674  35.018  36.418   1.350
47012W        W 8675  22.201  35.881   0.962
47013W        W 8676  32.993  19.101   4.132
47014W        W 8677  44.881  11.255  14.769
47015W        W 8678  13.311  21.710  13.063
47016W        W 8679  26.529  28.553   0.943
47017W        W 8680  13.668  16.098  14.918
47018W        W 8681  19.157   5.756  13.924
47019W        W 8682   5.721  24.217   1.743
47020W        W 8683  39.436  41.026  10.641
47021W        W 8684  43.810  27.089   0.259
47022W        W 8685  42.912  22.149  12.909
47023W        W 8686  29.144  35.068   0.837
47024W        W 8687   1.944   8.379   4.353
47025W        W 8688   2.282  10.254   4.707
47026W        W 8689  41.026  28.615  12.007
47027W        W 8690  40.917  43.940   2.759
47028W        W 8691  28.601   2.238  10.897
47029W        W 8692  16.760  33.059  13.841
47030W        W 8693  32.588  17.283   1.306
47031W        W 8694  35.423  18.263  14.837
47032W        W 8695  22.675   0.278  13.529
47033W        W 8696  38.565  11.210   0.448
47034W        W 8697  14.135  37.573  14.777
47035W        W 8698   6.748  36.399  14.499
47036W        W 8699  17.623   2.252  10.553
47037W        W 8700  39.359  44.983   4.341
47038W        W 8701  35.091  25.589   4.322
47039W        W 8702  34.526  39.495  11.548
47040W        W 8703  18.263   5.273  12.893
47041W        W 8704  17.708   0.462  13.431
47042W        W 8705  23.605  13.199   4.225
47043W        W 8706  13.703   2.291  14.822
47044W        W 8707  10.784  43.902   3.684
47045W        W 8708   6.385   0.340   1.935
47046W        W 8709  32.071  27.048  12.938
47047W        W 8710  26.097   7.910  10.497
47048W        W 8711  12.299  39.811  14.335
47049W        W 8712  37.964  36.351  13.861
47050W        W 8713  36.539   3.453  11.074
47051W        W 8714  31.908  41.377   4.129
47052W        W 8715   3.934  19.049  10.923
47053W        W 8716   7.722  42.868  13.458
47054W        W 8717  43.290  19.213   1.726
47055W        W 8718  19.174   5.692   0.250
47056W        W 8719  12.127  33.993  13.396
47057W        W 8720  38.393  20.707   1.712
47058W        W 8721  30.105  21.030  14.876
47059W        W 8722  19.589  22.690  14.791
47060W        W 8723  22.574  39.031   3.705
47061W        W 8724  26.062  32.600  12.832
47062W        W 8725   6.729  13.842   4.670
47063W        W 8726  30.152  35.938   0.938
47064W        W 8727  31.611   5.317  11.925
47065W        W 8728  27.981  36.908  13.420
47066W        W 8729  38.509  22.179  12.552
47067W        W 8730  18.735  23.542  10.954
47068W        W 8731  17.201  30.599   0.320
47069W        W 8732   7.853  20.128   4.805
47070W        W 8733  32.946  38.906   2.344
47071W        W 8734  16.113   9.274  10.929
47072W        W 8735   9.262  14.209   3.198
47073W        W 8736  15.783   6.428  11.969
47074W        W 8737  13.638  40.853  12.881
47075W        W 8738   0.867   3.785  12.368
47076W        W 8739  14.306   6.272   0.867
47077W        W 8740  22.515  13.708   3.291
47078W        W 8741  21.072  26.027   4.722
47079W        W 8742   3.289  16.804  11.068
47080W        W 8743  43.980  19.583   0.287
47081W        W 8744  37.437  15.208   2.400
47082W        W 8745  42.946   1.845   1.295
47083W        W 8746  26.951  33.043  14.015
47084W        W 8747  32.938   7.172   3.823
47085W        W 8748  33.546  18.550   0.345
47086W        W 8749  29.102   2.432  14.390
47087W        W 8750   4.393  34.459   4.642
47088W        W 8751  43.879  25.627  10.924
47089W        W 8752  28.975   5.396   4.162
47090W        W 8753   1.850  18.093   1.402
47091W        W 8754  28.039   0.355   4.727
47092W        W 8755  10.270  30.560   4.268
47093W        W 8756   1.766  36.368   2.804
47094W        W 8757  27.165  28.130  14.964
47095W        W 8758  16.274  14.808   0.834
47096W        W 8759   2.393   7.387   1.327
47097W        W 8760  25.547   7.332  14.822
47098W        W 8761  22.576  34.375  14.881
47099W        W 8762  22.083  25.662  11.599
47100W        W 8763  30.444  10.373  13.526
47101W        W 8764  35.918  16.220  11.432
47102W        W 8765  13.678  27.675   3.816
47103W        W 8766  39.024  23.650  11.505
47104W        W 8767   8.381   4.773  13.013
47105W        W 8768   6.901  21.254  11.489
47106W        W 8769  19.096  30.996  13.060
47107W        W 8770  24.666  10.804  13.968
47108W        W 8771  43.835  17.800   0.267
47109W        W 8772  29.475  24.193   0.448
47110W        W 8773   3.374  31.421   2.412
47111W        W 8774  30.535  33.606  10.597
47112W        W 8775  33.625  10.680   2.887
47113W        W 8776  26.563  13.219   2.417
47114W        W 8777   7.912  26.465  13.319
47115W        W 8778   4.431  20.709  14.389
47116W        W 8779  30.086  24.661   2.262
47117W        W 8780  15.803  16.707   3.309
47118W        W 8781  17.235   6.855   2.188
47119W        W 8782   0.356  11.232   2.857
47120W        W 8783  44.925  20.613   0.243
47121W        W 8784  28.536  20.742  13.921
47122W        W 8785  10.263  42.790   1.839
47123W        W 8786  31.482   8.845  11.536
47124W        W 8787  32.054  24.097  14.905
47125W        W 8788   4.417   3.252   2.278
47126W        W 8789  43.446  34.584  12.929
47127W        W 8790  26.674  42.306   3.816
47128W        W 8791  17.086  27.543   4.666
47129W        W 8792  10.782   3.841  13.059
47130W        W 8793  28.161   6.235   0.934
47131W        W 8794  21.730  18.624  12.948
47132W        W 8795  12.260  37.062  12.989
47133W        W 8796  20.649  27.076   3.705
47134W        W 8797  36.971  10.732   4.180
47135W        W 8798  13.295   9.338   0.930
47136W        W 8799  27.987   7.698   0.746
47137W        W 8800  41.345  17.073  11.086
47138W        W 8801  28.959   2.427  12.460
47139W        W 8802  40.976   7.317  10.614
47140W        W 8803  25.560  13.818  14.326
47141W        W 8804  26.093  25.188  13.503
47142W        W 8805   7.295  16.125   4.217
47143W        W 8806  23.985  34.929   0.354
47144W        W 8807  15.650  23.513  13.903
47145W        W 8808   3.937   8.196   0.395
47146W        W 8809   1.441  37.534  12.044
47147W        W 8810  30.126  10.262   3.780
47148W        W 8811  38.432  33.513   0.782
47149W        W 8812  44.279  15.182   3.708
47150W        W 8813  34.401  12.343  11.443
47151W        W 8814   6.341  29.051  10.480
47152W        W 8815  38.327   9.745  12.940
47153W        W 8816  37.384  23.495   2.892
47154W        W 8817   2.723  43.448  11.084
47155W        W 8818  25.647  22.596  13.490
47156W        W 8819  15.631  14.822  12.926
47157W        W 8820  40.887  11.220   4.654
47158W        W 8821  15.814   5.749   2.374
47159W        W 8822  21.259  21.570  13.325
47160W        W 8823  38.920   6.410  12.370
47161W        W 8824  29.605  25.169   1.748
47162W        W 8825  11.652  13.202   2.676
47163W        W 8826  28.519  35.470  13.880
47164W        W 8827  33.902  10.729  12.564
47165W        W 8828  40.924  23.563  12.878
47166W        W 8829  30.144  42.836  11.417
47167W        W 8830  43.423  29.042   3.247
47168W        W 8831   4.826  23.099   4.689
47169W        W 8832  30.652  26.035   2.853
47170W        W 8833  33.874   3.765   2.665
47171W        W 8834  43.473   3.424  14.830
47172W        W 8835  14.622  13.729  11.585
47173W        W 8836   2.827  22.040  13.457
47174W        W 8837  37.048  12.207   0.840
47175W        W 8838  41.353   6.699  14.018
47176W        W 8839  22.655  34.878   3.673
47177W        W 8840  15.202   6.373   1.768
47178W        W 8841   2.878  22.223  11.075
47179W        W 8842  18.199   2.779   0.434
47180W        W 8843  17.218  33.916  13.024
47181W        W 8844  15.127  33.880   2.222
47182W        W 8845  37.533  21.625   3.268
47183W        W 8846  40.306  23.635   4.291
47184W        W 8847   9.258  28.024  13.840
47185W        W 8848  18.777  14.797   0.460
47186W        W 8849  24.494   0.316   1.283
47187W        W 8850   1.884  13.209   3.830
47188W        W 8851  25.714  21.017  10.894
47189W        W 8852  35.996  29.931   4.144
47190W        W 8853  36.478  29.932   2.214
47191W        W 8854  10.149  34.100   1.859
47192W        W 8855  37.521  25.508   0.268
47193W        W 8856   3.907   3.381   3.382
47194W        W 8857   7.220  24.625   0.777
47195W        W 8858  21.622  28.067  12.070
47196W        W 8859   4.805   9.320  10.449
47197W        W 8860   6.308  39.943  11.536
47198W        W 8861  15.137  24.219   2.869
47199W        W 8862  23.664   8.347  14.900
47200W        W 8863  34.035  43.946  10.576
47201W        W 8864  35.970   2.265   4.330
47202W        W 8865  11.724  16.654   3.829
47203W        W 8866  18.184  36.054  11.954
47204W        W 8867  40.382  19.646   4.745
47205W        W 8868  44.381  15.726   1.256
47206W        W 8869   5.802  12.727  13.011
47207W        W 8870   5.231  22.202  11.857
47208W        W 8871  44.435  39.941   1.888
47209W        W 8872  34.531  31.134   3.184
47210W        W 8873  33.455  32.121   4.165
47211W        W 8874   5.818  34.430  14.841
47212W        W 8875  10.192  26.497   1.287
47213W        W 8876   7.190  12.633   3.172
47214W        W 8877  29.561  21.721   0.740
47215W        W 8878  18.591  15.672  10.918
47216W        W 8879  13.796  27.946   3.249
47217W        W 8880  28.656  27.472   3.367
47218W        W 8881  21.745  16.172   9.495
47219W        W 8882  30.415  21.187  10.634
47220W        W 8883  17.637  14.101  13.940
47221W        W 8884  38.958   3.372   2.223
47222W        W 8885   6.713   8.812   0.479
47223W        W 8886  21.616   0.478   2.800
47224W        W 8887  19.039  36.903  13.856
47225W        W 8888  28.624  32.986  14.437
47226W        W 8889  16.683  42.918  12.937
47227W        W 8890  37.388  31.041  10.637
47228W        W 8891  35.903   9.680   1.752
47229W        W 8892  22.198  18.680   3.633
47230W        W 8893   9.738  39.396   4.218
47231W        W 8894  27.090  10.658   1.435
47232W        W 8895  10.640  40.403   0.283
47233W        W 8896  32.092   0.425   4.617
47234W        W 8897   9.815  33.012  11.540
47235W        W 8898  16.574  44.993   3.657
47236W        W 8899  37.959  26.045   2.709
47237W        W 8900  34.941  35.451   2.689
47238W        W 8901  17.158   1.808  12.980
47239W        W 8902  15.660  20.656   1.420
47240W        W 8903  41.887  23.639  10.905
47241W        W 8904   8.320  42.419  13.338
47242W        W 8905  42.804  29.496  10.936
47243W        W 8906   7.673  33.923   3.670
47244W        W 8907   6.727  43.974  12.905
47245W        W 8908  43.834   8.660  14.985
47246W        W 8909  18.665   7.268  14.862
47247W        W 8910  35.919   5.204   0.266
47248W        W 8911  44.856  39.429  14.790
47249W        W 8912  19.577   5.706   3.339
47250W        W 8913   1.973  15.109  13.548
47251W        W 8914  30.547  16.708  14.981
47252W        W 8915  43.909   1.248  12.420
47253W        W 8916  27.955   1.769   2.230
47254W        W 8917   9.191  36.035   3.254
47255W        W 8918  34.983  19.676  12.001
47256W        W 8919   3.882  41.998  13.906
47257W        W 8920  22.540  20.667  13.981
47258W        W 8921   6.783  37.369  14.400
47259W        W 8922   6.740  17.621  11.064
47260W        W 8923  38.981  10.373   1.720
47261W        W 8924  40.339  30.047  11.102
47262W        W 8925  18.291  34.924  13.974
47263W        W 8926  20.542   9.158  11.060
47264W        W 8927  27.664  26.520   4.138
47265W        W 8928   9.265   7.731  14.464
47266W        W 8929  11.809  44.259   1.263
47267W        W 8930  40.374  27.188   2.668
47268W        W 8931   9.263   8.227   5.724
47269W        W 8932  18.709  44.363   3.294
47270W        W 8933  27.105   9.360   4.330
47271W        W 8934  16.635  16.570   4.120
47272W        W 8935  14.611  15.689   3.329
47273W        W 8936  38.840  25.158   1.914
47274W        W 8937  34.612  23.997  10.587
47275W        W 8938  20.692  37.933  13.440
47276W        W 8939  19.711  34.100   4.777
47277W        W 8940  21.118  15.146   0.423
47278W        W 8941   0.433  18.124   1.372
47279W        W 8942  44.412  18.649  12.986
47280W        W 8943  35.561   0.924   1.698
47281W        W 8944  20.028   4.394   0.729
47282W        W 8945  29.077  23.677  13.021
47283W        W 8946  19.269  13.107  12.387
47284W        W 8947  40.316  40.014   1.442
47285W        W 8948  32.451  39.540   0.814
47286W        W 8949  27.120  32.591   4.262
47287W        W 8950  40.989  34.592   0.447
47288W        W 8951  10.184   6.353   4.658
47289W        W 8952   5.710  10.239   2.377
47290W        W 8953  28.047  26.055   0.403
47291W        W 8954  33.949  36.538   0.826
47292W        W 8955   6.719  40.328   2.900
47293W        W 8956  23.577  30.492   0.376
47294W        W 8957   7.879  42.879   9.931
47295W        W 8958  40.980  31.034   3.166
47296W        W 8959  37.888  24.597   2.792
47297W        W 8960  40.009  43.952  14.484
47298W        W 8961  18.258  17.297   4.209
47299W        W 8962  19.597   5.715  14.401
47300W        W 8963  19.264   6.202   4.164
47301W        W 8964  22.624  41.311   3.350
47302W        W 8965  25.974  24.155   2.838
47303W        W 8966  38.945  23.581  11.117
47304W        W 8967  27.623   2.932   3.870
47305W        W 8968   3.266  15.104   1.721
47306W        W 8969  38.403  42.985  10.019
47307W        W 8970  34.881  37.022   4.204
47308W        W 8971  25.518  39.514   5.111
47309W        W 8972   0.468  29.048  10.523
47310W        W 8973  21.103  41.956   5.319
47311W        W 8974  29.636  13.664  12.946
47312W        W 8975  15.158  20.029  14.859
47313W        W 8976  26.551  40.478   2.343
47314W        W 8977  19.751  27.614   0.936
47315W        W 8978  38.457   6.783   1.225
47316W        W 8979  35.409  39.403   0.866
47317W        W 8980  13.214  30.936  13.339
47318W        W 8981   3.736   1.893   1.219
47319W        W 8982  32.127   4.909  12.028
47320W        W 8983   2.795  39.889  13.982
47321W        W 8984  23.229  11.231   1.746
47322W        W 8985  11.631   0.250   4.666
47323W        W 8986  20.523  38.988  13.337
47324W        W 8987   7.831   3.785   1.263
47325W        W 8988  10.836  17.136  10.008
47326W        W 8989  19.634  40.822   2.279
47327W        W 8990  38.380   0.458   4.218
47328W        W 8991  37.002  40.404  11.381
47329W        W 8992   7.703  22.189   3.772
47330W        W 8993  22.149  36.953  13.881
47331W        W 8994  14.121  19.249  11.502
47332W        W 8995  22.219  27.457   1.444
47333W        W 8996  10.802   6.329   0.917
47334W        W 8997  11.739  30.487  12.077
47335W        W 8998   6.194   6.915   2.731
47336W        W 8999  21.030   1.463  10.512
47337W        W 9000   9.718  22.010  12.962
47338W        W 9001  10.769   4.246  12.854
47339W        W 9002  39.903  31.100   2.375
47340W        W 9003  11.343  40.805  12.857
47341W        W 9004  12.221  12.816   1.287
47342W        W 9005  27.995  44.431  11.989
47343W        W 9006   1.354  14.189  12.488
47344W        W 9007  12.251  26.015  10.967
47345W        W 9008  44.905  44.276  12.476
47346W        W 9009  27.966   6.910   0.744
47347W        W 9010  14.752  13.651  13.996
47348W        W 9011  38.952  24.081   4.351
47349W        W 9012   3.263   2.359  12.078
47350W        W 9013  30.977  14.632  12.385
47351W        W 9014   4.383  42.979   3.279
47352W        W 9015  27.467  27.983  13.916
47353W        W 9016  39.513  24.042  12.948
47354W        W 9017  12.618  38.057   4.309
47355W        W 9018  24.638  33.002  13.331
47356W        W 9019  22.201  41.025  10.511
47357W        W 9020   7.252   3.745  14.414
47358W        W 9021  14.243  26.606  10.460
47359W        W 9022  41.926  39.845   0.816
47360W        W 9023  34.057  30.042  12.964
47361W        W 9024   8.277  12.292   3.847
47362W        W 9025  43.898  29.045   4.294
47363W        W 9026  20.091  16.588  12.349
47364W        W 9027   5.207  37.869  12.024
47365W        W 9028  23.720  40.501  12.480
47366W        W 9029  10.635  28.578   3.664
47367W        W 9030  13.188  10.851  12.081
47368W        W 9031  12.827   0.926   0.868
47369W        W 9032  30.567  21.028  14.349
47370W        W 9033  24.185  28.955  14.930
47371W        W 9034   7.780  32.130   4.225
47372W        W 9035  43.276   1.809   2.318
47373W        W 9036   2.280  32.018   2.190
47374W        W 9037   5.914  22.541   0.375
47375W        W 9038  40.877   6.760  13.832
47376W        W 9039   6.866  35.396  14.825
47377W        W 9040  32.956  37.463   4.619
47378W        W 9041   0.948   4.772   5.302
47379W        W 9042  43.004  32.431   3.831
47380W        W 9043  40.970  19.131  10.998
47381W        W 9044  16.810  13.214   4.199
47382W        W 9045  18.182  41.388   2.844
47383W        W 9046   9.386  22.576  13.509
47384W        W 9047   0.747  16.157   3.325
47385W        W 9048  31.508  31.522   2.700
47386W        W 9049  21.212  22.204   4.737
47387W        W 9050  17.611  18.235   1.798
47388W        W 9051  43.019  41.360   0.785
47389W        W 9052  16.605  21.200   3.799
47390W        W 9053  10.240  22.538   0.871
47391W        W 9054  12.170  33.072   3.169
47392W        W 9055  33.065   5.747   2.736
47393W        W 9056  12.817   5.207   0.464
47394W        W 9057  29.045  12.801   4.322
47395W        W 9058   2.389   8.279  12.517
47396W        W 9059  10.820  23.122  12.491
47397W        W 9060  10.879  30.987   3.749
47398W        W 9061  37.033  16.168   1.253
47399W        W 9062   9.827   9.303  11.514
47400W        W 9063  39.431  26.564   4.163
47401W        W 9064  13.775  29.662  14.791
47402W        W 9065  18.772  34.432   3.802
47403W        W 9066  25.965  15.598   1.783
47404W        W 9067  30.981  19.270   1.719
47405W        W 9068   4.391  15.178  10.413
47406W        W 9069  40.871  37.354  14.901
47407W        W 9070  31.077  17.184  10.924
47408W        W 9071   0.363  34.037   4.240
47409W        W 9072   2.748   7.266  12.378
47410W        W 9073  29.017   5.812  11.059
47411W        W 9074  12.156  19.066  11.045
47412W        W 9075  22.224  22.054  14.978
47413W        W 9076   8.280   5.343  14.428
47414W        W 9077  21.107   2.356  14.855
47415W        W 9078  15.083  15.754   3.209
47416W        W 9079   3.408  22.076   0.337
47417W        W 9080   8.853  13.272   1.924
47418W        W 9081  42.789  37.901  10.488
47419W        W 9082   3.433  12.619   2.747
47420W        W 9083  25.181  40.045   0.309
47421W        W 9084   7.233   4.272   3.678
47422W        W 9085   4.906  22.667   1.813
47423W        W 9086  44.909  14.197   2.314
47424W        W 9087   3.734  43.882  12.930
47425W        W 9088  14.611  36.490  12.029
47426W        W 9089  12.291  22.222  14.948
47427W        W 9090  28.032  28.138  10.961
47428W        W 9091  37.580  30.007  10.549
47429W        W 9092  44.453  23.072   3.152
47430W        W 9093  32.474  38.456  13.439
47431W        W 9094  35.895   1.733   0.787
47432W        W 9095  21.659  28.544  12.532
47433W        W 9096  44.952  42.857  13.908
47434W        W 9097  12.696  10.323  13.412
47435W        W 9098  17.132  21.142  11.879
47436W        W 9099  21.131  21.737   0.799
47437W        W 9100  28.631  44.823  14.759
47438W        W 9101   1.294  36.578   4.261
47439W        W 9102  32.045  25.040  10.421
47440W        W 9103  42.965  31.999   5.204
47441W        W 9104  10.811  42.861  11.076
47442W        W 9105  18.783  43.909  13.049
47443W        W 9106  32.928  42.394   1.777
47444W        W 9107  31.414  30.995   2.233
47445W        W 9108  19.261  40.455  13.961
47446W        W 9109  10.754  39.844   3.849
47447W        W 9110  28.973  40.377  10.128
47448W        W 9111  19.568  28.929  11.063
47449W        W 9112  27.947   8.190  10.461
47450W        W 9113  21.713  34.977  14.446
47451W        W 9114  20.175  34.934  11.559
47452W        W 9115   5.338   0.862   3.173
47453W        W 9116  29.557  41.392  11.597
47454W        W 9117  24.042  23.623  14.286
47455W        W 9118  39.853   9.665  12.846
47456W        W 9119  32.960  39.881  12.468
47457W        W 9120  23.094  20.550  11.544
47458W        W 9121   9.754  25.995   4.259
47459W        W 9122   1.795  33.045   4.777
47460W        W 9123  33.079   3.383   4.770
47461W        W 9124  22.109  19.755   4.133
47462W        W 9125  19.283  20.075   3.354
47463W        W 9126  33.597  13.748  10.493
47464W        W 9127   1.766  37.569   0.821
47465W        W 9128   0.368  21.715   4.697
47466W        W 9129   9.858  40.384   0.791
47467W        W 9130  18.736  16.716  11.519
47468W        W 9131  26.624  41.817  13.907
47469W        W 9132  24.065  38.044  13.332
47470W        W 9133   1.450  20.612  12.380
47471W        W 9134  28.958  22.669  14.941
47472W        W 9135  12.631  17.179   4.139
47473W        W 9136  32.527  10.165  11.865
47474W        W 9137  27.562   9.683  12.848
47475W        W 9138  37.410  33.086   0.303
47476W        W 9139   7.782  25.659   0.420
47477W        W 9140  10.796  33.469   0.439
47478W        W 9141   9.216  11.753  11.006
47479W        W 9142  10.227   0.272   2.202
47480W        W 9143  26.634   8.785  11.046
47481W        W 9144  37.078  21.697   4.174
47482W        W 9145  12.733  32.482  11.395
47483W        W 9146  37.382  35.946   0.400
47484W        W 9147   0.748   0.884  12.857
47485W        W 9148  22.724  15.635  13.995
47486W        W 9149   3.858  22.541  12.359
47487W        W 9150  33.091  13.192  11.876
47488W        W 9151  36.555  30.032   4.617
47489W        W 9152  21.231  30.451   0.395
47490W        W 9153   9.671  20.677  14.030
47491W        W 9154  43.930  34.103  10.609
47492W        W 9155  18.283  19.683  13.965
47493W        W 9156  39.474  28.584   4.810
47494W        W 9157  35.520  35.872  10.410
47495W        W 9158  16.744  27.478  13.359
47496W        W 9159   8.810  27.556   2.771
47497W        W 9160   3.778   9.324   4.306
47498W        W 9161  17.638  18.697  10.582
47499W        W 9162  41.873  37.994  11.120
47500W        W 9163  28.535  29.549  10.574
47501W        W 9164  40.511  35.388   1.786
47502W        W 9165   7.401  13.683   1.331
47503W        W 9166  19.159  32.111   1.374
47504W        W 9167  28.135  26.172   0.926
47505W        W 9168   6.844  10.140  14.327
47506W        W 9169   7.696  31.094  12.349
47507W        W 9170  15.316  29.162  14.977
47508W        W 9171  32.138  22.512  11.890
47509W        W 9172  12.226  33.528   0.746
47510W        W 9173  10.341  40.857  14.027
47511W        W 9174  10.318  26.580  13.855
47512W        W 9175  18.066  39.540   4.679
47513W        W 9176  37.985  34.888  12.507
47514W        W 9177  17.195  15.247   1.339
47515W        W 9178   8.805   8.670   3.677
47516W        W 9179  43.814  12.848  13.946
47517W        W 9180  14.710  26.075   4.135
47518W        W 9181  38.943  11.713  13.329
47519W        W 9182   3.734  19.261  11.397
47520W        W 9183  30.930   1.853  10.430
47521W        W 9184  39.387  33.590  14.955
47522W        W 9185   1.831  24.154   0.290
47523W        W 9186  36.859   9.820   2.899
47524W        W 9187  43.950  40.920   4.598
47525W        W 9188  16.310  22.658   2.198
47526W        W 9189   3.763  34.472   3.752
47527W        W 9190  10.187   5.304  11.951
47528W        W 9191   9.756  35.407  13.320
47529W        W 9192  22.514  23.665  13.444
47530W        W 9193  44.358  40.953  12.482
47531W        W 9194  30.068  40.837  13.838
47532W        W 9195  18.552  38.946   2.358
47533W        W 9196  42.981  35.100  10.511
47534W        W 9197  28.574  36.363  11.455
47535W        W 9198   8.889  15.822  14.325
47536W        W 9199  37.927  41.844   2.765
47537W        W 9200  37.962   3.231  11.551
47538W        W 9201  33.123  39.867   3.337
47539W        W 9202   1.431  40.045   4.657
47540W        W 9203  13.147   5.362   3.731
47541W        W 9204  16.196  42.314  13.371
47542W        W 9205  30.050  17.199   3.635
47543W        W 9206  27.573  31.915   5.268
47544W        W 9207   7.826  37.892  14.875
47545W        W 9208  21.059   6.877  11.471
47546W        W 9209  20.266  11.282   1.883
47547W        W 9210  36.570  34.894  12.074
47548W        W 9211   7.753  13.659  14.317
47549W        W 9212  16.109  20.140  12.998
47550W        W 9213  29.167  16.790  14.410
47551W        W 9214   3.763  29.162  10.497
47552W        W 9215  33.604   5.210  14.467
47553W        W 9216  20.635   9.293   2.694
47554W        W 9217   3.256  13.227   3.160
47555W        W 9218   4.701   2.265   1.888
47556W        W 9219  36.399  36.939   3.731
47557W        W 9220   8.718  27.642  10.527
47558W        W 9221  38.849   4.716  14.346
47559W        W 9222  16.252  14.788  12.026
47560W        W 9223  38.345   2.907  13.498
47561W        W 9224  18.259  38.539   1.259
47562W        W 9225  43.902   9.845  13.999
47563W        W 9226  44.873  44.351  11.376
47564W        W 9227  15.763  21.164  11.944
47565W        W 9228  34.109  34.464  12.850
47566W        W 9229  31.646  43.818  12.475
47567W        W 9230  25.219  14.746  12.940
47568W        W 9231   0.356  40.808  12.916
47569W        W 9232  34.950  32.455   3.386
47570W        W 9233  43.920  29.438  13.357
47571W        W 9234  34.502  22.209   0.282
47572W        W 9235  24.621  36.982  14.773
47573W        W 9236  39.817  27.106   3.770
47574W        W 9237  22.649  11.324   1.906
47575W        W 9238   7.825  34.405  14.821
47576W        W 9239   0.934  14.201  14.030
47577W        W 9240  20.160  18.251   0.442
47578W        W 9241  31.104   0.875  11.574
47579W        W 9242  32.114  14.791   0.424
47580W        W 9243   7.719   6.807  11.054
47581W        W 9244   2.363  39.843   2.768
47582W        W 9245  44.988  16.149   4.245
47583W        W 9246   7.212  33.390   0.830
47584W        W 9247  37.504  29.980   0.459
47585W        W 9248  27.450  12.355  11.550
47586W        W 9249  18.600  40.043  10.447
47587W        W 9250  18.227  18.643   4.774
47588W        W 9251   6.337  13.117  13.850
47589W        W 9252  42.444   5.373   2.339
47590W        W 9253   6.681  30.093  14.494
47591W        W 9254  22.102  20.623  12.982
47592W        W 9255  18.630  40.460  10.941
47593W        W 9256  26.515  16.702  11.041
47594W        W 9257   2.961  24.713  10.563
47595W        W 9258  17.201  23.655  13.845
47596W        W 9259  24.000  20.611  13.521
47597W        W 9260   5.234  16.739  14.382
47598W        W 9261  20.203   3.872   1.804
47599W        W 9262  28.148   4.890  11.985
47600W        W 9263  38.535   0.424   1.866
47601W        W 9264  32.561  44.455  10.099
47602W        W 9265   3.863  34.463   4.703
47603W        W 9266   5.325   3.872  13.397
47604W        W 9267  44.901   5.355   0.849
47605W        W 9268  32.114   8.173  14.821
47606W        W 9269   9.846   1.330   3.316
47607W        W 9270  40.997   2.837   3.349
47608W        W 9271  31.977  35.934   4.177
47609W        W 9272  15.647  26.193   2.824
47610W        W 9273   8.287  22.180  11.550
47611W        W 9274  34.070  37.868  14.454
47612W        W 9275   5.326  26.560  13.336
47613W        W 9276  38.349  33.882   0.270
47614W        W 9277  31.531  10.330  13.929
47615W        W 9278  38.859   8.684   3.774
47616W        W 9279   6.280  39.818   2.899
47617W        W 9280   2.235  27.562  13.029
47618W        W 9281   4.818  39.843   4.740
47619W        W 9282   1.443  39.817  11.127
47620W        W 9283  19.676  41.816   3.682
47621W        W 9284  28.056  33.045   3.655
47622W        W 9285  25.014  23.991   5.178
47623W        W 9286   9.765  37.501  11.577
47624W        W 9287  20.592  13.820   2.278
47625W        W 9288   6.424  41.494  12.921
47626W        W 9289  43.850  38.894   0.242
47627W        W 9290  15.823  22.089   1.759
47628W        W 9291   1.945  19.216  13.337
47629W        W 9292  34.532  15.672   1.268
47630W        W 9293  17.230  42.890  11.039
47631W        W 9294  36.965  16.724  13.452
47632W        W 9295  36.026   8.728   2.830
47633W        W 9296  33.130  34.452   1.859
47634W        W 9297  29.986   1.375  12.071
47635W        W 9298  17.585  32.552  13.417
47636W        W 9299  36.850   3.804  13.033
47637W        W 9300  25.627  19.752  13.440
47638W        W 9301  42.468   5.808  11.486
47639W        W 9302  40.011   1.775   4.680
47640W        W 9303  25.682  18.755   0.907
47641W        W 9304  30.420  36.974  11.037
47642W        W 9305  42.834   9.763   3.335
47643W        W 9306   4.855  22.044  13.800
47644W        W 9307  11.806  38.953   3.671
47645W        W 9308  25.052   7.171   1.821
47646W        W 9309  21.191  44.819   3.382
47647W        W 9310  28.073  16.806  12.959
47648W        W 9311  32.505  38.478   1.780
47649W        W 9312  18.143   3.329  14.853
47650W        W 9313  11.723  40.823   3.839
47651W        W 9314   6.716  14.203  12.414
47652W        W 9315   1.863  26.473   3.274
47653W        W 9316  31.513  39.019   2.206
47654W        W 9317   6.329   9.236   1.867
47655W        W 9318  43.979   8.809   0.735
47656W        W 9319   7.876  24.725   0.351
47657W        W 9320  11.643  10.310  12.388
47658W        W 9321  11.322  26.967  11.931
47659W        W 9322  43.896  12.151  13.461
47660W        W 9323  21.196  14.816  11.452
47661W        W 9324   4.396  31.949  13.355
47662W        W 9325  10.247  18.161   3.282
47663W        W 9326  28.024  17.725   3.868
47664W        W 9327  40.990  28.551   1.345
47665W        W 9328  16.575  36.486  12.053
47666W        W 9329  34.503  39.372   0.394
47667W        W 9330  21.609   7.898  13.897
47668W        W 9331  35.948  16.282   2.415
47669W        W 9332  39.348  38.842   0.822
47670W        W 9333  18.725  17.589   0.877
47671W        W 9334  40.322   0.835   2.281
47672W        W 9335  44.763  33.534   2.888
47673W        W 9336   2.376  41.494   4.749
47674W        W 9337  27.579  11.858  14.364
47675W        W 9338   4.363  23.551   4.801
47676W        W 9339  18.663  22.642   5.314
47677W        W 9340  38.972  15.763   1.394
47678W        W 9341  30.514   0.829  10.950
47679W        W 9342  17.638  13.620   4.620
47680W        W 9343  42.972  19.171  13.511
47681W        W 9344  15.188   4.255   1.370
47682W        W 9345  16.276  13.742   0.842
47683W        W 9346  11.706  32.631  13.005
47684W        W 9347  28.063  20.640   3.277
47685W        W 9348  25.602   0.976   4.608
47686W        W 9349   5.357   5.820  11.506
47687W        W 9350  33.566  39.026   2.203
47688W        W 9351   7.734   5.746  13.423
47689W        W 9352  34.435  44.934   2.417
47690W        W 9353  30.123  34.916   0.440
47691W        W 9354  32.020  30.658   3.373
47692W        W 9355  21.670  11.780  14.978
47693W        W 9356   4.253  24.678   0.772
47694W        W 9357  41.944  32.051   0.462
47695W        W 9358   1.319   0.414  13.532
47696W        W 9359  31.639  44.448   2.285
47697W        W 9360  28.156  19.635   2.791
47698W        W 9361   6.269  22.190  12.876
47699W        W 9362  18.218  25.010   1.867
47700W        W 9363   4.754  32.892  10.043
47701W        W 9364   5.748  31.478  12.451
47702W        W 9365  37.409  14.785  11.033
47703W        W 9366  10.198  10.802   5.090
47704W        W 9367  24.634  15.203   3.340
47705W        W 9368  36.032   5.376  12.466
47706W        W 9369  25.710   0.925   2.418
47707W        W 9370  38.930  36.976   2.312
47708W        W 9371  26.656   1.804   3.201
47709W        W 9372   6.204  17.181  10.608
47710W        W 9373   7.362   6.284   1.232
47711W        W 9374  14.756  44.763   1.226
47712W        W 9375  30.967  41.533   1.309
47713W        W 9376  30.113   9.190   1.853
47714W        W 9377   8.291  13.811   1.892
47715W        W 9378  35.511  39.350   3.355
47716W        W 9379  26.536  43.928   4.632
47717W        W 9380  36.406  24.124   4.636
47718W        W 9381   3.312  39.442   3.165
47719W        W 9382  28.577   1.356   2.414
47720W        W 9383   6.855  41.032  12.349
47721W        W 9384  42.920  30.159  14.781
47722W        W 9385  17.765  10.777  12.837
47723W        W 9386  30.437  21.519   5.209
47724W        W 9387  42.327  39.369  12.539
47725W        W 9388  13.679   3.453   1.280
47726W        W 9389  30.623  29.097  11.566
47727W        W 9390   7.780  10.247  14.473
47728W        W 9391  10.195  21.099   3.783
47729W        W 9392  26.203   4.214  12.015
47730W        W 9393  44.439  39.928   4.640
47731W        W 9394  16.799   7.765   0.890
47732W        W 9395  36.473  25.059   3.197
47733W        W 9396  30.129  29.147   0.789
47734W        W 9397  38.474  42.349   4.753
47735W        W 9398  32.012   7.215   3.737
47736W        W 9399  38.043  13.630  10.556
47737W        W 9400  24.529  23.522   1.424
47738W        W 9401  17.259  34.401  12.959
47739W        W 9402  19.116  26.998   3.846
47740W        W 9403  19.582   7.412   4.831
47741W        W 9404  25.533  44.447  11.875
47742W        W 9405   2.241  21.030   3.163
47743W        W 9406  31.008  29.483   1.818
47744W        W 9407   1.876  17.211  12.515
47745W        W 9408   4.873   4.842   0.441
47746W        W 9409  17.785  16.130   3.196
47747W        W 9410  44.840  38.069  13.442
47748W        W 9411  23.546  27.046   1.726
47749W        W 9412  37.477  41.456   0.479
47750W        W 9413   4.359  29.467  14.851
47751W        W 9414  20.130  32.497   2.216
47752W        W 9415  29.660  38.000  14.398
47753W        W 9416  13.332   7.749  14.937
47754W        W 9417   8.806  43.969   3.671
47755W        W 9418  40.969  34.919   1.742
47756W        W 9419   1.814  18.054   2.409
47757W        W 9420  35.058  24.002   4.292
47758W        W 9421  31.920  42.357   0.402
47759W        W 9422  16.093  18.121  14.357
47760W        W 9423  29.578  23.492   2.230
47761W        W 9424  23.583  18.599  11.610
47762W        W 9425  15.252  27.546   3.710
47763W        W 9426  10.335  26.035   0.295
47764W        W 9427  19.131  20.596  11.507
47765W        W 9428  30.478  40.002   4.738
47766W        W 9429  13.639  27.116  10.452
47767W        W 9430  43.452  43.409  14.947
47768W        W 9431  10.780  40.833  10.928
47769W        W 9432  37.935   5.193  12.981
47770W        W 9433   0.868  21.193  13.998
47771W        W 9434  19.109  24.125  10.951
47772W        W 9435  29.088  26.577  10.963
47773W        W 9436  41.916  35.406   2.253
47774W        W 9437   4.826  22.124   2.199
47775W        W 9438  38.480  26.033  13.035
47776W        W 9439   7.749  43.463   3.279
47777W        W 9440   2.920  43.904   4.760
47778W        W 9441   2.948  17.572  10.947
47779W        W 9442  32.006  23.006  11.992
47780W        W 9443  14.096   0.479  11.441
47781W        W 9444  31.531  40.803  11.391
47782W        W 9445   8.243  21.038  14.314
47783W        W 9446   0.747  14.829  14.418
47784W        W 9447  35.571  19.220  12.357
47785W        W 9448  16.670  20.527  11.006
47786W        W 9449  25.044  42.923  13.913
47787W        W 9450  34.882  15.618   2.789
47788W        W 9451  17.261  26.626  13.031
47789W        W 9452  32.938   4.250   0.278
47790W        W 9453  44.413  29.099   2.869
47791W        W 9454  26.005  21.743  12.382
47792W        W 9455  33.424  17.203  12.826
47793W        W 9456  10.768  33.059  12.046
47794W        W 9457   7.893  36.926   4.141
47795W        W 9458  34.878   7.832   5.225
47796W        W 9459  10.280  26.019   2.286
47797W        W 9460  43.935  15.128   1.279
47798W        W 9461  39.382  12.215   4.727
47799W        W 9462  20.745  33.919   0.312
47800W        W 9463   6.374   8.249  14.936
47801W        W 9464  42.325  22.693   4.742
47802W        W 9465   9.700  17.562   4.273
47803W        W 9466  21.702  14.698   5.614
47804W        W 9467  33.975  35.894  13.458
47805W        W 9468   3.345  30.531   0.453
47806W        W 9469  43.998  26.970   1.321
47807W        W 9470  23.009   7.894   2.672
47808W        W 9471  27.583  10.774   3.710
47809W        W 9472   3.373   8.377  11.595
47810W        W 9473   7.257  37.991  10.609
47811W        W 9474  22.560  28.614  11.855
47812W        W 9475   5.744   6.915   1.847
47813W        W 9476  16.788  32.978  11.025
47814W        W 9477  16.187  12.678   0.778
47815W        W 9478  22.233   1.923  14.795
47816W        W 9479  42.349  40.549   3.815
47817W        W 9480  19.721  16.670   4.806
47818W        W 9481  11.253  21.135   2.377
47819W        W 9482  37.444  22.593   5.227
47820W        W 9483   9.306  39.826   0.427
47821W        W 9484  18.102  35.916   3.820
47822W        W 9485  21.639  11.814   1.259
47823W        W 9486  17.608  38.508  11.969
47824W        W 9487  40.474  16.160  12.504
47825W        W 9488  14.230   1.947  11.106
47826W        W 9489   1.822  11.702  14.447
47827W        W 9490  35.543  39.934   2.188
47828W        W 9491  24.228   6.838   1.779
47829W        W 9492  19.714  30.038   2.870
47830W        W 9493   1.319   7.675  10.889
47831W        W 9494  10.707  25.563   4.221
47832W        W 9495   4.275  31.527   3.180
47833W        W 9496  37.554   9.266   2.359
47834W        W 9497  11.182  15.802   3.286
47835W        W 9498  40.878  31.516   0.333
47836W        W 9499  44.976   4.270  11.539
47837W        W 9500  10.147   4.723  11.429
47838W        W 9501  29.962   5.369  10.989
47839W        W 9502  23.714  21.694  13.481
47840W        W 9503  26.054  44.978  12.967
47841W        W 9504  12.634  14.689  14.814
47842W        W 9505  17.591  40.332   2.693
47843W        W 9506  12.843  35.401  10.540
47844W        W 9507  26.189  21.111   3.855
47845W        W 9508  34.611  30.601  14.471
47846W        W 9509  39.872   9.178   1.321
47847W        W 9510  21.119  41.492  14.308
47848W        W 9511  18.052   6.905   4.195
47849W        W 9512  43.373  22.243  13.844
47850W        W 9513  32.475  36.855   1.861
47851W        W 9514  20.100   3.885  14.899
47852W        W 9515  12.758  35.900  13.462
47853W        W 9516  19.755  10.634  14.330
47854W        W 9517  25.679   8.270   0.877
47855W        W 9518  40.044   8.823   3.724
47856W        W 9519  43.374  36.547  12.096
47857W        W 9520  13.716  24.565   2.762
47858W        W 9521  29.048  44.439  11.497
47859W        W 9522  15.678  24.007  10.408
47860W        W 9523  38.539  40.871  12.998
47861W        W 9524  21.685  29.619   3.788
47862W        W 9525   6.841  42.503   4.746
47863W        W 9526   6.839  12.690  12.979
47864W        W 9527  12.176  35.096   1.275
47865W        W 9528   8.751   2.362   1.399
47866W        W 9529   6.767  10.166  12.347
47867W        W 9530  15.178   9.278   1.748
47868W        W 9531  43.390  29.454   0.745
47869W        W 9532  32.010   0.945  11.964
47870W        W 9533   6.372  37.492  12.447
47871W        W 9534  15.156  13.609   0.421
47872W        W 9535   6.801  20.109   1.346
47873W        W 9536  15.194  26.574  14.793
47874W        W 9537  15.579   5.413  11.886
47875W        W 9538  11.687  11.316  14.864
47876W        W 9539  43.877  27.568   3.231
47877W        W 9540  36.504  14.161   2.320
47878W        W 9541  27.145  33.088   1.870
47879W        W 9542  40.416   2.800  14.310
47880W        W 9543  27.467  28.550  14.955
47881W        W 9544  20.592  21.612  12.491
47882W        W 9545  27.066  40.992  12.510
47883W        W 9546  30.502  19.136   4.779
47884W        W 9547  43.373  26.141   0.264
47885W        W 9548  12.122  28.942   1.239
47886W        W 9549  23.127  41.466   2.839
47887W        W 9550   2.723  34.435   0.820
47888W        W 9551  14.658  14.117   5.208
47889W        W 9552  33.975  35.069   9.977
47890W        W 9553  41.472  41.879   1.913
47891W        W 9554  16.251  44.405  13.329
47892W        W 9555  25.487  23.072  11.927
47893W        W 9556  42.293  10.149   0.366
47894W        W 9557   4.869  32.424  13.426
47895W        W 9558  35.896  38.500   0.272
47896W        W 9559  17.084  38.462   4.674
47897W        W 9560  14.232  37.906   1.330
47898W        W 9561  11.201  39.851   1.272
47899W        W 9562   1.735  36.870   0.418
47900W        W 9563  25.714  35.373   4.769
47901W        W 9564  15.666  22.598   5.224
47902W        W 9565  32.468  10.311   1.828
47903W        W 9566  31.975   7.738  12.095
47904W        W 9567  34.911  31.643  13.861
47905W        W 9568  36.081  25.089   2.286
47906W        W 9569  12.341  32.493  13.892
47907W        W 9570  26.981  11.325   4.234
47908W        W 9571  39.017  44.440  14.991
47909W        W 9572  19.141  15.754  13.021
47910W        W 9573  15.650  37.430  14.782
47911W        W 9574  44.431  37.964   2.716
47912W        W 9575  19.041  31.505   4.826
47913W        W 9576  42.777   7.762   0.961
47914W        W 9577  25.686  39.037   2.802
47915W        W 9578  37.084  10.193  10.476
47916W        W 9579  11.267  26.651  12.355
47917W        W 9580  37.417  36.908   1.251
47918W        W 9581   5.208   8.695   4.330
47919W        W 9582  17.207  12.289   3.785
47920W        W 9583  15.757   3.723  11.899
47921W        W 9584  16.721   8.403  10.478
47922W        W 9585   8.673   1.364   0.963
47923W        W 9586  24.594  40.926  11.920
47924W        W 9587  14.322  16.580   4.275
47925W        W 9588  30.963   0.780  14.966
47926W        W 9589  38.054  26.501   3.671
47927W        W 9590  29.605   2.891   4.318
47928W        W 9591  34.957  10.195  12.359
47929W        W 9592   4.781  15.193   4.731
47930W        W 9593  11.172  23.187  10.574
47931W        W 9594   7.749  29.478  14.849
47932W        W 9595  44.287  11.686   1.918
47933W        W 9596   6.285  12.744  10.495
47934W        W 9597  10.817   8.708   0.736
47935W        W 9598  29.135  27.620   4.131
47936W        W 9599  41.343  23.160  14.844
47937W        W 9600  31.143   8.197  11.420
47938W        W 9601   3.268  37.079   2.765
47939W        W 9602   9.646  41.350  14.848
47940W        W 9603  15.239  29.094  13.405
47941W        W 9604   3.810  25.528   0.955
47942W        W 9605   9.743  20.187   0.286
47943W        W 9606  40.992   4.240   1.345
47944W        W 9607  30.563  39.482   0.317
47945W        W 9608  40.891  44.818  11.111
47946W        W 9609  20.050  34.044  12.506
47947W        W 9610  34.605  26.062  14.979
47948W        W 9611  11.361  35.380  14.465
47949W        W 9612  38.966  30.124   1.439
47950W        W 9613   2.785   5.282  11.036
47951W        W 9614  38.063  40.960   0.888
47952W        W 9615   6.786  36.478  13.495
47953W        W 9616  38.910   2.379   4.741
47954W        W 9617  39.416  28.633   4.259
47955W        W 9618  29.011  29.652  14.406
47956W        W 9619   1.760  17.655  13.905
47957W        W 9620  15.222  18.752  12.421
47958W        W 9621  42.300  21.091  14.317
47959W        W 9622  13.107  36.903   1.771
47960W        W 9623  25.595  22.163  12.532
47961W        W 9624  44.763   5.786  13.995
47962W        W 9625  41.922  14.289  12.886
47963W        W 9626  21.106   3.941   2.269
47964W        W 9627   5.295  25.680   1.330
47965W        W 9628   3.935   8.219  14.773
47966W        W 9629  20.174  44.948  14.997
47967W        W 9630   2.766   0.834   1.224
47968W        W 9631  29.075  29.166   0.407
47969W        W 9632  18.053  43.487   3.207
47970W        W 9633  27.949  20.267  14.761
47971W        W 9634   5.210  29.946  10.993
47972W        W 9635   9.658  13.680   0.415
47973W        W 9636  23.510  34.403   0.739
47974W        W 9637   5.226  24.624  14.382
47975W        W 9638   9.271  30.051   4.171
47976W        W 9639  16.599   4.249  14.014
47977W        W 9640  44.904   0.453   1.238
47978W        W 9641  27.159  41.373  13.321
47979W        W 9642  28.976  19.676  10.522
47980W        W 9643   9.724  12.268   0.936
47981W        W 9644  33.591  17.183   2.735
47982W        W 9645  27.198  44.914   0.859
47983W        W 9646  39.928  22.057  11.436
47984W        W 9647  39.828  35.060   0.342
47985W        W 9648   7.745  20.224   1.218
47986W        W 9649  38.556  11.743  14.884
47987W        W 9650  23.554  18.762   4.353
47988W        W 9651  43.467   4.823   0.726
47989W        W 9652  13.249   9.777  14.805
47990W        W 9653  34.865  33.934  14.298
47991W        W 9654  13.258  12.763   4.774
47992W        W 9655  14.314   1.287   2.346
47993W        W 9656  43.844  35.879  13.880
47994W        W 9657  32.974  39.398   4.139
47995W        W 9658   9.346  19.569   3.180
47996W        W 9659  11.759  42.961   4.814
47997W        W 9660   1.269   9.167  12.073
47998W        W 9661   5.331  18.700   0.384
47999W        W 9662   1.926  12.782  12.912
48000W        W 9663  35.974  13.779  13.887
48001W        W 9664  29.437  34.978  10.062
48002W        W 9665   6.189   8.221  10.141
48003W        W 9666  21.101   0.894  12.451
48004W        W 9667   1.242  39.494   3.802
48005W        W 9668   1.817  35.092   4.214
48006W        W 9669   6.712  12.216   3.339
48007W        W 9670  24.044   0.918   3.365
48008W        W 9671  37.396  18.715  14.775
48009W        W 9672   1.928  44.892   4.142
48010W        W 9673  34.394   7.340  11.905
48011W        W 9674   3.736  29.495   1.427
48012W        W 9675  39.512  31.927  14.395
48013W        W 9676  10.868  37.835  14.381
48014W        W 9677  42.421  25.499   0.245
48015W        W 9678   3.916  13.311  12.921
48016W        W 9679  16.613   6.373  11.591
48017W        W 9680  33.381   6.859   2.876
48018W        W 9681  38.461   0.296   4.778
48019W        W 9682   4.932   9.331   2.360
48020W        W 9683  37.537  42.792   3.673
48021W        W 9684  19.073  17.598   3.722
48022W        W 9685  15.097   5.911   3.823
48023W        W 9686  29.008  38.454   3.819
48024W        W 9687  15.155   5.870   4.311
48025W        W 9688  16.158  24.652  14.511
48026W        W 9689   4.885   2.879   2.724
48027W        W 9690  25.017  18.583  12.499
48028W        W 9691  37.966  22.698  12.438
48029W        W 9692  37.006   2.235   1.225
48030W        W 9693  42.281  24.061   3.844
48031W        W 9694  31.123  14.620   3.307
48032W        W 9695  42.947   4.404  11.599
48033W        W 9696  15.251  28.592   0.782
48034W        W 9697   5.297  20.121   0.397
48035W        W 9698  14.639  44.351   0.305
48036W        W 9699  32.529  32.414   4.714
48037W        W 9700  15.241  34.939  12.437
48038W        W 9701  34.904  15.649   0.264
48039W        W 9702  25.555  13.691   3.760
48040W        W 9703  34.486   0.800   0.430
48041W        W 9704   2.908  36.392   0.458
48042W        W 9705   4.243  44.495   0.309
48043W        W 9706  42.385  29.066  12.085
48044W        W 9707  40.981  36.885   4.634
48045W        W 9708  28.571  38.498   2.669
48046W        W 9709  24.608  32.584  11.891
48047W        W 9710   0.965  35.539   0.466
48048W        W 9711  38.922  43.416   0.455
48049W        W 9712  19.536   0.356  12.958
48050W        W 9713  26.557   0.754  10.596
48051W        W 9714  38.884  37.514   4.635
48052W        W 9715  19.754   8.351   2.797
48053W        W 9716   3.227  32.392  12.865
48054W        W 9717  40.033  32.618   4.316
48055W        W 9718  22.233  10.641  14.924
48056W        W 9719  11.349  37.561   3.225
48057W        W 9720  21.065  24.984  12.855
48058W        W 9721  39.559   4.366   2.698
48059W        W 9722   5.737  40.494  10.622
48060W        W 9723  24.213   7.214   2.311
48061W        W 9724  34.556  25.508  13.484
48062W        W 9725  25.127  39.394   4.795
48063W        W 9726   4.374  29.952   0.288
48064W        W 9727  21.020  39.839   2.199
48065W        W 9728   0.298  14.178   2.815
48066W        W 9729  35.066  27.057  12.578
48067W        W 9730  25.208  28.135  13.334
48068W        W 9731  35.905  24.033  13.474
48069W        W 9732  36.907  42.847   1.704
48070W        W 9733  20.054   7.171   4.822
48071W        W 9734  25.617  11.315   1.361
48072W        W 9735  23.079  20.117  14.938
48073W        W 9736   2.833  27.955   4.713
48074W        W 9737  12.843  29.556   0.442
48075W        W 9738   9.821   3.412  12.577
48076W        W 9739  23.122   4.405  10.938
48077W        W 9740   1.962  43.926   2.263
48078W        W 9741  23.678  41.023   0.942
48079W        W 9742  29.166   4.435  13.355
48080W        W 9743  11.154  15.198  13.443
48081W        W 9744  21.057  30.560  12.880
48082W        W 9745  38.864  29.492  12.439
48083W        W 9746   5.754  44.485   3.827
48084W        W 9747  35.368  38.905   1.436
48085W        W 9748   1.262  23.699  14.925
48086W        W 9749  23.189  10.270  12.032
48087W        W 9750  26.462  28.557  12.383
48088W        W 9751  30.535  13.153   0.461
48089W        W 9752  27.610  40.921   1.919
48090W        W 9753  11.134   4.710   1.773
48091W        W 9754   6.275  15.195   1.247
48092W        W 9755  12.786   9.351  14.922
48093W        W 9756  10.170  36.929  13.024
48094W        W 9757  37.881  15.127   3.363
48095W        W 9758   6.905  24.720   4.677
48096W        W 9759  37.066  16.129   2.315
48097W        W 9760  41.940  30.958   2.248
48098W        W 9761  44.391  25.518   1.855
48099W        W 9762  33.566   9.371   3.271
48100W        W 9763  36.001  11.843  12.053
48101W        W 9764  30.005   8.353  11.393
48102W        W 9765   2.829  35.968  13.324
48103W        W 9766  16.630  35.889   3.746
48104W        W 9767  35.948  33.621  11.500
48105W        W 9768  31.615  33.898  11.123
48106W        W 9769  26.471   7.726   3.288
48107W        W 9770  43.396  44.460   2.880
48108W        W 9771  17.638  40.419   2.297
48109W        W 9772   7.198  10.835  11.078
48110W        W 9773  15.127  38.950   0.792
48111W        W 9774  29.941   6.694   0.955
48112W        W 9775  30.480  32.451   2.404
48113W        W 9776  23.106   2.938   1.272
48114W        W 9777  11.784  40.305  13.514
48115W        W 9778   5.880   5.830  10.918
48116W        W 9779   2.930   8.304  13.020
48117W        W 9780  18.655  33.421  14.399
48118W        W 9781  19.281  28.603  14.342
48119W        W 9782  33.973  39.015  12.853
48120W        W 9783  19.283  30.032   0.771
48121W        W 9784  44.458  33.528  13.055
48122W        W 9785   2.309  39.469  11.892
48123W        W 9786  29.082  39.902  12.828
48124W        W 9787  19.045  14.759  12.936
48125W        W 9788   5.359  22.645  13.039
48126W        W 9789  27.570  36.429   1.382
48127W        W 9790  28.093  19.768   3.786
48128W        W 9791   5.405   1.304   3.159
48129W        W 9792  37.579  27.552  12.526
48130W        W 9793  16.658   3.778   0.293
48131W        W 9794  39.815  43.296  13.349
48132W        W 9795  16.081  22.209  11.862
48133W        W 9796   2.821  40.492  11.442
48134W        W 9797  16.767  17.113  14.912
48135W        W 9798  10.338  35.940  11.123
48136W        W 9799  28.941  41.795   2.682
48137W        W 9800  34.994   5.340   3.358
48138W        W 9801   2.270  43.769  14.393
48139W        W 9802   2.297  42.285  10.541
48140W        W 9803  20.246  23.069   0.472
48141W        W 9804  44.319   8.734  13.829
48142W        W 9805  15.208  42.442   1.925
48143W        W 9806  44.313  11.351  13.523
48144W        W 9807   2.878  31.944   1.759
48145W        W 9808  25.964  32.939   3.154
48146W        W 9809   9.661  41.979  11.560
48147W        W 9810   5.716  13.729   3.790
48148W        W 9811  42.875  26.973   2.683
48149W        W 9812  14.198  41.860   0.727
48150W        W 9813  17.685  42.337   3.648
48151W        W 9814  39.543  18.201  11.605
48152W        W 9815  28.558  36.403  10.896
48153W        W 9816  25.608   7.845   0.283
48154W        W 9817   4.411  27.629  10.441
48155W        W 9818  38.047  33.120  11.603
48156W        W 9819  40.339  43.874  14.816
48157W        W 9820  12.722  35.101   0.336
48158W        W 9821  31.420   4.208   1.449
48159W        W 9822  43.444  12.197  14.813
48160W        W 9823  15.127  37.013   3.325
48161W        W 9824  15.674  36.997   2.280
48162W        W 9825  41.936   5.809  10.472
48163W        W 9826  27.952  42.880  13.899
48164W        W 9827  26.065   9.789  12.501
48165W        W 9828  35.908  29.583   2.224
48166W        W 9829  15.179  42.795   1.926
48167W        W 9830   7.319  43.341  13.544
48168W        W 9831  39.914   6.301   3.711
48169W        W 9832  40.434   0.283   0.840
48170W        W 9833   0.456  35.987   3.709
48171W        W 9834  42.862   0.372   0.371
48172W        W 9835  18.582   3.420  13.884
48173W        W 9836  10.159  33.611   5.194
48174W        W 9837  38.418   7.264  13.514
48175W        W 9838  40.486  32.985  11.513
48176W        W 9839  30.077  30.549  13.405
48177W        W 9840  20.173  20.083  12.876
48178W        W 9841  44.281  36.051   1.431
48179W        W 9842  31.088  16.790  13.928
48180W        W 9843  33.493  33.946   3.323
48181W        W 9844  27.663  23.652  11.081
48182W        W 9845   8.662  23.513   0.883
48183W        W 9846   7.672  24.161   3.188
48184W        W 9847  25.576  10.305   3.207
48185W        W 9848   0.485  24.633  10.982
48186W        W 9849   1.268  40.472  13.458
48187W        W 9850   7.903   0.445   2.244
48188W        W 9851  31.133  11.138   2.896
48189W        W 9852   0.747  18.579   2.716
48190W        W 9853  14.796   5.204  12.067
48191W        W 9854  19.247   1.890  11.470
48192W        W 9855  17.166   6.801   3.345
48193W        W 9856  34.579   7.366  11.609
48194W        W 9857  37.917  11.328  13.043
48195W        W 9858  44.972   6.683  11.974
48196W        W 9859  27.103  39.418  10.508
48197W        W 9860  33.590   2.278  10.610
48198W        W 9861  21.027  23.542  12.983
48199W        W 9862  17.086  37.531  12.382
48200W        W 9863   6.206  20.108   1.356
48201W        W 9864  41.527  23.011  13.993
48202W        W 9865  32.428  15.179  13.985
48203W        W 9866   2.736  32.055   0.347
48204W        W 9867   0.380  40.906   3.654
48205W        W 9868  11.808  13.787  14.925
48206W        W 9869   6.782  31.920   0.404
48207W        W 9870  29.567   6.258   2.214
48208W        W 9871  21.639  44.290  12.965
48209W        W 9872  43.346  39.488   0.802
48210W        W 9873  43.471   3.431  12.997
48211W        W 9874  33.434  39.907   0.445
48212W        W 9875  28.929   1.796  14.925
48213W        W 9876   7.782  41.798  12.852
48214W        W 9877  30.539   4.881   4.299
48215W        W 9878  24.612   1.444  11.861
48216W        W 9879  15.676  34.065   0.906
48217W        W 9880   3.897  26.596  10.056
48218W        W 9881  27.960  33.534  10.609
48219W        W 9882  25.119  35.457   1.381
48220W        W 9883  11.816   3.786  11.584
48221W        W 9884  39.903   3.952   2.212
48222W        W 9885  40.878  43.919  12.476
48223W        W 9886  10.371  15.158  13.389
48224W        W 9887   9.271   5.841  13.475
48225W        W 9888  36.573  41.465  12.064
48226W        W 9889  27.576  15.148  13.321
48227W        W 9890  35.561  42.405   1.917
48228W        W 9891  34.453  25.970   2.835
48229W        W 9892   0.980  39.528  10.415
48230W        W 9893  16.655   6.250  14.778
48231W        W 9894  18.146   6.699   2.240
48232W        W 9895   0.772  25.992   3.209
48233W        W 9896  42.401  13.172   0.793
48234W        W 9897  15.275  44.814  11.112
48235W        W 9898  21.171  26.138  10.957
48236W        W 9899   2.253  20.745   3.801
48237W        W 9900   8.682  15.679  10.575
48238W        W 9901  44.290  40.958   4.339
48239W        W 9902  26.503   3.800   1.246
48240W        W 9903  35.467  33.885  12.521
48241W        W 9904  12.835  34.863  11.453
48242W        W 9905   9.687  16.795   3.710
48243W        W 9906  28.605  44.952   2.306
48244W        W 9907   4.369   7.303  14.500
48245W        W 9908  34.893  15.310  13.882
48246W        W 9909  11.789  29.448   3.323
48247W        W 9910   8.720  36.866  10.551
48248W        W 9911  25.525  30.484  11.446
48249W        W 9912  13.343  25.003   0.787
48250W        W 9913  34.486  25.962  12.065
48251W        W 9914   5.403   9.226  14.475
48252W        W 9915  25.983  15.270  10.532
48253W        W 9916  44.943  18.779   4.170
48254W        W 9917  25.473   2.380   4.238
48255W        W 9918  28.443   4.716   3.714
48256W        W 9919  17.622  17.068   4.724
48257W        W 9920  20.753  12.855   2.739
48258W        W 9921   7.397  12.816  10.476
48259W        W 9922  44.897   5.774   0.435
48260W        W 9923  32.089  39.010   3.833
48261W        W 9924  37.359  16.597  10.037
48262W        W 9925  29.662   9.363   1.377
48263W        W 9926  42.346  28.589   0.348
48264W        W 9927   0.487  42.981  10.891
48265W        W 9928  33.949   2.446  13.317
48266W        W 9929  36.093   7.788   3.673
48267W        W 9930  23.679   1.772  11.973
48268W        W 9931  13.634  24.125   4.686
48269W        W 9932  44.791  38.861  10.044
48270W        W 9933  17.577  33.508   4.232
48271W        W 9934   7.286  22.192  14.875
48272W        W 9935   1.799  29.528   1.242
48273W        W 9936   6.329  26.106   1.367
48274W        W 9937   2.829  29.173   3.350
48275W        W 9938  21.750  16.619  11.426
48276W        W 9939  27.600  29.636   1.747
48277W        W 9940   3.724  20.730   4.653
48278W        W 9941  38.566  23.163  13.963
48279W        W 9942  37.831   3.413  10.595
48280W        W 9943  23.626   0.939   2.410
48281W        W 9944  21.084   3.275   3.373
48282W        W 9945  20.679   0.469   0.849
48283W        W 9946  41.395  24.575  13.840
48284W        W 9947  18.609   0.797  13.053
48285W        W 9948  32.540   3.783   1.297
48286W        W 9949  44.915  36.985  11.526
48287W        W 9950   6.833   6.399  10.505
48288W        W 9951   0.760   9.161   3.172
48289W        W 9952  38.346  16.588   3.295
48290W        W 9953  43.818  11.273   3.285
48291W        W 9954  29.529  39.521  13.804
48292W        W 9955   2.234  33.989  10.957
48293W        W 9956  19.775   6.858  14.476
48294W        W 9957   4.810  22.565  10.954
48295W        W 9958  29.000  15.801  10.430
48296W        W 9959  29.167  18.735   4.630
48297W        W 9960  30.460   5.247  12.559
48298W        W 9961  40.443  29.162   1.721
48299W        W 9962  37.477  19.057   3.316
48300W        W 9963   9.389  19.560   0.948
48301W        W 9964  33.955  29.653  14.376
48302W        W 9965   8.900   4.343  14.369
48303W        W 9966  36.874  40.498  13.448
48304W        W 9967   1.795   2.408   2.208
48305W        W 9968  33.518  31.071   2.216
48306W        W 9969  11.727  28.139  11.101
48307W        W 9970  23.016  37.560   3.322
48308W        W 9971  34.578   0.840  13.444
48309W        W 9972  16.267  38.559  12.546
48310W        W 9973  25.555  27.134  13.375
48311W        W 9974   2.932  28.177  12.394
48312W        W 9975   8.202  33.930   2.178
48313W        W 9976  12.788  32.471  14.361
48314W        W 9977   7.274  27.462   0.274
48315W        W 9978  12.682  24.634  14.310
48316W        W 9979  32.127   0.365  12.416
48317W        W 9980  21.203  32.115  14.904
48318W        W 9981  29.585  23.122   1.835
48319W        W 9982  38.881   5.846   4.610
48320W        W 9983  37.036  34.109   3.176
48321W        W 9984  16.774  14.290   2.234
48322W        W 9985  29.424  34.588  11.975
48323W        W 9986  17.144  33.509  11.421
48324W        W 9987  21.233   6.410   5.244
48325W        W 9988  21.571  27.948  13.324
48326W        W 9989  36.436  27.196  12.053
48327W        W 9990  40.345  29.485  12.879
48328W        W 9991  14.215  42.964  13.500
48329W        W 9992   2.301  39.511   3.760
48330W        W 9993  28.459  19.597  10.964
48331W        W 9994   3.819  23.114   4.271
48332W        W 9995  12.292  20.059  13.385
48333W        W 9996   1.298  23.236  11.607
48334W        W 9997  25.677  41.866   3.333
48335W        W 9998   0.864  13.603  11.974
48336W        W 9999  24.633  21.033   1.382
48337W        W10000  33.544  27.666   4.692
48338W        W10001   8.704  38.038  11.981
48339W        W10002  43.296  15.643   0.287
48340W        W10003  40.853  21.695  14.964
48341W        W10004  24.124  32.978  13.874
48342W        W10005  34.882   1.802   0.430
48343W        W10006   5.788  44.872  12.571
48344W        W10007   5.751  36.404   4.288
48345W        W10008  21.157  15.256   3.715
48346W        W10009  41.991  36.009   4.207
48347W        W10010  20.108  23.720  11.984
48348W        W10011   2.769  29.954   1.264
48349W        W10012  29.592  25.540  14.769
48350W        W10013   0.927   9.313   4.790
48351W        W10014  34.608  37.465  12.888
48352W        W10015  35.049  43.315  12.557
48353W        W10016   2.936   9.810  12.355
48354W        W10017  29.631  29.005  10.156
48355W        W10018  20.270  30.931  10.604
48356W        W10019  42.779  18.714   5.260
48357W        W10020  18.234  11.690   4.302
48358W        W10021  32.142  11.296   0.300
48359W        W10022   3.874  36.008   0.253
48360W        W10023  28.599  22.741   2.736
48361W        W10024  26.647  35.376   3.152
48362W        W10025  41.951  19.547  14.849
48363W        W10026  38.456  44.365   4.743
48364W        W10027   5.290  43.323   2.847
48365W        W10028   5.699   5.817  12.032
48366W        W10029  18.101  33.070  14.305
48367W        W10030  21.143  39.400  12.349
48368W        W10031   9.307   0.409   4.280
48369W        W10032  14.197   5.388   4.768
48370W        W10033  13.655   6.320  10.901
48371W        W10034  29.921   4.283   4.208
48372W        W10035  21.649  28.591  11.096
48373W        W10036  11.177  36.570  10.955
48374W        W10037  32.500  16.143   3.216
48375W        W10038  40.317  36.056  13.431
48376W        W10039  40.432   5.724   0.243
48377W        W10040  41.379  26.166   1.922
48378W        W10041  17.637  24.997  14.935
48379W        W10042  33.942  40.853  11.954
48380W        W10043  11.669   0.348   1.795
48381W        W10044  22.610  18.073  12.514
48382W        W10045   3.814  32.429   2.279
48383W        W10046   5.206   7.296  12.505
48384W        W10047  32.022  24.607  10.922
48385W        W10048   6.278   5.417  10.975
48386W        W10049  22.235   8.222   1.729
48387W        W10050  36.406  21.260  14.378
48388W        W10051  22.617  13.662  14.472
48389W        W10052  23.628   6.754  12.441
48390W        W10053  27.963  22.214   3.155
48391W        W10054  27.605  23.655  10.465
48392W        W10055  36.996  38.047   0.255
48393W        W10056   6.381  38.412   2.840
48394W        W10057   3.753  30.635   0.726
48395W        W10058  32.984  43.789   0.295
48396W        W10059  19.542  17.104   1.868
48397W        W10060  21.729  11.716   2.187
48398W        W10061  10.696  28.091   3.382
48399W        W10062  15.275  31.537  14.776
48400W        W10063   3.798  27.472  13.465
48401W        W10064  32.616  15.241   4.791
48402W        W10065  21.752  30.002   2.790
48403W        W10066  34.012  33.917  11.609
48404W        W10067  22.006  23.675  14.428
48405W        W10068  15.099  34.388  10.474
48406W        W10069  35.006  26.507  14.413
48407W        W10070  10.319  10.271   1.779
48408W        W10071  18.157  21.636   2.401
48409W        W10072  14.703  39.410   0.336
48410W        W10073  40.911   8.684  10.987
48411W        W10074  26.622   2.254   3.837
48412W        W10075  33.401  42.014   1.736
48413W        W10076  43.435  12.347  14.459
48414W        W10077   0.481   6.839  14.309
48415W        W10078   6.352  20.227  14.294
48416W        W10079  17.248  33.619  14.419
48417W        W10080   3.380   1.967  12.943
48418W        W10081  19.754   8.765   0.941
48419W        W10082  16.766  26.103  11.473
48420W        W10083  17.260  24.048   2.388
48421W        W10084  18.596   2.334  11.513
48422W        W10085  42.801  11.829  14.449
48423W        W10086  30.003   0.780  12.991
48424W        W10087  28.075   7.235   1.215
48425W        W10088  14.630  24.230  12.400
48426W        W10089  42.776  43.856  11.928
48427W        W10090  21.166  35.063  12.361
48428W        W10091  28.180  23.045   1.210
48429W        W10092  41.958  21.112  10.543
48430W        W10093  38.446  25.519   1.390
48431W        W10094  28.675  17.794   1.338
48432W        W10095  38.074  32.576  11.393
48433W        W10096  35.039  14.822   3.342
48434W        W10097  34.400  22.699  11.858
48435W        W10098  12.195  37.510  13.490
48436W        W10099  31.995  26.576   0.358
48437W        W10100   8.670  40.508   4.219
48438W        W10101  26.128  19.285  12.007
48439W        W10102  37.337  36.501   3.710
48440W        W10103   4.295  15.303   3.260
48441W        W10104   0.901  12.280   3.156
48442W        W10105  18.691   4.205  13.967
48443W        W10106  14.297  42.898  13.818
48444W        W10107   4.826  38.065  10.533
48445W        W10108   4.376   2.464   3.717
48446W        W10109  11.308  20.161   2.887
48447W        W10110   2.267   1.244  13.012
48448W        W10111   0.900  31.127   0.879
48449W        W10112  24.228  39.452   0.341
48450W        W10113  16.695  32.933   1.723
48451W        W10114   7.749  35.970   0.287
48452W        W10115   7.888  10.247   0.753
48453W        W10116  44.910  16.766   3.283
48454W        W10117  25.162   1.316  11.004
48455W        W10118  35.992  30.591   1.224
48456W        W10119  21.635  25.981   4.332
48457W        W10120  42.020   3.399   2.269
48458W        W10121  13.759  24.996  13.389
48459W        W10122  34.495  43.906   0.853
48460W        W10123  22.686   5.294   3.740
48461W        W10124  44.350  22.083   1.340
48462W        W10125  25.193  40.357   2.221
48463W        W10126  20.530   7.762   4.814
48464W        W10127  38.548  21.186   2.409
48465W        W10128  16.709  37.437   3.828
48466W        W10129  21.701   5.706   3.660
48467W        W10130  21.068  18.723  10.581
48468W        W10131  18.284  31.999  10.493
48469W        W10132  30.474  41.852  10.501
48470W        W10133  17.080  44.908  14.917
48471W        W10134   5.887  24.652   2.340
48472W        W10135  36.920  24.630  11.469
48473W        W10136  41.996  10.843   2.681
48474W        W10137  31.441   7.398   1.884
48475W        W10138  12.752  37.911   3.815
48476W        W10139  23.198  38.354  11.608
48477W        W10140  11.711  13.333   3.288
48478W        W10141  17.623  12.164   5.634
48479W        W10142  15.103   4.701   1.307
48480W        W10143  26.025  43.484   3.652
48481W        W10144  20.260   2.380   3.651
48482W        W10145   0.954  34.610   4.118
48483W        W10146  33.391  32.136   2.233
48484W        W10147  27.125  19.771  10.906
48485W        W10148  16.767   1.823  13.441
48486W        W10149  14.231  44.799  13.350
48487W        W10150  17.243  17.694  11.375
48488W        W10151  32.397  38.350  11.501
48489W        W10152  12.282  30.099  14.308
48490W        W10153  41.969   6.409   3.694
48491W        W10154  24.499  38.874   1.408
48492W        W10155  40.323  15.711   1.802
48493W        W10156  11.242  23.015   0.807
48494W        W10157  11.673   0.393  12.889
48495W        W10158  20.549  11.714  10.489
48496W        W10159  25.132  41.343   5.276
48497W        W10160  35.935  16.095   0.852
48498W        W10161  23.644  34.380   2.812
48499W        W10162  42.804   2.325   0.256
48500W        W10163  14.770  35.077   1.852
48501W        W10164  44.991   5.265   2.264
48502W        W10165  38.412  28.112  14.476
48503W        W10166  40.344  22.744   5.152
48504W        W10167  36.485  36.459   0.392
48505W        W10168  28.643  35.019   0.280
48506W        W10169   1.762   7.226  12.013
48507W        W10170   0.941  27.557  12.418
48508W        W10171  23.546  12.155  13.457
48509W        W10172  32.066  44.842   1.317
48510W        W10173  12.202  20.565   2.898
48511W        W10174  42.886  15.742  13.495
48512W        W10175  15.704   8.181   2.816
48513W        W10176  31.536   4.906   1.909
48514W        W10177   9.735   3.815   1.283
48515W        W10178  15.658   2.782  12.892
48516W        W10179   0.832   3.266  11.093
48517W        W10180  24.608   2.386   3.699
48518W        W10181   1.887   9.283   0.822
48519W        W10182  37.907   6.232  12.989
48520W        W10183  37.074   2.427  13.832
48521W        W10184   1.272  17.595  12.434
48522W        W10185  42.435  13.803  13.893
48523W        W10186  13.238  11.850   2.775
48524W        W10187  10.229  22.043  11.908
48525W        W10188  13.639  10.780  12.053
48526W        W10189  21.230  29.065  14.959
48527W        W10190   3.345  35.023   0.285
48528W        W10191   2.292   4.231   0.814
48529W        W10192  15.269   8.712  10.424
48530W        W10193   0.912  42.845   5.211
48531W        W10194  17.579  16.191   2.337
48532W        W10195  23.619  17.752  14.786
48533W        W10196  10.244  42.798   9.988
48534W        W10197   1.440   6.339  14.414
48535W        W10198  39.013  14.174   2.671
48536W        W10199  19.622  36.891  13.359
48537W        W10200   1.344  44.892  13.881
48538W        W10201  36.068  26.466  11.500
48539W        W10202   3.448   6.284  14.279
48540W        W10203  30.970  11.681   3.286
48541W        W10204   2.300   3.304  11.537
48542W        W10205   3.250  38.552  14.463
48543W        W10206  19.193  25.601   0.400
48544W        W10207  10.867  24.115  12.546
48545W        W10208  26.077   8.388  14.801
48546W        W10209  16.609  14.138   5.257
48547W        W10210   3.458  14.715   2.688
48548W        W10211  30.520   8.783   1.876
48549W        W10212  12.613   1.858   0.416
48550W        W10213  23.175  32.955  13.802
48551W        W10214  41.362  27.954   4.814
48552W        W10215   7.325  29.994  12.007
48553W        W10216  13.764  36.530  13.307
48554W        W10217  43.838  16.572  11.532
48555W        W10218  34.577   1.784  13.886
48556W        W10219  41.294  42.778   0.414
48557W        W10220  12.676   0.945  13.055
48558W        W10221  19.232   3.722  13.404
48559W        W10222   4.269  37.905   4.270
48560W        W10223  40.982   9.794  11.083
48561W        W10224   6.192  32.418  10.633
48562W        W10225  40.440   9.787  11.484
48563W        W10226   4.863   1.768  11.087
48564W        W10227  41.476  40.532  11.472
48565W        W10228   1.736  30.049   2.804
48566W        W10229  41.432  43.778   4.817
48567W        W10230  43.993   1.273  13.817
48568W        W10231  29.573  25.097   3.707
48569W        W10232  12.761  40.353   4.753
48570W        W10233   4.739  35.936  14.401
48571W        W10234  15.670  19.628   4.718
48572W        W10235   6.724  10.182   3.654
48573W        W10236   8.700  39.830  11.036
48574W        W10237  38.835  11.797  14.452
48575W        W10238  28.659  11.130  12.044
48576W        W10239  15.816  30.558   4.281
48577W        W10240   1.775  31.575   1.404
48578W        W10241  20.048   6.790  11.963
48579W        W10242  38.404  37.450   0.282
48580W        W10243  15.738  30.499   3.166
48581W        W10244  37.337  27.149   4.782
48582W        W10245  36.482  29.140   1.349
48583W        W10246  30.482  36.479   3.187
48584W        W10247   8.700  29.972  10.579
48585W        W10248   2.897  37.856   0.952
48586W        W10249  28.033  30.478  12.037
48587W        W10250  23.188  38.859  12.446
48588W        W10251  38.893  43.482   0.944
48589W        W10252  23.087  44.878  10.935
48590W        W10253   0.494   9.735  13.813
48591W        W10254  34.030  23.566   5.278
48592W        W10255  18.254  17.187   5.096
48593W        W10256  38.923  15.102   9.990
48594W        W10257  22.078  35.878  10.580
48595W        W10258  42.779  37.437   3.647
48596W        W10259  42.418  34.595   0.467
48597W        W10260  38.566  18.688   4.197
48598W        W10261  25.219  25.568  13.797
48599W        W10262   5.409  19.093  11.984
48600W        W10263  16.232  34.508  14.847
48601W        W10264  37.336  43.354  12.883
48602W        W10265  40.965   4.710  11.919
48603W        W10266   7.177  44.283   2.837
48604W        W10267  37.079  13.620  13.535
48605W        W10268  14.666  38.946   1.922
48606W        W10269  25.649  32.980   4.746
48607W        W10270  11.263  25.494  11.408
48608W        W10271   1.795  34.408  11.911
48609W        W10272   2.388  33.961   1.253
48610W        W10273  42.412  20.192   2.883
48611W        W10274  36.528  21.607  13.478
48612W        W10275  30.137  17.243  14.947
48613W        W10276  37.417  26.496   2.192
48614W        W10277  27.123  42.870   4.266
48615W        W10278  29.431   4.718   1.403
48616W        W10279  28.443   1.864  14.762
48617W        W10280  10.172  24.982   1.877
48618W        W10281  24.014  39.990   4.320
48619W        W10282   1.827   1.418   4.838
48620W        W10283  32.474  42.776   5.239
48621W        W10284  15.143  12.251  14.468
48622W        W10285  36.488   1.480   3.645
48623W        W10286  30.516  24.103  12.428
48624W        W10287  23.007  17.113   4.838
48625W        W10288  43.986  30.549   3.346
48626W        W10289  29.022  27.060   3.836
48627W        W10290  25.639  18.154  10.561
48628W        W10291  34.886  30.944   1.432
48629W        W10292  38.896   5.282   3.248
48630W        W10293  10.285  25.641   4.134
48631W        W10294   9.761  22.250  14.359
48632W        W10295   9.731  29.658  14.493
48633W        W10296  37.431  44.783   1.439
48634W        W10297   1.311   7.804  11.987
48635W        W10298  15.315  43.450  11.421
48636W        W10299  14.252  25.187  14.945
48637W        W10300  19.778  31.583   1.226
48638W        W10301   7.683   3.430   4.305
48639W        W10302  31.002  35.414  12.552
48640W        W10303  12.175  44.415   3.340
48641W        W10304   3.777  26.621   2.809
48642W        W10305  40.859   1.474   3.359
48643W        W10306  12.327  25.642   0.430
48644W        W10307  29.069   7.348  13.865
48645W        W10308  36.927   5.303  13.815
48646W        W10309   9.162  27.173   0.410
48647W        W10310  15.692  40.824  14.362
48648W        W10311  15.678  44.987  10.558
48649W        W10312   0.747  40.955   4.229
48650W        W10313  34.592  22.115   3.844
48651W        W10314  22.671   0.806  13.894
48652W        W10315  44.282  33.465   4.291
48653W        W10316   3.822   8.232   1.702
48654W        W10317  32.537  38.887  11.859
48655W        W10318   8.752  10.380  10.955
48656W        W10319  42.357  40.446   3.197
48657W        W10320   7.247  31.489   4.684
48658W        W10321  17.568  20.274   3.806
48659W        W10322  20.669   4.932  11.492
48660W        W10323  31.537  27.130   0.831
48661W        W10324  28.636  26.692  13.057
48662W        W10325  31.648  41.925  11.571
48663W        W10326  33.384   0.401  12.411
48664W        W10327  39.987  22.526   4.292
48665W        W10328   3.806  24.059  12.490
48666W        W10329  13.655  43.870  14.347
48667W        W10330  31.125  26.625   0.827
48668W        W10331   6.201  43.336   1.228
48669W        W10332  41.871  12.255   0.727
48670W        W10333   9.178  35.433  11.496
48671W        W10334  40.435  10.830  12.837
48672W        W10335  29.028  39.993   1.431
48673W        W10336  14.774  32.031  14.287
48674W        W10337  33.991  31.060  13.516
48675W        W10338  23.188  43.362  12.453
48676W        W10339   8.193   2.297   0.784
48677W        W10340  44.763  11.832  13.954
48678W        W10341  32.594  19.265  11.558
48679W        W10342   8.373  21.710  11.017
48680W        W10343   7.348  31.620  12.378
48681W        W10344  40.926  39.993  10.429
48682W        W10345  37.341   8.259   1.776
48683W        W10346  42.469  44.917  14.399
48684W        W10347   0.815   5.751   0.438
48685W        W10348  33.492  20.693  11.856
48686W        W10349  26.158  39.035   1.299
48687W        W10350  19.066  14.246  11.905
48688W        W10351  36.074   7.832   2.789
48689W        W10352  40.964   4.928  12.867
48690W        W10353   2.825  26.597  13.891
48691W        W10354   8.397   0.313  12.089
48692W        W10355  19.050  37.354   1.378
48693W        W10356  13.190  40.818  14.826
48694W        W10357   9.183  10.369   0.245
48695W        W10358  35.368  20.136   1.423
48696W        W10359  23.155   4.320  13.343
48697W        W10360  34.404  36.583  14.791
48698W        W10361   4.938  17.225  12.472
48699W        W10362  28.634  24.586   2.354
48700W        W10363  11.166  10.142  12.396
48701W        W10364  26.643  16.110   3.786
48702W        W10365  14.671  14.340   0.357
48703W        W10366  16.150   7.867   2.293
48704W        W10367  26.993  30.468   4.337
48705W        W10368  25.613  16.641  14.385
48706W        W10369   6.294   6.845  14.492
48707W        W10370   8.749  25.210  13.445
48708W        W10371   1.310  14.095  10.541
48709W        W10372  26.615  36.578  10.969
48710W        W10373  19.209  44.985   0.832
48711W        W10374  16.240   6.876   2.240
48712W        W10375  34.887  26.588   1.451
48713W        W10376  16.247  43.004   2.327
48714W        W10377  11.823  26.961  12.089
48715W        W10378  43.507  27.143   0.426
48716W        W10379   9.864  36.436  13.847
48717W        W10380  19.132  14.323  11.561
48718W        W10381  42.473  28.667  11.412
48719W        W10382  33.524  43.354  13.944
48720W        W10383  19.131  20.720  10.976
48721W        W10384  26.083  22.729   3.198
48722W        W10385   5.920  18.664  11.891
48723W        W10386  25.058  13.240  13.352
48724W        W10387  22.068  15.290   0.861
48725W        W10388  27.677   3.235   2.783
48726W        W10389  18.068  22.525  10.489
48727W        W10390  36.943  15.216  14.296
48728W        W10391   8.370   6.219  12.084
48729W        W10392  30.134  22.248  14.899
48730W        W10393   9.191  42.388  13.898
48731W        W10394  28.043   5.911   2.360
48732W        W10395  23.073   7.850  14.423
48733W        W10396   5.240  39.444   3.188
48734W        W10397  34.558  32.440   2.874
48735W        W10398  22.693  41.362   1.210
48736W        W10399   1.814  33.090   2.738
48737W        W10400   4.791  35.880   4.220
48738W        W10401  19.133  19.173   3.239
48739W        W10402   4.774  33.557  14.344
48740W        W10403   5.367  11.188   0.289
48741W        W10404  23.014  19.130  13.050
48742W        W10405  29.134  33.055   3.364
48743W        W10406   0.817  11.770   9.978
48744W        W10407  14.653  24.182  14.013
48745W        W10408  43.989  38.478  11.981
48746W        W10409  41.529  14.693  12.377
48747W        W10410   7.776  11.764  11.010
48748W        W10411  39.358   4.300   2.289
48749W        W10412  10.324  11.660  11.451
48750W        W10413   7.879  30.640  10.042
48751W        W10414   3.289  10.732   3.681
48752W        W10415  19.174  24.157   2.309
48753W        W10416  33.585  26.033   2.859
48754W        W10417  23.698  34.906   3.805
48755W        W10418   6.719  35.986   0.350
48756W        W10419  22.006   6.737   1.864
48757W        W10420  10.138  28.035  14.463
48758W        W10421  17.273  31.015  10.569
48759W        W10422  23.565   6.348   3.207
48760W        W10423  29.162   8.791  12.869
48761W        W10424  12.319  25.173   0.808
48762W        W10425  11.214  34.481   4.271
48763W        W10426   8.704   3.798  12.427
48764W        W10427   5.850  35.948   2.354
48765W        W10428   6.823   4.902   3.272
48766W        W10429  28.663  27.088  14.514
48767W        W10430  26.980  29.114   4.800
48768W        W10431   6.423  12.179  12.024
48769W        W10432  11.761  44.767   3.674
48770W        W10433  44.866   7.224   4.249
48771W        W10434  30.475  16.127  10.469
48772W        W10435  40.053  14.652  12.857
48773W        W10436  41.898  37.378   0.961
48774W        W10437   9.286  31.471  10.447
48775W        W10438  14.693  35.009   4.322
48776W        W10439  34.486  18.575   2.200
48777W        W10440   9.370  29.990   3.774
48778W        W10441  44.439   5.403   2.721
48779W        W10442   8.291  25.513  12.853
48780W        W10443  26.591   5.432   0.337
48781W        W10444  30.128  44.755   3.342
48782W        W10445  32.575  44.491  14.923
48783W        W10446   8.286  18.279  12.427
48784W        W10447  13.169  38.011   3.290
48785W        W10448   6.837  42.288   0.305
48786W        W10449   9.652   7.794   2.836
48787W        W10450  28.147  28.027   5.110
48788W        W10451  15.144  12.696  12.085
48789W        W10452  26.571  19.756  11.013
48790W        W10453   8.219  22.162  14.485
48791W        W10454  15.808   6.225  14.373
48792W        W10455   7.179  42.512  12.027
48793W        W10456  14.814  21.724   1.271
48794W        W10457   2.818   0.439   0.882
48795W        W10458  15.762  39.879  10.450
48796W        W10459  41.378  35.933  11.377
48797W        W10460  43.954   2.254   4.139
48798W        W10461  26.574  18.250   0.302
48799W        W10462  39.336  22.099   1.723
48800W        W10463  34.057  29.990  13.515
48801W        W10464  29.456  31.072   1.401
48802W        W10465  32.584  19.071   2.418
48803W        W10466  25.665  24.132  14.857
48804W        W10467  21.642  12.168  10.982
48805W        W10468   5.828  39.375   3.728
48806W        W10469   5.240   3.333   2.248
48807W        W10470  12.780  31.537   0.277
48808W        W10471  43.789  35.888  11.521
48809W        W10472   9.247   6.183  11.097
48810W        W10473  35.491  27.525  14.501
48811W        W10474  27.626  29.462   3.314
48812W        W10475  15.607  42.361   2.322
48813W        W10476  34.433  25.004   3.382
48814W        W10477   2.801  35.077  10.461
48815W        W10478  39.983  30.449   1.223
48816W        W10479  12.714   5.354  11.059
48817W        W10480  36.398  13.787  12.449
48818W        W10481  31.551  13.168  14.002
48819W        W10482  43.914  14.733   2.776
48820W        W10483  29.133  43.877  12.425
48821W        W10484   9.741  11.800   0.856
48822W        W10485  14.125  31.904   1.232
48823W        W10486  41.524  22.732   1.768
48824W        W10487   1.357  12.615   2.789
48825W        W10488  13.757  13.767   1.236
48826W        W10489  10.205   6.910  14.835
48827W        W10490  43.977  11.680   0.377
48828W        W10491   8.835  34.471   0.253
48829W        W10492  29.024  17.250   4.163
48830W        W10493  13.131  30.600   4.640
48831W        W10494  21.161  43.862  12.932
48832W        W10495  22.063  11.776  13.507
48833W        W10496  43.801  19.732  12.054
48834W        W10497   2.884  27.677   3.777
48835W        W10498  19.170  39.359  10.405
48836W        W10499  26.156  41.919  12.872
48837W        W10500  13.322  10.257   2.337
48838W        W10501  29.519  38.919  11.085
48839W        W10502  28.967  21.640  11.444
48840W        W10503  44.464  23.694   3.174
48841W        W10504  27.450  26.069  10.054
48842W        W10505  39.526  44.867   3.854
48843W        W10506  15.223  37.901   5.218
48844W        W10507  22.151  13.821  14.857
48845W        W10508  32.909  10.808   2.362
48846W        W10509  20.175  22.026  12.560
48847W        W10510  42.816  35.884   0.275
48848W        W10511  11.214  38.827  13.037
48849W        W10512  36.016   8.784  10.583
48850W        W10513  44.355   7.404   5.295
48851W        W10514  37.381  31.019  10.988
48852W        W10515   1.917  37.392   5.311
48853W        W10516  42.355  13.682  12.382
48854W        W10517  30.462  41.959  12.431
48855W        W10518  38.392  14.237  10.564
48856W        W10519  24.619  25.172   3.772
48857W        W10520  41.923  18.251   0.386
48858W        W10521  28.028  39.895   3.645
48859W        W10522   0.343  11.131  12.577
48860W        W10523  37.514  35.027  13.016
48861W        W10524   5.279  39.519   2.812
48862W        W10525  28.558  18.253   4.141
48863W        W10526  34.957  16.775  13.351
48864W        W10527   1.778   9.697  11.574
48865W        W10528   3.865  35.387  11.584
48866W        W10529  25.151  27.067  13.935
48867W        W10530  13.147  21.597  14.327
48868W        W10531   6.328  16.782   0.319
48869W        W10532  17.148  22.546  12.577
48870W        W10533  30.947  29.447  10.420
48871W        W10534  16.093  29.151  10.946
48872W        W10535  14.810  24.009  13.025
48873W        W10536   0.762  24.574   4.160
48874W        W10537  19.255  26.119   4.598
48875W        W10538  23.577  23.645   3.690
48876W        W10539  16.081  37.387   0.284
48877W        W10540  21.165   6.730  12.974
48878W        W10541  27.176   2.917   0.333
48879W        W10542  15.323  43.339  13.924
48880W        W10543  43.927   2.932   0.408
48881W        W10544  16.252  23.009   4.653
48882W        W10545   6.706  11.251  12.453
48883W        W10546  15.725  21.669  12.410
48884W        W10547  44.424  20.035  14.978
48885W        W10548  17.629  22.632   4.700
48886W        W10549  33.626  17.254   4.285
48887W        W10550  29.502  41.952  14.515
48888W        W10551   6.714  33.467  10.995
48889W        W10552  29.498  10.667  11.532
48890W        W10553  27.544  38.025  14.383
48891W        W10554  30.553  31.543  14.359
48892W        W10555  20.568   2.959   9.665
48893W        W10556  38.470  40.891   2.664
48894W        W10557  13.711  28.060  10.908
48895W        W10558   6.904  13.179   1.367
48896W        W10559  34.407   1.478   0.457
48897W        W10560  30.452  11.168   0.775
48898W        W10561  12.331  37.434  11.398
48899W        W10562  36.484  13.723  13.880
48900W        W10563  38.550  36.971   3.834
48901W        W10564  39.045  31.113  13.463
48902W        W10565  14.146  34.066  14.027
48903W        W10566  37.563  17.064  13.310
48904W        W10567  33.547  19.265   1.853
48905W        W10568  33.093  21.574   5.117
48906W        W10569  41.943  39.559  12.998
48907W        W10570   6.268  33.903   3.288
48908W        W10571   1.972  26.505   1.343
48909W        W10572  19.600   3.398   4.700
48910W        W10573   9.237  40.888  14.955
48911W        W10574   5.244  19.588   0.923
48912W        W10575  18.067  25.066   2.665
48913W        W10576  44.291  39.338   3.165
48914W        W10577   7.403  32.527   1.279
48915W        W10578  26.618  13.316   2.785
48916W        W10579  33.611  33.035  11.861
48917W        W10580  12.710   7.710  14.426
48918W        W10581   0.887  25.595  13.926
48919W        W10582  40.042  35.493   3.222
48920W        W10583  42.361   2.313   3.836
48921W        W10584   3.456  37.896   4.250
48922W        W10585  15.796  14.632   9.977
48923W        W10586  25.191  39.530  14.818
48924W        W10587  24.011  19.132  13.360
48925W        W10588   9.209   9.683   0.380
48926W        W10589  37.930   0.456  10.523
48927W        W10590  26.146  17.581  14.441
48928W        W10591  34.995   4.876  14.803
48929W        W10592  33.877  18.576   0.396
48930W        W10593  10.275   5.411   2.797
48931W        W10594  14.258   5.734  13.819
48932W        W10595  12.153   8.372   2.855
48933W        W10596  28.583  11.645  12.085
48934W        W10597  42.473  40.924   2.295
48935W        W10598  31.985  30.101  13.418
48936W        W10599  26.190  43.502  14.930
48937W        W10600   0.748  40.820  14.840
48938W        W10601  38.990  32.006   2.313
48939W        W10602  44.313  37.011  14.283
48940W        W10603   9.830   4.449  13.483
48941W        W10604   9.683  11.808  11.557
48942W        W10605  29.053  39.879   1.700
48943W        W10606  41.864   6.353  11.118
48944W        W10607  25.018  25.138  14.904
48945W        W10608  32.003  16.627   4.664
48946W        W10609  29.663  36.491  10.485
48947W        W10610  41.372  18.584   1.788
48948W        W10611  37.487  42.978  12.415
48949W        W10612  34.612  41.975  12.360
48950W        W10613  44.348  41.872   3.358
48951W        W10614  11.867  33.617  13.905
48952W        W10615  17.169   0.838  10.124
48953W        W10616   7.743  16.632  10.476
48954W        W10617   2.931  14.650  14.780
48955W        W10618  44.998  36.083   1.820
48956W        W10619  31.068  28.086  12.904
48957W        W10620  20.059  32.082   3.719
48958W        W10621  23.165  42.806  12.835
48959W        W10622   6.314   1.772   4.283
48960W        W10623  42.835  37.394  11.019
48961W        W10624  13.779  19.167   3.850
48962W        W10625   4.861  29.596   1.870
48963W        W10626  23.658   6.423  13.875
48964W        W10627  19.211  31.108  11.584
48965W        W10628   0.350   5.376  13.349
48966W        W10629   0.454  37.516   4.737
48967W        W10630  14.263  37.872  14.857
48968W        W10631  23.217  27.675   1.753
48969W        W10632  27.109  39.492  10.125
48970W        W10633  44.990   6.417  12.574
48971W        W10634  16.765  31.622  14.762
48972W        W10635  11.810  14.151   2.700
48973W        W10636  36.432  12.768  13.972
48974W        W10637  28.004  30.972  13.340
48975W        W10638   7.665  37.877   1.876
48976W        W10639  24.047  22.587   4.239
48977W        W10640  24.982  37.051  10.986
48978W        W10641  16.300  10.376   4.599
48979W        W10642   1.794   9.215   1.445
48980W        W10643  20.063  41.938   2.306
48981W        W10644  15.811   8.350   3.653
48982W        W10645  44.934  40.036   4.182
48983W        W10646  30.931  19.124   1.347
48984W        W10647   5.770   4.445   3.740
48985W        W10648   7.894  25.209  14.815
48986W        W10649  25.075  14.672   4.674
48987W        W10650  16.195  36.487   5.716
48988W        W10651  20.102  21.714  14.835
48989W        W10652  14.238  13.149  14.416
48990W        W10653  14.243  33.416  13.344
48991W        W10654   2.877  32.044  14.309
48992W        W10655  35.467   9.237  10.423
48993W        W10656  28.464  43.937   2.350
48994W        W10657  37.879  32.577  11.992
48995W        W10658  33.877  12.611   1.800
48996W        W10659   4.222   6.185  10.555
48997W        W10660  34.416   9.702   4.647
48998W        W10661  25.146   0.493   4.772
48999W        W10662  28.552  38.422   0.739
49000W        W10663  36.436  17.167   5.189
49001W        W10664  13.171  30.560   0.426
49002W        W10665  33.421   2.863   1.824
49003W        W10666  38.999   2.364  11.610
49004W        W10667  16.700   8.877   4.755
49005W        W10668  41.955  34.526  11.900
49006W        W10669  39.527  37.897   4.134
49007W        W10670   8.874  32.946  12.095
49008W        W10671   7.209  22.713  13.041
49009W        W10672  34.083  39.848   4.266
49010W        W10673  12.815  39.387   2.272
49011W        W10674   9.351  32.103   0.850
49012W        W10675  13.311   2.769   0.311
49013W        W10676  24.219  32.098   0.944
49014W        W10677  32.001   7.290  14.467
49015W        W10678  39.990  38.497   3.279
49016W        W10679  39.862  12.700   0.907
49017W        W10680   8.885  14.335   3.317
49018W        W10681   2.377  34.397   0.819
49019W        W10682  28.153  41.350   4.185
49020W        W10683  42.372  21.151  11.019
49021W        W10684  14.181  23.628  10.540
49022W        W10685   8.376  27.113  11.597
49023W        W10686  31.448  36.013  12.463
49024W        W10687  21.049  28.169  14.856
49025W        W10688  19.683   3.276  11.953
49026W        W10689  36.435  38.537  10.896
49027W        W10690  18.090  31.611   0.287
49028W        W10691   8.721  29.991  14.478
49029W        W10692  42.492  33.966   2.886
49030W        W10693  10.268  41.840  11.563
49031W        W10694  14.815  30.916  14.299
49032W        W10695  41.832  43.338  14.968
49033W        W10696  11.784  24.989  14.911
49034W        W10697  40.487  28.057  12.348
49035W        W10698  41.294  38.024   4.353
49036W        W10699   3.834  41.296   1.223
49037W        W10700  31.910  17.105   4.602
49038W        W10701  24.033   3.220   2.309
49039W        W10702  23.525   1.393  12.840
49040W        W10703  30.940   1.332  11.918
49041W        W10704  11.756  12.621   1.770
49042W        W10705   9.384  22.232   1.802
49043W        W10706  36.377  40.999   1.923
49044W        W10707  24.092  44.979   4.308
49045W        W10708  20.095  42.372   0.282
49046W        W10709  22.615  30.158  12.909
49047W        W10710  37.453  13.329   1.288
49048W        W10711   1.745   0.376   1.783
49049W        W10712  37.553  44.261  10.972
49050W        W10713   7.903   3.455   0.259
49051W        W10714   4.701   1.865  11.968
49052W        W10715   2.334  42.798   2.843
49053W        W10716  33.426  32.909   2.864
49054W        W10717  36.475  20.151   4.624
49055W        W10718   2.247  27.617  10.998
49056W        W10719  30.543   7.250   3.151
49057W        W10720  15.246   0.294  14.344
49058W        W10721   6.337   8.847   0.941
49059W        W10722  17.076  35.880   3.150
49060W        W10723  16.199  41.016  13.871
49061W        W10724   9.755  23.203   3.195
49062W        W10725   7.740  27.633   1.412
49063W        W10726  43.874  18.229   1.713
49064W        W10727  10.860  40.351   2.800
49065W        W10728  20.728  35.359  14.473
49066W        W10729   3.300  15.766  13.916
49067W        W10730  12.831  26.995   0.345
49068W        W10731  20.170  23.626  13.351
49069W        W10732   4.822   2.297  12.392
49070W        W10733   3.294  29.563   3.192
49071W        W10734   2.800   3.900  12.936
49072W        W10735  19.590  42.851   1.403
49073W        W10736  33.589   0.818   1.837
49074W        W10737  39.504   4.821   3.698
49075W        W10738  22.539  38.504   2.663
49076W        W10739  21.263  24.501   0.378
49077W        W10740   6.423  21.702  14.858
49078W        W10741  16.611  17.151   1.446
49079W        W10742   3.815  43.305  12.426
49080W        W10743  39.530  22.501  12.862
49081W        W10744   4.773   9.355  11.989
49082W        W10745   5.258  40.416   2.416
49083W        W10746  40.445  43.895   1.366
49084W        W10747  18.617  15.281  10.155
49085W        W10748  40.898  17.271  11.532
49086W        W10749  44.831  13.270   2.780
49087W        W10750   1.868  43.436  11.525
49088W        W10751   3.220  41.834  12.949
49089W        W10752  34.889  42.953  11.963
49090W        W10753   5.701  30.163   0.344
49091W        W10754  11.206  42.305   0.474
49092W        W10755   0.829  34.923   3.816
49093W        W10756   6.222  13.698   1.264
49094W        W10757   8.386  43.507  14.796
49095W        W10758  36.952  31.964  14.889
49096W        W10759  10.637  36.881   0.291
49097W        W10760   5.228  15.728   1.794
49098W        W10761   8.219  39.470  10.485
49099W        W10762   4.364  35.455   4.154
49100W        W10763  43.481  13.343   1.725
49101W        W10764   9.651  14.293  11.394
49102W        W10765   7.675  16.671   3.764
49103W        W10766   4.351  18.081   1.850
49104W        W10767   5.283   3.297   3.847
49105W        W10768  40.848  38.929   3.198
49106W        W10769  33.016  22.069   4.298
49107W        W10770   3.377  34.962  14.935
49108W        W10771  19.629  37.563   0.881
49109W        W10772  27.940  32.452  11.011
49110W        W10773  27.489  35.423   0.440
49111W        W10774  19.087  16.213   3.233
49112W        W10775  20.703  14.190   1.225
49113W        W10776  31.148  36.051  13.029
49114W        W10777  44.288   6.357  14.425
49115W        W10778  43.826  27.616  14.341
49116W        W10779  26.089  30.917   2.780
49117W        W10780  14.626  23.597  14.419
49118W        W10781  41.348  38.388  14.962
49119W        W10782  26.700  42.388  14.900
49120W        W10783  38.484  16.739  13.925
49121W        W10784  37.430  32.095  11.403
49122W        W10785  16.147  10.275   3.254
49123W        W10786   3.851  12.257   2.213
49124W        W10787  39.522  23.025   2.320
49125W        W10788  23.716  40.843   2.289
49126W        W10789   7.692   5.818   4.682
49127W        W10790  26.094  37.887   1.733
49128W        W10791  39.874  30.424  14.435
49129W        W10792  41.943  14.261   0.852
49130W        W10793  17.582  42.489   0.954
49131W        W10794  13.248   2.444  13.940
49132W        W10795  32.420   1.368   2.315
49133W        W10796  27.638  27.080  10.933
49134W        W10797   9.718  40.904  14.478
49135W        W10798  31.108  24.995  11.451
49136W        W10799  22.684  22.535   4.768
49137W        W10800  28.172  35.089  14.762
49138W        W10801  34.916   0.321   4.347
49139W        W10802  18.190  24.562  14.813
49140W        W10803   4.391  29.930   2.699
49141W        W10804  29.124   4.842   0.938
49142W        W10805  11.835  37.857  11.036
49143W        W10806  41.923   2.786   1.232
49144W        W10807  42.984   0.781   2.794
49145W        W10808  31.001   0.403  14.369
49146W        W10809   4.794  37.918   3.737
49147W        W10810   7.230  42.338  10.924
49148W        W10811   1.875  40.935  13.474
49149W        W10812   1.827  18.629  14.467
49150W        W10813  44.914  30.561   0.429
49151W        W10814  12.250  16.697  14.809
49152W        W10815   2.963  26.687   2.710
49153W        W10816  18.218   1.765  12.937
49154W        W10817   9.732  28.623   3.730
49155W        W10818  25.685  25.177   2.352
49156W        W10819  27.651  25.597  12.406
49157W        W10820  28.948   3.846   3.782
49158W        W10821  11.697   7.745  11.972
49159W        W10822   9.708  21.249  13.954
49160W        W10823   5.887   5.364  12.948
49161W        W10824  26.043   0.823  12.922
49162W        W10825  40.833  29.584   2.826
49163W        W10826  38.378  44.398  14.360
49164W        W10827  17.223  26.050  14.417
49165W        W10828  11.687  40.823   0.868
49166W        W10829  16.617  15.257   3.364
49167W        W10830   8.250   5.269   0.408
49168W        W10831  24.516  19.180   1.821
49169W        W10832  42.858  21.541   0.468
49170W        W10833  30.436  31.078  12.028
49171W        W10834  24.486  14.762   3.691
49172W        W10835  30.098  13.210   1.301
49173W        W10836  22.544  17.780  13.479
49174W        W10837  10.841   7.702   0.256
49175W        W10838  10.843   5.735  13.997
49176W        W10839  24.541  43.494  13.529
49177W        W10840  33.047  19.217  13.829
49178W        W10841  14.123  26.586  11.613
49179W        W10842   2.873  39.513  13.319
49180W        W10843  19.703   2.358  11.486
49181W        W10844  19.584  21.726   4.686
49182W        W10845   1.319  39.418   4.140
49183W        W10846   4.942  29.012  10.101
49184W        W10847  31.083  28.049   9.928
49185W        W10848  42.798  28.081   1.391
49186W        W10849  27.665  15.215  10.479
49187W        W10850  14.131  20.154  11.065
49188W        W10851   4.382  36.400   4.610
49189W        W10852   3.760  34.562  10.433
49190W        W10853   3.431   5.909  12.949
49191W        W10854   8.196  33.409   9.975
49192W        W10855  44.968  24.143   3.670
49193W        W10856  42.922  23.053   0.730
49194W        W10857  14.191  33.124  12.066
49195W        W10858  38.997  30.026   0.835
49196W        W10859  31.556  44.795  10.951
49197W        W10860  13.184  41.037   3.741
49198W        W10861  21.142   6.921   1.277
49199W        W10862  12.202   8.791  11.595
49200W        W10863  35.992  26.978   3.778
49201W        W10864  19.084  30.508   2.224
49202W        W10865   1.933   7.741  10.527
49203W        W10866  18.176   5.395  10.620
49204W        W10867  32.494  41.309   0.788
49205W        W10868  12.829  37.009   0.407
49206W        W10869  17.657   7.701  14.454
49207W        W10870  33.877  23.696  12.896
49208W        W10871   9.863   2.470   2.812
49209W        W10872  36.398  10.755  13.426
49210W        W10873   1.446  33.017   2.707
49211W        W10874   1.406  23.176  12.857
49212W        W10875   4.438  41.484   0.756
49213W        W10876  32.901  41.920   2.714
49214W        W10877  25.589   7.721  10.535
49215W        W10878  38.524  23.083  13.434
49216W        W10879  18.626  21.018  11.473
49217W        W10880  41.830   6.682   0.907
49218W        W10881  18.609  15.172   3.721
49219W        W10882   2.846  27.013   3.632
49220W        W10883  22.233  18.078  12.404
49221W        W10884   2.860   9.832  11.124
49222W        W10885   4.933  12.789   0.923
49223W        W10886  10.326  15.248  14.867
49224W        W10887  24.154   7.855  13.802
49225W        W10888  25.685   8.780  13.478
49226W        W10889   2.323  34.116   3.271
49227W        W10890  33.585  15.255   0.303
49228W        W10891  36.533  38.943   1.816
49229W        W10892   6.898   2.307  11.046
49230W        W10893  12.202  17.700   2.830
49231W        W10894  21.142  14.727  12.523
49232W        W10895  31.477  30.021  14.853
49233W        W10896  35.090  21.031  14.950
49234W        W10897   2.249   3.856  12.856
49235W        W10898  32.619  12.668   4.798
49236W        W10899  43.346   5.212  11.578
49237W        W10900  24.051  14.167   2.281
49238W        W10901  37.936  14.706  10.543
49239W        W10902  35.066  21.137  11.968
49240W        W10903  24.508  41.797   0.887
49241W        W10904   1.344  17.676   3.813
49242W        W10905   4.790  44.763   2.778
49243W        W10906  38.511   8.892   2.677
49244W        W10907  29.489  23.503  13.324
49245W        W10908  39.059  42.823  14.814
49246W        W10909   1.834  35.940  12.523
49247W        W10910  44.492   6.741   0.432
49248W        W10911  41.791   5.758   2.254
49249W        W10912  14.762  37.573  14.445
49250W        W10913  38.845  14.723   0.358
49251W        W10914  24.707  32.124   2.865
49252W        W10915   6.230  24.548  13.332
49253W        W10916  37.901  11.720  14.872
49254W        W10917  37.378  30.157   4.266
49255W        W10918   6.809  40.473   3.157
49256W        W10919  18.642  40.462   1.416
49257W        W10920  25.537   9.790   3.197
49258W        W10921   9.685  40.912   1.251
49259W        W10922  41.351  35.999  10.512
49260W        W10923  44.357  22.102   3.182
49261W        W10924  44.984  11.239  14.306
49262W        W10925   4.780  29.016  10.509
49263W        W10926  37.873   2.413   0.304
49264W        W10927   5.716  22.030  13.368
49265W        W10928   5.302  34.033   2.317
49266W        W10929  20.151  40.975  10.453
49267W        W10930  38.015  10.269   3.164
49268W        W10931  20.214   8.765  14.277
49269W        W10932  36.070   7.193  10.997
49270W        W10933   8.789   3.800  12.894
49271W        W10934  42.353  32.565  12.004
49272W        W10935  16.801  14.693   3.222
49273W        W10936   9.156   2.886  14.376
49274W        W10937  26.174   4.405   1.901
49275W        W10938   5.709  25.516   2.333
49276W        W10939  26.683  40.534   0.882
49277W        W10940  11.626  32.938  13.889
49278W        W10941  34.547  38.021   3.360
49279W        W10942  16.688  36.518   4.782
49280W        W10943  23.700  23.666   0.882
49281W        W10944  35.536  24.662  14.376
49282W        W10945   3.271   7.809   1.401
49283W        W10946  13.218  39.549   1.924
49284W        W10947  12.696  21.055   2.358
49285W        W10948  24.608  30.612  10.480
49286W        W10949   2.898  25.608  12.922
49287W        W10950  19.249   8.662  14.463
49288W        W10951   4.809   0.817  13.946
49289W        W10952  34.478  19.692   2.381
49290W        W10953  34.867  21.627  12.539
49291W        W10954  38.866  34.990   4.682
49292W        W10955  40.835  10.728   0.395
49293W        W10956   8.406   3.230  10.910
49294W        W10957  25.655  16.113   2.823
49295W        W10958   2.300  44.475   5.243
49296W        W10959  18.239   3.951  13.922
49297W        W10960  27.981  17.064  14.386
49298W        W10961  10.806  32.931   4.159
49299W        W10962  36.519  32.121   3.664
49300W        W10963  38.570  32.122   3.380
49301W        W10964  42.395  21.235  13.486
49302W        W10965  12.171  32.020  13.484
49303W        W10966  44.987  39.930   2.873
49304W        W10967  19.694  11.665   1.731
49305W        W10968  37.476  10.163  14.999
49306W        W10969  14.643  41.363  10.999
49307W        W10970  35.432  32.443  14.926
49308W        W10971  16.296  15.813   0.407
49309W        W10972  28.073  28.494  13.443
49310W        W10973  41.842  27.084   3.683
49311W        W10974  21.718  41.507   2.736
49312W        W10975   3.801  28.610   4.647
49313W        W10976   8.243  19.737   1.417
49314W        W10977  19.152  17.209  13.503
49315W        W10978  43.850  10.853   4.669
49316W        W10979  12.312  42.498  11.894
49317W        W10980  42.491   0.422   0.897
49318W        W10981  38.058  18.112   4.699
49319W        W10982  34.440  34.549   3.154
49320W        W10983  25.663  37.968  10.407
49321W        W10984  10.215  13.812   4.341
49322W        W10985   9.384  33.612   0.903
49323W        W10986   5.864  11.811   4.610
49324W        W10987  36.411   4.781   4.735
49325W        W10988  43.966  28.092  10.597
49326W        W10989  22.088  14.186  12.062
49327W        W10990  41.387  38.019  13.381
49328W        W10991   9.688  41.007   3.858
49329W        W10992  19.153  10.240  14.442
49330W        W10993  27.122  18.112   4.336
49331W        W10994   0.917  12.783  11.514
49332W        W10995  38.460   5.202  13.035
49333W        W10996   9.827   0.264   2.324
49334W        W10997  25.583   7.341  14.295
49335W        W10998  12.289  27.177   2.257
49336W        W10999  18.178  43.988   4.723
49337W        W11000  33.103  33.450  11.508
49338W        W11001  13.231   1.295   1.899
49339W        W11002  30.037  25.106  11.590
49340W        W11003  37.883  17.668   1.382
49341W        W11004  35.970  12.174   0.947
49342W        W11005   8.854  23.112   0.351
49343W        W11006  43.309  24.548  14.282
49344W        W11007  15.765  36.900   3.347
49345W        W11008  14.639  20.576   3.640
49346W        W11009  19.685  41.521  14.796
49347W        W11010   9.853  26.100  11.476
49348W        W11011  42.298  17.160  11.461
49349W        W11012  14.592   6.803  12.898
49350W        W11013  11.824  36.898   0.468
49351W        W11014  42.854  36.392  12.406
49352W        W11015  10.303  16.783   2.876
49353W        W11016  12.702  20.737  11.030
49354W        W11017  39.334  22.591  14.031
49355W        W11018  14.801  39.447  11.529
49356W        W11019  15.283  35.895  10.580
49357W        W11020   5.292  12.186  13.366
49358W        W11021  16.674  27.075  12.962
49359W        W11022  32.141  35.891  14.981
49360W        W11023  15.207  20.148   2.189
49361W        W11024  31.065  11.187   3.232
49362W        W11025   6.342  36.411  13.793
49363W        W11026   5.859  18.267  14.017
49364W        W11027  42.814  24.721  12.922
49365W        W11028  12.241  11.264  12.410
49366W        W11029   2.355  30.643  14.918
49367W        W11030  22.656  19.276   0.371
49368W        W11031   2.888  40.800  12.460
49369W        W11032  21.685  34.493  14.319
49370W        W11033   2.257   8.212   3.196
49371W        W11034  37.372  36.082  11.464
49372W        W11035  33.883   1.417   2.248
49373W        W11036  21.246  28.620  12.828
49374W        W11037   3.329  34.869   1.353
49375W        W11038  17.180  21.048  14.875
49376W        W11039   7.248   2.415   2.739
49377W        W11040  41.944  42.430   1.280
49378W        W11041  13.301  31.104   1.358
49379W        W11042  12.744  20.595   3.205
49380W        W11043  40.309  11.208   0.413
49381W        W11044   4.744  44.856  13.997
49382W        W11045  15.638  30.942   3.763
49383W        W11046  30.048  19.578   2.377
49384W        W11047  35.854  32.010   1.229
49385W        W11048  11.767  11.327   1.371
49386W        W11049   2.368  42.876  13.352
49387W        W11050  27.961  30.573  13.835
49388W        W11051  25.559  14.614   4.355
49389W        W11052  16.135  33.984   2.662
49390W        W11053   5.770  35.543   4.684
49391W        W11054   6.856  11.741  11.435
49392W        W11055   4.330  44.753  14.836
49393W        W11056   3.764  10.346   3.155
49394W        W11057  37.574  15.699   3.280
49395W        W11058  17.612  21.754  13.381
49396W        W11059  29.618  18.737   1.290
49397W        W11060  20.762  34.118  13.979
49398W        W11061  40.916  20.222  11.936
49399W        W11062  22.120  37.481   2.711
49400W        W11063  27.144  22.226   4.263
49401W        W11064  26.517  19.228  10.912
49402W        W11065  43.005   2.730  14.366
49403W        W11066  11.774  22.155   2.665
49404W        W11067  34.464  40.380  11.060
49405W        W11068  10.644  32.514   4.650
49406W        W11069  39.879   6.343  14.789
49407W        W11070  33.881  39.354   4.138
49408W        W11071   2.849   0.769  12.409
49409W        W11072   8.231  26.166  12.966
49410W        W11073  18.785  39.040  11.529
49411W        W11074  31.067  11.755   0.405
49412W        W11075  33.958   5.844   2.234
49413W        W11076  44.945  12.276   5.102
49414W        W11077  38.932  39.832   1.705
49415W        W11078  29.036  41.530  14.883
49416W        W11079  39.470  42.832   4.323
49417W        W11080   9.245  26.604   0.284
49418W        W11081  35.958  27.177  11.455
49419W        W11082  16.083  31.906  11.959
49420W        W11083  35.382  30.607   3.686
49421W        W11084  44.986  12.211  12.018
49422W        W11085  11.647   4.313   1.839
49423W        W11086  40.045  11.300  11.892
49424W        W11087  28.556  25.640   0.961
49425W        W11088  13.186  23.677  11.877
49426W        W11089  12.614  26.960   4.187
49427W        W11090  10.672  22.121   0.834
49428W        W11091  20.624   0.352   3.147
49429W        W11092  10.353  36.091  13.970
49430W        W11093  21.687  38.438  11.962
49431W        W11094  43.440  23.517   1.758
49432W        W11095  41.522  15.603  14.932
49433W        W11096  35.909  41.449   0.383
49434W        W11097  20.759  44.476  10.937
49435W        W11098  15.103   9.808   1.267
49436W        W11099   4.845  11.214  11.456
49437W        W11100  24.699  10.777  13.397
49438W        W11101  15.820  16.238   3.347
49439W        W11102   6.389  19.572  14.803
49440W        W11103  28.951  38.523  12.386
49441W        W11104   9.242  13.344   1.351
49442W        W11105   9.279  20.708  11.063
49443W        W11106  37.469  34.614  12.414
49444W        W11107  40.859   2.870  12.825
49445W        W11108  39.052  21.608   3.369
49446W        W11109  33.519  26.144  12.522
49447W        W11110   0.892   6.843  13.002
49448W        W11111   5.213  22.739  14.474
49449W        W11112  33.933  23.566  12.497
49450W        W11113  40.024  15.158  11.933
49451W        W11114  28.994  37.060   1.905
49452W        W11115  10.842  41.347   0.245
49453W        W11116   1.869  31.129  10.925
49454W        W11117   2.376  22.503  12.934
49455W        W11118  44.781  40.879  12.865
49456W        W11119  19.562  10.641   4.747
49457W        W11120  11.332   0.938  13.462
49458W        W11121  17.090  28.509   2.799
49459W        W11122  18.282   4.839  13.002
49460W        W11123  41.435  21.676  11.476
49461W        W11124   2.774   9.152   0.772
49462W        W11125  22.114  25.547   1.699
49463W        W11126  36.090  32.068   2.897
49464W        W11127  35.005  29.167   1.788
49465W        W11128  15.257  31.937   3.843
49466W        W11129   3.225  34.966  12.355
49467W        W11130  23.704   5.735   0.299
49468W        W11131   6.420  32.607   0.906
49469W        W11132  44.274  19.130   1.932
49470W        W11133  25.514  26.088   0.844
49471W        W11134  13.108  40.971   0.251
49472W        W11135  14.734  13.107   1.903
49473W        W11136  17.170  16.212   9.942
49474W        W11137  37.383   0.888   1.886
49475W        W11138  12.852  27.001  14.942
49476W        W11139  13.656  12.207  10.890
49477W        W11140  35.868  36.896  11.889
49478W        W11141  35.417  36.457   0.453
49479W        W11142   2.921   8.390  11.536
49480W        W11143  13.688  29.519   0.780
49481W        W11144   9.777  39.367   3.295
49482W        W11145  32.919  36.579  10.888
49483W        W11146  14.829  39.423  13.914
49484W        W11147  42.905   8.334   4.214
49485W        W11148   5.907   4.877   3.832
49486W        W11149   5.329  18.685   3.704
49487W        W11150  21.549   9.688   3.856
49488W        W11151  16.284   7.895  13.827
49489W        W11152   7.884  35.411   2.362
49490W        W11153   8.749  24.631  11.874
49491W        W11154  36.411  42.515   2.277
49492W        W11155  30.948  32.465  13.467
49493W        W11156   7.197  28.009   4.340
49494W        W11157   9.874  11.773   3.702
49495W        W11158  21.725   5.304  14.955
49496W        W11159  39.060  38.475   4.755
49497W        W11160  24.621  33.957   1.232
49498W        W11161  28.648  26.964   3.252
49499W        W11162  10.218  15.735  14.375
49500W        W11163  37.381  27.473   0.771
49501W        W11164   9.723  25.587  12.037
49502W        W11165   4.708  37.850   4.145
49503W        W11166  19.269  41.517  11.994
49504W        W11167   5.423  22.064   1.908
49505W        W11168  28.006   4.787   1.933
49506W        W11169  32.073  26.598  14.006
49507W        W11170  37.927  24.637  12.446
49508W        W11171   1.255   2.451   3.725
49509W        W11172  23.089  21.056  10.623
49510W        W11173  16.312  31.435   4.785
49511W        W11174  32.412  29.554  12.054
49512W        W11175   9.173  24.555   1.317
49513W        W11176  18.199  20.591   1.285
49514W        W11177   1.331   2.847   4.183
49515W        W11178   9.881  27.571   0.930
49516W        W11179  24.221   3.321  11.505
49517W        W11180  11.342   3.811   0.863
49518W        W11181  25.677  15.806  12.851
49519W        W11182  14.777  14.677   3.835
49520W        W11183  37.926  41.391   2.693
49521W        W11184  40.965  19.740   0.903
49522W        W11185  41.894  31.017  11.579
49523W        W11186  10.803   9.848  12.407
49524W        W11187  42.855  39.511  14.025
49525W        W11188  18.279  13.748   2.726
49526W        W11189  43.837   4.215  14.762
49527W        W11190   6.679  12.842   3.711
49528W        W11191  10.771   4.220  10.424
49529W        W11192  20.125  44.888  12.891
49530W        W11193  12.223  43.014  14.891
49531W        W11194  20.156  11.348   4.269
49532W        W11195  41.389  37.464   3.692
49533W        W11196   5.924  16.095   1.238
49534W        W11197   5.297  19.559   2.195
49535W        W11198  13.261  13.768  13.364
49536W        W11199   5.209   9.708  14.020
49537W        W11200  18.290  11.249  12.919
49538W        W11201  40.842   9.733  14.989
49539W        W11202   5.845  23.023  14.391
49540W        W11203  23.088  34.041   1.742
49541W        W11204  16.157  41.367   4.342
49542W        W11205  14.717  12.287   3.835
49543W        W11206  26.057  13.683  12.958
49544W        W11207  27.528  38.559   1.233
49545W        W11208  12.175  32.926  12.538
49546W        W11209  40.314  19.580  11.523
49547W        W11210  22.572   6.691  14.310
49548W        W11211  30.026  19.132   4.789
49549W        W11212   0.357  12.349   0.350
49550W        W11213   8.291  22.739  12.479
49551W        W11214  29.604  12.179   4.687
49552W        W11215   4.289  12.674  11.050
49553W        W11216  23.059  41.979  11.975
49554W        W11217  13.175  33.429  14.877
49555W        W11218   6.257  42.002   4.697
49556W        W11219   2.870  26.690  10.568
49557W        W11220  36.949  28.562  12.058
49558W        W11221  18.635  11.766   0.398
49559W        W11222  25.104  37.846   0.305
49560W        W11223  12.255  13.685   2.284
49561W        W11224  21.034  18.714   5.321
49562W        W11225  25.507  15.311  14.514
49563W        W11226  34.916  18.601  11.569
49564W        W11227  23.669  44.805   3.193
49565W        W11228   7.271  31.614  10.547
49566W        W11229  32.519  40.534   4.246
49567W        W11230   1.873  18.286  12.480
49568W        W11231   7.766  33.525  13.871
49569W        W11232  11.238  44.363  13.322
49570W        W11233  20.647   8.743  13.362
49571W        W11234  25.556  31.036   2.215
49572W        W11235  15.264   1.769   2.756
49573W        W11236   8.381  13.830  14.310
49574W        W11237  34.992   0.867   0.319
49575W        W11238  10.706  41.312  12.923
49576W        W11239  38.480  26.611  13.797
49577W        W11240  11.234  40.334   2.358
49578W        W11241  10.644  40.437   1.280
49579W        W11242  29.515  33.410   4.720
49580W        W11243  28.639  37.498  12.028
49581W        W11244  33.509  23.048  12.869
49582W        W11245   4.702  41.398  12.869
49583W        W11246  17.574  28.673   2.704
49584W        W11247  32.933  15.816  11.547
49585W        W11248  42.329  37.399  13.946
49586W        W11249  22.654  22.740   4.275
49587W        W11250  20.694   6.903  14.516
49588W        W11251   6.780  34.426   0.962
49589W        W11252   1.975  27.540   2.808
49590W        W11253  23.174  25.182   3.666
49591W        W11254  29.126  43.390  11.410
49592W        W11255  35.953  40.469   3.188
49593W        W11256  38.024  33.397  10.536
49594W        W11257  33.989  40.315   2.210
49595W        W11258  32.601   6.207  12.533
49596W        W11259  26.102  43.857   1.296
49597W        W11260  43.414   5.792  12.499
49598W        W11261   4.943  18.735  11.971
49599W        W11262  24.163  29.162  12.488
49600W        W11263  18.615  43.434  12.895
49601W        W11264  17.636  23.221  13.332
49602W        W11265  19.576  25.023   4.345
49603W        W11266  30.996  32.068  12.914
49604W        W11267  44.757  17.202   2.303
49605W        W11268  14.798  12.660   4.776
49606W        W11269  25.677  37.349  11.553
49607W        W11270  13.292  26.470  11.022
49608W        W11271   2.425   7.875  12.519
49609W        W11272   2.872   7.276   1.744
49610W        W11273  20.106   5.800   2.410
49611W        W11274  17.189  22.637   5.134
49612W        W11275  35.469  22.677  10.594
49613W        W11276   2.442  26.012  11.435
49614W        W11277   1.817  11.291  14.280
49615W        W11278   9.712   9.790   2.230
49616W        W11279  33.039  19.156   3.685
49617W        W11280  34.056   2.444  13.939
49618W        W11281  22.187  29.478   3.670
49619W        W11282   2.765  30.512  12.416
49620W        W11283  25.060   2.377  12.873
49621W        W11284  44.281  34.053  13.049
49622W        W11285  13.138   3.719  10.513
49623W        W11286  34.075   9.766   1.318
49624W        W11287  10.218  25.618  12.352
49625W        W11288  35.592  42.925  11.946
49626W        W11289  23.618  42.472  11.403
49627W        W11290  38.068   2.830   4.249
49628W        W11291  23.230  13.807   0.430
49629W        W11292  19.249  29.431   1.317
49630W        W11293  19.170  24.673  12.441
49631W        W11294  31.090   0.318  12.957
49632W        W11295  26.122  12.750  13.805
49633W        W11296  23.220  24.105   2.262
49634W        W11297  42.843  30.060   0.480
49635W        W11298  20.570   5.260   2.849
49636W        W11299  25.696  35.945  12.463
49637W        W11300  32.401  22.092  13.420
49638W        W11301  32.966   0.942   1.780
49639W        W11302  42.830  31.024   3.752
49640W        W11303  43.494  14.147   2.358
49641W        W11304  26.572  24.216   3.681
49642W        W11305  34.090  36.361  11.589
49643W        W11306   4.243  39.985  12.481
49644W        W11307  34.580  22.152  14.787
49645W        W11308  44.485  37.895  13.421
49646W        W11309   4.322  17.165  12.409
49647W        W11310  39.026  22.684  11.612
49648W        W11311   3.785  13.808   4.727
49649W        W11312  22.026   0.384   0.334
49650W        W11313  19.216  29.605   0.426
49651W        W11314  10.289  25.565  14.372
49652W        W11315  17.103  26.682   0.783
49653W        W11316  28.062  31.108   2.851
49654W        W11317  33.948  14.239   4.640
49655W        W11318   9.868  44.328  11.420
49656W        W11319  22.585   2.905   1.409
49657W        W11320  27.960   0.421   4.347
49658W        W11321  31.629  32.422  10.600
49659W        W11322   7.879  17.133   0.727
49660W        W11323  33.063  25.608  12.552
49661W        W11324  18.785   7.219   1.739
49662W        W11325   9.734  40.942   4.838
49663W        W11326  38.912   3.751  14.350
49664W        W11327   8.328  15.730  13.350
49665W        W11328   1.475  31.003   2.294
49666W        W11329   4.802  26.005  12.032
49667W        W11330  17.104  43.928   1.918
49668W        W11331   4.923  31.632   3.635
49669W        W11332  20.171  14.617   1.339
49670W        W11333  41.021  41.527   2.850
49671W        W11334  27.181   4.221   4.737
49672W        W11335   3.435  44.339  11.381
49673W        W11336  34.101   6.329   1.740
49674W        W11337  10.770  17.132  13.064
49675W        W11338  31.606  14.691  11.060
49676W        W11339  39.316  29.646  10.435
49677W        W11340  21.706  15.656  10.601
49678W        W11341  18.704  16.310   3.162
49679W        W11342  24.719  41.026   5.756
49680W        W11343   1.443   7.219   4.321
49681W        W11344  18.255  15.180  14.787
49682W        W11345  16.625  16.309   2.201
49683W        W11346  27.541  20.073  13.365
49684W        W11347  29.430  36.528   1.893
49685W        W11348  41.016  13.660  13.338
49686W        W11349  30.647  14.609   2.353
49687W        W11350  19.630  32.632  14.328
49688W        W11351  43.359  20.680  10.600
49689W        W11352  11.844  42.337  14.009
49690W        W11353  42.819  17.304  12.030
49691W        W11354  30.112  43.903  11.877
49692W        W11355   9.646  21.621   0.472
49693W        W11356  30.124  33.064  11.044
49694W        W11357  12.843  39.981   0.883
49695W        W11358  18.179  42.903   2.764
49696W        W11359   0.479   1.247  10.539
49697W        W11360  14.157  20.553  13.973
49698W        W11361   9.153  11.855  12.891
49699W        W11362  33.901  18.574   1.738
49700W        W11363  16.098  27.977   0.417
49701W        W11364   0.748  18.582  14.967
49702W        W11365  27.552  38.566  13.896
49703W        W11366  44.268  10.268   2.761
49704W        W11367  35.016   8.709  11.383
49705W        W11368  42.938  44.808  13.501
49706W        W11369   4.312  42.356   4.121
49707W        W11370  42.821  38.365   4.773
49708W        W11371   2.911  20.252   1.309
49709W        W11372   8.174  33.955  12.413
49710W        W11373  18.113  24.487   2.216
49711W        W11374   5.325  34.581   2.838
49712W        W11375  40.508   4.786   3.323
49713W        W11376  41.434  19.730   2.867
49714W        W11377  43.886  39.437  12.398
49715W        W11378  25.219  16.751  12.577
49716W        W11379  32.057  33.964  14.415
49717W        W11380  15.229  11.806   3.269
49718W        W11381  28.445  42.875  10.139
49719W        W11382  37.005  32.461  11.575
49720W        W11383  33.131  43.954   2.405
49721W        W11384  12.146  34.931   2.676
49722W        W11385  37.454  30.125  12.369
49723W        W11386  42.363  33.457  11.413
49724W        W11387  36.062  25.472  10.903
49725W        W11388  10.660   1.372   1.710
49726W        W11389  19.690  40.521   1.926
49727W        W11390  32.032  25.485  12.484
49728W        W11391  41.446  17.260   2.376
49729W        W11392   7.852  16.615  12.868
49730W        W11393  29.451   3.750  12.508
49731W        W11394  15.128  15.693  11.581
49732W        W11395  27.194  27.686   4.324
49733W        W11396  26.075  41.006  14.016
49734W        W11397  16.580   7.216  14.839
49735W        W11398  42.523  36.407  11.503
49736W        W11399  19.758  20.642   4.792
49737W        W11400  28.107  26.075   4.150
49738W        W11401  16.185  15.712  13.019
49739W        W11402  43.393  22.155   3.160
49740W        W11403  42.936   5.785  12.524
49741W        W11404   6.409  23.189   2.245
49742W        W11405  25.011  26.014  11.417
49743W        W11406  28.032  32.395   0.410
49744W        W11407   1.947  30.651  14.316
49745W        W11408  42.952   1.752  14.795
49746W        W11409  25.519  31.965   2.772
49747W        W11410  29.952  21.149   1.743
49748W        W11411  14.765  39.489  13.336
49749W        W11412   7.415  43.407   2.349
49750W        W11413  26.648  14.737   5.089
49751W        W11414  25.616  40.512  14.773
49752W        W11415   4.863  17.064  13.821
49753W        W11416  38.414  18.738  10.488
49754W        W11417  44.490  22.521  14.003
49755W        W11418  29.578  39.887   3.205
49756W        W11419  26.966   2.891  13.013
49757W        W11420  39.349  44.004  13.796
49758W        W11421  23.618  13.247  13.881
49759W        W11422  16.108  28.488   0.284
49760W        W11423   9.355  23.524   2.782
49761W        W11424  13.808  17.652   0.479
49762W        W11425  15.218  12.635   0.781
49763W        W11426  37.959  26.670   3.275
49764W        W11427  27.054  19.536  12.560
49765W        W11428  24.213   6.310  14.776
49766W        W11429  13.816   4.762   2.784
49767W        W11430  28.041  23.003  12.384
49768W        W11431  24.701  22.079  12.556
49769W        W11432   4.845  35.994   2.778
49770W        W11433  13.219  37.905   1.262
49771W        W11434  43.354  41.443   4.821
49772W        W11435  38.837  21.024  12.991
49773W        W11436   0.892  39.932   4.770
49774W        W11437  26.476   3.923  12.027
49775W        W11438   2.331  36.058   2.377
49776W        W11439  42.913  23.734  12.530
49777W        W11440   7.708   6.839   1.847
49778W        W11441  24.075  40.363  10.887
49779W        W11442  25.654  24.198  10.491
49780W        W11443   8.884   5.242  12.926
49781W        W11444  40.019  21.057  13.508
49782W        W11445  42.929  40.486  13.833
49783W        W11446   2.854  19.080   3.846
49784W        W11447  14.122  13.292  14.818
49785W        W11448   6.716   2.263   1.727
49786W        W11449   3.279  42.921   4.189
49787W        W11450  20.209   3.445   4.117
49788W        W11451  19.213   4.709  13.954
49789W        W11452  44.793  31.525   3.213
49790W        W11453  41.538   8.324  14.928
49791W        W11454  31.537  22.235  11.610
49792W        W11455  11.774  29.115   4.816
49793W        W11456  32.495  40.812  13.418
49794W        W11457  29.067  16.210   0.282
49795W        W11458  14.810   8.803   4.260
49796W        W11459  29.583   4.728  10.092
49797W        W11460  32.510  11.247  12.573
49798W        W11461  28.131  24.146   0.897
49799W        W11462  25.141   1.889  11.090
49800W        W11463   9.263  35.602  12.909
49801W        W11464  11.704  11.304   1.884
49802W        W11465  21.643  30.537   4.150
49803W        W11466  32.505  21.247  14.342
49804W        W11467   5.436  44.494  11.104
49805W        W11468  38.331  10.775   1.816
49806W        W11469  20.655   0.845   2.381
49807W        W11470   3.400  16.592   4.329
49808W        W11471  28.520  16.642   4.647
49809W        W11472  26.574  28.050   1.286
49810W        W11473  33.417  12.329  14.421
49811W        W11474  27.558  44.885   2.336
49812W        W11475  42.403  12.216  14.031
49813W        W11476   8.744  36.929  11.978
49814W        W11477  10.156  22.018   2.797
49815W        W11478   3.243  37.378  11.980
49816W        W11479  39.486   1.441   3.864
49817W        W11480  19.234   9.864  13.866
49818W        W11481  20.643  12.620  11.964
49819W        W11482  44.948   9.687   0.387
49820W        W11483  17.171   3.450   3.331
49821W        W11484  40.358  10.195   3.345
49822W        W11485  37.519   8.245  13.415
49823W        W11486  42.954  11.287   4.727
49824W        W11487  14.228  14.193   0.276
49825W        W11488   9.816  36.416  14.886
49826W        W11489  23.077  36.467   1.777
49827W        W11490  29.654   9.883   2.857
49828W        W11491  24.107  44.770  14.406
49829W        W11492  40.414  40.963  10.615
49830W        W11493  42.913  13.178   2.792
49831W        W11494   6.214  23.183  12.024
49832W        W11495  12.721  10.160   1.290
49833W        W11496  17.208  11.357   2.306
49834W        W11497  30.439  43.478  13.867
49835W        W11498  27.474  11.316   4.242
49836W        W11499  37.456  15.278  13.484
49837W        W11500  24.011  17.170  11.471
49838W        W11501  31.068   6.210   2.346
49839W        W11502   4.263  31.545   2.313
49840W        W11503  40.924  21.178  14.418
49841W        W11504   0.867  28.575   4.678
49842W        W11505  13.726  32.443  11.940
49843W        W11506  29.097  17.584   1.795
49844W        W11507   1.756  40.524  11.520
49845W        W11508  43.412  34.977  11.914
49846W        W11509  21.165   3.924   3.279
49847W        W11510  15.095  18.615  13.523
49848W        W11511  26.519  14.810   1.906
49849W        W11512  41.819  35.445   0.400
49850W        W11513  32.400   9.341  10.462
49851W        W11514   3.343   4.820   1.886
49852W        W11515  22.741  35.945   1.332
49853W        W11516   8.239  10.844   1.854
49854W        W11517  10.716   0.923  13.529
49855W        W11518  39.527  10.839   1.935
49856W        W11519   4.433  38.404  10.437
49857W        W11520   6.342  22.594   0.351
49858W        W11521  29.429  30.440   0.310
49859W        W11522  12.738  13.678   1.890
49860W        W11523  31.405   9.253  13.451
49861W        W11524  38.831  35.485  14.448
49862W        W11525   7.678  35.004  10.023
49863W        W11526  14.595  11.835  12.442
49864W        W11527  31.968  34.538   3.215
49865W        W11528  17.629   2.246  11.568
49866W        W11529  44.272  23.112  11.100
49867W        W11530  10.679  44.792   2.677
49868W        W11531   0.300  23.237   4.620
49869W        W11532  35.922  35.915   0.358
49870W        W11533  18.249   4.801  10.422
49871W        W11534  11.345  11.331  12.391
49872W        W11535  13.666  26.696  10.088
49873W        W11536  42.499  30.112  12.549
49874W        W11537   6.913  25.002   3.788
49875W        W11538  42.847  12.856   2.235
49876W        W11539  20.186  33.973   2.187
49877W        W11540  42.941  11.292   1.804
49878W        W11541  14.112  13.663   2.698
49879W        W11542  33.130  44.267  11.563
49880W        W11543  20.190  12.757   1.375
49881W        W11544  32.472  11.197  10.426
49882W        W11545  21.167   6.335   2.703
49883W        W11546  40.855  18.079  12.985
49884W        W11547  29.976  25.997  10.516
49885W        W11548  18.292  32.424   0.309
49886W        W11549  28.041  15.747   3.689
49887W        W11550  18.635  26.525   4.757
49888W        W11551  27.617  35.922   3.717
49889W        W11552  15.796  41.844   1.747
49890W        W11553  39.434  38.537   4.622
49891W        W11554  21.109  32.546  13.544
49892W        W11555   7.799  11.291   2.416
49893W        W11556  26.627  16.787  12.015
49894W        W11557  18.614  14.340   3.822
49895W        W11558   2.776  13.693   0.920
49896W        W11559   9.683  11.295  12.863
49897W        W11560  42.347  11.272  10.620
49898W        W11561  30.108   7.873  12.924
49899W        W11562  27.126  41.335   3.733
49900W        W11563  43.426  30.973   3.738
49901W        W11564  23.051  16.638   2.194
49902W        W11565  44.353  21.535   2.220
49903W        W11566   8.206  31.120   2.795
49904W        W11567  14.213  32.051  12.953
49905W        W11568  35.080   4.792   4.309
49906W        W11569   0.405  29.604  13.913
49907W        W11570  26.064  39.038   4.814
49908W        W11571   1.369  42.788  14.291
49909W        W11572  16.315  10.787   3.243
49910W        W11573   1.346  43.275   0.335
49911W        W11574  34.393  28.557   3.170
49912W        W11575  41.827  44.851  10.568
49913W        W11576   2.346  30.986   0.832
49914W        W11577   8.665  21.101  10.420
49915W        W11578  34.388  30.598  12.564
49916W        W11579  27.080  24.202  12.961
49917W        W11580  23.009   1.859   3.226
49918W        W11581  16.271  44.902   3.384
49919W        W11582  25.647   5.231   4.687
49920W        W11583  28.531  35.860   3.809
49921W        W11584   4.805  10.191   1.249
49922W        W11585  20.207  16.103   2.664
49923W        W11586  11.818  36.980  10.128
49924W        W11587  36.032  19.742   0.319
49925W        W11588   0.375   4.379  10.641
49926W        W11589  34.406  20.211  11.982
49927W        W11590  24.633   0.952   2.392
49928W        W11591  17.275  16.633   3.344
49929W        W11592   6.233   5.262   3.215
49930W        W11593  33.080   9.780   2.794
49931W        W11594  43.432  29.640   1.918
49932W        W11595  31.905  12.257  10.491
49933W        W11596   6.227   8.228   4.208
49934W        W11597  17.299   5.277   1.445
49935W        W11598   5.794   7.202   4.825
49936W        W11599  17.736  11.352  13.012
49937W        W11600  25.041   8.755   3.151
49938W        W11601  32.433  26.112   4.605
49939W        W11602  18.071  11.168   2.727
49940W        W11603  12.322  21.053  13.004
49941W        W11604  22.234  39.490   0.313
49942W        W11605  27.177   9.791  11.985
49943W        W11606   5.752  15.314  10.897
49944W        W11607  27.527   2.947  12.004
49945W        W11608  38.822  35.538   9.982
49946W        W11609  33.034  21.151   3.161
49947W        W11610  36.410  33.600  13.858
49948W        W11611  19.780   8.678  12.513
49949W        W11612  23.081  22.610   2.700
49950W        W11613  13.803  38.563   2.355
49951W        W11614  38.065  20.695  11.496
49952W        W11615  18.569  34.561  13.878
49953W        W11616  26.097  34.423  12.475
49954W        W11617   1.970  19.673  14.965
49955W        W11618  35.094  30.147   2.783
49956W        W11619  24.722  37.463  14.952
49957W        W11620   2.731  27.478  12.892
49958W        W11621   9.653  35.565   4.165
49959W        W11622  22.081   2.892   1.253
49960W        W11623  31.629   4.705   4.620
49961W        W11624  22.740  15.766  14.818
49962W        W11625  14.263   9.235  13.934
49963W        W11626  42.950  30.413  14.884
49964W        W11627  20.056   8.853  13.544
49965W        W11628  18.081  31.074  12.563
49966W        W11629  18.169  31.515   2.795
49967W        W11630  29.627  39.392   2.751
49968W        W11631  39.440  37.960  14.848
49969W        W11632  18.634   8.185   4.611
49970W        W11633  26.598  23.016  13.892
49971W        W11634  37.851   1.731   0.914
49972W        W11635  17.738  21.545  14.328
49973W        W11636  23.586  16.311   4.312
49974W        W11637  33.954  32.480   0.404
49975W        W11638  17.648   2.354  14.814
49976W        W11639  34.942  23.098   1.924
49977W        W11640   5.890  32.577   2.832
49978W        W11641  24.536  44.283  13.867
49979W        W11642  37.540  41.805   0.914
49980W        W11643  40.947  16.182  13.932
49981W        W11644  17.735   2.926  12.358
49982W        W11645  14.283  12.760  13.436
49983W        W11646  26.163  24.507   0.400
49984W        W11647   3.328  37.025  11.998
49985W        W11648  12.725  24.127   3.750
49986W        W11649  34.574   1.870  10.994
49987W        W11650   2.822  39.370   1.399
49988W        W11651   0.305  18.578   1.346
49989W        W11652  43.949  43.422   2.873
49990W        W11653  37.873  24.618   2.406
49991W        W11654  40.333   6.713  12.360
49992W        W11655  26.583  16.692   2.319
49993W        W11656  13.663  23.620  10.921
49994W        W11657  32.505  14.752  12.474
49995W        W11658  30.610  38.069  11.546
49996W        W11659  40.527   6.264  10.111
49997W        W11660  24.698  43.433   5.172
49998W        W11661  27.523  22.085  13.491
49999W        W11662   1.351  33.071  12.007
50000W        W11663  13.131  27.048   3.739
50001W        W11664  14.219  36.048  14.431
50002W        W11665  23.062  10.330  12.445
50003W        W11666   2.820  24.097  13.805
50004W        W11667  20.751  10.250   0.846
50005W        W11668  32.028  26.204   3.321
50006W        W11669   5.271  21.223  10.557
50007W        W11670   2.252  39.985  12.947
50008W        W11671  18.620  26.006   0.343
50009W        W11672  25.658  42.896   2.733
50010W        W11673  37.525  21.102  10.596
50011W        W11674  28.176   4.330   0.808
50012W        W11675   7.264   1.385  10.942
50013W        W11676  34.377  19.587   4.246
50014W        W11677  41.988  34.952   4.315
50015W        W11678  10.739   4.298  11.026
50016W        W11679   5.803  28.560  13.026
50017W        W11680  35.999  12.774  14.340
50018W        W11681  33.543  23.237  14.492
50019W        W11682  29.520   0.923  10.087
50020W        W11683  17.662   3.244  10.594
50021W        W11684   2.421  36.546   3.224
50022W        W11685  43.902  44.978   4.713
50023W        W11686  22.055  29.010   3.376
50024W        W11687   8.170  11.723  10.437
50025W        W11688   3.920   8.270   4.826
50026W        W11689  33.936   6.915  12.450
50027W        W11690  39.881   4.308   2.339
50028W        W11691  34.482   4.774   0.422
50029W        W11692  30.659   6.909   2.785
50030W        W11693   6.898  12.185  10.501
50031W        W11694  14.724  30.050   1.819
50032W        W11695  29.568  35.366  12.506
50033W        W11696   4.812   6.289  13.020
50034W        W11697   8.381  14.325   2.269
50035W        W11698  25.157  16.690   3.761
50036W        W11699   5.438  24.592  13.033
50037W        W11700  26.183  17.108  10.936
50038W        W11701   6.735  42.523  12.551
50039W        W11702  11.163   6.719  14.838
50040W        W11703  32.443   5.768  10.520
50041W        W11704  21.056  34.401   2.304
50042W        W11705  40.448  20.069  11.548
50043W        W11706  40.917  30.953  13.498
50044W        W11707   6.762  16.765  11.427
50045W        W11708  15.217   4.794   0.870
50046W        W11709  10.679   5.382   3.336
50047W        W11710  19.769  28.551  12.498
50048W        W11711  35.589   9.335   1.837
50049W        W11712  26.518  26.994   2.217
50050W        W11713  37.982  38.921   1.791
50051W        W11714  26.105   3.320   3.244
50052W        W11715  18.114  35.578   4.745
50053W        W11716  34.951  25.576  13.452
50054W        W11717  37.560  12.265  11.528
50055W        W11718  31.505  15.262   4.316
50056W        W11719   3.265  15.616  14.803
50057W        W11720  26.527  19.171  14.441
50058W        W11721  19.055  42.460  13.546
50059W        W11722  25.091  19.608  12.008
50060W        W11723  15.120  33.441  12.550
50061W        W11724  29.639   4.238   2.375
50062W        W11725  39.047  13.278   0.827
50063W        W11726  19.250  18.678  10.610
50064W        W11727  41.498   8.843   1.798
50065W        W11728  27.558  36.913  11.090
50066W        W11729   0.454  21.041  12.042
50067W        W11730  18.235  40.484   1.396
50068W        W11731  33.428   6.185  12.356
50069W        W11732  23.656  19.626  14.445
50070W        W11733  20.102  15.132   2.855
50071W        W11734  15.151  31.096  12.012
50072W        W11735  41.326  35.912  13.964
50073W        W11736  41.882   1.792   0.868
50074W        W11737  40.512  29.598  13.999
50075W        W11738  12.700  40.509  10.136
50076W        W11739  35.880  41.454  11.985
50077W        W11740  11.764  13.748   0.792
50078W        W11741   5.803  13.796   1.866
50079W        W11742  31.457  13.106   2.372
50080W        W11743  10.325  30.943   4.634
50081W        W11744   7.776  12.668  13.464
50082W        W11745   5.245  19.247   3.839
50083W        W11746   4.335  23.109  13.824
50084W        W11747  34.485  20.032   3.188
50085W        W11748   8.349  37.069   0.744
50086W        W11749  21.702  26.601   0.934
50087W        W11750  37.485   7.213  12.550
50088W        W11751  40.418  38.864   3.386
50089W        W11752  23.730   5.371  11.987
50090W        W11753  39.873  20.655  14.281
50091W        W11754   5.865  11.755  10.602
50092W        W11755  33.582  37.891  11.443
50093W        W11756   3.264  21.728   4.600
50094W        W11757  37.448  12.233  14.865
50095W        W11758  12.316   2.885   0.295
50096W        W11759  39.422   6.680   3.685
50097W        W11760  24.000  41.473   9.982
50098W        W11761  22.731  36.568   2.307
50099W        W11762   5.715  17.075   3.858
50100W        W11763  15.236  26.533  13.367
50101W        W11764   5.750  25.042   1.370
50102W        W11765  11.866   2.430  13.321
50103W        W11766  20.043  29.056  10.632
50104W        W11767  43.952   8.381  14.500
50105W        W11768  15.577  29.447   3.839
50106W        W11769  39.955  15.786   3.279
50107W        W11770  28.467  22.655   1.430
50108W        W11771  31.633  38.478   4.123
50109W        W11772  36.409  42.470  14.361
50110W        W11773  16.805  31.978  10.068
50111W        W11774   0.424  24.077  11.993
50112W        W11775  15.261  23.237  11.495
50113W        W11776  34.599  13.286  10.408
50114W        W11777   8.309   7.373  12.572
50115W        W11778  43.395  20.165  11.903
50116W        W11779   3.440  33.409  14.855
50117W        W11780  30.007  24.633   4.682
50118W        W11781   9.217  13.714   3.184
50119W        W11782  44.950  17.304   4.608
50120W        W11783  20.160  19.175   4.241
50121W        W11784  14.171   5.839   0.280
50122W        W11785  44.011  25.198  12.926
50123W        W11786  26.196   4.370   3.830
50124W        W11787  43.822  44.939  10.492
50125W        W11788  22.644   4.924  11.111
50126W        W11789  35.927   4.765  13.973
50127W        W11790  37.464  34.414   1.264
50128W        W11791  10.294  16.768  10.548
50129W        W11792  31.902  20.673   2.377
50130W        W11793  32.588   0.837  14.507
50131W        W11794   7.728   4.833   4.188
50132W        W11795  13.688   7.204  10.473
50133W        W11796  15.221  24.690  13.038
50134W        W11797  39.380  20.656   2.754
50135W        W11798  43.403  32.031   4.711
50136W        W11799  24.630  41.993   2.755
50137W        W11800  33.966  10.355  14.989
50138W        W11801   6.801  11.773  13.415
50139W        W11802  12.815  24.653   2.208
50140W        W11803  24.566  25.209   2.783
50141W        W11804  32.541  27.599  12.351
50142W        W11805  39.369   2.904   1.428
50143W        W11806  30.623  40.814   4.716
50144W        W11807   4.360  10.230   0.774
50145W        W11808   1.899  12.678   4.830
50146W        W11809  31.430   5.408  12.411
50147W        W11810   2.264  14.204   3.740
50148W        W11811   4.432  35.558  12.357
50149W        W11812  44.007   6.839   5.087
50150W        W11813   1.300  25.523  13.002
50151W        W11814  31.130  11.356  12.941
50152W        W11815  30.655  17.653   1.871
50153W        W11816  35.953   2.735   4.731
50154W        W11817  38.368  26.551  12.525
50155W        W11818  44.754  40.403  13.404
50156W        W11819   3.874   1.408   1.336
50157W        W11820  31.571   2.780  12.474
50158W        W11821  26.579  20.541  13.975
50159W        W11822  14.672  16.092  12.052
50160W        W11823  32.461  30.051  14.382
50161W        W11824  44.762   2.372  12.854
50162W        W11825  33.456  40.391   2.817
50163W        W11826  10.316   6.308   2.837
50164W        W11827   4.306  14.324  13.538
50165W        W11828  40.495  40.003  13.055
50166W        W11829   5.334   5.886   0.416
50167W        W11830  30.616  40.910   0.880
50168W        W11831   2.314  31.482  13.427
50169W        W11832  38.430  40.532   1.803
50170W        W11833  41.018  38.531   2.278
50171W        W11834   0.311  18.080  11.516
50172W        W11835  24.224  17.719  10.978
50173W        W11836   7.727  29.165   9.950
50174W        W11837  32.406  36.588  13.889
50175W        W11838  29.484  32.110  10.579
50176W        W11839   0.252   1.810   1.926
50177W        W11840   8.835  28.167   2.687
50178W        W11841  19.655  43.343   3.366
50179W        W11842   1.470  33.448  14.467
50180W        W11843   8.337  18.273   3.677
50181W        W11844  23.635  19.176  13.498
50182W        W11845  18.667   8.182   0.455
50183W        W11846   3.407   2.269  12.569
50184W        W11847  38.408  37.863  14.786
50185W        W11848  15.268  16.180  11.472
50186W        W11849  32.438  30.615  13.926
50187W        W11850  37.439  34.494   0.281
50188W        W11851   9.314  23.671  12.548
50189W        W11852  18.630  18.156  12.515
50190W        W11853  21.018   7.235  11.072
50191W        W11854   3.721  19.658  12.091
50192W        W11855   9.288  15.719  11.601
50193W        W11856  44.497  12.711  11.406
50194W        W11857  38.823  30.062  13.367
50195W        W11858   7.883  21.542  11.028
50196W        W11859  18.107  22.606  14.280
50197W        W11860  15.676   6.894  10.558
50198W        W11861  38.955  23.667  12.539
50199W        W11862  40.495  15.595   4.291
50200W        W11863   1.891  35.020  13.385
50201W        W11864  34.614  40.445   4.157
50202W        W11865   8.322  19.642  13.029
50203W        W11866  26.204  39.427   5.578
50204W        W11867  13.116  20.767   4.611
50205W        W11868  16.753   8.739  14.833
50206W        W11869  38.984   3.406  10.610
50207W        W11870  18.552   9.785   0.287
50208W        W11871  42.787  29.136   3.206
50209W        W11872  40.036   1.328  14.027
50210W        W11873  13.174  34.017  10.602
50211W        W11874  36.992  15.644  10.613
50212W        W11875   0.841  27.522  11.569
50213W        W11876  22.613  23.042  12.903
50214W        W11877  15.796  26.629  12.554
50215W        W11878  34.044  43.445   0.750
50216W        W11879  41.512  24.497  12.508
50217W        W11880   5.826  13.767  10.612
50218W        W11881  37.451  39.504   4.730
50219W        W11882   9.672  27.133  12.872
50220W        W11883   9.720  42.512   4.187
50221W        W11884  43.912  42.920  14.400
50222W        W11885  21.261  33.906  10.889
50223W        W11886  42.999  37.039   3.776
50224W        W11887  44.753   6.921   3.214
50225W        W11888  39.543  28.542   1.295
50226W        W11889  34.498  14.732   2.824
50227W        W11890  18.099   6.313   3.305
50228W        W11891  27.020  31.117   3.633
50229W        W11892  29.001   5.350   4.713
50230W        W11893   5.332  16.629  11.593
50231W        W11894  19.045  38.478   2.241
50232W        W11895   7.305  18.109  12.034
50233W        W11896  27.080  17.199  12.066
50234W        W11897  10.775  14.288  13.465
50235W        W11898  23.126   2.424  14.460
50236W        W11899   9.796  17.093   1.705
50237W        W11900   5.904  43.830  11.534
50238W        W11901  25.166   5.787   3.160
50239W        W11902  32.009   6.771  13.830
50240W        W11903   5.289  40.517   2.837
50241W        W11904   8.806  29.527   3.700
50242W        W11905   2.381  39.827   0.730
50243W        W11906   1.419  30.626   3.147
50244W        W11907  21.064  38.987   9.988
50245W        W11908   0.909   0.929  12.554
50246W        W11909   7.347  36.548  13.408
50247W        W11910  16.155  24.089  10.441
50248W        W11911  33.590  27.013  12.403
50249W        W11912   6.189  18.675   2.230
50250W        W11913  16.642  27.589   4.640
50251W        W11914  28.003  18.723  11.537
50252W        W11915   3.328  27.122   3.746
50253W        W11916  19.750   9.773  13.965
50254W        W11917  11.305   7.864   1.750
50255W        W11918  12.843  32.985   3.152
50256W        W11919  17.250  35.895   2.844
50257W        W11920  19.697  38.374   4.725
50258W        W11921   1.765  43.302  13.459
50259W        W11922   4.441  15.800  11.943
50260W        W11923  12.666  17.686   4.316
50261W        W11924  11.651  15.671   3.312
50262W        W11925  44.394  32.972  11.601
50263W        W11926   6.769   6.729   3.168
50264W        W11927   6.855  32.017   1.352
50265W        W11928  40.947  42.952   3.385
50266W        W11929  23.594  16.204  13.797
50267W        W11930  11.261  37.555   4.610
50268W        W11931  37.923  40.344   3.843
50269W        W11932  36.922   0.257  11.978
50270W        W11933  20.577  29.593  11.926
50271W        W11934  26.965  25.009   0.942
50272W        W11935  15.647  38.411   0.451
50273W        W11936  38.439  34.489   3.148
50274W        W11937  11.833  44.803  14.881
50275W        W11938   0.407   3.457  10.896
50276W        W11939  33.893  26.209  14.916
50277W        W11940  27.179   6.402   2.831
50278W        W11941  16.153  36.537  14.335
50279W        W11942  20.525  42.803   1.224
50280W        W11943  31.034  41.938   3.333
50281W        W11944   0.952  44.479   3.210
50282W        W11945  37.578  24.149   4.313
50283W        W11946  32.494  19.756   0.747
50284W        W11947  10.866  35.055   0.775
50285W        W11948  37.423  21.565   4.180
50286W        W11949  40.322  34.027   4.639
50287W        W11950   3.377  23.132   2.667
50288W        W11951   4.769  26.185   3.291
50289W        W11952  34.935  32.052   4.622
50290W        W11953  26.469  37.888  11.029
50291W        W11954  25.594  43.916  13.464
50292W        W11955  19.638  38.027  13.455
50293W        W11956  40.813  15.664   2.735
50294W        W11957  40.537  33.524  12.391
50295W        W11958   5.263  27.552  12.982
50296W        W11959  15.804  40.883   4.320
50297W        W11960  33.452  17.603   4.267
50298W        W11961  11.244  41.918  14.795
50299W        W11962   1.377  30.960  12.557
50300W        W11963  32.143  24.049   1.760
50301W        W11964  40.526   8.896  11.882
50302W        W11965  42.335  42.866  14.373
50303W        W11966   8.249  16.079  11.553
50304W        W11967   6.372   1.269  10.446
50305W        W11968  33.546   5.197   2.804
50306W        W11969  14.099  23.560   2.888
50307W        W11970  24.687  18.698   1.792
50308W        W11971   1.924  40.389   2.754
50309W        W11972  21.075  16.171  14.476
50310W        W11973  39.326  12.143  14.280
50311W        W11974  29.631   8.405   1.769
50312W        W11975  31.980  16.107   0.890
50313W        W11976   8.303  10.863  12.401
50314W        W11977  18.705  10.174   1.715
50315W        W11978  14.257  11.722   2.375
50316W        W11979  25.092  30.923  14.450
50317W        W11980  19.641  32.402   0.814
50318W        W11981  12.177   7.726  12.466
50319W        W11982  32.532  19.174   3.180
50320W        W11983  38.538  22.745  11.583
50321W        W11984  24.017  33.097  13.421
50322W        W11985  11.158  26.610   4.166
50323W        W11986  24.634  42.926  14.999
50324W        W11987  18.201  32.549   4.146
50325W        W11988  23.633   0.984   4.162
50326W        W11989  34.562  21.561   1.886
50327W        W11990  37.968  22.074   1.893
50328W        W11991   0.476  36.065   0.741
50329W        W11992  13.697  22.682  11.589
50330W        W11993  30.082  31.551   1.250
50331W        W11994  12.657  12.124   2.230
50332W        W11995  29.153  40.413  13.517
50333W        W11996  11.776  17.236  10.489
50334W        W11997   5.759  25.030   0.473
50335W        W11998  17.671  13.265   1.424
50336W        W11999  44.987  31.947   1.839
50337W        W12000   7.842  43.017   1.834
50338W        W12001  27.640  42.458   3.242
50339W        W12002  32.547  15.614   3.778
50340W        W12003  28.954  42.395  14.277
50341W        W12004  38.387  36.451  13.917
50342W        W12005  31.581   8.245   2.803
50343W        W12006  44.975  28.502   3.670
50344W        W12007   1.317  40.452   4.835
50345W        W12008   8.164  32.023   0.474
50346W        W12009   6.862  30.912  12.471
50347W        W12010  30.560  13.154   4.661
50348W        W12011  37.892  38.342   0.910
50349W        W12012  10.210  18.682   4.134
50350W        W12013  10.153  31.500   3.172
50351W        W12014  42.990   9.775  14.457
50352W        W12015  19.113  24.207  12.493
50353W        W12016  35.485  42.519  14.769
50354W        W12017  42.491  20.078  14.487
50355W        W12018  39.972  39.314   1.806
50356W        W12019  28.447  33.581   1.717
50357W        W12020  17.081  26.006  14.936
50358W        W12021   9.858   9.389  13.522
50359W        W12022  38.932   0.814   2.329
50360W        W12023  36.968  28.451  13.814
50361W        W12024  38.012  27.578   0.309
50362W        W12025   7.268  32.484  12.543
50363W        W12026  19.677  21.716  11.537
50364W        W12027  19.563  40.964  14.437
50365W        W12028  23.102   0.838   9.602
50366W        W12029  26.656  21.141  13.946
50367W        W12030   9.308  32.958   1.742
50368W        W12031   3.754  31.120  14.504
50369W        W12032  28.551  24.635  12.926
50370W        W12033  17.715  20.061  13.443
50371W        W12034  30.038  34.891  10.930
50372W        W12035  33.061  33.060   1.350
50373W        W12036  38.836  21.215  14.335
50374W        W12037  38.449  29.969  10.444
50375W        W12038   6.348  32.429   3.209
50376W        W12039  40.486   0.895   3.159
50377W        W12040  19.643  26.193   4.603
50378W        W12041  27.680  24.660  10.518
50379W        W12042  19.660  18.146  11.990
50380W        W12043  23.127  33.441  11.414
50381W        W12044  15.166  40.893  14.339
50382W        W12045  35.376  18.774  11.123
50383W        W12046  13.651  16.660   4.609
50384W        W12047  40.361  32.442  12.393
50385W        W12048  13.219   3.900   0.312
50386W        W12049  37.576  21.086  13.057
50387W        W12050  40.304  20.709  12.347
50388W        W12051  18.079  20.040   4.683
50389W        W12052  44.444  21.699  11.511
50390W        W12053  32.630   2.860  12.909
50391W        W12054  31.088  10.323  11.932
50392W        W12055   0.959  43.948   1.744
50393W        W12056   0.921  14.792   3.800
50394W        W12057  44.476  39.530   1.401
50395W        W12058  10.216   7.884  12.571
50396W        W12059  41.996   9.839  14.977
50397W        W12060  32.569  27.480  14.361
50398W        W12061  43.976  20.231  13.529
50399W        W12062  17.142   4.367   1.711
50400W        W12063  23.221   3.297  13.972
50401W        W12064  10.708   5.387   1.874
50402W        W12065  27.008  18.101  13.374
50403W        W12066  13.824  14.631   3.784
50404W        W12067  13.311  24.538   4.652
50405W        W12068  30.652  19.668   2.325
50406W        W12069  12.718  22.132  13.461
50407W        W12070  29.110  15.223  13.491
50408W        W12071   3.354  10.282  14.003
50409W        W12072  28.594  41.406   5.294
50410W        W12073   3.395  25.193  11.477
50411W        W12074  38.063  32.035   2.682
50412W        W12075  23.632  22.182   0.789
50413W        W12076  16.093   4.222   4.253
50414W        W12077   5.774  27.654  10.599
50415W        W12078  26.616   2.878  10.569
50416W        W12079  15.281  27.491   4.643
50417W        W12080  37.926  14.203  14.932
50418W        W12081  31.431   6.213  14.788
50419W        W12082  16.606  14.704   0.827
50420W        W12083  10.746  35.589   0.885
50421W        W12084  35.997  43.294  11.913
50422W        W12085  17.280  21.026   4.341
50423W        W12086  41.898  37.984   2.273
50424W        W12087  25.612   9.251  13.513
50425W        W12088   6.881  18.211   3.331
50426W        W12089  27.675  26.139  11.571
50427W        W12090  31.009  19.631  13.803
50428W        W12091  26.484  44.872  10.595
50429W        W12092  24.675   6.778   2.313
50430W        W12093  22.685  19.131  13.933
50431W        W12094  33.424  34.918  14.312
50432W        W12095  35.498   6.762   3.641
50433W        W12096  28.984  29.013   0.948
50434W        W12097  29.973  25.974   4.135
50435W        W12098  15.132  27.685   1.718
50436W        W12099  29.644  20.525  14.488
50437W        W12100  10.286  41.929   3.229
50438W        W12101  28.040  15.213  13.843
50439W        W12102  37.534  38.826  11.089
50440W        W12103  38.837  13.162   1.228
50441W        W12104  43.988  31.955  14.439
50442W        W12105  15.778  32.958   3.378
50443W        W12106  34.000  27.128  14.338
50444W        W12107  37.411  16.174  10.983
50445W        W12108  35.461   6.860   1.769
50446W        W12109  39.426   0.925   3.217
50447W        W12110  44.486  35.595   0.274
50448W        W12111   6.706  32.143   5.267
50449W        W12112  18.146  23.218  12.346
50450W        W12113  13.649  34.929  13.832
50451W        W12114  28.074  29.650   3.635
50452W        W12115  25.020  41.358   3.638
50453W        W12116   5.728  23.030  13.049
50454W        W12117  30.516  17.751   4.815
50455W        W12118  28.494  26.664  10.525
50456W        W12119  28.995  21.743   2.880
50457W        W12120  40.882  13.650   1.377
50458W        W12121  42.372  20.755  13.346
50459W        W12122  44.378  43.923  14.023
50460W        W12123  14.600  24.510  12.446
50461W        W12124   3.313   4.308   2.273
50462W        W12125  28.507   9.698  11.883
50463W        W12126   1.978   3.825  12.944
50464W        W12127   1.911  44.967  12.832
50465W        W12128  33.512  14.787   1.239
50466W        W12129   2.452   8.249  11.446
50467W        W12130  20.751   6.314   4.679
50468W        W12131  29.515  14.261  13.946
50469W        W12132  44.378   9.185  11.562
50470W        W12133  18.599   1.302  13.811
50471W        W12134  10.750  42.444  14.945
50472W        W12135  25.198  29.122  14.355
50473W        W12136  19.220   4.803  11.405
50474W        W12137  27.676  23.565  12.547
50475W        W12138  20.048  13.292  12.998
50476W        W12139  33.980   0.915   1.763
50477W        W12140  44.823  43.970   4.617
50478W        W12141  21.083  40.937  10.513
50479W        W12142   7.878  34.522   3.294
50480W        W12143   7.687   8.299   4.823
50481W        W12144  43.388   3.713   1.210
50482W        W12145   8.684  15.257   1.297
50483W        W12146  11.682  38.044  14.342
50484W        W12147  36.971  23.001  12.378
50485W        W12148  30.433  23.185   9.940
50486W        W12149  14.597  11.754  11.933
50487W        W12150   2.402   9.210  13.339
50488W        W12151  31.999   6.282  11.115
50489W        W12152  18.663  11.764  11.897
50490W        W12153  20.555  18.224   2.850
50491W        W12154  23.575  15.212  14.910
50492W        W12155   2.226  17.593  13.968
50493W        W12156   9.793  18.557  13.015
50494W        W12157  15.729  12.654   0.952
50495W        W12158  42.996  26.678  13.907
50496W        W12159  42.419   7.816  14.495
50497W        W12160  23.179   6.375   1.915
50498W        W12161  25.479  12.651   2.812
50499W        W12162  38.568  44.903   2.674
50500W        W12163   6.402  23.126  10.945
50501W        W12164  31.908  22.716   0.765
50502W        W12165   0.283  11.192  14.276
50503W        W12166  38.878  15.581  13.307
50504W        W12167  27.469  10.369   4.218
50505W        W12168  38.019   9.226   9.457
50506W        W12169   7.887  18.644   4.692
50507W        W12170   1.882  23.506   1.716
50508W        W12171  20.651  17.648  12.507
50509W        W12172  17.232   8.730  14.012
50510W        W12173   8.404   1.245  10.940
50511W        W12174  35.907  43.312  14.950
50512W        W12175  39.823  34.021   2.410
50513W        W12176   4.762   5.241   3.789
50514W        W12177  28.659  24.095  11.394
50515W        W12178  30.940  32.063  10.445
50516W        W12179  36.952  40.815   0.851
50517W        W12180  12.805  11.862   2.199
50518W        W12181  44.845  21.200   3.818
50519W        W12182  44.379  37.880   1.272
50520W        W12183  12.355  24.604   2.864
50521W        W12184   9.364   9.321  14.348
50522W        W12185  43.448   4.355   4.156
50523W        W12186  17.783  15.320   0.962
50524W        W12187  22.136  22.672  11.940
50525W        W12188   7.874  18.115  10.622
50526W        W12189  16.246  27.103  11.015
50527W        W12190   2.318  11.846  11.862
50528W        W12191  20.166  29.443  14.841
50529W        W12192  35.428  38.939   2.295
50530W        W12193  10.309  39.940   0.953
50531W        W12194  28.676  34.026  12.866
50532W        W12195   3.863  29.156   0.904
50533W        W12196  23.200  25.149  11.428
50534W        W12197  16.618  24.592   3.283
50535W        W12198   8.376  27.571  11.959
50536W        W12199  44.917   4.277  13.503
50537W        W12200  24.607   4.821  10.624
50538W        W12201  43.825  10.831   3.705
50539W        W12202  36.044  20.691   3.383
50540W        W12203   6.695  44.473   0.294
50541W        W12204   8.808  38.029  14.457
50542W        W12205   1.813  35.554  13.397
50543W        W12206  25.682  29.520   2.313
50544W        W12207   2.395  15.230  10.996
50545W        W12208   5.238  16.236  14.955
50546W        W12209  14.654  27.532   4.161
50547W        W12210  25.650  20.260   4.826
50548W        W12211   6.750  28.133  13.909
50549W        W12212   2.416  39.334   1.282
50550W        W12213  21.153   2.346   3.188
50551W        W12214  33.000  38.051   4.680
50552W        W12215  39.342  26.470  11.041
50553W        W12216   8.883  10.633  11.073
50554W        W12217  10.847   2.446   2.184
50555W        W12218  40.492  34.505   3.667
50556W        W12219  27.991  23.551  13.404
50557W        W12220   8.391   9.838  12.439
50558W        W12221  17.752  33.895   2.314
50559W        W12222  42.901   7.326  14.280
50560W        W12223  25.134  31.448   4.695
50561W        W12224  42.347  16.315  14.410
50562W        W12225  44.926  30.524  13.374
50563W        W12226  23.216  32.124   4.135
50564W        W12227   5.884  13.687  13.312
50565W        W12228  35.456  40.418  14.938
50566W        W12229  38.898  44.401  11.466
50567W        W12230  31.477  23.646  14.491
50568W        W12231  11.635  19.685  11.539
50569W        W12232  35.433  26.985   4.308
50570W        W12233  19.238  35.063   4.158
50571W        W12234  40.437  44.775  11.960
50572W        W12235   0.889   6.412   4.603
50573W        W12236   9.663  43.281   3.185
50574W        W12237  36.919  29.174   1.223
50575W        W12238  31.405  11.291  11.371
50576W        W12239   8.765  27.016  11.066
50577W        W12240  38.454  32.135   3.844
50578W        W12241  10.312  36.438   1.778
50579W        W12242  17.164  19.111   2.365
50580W        W12243  40.001  25.555  13.879
50581W        W12244  43.507  27.103   4.785
50582W        W12245   1.936  32.891   4.305
50583W        W12246  12.176   8.819  14.916
50584W        W12247  20.724  27.008  13.854
50585W        W12248  21.592  29.537   2.712
50586W        W12249  14.686   3.908  12.053
50587W        W12250  27.026  14.590   4.664
50588W        W12251  10.849  31.618   0.936
50589W        W12252  38.431  41.956  11.609
50590W        W12253  30.484  43.859   2.374
50591W        W12254   3.886  32.967  12.044
50592W        W12255  22.151  37.939  12.987
50593W        W12256  18.630  43.807  10.994
50594W        W12257  25.145  19.655   3.814
50595W        W12258  22.131  13.109   1.239
50596W        W12259  11.362   2.355   3.761
50597W        W12260  43.515   1.413  11.566
50598W        W12261   4.904  27.533   2.721
50599W        W12262  41.863  30.557   1.219
50600W        W12263  16.641  34.594   4.119
50601W        W12264  33.047   9.227   1.729
50602W        W12265   9.329  18.586   1.418
50603W        W12266  30.126  26.197   0.312
50604W        W12267  38.943  22.505  13.414
50605W        W12268  11.774  10.318   3.205
50606W        W12269   8.851  21.754  11.558
50607W        W12270  35.924  22.584   0.431
50608W        W12271  21.138   0.273   4.712
50609W        W12272  29.647  16.682  13.844
50610W        W12273  44.466  29.592   5.303
50611W        W12274  39.012   7.256   3.734
50612W        W12275  33.018  39.512  12.028
50613W        W12276  41.955  18.099  11.910
50614W        W12277  31.586  40.414  12.944
50615W        W12278  27.590  32.907  14.895
50616W        W12279   6.410  23.164   4.177
50617W        W12280  14.792  33.539  13.464
50618W        W12281   1.930  34.538   1.920
50619W        W12282  43.902   5.309   2.786
50620W        W12283  40.906  35.409  12.078
50621W        W12284   8.772   9.776  13.008
50622W        W12285  30.489  41.927  12.900
50623W        W12286  18.094   6.870  12.012
50624W        W12287  22.587  18.784  13.324
50625W        W12288  24.994  23.185  13.946
50626W        W12289   1.959  25.507   0.914
50627W        W12290  41.359  17.093  14.278
50628W        W12291  25.514  33.903  10.935
50629W        W12292  16.315   4.397  13.932
50630W        W12293  18.230  39.922   2.215
50631W        W12294   9.296   5.907   0.772
50632W        W12295  24.122  43.495   0.444
50633W        W12296   2.745   6.771  11.936
50634W        W12297  39.395  11.647   4.277
50635W        W12298  42.938  40.801  11.937
50636W        W12299  21.669  30.933  11.119
50637W        W12300   1.396  23.984   2.875
50638W        W12301   6.713  19.650   3.871
50639W        W12302  16.689  42.026  13.311
50640W        W12303  26.587   2.729   0.864
50641W        W12304  37.034  38.367  13.889
50642W        W12305  14.820  30.163   3.699
50643W        W12306  20.645  10.706  10.404
50644W        W12307  16.572  40.363  12.925
50645W        W12308  20.603  40.387   4.604
50646W        W12309   2.757  21.740   4.256
50647W        W12310  22.162  19.054  12.950
50648W        W12311  16.772   4.372   1.212
50649W        W12312  34.606   0.936   3.164
50650W        W12313   6.730  18.743   2.354
50651W        W12314   4.704  41.014  14.275
50652W        W12315  31.988  44.340  12.555
50653W        W12316  19.213  43.777  13.935
50654W        W12317  19.123  25.574  14.968
50655W        W12318  20.597  14.645  13.459
50656W        W12319  12.707  21.151   0.846
50657W        W12320  22.109   1.387   4.789
50658W        W12321  23.237  13.134  13.421
50659W        W12322  28.451   4.210   1.819
50660W        W12323  35.373   3.784   2.412
50661W        W12324   5.200  33.406   2.386
50662W        W12325   1.823  19.050   4.157
50663W        W12326  35.580   0.795   3.241
50664W        W12327  14.796   8.270  14.278
50665W        W12328   7.849  11.863   3.761
50666W        W12329  44.007  27.195  14.445
50667W        W12330  39.413   3.909   4.654
50668W        W12331  35.451  40.924  13.308
50669W        W12332  23.710  27.176  12.065
50670W        W12333  11.343   6.743   1.212
50671W        W12334  27.973  34.466  12.456
50672W        W12335  38.024  13.332  12.343
50673W        W12336  15.586  24.980  13.399
50674W        W12337  43.804  25.589  12.579
50675W        W12338   1.278  40.548  11.023
50676W        W12339  17.641  10.824  10.914
50677W        W12340   4.735   5.736  12.360
50678W        W12341   5.871   2.961  13.807
50679W        W12342  40.500  19.086   2.883
50680W        W12343  15.219  18.714   1.838
50681W        W12344  17.763  33.959   2.868
50682W        W12345  22.162  26.077   0.953
50683W        W12346  28.631  18.724   2.209
50684W        W12347  25.124   6.880   0.347
50685W        W12348  16.570  38.334  10.986
50686W        W12349  29.511  24.567  13.457
50687W        W12350   3.843  39.857  14.812
50688W        W12351  31.460  29.525   0.826
50689W        W12352  18.292  30.575   0.462
50690W        W12353   0.881  35.978   3.364
50691W        W12354  26.131  18.574   3.325
50692W        W12355  37.855  36.060  14.484
50693W        W12356  29.176  38.830   1.278
50694W        W12357  27.115  20.157  14.888
50695W        W12358  41.848   9.169  10.105
50696W        W12359  41.901   7.226   5.792
50697W        W12360  26.699  39.871   1.818
50698W        W12361  26.584  34.119   2.269
50699W        W12362  32.097   7.403   4.135
50700W        W12363   0.767  31.990  14.445
50701W        W12364  16.278  38.066  14.947
50702W        W12365  27.565  24.483   3.710
50703W        W12366   1.367  18.551  13.470
50704W        W12367  30.035   3.300  13.925
50705W        W12368  23.638  10.774   3.804
50706W        W12369  38.388  36.349  14.830
50707W        W12370   4.701   7.875   0.461
50708W        W12371  21.056  28.535   2.668
50709W        W12372  28.114   1.467  14.943
50710W        W12373  41.334  44.390   0.911
50711W        W12374   2.369  23.569  11.396
50712W        W12375   1.319  19.206  13.448
50713W        W12376  14.225   0.286  11.079
50714W        W12377  20.761  20.174  10.473
50715W        W12378  15.795   4.255   0.359
50716W        W12379  34.054  16.197   3.344
50717W        W12380  30.147  39.995  11.039
50718W        W12381  31.525  35.893   0.948
50719W        W12382   0.260  17.748  11.431
50720W        W12383  38.890  23.568   0.871
50721W        W12384  32.889  44.971  12.475
50722W        W12385  13.649  36.094   1.245
50723W        W12386  34.420  23.143   2.814
50724W        W12387  42.931   6.701  13.929
50725W        W12388  12.829  11.161  12.069
50726W        W12389  43.925  34.898  14.872
50727W        W12390  34.470  25.076  13.038
50728W        W12391  43.838  17.754  11.404
50729W        W12392  21.548  22.502  14.012
50730W        W12393  30.600  37.391   0.424
50731W        W12394  19.640  26.171  12.433
50732W        W12395  24.035  25.165  11.490
50733W        W12396  17.793  17.070  10.954
50734W        W12397  30.618  21.633   3.247
50735W        W12398  14.608  44.298  14.289
50736W        W12399  10.822  12.675   0.855
50737W        W12400  20.642  16.650  12.970
50738W        W12401  13.192  18.278   4.797
50739W        W12402  39.483  15.798  13.919
50740W        W12403   5.430  14.232   0.750
50741W        W12404  16.757   1.761   1.853
50742W        W12405   7.874  11.861   5.299
50743W        W12406   6.338  43.818  14.490
50744W        W12407  17.188  38.570   3.809
50745W        W12408  23.656   8.212  11.410
50746W        W12409  17.584  12.759  10.129
50747W        W12410   8.240  39.892   2.366
50748W        W12411  37.527  15.247  12.003
50749W        W12412  44.460  31.134  13.862
50750W        W12413   5.847  14.589   0.813
50751W        W12414   3.724  38.868   3.295
50752W        W12415  31.492  20.209   2.677
50753W        W12416  30.625   0.962   1.753
50754W        W12417   6.307  22.219  12.359
50755W        W12418  13.628  41.015  13.540
50756W        W12419  22.050  19.594   1.920
50757W        W12420  44.319  16.292  14.827
50758W        W12421  37.526  15.692  10.906
50759W        W12422  35.473  14.603   0.750
50760W        W12423  18.756  26.456   3.214
50761W        W12424  42.525  34.983  11.872
50762W        W12425   9.871   3.807  14.956
50763W        W12426  29.471   8.703  11.918
50764W        W12427  17.110  18.579   2.265
50765W        W12428  13.602  41.499  11.574
50766W        W12429  16.709  39.046  10.970
50767W        W12430  40.364  22.065  13.488
50768W        W12431  34.498  36.389   3.312
50769W        W12432  38.470  15.155  12.523
50770W        W12433  41.864  24.503  14.355
50771W        W12434  21.256  24.191   1.317
50772W        W12435  37.434  41.930   1.766
50773W        W12436  20.069  41.440  10.923
50774W        W12437  18.157  19.754   4.129
50775W        W12438  42.377  14.228   1.346
50776W        W12439  34.898  22.683  11.053
50777W        W12440  32.001  15.811   4.201
50778W        W12441   1.291  30.154   0.731
50779W        W12442  35.072  44.461  11.005
50780W        W12443  31.138  35.545  10.626
50781W        W12444  23.227  33.904   2.775
50782W        W12445  15.704  25.103  12.069
50783W        W12446   9.794   2.768   2.196
50784W        W12447  30.563  34.902   2.854
50785W        W12448  43.922  39.350   3.334
50786W        W12449  42.317  19.211  12.377
50787W        W12450  36.044  32.566   3.202
50788W        W12451  17.739  39.349  14.864
50789W        W12452   9.860  12.330  10.638
50790W        W12453  27.989  13.262  14.407
50791W        W12454  40.897   5.902  12.940
50792W        W12455   3.835  19.220  12.031
50793W        W12456  21.030  33.576  10.563
50794W        W12457  25.616  44.876   3.261
50795W        W12458  35.948  39.947   3.349
50796W        W12459  23.985  44.987   1.397
50797W        W12460  19.107  18.291  10.017
50798W        W12461  11.825  11.717   0.378
50799W        W12462  17.195  40.499  10.996
50800W        W12463  14.606  40.350   4.833
50801W        W12464   0.879  11.143  11.991
50802W        W12465  23.543  43.398  14.383
50803W        W12466   4.263  33.387  13.526
50804W        W12467   6.713  19.659  12.916
50805W        W12468  37.932  41.002   0.403
50806W        W12469  16.158  34.975  11.875
50807W        W12470   6.858  24.640  13.318
50808W        W12471  27.196  16.191  13.055
50809W        W12472   1.463  39.930  12.387
50810W        W12473  22.140  32.481  12.981
50811W        W12474  18.121  43.406  13.996
50812W        W12475  39.962  19.278   3.295
50813W        W12476   9.819  15.690   4.781
50814W        W12477  44.388  36.591   3.291
50815W        W12478  27.102  21.167  12.831
50816W        W12479  14.243  42.957  12.430
50817W        W12480  21.525   2.846   3.181
50818W        W12481  14.735  43.422  11.861
50819W        W12482  40.323  33.973   3.651
50820W        W12483  28.605  20.240  10.436
50821W        W12484  27.666  11.674  12.060
50822W        W12485  39.967  44.002   1.399
50823W        W12486  21.027  14.309   4.150
50824W        W12487  10.332  12.183   1.283
50825W        W12488  12.637  11.718  10.439
50826W        W12489  27.047  24.201  10.527
50827W        W12490  24.163  28.067   3.710
50828W        W12491  24.153  21.263  11.022
50829W        W12492  12.257  19.143   3.714
50830W        W12493  35.598   4.337   2.223
50831W        W12494  25.155   4.830  14.863
50832W        W12495  22.207  40.948  14.766
50833W        W12496  36.524  43.841   1.437
50834W        W12497  25.969  35.006  12.076
50835W        W12498  10.262  36.443   3.246
50836W        W12499   2.238  39.365  14.929
50837W        W12500  21.264  43.948  10.469
50838W        W12501  40.951  40.888   0.350
50839W        W12502  20.523  18.705   3.803
50840W        W12503  37.496   2.886  14.290
50841W        W12504  25.001  22.061   2.178
50842W        W12505   7.756  11.335   1.806
50843W        W12506  28.937  35.358   2.678
50844W        W12507   1.951   1.791  13.917
50845W        W12508  30.083  10.760   0.426
50846W        W12509  11.172  26.482  10.894
50847W        W12510  10.695  39.872  12.574
50848W        W12511  26.623   2.929   4.637
50849W        W12512  13.682  22.735   0.775
50850W        W12513  15.727  15.277   3.787
50851W        W12514  15.230  28.596   1.288
50852W        W12515  23.640  22.049   4.177
50853W        W12516  10.248  30.497  13.448
50854W        W12517  22.158  42.419  12.903
50855W        W12518  15.640   4.876  12.885
50856W        W12519  38.357  31.604   0.948
50857W        W12520  16.175  43.938  13.389
50858W        W12521  20.068   0.943   0.465
50859W        W12522  32.010  24.219  13.914
50860W        W12523  38.329  20.592  10.507
50861W        W12524  19.125  42.381  12.826
50862W        W12525  23.090  38.392  13.335
50863W        W12526   3.255  43.314   4.154
50864W        W12527   4.339  26.028  12.527
50865W        W12528  44.322   1.446   2.707
50866W        W12529  13.223  30.128   3.740
50867W        W12530  35.888   5.697  10.416
50868W        W12531  32.039  12.167  12.842
50869W        W12532   0.393  40.308  12.840
50870W        W12533  32.059   2.886   0.933
50871W        W12534   0.891   6.322   0.377
50872W        W12535  38.324  37.881  12.377
50873W        W12536   3.849  25.487   4.646
50874W        W12537  24.023  27.987   3.153
50875W        W12538  20.254  27.103  12.011
50876W        W12539   2.742  37.429   1.365
50877W        W12540  38.892   6.281   3.242
50878W        W12541   7.699  19.693   0.301
50879W        W12542  26.653   8.786   1.840
50880W        W12543  18.734  30.128   4.299
50881W        W12544  15.296  21.032   3.236
50882W        W12545  33.125  33.520  14.902
50883W        W12546  30.008  41.893   5.234
50884W        W12547  41.916  39.394  12.080
50885W        W12548  40.395  41.027  14.326
50886W        W12549   9.178   0.974  14.851
50887W        W12550  37.049  15.152  14.927
50888W        W12551  26.205  10.177  14.430
50889W        W12552   3.726  40.825  14.979
50890W        W12553  20.586   3.409   4.201
50891W        W12554  19.044   7.689  14.302
50892W        W12555  36.980  25.512   3.718
50893W        W12556  21.521   7.417   5.264
50894W        W12557  12.691  10.729   2.662
50895W        W12558  39.482  16.755   4.717
50896W        W12559   2.878   2.887   0.918
50897W        W12560  44.011  17.094   4.793
50898W        W12561  26.659  32.430  13.879
50899W        W12562  40.321   3.266   2.245
50900W        W12563  33.093  34.959   0.462
50901W        W12564  20.740  21.128   0.354
50902W        W12565  37.452  31.068   4.713
50903W        W12566  16.804  10.163  13.357
50904W        W12567  25.153  34.567   1.921
50905W        W12568  14.195   8.385   4.158
50906W        W12569   5.411   1.429  12.502
50907W        W12570  32.020   9.809  11.515
50908W        W12571   2.951  13.215   4.795
50909W        W12572  37.031   1.768  10.541
50910W        W12573  25.217  32.901   3.215
50911W        W12574  11.844  38.949   4.301
50912W        W12575   4.699   5.200   3.351
50913W        W12576  34.021  41.014  13.430
50914W        W12577  30.486  27.044   2.668
50915W        W12578  10.382  26.113   4.682
50916W        W12579  44.284  30.003  13.369
50917W        W12580   4.722   2.762   4.322
50918W        W12581  30.012  13.651   0.791
50919W        W12582  38.410   6.271   0.869
50920W        W12583  18.612   6.182   1.794
50921W        W12584  36.925   2.838  10.980
50922W        W12585  19.734  10.669  11.434
50923W        W12586   5.699   9.881   2.245
50924W        W12587  28.974  33.421  13.832
50925W        W12588  36.049  19.705   3.316
50926W        W12589  28.148  27.961  13.415
50927W        W12590  32.890  20.687   1.734
50928W        W12591  31.615  23.149   0.307
50929W        W12592  11.235  39.342   0.817
50930W        W12593  43.775  41.979   1.378
50931W        W12594   0.844  18.783  10.114
50932W        W12595  42.799   9.753   0.453
50933W        W12596  42.032   3.268   5.204
50934W        W12597  25.067  37.404  11.937
50935W        W12598  22.063  34.866   4.316
50936W        W12599   8.892  16.676   4.186
50937W        W12600  38.023   0.321  13.445
50938W        W12601  32.435  22.214   3.199
50939W        W12602  30.497  23.611   0.467
50940W        W12603  17.164  15.198  11.928
50941W        W12604  30.513  30.551  10.604
50942W        W12605   1.950   5.750  11.427
50943W        W12606  30.104  38.335   1.733
50944W        W12607  24.998  38.922  14.806
50945W        W12608   8.734   0.406  13.444
50946W        W12609  23.514  34.465  14.892
50947W        W12610  42.803  20.244  12.037
50948W        W12611  29.655   5.309   0.407
50949W        W12612  18.067   9.669   0.801
50950W        W12613  40.989  34.512   4.786
50951W        W12614  18.162  28.529  12.563
50952W        W12615  26.643  36.017   4.259
50953W        W12616  18.767   3.241   2.244
50954W        W12617   3.863   3.364   5.261
50955W        W12618   3.246   4.371  12.360
50956W        W12619   8.883   1.427  13.497
50957W        W12620  27.566  25.033  11.397
50958W        W12621  23.211  16.225   3.360
50959W        W12622  10.293  13.617   0.915
50960W        W12623  43.826  19.557   0.967
50961W        W12624  12.236   4.804  14.495
50962W        W12625   6.367  19.755  10.999
50963W        W12626  35.431  22.602   2.360
50964W        W12627  43.318   0.259  14.992
50965W        W12628  20.565  26.054  13.401
50966W        W12629  23.630   6.193  14.826
50967W        W12630  44.437   7.706  14.786
50968W        W12631  11.307  32.626   2.714
50969W        W12632  44.964  15.315  11.519
50970W        W12633  40.349  20.697   0.908
50971W        W12634   5.706  20.586   0.884
50972W        W12635  20.725  19.738  10.586
50973W        W12636   3.816  27.187  11.435
50974W        W12637  43.816  28.453   1.741
50975W        W12638  17.790  12.717  14.826
50976W        W12639  33.915  29.073  14.290
50977W        W12640   6.921  39.361  14.971
50978W        W12641   8.380  35.084  12.855
50979W        W12642   7.277  44.001  11.857
50980W        W12643  35.535  32.011  10.982
50981W        W12644  19.064  10.843  14.492
50982W        W12645  10.284  16.653  11.594
50983W        W12646   0.299  27.196  11.094
50984W        W12647  27.448  22.604   2.667
50985W        W12648  43.784  25.626  11.420
50986W        W12649  41.339  18.745   0.868
50987W        W12650  12.785  17.224   0.939
50988W        W12651  28.961  19.674  12.505
50989W        W12652  29.992  12.240  12.836
50990W        W12653  14.239  44.488  13.861
50991W        W12654  28.152   2.914   3.187
50992W        W12655   5.224  19.269   0.297
50993W        W12656   8.259  34.970  11.587
50994W        W12657  41.417  26.183   4.289
50995W        W12658  11.843  25.073  12.846
50996W        W12659  21.722  40.035  13.795
50997W        W12660  37.865  10.211   2.366
50998W        W12661  24.501  28.473  11.419
50999W        W12662   0.827  43.356  14.000
51000W        W12663  36.496  38.342   4.243
51001W        W12664  20.103  20.734   3.335
51002W        W12665  31.625   4.875   2.736
51003W        W12666  25.176   9.833  10.924
51004W        W12667  36.469  23.509  10.123
51005W        W12668  33.595  24.485  13.921
51006W        W12669  40.028  22.528   4.734
51007W        W12670  19.639  42.832   1.866
51008W        W12671  24.214  25.606   3.207
51009W        W12672  39.535  13.123  14.848
51010W        W12673  13.329  26.493  11.523
51011W        W12674  23.168  24.228  14.375
51012W        W12675  31.450  36.526   1.225
51013W        W12676   7.379  44.761  14.316
51014W        W12677  19.664   2.348  12.911
51015W        W12678   2.851  27.157  10.905
51016W        W12679   0.373  21.744   0.765
51017W        W12680  36.515  19.119   0.877
51018W        W12681  11.227  29.036   3.382
51019W        W12682  44.906  33.508   3.204
51020W        W12683  29.151   3.860  10.489
51021W        W12684   7.408  44.316   4.327
51022W        W12685   6.846  23.239   0.275
51023W        W12686   6.320   8.870  14.499
51024W        W12687   1.444  35.996  12.928
51025W        W12688  38.408  38.352  11.489
51026W        W12689   8.338  25.568   4.342
51027W        W12690  19.551  34.100  11.464
51028W        W12691   2.894  15.290  12.947
51029W        W12692  27.635  27.136   0.768
51030W        W12693   5.903   6.893  13.418
51031W        W12694   9.362   0.874   4.628
51032W        W12695   1.241  43.916   2.269
51033W        W12696  42.463   7.710   1.324
51034W        W12697  43.917  17.617  11.054
51035W        W12698  41.998  23.612  14.482
51036W        W12699  44.422   6.347  13.485
51037W        W12700  40.987  18.667   3.154
51038W        W12701  42.526  27.448   4.270
51039W        W12702  17.243   3.329  11.501
51040W        W12703  18.774   5.892   0.773
51041W        W12704   8.224  37.997   3.229
51042W        W12705  43.954  30.642  13.510
51043W        W12706  43.297  10.345  11.897
51044W        W12707  37.505  38.060  14.355
51045W        W12708   9.667   2.236   1.263
51046W        W12709  31.518  20.134   3.807
51047W        W12710  14.175  27.185  10.467
51048W        W12711  24.029  18.247   2.881
51049W        W12712  25.500  30.961  12.906
51050W        W12713  28.595  44.484   2.758
51051W        W12714  35.940   5.221  13.798
51052W        W12715  40.506  24.544   2.813
51053W        W12716   7.721  32.023  12.363
51054W        W12717  43.860   2.772   4.720
51055W        W12718  30.130  30.429  11.545
51056W        W12719  17.117  42.396   0.352
51057W        W12720   2.341  30.540  13.368
51058W        W12721  19.621  19.680   0.437
51059W        W12722   4.212  17.745   1.746
51060W        W12723  19.210  26.142  11.393
51061W        W12724  41.910  17.712   3.661
51062W        W12725  12.811  31.019  14.905
51063W        W12726  41.381  31.980  11.463
51064W        W12727  11.180   0.842   2.410
51065W        W12728   0.974  26.549  11.588
51066W        W12729   9.320  17.189   3.178
51067W        W12730  16.278   8.315   3.680
51068W        W12731   0.410  40.798   3.365
51069W        W12732  27.177  42.519   0.812
51070W        W12733  35.880  39.433  13.791
51071W        W12734  32.526   8.789  11.857
51072W        W12735  40.799  38.371   4.144
51073W        W12736  25.540   8.360   2.275
51074W        W12737   0.262  24.015   1.328
51075W        W12738  43.345  11.832  13.449
51076W        W12739   3.324   4.385  14.373
51077W        W12740  18.077  25.015   3.701
51078W        W12741  33.931  16.675   2.362
51079W        W12742  24.143  43.374  13.312
51080W        W12743  44.831  33.028  11.935
51081W        W12744  22.624   8.755  10.992
51082W        W12745  27.544  39.527  14.958
51083W        W12746   2.255  38.020   3.185
51084W        W12747  13.218  17.200  11.062
51085W        W12748  36.874   2.769   0.801
51086W        W12749   4.851  44.011   1.435
51087W        W12750   9.691  18.289   1.834
51088W        W12751   7.848  19.152  13.935
51089W        W12752  19.219   2.413   2.360
51090W        W12753   2.272  28.508   0.748
51091W        W12754  40.799  30.998   0.430
51092W        W12755  44.002  42.919   4.187
51093W        W12756   5.700   5.347   4.197
51094W        W12757  24.571  23.549   2.335
51095W        W12758  14.658  30.136  13.055
51096W        W12759  43.465  26.642   3.296
51097W        W12760   8.263   9.861   0.370
51098W        W12761  23.184  19.770  13.032
51099W        W12762  39.365  44.425   4.724
51100W        W12763  29.929  40.464  12.927
51101W        W12764  41.353   1.319   2.345
51102W        W12765  40.344  19.237  12.413
51103W        W12766   5.875  21.023   3.237
51104W        W12767   4.702  42.491   0.393
51105W        W12768  32.996   3.873  14.503
51106W        W12769   3.377  44.312  11.090
51107W        W12770  32.624   0.798  14.837
51108W        W12771  41.488  26.004  12.042
51109W        W12772  35.015  41.490   0.461
51110W        W12773  44.757   8.774  10.064
51111W        W12774  35.365  14.808  11.934
51112W        W12775   1.858  26.052   3.198
51113W        W12776  44.865  20.161  14.441
51114W        W12777  26.469  24.126  14.428
51115W        W12778   8.251  35.551  11.537
51116W        W12779  26.594  33.108   0.961
51117W        W12780  17.143  38.937  10.638
51118W        W12781  32.040  39.844  10.535
51119W        W12782  44.421  26.675  14.957
51120W        W12783   3.354  12.835  14.915
51121W        W12784  22.142  29.108   2.771
51122W        W12785  12.846  26.977   4.710
51123W        W12786  37.366  32.628  13.834
51124W        W12787  15.290   3.383  14.405
51125W        W12788  30.970  21.119   3.796
51126W        W12789  24.554  27.564  13.424
51127W        W12790  18.587  29.513   5.318
51128W        W12791   3.373  37.083  11.581
51129W        W12792   1.959  32.514   3.755
51130W        W12793  10.754   8.834   1.723
51131W        W12794  15.582  40.458   2.777
51132W        W12795  34.941  11.164  11.053
51133W        W12796  20.166  19.600  12.516
51134W        W12797  40.936   3.877   0.939
51135W        W12798   4.233  20.260   2.813
51136W        W12799   9.810   6.853  14.785
51137W        W12800  22.017  25.496  14.409
51138W        W12801  21.708  30.538  11.936
51139W        W12802  25.488  18.756   4.183
51140W        W12803  35.366  10.640   2.265
51141W        W12804  28.103  35.371   3.217
51142W        W12805   5.839   1.463   0.884
51143W        W12806  33.016  36.895   0.248
51144W        W12807  31.059   5.363   0.942
51145W        W12808   8.404  28.680  14.876
51146W        W12809  39.983   3.368  10.596
51147W        W12810  33.590   7.344   3.174
51148W        W12811  15.259  39.976   3.193
51149W        W12812  12.279  22.685   1.815
51150W        W12813  32.560  17.738   0.776
51151W        W12814  27.166  24.032  12.055
51152W        W12815   0.371  32.440   1.435
51153W        W12816  18.060  30.021   3.276
51154W        W12817  31.461   0.870   1.845
51155W        W12818  41.532   0.387  12.071
51156W        W12819  10.139  30.990   2.192
51157W        W12820   9.307  26.020  10.462
51158W        W12821  29.478   8.883  12.344
51159W        W12822  28.071   7.237  14.415
51160W        W12823  32.949  18.160  14.890
51161W        W12824  10.188   5.773  12.086
51162W        W12825   2.791  34.067  14.825
51163W        W12826  10.826  12.138   0.267
51164W        W12827  16.758   5.395   4.664
51165W        W12828  18.119  17.737  11.098
51166W        W12829   1.897  36.044   1.933
51167W        W12830  31.443  41.397  11.508
51168W        W12831  29.547  19.114   3.332
51169W        W12832  19.777  33.511   1.428
51170W        W12833   5.376  26.086   4.703
51171W        W12834  35.892   0.493  12.033
51172W        W12835  27.671  32.001  10.451
51173W        W12836  18.147  44.486   1.732
51174W        W12837   3.312  37.377  11.416
51175W        W12838   1.938  18.090   0.938
51176W        W12839   7.834  14.820  11.437
51177W        W12840  22.717   7.667   2.380
51178W        W12841  24.627  15.254  14.417
51179W        W12842  11.293   9.715  12.417
51180W        W12843  40.482  36.977   3.323
51181W        W12844  34.992  10.294   4.739
51182W        W12845  16.102  22.194   0.821
51183W        W12846  11.728  35.406  14.930
51184W        W12847  42.930  40.534  12.038
51185W        W12848  22.654   2.891  13.832
51186W        W12849  43.000  36.964   0.798
51187W        W12850  43.481  33.073   0.266
51188W        W12851  16.752  41.914  11.036
51189W        W12852  32.023  43.392   2.347
51190W        W12853  37.464  20.094  10.981
51191W        W12854  44.754   2.733  11.562
51192W        W12855  18.629   8.740  11.999
51193W        W12856  25.005   9.267   3.738
51194W        W12857   8.324  43.008  10.489
51195W        W12858  27.630  21.122  14.321
51196W        W12859   1.758  35.583   4.629
51197W        W12860  42.934  35.905   2.406
51198W        W12861  41.355  37.449  10.033
51199W        W12862  33.554  21.709   0.854
51200W        W12863   9.249  30.114  12.462
51201W        W12864  28.452  41.417   0.877
51202W        W12865   1.740  21.225  13.321
51203W        W12866   0.970  33.517   1.264
51204W        W12867  26.147  37.970  12.993
51205W        W12868  26.585  27.015  10.489
51206W        W12869  32.555  33.602  13.829
51207W        W12870   0.363  43.279   0.887
51208W        W12871   9.666  29.985  12.437
51209W        W12872  25.714  41.439   0.255
51210W        W12873   6.701   3.936   3.240
51211W        W12874  39.332  42.461   3.832
51212W        W12875   3.278  34.059   0.785
51213W        W12876  44.816  34.543   3.366
51214W        W12877  26.113  41.891   3.706
51215W        W12878  23.588  36.888  13.973
51216W        W12879  25.189  40.976   1.250
51217W        W12880  39.926  39.557   4.622
51218W        W12881   2.745  18.248   4.771
51219W        W12882  26.671  13.322  13.359
51220W        W12883  29.631   0.771  14.917
51221W        W12884  20.173  29.519  13.393
51222W        W12885  13.764   5.392  13.809
51223W        W12886  40.540  24.717   0.927
51224W        W12887  19.560   4.716   3.292
51225W        W12888   9.148  17.760  12.875
51226W        W12889  13.840  34.053   9.968
51227W        W12890  39.835  31.139   2.734
51228W        W12891  44.885   2.440   4.727
51229W        W12892  42.837  22.119   1.864
51230W        W12893  38.451  13.135  10.640
51231W        W12894  23.579  34.018  12.028
51232W        W12895  23.547  13.279   4.718
51233W        W12896   9.849  10.146   3.337
51234W        W12897  36.533  41.889   1.438
51235W        W12898   9.661  34.572  14.357
51236W        W12899  39.999  43.300  14.515
51237W        W12900  20.039  36.485  10.500
51238W        W12901  37.843  22.693   1.814
51239W        W12902  28.462   8.733  12.045
51240W        W12903  43.316  11.198   4.776
51241W        W12904  40.860  22.701   0.360
51242W        W12905  33.019  41.514  13.334
51243W        W12906  23.701  30.490  10.413
51244W        W12907  32.129  42.846   1.338
51245W        W12908  15.782   0.955   3.258
51246W        W12909  11.799  30.113   4.732
51247W        W12910  32.038  16.185  14.435
51248W        W12911   2.904   7.331  10.486
51249W        W12912   3.827   7.706  13.942
51250W        W12913  40.883  36.576   3.739
51251W        W12914  19.197  27.659   2.818
51252W        W12915   3.313  44.357  12.564
51253W        W12916   3.811  21.556  11.079
51254W        W12917  32.916  14.808   0.920
51255W        W12918  39.900   3.360  12.037
51256W        W12919  24.610  42.972   0.773
51257W        W12920  15.180  19.109  11.609
51258W        W12921   3.363  37.384  13.919
51259W        W12922   9.235  30.562  12.996
51260W        W12923   3.226  42.319   0.835
51261W        W12924  35.068  24.057  12.999
51262W        W12925   4.893  24.184  10.943
51263W        W12926  17.290  36.585  14.383
51264W        W12927  43.882  11.641   3.372
51265W        W12928  18.182  41.963  11.607
51266W        W12929  40.940  38.913   2.804
51267W        W12930  13.824  44.427   0.406
51268W        W12931  32.423  31.542  10.427
51269W        W12932  44.007   1.821  11.490
51270W        W12933  14.177  36.967   2.809
51271W        W12934  36.866  27.659  11.543
51272W        W12935   3.714  28.576  12.981
51273W        W12936  14.156  44.971   0.314
51274W        W12937  29.032  22.204   1.276
51275W        W12938  21.051  20.528   3.638
51276W        W12939  24.066  35.409  12.090
51277W        W12940  36.445  13.294  14.375
51278W        W12941  27.962  21.604  11.015
51279W        W12942  26.527  19.178   3.357
51280W        W12943  34.915  13.277  10.428
51281W        W12944  12.702   3.754   1.272
51282W        W12945   9.719  29.161  14.032
51283W        W12946  16.203   8.851   5.148
51284W        W12947  42.967  42.486   0.900
51285W        W12948  41.820   5.371   2.745
51286W        W12949   1.835  43.793   4.170
51287W        W12950  13.681  24.509  12.408
51288W        W12951  14.327   2.891   4.165
51289W        W12952  44.358  20.614  11.589
51290W        W12953  33.022  32.097   2.746
51291W        W12954  36.553  13.321   4.831
51292W        W12955  28.640  44.007  13.395
51293W        W12956  33.996  18.554  11.558
51294W        W12957  41.816  25.564   1.420
51295W        W12958  40.900   5.399  13.981
51296W        W12959  27.984   5.252   1.862
51297W        W12960  44.924   0.435  13.010
51298W        W12961  13.685  39.405   3.644
51299W        W12962   6.911   0.904  10.586
51300W        W12963  11.861   5.801  11.926
51301W        W12964  20.671  24.014   3.248
51302W        W12965  19.203  35.907   2.835
51303W        W12966  41.932  31.904   4.699
51304W        W12967   9.264  41.805  14.839
51305W        W12968   3.286   3.339  14.509
51306W        W12969  31.571  22.604   3.856
51307W        W12970   7.284   7.860  14.357
51308W        W12971   2.861  36.977  13.005
51309W        W12972  42.003  39.482  11.578
51310W        W12973  38.451  24.074   0.889
51311W        W12974  30.542  44.875   2.395
51312W        W12975  23.984  24.579  12.372
51313W        W12976  41.387  32.011  12.495
51314W        W12977  42.801  42.375  10.426
51315W        W12978  39.382  22.175  13.310
51316W        W12979  10.239  36.864   2.767
51317W        W12980  18.689  10.258   4.765
51318W        W12981  35.954  22.050  11.087
51319W        W12982  21.671  12.334  11.588
51320W        W12983  41.853   2.392   3.825
51321W        W12984  26.035  19.647  11.912
51322W        W12985  39.897  34.991   0.807
51323W        W12986  42.021  20.230  10.577
51324W        W12987   2.437  11.252   3.854
51325W        W12988  36.592   7.684  10.969
51326W        W12989  33.555  38.864   1.815
51327W        W12990  41.459  21.205  11.073
51328W        W12991  20.268  42.293  10.907
51329W        W12992  43.405   6.833   0.839
51330W        W12993  15.255  39.832  12.491
51331W        W12994  14.663  21.630   2.250
51332W        W12995  22.229  22.530  14.317
51333W        W12996   6.870  42.329  11.984
51334W        W12997  17.730  26.521   4.299
51335W        W12998  28.466  17.107  12.957
51336W        W12999  23.069  41.513  12.452
51337W        W13000  13.800  35.022  11.895
51338W        W13001   9.839   0.840   0.841
51339W        W13002  13.662   3.354   2.217
51340W        W13003  18.578  14.227   0.857
51341W        W13004  26.116  16.233  13.419
51342W        W13005  37.455  32.127   0.391
51343W        W13006   6.403   6.787  11.112
51344W        W13007  24.975  44.819   1.390
51345W        W13008   6.877  29.604   2.673
51346W        W13009  33.603  27.067  11.612
51347W        W13010  18.616  34.568   3.238
51348W        W13011  13.801  42.940   0.297
51349W        W13012  34.941  15.743   0.747
51350W        W13013  38.436  13.269   3.316
51351W        W13014  14.804  31.994   3.639
51352W        W13015  17.155   0.958  13.441
51353W        W13016  29.083  24.076   0.463
51354W        W13017  10.217  28.618   3.867
51355W        W13018  19.644   8.875   2.254
51356W        W13019  39.039  39.463  12.470
51357W        W13020  16.680  38.831  12.534
51358W        W13021  13.130   4.927   0.277
51359W        W13022   8.857  26.668  14.335
51360W        W13023   7.181  23.698  13.419
51361W        W13024  42.853  10.378   2.795
51362W        W13025  31.111   6.289  11.061
51363W        W13026  37.470  18.710  12.557
51364W        W13027  35.382  37.482   4.135
51365W        W13028  28.605  19.267   2.289
51366W        W13029  34.071  14.126  10.924
51367W        W13030   1.463  39.482   3.322
51368W        W13031  41.786   0.280  12.417
51369W        W13032  18.724  20.726   3.858
51370W        W13033  39.926   2.906  11.542
51371W        W13034  23.208   4.346   5.152
51372W        W13035  14.328   1.929   1.317
51373W        W13036   0.301  11.258   4.745
51374W        W13037  38.503  44.964   1.840
51375W        W13038  38.916  27.951  14.990
51376W        W13039  41.325  18.244  10.545
51377W        W13040  28.628  17.617  13.412
51378W        W13041  30.021   5.212   4.339
51379W        W13042  43.784  19.110  14.341
51380W        W13043  15.693  41.961   4.254
51381W        W13044  28.948  19.722  12.998
51382W        W13045  30.047  40.974   1.708
51383W        W13046  42.491  25.556  10.406
51384W        W13047  11.367  29.492  13.495
51385W        W13048   0.361  42.458  14.807
51386W        W13049  36.387   1.938  13.935
51387W        W13050   6.354  23.090   4.789
51388W        W13051  34.448  18.664  14.797
51389W        W13052  14.116  39.488  14.337
51390W        W13053  42.873   5.752   4.746
51391W        W13054   4.907  44.383   3.630
51392W        W13055   6.337  27.521   3.633
51393W        W13056  14.139  38.354  13.025
51394W        W13057  10.734  38.563  11.936
51395W        W13058  21.091   9.809   4.748
51396W        W13059  27.637  13.172   4.253
51397W        W13060   6.866  39.449  14.478
51398W        W13061   8.352  41.840   0.445
51399W        W13062  15.189  30.564   0.831
51400W        W13063   5.736  21.072  11.380
51401W        W13064  37.535  17.765  14.458
51402W        W13065  22.201  22.217  12.083
51403W        W13066  26.594   6.714  14.796
51404W        W13067  10.779  30.008  12.376
51405W        W13068  35.006  11.144   2.198
51406W        W13069  39.518  44.800   2.665
51407W        W13070  21.053   9.335  13.311
51408W        W13071  38.014  43.880  11.436
51409W        W13072  37.388  37.372   2.329
51410W        W13073  43.860  24.981   0.914
51411W        W13074  24.643   4.445   3.193
51412W        W13075  27.562  43.288   3.799
51413W        W13076  11.814   0.356  13.857
51414W        W13077  37.044  29.610   3.660
51415W        W13078  35.929  31.405   4.152
51416W        W13079  26.551   7.198   4.834
51417W        W13080  40.456  44.882   3.173
51418W        W13081  15.178  20.669  11.510
51419W        W13082  13.116  30.026  11.508
51420W        W13083  44.828  44.916   3.835
51421W        W13084  38.018  10.672  10.903
51422W        W13085  28.072   1.238  12.028
51423W        W13086  28.567  34.581   4.174
51424W        W13087  25.581  36.059  12.947
51425W        W13088  41.987  24.123  12.963
51426W        W13089  17.302   8.799   4.306
51427W        W13090   8.356  34.053  11.016
51428W        W13091   9.346  16.296   1.697
51429W        W13092  36.943  11.677   2.410
51430W        W13093  15.816  37.979   2.261
51431W        W13094  42.990  14.706  12.038
51432W        W13095  27.064  20.263   0.339
51433W        W13096  20.711  34.971  11.970
51434W        W13097  42.961  24.507  14.516
51435W        W13098  30.573   5.933   1.717
51436W        W13099   5.803   5.243   1.380
51437W        W13100  10.691  38.853   2.769
51438W        W13101  33.461  39.330  11.567
51439W        W13102  10.366   6.223   4.202
51440W        W13103  19.631  21.060   4.328
51441W        W13104   6.377  30.546   1.867
51442W        W13105  38.374   2.373  11.599
51443W        W13106  32.045  30.536   0.931
51444W        W13107   1.810  26.523   2.222
51445W        W13108  14.152  33.088  11.542
51446W        W13109  23.097  12.277  14.282
51447W        W13110  44.962  12.212  12.517
51448W        W13111  34.593  26.171   1.278
51449W        W13112  36.902  36.451  13.926
51450W        W13113  30.151  24.647  14.777
51451W        W13114   6.884   1.305   2.718
51452W        W13115  12.174   0.758  13.879
51453W        W13116  34.011  44.793  10.547
51454W        W13117   4.944   9.301   1.848
51455W        W13118   2.419  17.773   0.378
51456W        W13119  19.091   5.310   1.829
51457W        W13120  13.224  13.205   4.193
51458W        W13121   7.729  13.246   1.760
51459W        W13122  24.151  35.944   4.195
51460W        W13123  22.242  38.400   0.883
51461W        W13124  22.105  32.084   3.229
51462W        W13125  36.844  19.746  12.056
51463W        W13126  12.722  44.499  13.987
51464W        W13127  38.052  30.100  12.916
51465W        W13128  20.215  42.897   2.331
51466W        W13129   3.938   3.837  14.931
51467W        W13130  29.932  16.590  13.800
51468W        W13131  37.019  32.952   0.814
51469W        W13132  28.522  14.693  11.527
51470W        W13133  37.445   6.252   3.636
51471W        W13134  44.437   4.712   5.148
51472W        W13135  42.948   1.331   4.810
51473W        W13136  36.972  37.962  14.302
51474W        W13137  16.643  34.047  13.806
51475W        W13138  29.009   5.791  12.436
51476W        W13139  27.670  23.735   2.368
51477W        W13140  28.130  37.000   1.325
51478W        W13141  40.834   3.845  11.419
51479W        W13142  33.446  28.936  13.062
51480W        W13143  28.055  29.091   2.319
51481W        W13144   3.922  44.377   1.756
51482W        W13145  44.423  21.702   1.911
51483W        W13146  14.338  17.186   2.896
51484W        W13147  43.388  28.632   2.224
51485W        W13148  17.740  24.608  14.342
51486W        W13149   4.282  29.979   1.436
51487W        W13150   1.974  37.011   2.216
51488W        W13151  39.013   9.854   0.426
51489W        W13152   5.850  13.223   0.848
51490W        W13153   8.725  41.414  14.415
51491W        W13154  38.836   3.757  12.424
51492W        W13155  18.639   5.336  13.945
51493W        W13156  39.490  13.236   3.171
51494W        W13157  18.105  18.728  14.344
51495W        W13158   4.732   6.728   3.385
51496W        W13159  20.108  17.113  14.417
51497W        W13160   4.282   9.866  14.769
51498W        W13161  30.962  29.518  12.517
51499W        W13162  26.090  15.110   0.787
51500W        W13163  26.115  20.617   4.608
51501W        W13164  35.036  22.191  11.082
51502W        W13165   0.289   8.254   0.400
51503W        W13166  10.765  22.604   0.727
51504W        W13167   7.300  11.277   2.718
51505W        W13168  30.456  15.603   2.810
51506W        W13169  23.092  12.357  11.945
51507W        W13170   0.769   3.907   1.411
51508W        W13171  11.159  39.431   2.189
51509W        W13172  34.999  35.028  14.958
51510W        W13173  34.466  35.029   1.719
51511W        W13174   4.853  29.095   3.691
51512W        W13175  30.032  10.845   4.325
51513W        W13176  33.932  13.692   1.747
51514W        W13177  29.946   1.893  14.349
51515W        W13178  37.438   0.925  13.043
51516W        W13179  33.987  12.795  11.407
51517W        W13180  21.160  39.959   4.317
51518W        W13181  34.085  44.458   3.836
51519W        W13182  16.133  19.106  11.004
51520W        W13183  24.139  21.687  12.869
51521W        W13184  34.044   9.249  13.057
51522W        W13185  44.854  29.545  11.958
51523W        W13186   3.872  11.646   1.861
51524W        W13187  14.233  41.381  13.324
51525W        W13188  32.544  21.188   1.752
51526W        W13189  10.208  31.466  11.514
51527W        W13190  43.978  25.220   3.784
51528W        W13191  26.144  24.081   0.459
51529W        W13192  35.981  42.314   2.333
51530W        W13193  41.412  38.562  13.871
51531W        W13194  30.120  18.099  11.588
51532W        W13195  14.630  24.172   5.240
51533W        W13196  36.532  28.966  13.878
51534W        W13197  26.010  33.529   2.283
51535W        W13198  32.408  25.142  11.452
51536W        W13199  39.854  39.407   0.374
51537W        W13200  37.868  35.425   1.712
51538W        W13201  38.427  16.799  11.870
51539W        W13202   1.891  42.961   0.760
51540W        W13203  11.127  41.016   1.843
51541W        W13204   5.233  30.617  12.404
51542W        W13205   3.805  32.467   4.761
51543W        W13206  12.362  35.024   3.233
51544W        W13207  15.778   2.807   3.636
51545W        W13208  15.769   4.313  11.538
51546W        W13209  20.247  23.721   1.699
51547W        W13210  11.180   4.830   4.131
51548W        W13211  14.819  18.612   0.822
51549W        W13212  41.403   9.818  10.898
51550W        W13213  26.463  21.694   3.837
51551W        W13214   8.321   2.880   2.323
51552W        W13215  43.311  11.288  14.418
51553W        W13216  27.454  14.814  11.525
51554W        W13217  10.681  18.609  10.515
51555W        W13218   4.755   8.369   0.335
51556W        W13219   2.767  34.119   3.818
51557W        W13220  27.671  29.978  12.964
51558W        W13221  15.321  44.851   3.366
51559W        W13222  38.032  39.354   3.769
51560W        W13223  31.410  26.207  12.025
51561W        W13224  19.632  29.582   2.842
51562W        W13225  21.535  14.686   4.224
51563W        W13226   8.862  12.710   1.438
51564W        W13227  42.353  40.303   2.770
51565W        W13228  37.898  34.591  13.928
51566W        W13229  33.434  36.493  12.487
51567W        W13230  44.362  11.269   3.863
51568W        W13231   7.702  30.146   0.931
51569W        W13232  10.708  25.700   0.316
51570W        W13233   7.834  29.598  11.024
51571W        W13234  15.635  34.030   1.879
51572W        W13235  12.191  42.318  10.546
51573W        W13236  22.020   1.792  11.969
51574W        W13237  12.734  17.141   3.699
51575W        W13238  30.609  22.693  13.989
51576W        W13239  28.133  27.033   4.184
51577W        W13240  15.748  37.884  13.922
51578W        W13241   6.870  29.454   3.309
51579W        W13242   7.371  30.032  13.471
51580W        W13243   2.824   5.270  14.768
51581W        W13244  35.429  27.082  11.520
51582W        W13245  33.896  23.637   1.312
51583W        W13246   9.395  10.830  12.065
51584W        W13247  24.695  41.335   1.430
51585W        W13248  28.584  25.088  13.871
51586W        W13249  19.660   4.783  11.580
51587W        W13250  25.558   8.316  11.944
51588W        W13251   8.287  32.538   2.854
51589W        W13252  35.474  39.852  14.421
51590W        W13253   0.391  23.723   4.620
51591W        W13254   7.676   0.763   2.901
51592W        W13255  30.072  29.124   3.190
51593W        W13256  13.711  38.507   3.236
51594W        W13257  13.309  40.359   2.793
51595W        W13258  37.897   0.833  12.446
51596W        W13259  18.656  41.499   5.316
51597W        W13260   1.353   0.754   2.260
51598W        W13261  32.558  26.468   0.803
51599W        W13262  38.011  25.149   3.328
51600W        W13263   5.811  13.727   4.752
51601W        W13264   2.841  40.489  10.612
51602W        W13265  33.993   7.701  13.795
51603W        W13266   0.943  34.528   1.423
51604W        W13267  25.014  25.553  10.012
51605W        W13268  16.256  14.783   9.624
51606W        W13269   8.213  15.092   4.149
51607W        W13270  16.294  14.315   2.344
51608W        W13271  10.359  35.549   3.660
51609W        W13272  21.619  10.770  13.846
51610W        W13273  21.110  12.146  14.857
51611W        W13274  38.976   3.331  12.882
51612W        W13275  22.016  18.631   4.220
51613W        W13276  40.929   1.775   1.916
51614W        W13277  10.645  15.247   4.654
51615W        W13278   2.930  25.595  12.369
51616W        W13279   5.902  17.075   4.814
51617W        W13280  28.123  22.195  12.896
51618W        W13281   1.297  28.140  11.374
51619W        W13282  43.365  22.045   0.821
51620W        W13283  39.393  20.677   2.220
51621W        W13284  14.158  39.365  14.770
51622W        W13285  18.091  31.535   1.922
51623W        W13286  42.836  33.990   0.750
51624W        W13287  30.006  35.858   4.339
51625W        W13288  43.893  24.047  12.063
51626W        W13289   7.315   5.246   0.823
51627W        W13290  18.784  33.607   0.325
51628W        W13291  25.213  25.505   2.321
51629W        W13292  44.882  26.139   0.945
51630W        W13293  43.775   8.707  11.918
51631W        W13294  22.531  44.945   1.798
51632W        W13295  37.843  44.417  11.911
51633W        W13296  37.464  30.431   2.312
51634W        W13297  39.335  35.493   0.765
51635W        W13298  28.159  31.930  13.400
51636W        W13299  12.748  44.826   4.632
51637W        W13300  30.159  17.238  14.026
51638W        W13301  44.902  15.701   3.378
51639W        W13302  32.524  27.019  10.976
51640W        W13303  25.642  35.585  13.844
51641W        W13304  24.063  16.205   2.272
51642W        W13305  17.197  27.591   3.713
51643W        W13306  16.078  33.127   4.244
51644W        W13307  10.149  17.075   3.794
51645W        W13308  33.510  39.932  10.142
51646W        W13309  31.552  39.869  14.481
51647W        W13310  16.231  21.540   2.346
51648W        W13311  16.738  13.254   1.403
51649W        W13312  28.618   6.808   1.347
51650W        W13313  31.555  22.548  14.830
51651W        W13314  20.565  18.642  12.053
51652W        W13315   2.747  38.965  13.497
51653W        W13316  37.862   4.847   3.798
51654W        W13317  12.165  44.492  10.612
51655W        W13318   4.890  12.304   2.402
51656W        W13319  41.476  43.464  12.028
51657W        W13320  22.069   1.278   0.248
51658W        W13321  31.908  41.854  12.470
51659W        W13322  30.611  28.049  13.810
51660W        W13323  39.389   4.889   4.617
51661W        W13324  42.905  42.394   3.287
51662W        W13325  16.633  13.266  14.317
51663W        W13326  29.445   1.882  10.081
51664W        W13327  27.510   2.263  13.358
51665W        W13328  41.794  13.728  10.918
51666W        W13329  42.787   8.338   3.817
51667W        W13330  39.058   4.913  14.865
51668W        W13331   0.869  15.291  10.897
51669W        W13332  32.618  40.857  10.617
51670W        W13333  27.499  27.565  14.443
51671W        W13334  34.946  21.676   2.335
51672W        W13335   2.247  20.657  14.275
51673W        W13336  42.952   1.310  12.875
51674W        W13337  26.047  25.561  13.909
51675W        W13338  34.560  40.030  13.504
51676W        W13339  41.849  32.575   2.323
51677W        W13340  10.164   5.688   2.866
51678W        W13341  22.661  27.049   0.889
51679W        W13342   7.848   7.336  10.492
51680W        W13343  35.896  36.524  13.877
51681W        W13344  21.149   5.206   2.851
51682W        W13345  19.068  19.272  12.878
51683W        W13346   8.827  18.596  13.930
51684W        W13347  36.512  29.033   2.413
51685W        W13348  18.719   7.831  12.984
51686W        W13349  36.445  22.235  12.389
51687W        W13350   5.712  19.696   4.189
51688W        W13351  23.609   8.340  11.074
51689W        W13352  11.824  39.895  12.424
51690W        W13353  41.297  27.169  10.605
51691W        W13354  22.133  40.815  11.086
51692W        W13355   2.925  21.229  11.916
51693W        W13356  40.970  29.091  14.410
51694W        W13357  40.454  40.346   1.892
51695W        W13358  20.744  23.716   1.316
51696W        W13359  44.384  36.532  10.502
51697W        W13360  37.831  29.943   2.694
51698W        W13361  24.685  21.731  11.042
51699W        W13362  14.334   6.260  11.469
51700W        W13363  18.060  40.871   4.143
51701W        W13364  40.533   4.279   3.256
51702W        W13365  24.579  17.138   1.242
51703W        W13366  14.776  44.760   0.442
51704W        W13367  34.015  19.130  13.974
51705W        W13368  32.500  39.379  10.603
51706W        W13369   9.149  31.576   4.121
51707W        W13370   4.753  18.146   1.794
51708W        W13371  10.727  32.599   4.220
51709W        W13372  19.746  19.572   0.936
51710W        W13373   0.892  44.397  14.985
51711W        W13374  43.900  32.038   1.255
51712W        W13375  25.115   5.735   4.783
51713W        W13376  24.008   0.352  12.992
51714W        W13377  40.837  42.366  11.401
51715W        W13378   2.423  30.530  12.034
51716W        W13379  24.507  14.109   0.251
51717W        W13380  18.648  33.117  10.896
51718W        W13381  15.624  21.635   4.666
51719W        W13382  14.699  19.239   0.280
51720W        W13383  16.157  21.662   0.886
51721W        W13384   2.236  11.852   3.333
51722W        W13385  33.965  35.997   2.282
51723W        W13386  38.454  41.389   3.649
51724W        W13387  17.764   4.796   2.226
51725W        W13388  22.191  25.185   2.263
51726W        W13389  18.122   8.817   3.317
51727W        W13390  19.201   0.298   0.740
51728W        W13391  10.870  14.631   0.243
51729W        W13392  20.247   1.347   1.925
51730W        W13393   3.445  10.229   1.713
51731W        W13394   1.872  41.396   1.918
51732W        W13395  22.743  40.499   1.754
51733W        W13396  13.675  38.849  11.877
51734W        W13397  14.714   8.869   4.837
51735W        W13398   8.364  10.154   3.319
51736W        W13399   3.454  23.220  14.424
51737W        W13400  15.236  34.913  14.804
51738W        W13401  19.096   4.256  14.827
51739W        W13402   9.308   8.343  14.759
51740W        W13403  29.163  26.009   4.305
51741W        W13404  33.031   5.752   3.313
51742W        W13405  31.003   4.893   1.740
51743W        W13406  13.337  44.413  10.131
51744W        W13407  13.178   3.386   1.254
51745W        W13408  28.065  27.661  12.415
51746W        W13409  39.829  11.236  14.776
51747W        W13410  37.570  31.925  12.537
51748W        W13411  20.525  24.229  11.857
51749W        W13412  24.522  31.916   4.320
51750W        W13413   0.912  42.897   1.773
51751W        W13414  27.688  36.487  11.121
51752W        W13415   8.792   9.389   0.323
51753W        W13416  21.225  17.286  14.881
51754W        W13417  19.655  15.250  12.922
51755W        W13418  26.471  18.561   0.286
51756W        W13419  19.047  17.734   0.753
51757W        W13420  19.580  34.431   3.721
51758W        W13421  38.359   6.269   2.863
51759W        W13422  21.101  38.492  13.402
51760W        W13423   7.709   3.722   0.376
51761W        W13424  33.002  19.168  14.456
51762W        W13425  17.769  27.142   0.424
51763W        W13426  30.149  21.734   1.345
51764W        W13427  16.192  31.616  12.949
51765W        W13428  36.576  39.897  13.361
51766W        W13429  23.678  29.924   2.753
51767W        W13430  15.635   7.316  11.909
51768W        W13431  26.149  28.494   3.847
51769W        W13432   9.169   1.428  11.555
51770W        W13433  23.609  35.574   0.442
51771W        W13434  25.042  18.188   0.962
51772W        W13435  32.532  44.404  10.978
51773W        W13436   8.720   0.454   0.398
51774W        W13437  10.363  37.575  13.513
51775W        W13438  33.937  14.172  11.942
51776W        W13439  38.825   5.815  11.600
51777W        W13440   7.769   1.784   1.412
51778W        W13441  42.435  14.609   4.219
51779W        W13442  31.953  25.642  10.496
51780W        W13443   1.908   3.326   3.193
51781W        W13444  29.964   4.758   4.259
51782W        W13445  42.861  39.428   3.724
51783W        W13446   8.870   8.167  12.900
51784W        W13447   4.221  42.799  10.966
51785W        W13448  10.251  19.721   2.310
51786W        W13449  44.898  22.739  14.876
51787W        W13450  41.891  28.176  10.898
51788W        W13451  13.845   3.295  14.900
51789W        W13452   7.817  10.676  14.276
51790W        W13453   7.258   0.895   4.255
51791W        W13454  18.127  42.329  12.041
51792W        W13455  31.410  19.113   0.788
51793W        W13456  19.260  22.710  12.903
51794W        W13457  33.088   1.402   4.675
51795W        W13458   1.263   5.795   2.719
51796W        W13459   7.818  13.664   1.906
51797W        W13460  34.569   7.182  13.798
51798W        W13461  10.236  42.816  13.941
51799W        W13462  15.664  15.618  10.537
51800W        W13463  10.152  23.053   2.179
51801W        W13464  28.974  39.491   2.260
51802W        W13465   6.348   2.352   4.143
51803W        W13466  17.271   2.787  12.850
51804W        W13467  39.395  14.250   4.678
51805W        W13468  29.491  17.081  11.418
51806W        W13469  28.530   9.779   0.325
51807W        W13470  18.594  10.278   1.373
51808W        W13471  24.098  32.007  11.578
51809W        W13472  24.218  17.792   2.337
51810W        W13473  39.050  16.603  12.084
51811W        W13474  20.095   5.291   3.201
51812W        W13475  26.619  36.848   0.286
51813W        W13476  43.774   4.848  12.402
51814W        W13477  19.157  14.738   1.838
51815W        W13478  42.781  38.406  11.457
51816W        W13479   5.260   9.312   4.742
51817W        W13480  13.269  43.823  13.501
51818W        W13481  13.125  31.901  14.328
51819W        W13482  15.208  44.401  13.002
51820W        W13483   9.207   8.361   1.758
51821W        W13484  26.500   5.798  13.328
51822W        W13485  27.656  41.395   0.242
51823W        W13486  27.666  13.162  11.495
51824W        W13487  23.994  18.581   4.669
51825W        W13488  16.235  24.014  13.518
51826W        W13489  34.612  37.961   1.347
51827W        W13490  34.557  29.538  12.081
51828W        W13491  12.136  21.061   3.871
51829W        W13492   9.673  14.638  12.990
51830W        W13493  33.053  43.324   1.768
51831W        W13494  44.428  34.562   2.900
51832W        W13495  30.149   5.729   1.868
51833W        W13496   5.826  14.776  13.836
51834W        W13497  10.707   3.889   3.692
51835W        W13498  19.560   7.388  10.098
51836W        W13499  27.970  18.294  12.075
51837W        W13500  13.719  21.667   0.276
51838W        W13501  10.734  29.489  10.058
51839W        W13502  16.596  36.583  11.501
51840W        W13503  35.973  29.560  14.279
51841W        W13504  20.707  27.665   4.760
51842W        W13505   1.970  23.115  14.811
51843W        W13506   2.900  27.670  11.444
51844W        W13507  38.482  16.208  11.062
51845W        W13508  18.678  22.592  12.041
51846W        W13509  16.626  33.920  10.505
51847W        W13510   1.459  38.423   0.744
51848W        W13511   5.751  29.138   4.663
51849W        W13512  31.647  37.028   2.183
51850W        W13513  34.896  39.464   2.864
51851W        W13514  24.685  43.506  11.410
51852W        W13515  32.132  25.150   0.280
51853W        W13516   4.926  34.556   0.962
51854W        W13517  21.682  33.506  14.328
51855W        W13518  33.015  27.533   3.176
51856W        W13519  15.696  28.455   2.358
51857W        W13520  35.420  41.886   4.750
51858W        W13521  44.351  27.129   2.807
51859W        W13522  21.571  23.693  12.928
51860W        W13523  39.334  17.095   2.896
51861W        W13524  37.481  13.645  13.423
51862W        W13525  23.204  34.034  12.401
51863W        W13526   6.903  33.459   0.407
51864W        W13527  18.577  19.677   0.432
51865W        W13528   1.448   5.303   4.598
51866W        W13529  34.520  14.168  11.958
51867W        W13530  36.406   2.309  12.018
51868W        W13531  30.046  25.507  13.875
51869W        W13532  17.704  19.548   1.844
51870W        W13533  43.892  25.978  13.849
51871W        W13534  12.174  28.011  14.792
51872W        W13535   1.750  17.603  12.957
51873W        W13536  22.598   6.799  10.639
51874W        W13537  11.786  37.472  11.891
51875W        W13538  14.835  28.469  13.350
51876W        W13539  22.085  40.899   1.786
51877W        W13540  11.830   5.815  14.432
51878W        W13541  26.036   5.330  11.891
51879W        W13542  40.010  29.483  13.337
51880W        W13543  20.140   8.836   1.318
51881W        W13544   4.843  39.513   2.348
51882W        W13545   4.898  27.137  12.379
51883W        W13546  32.609  44.767   1.770
51884W        W13547  32.029  26.115   0.475
51885W        W13548  10.788  10.181   2.370
51886W        W13549  34.370  16.106  14.894
51887W        W13550  43.813  34.092   2.776
51888W        W13551  41.302  34.463   0.863
51889W        W13552   6.770   2.276   3.313
51890W        W13553  20.624   2.910  12.510
51891W        W13554  33.401  27.006  11.036
51892W        W13555  42.332  25.979   4.190
51893W        W13556  14.321   5.294  12.533
51894W        W13557  42.841  21.173   2.830
51895W        W13558   3.794  44.844   4.742
51896W        W13559  35.025  25.565   1.757
51897W        W13560  44.799  34.609   4.697
51898W        W13561  24.595  20.142  10.623
51899W        W13562  25.968  30.487   2.835
51900W        W13563  39.396   1.414   2.187
51901W        W13564  37.513  13.729  12.942
51902W        W13565   4.390   3.340  11.051
51903W        W13566  44.482  22.071  12.977
51904W        W13567   1.758  31.119   4.832
51905W        W13568  24.694  24.701  11.601
51906W        W13569  44.380  29.463  10.548
51907W        W13570  26.983  24.058   4.291
51908W        W13571  22.116  11.274  12.351
51909W        W13572  16.653   8.804   1.395
51910W        W13573  43.783  42.296  13.983
51911W        W13574   5.324  19.169   3.285
51912W        W13575  12.705   5.365  12.498
51913W        W13576  14.226   8.676  10.617
51914W        W13577   4.933  18.074  14.833
51915W        W13578   2.255  15.777   1.781
51916W        W13579  37.908  42.842  14.012
51917W        W13580  14.192  18.059   4.693
51918W        W13581  34.468  21.751   1.223
51919W        W13582  27.525  19.562   4.295
51920W        W13583  35.896  16.676   1.798
51921W        W13584   0.776  32.513  14.909
51922W        W13585   6.253  39.492  11.047
51923W        W13586  23.018  19.134   3.328
51924W        W13587   5.712  18.763   4.159
51925W        W13588  43.920  32.509  12.056
51926W        W13589   7.903   3.451  11.001
51927W        W13590  42.310  31.539  12.410
51928W        W13591  36.988  35.940  14.922
51929W        W13592  14.224  29.511  13.365
51930W        W13593  13.828   9.246  12.883
51931W        W13594  36.948  33.939   4.695
51932W        W13595  30.062  34.523  11.967
51933W        W13596  12.287  43.430   0.766
51934W        W13597  39.364  41.441  11.381
51935W        W13598  40.921   9.368  12.023
51936W        W13599   3.843  32.918  10.990
51937W        W13600  25.145   7.182  13.319
51938W        W13601  31.109  21.616  12.396
51939W        W13602  17.152  16.124   5.250
51940W        W13603  40.915  11.809   2.211
51941W        W13604   7.858  25.566  12.501
51942W        W13605  27.551  30.452   3.645
51943W        W13606  20.719  34.584  12.530
51944W        W13607  25.497  10.227  14.024
51945W        W13608  10.184  27.054  10.453
51946W        W13609   9.356  30.057  14.766
51947W        W13610   9.827  40.946   4.298
51948W        W13611  42.888  29.063   1.341
51949W        W13612  17.113  36.488  14.893
51950W        W13613   1.316   8.725   0.406
51951W        W13614  37.934   2.431  14.438
51952W        W13615  42.924  37.064   1.931
51953W        W13616   8.316   0.421  10.442
51954W        W13617  29.164  25.010   2.266
51955W        W13618  41.468   2.377   2.181
51956W        W13619  37.004  36.882  12.823
51957W        W13620  16.789  24.607   2.662
51958W        W13621  27.543  18.071   3.378
51959W        W13622   3.791  13.605   1.712
51960W        W13623   9.738  40.040  13.797
51961W        W13624  21.530  10.676  12.535
51962W        W13625  41.956  44.881   4.317
51963W        W13626  19.701  25.686   2.699
51964W        W13627   1.855   4.234   2.293
51965W        W13628  11.840  38.488  10.052
51966W        W13629  20.634  11.196   3.730
51967W        W13630  15.083  43.418   4.728
51968W        W13631   1.904  41.521  11.065
51969W        W13632  22.238  18.176   4.330
51970W        W13633   2.355   6.386   2.365
51971W        W13634  35.426  13.610  10.451
51972W        W13635  43.854  21.556   3.656
51973W        W13636  43.940  24.092  11.449
51974W        W13637   7.297  20.556  13.798
51975W        W13638  13.311  22.604  13.945
51976W        W13639  15.739  16.599   1.703
51977W        W13640   1.365  18.146   4.681
51978W        W13641  22.547   7.736   5.237
51979W        W13642   4.756  31.507   3.293
51980W        W13643  22.153  43.999   0.778
51981W        W13644  16.193  28.992   0.808
51982W        W13645  12.641  26.479  10.448
51983W        W13646   3.923  38.391  10.630
51984W        W13647   2.263  41.315  10.037
51985W        W13648  15.734   6.825  12.934
51986W        W13649  12.351  24.062  13.836
51987W        W13650   7.760  28.620   4.681
51988W        W13651  37.927   4.279   0.467
51989W        W13652  14.682  37.931   1.346
51990W        W13653   5.422  30.535   0.811
51991W        W13654  11.636  11.154  13.812
51992W        W13655  30.595  40.872   1.696
51993W        W13656  22.058  42.481  12.454
51994W        W13657  43.306  44.960   1.424
51995W        W13658  40.335   7.202   4.185
51996W        W13659   6.695  20.070   0.842
51997W        W13660  42.936  34.454  13.030
51998W        W13661  29.550  33.046  13.837
51999W        W13662  34.407  29.160  14.995
52000W        W13663  31.922  19.130  11.908
52001W        W13664  25.047   2.422  11.575
52002W        W13665  20.540  25.706   4.176
52003W        W13666   2.328  16.576   0.950
52004W        W13667   9.665  12.213   1.232
52005W        W13668  19.191   6.838  14.020
52006W        W13669   3.835  19.610   4.324
52007W        W13670   8.790  12.722  10.503
52008W        W13671  10.773  30.510   4.275
52009W        W13672   8.366  20.064   1.782
52010W        W13673  15.666  24.176  12.038
52011W        W13674  33.084  20.144   1.802
52012W        W13675  41.328  23.618  10.944
52013W        W13676  30.076  24.706   3.256
52014W        W13677   0.315  12.147   2.190
52015W        W13678  40.405  25.686  10.987
52016W        W13679  28.967  42.323   1.732
52017W        W13680  23.227  23.011   2.252
52018W        W13681  37.979  23.203   4.139
52019W        W13682   9.221   0.296  11.071
52020W        W13683  11.770   2.277  14.985
52021W        W13684  23.067  14.110   3.809
52022W        W13685  10.707  30.423   1.865
52023W        W13686  37.977   3.438  11.961
52024W        W13687  39.061  27.479   3.259
52025W        W13688   0.269  25.056   3.677
52026W        W13689  42.404  25.211  12.389
52027W        W13690   6.796  18.659   2.821
52028W        W13691   5.264  13.215   3.324
52029W        W13692  21.738  21.262   2.185
52030W        W13693  44.350  16.156   2.664
52031W        W13694  34.502  31.944  12.474
52032W        W13695  44.831  43.322   1.372
52033W        W13696  35.902  35.452  13.830
52034W        W13697  38.969   5.330  13.502
52035W        W13698  41.459  23.158   3.815
52036W        W13699  32.472   7.408  12.959
52037W        W13700  23.511  37.524   0.844
52038W        W13701  40.805  26.137  12.349
52039W        W13702   5.909   3.381   3.861
52040W        W13703  28.040   3.885   4.750
52041W        W13704  12.658  15.157  12.881
52042W        W13705  28.030  16.612   4.321
52043W        W13706  13.328   8.863   4.831
52044W        W13707   5.824  41.902   1.854
52045W        W13708  44.877  35.010   2.271
52046W        W13709  19.650  12.828   2.271
52047W        W13710  31.423  39.024   4.232
52048W        W13711   6.859  29.109  12.835
52049W        W13712  35.435  11.639   4.248
52050W        W13713  33.039  31.998  11.121
52051W        W13714   2.828  19.624  10.416
52052W        W13715  41.438   3.836   2.891
52053W        W13716   6.705  44.841  11.006
52054W        W13717  27.560  10.678   1.254
52055W        W13718  29.116  36.555   1.258
52056W        W13719   0.348  41.812  14.398
52057W        W13720   7.737   4.841  13.374
52058W        W13721  28.997   2.465  14.997
52059W        W13722  29.049  44.395  10.533
52060W        W13723  37.001  31.022  11.545
52061W        W13724  19.092  42.420  14.385
52062W        W13725  41.451  17.618   2.712
52063W        W13726   9.245  43.940  14.874
52064W        W13727  22.550  11.294  10.024
52065W        W13728  43.904  33.477  12.362
52066W        W13729   7.219   8.351   3.326
52067W        W13730  34.112   0.779  13.526
52068W        W13731  42.509  44.307   0.414
52069W        W13732   6.382  28.491  11.387
52070W        W13733  17.731   3.399   1.705
52071W        W13734  28.569  18.726  13.835
52072W        W13735   8.260  29.474   4.187
52073W        W13736  25.674  24.674   2.825
52074W        W13737  16.583  33.886   1.854
52075W        W13738  16.122  31.931   5.237
52076W        W13739  16.693  31.029  13.912
52077W        W13740  35.869  29.477  14.962
52078W        W13741  27.062   3.247   0.302
52079W        W13742  43.901  11.743   1.384
52080W        W13743  38.968   4.435  13.402
52081W        W13744   8.394  28.582  12.089
52082W        W13745  24.583  21.054  12.348
52083W        W13746  25.164  43.940   3.222
52084W        W13747  21.098  19.566   3.297
52085W        W13748  32.030   1.400  13.453
52086W        W13749  42.023  25.962   2.821
52087W        W13750  18.692  27.005  14.479
52088W        W13751  15.744  12.697  13.845
52089W        W13752  29.150   3.720   1.287
52090W        W13753  40.432  34.423   1.436
52091W        W13754  24.604  37.847  11.396
52092W        W13755  41.377  12.118  13.543
52093W        W13756  14.241  18.555   4.600
52094W        W13757   3.880   7.886  13.331
52095W        W13758  34.094  29.997   1.876
52096W        W13759  22.561  34.471   3.654
52097W        W13760  44.376  31.608   4.241
52098W        W13761  24.983  14.291   0.814
52099W        W13762   4.391  42.501   3.712
52100W        W13763  14.321  37.083   1.231
52101W        W13764  18.731  31.625   4.690
52102W        W13765  30.427  24.227   4.332
52103W        W13766  35.510  23.490   0.285
52104W        W13767  43.345   8.195   0.824
52105W        W13768  38.062  22.553   4.344
52106W        W13769  27.181  21.583   0.366
52107W        W13770  43.407  41.465   2.197
52108W        W13771  39.416  11.309  12.467
52109W        W13772  19.246  23.120   4.323
52110W        W13773  41.482  35.104   3.226
52111W        W13774  24.061  11.720   3.299
52112W        W13775  11.228  28.674  12.356
52113W        W13776  35.864   1.880   3.693
52114W        W13777  23.608  34.981  14.773
52115W        W13778  18.584  22.505  10.909
52116W        W13779  13.340  30.160  12.544
52117W        W13780  42.296  29.975  10.935
52118W        W13781  22.696  11.774  12.998
52119W        W13782  44.988   7.395  12.892
52120W        W13783  34.547  33.424   3.774
52121W        W13784  14.588  39.815  12.381
52122W        W13785  12.358  37.549   1.442
52123W        W13786  10.831  19.189   2.732
52124W        W13787  10.782  32.996  13.847
52125W        W13788   2.376   8.338  13.878
52126W        W13789  28.098  31.933   0.910
52127W        W13790  17.595   3.875  14.820
52128W        W13791  13.268  27.676   2.754
52129W        W13792  13.204  15.674  10.026
52130W        W13793   4.848  41.485   0.307
52131W        W13794  24.675   1.312   3.237
52132W        W13795  26.462  24.148  11.390
52133W        W13796  41.880  40.309   2.823
52134W        W13797  36.942   6.417  10.114
52135W        W13798  43.865  44.333   1.870
52136W        W13799  42.291  37.835  13.342
52137W        W13800  23.178  30.605  12.045
52138W        W13801  41.870   7.382   0.933
52139W        W13802  29.619  10.281  14.832
52140W        W13803  43.924  34.583  11.553
52141W        W13804  15.121  37.482   9.966
52142W        W13805  41.944  38.331  13.862
52143W        W13806  37.486   9.798  10.036
52144W        W13807   2.793  42.428   0.740
52145W        W13808  11.335  39.532   3.214
52146W        W13809  39.903  41.870   3.251
52147W        W13810  32.616  10.824  11.123
52148W        W13811  36.561  34.542   2.288
52149W        W13812  42.504  14.334  12.992
52150W        W13813   9.803  42.915  14.967
52151W        W13814  33.559   9.885  13.535
52152W        W13815  40.046  26.173  14.860
52153W        W13816  23.200  17.708  11.402
52154W        W13817   5.277  17.594   4.209
52155W        W13818  29.613  21.160  13.853
52156W        W13819  18.626  23.053   0.961
52157W        W13820  28.120   2.857  10.090
52158W        W13821  13.633  35.477   4.645
52159W        W13822  37.399  44.327  12.833
52160W        W13823  24.051  35.527  14.925
52161W        W13824  36.348  16.631  13.866
52162W        W13825  10.785  44.990  14.760
52163W        W13826  38.828  41.404  10.029
52164W        W13827  23.717  36.976  13.049
52165W        W13828  26.545   8.336  10.912
52166W        W13829  25.010  18.192   4.198
52167W        W13830  30.979   4.906  13.357
52168W        W13831  25.045   5.325   1.861
52169W        W13832  33.109   5.705  13.040
52170W        W13833  24.705  35.968  11.391
52171W        W13834  15.124  42.299   2.702
52172W        W13835  34.972   3.723  10.405
52173W        W13836  27.111  23.173   2.762
52174W        W13837  44.397   6.896  13.530
52175W        W13838   1.335   8.707  11.429
52176W        W13839  24.562  21.563  11.476
52177W        W13840  18.588  30.438  12.557
52178W        W13841  19.261  10.659   4.746
52179W        W13842  33.950  40.960   2.758
52180W        W13843  16.172  44.465  12.027
52181W        W13844  30.047  22.074  12.350
52182W        W13845  12.799   0.792   0.442
52183W        W13846  43.951  13.802  11.110
52184W        W13847   6.708   1.816  11.564
52185W        W13848   3.901   6.881  10.918
52186W        W13849   7.400   1.793  11.949
52187W        W13850  24.601  38.877  11.028
52188W        W13851  23.113  32.430   2.694
52189W        W13852   2.296   8.767   2.370
52190W        W13853  29.937  13.227  14.331
52191W        W13854  18.789   8.334  10.438
52192W        W13855  22.132  36.375  11.947
52193W        W13856   6.233   1.762  10.016
52194W        W13857  15.597   7.177  14.947
52195W        W13858   3.386  42.946   3.823
52196W        W13859  14.774  14.201   2.721
52197W        W13860   1.816  20.545   3.727
52198W        W13861  25.083  12.829  12.909
52199W        W13862   8.351  38.045   2.832
52200W        W13863  19.185   2.381  11.099
52201W        W13864  44.951  28.565  12.904
52202W        W13865  29.975   6.902  13.891
52203W        W13866  40.491  11.299  13.815
52204W        W13867   4.823   8.179  13.502
52205W        W13868  28.594  25.540  11.468
52206W        W13869  22.182  26.591  10.129
52207W        W13870  41.862  11.643   0.352
52208W        W13871  39.018   3.737  13.030
52209W        W13872  10.337  27.015  12.340
52210W        W13873  43.452  44.301   3.151
52211W        W13874  10.217  34.568  11.036
52212W        W13875  44.878  14.688   0.728
52213W        W13876  28.617  10.243  11.501
52214W        W13877  22.191  18.076  12.858
52215W        W13878  36.431  35.894  12.833
52216W        W13879   8.832   8.738  12.580
52217W        W13880  20.738  27.500  12.573
52218W        W13881  28.064  27.046   3.738
52219W        W13882   3.356  36.957  13.881
52220W        W13883  35.034  24.593   1.751
52221W        W13884  11.730  43.793  11.036
52222W        W13885  20.603  27.064  14.813
52223W        W13886  22.118  27.015   0.959
52224W        W13887  30.649  32.410  10.629
52225W        W13888  30.436  26.037  13.990
52226W        W13889  31.590  27.676   1.708
52227W        W13890  40.455  27.187  14.309
52228W        W13891  33.931  23.144   3.329
52229W        W13892  31.420  26.183  14.302
52230W        W13893   5.908  17.699  14.480
52231W        W13894  43.353   4.440   2.355
52232W        W13895  25.577  13.203  11.600
52233W        W13896   6.231  39.519  10.423
52234W        W13897   6.827  33.392   3.290
52235W        W13898  43.350  15.635  14.435
52236W        W13899  15.240  37.025  14.021
52237W        W13900   8.386  28.044   4.231
52238W        W13901  39.900  19.074   1.699
52239W        W13902  40.042   7.856   5.284
52240W        W13903   2.314  17.725  11.432
52241W        W13904  13.261  17.229  13.855
52242W        W13905  22.193  43.003  12.914
52243W        W13906   9.357   4.383  12.467
52244W        W13907  37.361  44.503   2.247
52245W        W13908  28.642  34.878   1.231
52246W        W13909  22.219   9.735  13.879
52247W        W13910  20.726  15.140  11.015
52248W        W13911  41.535  22.050  11.004
52249W        W13912   0.311  36.374  13.923
52250W        W13913  19.694  32.082  12.355
52251W        W13914  18.193  27.620   0.281
52252W        W13915  41.908  29.476   2.279
52253W        W13916  12.838  35.442   4.223
52254W        W13917  13.633  12.286  11.939
52255W        W13918  22.661  34.409   4.728
52256W        W13919   6.337   6.761  14.850
52257W        W13920   0.913   9.383  12.953
52258W        W13921  31.533  41.386   4.274
52259W        W13922  25.498  13.791   0.946
52260W        W13923  27.137   9.863   2.241
52261W        W13924  43.473  16.592  11.534
52262W        W13925  14.286   4.390  11.507
52263W        W13926  19.575  26.615   4.760
52264W        W13927  36.500  40.860  14.424
52265W        W13928  41.999  34.512  11.439
52266W        W13929  44.417   3.433  12.868
52267W        W13930  22.623  36.436   4.339
52268W        W13931   9.280  41.524  14.399
52269W        W13932  30.014  38.476  13.817
52270W        W13933  23.629  14.186  12.409
52271W        W13934  33.399  25.076  11.116
52272W        W13935  39.451  40.414   3.171
52273W        W13936  41.494  22.229  13.344
52274W        W13937   2.966  10.178  13.420
52275W        W13938  21.746  33.128   2.871
52276W        W13939  12.623  42.448   1.779
52277W        W13940  24.688  44.434   1.237
52278W        W13941  10.789  33.400  12.439
52279W        W13942   6.808  20.708   0.861
52280W        W13943  10.260  43.476   0.476
52281W        W13944  13.670  36.397  11.454
52282W        W13945  41.012  13.811   2.781
52283W        W13946  28.496  26.065   4.681
52284W        W13947  22.051  11.841   1.420
52285W        W13948  13.327  10.779  10.589
52286W        W13949  13.110  14.225  14.839
52287W        W13950  30.477  13.114  12.851
52288W        W13951  39.355  37.532   4.139
52289W        W13952   4.423  37.840   2.210
52290W        W13953   3.716  26.973   1.767
52291W        W13954  32.417  15.273   3.843
52292W        W13955  19.632  33.547  14.012
52293W        W13956   8.177  26.650   2.663
52294W        W13957  38.063  22.249  12.832
52295W        W13958  34.605  22.106   1.857
52296W        W13959  32.499  30.605   3.220
52297W        W13960  18.737   5.899  12.977
52298W        W13961  15.667  15.716  11.499
52299W        W13962   2.960   7.907  13.414
52300W        W13963  35.409   7.339  12.530
52301W        W13964   4.256  38.054   4.723
52302W        W13965  43.495  21.097  10.595
52303W        W13966  14.624  33.612   2.855
52304W        W13967  19.052  14.099   0.466
52305W        W13968  25.121   6.679   2.665
52306W        W13969   1.792  30.563  13.394
52307W        W13970  33.053  14.667  11.586
52308W        W13971  10.339  15.812  11.608
52309W        W13972  44.918  13.148  11.027
52310W        W13973  14.147  18.650  12.027
52311W        W13974  10.289  43.316  12.400
52312W        W13975  35.984   5.743  12.448
52313W        W13976  22.147   2.754   3.801
52314W        W13977  29.449  18.084   3.201
52315W        W13978  32.551  15.172   2.309
52316W        W13979  37.838   4.396  11.099
52317W        W13980   2.749  28.438   2.687
52318W        W13981  39.339   3.245   5.205
52319W        W13982  29.627  18.232  11.061
52320W        W13983  14.213   9.684  11.559
52321W        W13984  41.361  25.546   0.823
52322W        W13985  37.442  26.156   1.335
52323W        W13986  10.863  32.631  12.422
52324W        W13987  28.456  18.253   0.419
52325W        W13988   3.403  18.218  12.023
52326W        W13989   6.786   5.872  12.459
52327W        W13990  44.323  10.363  12.032
52328W        W13991  28.625  31.571  14.336
52329W        W13992  16.219  27.071  10.570
52330W        W13993  33.574  42.481   0.299
52331W        W13994  32.098  21.673  11.920
52332W        W13995  32.120  41.413   3.150
52333W        W13996  43.435   2.763   0.780
52334W        W13997   0.906   4.845  13.839
52335W        W13998  25.174  10.165   4.166
52336W        W13999  40.049  21.586  10.539
52337W        W14000  33.454   9.796  14.349
52338W        W14001  30.940  34.457   1.347
52339W        W14002  33.610  37.067   4.751
52340W        W14003  11.279   0.901  13.872
52341W        W14004  25.583   6.744  13.528
52342W        W14005  18.705  17.071   0.813
52343W        W14006  20.124  32.527   1.322
52344W        W14007  16.573   3.779  14.515
52345W        W14008  17.601  23.992  14.380
52346W        W14009   4.269   6.338  14.940
52347W        W14010  10.711  43.348  14.911
52348W        W14011  10.850  22.134  12.461
52349W        W14012  30.536  28.128  12.016
52350W        W14013  22.737  31.945  11.013
52351W        W14014   8.169  35.529   0.730
52352W        W14015  36.438  37.488  12.060
52353W        W14016  38.472  42.004  13.861
52354W        W14017  38.908  40.461   5.127
52355W        W14018   6.876   1.769   2.178
52356W        W14019  43.479   6.362   3.288
52357W        W14020  11.813  16.130  12.956
52358W        W14021  42.993   6.403  12.073
52359W        W14022  42.401  40.915  14.498
52360W        W14023  42.373  37.541  10.973
52361W        W14024  18.593   2.319  14.418
52362W        W14025  25.552  16.211  11.975
52363W        W14026   2.938  26.117  13.339
52364W        W14027  27.681  36.534  14.516
52365W        W14028  42.281  18.205   0.367
52366W        W14029  37.476  38.468  14.962
52367W        W14030  38.354   8.844   1.277
52368W        W14031   5.847  33.041   3.196
52369W        W14032  27.560  44.410   1.752
52370W        W14033  12.628  41.883   0.941
52371W        W14034  23.149  24.510  14.855
52372W        W14035  18.250  23.623   0.748
52373W        W14036  20.119  11.333  10.584
52374W        W14037  36.854  25.080  10.508
52375W        W14038  11.289  25.062  13.968
52376W        W14039  38.045   2.815   3.719
52377W        W14040   8.357  12.690   2.736
52378W        W14041  42.846   3.282  13.393
52379W        W14042  24.209  27.469   2.843
52380W        W14043   5.309  30.129   4.696
52381W        W14044  36.984  18.601  11.483
52382W        W14045  15.188   9.271  14.886
52383W        W14046  17.145  25.021   2.395
52384W        W14047   7.910   2.249   3.709
52385W        W14048  40.479  20.216   2.676
52386W        W14049  12.706  34.940  11.066
52387W        W14050  10.314  31.546  10.473
52388W        W14051   7.831  40.977   0.801
52389W        W14052  34.380  24.654  14.317
52390W        W14053   0.947  40.835   1.352
52391W        W14054  26.101   4.257  11.017
52392W        W14055  23.030   2.323   1.866
52393W        W14056  12.851  30.433   1.905
52394W        W14057  29.988  13.750   3.312
52395W        W14058  21.124   4.335   1.440
52396W        W14059   8.704  17.298   0.916
52397W        W14060  41.398  29.994   3.837
52398W        W14061  21.593  20.585  12.823
52399W        W14062  25.674  31.030  13.526
52400W        W14063  17.304  44.393   5.310
52401W        W14064   0.264   3.237   0.402
52402W        W14065  12.651  11.139   4.601
52403W        W14066   0.819   4.395   3.706
52404W        W14067  33.545   1.929   0.731
52405W        W14068   9.272  16.253   2.275
52406W        W14069   9.658  35.485   3.265
52407W        W14070  22.558   2.254   0.939
52408W        W14071   2.462  18.714  11.894
52409W        W14072  25.981  21.635  13.522
52410W        W14073  33.060  17.195  13.958
52411W        W14074  14.274  18.155   1.223
52412W        W14075  38.936  27.979   2.735
52413W        W14076  25.210  44.765  11.609
52414W        W14077  29.100  27.045  12.090
52415W        W14078  26.099  42.375   3.252
52416W        W14079  27.160  38.841  13.890
52417W        W14080   5.260  13.293  12.565
52418W        W14081  41.939  24.544   1.451
52419W        W14082  17.666  16.609   0.892
52420W        W14083  18.109  28.046  13.406
52421W        W14084  23.181   3.749  11.956
52422W        W14085  44.401  22.148  11.954
52423W        W14086  31.572  18.682  12.381
52424W        W14087  17.274  43.483   4.145
52425W        W14088  27.624  28.624   0.832
52426W        W14089   2.760  30.941   2.313
52427W        W14090   3.858  30.136   1.415
52428W        W14091  11.677  41.856  14.436
52429W        W14092  27.558  37.086  14.300
52430W        W14093  43.016  19.254   1.443
52431W        W14094  29.480  15.592   3.741
52432W        W14095   1.799   2.912   4.227
52433W        W14096   0.774   0.377   3.784
52434W        W14097  13.617  41.920  13.384
52435W        W14098   4.810  15.239  12.508
52436W        W14099  20.568  36.398   2.401
52437W        W14100  28.980  34.466  13.462
52438W        W14101  33.496  11.659   3.677
52439W        W14102   7.782  21.734   3.650
52440W        W14103  30.440  37.415  12.368
52441W        W14104  36.351  10.767   1.768
52442W        W14105  19.738  30.659   3.152
52443W        W14106  35.062  11.655  14.481
52444W        W14107  16.691  25.707  12.066
52445W        W14108  20.056  19.721   1.288
52446W        W14109  21.074  40.502  11.527
52447W        W14110   8.375  13.197   1.211
52448W        W14111  44.313  37.870   4.149
52449W        W14112   2.825  19.229  11.596
52450W        W14113  38.933  16.730  14.957
52451W        W14114  16.133  41.396  13.383
52452W        W14115  40.310  23.658   1.741
52453W        W14116  40.514  36.413   1.717
52454W        W14117  11.666  28.170  13.320
52455W        W14118  17.667  41.507  10.525
52456W        W14119  13.599  37.407   0.905
52457W        W14120   0.468  37.395   3.239
52458W        W14121  15.218  14.652  10.033
52459W        W14122  11.722  36.892   1.907
52460W        W14123   9.808   5.756  11.416
52461W        W14124  40.453  20.089  10.643
52462W        W14125  31.001  34.106  11.115
52463W        W14126  37.927  16.228  12.404
52464W        W14127   6.823  13.144  13.910
52465W        W14128   8.386  17.131   2.236
52466W        W14129  26.086  35.098   2.899
52467W        W14130  34.906  26.172   1.245
52468W        W14131  26.075   2.848  14.915
52469W        W14132   6.829  37.019  13.411
52470W        W14133  26.126  12.625  10.468
52471W        W14134   0.876  26.693   2.221
52472W        W14135  11.179  12.797   0.407
52473W        W14136  34.434  41.448   4.329
52474W        W14137  15.819  10.330  11.096
52475W        W14138  36.888  28.080  14.881
52476W        W14139  36.853  25.549  12.994
52477W        W14140  35.497  33.939  13.854
52478W        W14141   4.265  27.609   3.164
52479W        W14142  32.438  38.016   3.795
52480W        W14143  13.155  16.298   1.316
52481W        W14144  26.516  19.548  12.378
52482W        W14145  27.993  31.937   3.844
52483W        W14146  16.273   4.248   2.250
52484W        W14147  24.130  13.816   2.362
52485W        W14148  12.810  16.671   2.717
52486W        W14149  21.258  22.704  11.545
52487W        W14150  42.895   0.749  10.941
52488W        W14151  29.447  44.841   4.258
52489W        W14152  14.188  22.674   4.290
52490W        W14153  16.633  10.334  12.037
52491W        W14154  23.536  16.760   2.219
52492W        W14155  32.540  31.113  13.958
52493W        W14156  17.126  24.199  13.060
52494W        W14157  42.030  40.011   2.273
52495W        W14158  17.689   8.172  13.040
52496W        W14159   6.754  19.226   4.639
52497W        W14160  33.527  34.118   4.211
52498W        W14161  38.549  16.693  14.323
52499W        W14162  22.221  17.106   4.344
52500W        W14163  34.553  34.926  11.948
52501W        W14164  43.361   2.900  11.022
52502W        W14165  29.946  36.921  13.872
52503W        W14166  43.820  15.669   2.676
52504W        W14167  40.389  40.966   1.796
52505W        W14168  20.690  41.960  11.860
52506W        W14169  25.524  33.499  14.396
52507W        W14170  44.952   2.434  14.828
52508W        W14171  40.516  37.346   2.340
52509W        W14172  35.989  10.175  10.546
52510W        W14173  30.566  29.437   2.359
52511W        W14174  42.990  43.427   4.834
52512W        W14175  20.056   3.270  14.958
52513W        W14176  12.259  16.647  11.953
52514W        W14177  34.102  29.126  12.857
52515W        W14178   1.875  37.402   1.412
52516W        W14179  35.078   6.913  14.030
52517W        W14180   8.207  14.723  11.883
52518W        W14181  34.482  36.866  11.486
52519W        W14182  10.806  18.595   0.749
52520W        W14183  38.913  13.271   0.306
52521W        W14184  36.388  34.929   1.722
52522W        W14185  44.448  27.683   1.806
52523W        W14186  23.128  39.344  10.066
52524W        W14187  20.266  22.616   0.306
52525W        W14188   4.368  23.656   3.268
52526W        W14189  13.697  11.127  11.540
52527W        W14190  41.960   8.271  14.353
52528W        W14191  31.514  24.023   3.187
52529W        W14192  37.916  11.699  11.446
52530W        W14193  41.295  20.629  11.605
52531W        W14194  32.479  14.222  11.930
52532W        W14195  30.583   6.252   1.723
52533W        W14196  40.816  22.189  12.884
52534W        W14197  24.610  44.304   3.236
52535W        W14198   5.355  16.676   0.270
52536W        W14199  30.994  20.615  10.111
52537W        W14200  13.292  17.100   3.340
52538W        W14201  21.730   5.708  11.093
52539W        W14202  36.352  33.909  10.619
52540W        W14203  32.605  40.453  13.983
52541W        W14204  16.133  33.532  10.508
52542W        W14205  42.474  11.791   2.847
52543W        W14206  38.461  42.899  11.500
52544W        W14207  15.800  37.360  13.323
52545W        W14208  38.004  31.104   1.699
52546W        W14209   3.904  40.924  13.870
52547W        W14210   8.685  21.733  14.384
52548W        W14211  32.885  25.082   0.270
52549W        W14212  39.482  24.061  11.476
52550W        W14213  16.643  36.925  13.437
52551W        W14214  30.924  35.946  10.621
52552W        W14215  19.555  11.303   4.673
52553W        W14216  28.646  27.130  13.405
52554W        W14217   4.234  14.733  12.900
52555W        W14218  32.473   1.390   1.434
52556W        W14219  21.661  44.457   2.400
52557W        W14220  34.053  18.283  10.542
52558W        W14221  16.088  30.521  11.954
52559W        W14222   8.742  20.249   3.789
52560W        W14223  12.793  28.611   0.443
52561W        W14224  24.703   0.445  13.890
52562W        W14225  22.113  17.745  13.345
52563W        W14226  42.448  12.176   2.395
52564W        W14227  26.196  44.406  13.547
52565W        W14228  10.308  20.119  11.433
52566W        W14229  31.562  42.364   4.246
52567W        W14230  17.146  33.556  12.909
52568W        W14231  44.416   8.702   0.896
52569W        W14232  14.758  38.487  13.348
52570W        W14233  25.472  44.754   1.858
52571W        W14234  36.923  24.013  14.320
52572W        W14235  14.220  28.459  10.453
52573W        W14236  39.364  33.889   0.353
52574W        W14237  17.284   2.874   4.255
52575W        W14238  12.762  44.450   0.956
52576W        W14239  20.204   2.864  11.544
52577W        W14240   7.681  20.756   4.248
52578W        W14241  31.115  17.721   3.656
52579W        W14242  23.177  40.532   0.398
52580W        W14243  23.532  11.628  14.416
52581W        W14244   9.177  43.393   2.683
52582W        W14245  27.155  39.498  14.275
52583W        W14246  40.951  40.444  11.380
52584W        W14247   9.856   4.932   0.745
52585W        W14248  31.977  37.960   0.895
52586W        W14249   1.422  37.537  13.452
52587W        W14250  16.140  14.717  11.498
52588W        W14251  27.532  12.797   1.415
52589W        W14252  33.029  40.394  12.963
52590W        W14253  35.534   8.691  11.086
52591W        W14254   8.281  30.484  13.311
52592W        W14255  29.119  26.703   2.716
52593W        W14256  24.686   2.842  14.310
52594W        W14257   4.243  31.563   4.297
52595W        W14258  41.899  16.313  10.160
52596W        W14259  32.496  22.733   1.894
52597W        W14260  41.019  15.807  11.384
52598W        W14261  37.994  28.645  13.868
52599W        W14262  22.164  37.335   4.664
52600W        W14263   1.745  36.411  12.989
52601W        W14264  17.146  27.548   1.766
52602W        W14265  11.719  11.717   4.728
52603W        W14266  10.151  28.627  10.633
52604W        W14267  21.534  21.214  13.547
52605W        W14268  43.909  30.129  13.357
52606W        W14269   0.988  24.089  12.397
52607W        W14270   7.397   8.729  12.932
52608W        W14271  26.487  27.179  14.509
52609W        W14272  22.065  32.586   1.835
52610W        W14273  26.105  40.343   1.372
52611W        W14274  36.446  16.580  11.115
52612W        W14275  28.961  18.627   0.255
52613W        W14276   6.890  20.030  14.331
52614W        W14277  41.866   7.833   1.735
52615W        W14278  14.676   9.717   0.766
52616W        W14279  36.929  12.762   0.383
52617W        W14280  39.507  34.581  10.913
52618W        W14281  40.499   7.291   5.242
52619W        W14282  34.401  22.076  12.092
52620W        W14283  44.376  39.910  14.934
52621W        W14284  21.705  40.401   1.792
52622W        W14285  43.984  16.771   1.236
52623W        W14286  38.384  39.379  11.578
52624W        W14287  16.586  44.966   0.429
52625W        W14288   4.941  24.687   1.321
52626W        W14289  15.229  31.434   4.213
52627W        W14290   3.340  37.839   3.706
52628W        W14291  32.078  34.507  13.356
52629W        W14292  44.504  10.711   3.737
52630W        W14293  42.486  20.178   4.703
52631W        W14294   6.318  41.296   1.269
52632W        W14295  35.374  44.832  11.921
52633W        W14296  26.169  24.083   4.311
52634W        W14297   0.321  44.806  13.060
52635W        W14298  23.667  23.014  12.853
52636W        W14299  39.858  15.281   0.429
52637W        W14300  40.443  22.159   0.782
52638W        W14301  23.209  11.815  14.955
52639W        W14302  11.683  35.933  10.630
52640W        W14303  30.044  14.184   3.199
52641W        W14304  18.294  25.122  11.076
52642W        W14305   0.416   5.759  12.972
52643W        W14306  35.896  31.990   4.147
52644W        W14307  33.453   3.301   0.821
52645W        W14308  25.515  13.705  14.916
52646W        W14309  34.956   6.832  13.436
52647W        W14310  28.053  20.676   3.675
52648W        W14311  30.561  41.380  12.431
52649W        W14312  43.503  12.824   1.897
52650W        W14313   3.312   7.170   2.313
52651W        W14314  17.777  35.525   4.150
52652W        W14315  30.006  41.384  10.589
52653W        W14316  39.359  11.194   0.270
52654W        W14317  33.938  33.071   1.842
52655W        W14318  35.429  32.608   3.671
52656W        W14319  26.115  11.742   2.672
52657W        W14320  12.355  38.049  14.956
52658W        W14321  32.512   5.357  11.424
52659W        W14322  31.044  33.418  11.028
52660W        W14323  21.517  43.782   4.123
52661W        W14324  25.193  41.796  11.945
52662W        W14325  28.552   9.885   1.725
52663W        W14326  14.596  25.087   2.690
52664W        W14327  37.059  19.198  12.408
52665W        W14328  24.097  36.520  11.994
52666W        W14329  15.707   7.808   3.206
52667W        W14330  20.615   6.775  13.432
52668W        W14331   9.787  12.674  11.880
52669W        W14332  11.242  37.418  13.535
52670W        W14333  18.559  17.620  13.396
52671W        W14334   2.261  37.869   4.267
52672W        W14335  31.502   7.205   2.325
52673W        W14336  10.245  23.018  13.830
52674W        W14337  30.957  41.900  14.356
52675W        W14338   6.746  31.541  13.823
52676W        W14339  33.504  29.037  13.864
52677W        W14340  21.158  10.868   1.418
52678W        W14341  29.625  28.114  10.482
52679W        W14342  31.025  25.064   1.227
52680W        W14343   7.412  39.339  12.874
52681W        W14344   6.352   4.805   3.827
52682W        W14345  24.588  19.590   2.415
52683W        W14346  10.243  11.217   5.089
52684W        W14347  15.626  35.474   4.270
52685W        W14348  30.953  12.646   2.298
52686W        W14349  26.207  44.303   3.752
52687W        W14350  35.479   8.788  11.429
52688W        W14351  25.089  41.967  12.832
52689W        W14352   6.308   8.251   2.813
52690W        W14353  32.002  19.549  14.349
52691W        W14354  28.471  37.404   3.720
52692W        W14355  26.696  17.766  13.008
52693W        W14356   9.374  15.216   3.821
52694W        W14357  29.933  18.187   3.693
52695W        W14358  10.672   7.862  14.383
52696W        W14359  43.997  27.673   2.829
52697W        W14360   2.293  44.280  14.957
52698W        W14361  39.407  21.036   0.460
52699W        W14362  11.169  24.555  13.341
52700W        W14363  44.368  17.574  11.449
52701W        W14364   7.331  40.944   2.297
52702W        W14365  42.425  34.473   1.905
52703W        W14366  24.123  29.536   1.402
52704W        W14367  28.505  32.979  12.092
52705W        W14368  29.492  11.252  14.357
52706W        W14369  26.012  11.326   4.188
52707W        W14370   4.927  41.874   1.260
52708W        W14371  34.585  43.930  13.481
52709W        W14372  10.745  25.672   4.836
52710W        W14373  39.861  38.058   2.815
52711W        W14374  20.209  22.120  14.824
52712W        W14375  35.022  14.595   0.953
52713W        W14376  23.994  12.840  12.510
52714W        W14377  42.379   7.402   0.480
52715W        W14378  13.721  14.623   4.279
52716W        W14379  42.336  13.826   4.163
52717W        W14380  25.567  38.394  13.338
52718W        W14381  34.952  30.614  13.521
52719W        W14382   0.269  39.819  14.471
52720W        W14383  31.609  25.061  13.038
52721W        W14384   1.261   7.204   2.828
52722W        W14385   1.968   9.799   4.163
52723W        W14386  16.216  28.047  11.612
52724W        W14387   1.285   8.777   5.142
52725W        W14388   3.345  12.817  12.385
52726W        W14389  31.088  41.875  12.983
52727W        W14390   8.378  27.576   0.860
52728W        W14391  30.911   9.171   3.300
52729W        W14392   2.783  30.571   0.247
52730W        W14393  29.168  30.581  13.519
52731W        W14394  11.622  31.553   1.325
52732W        W14395   9.857  32.436  12.894
52733W        W14396  39.315  31.597   2.225
52734W        W14397  31.479  16.285   4.757
52735W        W14398  42.426  30.963   3.802
52736W        W14399  33.949  19.715  11.459
52737W        W14400  41.338  18.595  13.791
52738W        W14401  29.155   4.432  12.992
52739W        W14402   5.850  27.526  13.969
52740W        W14403  24.213  36.542  10.970
52741W        W14404  27.537  23.624  13.880
52742W        W14405  41.491  42.391  13.349
52743W        W14406  36.463  21.139   0.387
52744W        W14407  19.534  13.140  11.510
52745W        W14408  15.169  15.675   0.852
52746W        W14409  11.228  38.010  11.887
52747W        W14410  12.342   5.203  10.624
52748W        W14411  37.989  19.693   3.291
52749W        W14412  33.890   9.269  12.055
52750W        W14413  38.499  15.772   3.867
52751W        W14414  33.458  11.255  11.878
52752W        W14415  32.525  19.252   5.254
52753W        W14416  36.560  18.740  11.416
52754W        W14417   1.938   6.742   1.829
52755W        W14418  15.151  32.395   0.382
52756W        W14419   3.810   3.311   1.234
52757W        W14420  34.582  11.666  12.996
52758W        W14421  26.046  13.785   0.261
52759W        W14422  20.120  30.487  14.026
52760W        W14423  28.470  32.939   4.731
52761W        W14424  44.469   4.879   0.275
52762W        W14425   0.279   3.449   3.675
52763W        W14426  30.474  30.012   4.669
52764W        W14427  27.504  14.177  14.327
52765W        W14428  21.533  15.698   1.213
52766W        W14429   8.255  33.527  14.918
52767W        W14430   8.207  44.982  11.510
52768W        W14431  39.026  33.969   2.899
52769W        W14432  15.214   1.359   3.171
52770W        W14433  20.255  39.418  10.420
52771W        W14434   7.330  11.638   1.268
52772W        W14435  39.540  28.064  10.956
52773W        W14436  14.309  20.751  11.100
52774W        W14437  43.019  28.634   2.327
52775W        W14438  18.082   7.370   3.831
52776W        W14439   5.877   5.929   2.367
52777W        W14440  19.695  11.355   3.305
52778W        W14441  43.812   7.769  13.808
52779W        W14442  28.071  29.936   4.276
52780W        W14443   9.780  29.439   0.838
52781W        W14444  12.724   6.911   0.265
52782W        W14445  26.171  24.571   1.432
52783W        W14446  16.238   2.884   0.795
52784W        W14447  32.593  35.090  12.992
52785W        W14448   6.340  29.083   4.341
52786W        W14449  36.399  29.952  11.398
52787W        W14450   3.751   5.294  10.958
52788W        W14451  42.478   9.887   3.686
52789W        W14452  26.463  17.067  10.504
52790W        W14453  40.876  16.225   1.328
52791W        W14454  39.417  14.192   2.314
52792W        W14455   6.920  25.220  14.314
52793W        W14456  18.191  24.509   3.246
52794W        W14457  30.588  31.465   2.700
52795W        W14458   4.272  20.653  14.926
52796W        W14459  44.289   7.724   1.342
52797W        W14460  18.642  38.003   1.288
52798W        W14461   8.848   7.908   1.234
52799W        W14462   9.244  10.865   4.747
52800W        W14463  22.581  20.075   1.737
52801W        W14464  22.072  40.363  14.826
52802W        W14465  20.601  13.204   9.527
52803W        W14466   5.322  27.171   4.231
52804W        W14467   3.364  40.953  10.625
52805W        W14468  23.564  19.617   0.879
52806W        W14469  23.644   5.361  13.974
52807W        W14470  31.514  33.071  10.964
52808W        W14471  20.708  41.004  13.829
52809W        W14472  37.460  29.153  10.425
52810W        W14473  28.525  12.284   4.825
52811W        W14474  15.320  33.543   1.713
52812W        W14475  13.168   5.810  10.448
52813W        W14476  36.445  37.030   3.228
52814W        W14477  24.536  22.717   2.784
52815W        W14478  12.130  41.010  10.609
52816W        W14479  16.227  43.934   3.173
52817W        W14480   1.245   8.248   2.694
52818W        W14481  11.667  12.839   2.398
52819W        W14482   0.321  27.153  12.374
52820W        W14483  36.874  24.498  13.493
52821W        W14484  16.299  30.931  14.872
52822W        W14485   7.380  33.537   3.828
52823W        W14486  32.401  25.506   4.767
52824W        W14487  28.098  18.640   1.379
52825W        W14488  16.225  14.261   1.227
52826W        W14489  13.340  40.975   4.221
52827W        W14490  11.354   0.371  11.967
52828W        W14491  29.646  16.726   3.850
52829W        W14492  21.748  31.921   1.788
52830W        W14493   7.228  40.993   4.288
52831W        W14494  22.665  28.646   0.322
52832W        W14495  24.523  25.705  13.311
52833W        W14496  44.502  17.732   5.316
52834W        W14497  17.588  19.143  12.484
52835W        W14498  32.027  11.710  14.834
52836W        W14499  44.944  14.206  10.964
52837W        W14500   7.377  39.462  14.865
52838W        W14501  31.516  42.377  13.429
52839W        W14502   8.694  28.577   0.478
52840W        W14503  29.967  10.821  14.303
52841W        W14504   4.208  15.298   0.270
52842W        W14505   0.983  16.577   5.322
52843W        W14506   2.956  43.309   1.235
52844W        W14507  41.509  25.481   4.171
52845W        W14508  32.623  44.900  10.546
52846W        W14509  37.047  29.661  14.964
52847W        W14510  37.949   8.317   3.319
52848W        W14511  35.096   0.420   2.283
52849W        W14512   2.925   6.921   2.900
52850W        W14513  26.466  10.178  13.894
52851W        W14514  39.917  23.714  12.885
52852W        W14515   2.270  35.901  13.310
52853W        W14516  35.921   0.335   1.433
52854W        W14517  22.567  43.421  12.889
52855W        W14518   5.351  13.200  11.902
52856W        W14519  22.193  34.486   4.685
52857W        W14520   8.900  41.308  13.366
52858W        W14521  14.686  33.927  11.570
52859W        W14522  40.019  34.918  14.348
52860W        W14523  44.826  34.390  14.765
52861W        W14524  14.240  17.750  12.444
52862W        W14525  25.962  15.781   2.402
52863W        W14526  16.128  41.860   0.343
52864W        W14527   3.896  11.657   0.395
52865W        W14528  43.980  25.068  12.508
52866W        W14529  22.534  21.059   1.839
52867W        W14530   5.915  40.925  11.565
52868W        W14531   4.340  35.564   2.699
52869W        W14532  23.120  21.750   3.210
52870W        W14533  23.241  33.984   1.451
52871W        W14534  33.386   3.240  14.494
52872W        W14535  17.716   2.279  10.925
52873W        W14536   3.368  25.069  14.282
52874W        W14537   6.871  26.969  13.060
52875W        W14538  37.470  34.604  14.475
52876W        W14539  26.665  24.658  11.413
52877W        W14540  32.013   7.377  13.546
52878W        W14541   6.317   4.364   4.612
52879W        W14542   4.442   9.165  12.896
52880W        W14543  18.775  26.583   5.274
52881W        W14544  14.794  28.180  14.781
52882W        W14545  13.134  18.162   4.200
52883W        W14546  16.222  18.555   2.865
52884W        W14547  20.195  10.193  11.974
52885W        W14548   9.348   4.290   0.781
52886W        W14549  30.911  42.498  14.492
52887W        W14550  20.544  43.292   1.320
52888W        W14551  12.315   9.777   4.237
52889W        W14552  43.883  30.015  12.832
52890W        W14553   3.437  38.435  14.011
52891W        W14554  33.451  23.629  12.937
52892W        W14555  41.532   6.787   3.344
52893W        W14556   2.426   8.720  10.441
52894W        W14557   2.355  25.512   3.158
52895W        W14558  29.118  38.929   4.826
52896W        W14559   0.339  23.703   4.228
52897W        W14560  23.594  21.037  11.380
52898W        W14561   5.282  22.547   4.305
52899W        W14562  26.133   4.814   4.308
52900W        W14563   7.365  40.871   1.825
52901W        W14564  39.996  35.433   0.446
52902W        W14565  38.855  27.170  10.049
52903W        W14566   4.851  25.514  12.488
52904W        W14567  42.994  37.485  13.830
52905W        W14568  40.386  26.952   1.710
52906W        W14569  23.715  42.808  14.958
52907W        W14570   2.873  15.799  11.399
52908W        W14571  38.012  25.686  14.972
52909W        W14572  31.457  29.056   0.947
52910W        W14573  34.972  31.101  14.850
52911W        W14574  39.061  22.218   4.616
52912W        W14575  20.061  22.603  13.376
52913W        W14576  30.112   2.242  10.944
52914W        W14577  34.003  17.786  10.009
52915W        W14578  19.064   1.787   1.755
52916W        W14579  13.342   3.221   2.758
52917W        W14580  42.463  44.382   1.761
52918W        W14581  18.237  32.104  11.374
52919W        W14582  14.766  11.347   3.380
52920W        W14583  18.744  22.561   2.717
52921W        W14584   7.311  21.547  12.975
52922W        W14585  25.138   1.792   3.736
52923W        W14586  22.524  42.991   0.295
52924W        W14587  16.233   7.371   4.352
52925W        W14588  32.471   6.679   5.105
52926W        W14589  35.457  31.143   2.357
52927W        W14590  37.520  39.481  13.353
52928W        W14591  12.692  13.258   4.315
52929W        W14592   1.310  23.552  12.491
52930W        W14593  25.113  12.735  11.075
52931W        W14594  33.597  30.141   1.702
52932W        W14595   6.377   1.244  13.851
52933W        W14596  17.295   2.758  14.902
52934W        W14597  24.097   5.234   4.194
52935W        W14598  39.030  40.331  11.990
52936W        W14599  14.254  23.072   4.253
52937W        W14600  24.530  26.501   0.287
52938W        W14601  32.959  22.129   1.911
52939W        W14602  13.682   3.921   2.833
52940W        W14603  27.487   9.238   4.181
52941W        W14604   9.865  17.210  12.049
52942W        W14605   1.757  27.562  12.068
52943W        W14606   1.868  24.537   1.368
52944W        W14607  26.141   7.357   1.797
52945W        W14608  40.444  30.628  11.071
52946W        W14609  35.888  37.896   4.305
52947W        W14610  23.719  31.503  12.944
52948W        W14611  15.258  35.566  13.794
52949W        W14612  26.666  28.090  14.880
52950W        W14613   0.494  15.166   0.323
52951W        W14614  25.704  42.359  14.321
52952W        W14615  22.006  35.584   0.480
52953W        W14616  13.198  32.071   3.218
52954W        W14617  10.726  13.812   0.788
52955W        W14618   9.796  40.447   4.837
52956W        W14619  15.284   9.766   1.729
52957W        W14620  37.891  26.164   3.162
52958W        W14621  38.947  37.847   2.876
52959W        W14622  35.429  16.610   0.895
52960W        W14623  17.127   7.226   0.883
52961W        W14624   5.259  14.707   2.896
52962W        W14625  31.458  39.319  11.423
52963W        W14626  12.689  17.568   0.729
52964W        W14627  23.581  34.556  11.579
52965W        W14628  16.658  12.127   1.892
52966W        W14629   1.788  15.615   2.364
52967W        W14630  40.541  25.104  11.586
52968W        W14631  24.539  35.014   0.957
52969W        W14632  10.372  16.216  14.952
52970W        W14633  19.117   8.298  14.869
52971W        W14634  21.615  11.783   4.732
52972W        W14635   2.435   6.318   5.263
52973W        W14636  22.142  41.431  11.941
52974W        W14637  34.914   8.868   2.215
52975W        W14638   3.366  37.897  11.578
52976W        W14639  22.231   3.745  12.366
52977W        W14640   6.706   4.390   3.339
52978W        W14641  36.865  41.389   0.857
52979W        W14642   9.828  24.482   0.907
52980W        W14643   8.657  21.138  12.354
52981W        W14644  20.755  23.537   0.266
52982W        W14645  24.009   1.381  11.978
52983W        W14646  32.941  33.499   4.313
52984W        W14647  10.339  29.150  13.850
52985W        W14648  44.858  10.785   1.695
52986W        W14649  24.043   8.326   2.395
52987W        W14650  34.580  23.984   3.745
52988W        W14651  27.557   4.778   4.607
52989W        W14652  25.617  13.133   4.666
52990W        W14653  32.526  13.719   2.732
52991W        W14654  19.223  36.884   2.873
52992W        W14655  37.993  19.695   3.820
52993W        W14656   1.442   9.721   3.159
52994W        W14657  17.743  36.885  12.365
52995W        W14658  22.738  16.660   0.949
52996W        W14659   7.778  33.939  12.556
52997W        W14660  23.189  26.505  13.506
52998W        W14661  31.567  16.187   0.759
52999W        W14662  28.656  23.646   2.876
53000W        W14663   0.954  38.996  11.551
53001W        W14664  43.981  15.263  11.560
53002W        W14665  13.333   6.915   4.320
53003W        W14666  10.738   4.304  14.789
53004W        W14667  16.199  41.832   3.800
53005W        W14668  43.787  20.524   2.686
53006W        W14669  21.649  31.995   4.167
53007W        W14670   5.395  16.102   3.707
53008W        W14671  21.705   1.939  10.061
53009W        W14672  43.513  29.582   2.670
53010W        W14673  16.101  13.270   1.273
53011W        W14674  40.872  34.516   3.187
53012W        W14675   4.203  24.712  14.838
53013W        W14676  27.460  26.566   1.267
53014W        W14677   4.348  21.110   4.621
53015W        W14678  31.611  27.649  10.895
53016W        W14679  24.005  35.864  10.025
53017W        W14680  37.038  41.418  11.534
53018W        W14681  29.990   3.792  12.526
53019W        W14682  44.938  33.454   3.666
53020W        W14683  13.739  18.708  14.473
53021W        W14684  29.109  17.665  11.093
53022W        W14685   3.898   4.715  13.811
53023W        W14686  43.876  44.325   4.304
53024W        W14687   0.350  43.921  10.970
53025W        W14688  37.376  18.770   5.304
53026W        W14689  30.429  18.705  12.490
53027W        W14690  44.820  20.196   0.394
53028W        W14691   4.815  11.815  10.132
53029W        W14692  27.094   2.818  12.396
53030W        W14693  18.738  22.567  14.939
53031W        W14694  42.813  38.377   2.281
53032W        W14695  15.168  13.283   2.396
53033W        W14696   7.283  33.429   2.213
53034W        W14697  43.916  18.065  14.766
53035W        W14698  12.857   5.749   3.269
53036W        W14699  10.326  10.253  13.966
53037W        W14700  39.391  17.170   4.722
53038W        W14701  12.273  40.943   1.827
53039W        W14702   1.345   4.378  10.954
53040W        W14703   9.253   7.344   2.821
53041W        W14704   2.316  40.380  13.445
53042W        W14705   2.838   4.829  12.458
53043W        W14706  28.556  10.252  14.973
53044W        W14707  16.730  10.703  13.451
53045W        W14708   6.216   7.875   0.342
53046W        W14709   9.655  38.836  14.963
53047W        W14710  25.552   2.368   2.871
53048W        W14711   7.794   0.923   0.411
53049W        W14712  23.160   0.482  10.008
53050W        W14713  39.389  14.687   2.285
53051W        W14714  22.566  42.455   9.935
53052W        W14715  42.395  37.572   2.695
53053W        W14716  22.201   0.256  12.925
53054W        W14717   0.490   2.350  12.017
53055W        W14718  41.920   7.668  14.991
53056W        W14719  20.045  12.847  14.972
53057W        W14720  10.201   6.824   9.617
53058W        W14721  37.480  25.607  14.811
53059W        W14722  42.792  37.971   0.858
53060W        W14723   0.375  35.460   4.834
53061W        W14724  24.521   1.292  10.937
53062W        W14725  44.418  33.546   0.469
53063W        W14726  33.029  37.390   4.279
53064W        W14727  34.881  35.486  10.534
53065W        W14728   1.858   7.684  11.561
53066W        W14729  27.535   8.849   1.769
53067W        W14730   6.358  15.239   3.802
53068W        W14731  32.634   5.352  14.822
53069W        W14732   1.412  14.300   2.368
53070W        W14733  23.513  39.812   3.763
53071W        W14734   9.256  19.053   1.841
53072W        W14735  35.357  42.974  14.506
53073W        W14736   0.945   0.385  10.410
53074W        W14737  14.236  14.284   3.291
53075W        W14738  17.301  41.945  13.895
53076W        W14739  15.252   6.190  11.939
53077W        W14740  20.683  29.464   2.769
53078W        W14741   2.291   3.286   4.760
53079W        W14742  44.866  32.500   4.767
53080W        W14743  30.502  34.026   1.696
53081W        W14744  42.426  16.257  10.421
53082W        W14745  14.819  14.213  11.517
53083W        W14746  27.943  37.398  14.315
53084W        W14747  44.990  26.561  12.882
53085W        W14748  40.053  38.018   3.147
53086W        W14749  35.987  31.033   0.289
53087W        W14750   9.760  34.103   4.698
53088W        W14751  18.286  12.274   0.294
53089W        W14752  44.326  29.119   0.798
53090W        W14753  29.125  41.998   0.739
53091W        W14754  29.468  29.041  10.596
53092W        W14755  43.339   1.257   4.808
53093W        W14756   1.819  24.580  11.958
53094W        W14757  38.056  12.310  12.086
53095W        W14758   6.242  32.576   4.649
53096W        W14759  24.100  40.798   3.218
53097W        W14760  29.162  28.042   1.428
53098W        W14761  10.640  36.041   2.786
53099W        W14762  37.953  21.549  11.980
53100W        W14763  13.654  23.537  11.941
53101W        W14764  36.902  34.454  13.904
53102W        W14765  24.648  42.500  12.381
53103W        W14766  10.310  37.931  14.458
53104W        W14767   6.715  39.931   3.869
53105W        W14768   6.415  30.067   0.916
53106W        W14769  44.420  38.899  14.784
53107W        W14770  31.919  20.216   0.730
53108W        W14771  22.583  11.637   4.751
53109W        W14772  32.423  31.978  11.516
53110W        W14773   2.848  21.115   2.319
53111W        W14774  23.147  23.216   0.367
53112W        W14775  14.270  21.513  11.520
53113W        W14776   5.278  20.618  11.600
53114W        W14777  35.914  43.488  13.997
53115W        W14778  24.059  26.504   0.896
53116W        W14779  19.566  30.140  14.992
53117W        W14780   6.288   6.236   1.810
53118W        W14781   9.686  38.351  13.342
53119W        W14782  26.554  29.503   0.250
53120W        W14783   3.760  38.995   0.435
53121W        W14784  36.079  16.701  10.928
53122W        W14785   2.912  35.019   1.885
53123W        W14786  33.504  28.010  12.824
53124W        W14787  11.688  28.972   2.383
53125W        W14788  10.717  38.979  11.856
53126W        W14789  24.499  27.947  11.427
53127W        W14790  37.927  40.954  14.454
53128W        W14791  38.327  14.168   4.121
53129W        W14792   8.733  25.125  14.936
53130W        W14793   7.403  38.373  14.795
53131W        W14794  44.899  41.968   4.749
53132W        W14795  10.650  18.653  14.956
53133W        W14796  39.938  11.718  11.072
53134W        W14797   4.234  30.420  12.987
53135W        W14798  39.548   2.403  13.874
53136W        W14799  25.059  27.447   0.767
53137W        W14800  33.064  41.378  13.909
53138W        W14801  25.543   1.859  12.921
53139W        W14802  43.909  10.279   4.266
53140W        W14803  42.944  17.296   2.250
53141W        W14804  26.977  35.079   4.300
53142W        W14805  17.150  38.000  13.846
53143W        W14806  38.514  21.134  11.439
53144W        W14807   5.781  20.155   1.425
53145W        W14808   8.215  25.113   2.861
53146W        W14809  41.883  20.662  14.283
53147W        W14810  27.000  23.069   5.743
53148W        W14811  12.160  43.780   4.136
53149W        W14812   8.768  33.426  13.850
53150W        W14813  33.521  31.608   0.861
53151W        W14814  29.604  33.897  12.956
53152W        W14815  20.224  14.121   4.769
53153W        W14816  39.467   4.937  12.926
53154W        W14817  35.406   6.197  12.455
53155W        W14818  35.087  19.617  13.455
53156W        W14819  39.034  15.173   1.440
53157W        W14820  27.071  20.187  14.405
53158W        W14821   4.244  35.919  12.501
53159W        W14822  10.840  29.588   4.643
53160W        W14823   6.307  16.717  14.897
53161W        W14824  26.978  26.497  14.883
53162W        W14825   2.295   4.851  14.385
53163W        W14826  14.300  40.515  10.096
53164W        W14827  26.993   7.684  13.456
53165W        W14828  11.295  21.155   3.682
53166W        W14829  31.134  20.596  10.910
53167W        W14830  30.639   7.405  13.974
53168W        W14831  33.048  31.515  13.062
53169W        W14832  19.111  31.422   0.879
53170W        W14833   6.918  31.403   3.347
53171W        W14834  15.723  42.518   3.250
53172W        W14835  28.018  15.615  11.982
53173W        W14836  39.335   9.167   0.965
53174W        W14837  15.783   3.768  10.575
53175W        W14838  39.319  29.483   4.157
53176W        W14839  16.158   9.788   3.634
53177W        W14840  38.529  22.225   1.399
53178W        W14841  43.293  18.692   0.919
53179W        W14842  20.696  38.464  10.579
53180W        W14843  23.182  40.991   3.212
53181W        W14844  37.967  29.493  14.782
53182W        W14845  44.846  15.644   2.856
53183W        W14846  30.567  44.773   4.336
53184W        W14847  18.668  37.081   0.324
53185W        W14848   3.440   5.807   4.835
53186W        W14849  30.954   0.780  10.149
53187W        W14850  27.458  44.264   2.363
53188W        W14851  36.000  25.114  13.881
53189W        W14852  17.099   9.162  13.822
53190W        W14853  38.557  41.454  12.865
53191W        W14854  25.564  33.017  12.853
53192W        W14855  42.499  27.124   4.774
53193W        W14856  29.449  40.548   2.210
53194W        W14857  10.664  42.302  12.943
53195W        W14858  10.724  41.823  14.320
53196W        W14859  27.024   6.919   4.617
53197W        W14860  36.090  36.927   0.786
53198W        W14861  34.946   2.308  13.332
53199W        W14862  26.194  18.251   4.765
53200W        W14863  32.636  29.444  10.902
53201W        W14864   3.892  26.537  13.885
53202W        W14865  36.393  38.500   1.849
53203W        W14866  12.320   6.743   1.371
53204W        W14867  36.848  36.856   3.802
53205W        W14868   6.748   8.373   1.823
53206W        W14869   2.821   6.290   3.203
53207W        W14870   1.240  24.523   3.279
53208W        W14871  24.086  23.616  13.849
53209W        W14872  17.251   6.361  14.309
53210W        W14873  14.715  31.021  11.938
53211W        W14874   7.891  34.521  13.013
53212W        W14875  40.307  25.544  11.960
53213W        W14876   3.930   3.257   2.200
53214W        W14877  37.959  30.556   3.806
53215W        W14878  30.936  15.795  12.418
53216W        W14879   1.939  30.483   0.923
53217W        W14880  27.968  43.289   4.245
53218W        W14881  35.955  33.425  13.367
53219W        W14882  41.931  12.116   4.249
53220W        W14883  16.156   5.809   1.861
53221W        W14884  37.422  13.243   3.713
53222W        W14885  29.080  23.559  13.850
53223W        W14886  44.466  18.080  13.936
53224W        W14887  10.845  32.510   1.694
53225W        W14888  36.969  43.809  14.354
53226W        W14889   2.757  14.149  12.375
53227W        W14890  37.923  26.625  13.335
53228W        W14891  44.479  30.529  11.094
53229W        W14892   4.864  30.624  13.482
53230W        W14893   8.862  25.561  11.441
53231W        W14894  27.975   0.363   3.332
53232W        W14895  23.034  27.960   3.352
53233W        W14896  17.156  19.274  13.483
53234W        W14897  25.567  35.925   1.431
53235W        W14898  13.657   9.297   4.161
53236W        W14899   6.304  37.342   4.757
53237W        W14900  33.013  14.670  14.936
53238W        W14901  36.924   5.848  14.435
53239W        W14902  34.067  33.431  12.090
53240W        W14903  39.446  36.842  14.899
53241W        W14904  43.369  24.076   0.349
53242W        W14905  24.022   3.354   1.926
53243W        W14906   4.405  11.804   0.268
53244W        W14907  38.440  40.818   0.366
53245W        W14908  35.915  19.734  11.933
53246W        W14909  41.787  33.509  12.873
53247W        W14910  40.834  31.637   4.735
53248W        W14911   4.295   5.409  11.884
53249W        W14912   1.258  29.637   3.797
53250W        W14913  43.329   5.771   3.645
53251W        W14914   4.380  15.281  11.422
53252W        W14915  41.362  29.172   4.607
53253W        W14916  32.908  28.112   0.827
53254W        W14917  40.990  33.499  10.440
53255W        W14918  38.405  25.468   3.787
53256W        W14919  10.850  38.981   0.347
53257W        W14920  35.020  19.777   2.676
53258W        W14921  43.309   7.213   3.704
53259W        W14922  10.813  26.466   3.841
53260W        W14923  23.698   4.713   4.256
53261W        W14924  42.330  35.967  12.418
53262W        W14925   4.446  43.388  14.892
53263W        W14926   7.702  32.894  14.004
53264W        W14927  13.716   7.771  13.063
53265W        W14928  28.185  21.643  13.954
53266W        W14929  38.414  23.609  13.326
53267W        W14930  21.703   7.759   1.352
53268W        W14931  23.631  33.953  11.379
53269W        W14932  43.331  32.924   1.218
53270W        W14933  28.132  12.678  10.048
53271W        W14934   5.795  40.398  14.342
53272W        W14935  36.553  34.547  12.497
53273W        W14936   8.884   7.851   3.645
53274W        W14937  42.971  28.596  10.949
53275W        W14938  31.424  23.046  14.956
53276W        W14939  34.987  17.140   4.636
53277W        W14940  16.077  33.004  12.911
53278W        W14941   2.272  28.588   0.328
53279W        W14942   4.438   3.267   3.754
53280W        W14943  14.787  13.733   1.805
53281W        W14944  14.229  34.046  10.463
53282W        W14945   4.772   6.291   0.336
53283W        W14946  19.083  37.464   4.254
53284W        W14947  24.063  33.078   1.326
53285W        W14948  10.332  11.202  11.492
53286W        W14949  38.020   7.375   3.715
53287W        W14950  17.738  23.618  11.968
53288W        W14951  41.974  24.034   3.714
53289W        W14952  40.396  38.946  11.960
53290W        W14953  10.182  24.672   0.244
53291W        W14954  17.680  44.009   1.816
53292W        W14955  26.665   3.399   4.181
53293W        W14956  21.126  38.028   0.395
53294W        W14957  43.969  20.641   0.258
53295W        W14958   6.204  26.083   1.795
53296W        W14959  40.337  21.554  10.978
53297W        W14960  38.380   2.332   2.359
53298W        W14961  30.971  15.657  13.862
53299W        W14962  18.674   2.844   0.331
53300W        W14963   2.426  10.213   4.237
53301W        W14964  36.461  30.090  12.486
53302W        W14965  13.636  32.898   4.158
53303W        W14966  42.282  41.891  12.027
53304W        W14967   7.814   6.883  14.026
53305W        W14968   6.188   8.826   1.447
53306W        W14969  33.491  11.783  11.425
53307W        W14970  43.363   0.410  11.991
53308W        W14971  40.351  43.821   0.340
53309W        W14972   0.340  10.847  10.535
53310W        W14973   3.217  11.170   3.673
53311W        W14974  29.930  13.678   4.122
53312W        W14975  39.988  38.338   0.268
53313W        W14976  22.735  31.072   1.321
53314W        W14977   7.175  38.475  11.457
53315W        W14978   6.328  24.595  11.372
53316W        W14979  28.999  12.312  11.902
53317W        W14980  43.838   8.242   1.909
53318W        W14981   2.908  19.749  11.585
53319W        W14982  11.284  41.037   0.837
53320W        W14983  24.533  26.186  10.569
53321W        W14984  25.064  39.926  14.793
53322W        W14985  41.929   1.443  12.006
53323W        W14986   4.221  27.688   1.901
53324W        W14987   1.970  29.956   0.728
53325W        W14988  22.739  40.433  11.595
53326W        W14989   5.328  39.461   3.713
53327W        W14990  23.090   4.932  10.460
53328W        W14991  29.509  38.479   1.334
53329W        W14992  28.550  42.526  14.452
53330W        W14993  44.270   8.693   9.484
53331W        W14994  13.185  18.171   1.829
53332W        W14995  32.056  24.617  11.532
53333W        W14996  29.002  43.343  13.487
53334W        W14997  42.840  10.671   0.333
53335W        W14998  31.968   7.728   5.124
53336W        W14999  44.922   2.277  13.413
53337W        W15000  11.195   3.724  13.876
53338W        W15001  33.590  29.598   0.264
53339W        W15002  17.768  11.305  11.451
53340W        W15003  23.052  30.917  13.034
53341W        W15004   1.300  43.005  11.905
53342W        W15005  37.950  29.023   1.770
53343W        W15006  29.489  21.572   2.857
53344W        W15007  26.169  31.069   3.218
53345W        W15008  42.859  25.527   3.360
53346W        W15009  31.478  40.316   0.361
53347W        W15010   3.290  28.500  12.513
53348W        W15011  18.258  40.885   0.894
53349W        W15012  37.572  35.947  12.088
53350W        W15013  16.631  39.530  10.456
53351W        W15014  26.635  15.642   9.980
53352W        W15015   0.341  15.279   2.399
53353W        W15016   5.368  37.476  14.819
53354W        W15017   0.361  10.776   2.795
53355W        W15018  26.600  10.701  14.403
53356W        W15019   7.382  42.927  14.826
53357W        W15020  40.980   5.261  11.561
53358W        W15021  23.059  25.625  13.030
53359W        W15022  29.464  23.072  12.089
53360W        W15023   2.841  30.999   4.658
53361W        W15024   3.257  42.986  12.985
53362W        W15025  15.579  31.480   2.679
53363W        W15026   6.272  21.682   2.869
53364W        W15027  11.789  18.742  12.901
53365W        W15028  29.925  38.973  11.909
53366W        W15029  39.822   8.881  11.962
53367W        W15030  22.513  42.289  12.888
53368W        W15031  41.031  34.383   1.917
53369W        W15032  15.794  11.632   4.689
53370W        W15033  22.726   1.865   1.339
53371W        W15034  32.967   9.213   1.329
53372W        W15035  40.931  25.639   1.793
53373W        W15036  44.764   0.462  13.875
53374W        W15037  44.284  42.872  10.977
53375W        W15038  40.970   2.895  12.513
53376W        W15039  25.561   7.688   4.341
53377W        W15040  41.857  32.612  12.985
53378W        W15041  20.571  41.403   3.255
53379W        W15042  36.358   9.805  10.558
53380W        W15043  11.642  29.146  13.894
53381W        W15044  25.500   9.170  14.432
53382W        W15045   3.954  18.666  11.073
53383W        W15046  27.574  33.382  14.413
53384W        W15047   1.758  12.816   0.885
53385W        W15048  25.021   4.816   0.823
53386W        W15049   1.418  17.186  11.393
53387W        W15050  17.116  16.791   2.283
53388W        W15051  37.455  35.578  10.514
53389W        W15052  28.992  37.006   0.367
53390W        W15053  15.636   4.215  13.501
53391W        W15054  37.449   5.793   2.817
53392W        W15055   8.292   3.825  12.399
53393W        W15056  24.633  27.667  13.027
53394W        W15057  41.828  43.780   0.802
53395W        W15058  18.205  37.034   1.798
53396W        W15059  23.199  41.341   1.730
53397W        W15060  32.912  37.007  10.530
53398W        W15061  12.735  16.759   4.738
53399W        W15062   4.400  24.538   3.293
53400W        W15063  16.617  14.110  13.330
53401W        W15064  11.637   3.878   4.239
53402W        W15065   2.240  43.948  12.890
53403W        W15066  23.559  36.845   4.699
53404W        W15067   2.339   2.823   0.308
53405W        W15068   9.161   0.421  12.565
53406W        W15069  43.796  14.245  13.980
53407W        W15070  43.969  11.703  13.953
53408W        W15071  17.772  11.803  11.939
53409W        W15072  35.565   5.415  12.841
53410W        W15073  35.537  17.557   4.646
53411W        W15074  22.095  18.080  11.445
53412W        W15075  14.249  17.066  13.815
53413W        W15076  26.105   2.423   5.294
53414W        W15077  38.854  27.079   4.826
53415W        W15078  11.772  41.452   3.835
53416W        W15079  43.454  21.673   3.768
53417W        W15080  36.091  43.996  11.555
53418W        W15081   0.404  26.458   0.391
53419W        W15082   6.376  27.626  14.993
53420W        W15083  35.361  41.805  11.090
53421W        W15084   0.776   3.300   2.900
53422W        W15085   7.910  15.170  11.077
53423W        W15086  43.819   9.875  14.901
53424W        W15087  10.385  44.451  14.484
53425W        W15088  26.541  40.863   1.931
53426W        W15089  27.625  42.495   0.851
53427W        W15090   5.718  29.619   3.336
53428W        W15091   6.846  25.589  11.054
53429W        W15092  38.507  19.075  12.556
53430W        W15093  32.992  14.605   4.634
53431W        W15094  20.201  43.014  13.903
53432W        W15095  14.764  30.978  10.570
53433W        W15096  39.399  42.863  10.483
53434W        W15097   9.850  24.570  12.850
53435W        W15098  10.723  24.997   2.750
53436W        W15099  32.938  43.442   0.948
53437W        W15100  44.858  43.859   3.871
53438W        W15101  16.622  15.705   9.669
53439W        W15102  24.165  38.947  14.417
53440W        W15103  32.434  30.570  11.898
53441W        W15104  21.635  33.944  10.413
53442W        W15105  15.322  44.492  11.479
53443W        W15106   6.227  42.372  12.042
53444W        W15107  35.533   2.239   0.792
53445W        W15108  36.535  21.180  13.475
53446W        W15109  41.842  37.889  11.974
53447W        W15110   5.433  33.025  13.445
53448W        W15111  38.057  21.704   4.788
53449W        W15112  38.482  34.417   1.805
53450W        W15113  34.451  30.470   0.389
53451W        W15114   8.729   3.740  13.376
53452W        W15115  35.510   2.752  14.488
53453W        W15116  22.510  13.193   2.241
53454W        W15117  15.252  14.172   3.636
53455W        W15118   6.789  33.046   3.805
53456W        W15119  27.031  26.038  14.281
53457W        W15120  39.323  11.339   2.285
53458W        W15121  35.361  16.283  14.397
53459W        W15122  44.950  29.571   2.770
53460W        W15123  16.784  11.744  13.536
53461W        W15124  29.631   1.351  14.954
53462W        W15125  36.938  26.961   0.326
53463W        W15126  35.864  15.241   0.343
53464W        W15127   6.203   5.403   2.196
53465W        W15128  31.925  37.010  12.033
53466W        W15129  26.543   8.381   2.785
53467W        W15130  19.637  35.453   2.898
53468W        W15131   5.403  17.276  13.378
53469W        W15132  33.940  19.596  13.806
53470W        W15133   6.820   0.804   4.280
53471W        W15134   6.264  36.042   1.730
53472W        W15135  16.306  23.723   1.217
53473W        W15136  24.073  24.156   3.867
53474W        W15137   6.720   1.856  11.088
53475W        W15138  15.190  38.415   4.161
53476W        W15139  30.093  30.077   2.795
53477W        W15140   8.880  38.532   2.200
53478W        W15141  13.622   5.775   1.738
53479W        W15142   3.220  25.123   0.467
53480W        W15143  22.724  25.168   4.114
53481W        W15144   7.210  35.999   1.296
53482W        W15145   2.897  10.296  12.003
53483W        W15146  35.523  34.972  13.418
53484W        W15147  44.930  10.770  14.929
53485W        W15148   2.310  27.158   0.730
53486W        W15149  31.070  39.063   3.824
53487W        W15150  31.590   9.704  12.386
53488W        W15151  10.757  24.483  13.322
53489W        W15152  41.470  29.982  13.022
53490W        W15153   3.725  25.530  12.008
53491W        W15154   0.417  16.721   5.691
53492W        W15155  11.782   0.846   0.864
53493W        W15156  44.390   0.430  12.067
53494W        W15157  36.984  29.562  13.801
53495W        W15158   1.291  17.211   2.288
53496W        W15159  24.112  10.336   5.206
53497W        W15160  37.548  29.123  14.333
53498W        W15161  19.222  35.104   3.696
53499W        W15162   1.972   7.292  13.439
53500W        W15163  25.042   8.330   0.289
53501W        W15164  15.728  37.533  11.915
53502W        W15165  24.088  17.124   3.812
53503W        W15166  20.617  30.057   3.323
53504W        W15167  20.217   2.927   2.731
53505W        W15168  10.297  42.846   2.763
53506W        W15169  28.471  27.009   4.296
53507W        W15170  15.155  10.646  11.985
53508W        W15171  18.576  11.819   1.214
53509W        W15172   2.464  36.936  12.935
53510W        W15173  38.956  19.688  11.908
53511W        W15174  43.328  27.463  13.309
53512W        W15175  19.112  24.005   2.747
53513W        W15176  30.143  28.442   3.226
53514W        W15177  14.311  26.463  12.846
53515W        W15178   8.193   3.850   2.715
53516W        W15179   6.697  21.207   3.337
53517W        W15180  32.902  26.536  10.912
53518W        W15181  43.495  19.227  11.995
53519W        W15182  10.874   9.281   3.233
53520W        W15183  40.033  12.210  12.983
53521W        W15184  34.474   4.248   0.331
53522W        W15185  30.056  22.080  11.432
53523W        W15186   3.261  41.372  14.974
53524W        W15187  18.774  20.709   3.338
53525W        W15188  37.082  29.455   0.293
53526W        W15189  12.241   0.940   3.758
53527W        W15190  39.433   4.408   4.140
53528W        W15191  21.235  28.096   4.317
53529W        W15192  13.768  31.464   4.189
53530W        W15193  42.894  32.525   1.383
53531W        W15194  16.643  31.429   2.888
53532W        W15195   0.891   6.269  13.847
53533W        W15196  41.417  39.549   2.742
53534W        W15197   0.764   1.383  13.922
53535W        W15198  28.068  44.974  14.351
53536W        W15199  42.031  19.566  10.577
53537W        W15200  32.588  33.924  10.468
53538W        W15201  28.181   0.953   5.259
53539W        W15202  19.754  20.679   3.283
53540W        W15203  30.620  26.517   5.104
53541W        W15204  31.991  33.560   1.872
53542W        W15205  29.538   1.882  12.340
53543W        W15206   8.219   0.423   4.348
53544W        W15207  17.750   8.373  14.961
53545W        W15208  34.543   1.417   3.369
53546W        W15209  14.676  24.209   1.333
53547W        W15210  41.881  21.739   1.422
53548W        W15211   8.350   0.295  13.447
53549W        W15212  35.106  18.254   0.479
53550W        W15213  13.716  43.827  14.987
53551W        W15214  23.064  43.786   3.660
53552W        W15215  25.496  40.043  14.957
53553W        W15216   0.749  33.490  12.561
53554W        W15217  38.840  35.443   2.789
53555W        W15218  17.722   5.728   4.149
53556W        W15219   4.329  10.643  13.880
53557W        W15220  36.082  30.076   0.766
53558W        W15221  29.989   7.219   2.713
53559W        W15222  25.039  37.992   2.732
53560W        W15223  21.261  29.119  12.428
53561W        W15224  35.366   5.296   2.250
53562W        W15225   5.749  33.020   1.235
53563W        W15226  38.036  29.129   1.446
53564W        W15227  29.069  42.503  12.545
53565W        W15228  38.922  15.111  13.865
53566W        W15229   3.428  43.347   3.858
53567W        W15230  14.796  22.604   1.322
53568W        W15231  33.538  29.966  10.501
53569W        W15232   1.457  20.742  11.441
53570W        W15233  26.695  17.234   2.409
53571W        W15234  19.216  11.848  13.531
53572W        W15235  12.239  17.255   3.743
53573W        W15236   0.970  37.353  15.000
53574W        W15237   7.810  44.832   2.281
53575W        W15238  32.610  42.302   2.180
53576W        W15239  40.370  19.140   1.791
53577W        W15240  17.682  24.549   2.244
53578W        W15241  44.860  21.095  14.797
53579W        W15242   0.788  36.084   2.900
53580W        W15243  30.510  32.102  12.572
53581W        W15244  13.245  13.712   4.697
53582W        W15245  10.820  21.621   2.809
53583W        W15246  25.504   0.774  12.085
53584W        W15247   7.400  39.438   0.369
53585W        W15248  44.313  40.530   4.775
53586W        W15249  28.559  19.259   0.856
53587W        W15250  26.113  15.759   0.861
53588W        W15251  34.409  24.614   3.307
53589W        W15252  36.866  23.123  13.989
53590W        W15253  21.022  29.446  11.855
53591W        W15254  42.924  30.938  11.938
53592W        W15255  14.109  10.845   0.880
53593W        W15256  14.823   9.879   3.738
53594W        W15257  11.127  28.677   0.343
53595W        W15258  12.291  42.347  13.972
53596W        W15259  31.071  43.395   2.892
53597W        W15260   5.217  24.088   0.266
53598W        W15261  32.554   8.310  12.833
53599W        W15262  14.736   7.287   5.196
53600W        W15263  43.843  32.491  14.793
53601W        W15264   2.367  37.534  13.804
53602W        W15265  41.983  20.572   1.233
53603W        W15266  21.592  28.439  13.018
53604W        W15267  14.644  14.315   3.285
53605W        W15268  10.193  17.739   0.926
53606W        W15269  32.512   2.401   4.732
53607W        W15270  36.371   1.294   2.847
53608W        W15271  17.267  15.091  13.865
53609W        W15272  36.899  40.520   4.183
53610W        W15273  43.347  30.565  11.530
53611W        W15274  30.613   2.459   2.854
53612W        W15275  16.182  39.396   3.741
53613W        W15276  12.289  39.488   2.724
53614W        W15277  21.040  14.832   3.667
53615W        W15278   2.875  23.161   0.748
53616W        W15279  30.609  21.170   1.350
53617W        W15280  10.261  10.199  11.515
53618W        W15281  15.091  24.193   4.696
53619W        W15282  23.198   8.364   1.269
53620W        W15283  42.024  16.176  11.429
53621W        W15284  31.995   9.663   2.739
53622W        W15285  25.056  33.581   0.810
53623W        W15286   9.286   0.921   0.930
53624W        W15287  11.669   7.765  11.379
53625W        W15288  21.113   8.161   3.657
53626W        W15289  33.521  44.410  13.316
53627W        W15290  27.130   8.711   5.319
53628W        W15291   4.250  10.853   2.195
53629W        W15292  26.487   0.820   0.284
53630W        W15293  26.486  13.266  12.506
53631W        W15294  15.715  30.652  11.092
53632W        W15295   3.925   9.369  11.913
53633W        W15296  40.375  26.532   5.288
53634W        W15297  14.783  28.534   0.820
53635W        W15298  42.948  12.121   1.758
53636W        W15299  11.640  35.960   3.790
53637W        W15300  23.686  36.415   1.743
53638W        W15301  16.742  29.968   2.710
53639W        W15302  10.721  20.763  14.393
53640W        W15303   4.768  18.107   0.464
53641W        W15304  24.548  43.943   1.841
53642W        W15305  16.594  27.994  13.791
53643W        W15306  40.378  38.890  10.933
53644W        W15307  27.465   0.437  12.365
53645W        W15308  23.025  37.473  11.483
53646W        W15309  14.764   6.775   2.312
53647W        W15310  43.310  32.012   4.189
53648W        W15311  30.011  40.382  14.335
53649W        W15312  37.433  41.018   0.905
53650W        W15313  42.801  42.495  14.451
53651W        W15314  13.304   1.427  14.276
53652W        W15315   2.804  42.501  11.039
53653W        W15316  33.957  37.936   2.825
53654W        W15317  41.841   1.928  14.355
53655W        W15318   9.887  15.268   3.783
53656W        W15319  37.424   9.314  10.153
53657W        W15320  44.973  17.198  15.000
53658W        W15321  24.482  42.293   4.702
53659W        W15322  11.822  36.933  13.438
53660W        W15323   8.814  38.849   0.324
53661W        W15324   2.428  16.231   4.212
53662W        W15325   4.748  19.180  12.914
53663W        W15326  28.496  44.951  13.838
53664W        W15327  35.103  23.094  12.436
53665W        W15328   0.802   0.451   4.654
53666W        W15329  37.565  12.268  13.873
53667W        W15330   6.755  22.153  12.846
53668W        W15331  23.585  18.140   0.963
53669W        W15332  14.700  20.057  10.445
53670W        W15333  11.176  22.023  10.483
53671W        W15334  11.307  35.471   1.779
53672W        W15335   3.817   6.787  14.352
53673W        W15336  38.433   5.721   3.373
53674W        W15337  24.220  44.392   1.421
53675W        W15338  24.108  21.516   4.254
53676W        W15339   3.246  28.051   5.121
53677W        W15340  38.435  19.593  14.933
53678W        W15341  13.313   6.772  12.968
53679W        W15342  11.186   3.926  11.517
53680W        W15343  44.915  35.555   2.404
53681W        W15344  33.879  40.331  11.471
53682W        W15345  25.500   4.241   4.342
53683W        W15346  24.033  40.313   1.389
53684W        W15347  28.012  20.240  12.027
53685W        W15348  17.641  43.847   0.451
53686W        W15349  23.162  10.739  10.962
53687W        W15350   9.878  44.325   3.255
53688W        W15351   3.888   3.875   0.476
53689W        W15352  39.824  20.170  12.545
53690W        W15353  12.193  30.657   3.145
53691W        W15354  25.036  17.088   0.802
53692W        W15355  25.191  37.382   3.676
53693W        W15356  38.912   4.708   0.482
53694W        W15357  34.413  39.980  14.992
53695W        W15358  41.511  38.348   3.229
53696W        W15359  40.952  20.256  13.794
53697W        W15360  31.009  16.105  14.429
53698W        W15361  38.393  26.075   0.292
53699W        W15362   8.835   4.891   0.951
53700W        W15363  18.098  17.302   9.507
53701W        W15364  17.135  22.217  12.941
53702W        W15365  30.938  31.094   1.792
53703W        W15366   1.366  22.078   0.270
53704W        W15367  10.333  31.522  10.080
53705W        W15368  25.681   1.412   1.699
53706W        W15369  18.270  16.707  10.980
53707W        W15370  19.631  40.879  15.000
53708W        W15371  38.898  42.407  12.038
53709W        W15372  24.184  41.516  14.027
53710W        W15373  36.482   7.337  14.983
53711W        W15374  10.328  19.679   3.217
53712W        W15375  24.646   9.736   3.760
53713W        W15376  27.497  44.968  12.999
53714W        W15377  37.065  29.475   4.202
53715W        W15378  10.269  26.647  10.149
53716W        W15379  38.880  37.855  13.916
53717W        W15380  39.357   9.213   4.173
53718W        W15381  15.291  12.700  11.092
53719W        W15382   2.771  21.518   3.361
53720W        W15383  30.585   0.951  13.874
53721W        W15384  23.591  13.637  11.472
53722W        W15385  21.728  41.896  12.863
53723W        W15386  44.803  41.989   3.700
53724W        W15387   8.259   3.869   3.151
53725W        W15388  42.854  29.556   5.214
53726W        W15389  39.829   7.763  14.870
53727W        W15390  30.012  40.327   0.847
53728W        W15391  21.152  37.393  14.426
53729W        W15392  31.103   1.827   2.748
53730W        W15393  31.431   9.801   1.874
53731W        W15394   5.703  38.889   0.842
53732W        W15395   4.420  31.049   0.254
53733W        W15396  16.080  24.064  12.036
53734W        W15397  17.196  40.313   2.698
53735W        W15398   4.436  38.383  14.454
53736W        W15399  38.876  25.133  12.037
53737W        W15400  25.157  34.979  11.965
53738W        W15401   9.342  27.034  13.458
53739W        W15402   2.788  33.592  10.418
53740W        W15403  40.843  11.660  14.484
53741W        W15404  39.818  29.625   3.159
53742W        W15405   0.751  35.889  12.405
53743W        W15406  33.921  12.706   2.695
53744W        W15407   2.776  14.233   4.187
53745W        W15408  32.981   9.299  14.382
53746W        W15409  41.309  28.593  11.860
53747W        W15410  44.481  18.081   9.986
53748W        W15411  30.153  33.591  11.021
53749W        W15412   7.840  18.229   4.608
53750W        W15413  22.152  37.396  11.505
53751W        W15414  43.784  19.535   4.172
53752W        W15415   1.748   5.372   2.807
53753W        W15416  44.494   6.301   3.684
53754W        W15417  40.033  38.979   1.256
53755W        W15418  34.904  40.455  14.867
53756W        W15419  23.234  39.464  13.862
53757W        W15420   6.428  15.253  11.531
53758W        W15421  20.555  30.648   4.241
53759W        W15422  26.123   6.184  13.886
53760W        W15423  17.758  11.856   0.376
53761W        W15424  32.111   7.912  10.969
53762W        W15425   2.292   6.308  11.000
53763W        W15426  16.692  15.620   3.179
53764W        W15427  31.628  20.079  14.451
53765W        W15428  31.109  18.204   2.802
53766W        W15429  22.048  20.144   1.248
53767W        W15430  35.370  11.307   2.353
53768W        W15431  27.076  27.651  11.378
53769W        W15432   8.783  11.677   3.720
53770W        W15433  33.502  24.681   1.257
53771W        W15434  26.653  20.581   1.878
53772W        W15435  25.597  16.596   3.307
53773W        W15436  43.497  10.807   3.676
53774W        W15437  30.047  31.609  10.474
53775W        W15438   9.158  20.049   0.408
53776W        W15439   4.735  13.248  12.920
53777W        W15440  26.199  30.586   3.145
53778W        W15441   5.264  38.385  10.583
53779W        W15442  19.141  33.484  11.465
53780W        W15443  33.037  13.341  12.904
53781W        W15444   0.844  18.086  11.938
53782W        W15445  32.477  39.838  11.068
53783W        W15446  28.513  44.341  11.587
53784W        W15447  39.027   8.820  12.431
53785W        W15448   6.402  44.369  10.426
53786W        W15449  11.174   2.351   1.259
53787W        W15450  36.588  29.920  13.381
53788W        W15451  22.080  17.164  11.028
53789W        W15452  36.952  28.982   3.306
53790W        W15453  16.161  22.600  10.474
53791W        W15454  22.524  15.725   9.994
53792W        W15455   6.299  13.819  12.533
53793W        W15456  40.303  13.144  13.396
53794W        W15457  36.386  29.055  14.961
53795W        W15458  22.206  35.974  12.832
53796W        W15459  14.649  29.063  14.872
53797W        W15460  21.632  33.937   2.349
53798W        W15461  21.655  28.496  13.794
53799W        W15462  40.891  36.389  11.545
53800W        W15463  26.623  41.400   2.675
53801W        W15464   0.888  44.000  12.358
53802W        W15465   9.869  33.529  12.014
53803W        W15466  34.375  42.896  14.920
53804W        W15467  37.504  34.881   0.729
53805W        W15468  28.949   3.836  10.890
53806W        W15469  21.648   8.397  14.878
53807W        W15470  28.043  22.077   4.739
53808W        W15471  43.432  15.173  11.908
53809W        W15472   3.946  16.110   3.305
53810W        W15473  18.605  14.782   2.768
53811W        W15474   5.706  17.659  12.001
53812W        W15475  37.457  39.314  14.390
53813W        W15476  32.425  35.488   4.652
53814W        W15477  44.388  24.677  12.500
53815W        W15478  38.962  41.963   4.170
53816W        W15479  16.576  28.650  11.548
53817W        W15480  43.851  23.673   3.263
53818W        W15481   0.907  27.070   1.230
53819W        W15482  33.605  10.685   2.300
53820W        W15483   7.828  12.815  12.053
53821W        W15484   8.680  28.119  13.354
53822W        W15485  39.832   3.760   3.729
53823W        W15486  32.104  26.038  14.763
53824W        W15487   4.414  41.465   3.172
53825W        W15488  36.512  39.876  12.425
53826W        W15489   6.826   4.880   4.261
53827W        W15490  25.662   6.828  12.395
53828W        W15491   2.893  29.960   2.294
53829W        W15492   5.770  33.546   4.193
53830W        W15493  38.076   0.822   0.375
53831W        W15494  31.043  18.204  13.933
53832W        W15495   9.831   9.354  10.442
53833W        W15496  27.457  40.864  10.987
53834W        W15497  20.601  30.588  12.052
53835W        W15498  31.915   4.362  11.861
53836W        W15499  24.611  38.037   3.769
53837W        W15500  13.813   7.901  11.902
53838W        W15501  28.438  26.149   0.754
53839W        W15502   9.274  20.589   4.643
53840W        W15503  34.034  17.774   0.447
53841W        W15504  38.365  35.894   0.432
53842W        W15505   4.397   7.907  14.838
53843W        W15506  40.025  28.128   0.480
53844W        W15507  44.365  16.569  12.898
53845W        W15508  38.381  31.952   2.787
53846W        W15509   2.398  14.723   2.868
53847W        W15510   6.360  42.811  11.028
53848W        W15511   0.974   7.905  12.554
53849W        W15512   0.254  44.816  14.802
53850W        W15513  27.487   2.401  14.849
53851W        W15514   0.805   6.801   3.766
53852W        W15515  34.388  11.846   2.269
53853W        W15516  43.362  41.043  10.440
53854W        W15517  42.461   4.426   1.227
53855W        W15518  13.126   0.267  11.058
53856W        W15519  38.545   3.275  11.437
53857W        W15520  38.832  19.233   3.176
53858W        W15521  41.873  35.881  14.279
53859W        W15522  43.405   8.856   0.280
53860W        W15523  44.396  27.506  11.964
53861W        W15524  24.157   6.780  10.928
53862W        W15525  37.940  10.254  11.880
53863W        W15526  26.512  39.403  12.031
53864W        W15527   6.230  36.398   4.241
53865W        W15528  23.165  39.006   4.338
53866W        W15529  33.988  23.046  12.437
53867W        W15530   7.672  29.662  13.524
53868W        W15531  24.087  39.445   2.799
53869W        W15532  34.876  37.522   2.186
53870W        W15533  32.622  22.744  10.496
53871W        W15534   7.310  17.656  12.503
53872W        W15535  22.711  11.249  14.833
53873W        W15536  39.036  34.451   2.314
53874W        W15537  12.239   4.321   3.636
53875W        W15538  35.961  38.070  11.975
53876W        W15539   3.263  22.044  13.018
53877W        W15540  36.011  31.427   3.319
53878W        W15541   0.823  30.025  14.406
53879W        W15542  35.368   5.356   2.731
53880W        W15543  23.595  25.218  12.540
53881W        W15544  16.232  26.042  14.765
53882W        W15545   8.271   2.378   3.260
53883W        W15546  18.602   2.294   1.751
53884W        W15547  25.132  25.573   0.455
53885W        W15548  13.280  29.961   4.295
53886W        W15549  40.917  36.510  12.415
53887W        W15550  43.780  21.700  10.457
53888W        W15551  13.620  17.245  12.888
53889W        W15552  22.056  18.159   1.908
53890W        W15553  39.932  31.938  11.549
53891W        W15554  14.159  10.788  10.479
53892W        W15555  13.822  44.505   2.789
53893W        W15556  41.400  41.898   3.208
53894W        W15557  25.006   9.696  14.773
53895W        W15558  19.578   4.725  10.572
53896W        W15559   6.370  10.668  12.355
53897W        W15560   0.829  34.977   1.753
53898W        W15561  24.723  10.819  14.492
53899W        W15562  40.966  25.047   4.788
53900W        W15563  11.131  32.430   4.165
53901W        W15564   9.730  31.920   0.810
53902W        W15565   9.702   8.885   1.298
53903W        W15566  38.872  35.894   2.378
53904W        W15567  39.992  38.940  14.282
53905W        W15568   1.268   2.809  10.960
53906W        W15569  38.341  12.159  13.894
53907W        W15570  34.484  37.461   0.870
53908W        W15571  19.247  13.291   4.690
53909W        W15572  35.899  14.723   1.701
53910W        W15573   8.692  29.007  12.892
53911W        W15574  33.478  37.554   0.916
53912W        W15575   7.245  32.598  14.867
53913W        W15576  34.446  15.249   1.245
53914W        W15577  24.635  40.942   0.403
53915W        W15578  32.001   5.291   2.782
53916W        W15579  16.173  24.154  14.978
53917W        W15580  21.598  12.348  13.049
53918W        W15581  34.890  13.164   9.974
53919W        W15582  35.984  16.181   1.860
53920W        W15583  16.606  38.829   2.894
53921W        W15584  38.819  40.025  12.365
53922W        W15585  16.810  24.228  14.986
53923W        W15586   0.824  21.212   1.219
53924W        W15587  41.023  20.605   2.712
53925W        W15588  23.638  38.515  14.453
53926W        W15589   2.842  18.172  13.062
53927W        W15590  35.914  19.175  11.078
53928W        W15591  35.484  24.512   1.715
53929W        W15592  31.000   4.831  10.087
53930W        W15593   9.363  16.136  11.054
53931W        W15594  26.531   9.865   3.740
53932W        W15595  24.557   5.788  13.802
53933W        W15596  39.344  39.834   2.289
53934W        W15597   3.362  43.388  10.404
53935W        W15598  22.114  26.034   3.340
53936W        W15599  35.564  25.012  10.971
53937W        W15600  40.024  36.932  11.044
53938W        W15601  28.082  27.183  14.452
53939W        W15602  17.563  26.549  14.824
53940W        W15603   7.187  38.061  13.321
53941W        W15604  20.199  37.535   4.144
53942W        W15605  28.673  31.449   1.798
53943W        W15606  39.926   7.713   2.275
53944W        W15607  32.125  13.278   2.263
53945W        W15608  19.069  35.964   4.697
53946W        W15609   4.773  35.369  10.555
53947W        W15610  43.972  29.058  11.516
53948W        W15611   5.372   1.332  12.914
53949W        W15612  41.391  36.945   1.716
53950W        W15613   6.404  43.471  11.574
53951W        W15614  36.521  31.059  11.960
53952W        W15615  34.915  25.670   2.385
53953W        W15616   8.746  43.772  13.450
53954W        W15617  23.716  20.524  11.495
53955W        W15618  28.590  17.098  13.418
53956W        W15619  19.670  15.622  14.336
53957W        W15620  10.230  44.844   4.681
53958W        W15621   1.932  26.526  13.024
53959W        W15622  20.684  43.511   0.899
53960W        W15623  42.777  19.042   0.445
53961W        W15624  41.950   6.229  14.470
53962W        W15625   9.678  19.250   2.322
53963W        W15626  13.177  38.444  14.849
53964W        W15627   4.942  33.576  13.042
53965W        W15628  37.529  35.010   3.864
53966W        W15629  24.141  22.672   4.713
53967W        W15630  20.720  43.385   4.149
53968W        W15631  23.706  26.982   1.322
53969W        W15632  35.501  15.096  11.076
53970W        W15633  19.647  35.022   4.180
53971W        W15634  11.226  12.824  11.445
53972W        W15635   1.482  13.840   1.756
53973W        W15636  27.539  34.960  14.312
53974W        W15637   5.909  14.606  12.852
53975W        W15638  36.945  41.790   4.221
53976W        W15639   1.263   0.257   2.305
53977W        W15640  30.470   2.883  13.018
53978W        W15641  13.774  28.630  12.976
53979W        W15642  42.910  36.555   4.226
53980W        W15643  40.532  36.927   0.419
53981W        W15644  30.569   1.347  14.914
53982W        W15645  17.600  22.714  13.931
53983W        W15646  27.151   7.261  11.890
53984W        W15647  35.905  31.451  12.080
53985W        W15648   3.360  20.204  10.458
53986W        W15649  13.150   2.954   0.789
53987W        W15650  38.964  31.529  13.382
53988W        W15651  33.384  16.673   4.694
53989W        W15652  22.170   1.405   3.228
53990W        W15653  13.339  25.972   2.327
53991W        W15654  31.077  19.268   4.272
53992W        W15655  21.541  40.872  12.894
53993W        W15656   7.410  13.185  11.945
53994W        W15657   4.789   5.419  12.077
53995W        W15658  39.862  14.833   3.340
53996W        W15659  25.496  22.130   3.152
53997W        W15660   8.764  22.532  13.422
53998W        W15661  31.077  25.705   4.287
53999W        W15662  33.023  25.165  13.366
54000W        W15663  36.539   4.309  14.800
54001W        W15664  18.167   5.417   2.322
54002W        W15665  21.552  41.373   0.811
54003W        W15666  29.049   6.881  12.094
54004W        W15667  30.519  41.001  10.969
54005W        W15668  43.342  10.824   0.770
54006W        W15669  21.233  14.686   9.586
54007W        W15670  10.213  21.064   4.612
54008W        W15671  20.706  31.540   3.217
54009W        W15672  16.144  44.911   0.284
54010W        W15673   8.176   7.321  14.318
54011W        W15674  23.598  43.299  13.470
54012W        W15675   3.318  11.212  12.984
54013W        W15676  27.002  16.772   4.823
54014W        W15677   0.391   6.861   0.797
54015W        W15678  42.432  42.935   4.717
54016W        W15679  20.646  37.406  12.366
54017W        W15680  13.345   3.776   1.719
54018W        W15681  14.658  24.511   1.308
54019W        W15682  22.204  40.037  14.356
54020W        W15683  35.398  41.455   2.845
54021W        W15684  40.957  28.560  13.822
54022W        W15685  15.726  23.998  12.410
54023W        W15686  21.706  18.114   4.608
54024W        W15687  26.026   8.712  12.558
54025W        W15688  38.937  37.431  13.335
54026W        W15689  29.521  33.056  11.493
54027W        W15690  24.050   5.882  13.354
54028W        W15691  43.328   4.929  14.780
54029W        W15692   6.799  27.539  10.514
54030W        W15693  34.517   6.887  11.050
54031W        W15694   9.764  23.190   0.902
54032W        W15695   9.177   2.334   1.762
54033W        W15696  31.602  44.753   0.277
54034W        W15697  32.610  38.984  10.578
54035W        W15698  23.016  42.813   0.817
54036W        W15699  33.948  39.531  11.005
54037W        W15700  32.542  11.345  13.488
54038W        W15701  40.934  10.831  13.515
54039W        W15702  27.089  31.114   3.211
54040W        W15703  41.880  15.144   2.258
54041W        W15704  34.509  18.781  12.075
54042W        W15705  17.100  31.081   1.808
54043W        W15706  27.995   6.770   2.724
54044W        W15707  11.772  30.044  12.902
54045W        W15708  29.085  14.788  14.514
54046W        W15709  26.069  43.485  12.064
54047W        W15710  17.234  27.069  13.465
54048W        W15711  28.581   1.262  11.916
54049W        W15712  33.608  29.957   9.988
54050W        W15713   5.744  35.984  12.965
54051W        W15714  28.550  27.581  14.838
54052W        W15715  14.622  26.698   1.818
54053W        W15716   2.755   9.155  13.880
54054W        W15717  32.622  22.662  11.552
54055W        W15718  31.915  32.890  10.601
54056W        W15719  15.701  34.386   3.629
54057W        W15720  16.584  37.410   2.328
54058W        W15721   7.791   0.395  12.447
54059W        W15722  30.067   4.838   3.651
54060W        W15723  18.061   9.281   1.812
54061W        W15724  33.990  15.178  13.472
54062W        W15725  13.788  23.160  10.514
54063W        W15726  42.317   3.268   3.246
54064W        W15727  31.611  18.266  14.320
54065W        W15728   4.431  37.081  11.974
54066W        W15729   7.680  23.218  12.018
54067W        W15730  10.242  42.480  13.824
54068W        W15731  17.677  12.675   2.764
54069W        W15732  31.089  44.472   3.181
54070W        W15733  31.608   0.375   0.794
54071W        W15734   0.907  28.497  10.973
54072W        W15735  34.056   1.884  12.566
54073W        W15736  29.622  13.681  11.055
54074W        W15737  38.505   6.338  10.465
54075W        W15738   6.922   4.303  14.465
54076W        W15739  42.928   8.297   1.733
54077W        W15740  34.065  13.644   4.169
54078W        W15741  13.605  18.203   1.717
54079W        W15742  16.302  12.727  11.481
54080W        W15743  16.107  17.106  11.373
54081W        W15744   9.174  29.085  13.372
54082W        W15745  24.621  43.288   3.844
54083W        W15746  35.855  38.990  11.933
54084W        W15747  37.017  31.137   4.725
54085W        W15748  10.242  16.086  12.977
54086W        W15749   4.842  14.261   2.380
54087W        W15750  19.209   4.896   2.737
54088W        W15751   2.794  42.996   0.795
54089W        W15752  22.127  24.651  12.478
54090W        W15753   7.212  35.037   5.139
54091W        W15754  12.182  35.019  10.979
54092W        W15755  20.536  32.105  13.347
54093W        W15756  34.437  43.371   0.819
54094W        W15757   5.360   3.844   2.334
54095W        W15758  13.316  12.268   1.719
54096W        W15759  43.293  12.855  14.970
54097W        W15760  24.034  38.038  14.954
54098W        W15761  37.513  19.089   4.177
54099W        W15762  21.528  33.430  11.441
54100W        W15763   8.659  26.576  14.813
54101W        W15764  27.690   3.827  11.947
54102W        W15765   3.865  33.057  13.848
54103W        W15766  12.117  23.038  12.839
54104W        W15767   5.320  23.622  12.089
54105W        W15768  36.071  10.729   2.848
54106W        W15769  19.039   3.345   0.360
54107W        W15770  30.616  42.397  11.410
54108W        W15771  26.101   2.758  10.551
54109W        W15772   6.735  11.192   1.287
54110W        W15773  18.754  18.105   0.291
54111W        W15774  39.370  42.509  13.984
54112W        W15775  14.764  33.459   3.242
54113W        W15776  29.478   7.715   1.264
54114W        W15777  19.131  26.963  11.890
54115W        W15778  30.026  18.722  12.347
54116W        W15779  34.092   5.249   2.259
54117W        W15780  17.796  22.228  10.601
54118W        W15781  10.749  13.732  13.465
54119W        W15782  30.048  27.073  10.427
54120W        W15783  19.131  18.654   0.406
54121W        W15784   7.717  27.638  14.436
54122W        W15785  26.654  17.769  13.421
54123W        W15786  40.355  15.647   4.620
54124W        W15787   6.375  15.597  11.035
54125W        W15788   2.243   2.250  10.986
54126W        W15789  36.916  12.269  12.029
54127W        W15790  34.051  10.282   2.269
54128W        W15791   7.412  42.000  12.443
54129W        W15792   9.225  30.642   3.372
54130W        W15793  24.103  40.967  11.381
54131W        W15794  37.510   4.310   4.768
54132W        W15795  35.940  25.138  14.483
54133W        W15796  12.732  12.851  10.587
54134W        W15797  37.946  40.992   4.603
54135W        W15798  10.346  42.470  12.531
54136W        W15799  11.223   3.377   5.212
54137W        W15800   1.395  32.071  10.538
54138W        W15801  24.512  40.048  14.886
54139W        W15802  36.049  18.570  11.510
54140W        W15803  10.810  28.634   3.306
54141W        W15804  18.136  23.042  12.900
54142W        W15805  41.839  20.609   2.810
54143W        W15806   4.913  29.488   3.683
54144W        W15807   5.701  35.563   0.262
54145W        W15808  25.688  36.991  14.370
54146W        W15809  18.564  10.660   4.763
54147W        W15810  17.612  37.486  12.012
54148W        W15811  17.761  21.661   2.230
54149W        W15812  20.658  17.679  14.287
54150W        W15813   7.341   7.335  11.968
54151W        W15814  24.583  12.253  11.964
54152W        W15815   7.230  35.999   4.160
54153W        W15816  37.845  44.865  10.628
54154W        W15817   9.281  44.801   3.739
54155W        W15818  37.947  12.635   4.696
54156W        W15819  32.598   8.795  14.986
54157W        W15820  14.210   2.756  13.911
54158W        W15821  23.597  23.142  10.084
54159W        W15822   9.205  28.102   2.337
54160W        W15823   8.379  21.127  11.892
54161W        W15824  17.738   1.273  11.061
54162W        W15825  23.039  31.136  14.840
54163W        W15826   0.794  41.016  10.922
54164W        W15827  42.902  35.102  12.948
54165W        W15828  34.056  26.687  12.347
54166W        W15829   7.753   0.883  14.792
54167W        W15830  26.517  28.943  13.491
54168W        W15831  25.062   2.783   4.317
54169W        W15832  18.706  10.322   4.163
54170W        W15833   9.732  28.589  14.404
54171W        W15834  13.757  17.201   1.352
54172W        W15835  39.010   7.194  12.503
54173W        W15836  42.433  25.104   0.480
54174W        W15837   8.832  20.232  11.404
54175W        W15838  23.132   5.253  11.489
54176W        W15839  28.069  29.594   3.178
54177W        W15840   5.789  23.553   2.385
54178W        W15841  33.891   7.697   3.354
54179W        W15842  15.139  24.056  10.449
54180W        W15843  12.684   0.757  14.923
54181W        W15844  10.846  25.038  13.992
54182W        W15845   4.705  30.938  12.838
54183W        W15846  21.257   6.898   3.634
54184W        W15847  11.311  17.070  13.793
54185W        W15848   8.248  28.974  13.797
54186W        W15849  37.452  36.586  12.532
54187W        W15850  27.463   6.268  14.417
54188W        W15851  37.065  32.100   2.840
54189W        W15852  31.078  15.748   1.866
54190W        W15853  22.703   2.292  12.073
54191W        W15854  28.494  26.103  14.326
54192W        W15855  18.111  23.988  11.099
54193W        W15856  22.608  15.265   3.238
54194W        W15857  42.868  28.941   3.650
54195W        W15858  29.986  36.567  10.999
54196W        W15859  36.040  37.373  13.386
54197W        W15860  35.867  40.850   2.248
54198W        W15861   0.864   9.650   4.251
54199W        W15862   2.874   1.859   1.774
54200W        W15863  30.036  15.822  13.962
54201W        W15864  12.330  21.625   1.783
54202W        W15865  27.554  42.355  11.992
54203W        W15866  30.040   7.302  13.461
54204W        W15867   0.865   7.688   5.216
54205W        W15868  27.120   4.878  13.452
54206W        W15869  24.056  33.982   1.930
54207W        W15870  26.499  23.212  13.438
54208W        W15871  11.368  20.759   0.934
54209W        W15872  21.243  36.562   1.442
54210W        W15873   4.777  35.852  13.808
54211W        W15874  16.104   2.283  14.483
54212W        W15875  39.814  11.837  10.542
54213W        W15876  33.484  11.166  13.034
54214W        W15877  17.105  20.038  12.826
54215W        W15878  43.504  14.313  14.508
54216W        W15879   9.167   3.303   3.666
54217W        W15880   1.357  25.655   4.779
54218W        W15881  43.364  32.555  13.944
54219W        W15882  30.125   8.832   2.871
54220W        W15883   5.849  29.601  12.516
54221W        W15884  31.077   3.904  12.854
54222W        W15885  41.938  38.543   3.185
54223W        W15886  20.198  34.502  11.526
54224W        W15887  37.576   6.309  14.764
54225W        W15888  10.333  22.707   1.700
54226W        W15889  23.664  22.566   1.830
54227W        W15890  20.076  10.679   0.452
54228W        W15891  30.018  43.470  10.551
54229W        W15892  30.109   8.806  14.791
54230W        W15893  34.380   3.901  13.444
54231W        W15894  28.168  15.684   4.322
54232W        W15895   0.431  17.095  13.877
54233W        W15896   2.875  44.931  14.816
54234W        W15897  13.652  24.016   0.384
54235W        W15898   6.242  20.048  12.358
54236W        W15899  15.611   7.234  13.897
54237W        W15900  29.457   0.403  13.442
54238W        W15901  42.917  20.163  14.004
54239W        W15902  36.847  44.820   2.364
54240W        W15903  13.620  43.492  14.345
54241W        W15904  22.733  18.097  11.013
54242W        W15905  37.899   9.676   0.769
54243W        W15906   3.922  12.775  11.879
54244W        W15907  41.409  31.019   3.363
54245W        W15908  12.780  42.922  10.908
54246W        W15909   6.704   6.305   4.231
54247W        W15910  38.363  39.900  10.447
54248W        W15911   0.888   0.864  11.593
54249W        W15912   0.420  19.721   2.288
54250W        W15913  38.483  38.399  10.495
54251W        W15914  30.996  10.177   2.208
54252W        W15915  37.536  35.359   0.337
54253W        W15916   4.365   4.435   2.192
54254W        W15917  21.689  11.854   0.852
54255W        W15918   1.246   9.269  13.944
54256W        W15919   2.875   4.752  13.481
54257W        W15920  40.439   7.347  11.535
54258W        W15921  14.102   6.735   2.310
54259W        W15922  32.120  35.586  14.855
54260W        W15923  37.374  30.040  11.571
54261W        W15924  43.494  18.680   4.609
54262W        W15925  43.933  24.634  14.491
54263W        W15926  13.792  28.607   4.825
54264W        W15927  44.455  29.154   4.181
54265W        W15928  17.650   1.456   2.203
54266W        W15929   6.752   9.310  13.795
54267W        W15930  33.471  38.350   4.303
54268W        W15931  41.029  27.039   1.423
54269W        W15932  36.040  33.567   0.748
54270W        W15933   2.237  44.994   0.794
54271W        W15934  38.407  22.539  14.360
54272W        W15935   6.198  17.740   3.767
54273W        W15936  31.446  21.124   0.844
54274W        W15937  21.250  44.294  13.877
54275W        W15938  44.317  21.155   2.274
54276W        W15939  20.744  38.365  11.960
54277W        W15940  34.499  40.961  12.425
54278W        W15941  40.940  31.976  13.361
54279W        W15942  34.449  41.459   4.828
54280W        W15943  36.842  42.919  13.354
54281W        W15944  12.797   1.285  11.609
54282W        W15945  28.594  31.052   1.887
54283W        W15946  25.125  17.086   4.252
54284W        W15947  29.432  15.102  12.089
54285W        W15948  28.045  11.724  13.018
54286W        W15949  22.083  35.390   1.816
54287W        W15950  10.640  31.632   2.864
54288W        W15951  29.129  36.990  12.833
54289W        W15952  40.809  18.601  14.826
54290W        W15953   4.914  15.580  12.093
54291W        W15954   8.286  14.703   4.277
54292W        W15955   9.716  44.317  11.885
54293W        W15956   2.321  20.680   4.233
54294W        W15957  42.410  23.643   4.615
54295W        W15958  11.333  26.193   3.768
54296W        W15959  39.947  43.886   2.685
54297W        W15960  15.656  27.446  13.443
54298W        W15961   9.726  21.702  11.444
54299W        W15962  10.301  22.710  13.464
54300W        W15963  23.002  39.959  11.048
54301W        W15964  44.834   5.263   3.750
54302W        W15965  38.040  38.361   4.807
54303W        W15966  11.662  12.237  13.925
54304W        W15967  34.873  31.004  10.614
54305W        W15968  28.479  27.033  14.967
54306W        W15969  13.694  16.677   1.874
54307W        W15970  42.371   9.661   4.214
54308W        W15971  14.602   8.222  12.542
54309W        W15972   4.311  35.477   4.729
54310W        W15973   9.661  41.520   2.840
54311W        W15974   9.341   2.377  14.296
54312W        W15975  10.687  37.065  12.573
54313W        W15976   4.870   5.390   2.299
54314W        W15977  35.601  26.521  11.948
54315W        W15978  26.070  41.355   5.196
54316W        W15979  26.966  25.039   1.713
54317W        W15980  10.155  20.636  10.630
54318W        W15981  17.147  23.723  13.395
54319W        W15982  35.865  14.318  13.953
54320W        W15983   9.866  29.521   2.185
54321W        W15984   6.332  43.400  10.470
54322W        W15985  43.004   7.744   2.705
54323W        W15986  34.009  40.419   0.928
54324W        W15987   1.758  41.960   0.317
54325W        W15988   6.697  12.638   4.741
54326W        W15989  35.491  18.724  11.383
54327W        W15990  37.004   6.411  11.429
54328W        W15991  15.083  40.858   1.233
54329W        W15992  27.963  11.365  10.023
54330W        W15993  16.150  23.599  11.433
54331W        W15994  41.876  13.237   0.410
54332W        W15995  12.166  39.904   4.712
54333W        W15996   2.439  26.999  12.084
54334W        W15997  20.673  43.807   1.934
54335W        W15998  22.056  35.596   1.240
54336W        W15999  39.038  16.696   4.131
54337W        W16000  34.883  44.999   2.681
54338W        W16001   6.372  26.690   1.213
54339W        W16002  39.414  37.516   1.699
54340W        W16003   9.267  27.063  11.581
54341W        W16004  44.333  24.012  14.513
54342W        W16005   7.852  20.033   0.887
54343W        W16006  41.873  14.672   1.370
54344W        W16007  32.134  15.279   3.671
54345W        W16008  26.107  32.136  12.580
54346W        W16009  15.605  40.938   1.360
54347W        W16010  19.719  33.553  12.365
54348W        W16011  26.059  26.145  12.501
54349W        W16012  39.010  36.987  14.334
54350W        W16013   1.835  40.887  11.605
54351W        W16014  30.989  37.927  13.494
54352W        W16015  29.131  27.564   3.305
54353W        W16016  15.623  30.566  13.327
54354W        W16017  34.444  20.121  14.802
54355W        W16018   2.462   2.723   1.733
54356W        W16019  36.090  13.109   2.276
54357W        W16020  26.953  32.111  10.521
54358W        W16021  14.290  34.964   3.294
54359W        W16022   9.825  14.245   0.351
54360W        W16023  10.338  22.626  14.006
54361W        W16024  18.593  36.066  12.937
54362W        W16025  15.179  30.433  10.466
54363W        W16026  28.487  40.502  13.382
54364W        W16027  26.128  35.452  12.459
54365W        W16028   3.433  39.897   1.884
54366W        W16029  20.606  12.171   3.663
54367W        W16030  44.476  43.322   3.834
54368W        W16031  21.019  34.416   1.818
54369W        W16032  38.020   6.864   1.779
54370W        W16033   0.970  14.703  13.392
54371W        W16034  32.937   2.940   2.180
54372W        W16035  27.041  41.992   4.801
54373W        W16036  28.018  17.721   2.288
54374W        W16037  15.768  25.991   1.305
54375W        W16038   5.724  38.327   1.221
54376W        W16039  14.200  13.802   1.312
54377W        W16040  24.191   2.234  13.941
54378W        W16041  39.515  32.920   2.277
54379W        W16042  44.268  27.460   3.159
54380W        W16043  16.237  32.601  14.008
54381W        W16044  10.329  36.972   0.305
54382W        W16045  22.540  11.836   3.846
54383W        W16046  39.856  22.105   1.708
54384W        W16047  43.507   5.911  10.421
54385W        W16048  38.966   7.395   3.334
54386W        W16049  10.698  43.983  14.276
54387W        W16050  37.889   6.827  11.123
54388W        W16051  35.984  13.252   2.715
54389W        W16052  25.018  18.657   3.809
54390W        W16053  24.983  36.922  10.623
54391W        W16054  32.137  37.837  12.846
54392W        W16055  31.933   8.351   3.857
54393W        W16056  12.763  16.610  12.912
54394W        W16057  14.616  15.687  10.976
54395W        W16058   0.922  20.741   4.190
54396W        W16059  19.538  22.526  13.468
54397W        W16060  42.470  11.755  10.056
54398W        W16061  36.062  13.179  11.086
54399W        W16062  29.663  31.505  14.501
54400W        W16063  29.035  12.756   3.827
54401W        W16064  16.804   1.275   4.313
54402W        W16065   1.384  15.319  10.628
54403W        W16066  24.122  41.962   0.481
54404W        W16067  33.454   1.319  12.962
54405W        W16068  35.892  39.353   3.269
54406W        W16069  35.862  19.221   3.705
54407W        W16070  36.009  18.758   3.376
54408W        W16071  11.135  35.601   9.447
54409W        W16072  39.440  16.746   2.880
54410W        W16073  24.080  29.999   1.304
54411W        W16074  30.126  25.602  10.629
54412W        W16075   7.700   2.367  12.888
54413W        W16076   3.395   5.751  12.459
54414W        W16077  14.670  25.529  12.026
54415W        W16078  35.032  31.906   4.143
54416W        W16079  43.470  33.476   2.844
54417W        W16080  30.452  35.495  12.961
54418W        W16081   3.381  38.378   3.759
54419W        W16082   7.703  26.501   3.339
54420W        W16083  11.283  18.585   2.298
54421W        W16084   6.899  38.906  10.454
54422W        W16085   0.880  34.428   0.902
54423W        W16086  43.807  42.388   0.263
54424W        W16087   9.765  28.098   3.156
54425W        W16088  23.222  14.275  11.533
54426W        W16089  36.558  26.530  12.567
54427W        W16090  39.022   7.172  13.038
54428W        W16091  11.148  43.956   1.845
54429W        W16092  29.029  12.643   4.625
54430W        W16093  29.569  24.573  13.841
54431W        W16094  41.867   5.694  13.477
54432W        W16095  30.424  16.707   4.629
54433W        W16096  21.655  27.031   5.320
54434W        W16097   3.298  28.988  13.847
54435W        W16098  19.618  40.997   3.721
54436W        W16099   8.369  11.850   3.216
54437W        W16100   9.220   5.742   3.866
54438W        W16101  10.695  13.273   0.443
54439W        W16102  25.000   0.829   3.742
54440W        W16103  41.381   0.887  13.868
54441W        W16104  14.207  30.482  12.349
54442W        W16105  16.092  14.118  11.600
54443W        W16106  32.440  42.366   1.754
54444W        W16107  25.714   3.398  14.460
54445W        W16108   4.266  19.080  14.966
54446W        W16109  43.309   1.761   0.311
54447W        W16110  37.082  24.705   3.713
54448W        W16111  14.292  38.353  11.409
54449W        W16112  14.101  34.567  12.391
54450W        W16113  36.579  29.438   4.156
54451W        W16114   6.830  35.071   3.330
54452W        W16115  25.633  21.230   3.825
54453W        W16116  10.169  13.114   3.629
54454W        W16117  12.759   8.766   4.643
54455W        W16118   9.226   0.282   0.305
54456W        W16119  41.341   8.847  11.893
54457W        W16120  33.608  39.480  14.924
54458W        W16121  27.470  35.538  12.050
54459W        W16122  14.195  30.912   5.303
54460W        W16123   8.366  10.859   4.250
54461W        W16124   5.917  34.864   0.821
54462W        W16125   6.842  29.592  10.999
54463W        W16126   3.951  30.967  13.819
54464W        W16127   7.679   6.841  11.551
54465W        W16128  44.851  16.692   1.391
54466W        W16129  21.689  38.036  11.075
54467W        W16130  17.772  35.040   1.694
54468W        W16131  24.979  41.847   3.860
54469W        W16132  33.453  23.635   2.687
54470W        W16133   2.387  21.670  11.602
54471W        W16134  11.212   5.694  10.407
54472W        W16135  40.798  29.572   3.232
54473W        W16136  30.534  40.343   0.377
54474W        W16137   2.419  24.995  10.578
54475W        W16138  22.709  40.476  12.050
54476W        W16139  36.437  36.557   3.146
54477W        W16140  41.327  29.521  14.831
54478W        W16141  25.014  22.500  13.534
54479W        W16142  41.428   5.236  11.555
54480W        W16143   7.675  26.129   2.667
54481W        W16144   0.964  22.221   3.785
54482W        W16145  44.380  42.847   1.817
54483W        W16146  17.215   0.847   0.380
54484W        W16147   2.838   5.799   2.347
54485W        W16148   5.907   0.773  13.467
54486W        W16149  38.973  32.117   1.904
54487W        W16150  44.897  28.619   2.770
54488W        W16151   3.323  39.454   0.378
54489W        W16152  25.001  33.892   0.726
54490W        W16153  35.450  15.236  12.462
54491W        W16154  26.644   2.765  14.326
54492W        W16155  10.643  13.797   0.378
54493W        W16156  11.235   5.775   5.688
54494W        W16157  34.575   4.874   3.259
54495W        W16158   5.297   4.883  13.380
54496W        W16159   2.307  16.806  12.838
54497W        W16160  35.058  26.996   0.844
54498W        W16161  21.639  21.673   0.377
54499W        W16162   8.373   1.320  13.403
54500W        W16163  29.957   0.321  14.987
54501W        W16164  30.012  43.313  14.377
54502W        W16165   8.186  44.409  14.017
54503W        W16166  37.411  33.386  11.371
54504W        W16167  37.054  42.780  12.829
54505W        W16168  14.621  15.277   2.391
54506W        W16169  17.158  34.459   0.802
54507W        W16170  42.435  34.595  14.348
54508W        W16171  37.015  29.423  12.977
54509W        W16172  19.624  29.943  13.377
54510W        W16173  42.367  41.364  14.774
54511W        W16174  24.487  11.645  10.487
54512W        W16175  32.509   9.225   5.124
54513W        W16176   9.253  39.340  10.964
54514W        W16177  17.784  14.143   1.699
54515W        W16178   5.761  28.531   3.263
54516W        W16179  27.190  39.514   2.669
54517W        W16180  31.541  35.590   0.347
54518W        W16181  26.539  34.896   2.716
54519W        W16182  22.555  10.274  12.846
54520W        W16183   0.971  31.120   2.776
54521W        W16184  16.650  34.591  14.496
54522W        W16185  37.071  26.488   2.840
54523W        W16186  28.677  38.904  10.474
54524W        W16187  18.635  35.544   3.666
54525W        W16188  32.005   4.291  12.580
54526W        W16189  39.909  43.467  12.405
54527W        W16190  39.515  28.120  10.561
54528W        W16191  24.183  17.735   3.356
54529W        W16192  12.164  22.173   4.185
54530W        W16193  17.678  40.392  11.574
54531W        W16194  16.186  23.998  14.448
54532W        W16195   0.950  10.364  14.864
54533W        W16196  12.694  21.544   3.861
54534W        W16197  14.166  36.967  11.960
54535W        W16198  40.833  27.544   1.229
54536W        W16199  17.286  23.066   4.191
54537W        W16200  41.456  28.461   3.867
54538W        W16201  43.455  43.952  14.775
54539W        W16202  36.856   0.433   1.886
54540W        W16203  40.449  23.679  11.551
54541W        W16204   3.903  42.284   3.755
54542W        W16205  35.460  14.155  11.051
54543W        W16206  42.363  12.699  10.583
54544W        W16207  28.097  16.147   3.147
54545W        W16208  41.526  27.192  11.976
54546W        W16209  43.277  10.175  10.574
54547W        W16210  31.961  23.566  11.082
54548W        W16211   5.340  30.625  13.337
54549W        W16212   7.723  29.949  14.318
54550W        W16213   1.949  27.647  11.393
54551W        W16214   6.221  21.119  13.389
54552W        W16215  24.535  39.424  11.106
54553W        W16216  22.531  12.621   3.696
54554W        W16217   2.255   4.841  13.027
54555W        W16218  41.325  27.175  12.905
54556W        W16219  17.264  35.471   3.307
54557W        W16220   3.717  21.556   0.480
54558W        W16221  37.865  27.028   1.391
54559W        W16222  24.102  24.148  12.001
54560W        W16223  21.020  37.412   3.646
54561W        W16224  20.182  18.731  10.542
54562W        W16225   7.801  20.726   0.913
54563W        W16226  13.814  39.339   5.571
54564W        W16227  39.502  15.620   1.921
54565W        W16228  42.024  19.252   3.177
54566W        W16229  38.469   3.834   0.948
54567W        W16230  37.007  22.535  14.760
54568W        W16231  11.639  18.733   3.250
54569W        W16232  28.639   2.431   3.201
54570W        W16233  41.410  32.533   3.739
54571W        W16234  19.589  10.854  13.010
54572W        W16235  12.813   3.953   4.688
54573W        W16236   3.868  19.568   4.751
54574W        W16237   3.399  35.447  12.861
54575W        W16238  32.419  31.045   4.688
54576W        W16239   0.809   0.437  14.927
54577W        W16240  41.314  44.009  14.777
54578W        W16241   0.386  43.407   1.915
54579W        W16242  23.514  36.071   2.883
54580W        W16243  17.779  39.501  12.865
54581W        W16244  14.777  10.705   4.350
54582W        W16245   6.334  40.407   2.752
54583W        W16246  39.442  21.602  10.462
54584W        W16247  20.714   0.459   4.145
54585W        W16248  34.382   2.853   0.255
54586W        W16249  15.681  34.946  12.382
54587W        W16250  37.355   9.342  13.528
54588W        W16251  23.017   1.294  14.981
54589W        W16252  19.606   8.824  10.412
54590W        W16253  14.123  16.131   0.860
54591W        W16254  32.480  23.492   3.638
54592W        W16255   3.448  20.097   0.363
54593W        W16256   2.401  40.401   2.192
54594W        W16257  34.931  34.926  12.558
54595W        W16258  42.870   7.748  11.612
54596W        W16259  37.830  21.091   0.900
54597W        W16260  37.542  15.230  13.861
54598W        W16261  41.330  40.852  12.831
54599W        W16262  20.073  10.143   3.262
54600W        W16263   0.319   3.801  13.335
54601W        W16264  19.230  40.440   0.385
54602W        W16265   8.313  44.497  13.520
54603W        W16266  44.339  21.121   3.776
54604W        W16267  20.253  44.480  11.901
54605W        W16268  24.629  16.093  11.873
54606W        W16269   9.671  32.015  11.495
54607W        W16270  32.040  28.512   3.684
54608W        W16271  30.161  29.578  13.806
54609W        W16272  41.870  21.540  11.909
54610W        W16273  30.945  14.103  13.025
54611W        W16274   3.755   9.830   0.853
54612W        W16275  21.621  41.294   2.216
54613W        W16276  32.896  12.788  10.959
54614W        W16277  22.111   9.340   3.195
54615W        W16278  28.107   2.342  11.104
54616W        W16279   3.840  43.364   3.298
54617W        W16280   9.272  39.330  14.879
54618W        W16281  12.637   3.242   4.613
54619W        W16282   1.939   8.340  12.558
54620W        W16283  22.183  34.023   1.739
54621W        W16284   3.829  16.140   4.250
54622W        W16285  16.199  34.031  13.806
54623W        W16286  18.708  34.492  10.967
54624W        W16287  24.599  18.653  11.080
54625W        W16288  37.404  32.549   2.730
54626W        W16289  30.164  44.944  10.639
54627W        W16290  34.938  28.456  10.530
54628W        W16291  18.284  36.406   2.363
54629W        W16292  15.209  17.608   2.697
54630W        W16293  32.576  25.473   3.236
54631W        W16294   3.442  33.956   0.341
54632W        W16295  40.837  19.178   4.189
54633W        W16296   0.340   9.773  14.493
54634W        W16297   0.305   9.832  12.019
54635W        W16298  30.529  26.173   0.347
54636W        W16299  20.663   2.254   0.248
54637W        W16300  17.781  36.857   4.191
54638W        W16301   9.167   3.376   4.716
54639W        W16302  10.825  26.113   1.892
54640W        W16303  34.442  19.223   4.712
54641W        W16304  41.961  40.517  11.101
54642W        W16305  20.540  43.957   2.384
54643W        W16306  13.129  17.241  11.429
54644W        W16307  29.134   3.308   4.244
54645W        W16308   0.871  36.929   4.704
54646W        W16309  24.622  28.163   9.956
54647W        W16310  41.398  28.618  11.063
54648W        W16311  28.042  12.773   0.754
54649W        W16312  42.783  13.232   0.361
54650W        W16313  27.971   8.804  13.434
54651W        W16314   8.690   0.425   3.783
54652W        W16315  13.144  16.767   4.652
54653W        W16316  23.603   3.398  11.881
54654W        W16317   4.447  27.017  13.952
54655W        W16318  41.328  19.586  11.892
54656W        W16319   6.867   6.355  14.893
54657W        W16320   7.861  36.448   0.384
54658W        W16321  32.584  28.982   5.163
54659W        W16322   4.367  13.201  12.944
54660W        W16323  32.950   8.774   1.701
54661W        W16324  41.951  17.570  10.961
54662W        W16325  20.193  22.565   2.283
54663W        W16326  43.853  21.745  12.487
54664W        W16327  20.086  33.985  10.906
54665W        W16328   6.357  21.174  11.054
54666W        W16329  34.485  36.943  13.378
54667W        W16330  29.603  41.405  10.023
54668W        W16331  33.382  15.745   1.243
54669W        W16332  17.782   7.243  10.624
54670W        W16333  37.421  30.423  11.477
54671W        W16334  28.522  21.578   1.244
54672W        W16335  30.012   7.304  14.875
54673W        W16336  23.210  39.022  14.500
54674W        W16337  25.207  29.586  14.822
54675W        W16338   8.167  40.340   2.699
54676W        W16339  43.875   6.402   0.320
54677W        W16340  30.948  30.434  11.397
54678W        W16341  13.686  18.087   2.881
54679W        W16342   2.807  20.127  14.502
54680W        W16343  40.414  34.613  14.031
54681W        W16344  12.201  16.669   3.794
54682W        W16345   7.316  35.544  13.313
54683W        W16346  32.955  26.184   0.899
54684W        W16347   6.859   9.272   2.244
54685W        W16348  21.070   9.874  13.444
54686W        W16349  19.062  30.650  12.401
54687W        W16350  32.522  18.078   4.716
54688W        W16351  28.979   2.831   0.945
54689W        W16352  25.183  28.938  14.926
54690W        W16353  41.967  20.586  11.457
54691W        W16354   9.241   8.807   0.412
54692W        W16355  41.351   7.813  14.938
54693W        W16356  15.663  40.486   3.762
54694W        W16357  44.300  24.513  14.468
54695W        W16358  30.421  24.997   3.253
54696W        W16359  44.864  29.946   2.730
54697W        W16360  24.609   3.872  10.994
54698W        W16361   1.465  29.091  10.908
54699W        W16362  11.215  15.823   4.768
54700W        W16363  37.069  37.341   2.265
54701W        W16364  31.077  19.743   4.672
54702W        W16365  25.571  37.572  10.469
54703W        W16366  20.053  29.985   1.339
54704W        W16367   0.258  41.298   4.603
54705W        W16368  10.754  36.538   2.376
54706W        W16369   5.732   7.409   1.247
54707W        W16370   1.892  34.425   2.782
54708W        W16371  28.022  33.534  10.121
54709W        W16372  34.112  27.486  13.955
54710W        W16373  31.912  32.975   1.397
54711W        W16374   9.709  43.907   2.194
54712W        W16375  38.492  41.926   2.415
54713W        W16376  29.622  22.702   5.254
54714W        W16377  12.705  32.980  11.491
54715W        W16378  14.144  38.862  13.834
54716W        W16379  15.662  29.105   3.283
54717W        W16380  27.080  13.264  12.553
54718W        W16381  18.178  25.133  12.946
54719W        W16382  27.507  38.469   2.794
54720W        W16383  20.149  14.169   2.284
54721W        W16384  44.831  14.112  13.979
54722W        W16385  14.121  15.643  12.544
54723W        W16386  21.128   5.367   2.267
54724W        W16387  13.298  31.054  12.895
54725W        W16388  40.412  15.153  12.017
54726W        W16389  16.655   8.676  14.330
54727W        W16390  25.530  36.416  11.037
54728W        W16391  31.028  26.040  12.032
54729W        W16392  36.501  17.167   1.261
54730W        W16393  43.791  42.786   1.772
54731W        W16394   8.867   3.326  13.910
54732W        W16395  12.144  33.586   3.261
54733W        W16396  38.041  21.517  14.949
54734W        W16397  26.685   1.875   4.736
54735W        W16398  31.914  33.430   2.300
54736W        W16399  44.445  44.471  14.869
54737W        W16400  36.365  28.543  11.453
54738W        W16401   9.165  19.631   1.216
54739W        W16402  12.771  14.308   3.159
54740W        W16403  29.980  23.054   2.373
54741W        W16404  13.676  34.969   4.275
54742W        W16405  21.120  39.894  10.576
54743W        W16406   2.752  28.181  12.073
54744W        W16407  34.548   4.283   4.338
54745W        W16408  41.928  39.976   1.783
54746W        W16409   5.733  15.751   0.796
54747W        W16410  20.059  23.197  10.623
54748W        W16411   0.788  37.550   3.277
54749W        W16412  22.559  35.049  10.644
54750W        W16413  21.670  22.693  12.909
54751W        W16414  42.338  17.265   4.810
54752W        W16415   5.390  28.643  13.922
54753W        W16416  31.064  44.951  12.483
54754W        W16417   8.191  23.616   3.304
54755W        W16418  38.052   2.432   3.350
54756W        W16419   2.902   3.788  11.540
54757W        W16420  36.073  43.515  11.067
54758W        W16421  22.237  32.081   2.213
54759W        W16422  15.087   6.380  12.982
54760W        W16423  30.574  20.058   1.271
54761W        W16424   6.307  14.656   4.810
54762W        W16425   9.797  17.089   4.781
54763W        W16426  29.930  34.045  12.406
54764W        W16427  34.374  10.208   5.274
54765W        W16428  19.696   8.195  12.008
54766W        W16429  16.247   0.477   4.167
54767W        W16430   7.860   3.305  13.364
54768W        W16431  44.367  44.912  11.495
54769W        W16432  44.261   2.264   4.740
54770W        W16433  34.413  40.028   1.721
54771W        W16434  34.923  22.593  11.917
54772W        W16435  10.653  10.734  10.456
54773W        W16436  37.512  38.058   3.679
54774W        W16437  19.755  41.372   2.395
54775W        W16438   2.785  14.118  11.485
54776W        W16439   2.924   3.366   4.292
54777W        W16440  16.109  37.833  11.539
54778W        W16441  22.020   8.171   0.328
54779W        W16442  40.385  20.600  11.920
54780W        W16443  39.343  12.621   4.255
54781W        W16444  23.129   4.923  14.401
54782W        W16445   7.374  30.125  12.495
54783W        W16446   7.382   0.854  13.824
54784W        W16447   8.404  14.776  13.966
54785W        W16448  18.291   6.683  14.325
54786W        W16449  30.956  37.942  14.814
54787W        W16450  39.038  24.714   0.913
54788W        W16451  37.364   6.396  11.946
54789W        W16452  37.074  30.929  11.003
54790W        W16453  39.967   7.816   3.840
54791W        W16454   9.661  13.178   3.178
54792W        W16455  16.596  30.910  14.430
54793W        W16456   9.353   6.269   0.960
54794W        W16457   1.837  38.901   3.835
54795W        W16458  30.151  26.595  10.548
54796W        W16459  11.239  39.336   4.306
54797W        W16460  16.244   4.392   1.391
54798W        W16461  16.802  31.456  10.958
54799W        W16462  23.021  20.597  13.992
54800W        W16463  12.271  39.513  14.881
54801W        W16464  10.358  34.018  14.784
54802W        W16465  40.824   5.211   2.843
54803W        W16466  21.045  21.713   4.643
54804W        W16467  26.027  39.351   1.874
54805W        W16468  20.620  15.266   5.147
54806W        W16469  20.644  17.700   3.310
54807W        W16470   2.777  35.583  11.608
54808W        W16471   4.318   4.220  12.977
54809W        W16472   6.783  44.808  13.473
54810W        W16473   4.256   3.387   0.386
54811W        W16474  38.073  17.090   1.438
54812W        W16475  23.072  35.453  10.408
54813W        W16476  20.203  17.800  11.007
54814W        W16477  32.592  16.583  13.894
54815W        W16478  25.970  33.595   3.279
54816W        W16479  37.021  26.603   0.844
54817W        W16480  44.987  34.593   1.923
54818W        W16481   1.376  20.222   1.826
54819W        W16482   3.715  18.264   0.348
54820W        W16483   3.256   9.370  14.337
54821W        W16484  28.121  35.519  11.088
54822W        W16485  43.452   9.176  11.583
54823W        W16486  17.761  17.268  11.426
54824W        W16487  27.101  24.061   1.904
54825W        W16488  10.359  17.289  14.409
54826W        W16489   0.447   2.949  14.972
54827W        W16490  11.132  29.043  12.339
54828W        W16491  21.520  30.646  14.964
54829W        W16492  18.080  40.392   3.807
54830W        W16493   4.881  22.180  11.464
54831W        W16494   0.484  16.264  10.072
54832W        W16495   9.877   1.791  10.948
54833W        W16496  39.517  34.604  14.509
54834W        W16497  25.114  16.272   3.329
54835W        W16498  39.980  22.665   2.204
54836W        W16499  25.069   8.265  11.090
54837W        W16500   6.335  25.120   4.816
54838W        W16501  24.712  24.532   1.807
54839W        W16502  11.252  21.057  10.521
54840W        W16503  24.706  27.538   3.778
54841W        W16504  11.239  39.007  10.437
54842W        W16505  29.935  20.524  12.017
54843W        W16506   1.738  39.983  12.071
54844W        W16507  36.070  20.553   3.631
54845W        W16508  43.501   6.721  10.607
54846W        W16509  26.663   3.792   3.840
54847W        W16510  16.694   0.843   1.435
54848W        W16511   9.803   7.327   2.319
54849W        W16512  36.586   0.771  14.348
54850W        W16513  42.822  28.525   4.337
54851W        W16514  16.758  34.370   3.755
54852W        W16515  38.017  22.187  13.968
54853W        W16516  29.047  11.361   2.846
54854W        W16517  38.346  23.142  12.496
54855W        W16518  35.917  18.594   2.193
54856W        W16519  22.534  10.346   1.313
54857W        W16520   4.782  18.643   2.795
54858W        W16521  41.803  13.701   0.298
54859W        W16522  44.910   4.702  11.974
54860W        W16523  14.630   2.452  13.841
54861W        W16524  35.899  30.432   0.800
54862W        W16525   3.399   3.311  13.388
54863W        W16526  15.195  33.130  12.556
54864W        W16527  36.000  31.960   0.354
54865W        W16528  26.095  16.633  13.860
54866W        W16529  32.968   3.407   1.383
54867W        W16530   8.322  30.497  12.887
54868W        W16531   5.238  21.549  14.982
54869W        W16532  38.413  14.640  12.985
54870W        W16533  19.682  14.599   0.810
54871W        W16534  16.636  34.544   2.340
54872W        W16535   3.953  16.628  11.610
54873W        W16536  42.495  43.807   0.271
54874W        W16537  24.612  26.667   3.678
54875W        W16538  14.237  35.881   0.833
54876W        W16539  38.893   1.963   1.446
54877W        W16540  43.464  13.638  12.401
54878W        W16541  38.937  29.590  13.890
54879W        W16542  16.272  19.636   3.633
54880W        W16543  44.370   7.857   2.754
54881W        W16544   0.357  16.652   5.318
54882W        W16545  38.403  21.034  14.843
54883W        W16546   6.714  21.261  13.020
54884W        W16547  41.309   1.466   2.883
54885W        W16548  44.980  22.167  10.592
54886W        W16549   0.765  25.985   1.416
54887W        W16550  20.043  13.204  12.058
54888W        W16551   7.356  34.095   0.427
54889W        W16552  29.139  28.605   4.287
54890W        W16553  37.481  15.779   0.467
54891W        W16554  35.078  29.428  13.809
54892W        W16555  10.699  10.679  12.051
54893W        W16556  14.733  22.039  14.789
54894W        W16557  41.860   8.734   1.239
54895W        W16558  11.807   1.812  10.990
54896W        W16559  24.671  21.695  14.394
54897W        W16560   8.690   0.928  10.541
54898W        W16561  29.543  17.646   4.165
54899W        W16562  17.116  44.393  14.997
54900W        W16563  39.971   4.445   0.267
54901W        W16564   0.814  17.220   9.940
54902W        W16565   9.372  23.587   0.362
54903W        W16566  29.559  41.464  14.447
54904W        W16567   1.792  28.106  12.955
54905W        W16568  10.642  25.136   3.180
54906W        W16569   0.970  37.087  13.877
54907W        W16570   6.329  39.510  14.336
54908W        W16571  21.116  25.592   0.939
54909W        W16572  44.458  35.477  14.296
54910W        W16573  30.109  31.476   3.287
54911W        W16574   5.733  30.447   3.820
54912W        W16575  10.804  41.858  14.947
54913W        W16576  44.335  30.567   0.924
54914W        W16577   3.870   6.298  10.463
54915W        W16578  36.502  17.760  11.448
54916W        W16579   7.402  18.782  11.551
54917W        W16580  44.981  15.318  14.886
54918W        W16581  31.468  30.087   1.750
54919W        W16582  30.019  39.552  10.924
54920W        W16583  25.535  28.489   3.318
54921W        W16584   6.705  23.231   1.245
54922W        W16585  31.106  28.949   3.752
54923W        W16586  18.551  43.307   0.828
54924W        W16587  13.663   7.250   2.338
54925W        W16588  28.436  18.100  14.835
54926W        W16589  44.384   6.791   2.346
54927W        W16590   9.245   9.310  11.534
54928W        W16591  26.593   6.757   2.760
54929W        W16592  27.166  29.012   1.263
54930W        W16593  22.616  24.192  13.498
54931W        W16594  26.469  30.449   4.641
54932W        W16595  31.594  13.210  12.557
54933W        W16596  31.528  34.427   4.129
54934W        W16597   3.861   5.802   3.324
54935W        W16598  32.016  29.474   3.179
54936W        W16599   4.709  43.977   1.812
54937W        W16600  14.627  32.578  14.799
54938W        W16601  40.502   6.797   1.870
54939W        W16602  11.272  25.139   1.807
54940W        W16603  27.619   0.359   3.204
54941W        W16604  36.937  20.643   0.726
54942W        W16605  22.506  26.045  10.974
54943W        W16606  14.667   9.198  11.116
54944W        W16607  39.058  31.455   1.724
54945W        W16608  15.133   0.746  12.844
54946W        W16609  32.561  20.586   1.250
54947W        W16610  17.611  16.807  13.495
54948W        W16611  42.340   3.431  14.912
54949W        W16612   5.293  29.157   4.206
54950W        W16613  34.966  30.636   3.258
54951W        W16614  21.173   9.159   0.259
54952W        W16615  29.617   3.866   4.746
54953W        W16616   0.484  16.173   1.258
54954W        W16617   7.818  42.327  14.433
54955W        W16618  14.665  23.617   0.910
54956W        W16619  20.111  14.264  14.490
54957W        W16620  41.415  39.339   4.653
54958W        W16621   6.244  33.597   3.304
54959W        W16622  40.921  16.721   3.209
54960W        W16623   3.934  37.852   3.208
54961W        W16624  35.045  37.390   2.828
54962W        W16625  39.873  32.034  13.525
54963W        W16626  31.959  21.636  13.038
54964W        W16627  43.271   0.859  10.465
54965W        W16628   6.833  25.570   4.177
54966W        W16629   0.846   7.299  13.459
54967W        W16630  25.988  31.966   0.850
54968W        W16631  27.491  42.330   4.724
54969W        W16632  41.478   3.226   2.666
54970W        W16633  40.849   9.721   2.298
54971W        W16634  19.201  39.943  12.892
54972W        W16635  22.074  25.524   4.176
54973W        W16636  14.201  27.034   4.329
54974W        W16637  29.529  25.118  14.476
54975W        W16638  29.969   0.298  10.422
54976W        W16639  23.229  36.866   3.741
54977W        W16640   5.305  40.539   0.900
54978W        W16641  31.958  27.995   5.322
54979W        W16642  17.214  44.815   3.335
54980W        W16643  30.085  19.545  11.879
54981W        W16644  25.115   3.312   0.463
54982W        W16645  21.595  37.444   2.264
54983W        W16646  12.650   6.826   3.182
54984W        W16647  39.442  33.007  12.060
54985W        W16648  25.039  30.083   2.233
54986W        W16649  26.095  25.191  14.022
54987W        W16650  17.575  28.519   1.916
54988W        W16651  18.125  29.641   3.276
54989W        W16652  25.494  22.080  11.109
54990W        W16653  19.751  35.058   1.845
54991W        W16654  41.981   1.736  13.432
54992W        W16655  12.199  32.020   1.884
54993W        W16656  12.228  17.647   2.221
54994W        W16657  20.764  14.150   2.311
54995W        W16658  34.418   6.803   3.323
54996W        W16659  35.949   4.354  11.905
54997W        W16660   1.733  34.958   4.750
54998W        W16661  26.003  23.086  11.907
54999W        W16662  23.208  33.589  13.434
55000W        W16663  22.229  20.181  14.458
55001W        W16664   9.837  11.796  13.925
55002W        W16665   6.368  24.634   4.330
55003W        W16666  38.913  27.988  13.341
55004W        W16667  27.489  43.882  13.371
55005W        W16668  44.808  44.823  12.838
55006W        W16669  16.664  30.596  14.489
55007W        W16670  23.598   9.726  14.959
55008W        W16671  28.599  26.145  14.907
55009W        W16672  40.907  33.589   3.320
55010W        W16673   1.307  15.169  12.450
55011W        W16674  15.143  38.517  12.565
55012W        W16675   9.693   3.316  13.402
55013W        W16676  39.540  20.093   3.255
55014W        W16677  35.357   3.754   2.805
55015W        W16678  11.802  37.460   5.121
55016W        W16679   2.409  18.178  14.791
55017W        W16680  33.981  12.849   0.399
55018W        W16681  14.311  40.316  10.404
55019W        W16682   8.829   2.442   5.302
55020W        W16683  39.391   2.369   4.771
55021W        W16684   9.330  12.814   0.905
55022W        W16685  40.527  38.862   1.750
55023W        W16686  33.497  20.627   0.294
55024W        W16687   7.392  28.589   0.806
55025W        W16688  39.911   8.725  10.486
55026W        W16689  16.306  21.069   1.410
55027W        W16690  31.446  37.920  10.456
55028W        W16691  22.154  10.851  12.523
55029W        W16692  37.880   4.912  12.443
55030W        W16693   3.400  20.525   3.783
55031W        W16694   6.369  27.978  13.329
55032W        W16695  16.744   1.346   2.817
55033W        W16696  32.921  12.816   3.293
55034W        W16697   1.870  33.921   1.370
55035W        W16698  32.410  41.398   0.410
55036W        W16699  10.246   1.457   0.745
55037W        W16700  18.660   4.776  11.607
55038W        W16701   0.822   6.329  11.941
55039W        W16702   7.752   2.780  12.448
55040W        W16703  27.115  34.027  14.460
55041W        W16704   3.426  32.912   4.323
55042W        W16705   7.825  18.618   3.315
55043W        W16706  14.689  36.003   5.746
55044W        W16707   0.410  38.838   4.788
55045W        W16708  12.166   3.800  14.281
55046W        W16709  32.108  26.497  12.864
55047W        W16710  28.088  29.012  11.425
55048W        W16711  33.587  26.008   3.285
55049W        W16712  34.575  26.080   0.858
55050W        W16713   0.914  36.954   2.801
55051W        W16714  11.625  27.478   4.669
55052W        W16715  16.589  20.746  12.927
55053W        W16716  24.576  44.997   0.894
55054W        W16717   3.440  17.118   5.131
55055W        W16718  29.980  44.841  13.895
55056W        W16719  38.483  26.628  14.774
55057W        W16720  20.750  15.267  14.500
55058W        W16721  32.451  41.964   3.154
55059W        W16722   6.196   2.328   0.482
55060W        W16723  42.400  30.136   1.706
55061W        W16724  43.021  17.189   1.720
55062W        W16725  28.579  36.009  11.943
55063W        W16726  38.001  41.501  11.437
55064W        W16727   3.821   6.862  11.372
55065W        W16728  26.145  30.023  14.343
55066W        W16729  26.602  19.617   4.692
55067W        W16730  39.879   1.847   0.789
55068W        W16731   6.387  18.204   4.212
55069W        W16732  20.267  19.596   3.270
55070W        W16733  29.594  35.484  11.085
55071W        W16734  41.364  29.992   0.815
55072W        W16735  19.176  31.080   0.898
55073W        W16736  36.557  11.201   0.884
55074W        W16737  32.585  26.669   0.323
55075W        W16738   3.396  25.636  11.500
55076W        W16739  35.063  41.801   3.683
55077W        W16740  15.143  37.418   2.200
55078W        W16741  26.528  13.602  14.911
55079W        W16742  41.337   8.870   9.929
55080W        W16743  24.170  32.505   3.173
55081W        W16744  41.939  43.924   4.610
55082W        W16745  43.508  40.021  13.058
55083W        W16746   6.921  28.457  14.371
55084W        W16747  44.357  22.139  13.917
55085W        W16748   6.909  21.641   1.448
55086W        W16749  44.758   8.822  13.480
55087W        W16750  38.918  38.484  11.494
55088W        W16751  38.372  31.437   0.374
55089W        W16752  22.189  23.022   3.197
55090W        W16753  11.859   8.250  12.392
55091W        W16754  17.095  13.331  13.312
55092W        W16755  19.620  14.808  12.410
55093W        W16756  42.976   0.266  11.535
55094W        W16757  26.015  12.837  12.959
55095W        W16758   6.915  13.733   3.185
55096W        W16759  41.947  26.982   4.278
55097W        W16760  22.501  34.878   3.283
55098W        W16761   1.737  35.399   2.415
55099W        W16762  25.698   6.735   1.278
55100W        W16763  12.125  21.069  12.554
55101W        W16764  26.035  16.595   3.676
55102W        W16765  27.510   9.676   4.152
55103W        W16766  15.788   0.757  13.349
55104W        W16767   1.821   2.774   2.695
55105W        W16768   3.768  24.177   2.262
55106W        W16769  30.607  37.347  13.430
55107W        W16770  35.446  11.356   0.319
55108W        W16771   6.758  16.308  12.884
55109W        W16772   9.766  38.562  10.581
55110W        W16773  37.392   9.343   4.189
55111W        W16774   4.288  27.131   2.689
55112W        W16775  16.568  43.464  14.498
55113W        W16776  44.446  23.623   1.865
55114W        W16777   1.482  40.927   4.126
55115W        W16778  14.150  35.517   2.208
55116W        W16779   6.716   3.733   0.932
55117W        W16780   1.345  15.130  11.426
55118W        W16781  13.637  10.183  10.901
55119W        W16782  26.147   1.950  13.460
55120W        W16783  19.572  14.196   0.745
55121W        W16784   4.850   3.799   3.193
55122W        W16785  22.503   4.740   4.143
55123W        W16786   0.823  29.980   1.451
55124W        W16787   6.878   9.684  13.466
55125W        W16788  18.752  23.579  14.903
55126W        W16789  31.095  18.097   4.303
55127W        W16790  38.528  27.602  12.938
55128W        W16791  21.224  36.581   0.464
55129W        W16792   3.291  13.215   2.763
55130W        W16793  36.440  10.774  11.436
55131W        W16794  24.148  14.748   1.402
55132W        W16795   4.244  25.974   0.244
55133W        W16796  41.296  17.199   0.482
55134W        W16797  17.756  43.516   4.672
55135W        W16798  33.613  41.322  10.073
55136W        W16799  42.389  28.479  13.390
55137W        W16800  41.402  36.908  13.897
55138W        W16801  22.995   6.845  11.857
55139W        W16802  40.403   2.316  11.054
55140W        W16803   1.429  34.931  13.450
55141W        W16804   2.316  36.890   3.808
55142W        W16805  16.169  17.647  13.466
55143W        W16806  35.103   0.314   0.853
55144W        W16807  10.722   7.195  14.973
55145W        W16808  29.625   2.868  13.385
55146W        W16809  23.229  31.064   2.212
55147W        W16810  32.907  12.789  12.383
55148W        W16811  37.071  25.034   0.343
55149W        W16812   5.392  26.158  10.932
55150W        W16813  12.172  23.502  14.002
55151W        W16814  42.970  10.331   4.769
55152W        W16815   6.293  33.409  10.959
55153W        W16816  29.153  24.495  13.871
55154W        W16817   9.816  19.229   4.250
55155W        W16818  15.151   9.283   1.365
55156W        W16819  35.947  27.067   3.216
55157W        W16820  23.717   5.786  10.020
55158W        W16821  23.234  44.997   2.789
55159W        W16822  15.766   9.753  11.046
55160W        W16823  26.532  38.435  11.465
55161W        W16824   9.843  14.134   5.245
55162W        W16825  39.395   8.201   1.254
55163W        W16826  26.671  13.277  14.443
55164W        W16827   8.165  43.488  11.585
55165W        W16828  29.515   5.839   4.804
55166W        W16829  42.325   3.258  13.999
55167W        W16830  23.703  41.946  14.358
55168W        W16831   3.750  14.645  12.357
55169W        W16832   4.889  37.478  12.343
55170W        W16833   0.288  23.154   4.198
55171W        W16834   2.275  43.286   2.863
55172W        W16835  27.570  25.712   0.814
55173W        W16836  42.964  35.935  11.093
55174W        W16837  23.192  44.925   3.211
55175W        W16838  23.155  33.405   2.352
55176W        W16839   9.668  30.598  13.018
55177W        W16840  33.600  33.130   3.259
55178W        W16841  17.753  23.688   4.676
55179W        W16842   4.296  33.385  11.905
55180W        W16843  34.403   8.231  14.841
55181W        W16844   6.871  29.146  10.984
55182W        W16845  20.727  17.661  13.949
55183W        W16846  38.062  12.727   1.719
55184W        W16847  31.439  13.325  11.455
55185W        W16848  14.196  30.582   3.789
55186W        W16849   8.282  39.357  12.404
55187W        W16850  36.095  36.466   3.279
55188W        W16851   4.936  39.961   3.812
55189W        W16852  11.800  43.489  13.798
55190W        W16853  13.107  20.609   0.928
55191W        W16854  36.547   3.738  14.352
55192W        W16855  15.168  15.720   3.801
55193W        W16856   9.238  44.918  14.875
55194W        W16857  26.107  43.933   0.432
55195W        W16858   9.229   6.752  14.371
55196W        W16859  24.146  25.660   0.894
55197W        W16860  40.875   5.286   0.755
55198W        W16861  43.944  11.706  14.762
55199W        W16862  13.255  12.173   2.390
55200W        W16863   5.858  24.215  12.379
55201W        W16864  39.491  19.272  12.348
55202W        W16865   8.333  22.613  11.442
55203W        W16866  15.123   9.875   3.308
55204W        W16867  40.919  15.115  12.017
55205W        W16868   7.837  39.938   2.892
55206W        W16869   5.838  31.097   3.384
55207W        W16870  22.204  24.493   0.385
55208W        W16871  22.710  33.423  10.985
55209W        W16872  26.980   4.927  10.441
55210W        W16873   0.855  19.764   5.233
55211W        W16874  39.458  17.238  12.346
55212W        W16875  18.629  34.065   2.737
55213W        W16876  22.620  25.199  12.579
55214W        W16877   1.247   3.758   3.359
55215W        W16878  43.881  12.290  14.777
55216W        W16879   8.835  36.912   3.753
55217W        W16880  41.002   3.953   4.617
55218W        W16881   9.273   0.845  11.610
55219W        W16882  15.679  32.423   0.818
55220W        W16883  23.630   1.795   0.894
55221W        W16884  18.120  20.204  12.827
55222W        W16885  41.393  24.165  10.906
55223W        W16886  11.732  37.394   0.822
55224W        W16887   9.766  18.227  13.378
55225W        W16888  12.828  38.040   0.275
55226W        W16889  36.531  12.290  10.609
55227W        W16890  24.133  44.945  14.893
55228W        W16891  17.752  35.518   9.560
55229W        W16892  28.112  38.974  13.046
55230W        W16893  41.916  17.148  10.951
55231W        W16894  18.712  41.040  10.987
55232W        W16895  27.951  21.162  13.337
55233W        W16896  34.007  27.141  12.040
55234W        W16897  44.382  28.541  13.006
55235W        W16898  17.113   4.821  12.546
55236W        W16899  27.631  15.214  10.932
55237W        W16900  39.927   3.852  11.903
55238W        W16901   9.656  16.678   4.735
55239W        W16902  35.088  40.396  13.043
55240W        W16903  34.089  12.813  12.847
55241W        W16904  27.014  26.500   5.149
55242W        W16905  18.160  10.265  12.482
55243W        W16906  26.614  23.037   1.402
55244W        W16907  23.056   6.900  11.436
55245W        W16908  14.255  30.517  14.323
55246W        W16909  12.312  30.598  14.432
55247W        W16910  25.499  36.371   1.373
55248W        W16911  37.022  21.597   3.343
55249W        W16912  39.827  29.540  12.861
55250W        W16913  33.592  30.655   3.865
55251W        W16914   5.927  29.933   3.228
55252W        W16915  27.049  29.452  14.875
55253W        W16916  17.169  41.491  13.523
55254W        W16917   9.740  13.681  14.882
55255W        W16918  32.119   3.381  14.502
55256W        W16919  20.186   1.243  13.422
55257W        W16920  16.800  23.683  10.533
55258W        W16921  14.645  12.182  12.091
55259W        W16922  42.790   6.235   9.541
55260W        W16923  33.917   7.270   2.341
55261W        W16924  33.406  41.448  14.384
55262W        W16925  27.085   2.776  14.456
55263W        W16926  20.233   7.347  10.541
55264W        W16927  29.040  34.611  10.938
55265W        W16928  34.915  28.583  11.978
55266W        W16929  18.083  24.133  14.359
55267W        W16930   3.897  28.970  13.064
55268W        W16931  33.047  32.958  14.003
55269W        W16932  12.308  14.133   2.736
55270W        W16933   0.919  13.651  11.513
55271W        W16934  15.660  32.498   4.640
55272W        W16935  13.787   3.797   3.781
55273W        W16936  31.504  22.097   3.292
55274W        W16937  24.607  10.700   1.276
55275W        W16938  17.693  41.318  11.604
55276W        W16939  41.383   4.812  14.877
55277W        W16940  13.314  34.025   4.820
55278W        W16941  28.552  41.866  12.495
55279W        W16942  44.481  40.908   4.745
55280W        W16943  44.982  28.475  14.392
55281W        W16944  36.939  13.161  11.915
55282W        W16945  39.864  35.568  14.787
55283W        W16946   1.300   2.336   0.816
55284W        W16947  14.762   9.768   9.580
55285W        W16948   7.907  33.968  13.379
55286W        W16949  11.291   8.307  10.027
55287W        W16950  10.183  22.575   2.861
55288W        W16951  39.810  42.326  14.786
55289W        W16952  27.043   1.389  11.493
55290W        W16953   1.322  42.831  11.455
55291W        W16954  11.670  15.329  10.610
55292W        W16955  17.292  29.504  14.972
55293W        W16956  11.712  40.044   1.813
55294W        W16957   2.238  35.377   3.649
55295W        W16958  24.196  39.945   9.527
55296W        W16959  17.242   7.691  10.475
55297W        W16960  33.486  37.491   1.407
55298W        W16961  37.938  25.615  10.891
55299W        W16962  39.955  29.619  14.435
55300W        W16963  35.102  10.199  13.032
55301W        W16964  28.516   9.658  11.411
55302W        W16965   7.890   5.782   0.944
55303W        W16966  21.712  31.456   3.275
55304W        W16967  32.635   6.314  14.383
55305W        W16968  43.954  44.401   3.218
55306W        W16969  25.663  10.717   0.456
55307W        W16970  22.575  39.839  14.803
55308W        W16971  24.175  38.483   1.870
55309W        W16972  40.326  12.847  14.924
55310W        W16973  34.522   5.229   4.597
55311W        W16974  32.617  26.676  12.997
55312W        W16975  14.134  30.440   0.799
55313W        W16976   5.387  21.521   0.250
55314W        W16977  30.159  40.503   1.421
55315W        W16978  16.685  41.903  11.589
55316W        W16979  17.598  32.097   2.413
55317W        W16980   3.881  11.170   1.826
55318W        W16981  41.464  34.022   3.247
55319W        W16982  35.064  38.471  13.790
55320W        W16983  10.857  32.618   3.329
55321W        W16984  33.523   8.677  13.494
55322W        W16985  36.413  12.319  14.759
55323W        W16986  10.245  13.653   3.231
55324W        W16987  23.533  36.478  14.884
55325W        W16988   9.693   2.885   4.336
55326W        W16989  13.797  15.322  11.408
55327W        W16990  12.844  31.947  12.825
55328W        W16991   2.390   8.217   0.404
55329W        W16992   7.665  28.127   4.323
55330W        W16993   9.663  21.177   5.087
55331W        W16994  10.249  34.072   3.172
55332W        W16995  31.495   3.366  11.426
55333W        W16996  42.972  13.797  12.351
55334W        W16997  18.067  17.731   4.681
55335W        W16998  12.612  39.401  11.569
55336W        W16999  15.673  13.734  13.373
55337W        W17000  17.584  43.415  14.500
55338W        W17001  18.282  13.115  10.044
55339W        W17002   7.799   7.910  12.005
55340W        W17003  28.975  16.254   4.159
55341W        W17004   0.343  38.934  12.937
55342W        W17005  11.333  35.898   5.083
55343W        W17006  20.581   2.377   5.264
55344W        W17007   5.368  19.114  13.023
55345W        W17008  20.682  25.032  13.373
55346W        W17009  41.822  29.579   4.724
55347W        W17010   8.317   9.328   0.298
55348W        W17011  16.666  28.016   0.449
55349W        W17012  12.180  17.682   4.290
55350W        W17013  35.439  30.945   3.243
55351W        W17014   4.714   3.855   1.835
55352W        W17015  18.254  27.967   3.753
55353W        W17016  44.966  41.507   5.093
55354W        W17017  16.571  35.376  13.426
55355W        W17018  42.005   2.809   3.351
55356W        W17019  24.721  26.618  10.930
55357W        W17020  29.524   4.833   1.910
55358W        W17021  36.347   1.473  10.495
55359W        W17022  30.414  30.932   1.234
55360W        W17023   3.426   9.840   1.729
55361W        W17024  22.658  13.341  11.584
55362W        W17025  21.532  36.433  14.287
55363W        W17026  20.187  38.935   3.333
55364W        W17027  20.189  34.595  10.090
55365W        W17028  39.980  25.104  12.900
55366W        W17029   7.342   5.335  13.416
55367W        W17030  32.009  32.901  11.962
55368W        W17031  36.353  39.983  11.901
55369W        W17032  10.869  12.168  13.895
55370W        W17033  11.652  20.156   1.781
55371W        W17034   8.310  32.111  13.010
55372W        W17035  12.640   3.376   3.861
55373W        W17036  22.197   1.957  10.562
55374W        W17037   1.314  29.077  14.759
55375W        W17038  16.772  11.313   2.750
55376W        W17039  25.992  13.344   2.343
55377W        W17040  41.475  21.098  14.414
55378W        W17041  14.644  19.658   2.867
55379W        W17042  13.173  16.799  10.888
55380W        W17043  35.029  30.528   5.115
55381W        W17044  20.127  42.418  12.010
55382W        W17045   7.760   8.780   4.351
55383W        W17046  32.931  35.894  11.989
55384W        W17047   4.924  20.192  12.873
55385W        W17048   1.428  38.391   2.216
55386W        W17049   8.707   9.826  10.471
55387W        W17050  39.323  30.567  12.498
55388W        W17051  22.035  43.356  10.492
55389W        W17052  32.954  35.041   2.889
55390W        W17053  17.589  43.863  12.353
55391W        W17054  13.834  12.639   0.901
55392W        W17055  32.103   7.734  14.443
55393W        W17056  36.973   0.744  13.964
55394W        W17057   7.209   3.411   4.271
55395W        W17058   6.829   2.232   2.783
55396W        W17059  15.605   8.257  12.557
55397W        W17060  40.039  40.527   1.856
55398W        W17061  26.108  44.334   4.186
55399W        W17062  44.353   4.706  13.874
55400W        W17063  11.294  33.070  14.018
55401W        W17064  26.163  43.861  10.607
55402W        W17065   0.932  43.831  11.004
55403W        W17066  14.246  43.424   0.728
55404W        W17067  13.653   8.733   2.213
55405W        W17068   5.374  18.180  11.398
55406W        W17069  14.262  11.195   2.188
55407W        W17070   5.221  23.190  13.388
55408W        W17071   4.717  43.015   9.955
55409W        W17072  37.067  23.568   0.774
55410W        W17073  15.326  39.027  10.475
55411W        W17074  23.615  29.954  10.566
55412W        W17075   7.176  15.642  12.479
55413W        W17076  16.713  18.060  11.585
55414W        W17077  39.434  25.542  14.877
55415W        W17078  29.577  36.972   0.920
55416W        W17079  29.619  16.310  12.477
55417W        W17080  37.398  26.670   2.741
55418W        W17081  38.524  32.997  13.993
55419W        W17082  36.935  34.506  14.473
55420W        W17083  32.959  28.183  14.357
55421W        W17084  37.374  17.228   3.707
55422W        W17085  20.760   3.348   2.799
55423W        W17086  16.194  11.676  10.441
55424W        W17087   2.874   5.917   2.846
55425W        W17088   9.746  37.397   3.277
55426W        W17089   4.272  40.411  12.341
55427W        W17090   3.427   7.200   0.369
55428W        W17091  10.821  23.182  11.417
55429W        W17092  43.435  16.614   2.286
55430W        W17093  16.237   8.863   4.198
55431W        W17094  19.582  12.343   1.283
55432W        W17095  44.340   8.808   2.259
55433W        W17096  33.569  10.313  13.307
55434W        W17097   0.875   6.395  12.416
55435W        W17098  31.494  44.309  14.395
55436W        W17099  17.146  44.955   4.180
55437W        W17100  26.474  30.144  14.922
55438W        W17101   3.761  16.276  14.502
55439W        W17102  42.878  17.623  12.567
55440W        W17103  11.700   8.838   3.379
55441W        W17104  41.892   2.326  13.041
55442W        W17105  29.937  35.530   0.728
55443W        W17106  37.978   5.922   9.611
55444W        W17107  13.691   1.819  10.623
55445W        W17108   4.879  24.204  13.442
55446W        W17109  31.030  31.058  14.297
55447W        W17110  29.503  38.968  11.874
55448W        W17111  40.524  36.557  11.121
55449W        W17112  34.530   3.743  11.481
55450W        W17113   0.762  23.519   2.254
55451W        W17114  40.385   5.906   1.238
55452W        W17115  38.898  36.951   1.273
55453W        W17116  19.731  27.553  11.863
55454W        W17117  31.017  21.683   4.835
55455W        W17118  20.654  14.298  13.872
55456W        W17119  39.935  10.237  11.858
55457W        W17120   2.739   5.804  11.403
55458W        W17121  34.095   9.322   3.792
55459W        W17122  35.853   6.315   5.234
55460W        W17123  33.512  15.809   2.234
55461W        W17124   6.830   1.797  13.526
55462W        W17125  38.436  23.530  10.425
55463W        W17126  31.088  39.820  11.948
55464W        W17127  35.368  27.160  10.556
55465W        W17128  40.013  14.613   1.413
55466W        W17129  12.850   3.427   0.878
55467W        W17130  21.573  32.050  12.568
55468W        W17131  30.616  33.049  10.561
55469W        W17132  16.759  12.623  13.525
55470W        W17133   5.884  28.502  14.428
55471W        W17134   2.424  37.569   1.431
55472W        W17135  20.535  30.643  10.435
55473W        W17136   9.720  40.019  10.600
55474W        W17137  23.513   3.401   0.417
55475W        W17138  18.219   9.837   1.375
55476W        W17139  21.027  35.062  13.972
55477W        W17140   1.772  42.486   2.401
55478W        W17141  38.471  24.060   1.439
55479W        W17142  11.865  21.064   4.262
55480W        W17143   5.829  23.682   3.251
55481W        W17144  15.222  27.671  14.327
55482W        W17145  22.009  23.666  12.976
55483W        W17146  15.120  10.750  13.010
55484W        W17147  10.740  36.988  12.987
55485W        W17148  34.552  39.439   1.779
55486W        W17149   9.860   9.282   1.424
55487W        W17150  22.209  21.714  13.880
55488W        W17151  19.678   3.850   2.870
55489W        W17152  25.713   6.880   4.143
55490W        W17153  34.103  29.477  10.442
55491W        W17154  24.595   1.262  14.477
55492W        W17155   3.756  38.363   4.248
55493W        W17156  23.665  32.417   1.215
55494W        W17157  20.228  42.521   1.366
55495W        W17158  16.605  21.164   4.703
55496W        W17159  29.080  28.446   0.290
55497W        W17160  25.550  33.117  11.396
55498W        W17161  39.380   6.405   2.867
55499W        W17162  42.829  14.596  14.863
55500W        W17163  24.041  23.629   1.780
55501W        W17164  31.085  26.533  13.943
55502W        W17165  19.619  42.830   2.688
55503W        W17166  17.600  37.526  10.049
55504W        W17167   0.988  18.259   4.335
55505W        W17168   9.300   8.845   0.806
55506W        W17169  19.581  17.304  13.981
55507W        W17170   8.390  20.216  13.324
55508W        W17171   9.737  32.098  12.569
55509W        W17172  30.446   7.855  11.583
55510W        W17173  13.684   6.855   3.742
55511W        W17174  30.646  28.676   3.375
55512W        W17175  34.009  31.148  12.929
55513W        W17176  27.955  17.285   0.326
55514W        W17177   9.832  43.964   0.467
55515W        W17178   1.897  11.301   4.779
55516W        W17179  10.731  20.570  14.821
55517W        W17180   5.417  35.426   1.334
55518W        W17181   1.369  42.500   2.366
55519W        W17182  17.558  29.659   2.739
55520W        W17183   4.803  39.433   3.687
55521W        W17184  37.850   2.276  11.963
55522W        W17185  31.070  29.134   0.351
55523W        W17186   2.806  24.654   1.429
55524W        W17187  31.106  21.582  10.907
55525W        W17188  35.897  38.381  13.855
55526W        W17189  26.702  33.504  13.856
55527W        W17190  33.916   0.777   0.889
55528W        W17191  14.260  31.112   2.224
55529W        W17192  36.572   5.298   3.839
55530W        W17193  23.682  10.181   0.295
55531W        W17194  34.409  42.361   0.736
55532W        W17195  21.720  35.592   2.343
55533W        W17196  17.113  43.283   0.946
55534W        W17197  29.529  10.214   2.793
55535W        W17198  28.566  34.910  10.520
55536W        W17199  22.520   5.236   3.264
55537W        W17200  42.810  25.127  13.898
55538W        W17201  32.016  32.429  13.413
55539W        W17202  12.216  27.596  11.554
55540W        W17203  14.272  39.469   2.199
55541W        W17204  29.169  10.731  11.503
55542W        W17205  16.294  43.366  11.569
55543W        W17206  33.958  37.521   1.760
55544W        W17207  27.983  10.336  14.020
55545W        W17208  24.009  19.682  14.495
55546W        W17209   3.952  20.561  11.024
55547W        W17210  20.031  14.234   3.795
55548W        W17211  16.694  14.831  14.890
55549W        W17212  34.410  11.774  14.823
55550W        W17213   2.293  29.525   3.840
55551W        W17214  39.511  16.167   2.716
55552W        W17215  19.612  16.117   3.153
55553W        W17216  29.123  41.315  13.424
55554W        W17217   9.339  26.954   1.829
55555W        W17218  35.031  28.604  14.854
55556W        W17219  43.860   4.395  12.942
55557W        W17220   8.775  34.395  11.045
55558W        W17221   1.967  21.524   2.245
55559W        W17222  40.024  36.022  11.057
55560W        W17223  28.135   2.371  12.529
55561W        W17224   0.988  27.691  12.837
55562W        W17225  38.987  19.736   2.222
55563W        W17226  31.904  15.114   4.294
55564W        W17227  12.764  14.146   1.320
55565W        W17228   6.310  24.693  14.984
55566W        W17229  16.109  33.951   2.192
55567W        W17230  19.040  32.932  11.562
55568W        W17231   2.816  35.909  12.526
55569W        W17232   7.261  21.644   0.460
55570W        W17233  42.404  29.161   3.266
55571W        W17234  23.540  33.971   2.882
55572W        W17235  31.951  20.602   0.729
55573W        W17236  39.482  31.116   1.228
55574W        W17237  23.520  22.008  11.035
55575W        W17238  18.740   5.913   2.692
55576W        W17239  39.966  11.333   0.360
55577W        W17240  42.389  17.281  10.991
55578W        W17241   8.866  31.583   4.190
55579W        W17242  25.553  31.634  12.480
55580W        W17243   4.290  19.222   0.321
55581W        W17244  41.477  31.121   0.727
55582W        W17245  22.683  26.594   0.811
55583W        W17246   8.211  21.574   2.409
55584W        W17247  39.887  13.710  11.928
55585W        W17248   0.973  44.971  13.442
55586W        W17249   9.657  32.048  12.040
55587W        W17250   9.822  30.050  11.930
55588W        W17251   0.859   3.252   9.938
55589W        W17252   2.784   1.970  11.442
55590W        W17253  35.022  19.114  11.079
55591W        W17254   6.910  22.687   4.721
55592W        W17255  40.369  31.080  13.804
55593W        W17256  20.236   6.704  13.511
55594W        W17257  36.972  27.459  10.530
55595W        W17258  20.162  17.765  13.963
55596W        W17259  44.466  20.677   3.686
55597W        W17260  30.024  38.412  12.990
55598W        W17261  14.128  22.998  13.348
55599W        W17262  26.652  33.619  14.782
55600W        W17263  21.221   8.403  14.283
55601W        W17264  24.523  16.800   4.124
55602W        W17265  25.650   0.320  13.893
55603W        W17266  22.656  38.352  10.891
55604W        W17267  17.680   5.808   1.373
55605W        W17268  27.574  41.379   2.392
55606W        W17269  35.087  17.643  13.329
55607W        W17270  15.139  18.168  14.791
55608W        W17271  21.752   6.784   4.685
55609W        W17272  32.991  13.620   4.737
55610W        W17273   1.426  27.037  13.030
55611W        W17274   1.326  11.184   3.818
55612W        W17275   4.354  10.228   2.808
55613W        W17276  23.565  39.980   0.335
55614W        W17277   0.747  43.307   4.664
55615W        W17278   3.392  27.592  11.476
55616W        W17279  12.845  15.663   2.263
55617W        W17280  29.646  39.907   0.891
55618W        W17281  31.029   6.746   3.770
55619W        W17282  41.024  38.074  13.953
55620W        W17283  23.127  43.781  14.466
55621W        W17284  12.129  18.556  11.081
55622W        W17285  30.951   7.231   1.388
55623W        W17286   8.377  25.564  11.887
55624W        W17287  31.529   2.347   3.270
55625W        W17288  28.129  25.581   2.703
55626W        W17289   8.288  19.042  14.909
55627W        W17290   4.861  20.059   3.261
55628W        W17291  11.817  17.672   0.305
55629W        W17292   4.918   7.219  10.531
55630W        W17293  20.050  43.998   0.840
55631W        W17294  32.043   5.864  12.051
55632W        W17295  25.075  36.377   3.185
55633W        W17296  26.125  18.145  14.373
55634W        W17297   9.240  16.782   3.652
55635W        W17298  32.971  42.403   2.895
55636W        W17299  41.521  29.019   3.695
55637W        W17300  31.015  11.655   2.255
55638W        W17301  19.246  33.550   0.860
55639W        W17302  42.892  20.050   3.806
55640W        W17303  33.024   6.802   0.932
55641W        W17304  29.026  27.005   0.296
55642W        W17305  39.469  23.732   0.458
55643W        W17306  22.995   5.299   1.923
55644W        W17307   9.394  24.203  14.786
55645W        W17308   4.837  44.267   2.302
55646W        W17309  28.008  38.430  11.116
55647W        W17310  32.531  19.187   0.757
55648W        W17311  30.929  27.973  14.406
55649W        W17312  29.493  29.126  11.549
55650W        W17313  26.208  27.464  14.355
55651W        W17314  39.407  28.040  13.467
55652W        W17315  18.687  26.070  10.635
55653W        W17316  31.515  24.997   4.645
55654W        W17317  32.439  23.173   1.840
55655W        W17318  41.863  10.312  13.797
55656W        W17319  25.031  43.468   0.380
55657W        W17320   0.766  31.969  11.872
55658W        W17321  32.577  35.469  13.447
55659W        W17322   1.437  11.275   2.242
55660W        W17323  44.934   6.749  10.480
55661W        W17324   1.394  27.178   1.231
55662W        W17325  27.094  20.143   0.811
55663W        W17326  12.337  26.139  12.902
55664W        W17327   9.733  44.910  13.889
55665W        W17328   2.725  14.695  10.508
55666W        W17329  25.015  19.123  13.863
55667W        W17330  30.651  18.583   5.235
55668W        W17331   0.288  14.139  14.500
55669W        W17332  40.404  28.081   5.163
55670W        W17333  29.556   6.231  13.023
55671W        W17334  24.664   3.810  10.551
55672W        W17335  38.974   4.259   2.661
55673W        W17336  22.080   3.742   1.739
55674W        W17337  21.538   6.363   3.653
55675W        W17338   3.934  44.814  12.455
55676W        W17339   7.746  11.631  13.064
55677W        W17340   3.357   4.758  13.792
55678W        W17341  43.950  39.409  12.003
55679W        W17342  43.417  27.686  11.494
55680W        W17343  29.153  22.196  11.901
55681W        W17344  13.685  39.894   3.755
55682W        W17345   9.788  13.177   3.836
55683W        W17346  40.927   3.346   4.769
55684W        W17347  40.966  20.092  10.988
55685W        W17348  21.153  40.500   5.258
55686W        W17349   9.150  11.331  11.081
55687W        W17350  24.112  36.476   4.276
55688W        W17351  15.675  20.204   0.377
55689W        W17352  43.407  27.691   1.738
55690W        W17353   7.897  27.651   3.816
55691W        W17354  33.038  13.201  10.973
55692W        W17355  17.288  22.232  13.950
55693W        W17356  27.958  44.472  13.423
55694W        W17357  37.429   3.336  12.010
55695W        W17358  20.702   6.910  11.553
55696W        W17359  15.633   0.886  10.473
55697W        W17360  25.003   6.379   1.838
55698W        W17361  36.923  22.126   1.722
55699W        W17362  20.582   6.277  13.482
55700W        W17363  36.367  26.174   0.948
55701W        W17364   9.738   7.791  14.815
55702W        W17365  29.623  22.601  14.461
55703W        W17366  40.833   0.381  12.928
55704W        W17367  44.786  31.035  14.849
55705W        W17368  21.184  38.963  12.033
55706W        W17369  42.522  29.982   0.442
55707W        W17370  11.277  29.482  14.466
55708W        W17371   1.376   6.225   3.850
55709W        W17372  38.413   5.865  14.394
55710W        W17373  21.174  28.087   2.682
55711W        W17374  36.996   5.881   2.368
55712W        W17375  19.252  17.143  12.063
55713W        W17376  40.959   8.349  13.351
55714W        W17377  21.035   5.797   0.388
55715W        W17378  36.014  26.563   0.315
55716W        W17379  38.969  18.742  11.941
55717W        W17380   7.706  43.503   2.806
55718W        W17381  24.541  27.603  10.407
55719W        W17382  37.447  19.553  13.395
55720W        W17383   4.743  19.575  13.857
55721W        W17384  42.863   7.789   4.201
55722W        W17385  33.476  24.003  14.316
55723W        W17386  41.440  44.410   4.796
55724W        W17387  38.490  15.154   3.156
55725W        W17388  32.061  23.054  13.507
55726W        W17389  19.263  28.544   2.286
55727W        W17390  43.876  13.104  13.039
55728W        W17391  33.489  24.143  14.947
55729W        W17392  27.019  28.048   4.324
55730W        W17393  22.038   3.933  12.837
55731W        W17394  15.700   9.878   1.778
55732W        W17395  40.350   2.453   2.717
55733W        W17396  40.319  31.460   3.648
55734W        W17397   8.667  31.460   2.187
55735W        W17398   0.255  30.100   2.258
55736W        W17399   2.857  44.755  10.443
55737W        W17400  39.492  30.926   0.423
55738W        W17401  37.875  31.074  11.023
55739W        W17402  15.670  27.001   0.278
55740W        W17403   2.461   0.409  10.974
55741W        W17404  20.242   4.812   4.830
55742W        W17405  17.133  19.062   0.900
55743W        W17406  15.143  35.428   1.916
55744W        W17407   9.225  17.206  12.914
55745W        W17408  18.185  23.523   2.709
55746W        W17409  35.368  30.657  10.639
55747W        W17410  24.606  19.641  14.808
55748W        W17411   0.490   3.732   0.783
55749W        W17412  28.524  25.143   2.774
55750W        W17413   2.452  27.101   3.365
55751W        W17414   7.889  39.838  12.449
55752W        W17415  27.531  27.633   0.474
55753W        W17416   9.315  35.367  10.935
55754W        W17417   8.806   7.368  14.790
55755W        W17418  35.002  34.562   1.255
55756W        W17419  33.125  37.337   3.819
55757W        W17420   8.349   4.285   0.752
55758W        W17421  12.825  19.757  10.945
55759W        W17422  28.010  22.123  14.895
55760W        W17423   6.239   7.267  10.544
55761W        W17424  14.275  13.194  13.897
55762W        W17425   0.865  31.475  13.474
55763W        W17426  12.787  26.495  12.465
55764W        W17427  20.656  36.924   4.755
55765W        W17428  42.862  29.430  12.553
55766W        W17429  24.493  22.522  10.610
55767W        W17430  43.946  39.891  11.562
55768W        W17431  31.991  29.621   2.711
55769W        W17432   4.860  29.517   3.251
55770W        W17433  16.681  26.660   2.270
55771W        W17434  18.783  20.579  12.914
55772W        W17435  23.570  44.391  10.418
55773W        W17436  22.602  35.554  12.895
55774W        W17437  12.741  15.227   3.256
55775W        W17438  26.188  25.110   3.227
55776W        W17439  32.941  13.751   4.278
55777W        W17440  43.361  44.395   1.417
55778W        W17441  19.739  37.401   0.285
55779W        W17442  19.581  30.150  13.986
55780W        W17443  18.235  39.345  10.563
55781W        W17444  36.858   3.447  12.927
55782W        W17445  20.598  14.745   9.675
55783W        W17446   1.375  12.670  12.369
55784W        W17447  32.561  17.262   1.799
55785W        W17448  37.957   4.227   1.715
55786W        W17449  22.067  31.142   0.899
55787W        W17450  44.422  19.277  12.539
55788W        W17451  30.063  11.284   0.365
55789W        W17452   4.401  43.940  10.544
55790W        W17453  39.992  32.036   2.862
55791W        W17454   5.422  43.377   2.416
55792W        W17455   2.815  44.456   4.674
55793W        W17456  16.169  12.840   5.094
55794W        W17457  37.471  24.152   4.724
55795W        W17458  14.682  39.886   0.419
55796W        W17459  29.602   5.334   2.845
55797W        W17460  43.397   1.340   1.721
55798W        W17461  25.090  27.568  11.960
55799W        W17462   7.188  21.558  14.871
55800W        W17463  24.196  38.564  13.511
55801W        W17464  23.059  27.537  13.459
55802W        W17465  28.573  13.181  13.507
55803W        W17466  44.843   0.870  14.820
55804W        W17467  23.193  10.348   5.118
55805W        W17468  14.236  15.604  11.573
55806W        W17469   8.770  40.478   2.680
55807W        W17470   1.832  34.000  11.449
55808W        W17471  24.713   9.277  11.610
55809W        W17472  31.595  16.680  12.026
55810W        W17473   5.328  40.544  12.032
55811W        W17474  41.036  26.069  14.916
55812W        W17475   2.896  30.426  13.817
55813W        W17476   4.304  15.813  14.922
55814W        W17477  43.409  36.994   2.816
55815W        W17478  36.045  33.932  13.038
55816W        W17479  24.631  19.126   2.751
55817W        W17480  31.976  17.756   0.932
55818W        W17481  38.002  16.313   3.167
55819W        W17482  35.568  18.222  11.469
55820W        W17483  35.984  44.268  14.494
55821W        W17484  31.126  20.051   9.639
55822W        W17485  32.125   1.961   2.330
55823W        W17486  12.161  14.287   1.221
55824W        W17487  41.900  26.999  14.834
55825W        W17488  13.278  11.830   1.348
55826W        W17489  23.631   4.343   0.757
55827W        W17490  40.020  42.360  12.424
55828W        W17491   7.897   0.764  14.342
55829W        W17492  11.129   4.234  10.629
55830W        W17493   8.761  30.027  12.437
55831W        W17494   0.879  35.980   0.802
55832W        W17495  42.861   1.428   4.198
55833W        W17496  29.502  34.370   1.927
55834W        W17497  22.022   9.200   4.316
55835W        W17498   7.893  38.514  13.312
55836W        W17499  14.802  42.416   4.730
55837W        W17500  37.000   4.916   4.224
55838W        W17501  29.506  36.548  11.570
55839W        W17502  16.194  44.492  10.967
55840W        W17503   4.747  38.993  11.459
55841W        W17504   4.205  20.211  11.016
55842W        W17505  21.071  44.495  12.557
55843W        W17506  22.583  27.682   0.904
55844W        W17507  18.192  36.890  14.807
55845W        W17508   9.687  27.081  14.357
55846W        W17509  43.774  24.518   0.767
55847W        W17510  29.132  22.192  11.470
55848W        W17511  31.944  25.595   1.435
55849W        W17512  17.728   1.753  12.834
55850W        W17513  23.070   0.256   3.672
55851W        W17514  30.608  21.719   0.769
55852W        W17515  17.619  35.357  14.353
55853W        W17516   5.252  16.252  13.841
55854W        W17517   4.345  31.519   0.430
55855W        W17518  38.492  36.514   0.915
55856W        W17519  19.671   4.776   2.676
55857W        W17520  36.020  32.012  13.015
55858W        W17521  26.650  44.399  11.911
55859W        W17522  17.773   3.306  14.861
55860W        W17523  12.770   4.256   3.318
55861W        W17524  39.516   3.314  13.813
55862W        W17525  37.421   4.754  13.831
55863W        W17526  19.158  12.210   4.745
55864W        W17527   2.916  17.785   2.356
55865W        W17528  38.459  30.043   0.828
55866W        W17529  20.223   7.379  13.043
55867W        W17530  28.564  39.402  12.355
55868W        W17531  27.660   9.726   4.664
55869W        W17532  26.010  37.060  14.953
55870W        W17533  11.258  35.573  14.810
55871W        W17534  37.346  16.276  10.426
55872W        W17535  26.186  40.413   0.830
55873W        W17536  17.747  26.971  11.941
55874W        W17537  16.696  11.745  13.040
55875W        W17538  26.158  32.068  11.934
55876W        W17539  39.367   4.838  12.087
55877W        W17540  17.722  19.637  12.460
55878W        W17541  16.623   5.867  14.980
55879W        W17542  13.172  36.393   2.205
55880W        W17543   0.492  37.854   0.294
55881W        W17544  42.025   4.215  10.974
55882W        W17545  14.821  33.382  11.502
55883W        W17546  22.747  28.068   4.346
55884W        W17547  31.096  37.873  11.071
55885W        W17548  14.815  15.129   4.295
55886W        W17549  16.119  18.692  13.368
55887W        W17550  22.525  32.461  13.919
55888W        W17551  33.887  27.184   0.296
55889W        W17552  32.450  37.466  12.010
55890W        W17553  20.760  33.420   4.227
55891W        W17554  22.561  12.316  11.602
55892W        W17555   9.822  17.692   0.944
55893W        W17556  30.464   2.807  13.907
55894W        W17557   5.725  13.169   4.643
55895W        W17558  22.689  30.482  10.142
55896W        W17559  16.580  23.538   4.300
55897W        W17560   6.678   4.745  12.886
55898W        W17561  17.582  23.126  11.992
55899W        W17562  38.003  26.483  13.953
55900W        W17563  34.928  28.463  11.585
55901W        W17564  37.453  25.560   3.805
55902W        W17565  12.250  28.482  13.334
55903W        W17566  24.704  15.243  12.829
55904W        W17567   1.325  27.157  11.063
55905W        W17568  12.318  13.709  13.942
55906W        W17569  34.560  36.890   2.880
55907W        W17570   8.165  35.978   0.474
55908W        W17571  20.647  23.079   4.274
55909W        W17572   0.304   1.405   0.864
55910W        W17573  25.000  35.961  14.401
55911W        W17574  30.972  18.273   1.416
55912W        W17575   0.461  37.453   1.870
55913W        W17576  39.320   3.725  10.948
55914W        W17577   5.814  10.819  12.455
55915W        W17578  23.690  28.508   1.216
55916W        W17579  18.076  35.943   4.632
55917W        W17580  23.047   3.299  12.838
55918W        W17581  15.206  16.138   3.697
55919W        W17582  11.335  41.843  13.792
55920W        W17583  28.117  16.651   0.763
55921W        W17584  30.110  39.031  14.830
55922W        W17585  43.954   3.273   3.717
55923W        W17586  28.979  27.658   4.665
55924W        W17587  15.120  30.981   3.375
55925W        W17588   1.916  39.475  11.958
55926W        W17589  27.465  12.331   0.880
55927W        W17590  21.262  30.600   3.809
55928W        W17591   4.779   8.887  14.977
55929W        W17592  16.641  20.762   0.428
55930W        W17593   1.737  17.256   1.765
55931W        W17594  25.976  27.657  11.060
55932W        W17595  26.184  38.451   2.716
55933W        W17596  23.689   9.384   4.122
55934W        W17597  31.558  42.015  14.416
55935W        W17598   7.279  13.148   0.383
55936W        W17599  19.739  14.247  11.389
55937W        W17600  21.070  44.911  12.450
55938W        W17601  21.580  11.137  13.516
55939W        W17602  25.183  43.834  10.995
55940W        W17603  25.207  32.971   4.751
55941W        W17604  41.928  43.959  10.600
55942W        W17605  22.547  35.070  12.002
55943W        W17606  26.157   2.345   0.764
55944W        W17607   2.934   3.378  14.848
55945W        W17608   8.289  42.287   0.403
55946W        W17609  19.076   8.373  14.368
55947W        W17610  28.646  42.992  11.528
55948W        W17611  39.920  16.200   2.394
55949W        W17612  21.188  15.684  13.462
55950W        W17613  40.936  26.163   3.381
55951W        W17614  32.998  33.033   2.835
55952W        W17615  37.087  36.044  14.376
55953W        W17616  30.057   9.708  14.915
55954W        W17617  38.461  29.088   1.699
55955W        W17618  37.488  24.585  10.643
55956W        W17619  15.633   4.227  12.391
55957W        W17620   6.691  36.463   4.687
55958W        W17621  39.039  22.526   4.806
55959W        W17622   7.376  43.329   4.776
55960W        W17623   3.256  40.896   0.399
55961W        W17624  15.252  31.960  13.933
55962W        W17625  33.610   3.830   4.319
55963W        W17626   6.397  31.083  11.870
55964W        W17627  39.974  20.715  11.028
55965W        W17628   0.342  10.376   3.231
55966W        W17629  24.713  38.870   0.761
55967W        W17630  20.096  17.703   2.769
55968W        W17631  34.017  34.864  14.388
55969W        W17632  19.591  44.867   2.360
55970W        W17633  16.742  43.832  11.869
55971W        W17634  24.129  38.916  10.993
55972W        W17635  37.555  14.702  10.578
55973W        W17636  27.581  34.510  14.344
55974W        W17637  23.617   4.235   4.635
55975W        W17638  34.558  23.730  13.052
55976W        W17639   0.941   8.339  11.458
55977W        W17640  26.665  34.483   1.235
55978W        W17641  24.151  21.035   0.319
55979W        W17642  44.500  44.913   0.809
55980W        W17643  41.821  25.678  10.991
55981W        W17644  22.659  13.770   1.414
55982W        W17645   8.299  25.084  11.384
55983W        W17646  37.861  42.841  12.426
55984W        W17647  44.997  29.457  14.830
55985W        W17648  18.791  43.423   3.748
55986W        W17649  37.379   6.807  10.498
55987W        W17650  19.207  42.291   0.306
55988W        W17651  30.982  32.030   1.345
55989W        W17652  22.677  12.762   0.853
55990W        W17653  21.261   4.281   0.953
55991W        W17654  17.284  42.874   2.702
55992W        W17655   4.937  20.166  11.071
55993W        W17656  21.189  24.534  11.372
55994W        W17657  19.234   4.773   4.756
55995W        W17658  34.058  41.361   4.806
55996W        W17659  31.963  44.886  12.431
55997W        W17660  35.383  17.204   3.706
55998W        W17661  37.364   5.394  11.398
55999W        W17662  15.196   9.753  11.414
56000W        W17663  12.820  44.422   3.815
56001W        W17664  15.091  35.967  11.549
56002W        W17665  12.298  32.598   4.223
56003W        W17666  28.041  18.289  13.383
56004W        W17667  13.216  26.080   1.252
56005W        W17668  31.151   7.330  14.389
56006W        W17669  13.272  11.284  14.470
56007W        W17670  15.152  35.382   0.901
56008W        W17671   4.436  11.190   3.376
56009W        W17672  30.991   9.233   1.248
56010W        W17673   6.716   7.666  11.108
56011W        W17674  34.915  15.221   3.370
56012W        W17675  18.180   6.267   1.700
56013W        W17676  24.586  19.226   0.296
56014W        W17677  10.324  14.816   3.729
56015W        W17678  24.081  15.637  14.867
56016W        W17679  36.083  29.462   0.963
56017W        W17680  42.979  24.659  11.099
56018W        W17681  16.074  21.229   4.217
56019W        W17682  30.645  30.450  14.435
56020W        W17683  18.746  36.011  11.031
56021W        W17684   5.249  37.835  12.836
56022W        W17685  16.700  23.502   3.250
56023W        W17686  41.818  32.925  12.038
56024W        W17687  25.483  12.771   1.294
56025W        W17688   8.842  10.357   4.635
56026W        W17689  27.591  37.432   1.212
56027W        W17690  29.630  25.497  11.387
56028W        W17691  43.852  25.598   4.791
56029W        W17692  11.775  32.541   1.322
56030W        W17693  32.528  40.466  14.825
56031W        W17694  36.858  41.382  12.479
56032W        W17695  11.297  34.991   3.356
56033W        W17696  24.572  44.998  14.788
56034W        W17697   4.829  28.524   4.292
56035W        W17698  11.818  15.748   1.832
56036W        W17699  25.167  17.607  13.846
56037W        W17700  33.559   3.431  12.052
56038W        W17701  32.119  33.412   4.762
56039W        W17702  32.409  39.894   2.298
56040W        W17703  32.462  17.659   5.695
56041W        W17704  22.555  39.456  14.812
56042W        W17705  27.152  22.198   3.864
56043W        W17706   1.794  21.198   1.797
56044W        W17707  20.608  15.165   1.212
56045W        W17708  41.438  32.613   1.418
56046W        W17709  30.088   6.873   1.263
56047W        W17710  36.897  26.632  13.038
56048W        W17711  32.972  22.238   2.266
56049W        W17712  28.675  30.159  11.892
56050W        W17713  36.959  35.989   0.469
56051W        W17714   8.301  34.905  12.400
56052W        W17715   3.937  17.628  13.438
56053W        W17716  39.843  12.141   0.464
56054W        W17717  15.268  14.338  11.043
56055W        W17718   0.864  30.054  13.827
56056W        W17719   3.384  23.082   4.145
56057W        W17720  38.944   0.950  12.906
56058W        W17721  43.872  15.296   1.753
56059W        W17722  42.986  13.793  14.487
56060W        W17723  12.145  43.476   0.480
56061W        W17724  24.097  18.731   0.898
56062W        W17725  38.464  28.474   0.286
56063W        W17726  30.570   8.881   3.276
56064W        W17727  35.363   1.374   4.769
56065W        W17728  24.573  33.575   2.196
56066W        W17729  34.377  29.005   1.436
56067W        W17730  34.933   7.309   3.283
56068W        W17731   9.314  30.625  14.387
56069W        W17732  10.820  26.127   4.656
56070W        W17733  40.460  38.041  12.438
56071W        W17734   4.243  39.423  11.478
56072W        W17735   4.434   8.890   0.359
56073W        W17736  11.293  36.876  14.405
56074W        W17737  41.392   7.318  11.886
56075W        W17738   1.468  19.264  12.453
56076W        W17739  25.203  23.523  13.539
56077W        W17740  34.970  25.570  11.028
56078W        W17741  21.749  30.624   2.387
56079W        W17742  21.686  29.001   3.178
56080W        W17743  19.120   3.325   1.908
56081W        W17744  12.247  14.275   0.406
56082W        W17745  37.540  21.263  11.563
56083W        W17746  14.265  41.920  14.436
56084W        W17747   2.843  11.802  10.509
56085W        W17748  23.614  34.992  11.901
56086W        W17749  32.429  37.582   1.703
56087W        W17750  31.617  14.714   3.203
56088W        W17751  19.769   4.702   1.925
56089W        W17752  38.862  29.950  11.453
56090W        W17753  20.599   3.281  13.454
56091W        W17754  19.258   2.472   3.632
56092W        W17755  39.984   5.211   0.776
56093W        W17756   4.393  19.138  11.889
56094W        W17757  40.546  13.302  10.610
56095W        W17758  38.823  33.389  14.975
56096W        W17759  32.136   1.359   4.303
56097W        W17760  42.287  34.945   0.281
56098W        W17761  43.473   9.785   2.696
56099W        W17762  43.317  30.439  10.613
56100W        W17763  34.055   8.159   2.212
56101W        W17764  39.532  31.612  10.967
56102W        W17765  21.673  18.623  14.821
56103W        W17766  25.139  25.179  11.915
56104W        W17767  11.359  33.109   1.707
56105W        W17768  35.506  38.939   2.689
56106W        W17769  28.592  19.072  12.950
56107W        W17770   4.885  20.059  12.494
56108W        W17771  11.687  21.752  13.467
56109W        W17772  24.677  16.161  12.402
56110W        W17773  23.691   2.309  12.491
56111W        W17774  21.712  16.588  12.570
56112W        W17775  26.577  40.340   2.801
56113W        W17776  18.579  32.449   1.388
56114W        W17777  29.021  34.927  10.903
56115W        W17778  25.522  21.742  12.442
56116W        W17779   1.798   6.915  12.998
56117W        W17780  16.103  42.414  13.905
56118W        W17781   1.317   6.424  12.358
56119W        W17782  14.663  22.160   0.397
56120W        W17783  33.047   4.302  14.338
56121W        W17784  17.281  26.204   4.272
56122W        W17785   8.800  40.319  13.833
56123W        W17786  35.918  25.063  11.459
56124W        W17787  40.817  40.956   3.757
56125W        W17788  18.789  30.608  11.049
56126W        W17789  43.866  35.872  10.584
56127W        W17790  41.019  14.185  13.936
56128W        W17791  37.889   2.829  14.835
56129W        W17792  24.696   0.251  10.083
56130W        W17793  23.513  22.241   2.704
56131W        W17794  13.724   3.393   4.723
56132W        W17795  39.905  30.426  12.823
56133W        W17796  12.135   5.827   3.836
56134W        W17797  37.974  34.548  14.868
56135W        W17798   1.464  42.026   0.865
56136W        W17799   4.759  32.896   3.770
56137W        W17800  29.074  37.553  12.022
56138W        W17801  33.924  32.504   4.695
56139W        W17802  23.217  28.651  14.285
56140W        W17803  11.776   6.349  13.991
56141W        W17804   2.736  15.763   9.947
56142W        W17805  28.161  36.502  12.386
56143W        W17806  18.148  27.069  14.287
56144W        W17807  28.157  10.199  14.302
56145W        W17808  22.226  23.127  11.510
56146W        W17809  22.071  29.500  14.767
56147W        W17810  13.769  27.136   2.865
56148W        W17811  15.744   7.766   4.711
56149W        W17812  27.164  13.278   1.337
56150W        W17813  25.981  30.006   0.304
56151W        W17814  42.363  43.429   2.820
56152W        W17815  38.066   6.886  12.423
56153W        W17816  39.910  21.037   2.791
56154W        W17817  28.031  27.484   4.257
56155W        W17818  11.859  16.275  14.476
56156W        W17819  15.151  43.883  11.500
56157W        W17820  29.508   1.286   0.731
56158W        W17821  18.054  25.589   2.230
56159W        W17822  38.027   6.224  10.038
56160W        W17823  10.186  25.645   2.290
56161W        W17824   6.252   4.780  10.590
56162W        W17825  44.980  15.310  12.357
56163W        W17826   5.878  36.847  12.381
56164W        W17827  28.973  25.579  10.419
56165W        W17828  32.453   0.417   4.123
56166W        W17829  31.485  25.557   1.269
56167W        W17830  43.325  22.203   0.343
56168W        W17831   6.230  42.936  11.487
56169W        W17832   4.347  34.098   0.749
56170W        W17833  19.633  14.811   1.259
56171W        W17834  28.175  42.951   0.452
56172W        W17835  34.521  43.484   4.180
56173W        W17836  38.952  36.866   4.666
56174W        W17837  18.789  26.601   2.845
56175W        W17838  41.893  14.817  11.488
56176W        W17839   2.307  30.954   2.762
56177W        W17840  13.707   2.332   1.911
56178W        W17841  26.495  37.944   4.276
56179W        W17842   3.326  19.225  13.485
56180W        W17843  36.559  27.192  10.419
56181W        W17844  43.459  25.534   0.480
56182W        W17845  16.146  19.711   1.800
56183W        W17846  26.019  40.347  12.903
56184W        W17847  12.277  24.001  11.862
56185W        W17848   9.861  33.586  13.509
56186W        W17849  44.791  17.249   1.901
56187W        W17850  23.580  43.962  11.449
56188W        W17851  37.553   6.774  14.341
56189W        W17852  29.139  39.930  10.410
56190W        W17853  17.660   0.841   2.832
56191W        W17854  16.294  15.281   1.268
56192W        W17855  40.431  33.394  13.342
56193W        W17856   5.313  39.937  13.008
56194W        W17857  38.908   9.221  10.590
56195W        W17858  26.612   7.889  10.479
56196W        W17859  13.630  20.640  14.388
56197W        W17860  40.427  17.186   3.642
56198W        W17861  20.150  33.505  10.028
56199W        W17862  26.677  19.534  13.441
56200W        W17863  39.498  41.027   4.786
56201W        W17864   8.810  23.584  14.778
56202W        W17865  33.919  38.017  13.473
56203W        W17866  20.750   2.464  10.113
56204W        W17867  13.791  19.575   4.245
56205W        W17868  33.380  36.038  12.467
56206W        W17869  34.598   4.763  12.552
56207W        W17870  14.142  41.982  10.484
56208W        W17871  15.805  25.668  13.411
56209W        W17872  37.899  33.450  11.374
56210W        W17873  35.060  30.529  14.803
56211W        W17874   0.967   4.906   4.204
56212W        W17875  42.795  25.587  13.039
56213W        W17876  14.715  44.953  14.954
56214W        W17877  22.235  22.580  11.088
56215W        W17878  15.691  23.038  14.438
56216W        W17879  39.957   3.321   9.987
56217W        W17880  28.169  10.360  10.940
56218W        W17881   8.710   7.857  12.063
56219W        W17882  16.197  44.996   2.236
56220W        W17883  36.867  15.781   2.328
56221W        W17884  25.039  34.545   3.265
56222W        W17885  41.417   5.220   1.416
56223W        W17886   5.235  31.903  13.960
56224W        W17887  18.159  29.441   1.403
56225W        W17888  39.383  19.647   1.749
56226W        W17889   1.801  30.560   2.752
56227W        W17890  13.729  34.372  14.861
56228W        W17891  39.021  31.596   3.375
56229W        W17892  35.852  33.994  14.858
56230W        W17893  32.103  42.858  12.910
56231W        W17894  32.461  30.928  12.410
56232W        W17895   9.332  18.134   1.355
56233W        W17896   6.871  24.028  13.523
56234W        W17897  43.818  14.268   0.860
56235W        W17898  15.615  23.716   4.309
56236W        W17899   7.405  25.114   1.279
56237W        W17900  41.508  35.484  12.857
56238W        W17901   1.276  26.683   3.795
56239W        W17902  23.058  18.627  13.479
56240W        W17903  34.555  34.449  10.584
56241W        W17904  40.371   3.316  14.864
56242W        W17905  37.892  27.178  12.079
56243W        W17906   8.674   0.982   3.257
56244W        W17907   8.680  44.787  13.418
56245W        W17908  39.347   8.243  14.440
56246W        W17909  17.623   2.758  13.022
56247W        W17910  42.032  41.004   0.737
56248W        W17911  43.320  12.740   1.317
56249W        W17912  24.128  28.450   3.322
56250W        W17913  39.382  25.525   0.743
56251W        W17914  10.171  42.294   0.780
56252W        W17915   4.934  40.949  14.849
56253W        W17916  26.990  25.676   2.220
56254W        W17917  12.120  25.964  13.391
56255W        W17918   9.679  20.222  13.483
56256W        W17919  10.746  22.549  14.993
56257W        W17920   6.838  21.236   4.179
56258W        W17921  35.455   5.237   1.776
56259W        W17922  38.891  34.486   3.320
56260W        W17923  24.229  23.218   0.868
56261W        W17924   1.250  18.220  14.303
56262W        W17925   7.204   4.761  13.909
56263W        W17926   7.758   5.329  14.870
56264W        W17927  40.912  21.052   0.253
56265W        W17928   9.191  24.618  11.045
56266W        W17929  44.764  40.512   4.810
56267W        W17930  10.155  13.281  14.917
56268W        W17931   7.775  38.406   1.806
56269W        W17932  39.525  14.144  11.061
56270W        W17933  14.655   3.274   3.376
56271W        W17934   4.246  33.113  10.423
56272W        W17935  15.279  28.029   2.690
56273W        W17936  31.568  37.373   0.254
56274W        W17937  41.426   6.325  12.537
56275W        W17938  41.900  29.159   1.348
56276W        W17939   3.807  15.184  11.557
56277W        W17940  34.872  10.283   3.305
56278W        W17941  41.508  32.504   3.164
56279W        W17942   9.166   6.369   1.379
56280W        W17943  34.583  42.010   3.719
56281W        W17944   1.824  14.191  14.782
56282W        W17945  20.533  20.590   1.738
56283W        W17946   7.809  33.945  13.870
56284W        W17947  44.818  44.849  14.877
56285W        W17948   7.233  34.615  12.344
56286W        W17949  36.423  28.053   0.900
56287W        W17950   4.699  32.394  10.635
56288W        W17951   4.715  33.114  10.935
56289W        W17952  28.661  14.741  12.559
56290W        W17953  40.868  13.742  11.412
56291W        W17954  30.454  40.332   1.900
56292W        W17955  21.675  13.242  11.466
56293W        W17956  14.725   9.753  10.432
56294W        W17957   3.773  21.593  12.864
56295W        W17958   8.372  18.785   2.827
56296W        W17959   3.411  34.986  14.429
56297W        W17960   7.322  14.706  13.863
56298W        W17961  11.680  19.746  12.977
56299W        W17962  27.580  27.040  11.410
56300W        W17963  32.121  21.204  14.461
56301W        W17964  40.028  22.696  12.909
56302W        W17965  11.298   5.839  12.425
56303W        W17966  17.084   8.752   4.768
56304W        W17967  23.715  25.479   0.951
56305W        W17968  15.711  38.827  10.441
56306W        W17969   9.853  31.039   3.330
56307W        W17970  18.184  32.948  13.968
56308W        W17971  25.038  13.312  14.820
56309W        W17972  29.953  39.856  10.452
56310W        W17973  34.480  20.611  14.326
56311W        W17974   7.360  29.983   4.285
56312W        W17975  13.288  13.127   4.724
56313W        W17976  36.529  19.605   4.215
56314W        W17977  24.057  22.746  14.025
56315W        W17978  29.089  26.532   3.181
56316W        W17979   4.347  32.089  11.612
56317W        W17980  43.446  34.918   3.311
56318W        W17981  17.087   3.743  12.883
56319W        W17982  38.571  42.815   2.786
56320W        W17983  28.154  32.125  10.491
56321W        W17984  32.128  25.471  11.899
56322W        W17985   8.782  34.987   2.840
56323W        W17986  17.290  15.299   3.748
56324W        W17987  37.490  12.753  10.616
56325W        W17988  13.329  30.135  13.932
56326W        W17989   6.398  15.177  13.051
56327W        W17990  27.964  22.608  11.995
56328W        W17991  15.804  24.580   3.163
56329W        W17992  36.930  16.191   0.303
56330W        W17993  35.885  38.356  11.959
56331W        W17994   2.776  39.886  14.488
56332W        W17995  12.727  30.522   0.840
56333W        W17996  20.149   1.415  14.996
56334W        W17997  13.792  41.436  11.936
56335W        W17998  18.275  18.774  11.989
56336W        W17999   3.727   2.291   2.366
56337W        W18000  20.666  28.594   3.667
56338W        W18001  40.394  11.631  12.972
56339W        W18002  10.292   6.882   4.238
56340W        W18003  15.584  44.438   0.273
56341W        W18004   8.737  33.505   4.697
56342W        W18005  13.714  27.990  12.948
56343W        W18006  27.982   2.414   0.833
56344W        W18007  43.277  23.662  14.477
56345W        W18008  10.338  17.142   1.755
56346W        W18009  26.022  19.208  12.874
56347W        W18010  15.802   6.890   1.812
56348W        W18011  27.581  31.609   1.851
56349W        W18012  43.996   6.197   4.726
56350W        W18013   6.906  37.376  14.879
56351W        W18014  10.827  14.111   3.808
56352W        W18015  26.511   1.753  11.941
56353W        W18016  38.955  22.636   2.823
56354W        W18017  34.507  15.091  12.369
56355W        W18018   4.906  14.233   4.346
56356W        W18019  29.580  19.626  14.354
56357W        W18020  26.485  26.621  12.438
56358W        W18021  21.731  24.641   1.730
56359W        W18022  22.085   1.379   3.755
56360W        W18023  27.964   9.673  12.847
56361W        W18024  42.998  36.062   1.261
56362W        W18025  39.966  13.135  11.551
56363W        W18026  42.793  12.842  14.424
56364W        W18027  31.592   3.855  13.858
56365W        W18028  18.722  10.144   2.871
56366W        W18029  10.824   4.313  13.811
56367W        W18030  42.422  23.558   2.771
56368W        W18031  37.354   4.449   2.318
56369W        W18032  17.065  44.348  13.368
56370W        W18033  26.189  37.962  11.044
56371W        W18034  33.532  21.673   4.731
56372W        W18035  18.789   1.764   4.348
56373W        W18036  40.994  23.637   4.311
56374W        W18037   5.289  29.029  13.386
56375W        W18038  22.536  44.450  14.320
56376W        W18039   1.841  25.698   0.383
56377W        W18040  17.746  35.441   1.368
56378W        W18041  34.475  14.696  11.481
56379W        W18042  10.288  36.368  12.879
56380W        W18043  36.053  12.775   1.398
56381W        W18044  25.618  19.597   0.420
56382W        W18045  43.487   8.374   1.789
56383W        W18046   4.842  24.671  14.419
56384W        W18047  25.713   0.447   9.996
56385W        W18048  11.632  16.717   4.819
56386W        W18049  42.288  22.236  11.067
56387W        W18050   4.714  39.323  12.453
56388W        W18051   4.424  27.194   4.705
56389W        W18052  28.585  19.755  11.897
56390W        W18053  28.163  19.576  10.042
56391W        W18054  27.488  26.690   3.284
56392W        W18055  34.541  43.805  10.460
56393W        W18056  22.069  28.149  14.320
56394W        W18057  27.650  37.409   0.444
56395W        W18058  40.347  29.936   3.202
56396W        W18059  27.179   9.683   3.870
56397W        W18060  26.093  24.693   5.767
56398W        W18061  21.757   0.346   0.909
56399W        W18062  34.051  28.582  14.384
56400W        W18063  30.112  28.136  14.277
56401W        W18064   5.855  32.131   4.306
56402W        W18065  36.421   6.831  13.016
56403W        W18066  29.154  17.694  11.496
56404W        W18067   2.364  18.578   2.401
56405W        W18068  14.139   0.829  11.899
56406W        W18069  42.884   0.775   4.696
56407W        W18070  14.643  32.616  14.457
56408W        W18071  13.843  44.374  14.487
56409W        W18072  19.540   7.239  12.915
56410W        W18073  29.040  37.339   0.413
56411W        W18074  32.438  19.228   4.714
56412W        W18075   6.729  40.890   3.693
56413W        W18076  10.279  31.407  12.420
56414W        W18077  44.498  19.682  10.598
56415W        W18078  14.678  25.979  14.896
56416W        W18079  17.289  31.120  13.417
56417W        W18080  33.604  29.463  11.999
56418W        W18081  11.233  10.339  11.042
56419W        W18082  27.003   2.894   2.694
56420W        W18083  32.396  32.916  13.521
56421W        W18084   8.734   8.184   2.199
56422W        W18085  11.808  40.798  14.887
56423W        W18086  15.222   9.325   3.307
56424W        W18087  34.923  13.762   1.299
56425W        W18088  32.513  39.815   1.881
56426W        W18089  10.297  32.004  10.554
56427W        W18090  11.772  26.000  12.506
56428W        W18091  23.148  23.574   1.290
56429W        W18092   2.454  30.476  11.030
56430W        W18093   1.451  24.537   0.369
56431W        W18094  34.036   8.686  14.446
56432W        W18095  30.102  29.016   3.643
56433W        W18096   7.731  32.579   0.889
56434W        W18097  13.758  11.677   0.775
56435W        W18098  41.380   8.873  11.118
56436W        W18099  36.071  17.590   1.237
56437W        W18100   5.750  35.907  14.317
56438W        W18101  15.747  38.421  12.872
56439W        W18102   0.775   8.176  11.948
56440W        W18103  14.162  20.643   3.219
56441W        W18104  44.876  40.978  14.853
56442W        W18105  32.108  31.503   4.256
56443W        W18106  43.281  37.976  10.916
56444W        W18107  28.486  29.012  11.858
56445W        W18108  10.345  25.038  14.996
56446W        W18109  31.645   4.307   2.737
56447W        W18110   9.314  24.192  11.513
56448W        W18111  34.954  25.016   2.340
56449W        W18112  22.033  37.078  14.964
56450W        W18113  20.098  21.174  13.012
56451W        W18114  16.127  14.100  14.312
56452W        W18115  27.050  31.940   4.246
56453W        W18116   6.377   3.268   5.300
56454W        W18117  38.505  21.740   1.736
56455W        W18118  37.421  43.409  10.447
56456W        W18119   6.243  22.533   3.764
56457W        W18120  21.101   3.937  12.833
56458W        W18121  41.457  19.620  12.362
56459W        W18122  16.736  21.527  10.908
56460W        W18123  20.149  15.166  11.443
56461W        W18124  27.064  39.045   0.291
56462W        W18125   4.327  31.470  14.411
56463W        W18126  20.524   9.857   4.200
56464W        W18127  33.923   1.300   3.654
56465W        W18128   7.700   4.381  11.974
56466W        W18129   1.796  29.925  11.580
56467W        W18130  24.981   9.819  10.628
56468W        W18131  39.406  16.628  11.949
56469W        W18132  39.915  30.151  13.908
56470W        W18133  28.671   7.186   0.334
56471W        W18134  28.172  22.721   1.235
56472W        W18135   3.711  44.946  14.909
56473W        W18136  23.196  18.587   2.257
56474W        W18137   4.325   4.942  11.061
56475W        W18138  14.683  21.529  11.512
56476W        W18139  26.502  11.233  12.391
56477W        W18140  36.553  29.447  14.403
56478W        W18141  43.852  36.468  13.898
56479W        W18142  29.002  26.012   3.639
56480W        W18143  35.934  29.550   1.921
56481W        W18144  38.510  27.153  13.482
56482W        W18145  14.803  25.483   4.686
56483W        W18146   1.293  13.212   1.784
56484W        W18147  10.847  12.276  11.922
56485W        W18148   2.961   3.238   2.899
56486W        W18149   1.371  38.382  14.290
56487W        W18150  32.537  23.232   5.193
56488W        W18151   3.226  19.649  14.878
56489W        W18152   2.909  41.951  11.953
56490W        W18153  28.565  41.856   0.795
56491W        W18154   2.314  34.863  14.379
56492W        W18155  19.764  11.714   4.168
56493W        W18156   6.801  20.636  10.573
56494W        W18157  28.941  32.446   4.646
56495W        W18158  40.331  26.036   3.334
56496W        W18159  27.567  40.808  13.828
56497W        W18160   2.838   3.273  11.116
56498W        W18161  31.952   6.910   1.828
56499W        W18162   0.421  25.625  10.934
56500W        W18163  14.592  43.272   0.248
56501W        W18164  40.831  25.087   4.118
56502W        W18165   9.260  34.422  12.504
56503W        W18166  11.152   9.343  11.858
56504W        W18167  25.211   7.709  13.360
56505W        W18168  16.225  40.346   0.956
56506W        W18169  24.583   4.436   0.886
56507W        W18170   0.290  23.996  11.524
56508W        W18171  23.599  18.209   4.165
56509W        W18172  17.703  21.175  12.500
56510W        W18173  24.080  36.511  11.605
56511W        W18174  26.674  40.472   0.406
56512W        W18175  42.359  31.475   0.956
56513W        W18176   9.355  32.477  11.862
56514W        W18177  35.415  14.274   3.383
56515W        W18178  17.129  38.507   2.289
56516W        W18179  18.232  27.044   0.243
56517W        W18180  27.167  18.592   1.307
56518W        W18181  43.390  25.000  12.495
56519W        W18182  29.010   1.965   2.342
56520W        W18183   4.205  25.509   0.859
56521W        W18184   7.261  37.977   4.813
56522W        W18185  33.561  31.531  12.846
56523W        W18186  37.970  35.874   2.875
56524W        W18187  29.085  39.479   0.470
56525W        W18188  29.477  41.388   4.221
56526W        W18189  11.691   7.407  11.562
56527W        W18190  27.089  17.801  11.391
56528W        W18191  29.961  14.250  12.421
56529W        W18192  15.808  24.033  11.508
56530W        W18193   3.455   8.854  11.947
56531W        W18194  44.903  10.173  12.037
56532W        W18195  26.025  35.921   2.679
56533W        W18196  23.658  16.790   0.402
56534W        W18197   9.192   3.359  10.926
56535W        W18198   9.299  39.831  12.478
56536W        W18199  32.007  31.912  14.914
56537W        W18200   0.848   3.782   2.839
56538W        W18201  42.945  26.644  11.471
56539W        W18202   7.406  35.560   4.720
56540W        W18203   4.917  33.893  12.346
56541W        W18204  38.049  30.496   0.776
56542W        W18205  30.563  25.518   2.830
56543W        W18206  38.013  39.910   4.777
56544W        W18207  26.686  36.362  11.857
56545W        W18208  22.522   5.310  14.946
56546W        W18209   0.774  40.322   5.232
56547W        W18210  11.627  21.579   4.647
56548W        W18211  20.051  12.130   3.679
56549W        W18212  26.494  17.795  14.404
56550W        W18213  42.966  27.957   3.804
56551W        W18214  28.147  18.278  10.635
56552W        W18215  42.348  14.730  14.389
56553W        W18216  43.334  26.023   4.657
56554W        W18217  35.449  38.864  14.389
56555W        W18218  44.493  14.317   5.252
56556W        W18219  10.278  39.937  11.434
56557W        W18220  27.106  23.116   0.753
56558W        W18221  39.366  28.593   1.735
56559W        W18222  41.479  15.110  14.999
56560W        W18223  42.476  44.901  11.910
56561W        W18224  22.565   3.361  14.950
56562W        W18225  32.934  44.902   1.833
56563W        W18226  18.726   7.339   0.376
56564W        W18227  18.733  38.542   4.206
56565W        W18228  31.591  41.528  10.976
56566W        W18229  41.800  17.593   0.446
56567W        W18230  21.683  33.548   4.234
56568W        W18231  17.284   2.264   2.205
56569W        W18232  32.055  31.483  11.037
56570W        W18233   7.897  40.990   2.380
56571W        W18234  19.247   4.242  11.085
56572W        W18235  35.019  40.404   1.828
56573W        W18236   0.951   7.741   9.988
56574W        W18237  31.571  35.373  12.905
56575W        W18238  13.826  41.471  14.342
56576W        W18239  21.572  38.952  13.345
56577W        W18240  19.652  21.543   0.403
56578W        W18241  31.519  32.087  11.083
56579W        W18242  39.397  40.823   0.888
56580W        W18243  20.126   9.268  10.523
56581W        W18244  44.431  14.758  14.946
56582W        W18245  19.250  41.960   1.776
56583W        W18246   7.251  36.963  13.957
56584W        W18247  15.180  28.494   3.215
56585W        W18248   0.483  18.138  14.861
56586W        W18249  35.045  41.820   4.179
56587W        W18250  31.971   4.761  11.551
56588W        W18251  10.370  29.626  10.415
56589W        W18252   8.769  22.024   1.219
56590W        W18253  20.211  22.521  14.387
56591W        W18254  12.785  18.713   0.409
56592W        W18255  15.238  29.669   2.325
56593W        W18256  27.950  34.091   3.315
56594W        W18257  36.961  38.333   1.823
56595W        W18258   1.818  41.494  11.386
56596W        W18259  31.992  44.834  14.351
56597W        W18260  25.176  28.949   9.934
56598W        W18261  32.588  38.985   2.312
56599W        W18262   2.316  16.674   2.833
56600W        W18263  10.734  24.710   3.319
56601W        W18264   5.427   8.300   2.698
56602W        W18265  12.315  24.978   3.168
56603W        W18266  36.975  34.024  14.016
56604W        W18267   3.907   8.250  13.513
56605W        W18268   6.224  35.498  13.870
56606W        W18269  16.127  31.590   2.864
56607W        W18270  34.552  18.172  14.503
56608W        W18271  40.516  14.667   3.369
56609W        W18272  15.655  35.471   4.681
56610W        W18273  28.619  16.199   0.396
56611W        W18274  43.388  25.635  12.918
56612W        W18275  16.774   2.918   1.830
56613W        W18276  35.505  14.127   2.333
56614W        W18277  30.544  43.882   3.718
56615W        W18278  22.510  29.972  14.443
56616W        W18279  34.013  26.148  10.926
56617W        W18280  43.780  41.920  11.935
56618W        W18281  38.393  10.779  11.391
56619W        W18282   0.886   0.448   0.267
56620W        W18283  22.663  37.446  11.445
56621W        W18284  20.593  11.831  14.367
56622W        W18285  28.536   3.876  12.865
56623W        W18286  42.291   8.772   0.952
56624W        W18287  35.989  34.971  13.907
56625W        W18288  41.999   9.820   0.460
56626W        W18289  27.155   9.182   4.778
56627W        W18290  26.974  18.682   4.153
56628W        W18291  34.555  10.146   0.836
56629W        W18292  15.817  32.582  12.376
56630W        W18293  42.351  43.831   3.827
56631W        W18294   9.798  19.047  14.800
56632W        W18295  15.750  23.575   3.847
56633W        W18296   4.812  35.880   2.196
56634W        W18297  44.421  44.352  11.605
56635W        W18298   1.942  30.144  10.576
56636W        W18299  43.804   3.297   2.374
56637W        W18300  19.140   6.878   0.472
56638W        W18301  11.745  39.495  14.900
56639W        W18302  32.475  42.487  13.826
56640W        W18303  38.993  13.724   0.734
56641W        W18304  35.521   1.780   2.842
56642W        W18305   6.375  30.640  13.509
56643W        W18306   5.210  11.820   3.750
56644W        W18307  24.701  10.249  12.902
56645W        W18308   4.239  34.947  12.455
56646W        W18309  42.962  33.078   4.166
56647W        W18310   2.776  27.094   2.191
56648W        W18311  41.930   9.767  11.993
56649W        W18312  24.177  15.315   2.664
56650W        W18313  10.178  33.083  11.018
56651W        W18314  36.531  17.771   4.729
56652W        W18315   0.351   8.725   1.870
56653W        W18316  28.557  13.136   2.814
56654W        W18317  25.212  22.235  12.968
56655W        W18318   3.941  29.038  12.470
56656W        W18319  20.544   4.368  11.377
56657W        W18320  40.488  19.551   3.218
56658W        W18321  26.975  24.611   0.806
56659W        W18322   2.803  21.605  10.613
56660W        W18323  24.221   6.391  11.051
56661W        W18324  17.721  33.559   1.774
56662W        W18325   9.721  25.076   3.638
56663W        W18326  38.553  16.675   0.764
56664W        W18327  11.703  40.520   1.790
56665W        W18328  36.897  36.898  11.510
56666W        W18329  22.177  22.196  13.980
56667W        W18330   3.933  29.017  13.972
56668W        W18331  35.042   8.861   4.835
56669W        W18332  40.928  26.127   4.684
56670W        W18333  30.035  29.610  11.885
56671W        W18334  23.694  44.789   1.720
56672W        W18335  25.528  21.246   0.880
56673W        W18336   4.439  19.274  12.511
56674W        W18337  30.470  19.704   2.762
56675W        W18338  22.577  35.898  10.957
56676W        W18339  23.667  42.829   4.303
56677W        W18340  14.204   4.370   3.188
56678W        W18341  33.396   4.211   1.310
56679W        W18342  42.344   1.917  14.279
56680W        W18343  31.570  26.115   0.844
56681W        W18344  13.270   5.774   0.447
56682W        W18345   9.665   3.922   2.733
56683W        W18346  26.564  14.175  12.918
56684W        W18347   8.657  43.988   1.333
56685W        W18348   5.825   9.199  13.970
56686W        W18349  40.047  28.032  11.486
56687W        W18350  22.052  28.586  13.872
56688W        W18351  16.763  38.518  13.446
56689W        W18352  34.022  22.544  11.463
56690W        W18353  16.727  32.933  13.457
56691W        W18354  41.521   2.880   4.341
56692W        W18355  22.729   4.878   0.332
56693W        W18356  10.245  15.613   0.470
56694W        W18357  44.842   3.394   2.391
56695W        W18358  13.776   3.260  11.939
56696W        W18359  36.424  31.622   4.674
56697W        W18360  20.196   9.816  12.885
56698W        W18361  17.186  43.815   1.341
56699W        W18362  31.506  13.768  13.977
56700W        W18363  18.063  35.942  12.858
56701W        W18364  37.054   5.371   1.809
56702W        W18365  19.159  23.123   0.741
56703W        W18366  15.200   2.786   2.741
56704W        W18367  25.053   0.251   0.776
56705W        W18368  40.533   2.323   3.748
56706W        W18369   3.323  10.255  10.450
56707W        W18370  13.618  15.635   1.873
56708W        W18371   5.263  18.756  12.498
56709W        W18372  23.648  18.257  13.427
56710W        W18373  31.928  43.931  10.110
56711W        W18374  38.033  14.122   4.775
56712W        W18375  31.404  41.318  12.400
56713W        W18376  34.000  44.782   4.301
56714W        W18377  22.221  19.741   1.420
56715W        W18378   8.875  42.506  14.505
56716W        W18379  29.579  11.308   0.789
56717W        W18380  31.984   5.770  14.289
56718W        W18381  40.321   0.480  11.962
56719W        W18382  42.330  20.649   1.328
56720W        W18383  37.398  17.763   1.280
56721W        W18384  16.796  12.720   2.226
56722W        W18385  14.789  36.072  10.526
56723W        W18386  19.594  24.554   4.764
56724W        W18387  17.734  19.116   0.745
56725W        W18388   4.295  29.567  11.603
56726W        W18389   1.452  28.012  12.398
56727W        W18390  12.830   9.701  11.519
56728W        W18391  24.531   6.270   4.614
56729W        W18392  19.633  39.439  13.813
56730W        W18393  33.990  19.176  13.365
56731W        W18394   1.796  39.515   4.651
56732W        W18395  42.497  27.455   4.756
56733W        W18396   6.352  17.253   5.291
56734W        W18397  33.491  40.317   0.437
56735W        W18398  20.522   3.303   1.306
56736W        W18399   6.217  10.824  13.925
56737W        W18400  43.893  33.003  13.407
56738W        W18401  41.870  37.354  14.797
56739W        W18402   3.832   6.774   2.292
56740W        W18403   6.778  44.891   1.403
56741W        W18404   8.298  38.952  11.411
56742W        W18405  12.654  23.034  14.831
56743W        W18406   5.309   0.903   2.717
56744W        W18407  10.862  22.175  13.916
56745W        W18408  29.444  15.162  12.509
56746W        W18409  27.148  34.374   4.172
56747W        W18410  14.182   5.394   0.835
56748W        W18411  15.148   9.226  13.905
56749W        W18412  26.963   5.249   4.781
56750W        W18413  38.501  38.891   9.998
56751W        W18414  32.974   6.367  14.373
56752W        W18415   8.790  37.862   4.148
56753W        W18416  12.266  19.534   0.829
56754W        W18417  22.014  24.101  10.599
56755W        W18418   5.267  40.966   0.461
56756W        W18419  35.865  23.076  10.970
56757W        W18420  27.633  14.696  12.030
56758W        W18421  33.043  23.564  10.905
56759W        W18422  27.182  15.735   0.882
56760W        W18423  19.133  42.838  10.563
56761W        W18424  43.366  16.207   2.327
56762W        W18425  31.962   6.344  12.897
56763W        W18426  13.671   0.382  10.505
56764W        W18427  13.834   2.831   4.824
56765W        W18428  22.623   7.862  12.020
56766W        W18429  16.795  13.749  13.054
56767W        W18430   0.259   8.346  11.982
56768W        W18431  32.986  24.554   4.599
56769W        W18432  29.927  15.820  11.080
56770W        W18433  35.102  21.241   0.873
56771W        W18434  41.013  26.650  11.529
56772W        W18435  19.758   5.418  14.781
56773W        W18436   0.856  16.633  10.989
56774W        W18437  24.005  30.529   1.423
56775W        W18438   6.820  27.075   2.241
56776W        W18439  38.483  24.636   2.320
56777W        W18440  24.174  35.598   0.734
56778W        W18441  21.144  13.283  11.413
56779W        W18442  41.929  12.343  13.500
56780W        W18443  29.083  23.627   1.402
56781W        W18444   2.407  13.834   3.332
56782W        W18445  21.717  24.674  10.419
56783W        W18446  43.840  24.186   0.416
56784W        W18447   9.313  11.808  10.415
56785W        W18448   6.767   2.863   2.670
56786W        W18449   3.215  19.231  13.019
56787W        W18450  27.037  18.129  12.451
56788W        W18451  17.148   3.736  13.428
56789W        W18452   9.310  42.470   2.675
56790W        W18453  37.571  17.098   4.228
56791W        W18454   2.329  40.869   0.445
56792W        W18455  13.661  17.177  13.943
56793W        W18456  25.488  40.364  13.892
56794W        W18457  21.039   1.458   2.282
56795W        W18458  43.904   6.336   0.727
56796W        W18459  39.993  16.783  12.877
56797W        W18460  28.624  21.581  10.640
56798W        W18461  40.878   8.202   3.223
56799W        W18462  38.448  15.150  11.868
56800W        W18463  18.235  25.077   0.906
56801W        W18464  13.601  18.071   0.754
56802W        W18465  40.832   1.291   3.729
56803W        W18466  27.146  30.107  13.853
56804W        W18467  39.037  30.129  14.329
56805W        W18468  25.037  19.759   2.666
56806W        W18469  23.056  33.964   0.924
56807W        W18470  20.225  31.404  11.111
56808W        W18471   8.354   6.254   3.832
56809W        W18472  33.035  22.013   0.890
56810W        W18473  26.029  21.640   1.298
56811W        W18474   3.924   6.905   2.860
56812W        W18475   3.948  14.333   0.455
56813W        W18476  22.541  34.539  11.898
56814W        W18477   9.756  34.565   4.622
56815W        W18478  42.828  22.672   1.821
56816W        W18479   0.459  43.895  13.019
56817W        W18480   9.730  23.167   0.478
56818W        W18481   2.901  29.954  14.908
56819W        W18482  19.159   4.405   2.415
56820W        W18483  15.748  32.052  11.519
56821W        W18484  21.543   8.781   1.838
56822W        W18485  34.508  44.857  12.029
56823W        W18486   2.877  38.541  12.941
56824W        W18487  13.185  34.398   4.600
56825W        W18488  28.617   6.804   3.297
56826W        W18489  37.471  11.852  14.872
56827W        W18490  42.851   8.726  11.424
56828W        W18491  35.526  11.278   4.758
56829W        W18492  37.389  30.077  10.944
56830W        W18493  19.262  11.750  13.920
56831W        W18494  12.251  33.902   1.355
56832W        W18495   7.209  44.799  11.041
56833W        W18496  19.116  10.683  14.822
56834W        W18497   5.210  28.180   1.897
56835W        W18498  14.154  28.178   5.303
56836W        W18499  33.000  23.571   0.309
56837W        W18500  10.328  19.232  11.900
56838W        W18501  37.572  12.248   1.301
56839W        W18502  44.942  39.017  12.560
56840W        W18503  43.780  26.572   2.819
56841W        W18504  44.364  41.978   1.326
56842W        W18505   3.887  43.988  13.512
56843W        W18506   9.870   5.711  13.835
56844W        W18507  13.162  35.940   2.763
56845W        W18508   6.796  29.441  11.575
56846W        W18509  24.053  37.987   2.775
56847W        W18510  10.744   4.271  11.448
56848W        W18511  27.083   7.323   1.438
56849W        W18512  15.169   8.763   4.612
56850W        W18513   9.751  15.578  13.442
56851W        W18514  35.488  21.253   1.732
56852W        W18515  44.318   7.413  11.995
56853W        W18516  31.643  35.891  13.519
56854W        W18517  29.493   5.234   4.297
56855W        W18518   7.684  18.108   3.687
56856W        W18519   4.449  11.702  12.345
56857W        W18520  43.848  31.409   4.217
56858W        W18521  32.092  41.529  14.338
56859W        W18522  37.899  37.408  14.811
56860W        W18523   6.336  20.749   0.433
56861W        W18524  14.170  19.264   1.367
56862W        W18525  10.739  17.753  12.481
56863W        W18526   8.236  19.777   0.749
56864W        W18527   4.356  38.066  12.441
56865W        W18528   7.398   6.776  11.015
56866W        W18529  18.108   6.752   3.838
56867W        W18530   0.822  23.520   0.839
56868W        W18531  36.957   7.413   1.823
56869W        W18532  35.990  43.421  11.568
56870W        W18533  17.244   5.298  10.888
56871W        W18534  43.953  10.352   4.646
56872W        W18535  21.567  15.586   0.889
56873W        W18536  43.897  20.567  10.565
56874W        W18537  40.912  10.382  10.919
56875W        W18538   7.177  28.998  13.329
56876W        W18539   9.385   9.656   4.728
56877W        W18540   0.400  13.251   4.639
56878W        W18541   1.368  23.986   1.830
56879W        W18542  28.566  17.623   1.883
56880W        W18543   5.246  34.447  13.950
56881W        W18544  12.654  37.433   0.772
56882W        W18545  42.839  26.150   4.792
56883W        W18546  29.581  18.139   0.896
56884W        W18547  38.021   8.823   3.282
56885W        W18548  21.571  29.618  13.798
56886W        W18549  21.643   2.310  12.003
56887W        W18550  23.199  33.445   2.690
56888W        W18551   3.261  44.279   5.270
56889W        W18552  32.587   2.905  13.476
56890W        W18553  32.558  39.338   1.347
56891W        W18554  16.649  30.021  12.064
56892W        W18555  38.018  30.145   4.186
56893W        W18556  24.574  19.271   2.263
56894W        W18557  14.132  36.593  13.841
56895W        W18558  16.604  14.315   3.688
56896W        W18559  30.997  32.025  13.310
56897W        W18560  13.233  39.560  14.828
56898W        W18561  30.013  29.091  13.880
56899W        W18562  41.851  37.073   2.410
56900W        W18563   4.284   4.739  12.035
56901W        W18564   0.323  37.957   2.722
56902W        W18565  35.481  13.833  14.843
56903W        W18566   9.204   1.334  14.379
56904W        W18567  10.207   5.333  14.489
56905W        W18568  22.548  39.898   4.830
56906W        W18569  18.284  39.822  14.311
56907W        W18570  31.909  30.470  14.984
56908W        W18571  43.290  40.372   4.346
56909W        W18572   0.847  36.055  14.276
56910W        W18573  18.619  44.862   1.935
56911W        W18574  18.566  27.536   1.230
56912W        W18575  22.187  37.009   0.309
56913W        W18576  35.936  20.054   5.800
56914W        W18577  11.219  43.835   2.297
56915W        W18578  23.202  40.356  10.480
56916W        W18579  41.326  25.077   2.353
56917W        W18580  29.000  20.136   2.376
56918W        W18581  32.398   4.422   4.176
56919W        W18582   5.810  43.003  10.442
56920W        W18583  42.504  29.539   4.150
56921W        W18584  19.281  24.116   1.321
56922W        W18585  25.198  26.652  12.847
56923W        W18586  41.879  38.425   4.213
56924W        W18587  39.462  43.952  11.904
56925W        W18588  44.365  39.965  12.909
56926W        W18589  30.092  32.005  11.551
56927W        W18590  36.087  16.574  13.518
56928W        W18591  41.489  11.644  10.936
56929W        W18592  27.479  28.540  11.445
56930W        W18593   2.266  10.159   0.794
56931W        W18594  32.567  33.476   9.980
56932W        W18595  33.560  32.396  11.951
56933W        W18596  36.938  37.445  13.390
56934W        W18597  19.223   6.338  12.079
56935W        W18598  42.974  15.791  11.986
56936W        W18599  30.040   0.432   1.807
56937W        W18600  15.237  40.055   0.362
56938W        W18601  44.838  29.568  13.393
56939W        W18602  36.956  44.503   3.325
56940W        W18603  34.934  26.608  11.958
56941W        W18604  27.003   7.683  10.427
56942W        W18605  18.152  38.901   0.253
56943W        W18606   9.309   7.334  13.875
56944W        W18607   4.933  22.612  11.425
56945W        W18608  27.667   8.689   4.168
56946W        W18609   7.409  24.713   0.257
56947W        W18610  25.702   6.299  14.480
56948W        W18611   8.315  18.578   2.349
56949W        W18612  27.052  44.873  10.553
56950W        W18613  11.743  33.076   0.730
56951W        W18614  33.482   1.318  11.929
56952W        W18615  32.996  41.007   0.448
56953W        W18616  40.458   1.939   0.398
56954W        W18617  44.996  28.118  11.382
56955W        W18618  30.959  19.654   0.842
56956W        W18619   0.923  34.905  14.782
56957W        W18620   2.756  36.881  14.891
56958W        W18621  16.287  42.445   1.361
56959W        W18622  44.904  35.567   0.915
56960W        W18623   7.871  23.707   4.229
56961W        W18624  37.384  22.740  12.033
56962W        W18625  11.849  39.840  10.414
56963W        W18626  38.425   3.285   3.861
56964W        W18627   0.331  44.858   1.710
56965W        W18628  28.546  32.044  13.975
56966W        W18629  17.742   5.224  11.895
56967W        W18630   7.407  37.903   0.448
56968W        W18631  11.357  11.793  12.546
56969W        W18632  12.689   9.285  12.041
56970W        W18633  42.882   4.256  14.896
56971W        W18634  34.070  23.163   4.353
56972W        W18635  26.680   1.356   2.745
56973W        W18636  21.180  21.193   3.376
56974W        W18637  31.916   9.764  10.422
56975W        W18638  25.607  11.678   0.930
56976W        W18639  34.450  11.333  10.948
56977W        W18640  25.472   5.279  11.555
56978W        W18641  32.059  18.610   3.730
56979W        W18642   2.409  24.558  13.946
56980W        W18643  10.768  21.702  13.504
56981W        W18644  37.866  38.958   3.182
56982W        W18645  12.265  40.543   4.174
56983W        W18646   2.821  15.724   3.157
56984W        W18647   8.686  30.911  12.827
56985W        W18648  44.311   6.822  12.014
56986W        W18649  18.230  34.921  14.364
56987W        W18650   8.762  34.095  13.308
56988W        W18651  42.965  21.148  14.885
56989W        W18652  19.611  27.972   2.264
56990W        W18653  17.710  42.523  13.362
56991W        W18654   0.861   8.211  12.996
56992W        W18655  37.574  31.994  10.622
56993W        W18656  19.760   1.815  14.513
56994W        W18657  11.353  21.143   1.765
56995W        W18658  16.606   6.406   0.279
56996W        W18659  31.056   3.713  12.540
56997W        W18660  28.605  20.140  10.976
56998W        W18661  10.267  42.357  11.958
56999W        W18662  34.068  38.906  10.543
57000W        W18663  25.118  38.978   1.229
57001W        W18664  37.465  14.689  14.375
57002W        W18665  21.709  41.310  14.846
57003W        W18666   9.354  44.260   2.846
57004W        W18667  42.429  28.029   0.759
57005W        W18668  14.621   2.279  11.386
57006W        W18669  24.666  26.619  12.573
57007W        W18670  44.365  17.098   1.308
57008W        W18671  38.010  35.517  11.941
57009W        W18672  23.657  28.648  12.525
57010W        W18673  16.622  10.643   1.447
57011W        W18674  19.691  15.245  14.967
57012W        W18675  14.175  19.724  10.539
57013W        W18676  42.812  19.622   0.782
57014W        W18677  21.131  26.542   1.829
57015W        W18678  10.142  38.005  13.515
57016W        W18679  12.200   9.684   1.697
57017W        W18680  30.562  42.445   1.373
57018W        W18681  13.108  25.085  12.025
57019W        W18682  12.309  11.625  10.057
57020W        W18683   9.784  16.306   2.337
57021W        W18684  37.005  10.200   3.679
57022W        W18685   4.907   5.374   2.753
57023W        W18686   8.296  17.227   1.906
57024W        W18687   4.405  18.288  13.501
57025W        W18688  31.453   4.413   0.885
57026W        W18689  12.754  32.507   1.770
57027W        W18690   7.347  26.065  14.303
57028W        W18691   1.752  10.710  10.419
57029W        W18692  26.114  29.537   3.152
57030W        W18693  31.115  30.130  13.914
57031W        W18694   0.315  10.870   1.381
57032W        W18695  20.732   2.306   3.367
57033W        W18696   9.818  41.958   4.284
57034W        W18697   1.320  35.407   0.265
57035W        W18698  39.319  10.206   3.831
57036W        W18699  21.513  21.171   0.834
57037W        W18700  36.894  44.261  11.384
57038W        W18701   9.195  15.149   4.265
57039W        W18702   2.790  42.492  13.826
57040W        W18703   8.683  41.815  10.592
57041W        W18704  10.258  10.777  10.620
57042W        W18705  40.374  32.594  13.962
57043W        W18706   7.753  36.439  12.853
57044W        W18707  35.436  10.219  11.399
57045W        W18708  18.693  23.999   4.717
57046W        W18709  39.938  17.107   4.619
57047W        W18710  11.318   3.345  13.462
57048W        W18711  21.746  22.177   0.851
57049W        W18712  21.618   1.354   0.734
57050W        W18713  39.530  20.768  11.953
57051W        W18714   1.755  30.624  10.586
57052W        W18715  30.030  11.202  11.908
57053W        W18716   4.356   2.270   0.900
57054W        W18717  34.585  18.133  11.392
57055W        W18718  25.653   6.301  13.533
57056W        W18719  24.081  43.984  12.980
57057W        W18720  19.756  42.339  14.353
57058W        W18721  38.915  13.810   3.720
57059W        W18722  33.925  14.286  12.395
57060W        W18723   9.154  20.084   3.651
57061W        W18724  23.677  12.666   1.728
57062W        W18725  21.081  28.586   2.312
57063W        W18726  22.626  37.532  14.883
57064W        W18727  35.933   2.907   0.863
57065W        W18728  33.993   1.329  13.407
57066W        W18729  32.994  31.909   0.446
57067W        W18730  41.335  38.941  13.412
57068W        W18731   0.957  21.171  10.969
57069W        W18732  15.285  41.503   1.905
57070W        W18733  14.157  28.012   0.911
57071W        W18734  14.311  44.407   3.226
57072W        W18735  28.948  11.208  14.916
57073W        W18736  31.609  31.469  11.956
57074W        W18737  42.336   6.295  10.045
57075W        W18738  20.146  21.747   2.677
57076W        W18739  11.671  36.439   3.273
57077W        W18740  22.103  37.873  11.958
57078W        W18741  18.071  19.218   0.294
57079W        W18742  12.205  31.040  12.013
57080W        W18743   0.289  29.961   1.803
57081W        W18744  31.635  39.978   2.738
57082W        W18745  14.673  31.064   1.794
57083W        W18746   7.230  38.065   2.709
57084W        W18747   2.836  16.218   2.275
57085W        W18748   4.728  35.510   4.725
57086W        W18749  41.944  35.040   0.316
57087W        W18750   2.814  20.166  13.922
57088W        W18751   3.943  32.570  13.345
57089W        W18752  10.277   0.906  11.403
57090W        W18753  28.987  36.917  12.017
57091W        W18754   5.327   2.323  12.509
57092W        W18755   2.240  41.488   4.229
57093W        W18756  26.514  23.110  10.139
57094W        W18757  16.199   9.668  14.777
57095W        W18758  22.724   4.400   1.736
57096W        W18759  42.421   8.657   3.152
57097W        W18760  30.659   3.854  13.936
57098W        W18761  44.274   3.757  14.444
57099W        W18762  37.075  22.741  10.445
57100W        W18763  44.369  34.867   3.677
57101W        W18764  39.526  38.065  12.487
57102W        W18765  41.503   0.324  13.321
57103W        W18766  40.891  33.979   2.737
57104W        W18767  19.196  13.738  10.529
57105W        W18768  11.708  33.941  12.998
57106W        W18769  41.516  31.010  11.600
57107W        W18770   8.702  41.380   1.314
57108W        W18771  42.918  43.960  13.885
57109W        W18772  14.705  37.881   3.795
57110W        W18773  33.130  22.098  14.446
57111W        W18774  13.324  31.131   0.433
57112W        W18775  14.667  18.092  11.009
57113W        W18776   9.250   5.800   1.403
57114W        W18777  41.368  43.405   0.799
57115W        W18778  22.520   9.845  14.371
57116W        W18779  27.537  24.119  14.928
57117W        W18780  15.797   0.846  12.409
57118W        W18781  34.113  18.117  13.924
57119W        W18782   2.747   5.268   3.794
57120W        W18783  34.426  23.233  11.862
57121W        W18784   7.312   6.862  13.005
57122W        W18785  30.958  20.634   5.668
57123W        W18786   8.177  44.910  14.997
57124W        W18787  35.951  22.995   3.841
57125W        W18788  24.695  31.059   4.757
57126W        W18789  22.124  22.119   0.472
57127W        W18790  33.901  24.565  12.418
57128W        W18791  33.417   3.920   2.381
57129W        W18792   4.699  42.295   4.190
57130W        W18793   2.325  43.819   3.793
57131W        W18794   1.295   0.883  13.852
57132W        W18795  33.111  33.027   0.316
57133W        W18796  33.395  30.995   0.849
57134W        W18797  20.264  11.812   4.213
57135W        W18798  39.365  26.967  14.027
57136W        W18799  30.981  23.552  13.368
57137W        W18800  24.211  12.263  14.360
57138W        W18801  38.029  33.399  12.044
57139W        W18802  26.481  35.519   2.889
57140W        W18803  14.654  31.514  13.019
57141W        W18804  22.152  16.581  12.991
57142W        W18805  30.503  16.594   3.761
57143W        W18806   7.234  39.827   2.226
57144W        W18807  20.174   1.811  12.973
57145W        W18808  21.622  34.000   0.750
57146W        W18809  11.243  19.574  12.075
57147W        W18810   9.823   3.284  13.810
57148W        W18811  34.104  10.857  11.052
57149W        W18812   1.873  23.185  11.094
57150W        W18813  15.587  38.994   3.709
57151W        W18814  25.587  13.324  10.597
57152W        W18815  31.936   1.759  14.398
57153W        W18816  27.470  40.518  12.842
57154W        W18817   3.365  25.128  14.802
57155W        W18818   9.736  39.035   0.349
57156W        W18819  43.845  18.648   1.402
57157W        W18820  25.691   0.805  11.536
57158W        W18821   5.698  20.206  12.945
57159W        W18822  40.031  10.169   5.134
57160W        W18823   4.823  24.987   5.231
57161W        W18824  37.448  10.334  11.608
57162W        W18825  29.934  23.506  10.578
57163W        W18826   6.895  33.463  14.314
57164W        W18827  35.408  42.408  10.926
57165W        W18828  21.634  36.928  11.523
57166W        W18829  15.646  37.469  11.377
57167W        W18830  38.070  24.629   4.128
57168W        W18831  13.229   1.897   0.457
57169W        W18832  37.384   5.310   2.261
57170W        W18833   9.709   5.833  10.429
57171W        W18834  30.062   0.792  14.002
57172W        W18835  33.562  38.361  11.071
57173W        W18836  30.547  31.146  14.939
57174W        W18837  18.217  31.937   1.865
57175W        W18838   5.793  43.869   0.955
57176W        W18839   2.748  34.063  12.085
57177W        W18840  31.598   8.197   3.715
57178W        W18841  14.599  43.300   1.787
57179W        W18842  10.634  41.843   2.344
57180W        W18843  27.115   7.730   3.241
57181W        W18844  31.972  18.573  10.535
57182W        W18845  11.735  36.974  12.347
57183W        W18846  17.061  23.503   1.242
57184W        W18847   0.381   6.379  13.814
57185W        W18848   7.226  26.169   1.220
57186W        W18849   5.735  42.993   4.199
57187W        W18850  26.601  31.932  14.898
57188W        W18851  27.518  12.679   3.768
57189W        W18852  26.994  17.608   2.334
57190W        W18853  18.672   8.395   0.966
57191W        W18854  16.192   1.937  11.597
57192W        W18855  36.557  11.816   2.261
57193W        W18856  22.659  15.151   2.881
57194W        W18857  30.939  29.604   2.815
57195W        W18858  11.237  39.470  11.975
57196W        W18859   9.237   2.887   3.664
57197W        W18860  15.688  32.143  14.401
57198W        W18861  22.081  39.488   4.708
57199W        W18862   5.852  24.000   4.828
57200W        W18863  33.955  23.661   4.762
57201W        W18864  42.941  44.502   4.689
57202W        W18865  30.998  16.088  12.087
57203W        W18866   4.367  19.638  11.395
57204W        W18867  36.364  27.113   4.257
57205W        W18868   6.404   1.269  12.932
57206W        W18869  32.110  12.733   4.341
57207W        W18870  39.937  22.147  10.490
57208W        W18871  34.018  36.516   2.767
57209W        W18872  26.156   6.880  10.975
57210W        W18873   7.297  19.050   1.326
57211W        W18874  40.375  40.040   0.419
57212W        W18875  27.458  26.084   0.470
57213W        W18876  19.165  18.185   0.287
57214W        W18877  13.747   5.931  13.010
57215W        W18878  36.360  21.718   5.200
57216W        W18879  11.634  36.953   9.610
57217W        W18880   3.820  10.358  10.501
57218W        W18881  25.530  42.347   4.725
57219W        W18882  33.539   1.285   1.809
57220W        W18883   6.679  40.354   0.243
57221W        W18884  41.879   1.334  11.510
57222W        W18885  13.286  26.983   2.798
57223W        W18886   9.195  38.857   3.332
57224W        W18887  10.763  37.853   0.472
57225W        W18888  18.119  40.408   4.628
57226W        W18889  20.636   5.927  14.279
57227W        W18890  28.646  26.030   2.334
57228W        W18891   9.741  23.549  13.431
57229W        W18892  30.074  42.304  13.871
57230W        W18893   1.420  33.406   4.810
57231W        W18894  38.522   2.403   3.214
57232W        W18895  33.099  11.665  10.999
57233W        W18896  43.885  22.154   3.149
57234W        W18897  28.109   6.258   2.876
57235W        W18898  40.484   5.351   2.253
57236W        W18899  21.756  37.842   1.290
57237W        W18900   8.307  26.087  11.067
57238W        W18901  44.477  10.256   3.799
57239W        W18902  16.633   6.734  12.920
57240W        W18903  30.039  24.479   0.365
57241W        W18904  10.276  14.621   1.771
57242W        W18905  25.968  42.367   0.898
57243W        W18906   7.405  37.348   0.246
57244W        W18907   8.719   7.695  12.957
57245W        W18908  17.068  12.830  14.464
57246W        W18909  40.508  38.539  13.880
57247W        W18910  13.719  18.763   1.270
57248W        W18911  23.593   8.199   4.339
57249W        W18912   2.746  31.105  11.860
57250W        W18913  43.020  17.213  11.447
57251W        W18914  42.331  33.915   3.838
57252W        W18915   2.774  13.158   2.216
57253W        W18916  22.539  37.561  12.461
57254W        W18917  19.114  16.590   0.750
57255W        W18918  12.787  22.119  12.934
57256W        W18919  10.760  43.798  12.401
57257W        W18920  11.359  15.607  13.937
57258W        W18921  19.537  42.785   3.187
57259W        W18922  20.653  17.245  13.036
57260W        W18923  28.040   5.339   2.727
57261W        W18924  16.254  34.955  14.022
57262W        W18925  35.966  19.720  14.385
57263W        W18926  34.933   3.731  12.508
57264W        W18927  39.991   7.707   0.470
57265W        W18928  37.835   2.764  14.454
57266W        W18929  33.059  29.480   0.791
57267W        W18930  44.900  13.668  13.525
57268W        W18931  21.519   0.781  13.487
57269W        W18932  34.112   7.307  13.855
57270W        W18933  44.491  41.920  11.910
57271W        W18934  15.684  38.899   3.152
57272W        W18935  24.488  30.120  12.470
57273W        W18936   9.711  44.414  10.565
57274W        W18937  11.854  34.603  10.143
57275W        W18938  37.986  14.212   3.151
57276W        W18939  42.980  19.545   3.174
57277W        W18940  41.524   4.901   0.932
57278W        W18941  41.923  32.996  12.988
57279W        W18942  26.025  39.858  12.924
57280W        W18943  23.208  13.686  14.761
57281W        W18944  21.154   0.801  14.416
57282W        W18945  20.166  10.237   2.399
57283W        W18946  44.928  24.163  13.051
57284W        W18947   6.350  26.463  12.091
57285W        W18948  44.758  34.898  11.513
57286W        W18949  39.952  22.723  11.087
57287W        W18950  44.898  38.819   2.330
57288W        W18951   8.838  38.840  10.600
57289W        W18952  43.500  37.914  13.323
57290W        W18953   6.411  31.452   1.246
57291W        W18954   3.853  18.786   4.307
57292W        W18955  43.977  37.481  13.866
57293W        W18956  38.405  29.099  12.460
57294W        W18957   8.674   5.687   3.261
57295W        W18958   0.778  30.089   0.412
57296W        W18959  18.204  32.493  12.933
57297W        W18960  35.873  28.083  13.973
57298W        W18961  42.452  35.025  13.540
57299W        W18962  18.196  39.919   3.775
57300W        W18963  16.631   7.340  13.321
57301W        W18964  29.981  21.245   3.696
57302W        W18965  12.818  18.687  12.996
57303W        W18966  11.789   0.400   3.786
57304W        W18967  16.112  19.608   0.966
57305W        W18968  25.638  36.356   2.351
57306W        W18969  36.854  18.202   1.926
57307W        W18970  34.906  24.196  11.969
57308W        W18971  38.334  10.157   2.224
57309W        W18972  21.522  18.708  11.941
57310W        W18973  12.175  25.688  11.050
57311W        W18974  25.132  39.525   5.306
57312W        W18975  21.522  24.179   1.933
57313W        W18976  13.346  27.983  11.471
57314W        W18977  14.172  11.755  14.815
57315W        W18978   7.300  19.708   3.775
57316W        W18979  14.229  41.531  13.952
57317W        W18980  22.086  18.600  11.972
57318W        W18981  27.155  34.048   0.382
57319W        W18982  14.099   1.798  12.075
57320W        W18983  21.752  17.112  14.820
57321W        W18984   7.783  15.675  12.095
57322W        W18985   3.317  33.907  11.000
57323W        W18986  20.525  21.154   4.736
57324W        W18987   6.330  23.603   2.293
57325W        W18988  10.175   2.815  11.959
57326W        W18989   5.778  30.118   2.873
57327W        W18990  32.488   9.281   4.237
57328W        W18991  32.138  38.327  10.483
57329W        W18992  17.600  32.399   3.284
57330W        W18993  38.049  13.317   4.256
57331W        W18994  30.160  23.162   4.638
57332W        W18995  31.016  30.436  12.477
57333W        W18996  18.059  44.460  13.936
57334W        W18997  17.747  37.379   3.697
57335W        W18998  19.088   9.315   2.194
57336W        W18999  43.425  19.237  12.368
57337W        W19000  34.542  27.110   2.367
57338W        W19001  23.599  37.929   4.235
57339W        W19002  17.593  33.566  11.447
57340W        W19003  25.996   1.749  13.966
57341W        W19004   2.308   2.409   0.318
57342W        W19005   0.273  15.596  10.144
57343W        W19006  18.758  20.582   0.883
57344W        W19007  32.591  19.170  14.367
57345W        W19008   9.194   1.841   3.680
57346W        W19009  22.043  28.137   9.977
57347W        W19010  16.568  36.987   1.807
57348W        W19011  11.641  27.110  14.477
57349W        W19012  10.736   8.656   1.245
57350W        W19013   6.407  38.358  13.493
57351W        W19014   3.458   4.749   4.790
57352W        W19015   6.750   0.885  13.843
57353W        W19016  38.929   2.789   0.317
57354W        W19017  39.541   3.257  14.875
57355W        W19018   4.394  28.676   1.259
57356W        W19019  15.787  16.717   2.316
57357W        W19020  29.928  30.519  13.894
57358W        W19021  42.940  26.697  12.910
57359W        W19022  34.548  16.135  11.560
57360W        W19023  14.684  31.961   5.270
57361W        W19024  24.180  39.005   3.202
57362W        W19025  37.520  29.637  12.866
57363W        W19026  43.855  41.513  11.987
57364W        W19027  16.231  19.195  12.479
57365W        W19028   0.942   1.935   2.230
57366W        W19029  25.075   2.927   3.869
57367W        W19030  20.660  28.982  11.576
57368W        W19031   1.941  13.705  14.863
57369W        W19032   8.768  16.249  14.483
57370W        W19033  38.917  43.018   4.139
57371W        W19034  20.096  13.203  10.921
57372W        W19035   7.187   1.947  14.425
57373W        W19036   9.701  20.075   2.896
57374W        W19037  19.181   2.394   3.244
57375W        W19038  18.238   2.436  12.926
57376W        W19039  40.848  38.883  14.865
57377W        W19040  15.313  41.478  10.979
57378W        W19041  22.518  28.579   2.805
57379W        W19042  29.635  20.699  13.379
57380W        W19043  21.095  40.860   1.440
57381W        W19044  17.582  24.029  12.825
57382W        W19045  40.330  32.598   3.302
57383W        W19046  31.607   9.266   1.709
57384W        W19047  20.737  21.187   4.250
57385W        W19048  41.459   6.313   3.199
57386W        W19049  26.583  17.564  11.946
57387W        W19050   6.253  11.328  10.129
57388W        W19051  37.898   0.763   4.727
57389W        W19052  32.888   9.395  11.597
57390W        W19053  40.963  12.305  13.001
57391W        W19054   7.760  31.926  14.498
57392W        W19055   1.336  23.721   1.332
57393W        W19056  12.748  30.004   3.639
57394W        W19057  34.102  44.007   4.788
57395W        W19058   6.712  39.023  12.407
57396W        W19059   2.942  32.479   1.275
57397W        W19060  44.859  28.584   0.747
57398W        W19061  43.773  20.190  10.493
57399W        W19062  25.491   0.928  14.475
57400W        W19063  14.228   5.900  11.376
57401W        W19064  43.862   7.825   1.310
57402W        W19065   7.881  25.544  13.977
57403W        W19066  19.581  23.539  13.338
57404W        W19067  22.613  31.553   4.198
57405W        W19068  27.020  44.980   3.660
57406W        W19069  40.336  40.362   4.183
57407W        W19070  12.698  14.206   0.833
57408W        W19071  34.070  36.560   4.791
57409W        W19072  41.979  33.896   1.905
57410W        W19073  21.613  22.538  10.918
57411W        W19074  24.204  42.937  13.792
57412W        W19075  32.416  42.017   2.178
57413W        W19076  12.680  10.746   2.376
57414W        W19077   3.748  24.690   3.808
57415W        W19078  28.594  31.436  13.338
57416W        W19079  20.590  24.597   0.796
57417W        W19080  28.652  33.913   2.415
57418W        W19081  22.108  38.551  12.961
57419W        W19082  26.499  11.663  14.016
57420W        W19083  29.978  27.527  10.915
57421W        W19084  29.000   1.393   4.830
57422W        W19085  42.351  27.963   4.170
57423W        W19086  13.734   4.372  10.905
57424W        W19087  37.943  35.558   0.392
57425W        W19088   6.712  27.657  11.110
57426W        W19089  13.340  34.119  14.834
57427W        W19090  33.998  15.729  13.941
57428W        W19091  31.974  18.786   1.902
57429W        W19092  22.649   6.919   0.781
57430W        W19093  31.555  27.189  11.467
57431W        W19094  25.509  19.738  11.091
57432W        W19095  33.576  10.725   4.176
57433W        W19096  38.492  13.207   1.832
57434W        W19097  35.911  21.097  11.020
57435W        W19098  13.147  40.326  13.502
57436W        W19099  33.570  43.993   4.191
57437W        W19100  13.658  17.588   0.730
57438W        W19101  12.264  44.899  14.405
57439W        W19102  11.237  12.687  12.423
57440W        W19103   9.659  44.942   3.683
57441W        W19104   5.238  33.412   3.314
57442W        W19105  16.717  23.541   0.772
57443W        W19106  31.447  13.147   4.690
57444W        W19107  14.248  43.505   3.653
57445W        W19108  42.850  11.195  13.492
57446W        W19109  29.602  29.462   3.721
57447W        W19110  44.493  24.975   0.938
57448W        W19111  22.061  12.781   4.347
57449W        W19112  35.397  37.020   0.276
57450W        W19113  19.752  23.703   4.631
57451W        W19114   1.474  29.488  13.980
57452W        W19115  12.706  23.676   3.787
57453W        W19116  44.347  26.020  12.909
57454W        W19117   5.349  21.722   4.276
57455W        W19118   8.325  17.268   3.803
57456W        W19119  21.017  26.206   4.312
57457W        W19120  20.184   9.342  10.912
57458W        W19121  41.401  29.921  13.816
57459W        W19122  39.910  34.932  11.531
57460W        W19123   8.314  31.083   4.613
57461W        W19124  43.902  38.536   4.815
57462W        W19125   3.838  19.261   0.393
57463W        W19126   2.384  24.140  13.014
57464W        W19127  40.439  35.959   0.902
57465W        W19128  12.822  36.472   2.276
57466W        W19129  14.719  13.634   2.200
57467W        W19130  37.567   8.323   2.282
57468W        W19131  12.230  25.616  14.310
57469W        W19132  39.394  23.656  13.506
57470W        W19133  44.333  21.568  14.433
57471W        W19134  12.290  28.942  10.527
57472W        W19135  31.027   6.683   4.818
57473W        W19136  22.529  30.621  12.560
57474W        W19137  44.983  16.621   2.408
57475W        W19138  34.569  23.557   2.735
57476W        W19139   3.297  36.346   4.181
57477W        W19140  27.522  19.100   0.930
57478W        W19141  32.943  40.414  12.523
57479W        W19142  33.944  34.868  11.006
57480W        W19143   6.420  24.985   5.237
57481W        W19144  36.068  13.756   3.231
57482W        W19145  24.630  18.153   1.738
57483W        W19146  25.703  28.040   4.721
57484W        W19147  34.437  44.281   4.325
57485W        W19148  40.376  41.493   4.151
57486W        W19149  13.318   5.773  13.497
57487W        W19150   8.327   9.189  13.015
57488W        W19151  36.506  10.247  13.454
57489W        W19152  42.343  16.113  12.968
57490W        W19153  44.876  16.248  13.019
57491W        W19154  12.129  16.573  14.344
57492W        W19155  12.128  28.486   1.770
57493W        W19156  33.531  34.027  13.423
57494W        W19157  11.787  40.870  14.014
57495W        W19158  33.950   4.945   3.284
57496W        W19159   6.766  12.636   3.267
57497W        W19160  37.033   3.854   0.468
57498W        W19161  16.220  24.047   3.833
57499W        W19162   6.918  11.822   1.906
57500W        W19163   9.394  14.705   3.292
57501W        W19164   7.669  37.901  10.637
57502W        W19165  20.678  43.777  11.979
57503W        W19166  25.133   2.255   0.267
57504W        W19167  35.509  30.429  13.497
57505W        W19168  44.307  10.731  11.088
57506W        W19169  31.151  21.219   3.334
57507W        W19170  35.471  10.243  11.105
57508W        W19171  17.208  41.400   2.782
57509W        W19172  35.553  12.800  13.023
57510W        W19173  41.038  26.057   4.154
57511W        W19174  33.961   9.287   2.251
57512W        W19175  25.083  21.736  12.873
57513W        W19176  15.578  28.459  13.016
57514W        W19177   4.342   0.279  11.078
57515W        W19178  25.194  13.160   0.851
57516W        W19179  44.458  39.827   3.328
57517W        W19180  16.634  23.210   0.775
57518W        W19181  27.953  42.791   1.853
57519W        W19182  13.612  17.242   3.191
57520W        W19183  39.489  31.048  11.562
57521W        W19184  24.007   1.821   3.209
57522W        W19185   2.333  11.361  11.416
57523W        W19186   4.410  12.816  14.497
57524W        W19187  19.054  19.273   0.351
57525W        W19188  16.294   3.797  12.975
57526W        W19189   3.934  20.034   3.630
57527W        W19190  40.990  36.890  11.430
57528W        W19191  13.650  36.073   0.279
57529W        W19192  32.632   7.826   1.293
57530W        W19193  40.385  39.434  11.961
57531W        W19194  25.170   7.700  11.924
57532W        W19195  18.163  17.224  10.470
57533W        W19196  27.666  30.608   4.732
57534W        W19197   7.232  28.947   1.336
57535W        W19198   5.705  30.433   4.212
57536W        W19199  39.895  21.664   2.723
57537W        W19200  29.600  29.474  12.036
57538W        W19201  41.343  31.984   0.332
57539W        W19202  35.096  18.248   0.872
57540W        W19203  29.620  44.830  11.107
57541W        W19204  29.936  12.310   1.846
57542W        W19205  16.298  39.424   3.322
57543W        W19206  36.079  11.832   1.310
57544W        W19207  19.591  12.790   4.163
57545W        W19208  25.124  17.080  12.396
57546W        W19209  20.158  33.523   4.321
57547W        W19210  36.998  40.015  14.944
57548W        W19211   0.765  37.909  10.911
57549W        W19212  27.558  12.820  14.346
57550W        W19213  26.698   7.197   9.988
57551W        W19214  38.879  16.262  10.970
57552W        W19215   3.395  40.483  13.027
57553W        W19216  28.952   7.259  12.927
57554W        W19217   3.346  20.624  13.904
57555W        W19218  13.604   8.898   5.713
57556W        W19219  20.208  13.120  13.861
57557W        W19220  22.538  12.799  12.062
57558W        W19221  28.003   9.176   4.291
57559W        W19222  28.588  39.448   1.925
57560W        W19223  26.486  14.819   3.158
57561W        W19224  25.995  39.448  13.805
57562W        W19225  14.205  17.786  10.997
57563W        W19226  42.306  31.076  13.546
57564W        W19227   4.430  22.040  10.411
57565W        W19228  23.195  42.020   4.198
57566W        W19229  36.395  33.001   1.694
57567W        W19230  30.149  35.091   1.437
57568W        W19231   6.412  38.924  14.878
57569W        W19232  16.702  17.210   4.195
57570W        W19233  19.113  17.203   9.521
57571W        W19234   0.945  12.246  13.534
57572W        W19235  34.027   5.305  14.849
57573W        W19236  38.331  25.211  12.833
57574W        W19237  14.255  22.229   4.644
57575W        W19238  13.787  17.694  13.314
57576W        W19239  23.062   6.776   2.855
57577W        W19240  11.282  16.240   0.923
57578W        W19241  32.890  26.998  10.499
57579W        W19242  44.385   2.866   4.743
57580W        W19243  16.640  23.676  10.908
57581W        W19244  14.806   8.198  11.997
57582W        W19245  42.320  38.352  11.409
57583W        W19246   3.389  16.789  13.883
57584W        W19247   0.950  15.166   4.229
57585W        W19248   9.259  29.639  14.971
57586W        W19249  11.760   1.847  11.505
57587W        W19250  43.822  16.170  12.565
57588W        W19251  16.126  22.053   3.305
57589W        W19252  18.129   4.294  13.387
57590W        W19253   5.221  10.780  12.554
57591W        W19254   6.421  22.085  13.975
57592W        W19255  34.517  19.678  11.125
57593W        W19256  42.503  32.930  10.500
57594W        W19257  25.557  33.951   0.927
57595W        W19258  37.545   4.937   3.227
57596W        W19259   5.834  35.521  13.987
57597W        W19260  23.547  18.757  10.626
57598W        W19261  10.732  14.213  11.982
57599W        W19262  21.185  11.737   3.742
57600W        W19263   7.717  11.766  14.470
57601W        W19264  23.545  21.650   2.331
57602W        W19265  17.195  29.034   1.747
57603W        W19266  17.625  14.179   3.309
57604W        W19267   6.694  40.942   0.869
57605W        W19268  33.500  16.802   2.749
57606W        W19269   3.421  37.950  12.995
57607W        W19270  18.673  32.589   4.150
57608W        W19271   8.710  13.628   0.475
57609W        W19272  23.694  39.495   2.690
57610W        W19273  30.553  25.599  14.387
57611W        W19274  39.456  27.037   4.736
57612W        W19275   4.854   5.914  14.031
57613W        W19276  15.178  43.890   1.417
57614W        W19277  38.328  10.345   4.648
57615W        W19278   0.812  42.778  11.591
57616W        W19279  20.556  32.917   1.310
57617W        W19280   8.783  15.597   0.785
57618W        W19281  36.979  16.179  12.092
57619W        W19282  29.007  34.977  14.795
57620W        W19283  11.217   8.894  12.002
57621W        W19284   2.737  27.670  11.897
57622W        W19285   7.791  32.615   1.323
57623W        W19286  11.133  44.388  11.498
57624W        W19287   0.919   4.816   0.366
57625W        W19288  22.576  14.180  13.364
57626W        W19289  34.085  33.879   0.894
57627W        W19290  26.141  34.475  10.471
57628W        W19291   4.741   1.915   1.232
57629W        W19292  16.734  40.543   2.235
57630W        W19293  16.158  32.001   3.729
57631W        W19294   1.930  12.313  14.376
57632W        W19295  16.707  37.920  13.425
57633W        W19296  11.188  17.270  11.610
57634W        W19297  36.974   2.407   0.843
57635W        W19298  43.277  16.569   0.887
57636W        W19299   7.334  28.616   0.325
57637W        W19300  42.386  26.609   4.704
57638W        W19301  24.542   8.686   4.627
57639W        W19302  20.752  20.761   1.219
57640W        W19303  44.876  23.660  10.542
57641W        W19304   2.882  10.192  12.361
57642W        W19305  21.069  18.081  11.377
57643W        W19306   1.243  30.442  11.032
57644W        W19307  26.168   2.869  10.889
57645W        W19308  18.625   3.864  12.911
57646W        W19309  22.170  43.868   2.712
57647W        W19310  32.488  14.297   0.371
57648W        W19311  13.308  15.681   4.695
57649W        W19312  25.075   8.302  10.498
57650W        W19313  12.314  27.035  10.921
57651W        W19314  23.081  24.003   0.762
57652W        W19315  37.436  27.480  14.945
57653W        W19316  42.317  44.882   4.276
57654W        W19317  22.137   2.786  13.803
57655W        W19318  19.710   4.311  10.102
57656W        W19319  31.047   9.792   4.145
57657W        W19320  27.111   6.248  13.435
57658W        W19321  35.859  34.969   0.346
57659W        W19322  17.657   3.822  12.506
57660W        W19323   1.807   3.764  14.808
57661W        W19324  30.987   9.677   0.894
57662W        W19325  23.561  23.032  13.893
57663W        W19326  37.897  31.612   0.949
57664W        W19327   6.819  44.942  14.898
57665W        W19328  43.954   0.970   2.370
57666W        W19329   6.254  15.284   1.862
57667W        W19330  22.597  18.615   0.929
57668W        W19331  33.448  40.983  11.553
57669W        W19332   1.948   8.216   4.803
57670W        W19333  15.626  24.020  13.895
57671W        W19334  20.118  40.864   0.324
57672W        W19335  41.927  37.922   0.346
57673W        W19336  39.950  20.707   1.330
57674W        W19337   2.965   8.744   3.219
57675W        W19338   3.354   3.375  13.879
57676W        W19339   9.257  44.349  12.965
57677W        W19340  40.815  10.859   3.867
57678W        W19341  31.419   3.795   0.901
57679W        W19342  40.903  15.669   1.915
57680W        W19343  19.587  24.575   2.777
57681W        W19344  37.526  28.068   5.203
57682W        W19345  31.572  35.081  13.850
57683W        W19346  41.032  33.507   0.351
57684W        W19347  34.001  30.443  12.034
57685W        W19348   2.368  18.660   4.782
57686W        W19349  27.037   1.868   4.665
57687W        W19350   4.867  37.450  14.319
57688W        W19351  17.764  38.914  11.874
57689W        W19352  23.681   8.889  13.497
57690W        W19353  34.111  16.757  12.473
57691W        W19354  17.667   6.260   1.249
57692W        W19355  36.957   4.342   3.267
57693W        W19356   3.721  12.332   4.673
57694W        W19357   9.318  28.523  11.482
57695W        W19358  12.176  11.743  13.800
57696W        W19359  10.681   5.794  10.498
57697W        W19360  18.729   5.920  14.996
57698W        W19361  22.132  14.789  10.516
57699W        W19362  33.557  11.664   2.864
57700W        W19363  23.133  16.131   0.765
57701W        W19364  38.550   0.416  14.301
57702W        W19365  14.244   4.446  12.049
57703W        W19366  44.790  10.758   4.202
57704W        W19367  35.478  32.399  12.071
57705W        W19368  10.153  32.941  10.056
57706W        W19369   6.740  28.542  14.765
57707W        W19370  19.746  41.937   1.813
57708W        W19371  22.186   5.778   1.740
57709W        W19372  39.930   6.367   0.927
57710W        W19373  28.182  33.417   1.238
57711W        W19374  26.192  43.508  14.317
57712W        W19375  31.549   1.409  14.392
57713W        W19376  34.424  26.584  14.345
57714W        W19377  15.259  34.401   1.276
57715W        W19378  37.410  37.376  13.985
57716W        W19379  21.663  14.601   0.833
57717W        W19380   7.355  41.353  14.286
57718W        W19381  40.961  16.798   1.724
57719W        W19382  15.724  35.035   0.252
57720W        W19383  14.199  35.548   4.649
57721W        W19384  23.183  23.675   3.335
57722W        W19385  29.922  16.679  11.942
57723W        W19386   7.685  38.018   0.460
57724W        W19387  23.164  15.674  12.508
57725W        W19388  17.708  43.886  12.881
57726W        W19389  37.573  31.430   0.829
57727W        W19390  27.972  18.120   0.381
57728W        W19391  13.718  31.059   3.708
57729W        W19392  44.299  27.161  14.364
57730W        W19393  27.091  38.527   1.881
57731W        W19394  15.770  14.340   9.968
57732W        W19395  30.538  38.832   3.688
57733W        W19396  36.993  37.506   4.260
57734W        W19397  44.910  26.972   4.734
57735W        W19398  27.512  17.750  11.465
57736W        W19399  14.321  11.665  12.929
57737W        W19400  32.536  38.525   0.963
57738W        W19401  41.875  41.403  12.432
57739W        W19402  37.469  35.567   2.418
57740W        W19403  36.938  10.871  11.895
57741W        W19404  31.504  12.654   1.428
57742W        W19405  29.163  21.185   1.393
57743W        W19406  20.115  24.644  10.456
57744W        W19407  35.480   8.825   3.170
57745W        W19408  19.106  40.542  14.501
57746W        W19409  35.075  35.887   3.210
57747W        W19410  28.564  21.599   1.889
57748W        W19411  38.073  30.643  12.498
57749W        W19412  31.593  37.031  11.526
57750W        W19413  10.701  14.718   1.384
57751W        W19414  23.123   0.760  13.959
57752W        W19415   3.765  39.901   1.325
57753W        W19416  11.199   7.838  12.499
57754W        W19417  31.094   4.367  13.062
57755W        W19418   1.757  34.421   0.352
57756W        W19419  29.614  22.560  10.976
57757W        W19420   2.261  10.828  10.503
57758W        W19421   2.858  22.162   2.901
57759W        W19422  32.945  44.266   0.370
57760W        W19423  28.158  38.936  12.090
57761W        W19424  28.105   3.377   0.301
57762W        W19425   3.949  33.395  14.802
57763W        W19426  23.017   6.410   3.657
57764W        W19427  33.443  10.255  11.403
57765W        W19428  39.449   1.753  13.543
57766W        W19429  25.197  27.629  11.435
57767W        W19430   6.257  42.300  10.428
57768W        W19431  19.101  39.036   4.175
57769W        W19432   4.301  43.452  12.394
57770W        W19433  35.439  35.394   4.142
57771W        W19434  32.472  13.108   3.353
57772W        W19435  41.415  40.927   0.465
57773W        W19436   9.785  12.754  13.983
57774W        W19437  42.357  16.158   0.964
57775W        W19438  12.153  39.952  13.871
57776W        W19439  18.159  15.628   2.746
57777W        W19440   5.232  27.489   1.343
57778W        W19441  32.994   8.810   2.784
57779W        W19442  14.749  21.101  12.003
57780W        W19443  40.003   3.290  11.045
57781W        W19444  38.930  26.162  14.433
57782W        W19445  17.157  25.145  12.989
57783W        W19446  28.533  24.038  11.946
57784W        W19447  28.950  39.912   0.253
57785W        W19448  19.726  34.528   1.877
57786W        W19449  35.865  20.119  10.432
57787W        W19450  27.448  35.894   0.757
57788W        W19451   3.235  19.718   0.463
57789W        W19452  20.642  12.202  12.899
57790W        W19453  38.064  27.533  14.892
57791W        W19454  22.071   0.392  10.032
57792W        W19455   4.331  18.772   1.450
57793W        W19456   5.731   0.397  13.027
57794W        W19457  44.901  16.727   0.272
57795W        W19458  21.105   3.288  14.867
57796W        W19459  20.750  41.864  12.567
57797W        W19460  28.121  17.723  11.418
57798W        W19461  27.988  39.997  14.900
57799W        W19462   9.193  22.023  13.364
57800W        W19463  37.356   9.808  12.024
57801W        W19464  29.443  29.049   0.367
57802W        W19465  39.331  40.028   1.265
57803W        W19466   1.465  34.578  13.030
57804W        W19467  30.915  10.346  13.837
57805W        W19468   8.799   5.338  14.510
57806W        W19469  38.948  24.148   1.392
57807W        W19470  29.958  43.776   1.289
57808W        W19471  44.833  10.362   4.322
57809W        W19472   0.307   0.320   4.789
57810W        W19473  21.692  25.468   4.278
57811W        W19474  24.186  37.575  13.501
57812W        W19475  21.515  40.009   4.258
57813W        W19476  17.241  26.190  11.465
57814W        W19477  31.991  35.603  12.401
57815W        W19478  21.578  38.919   4.277
57816W        W19479   8.258  34.502   3.674
57817W        W19480  40.364  41.901  14.450
57818W        W19481  37.574  35.379   4.785
57819W        W19482  14.201  28.668   2.800
57820W        W19483  42.892   8.857  11.889
57821W        W19484   4.888  20.116   4.331
57822W        W19485   4.218  11.772  13.338
57823W        W19486  36.534   1.884  14.490
57824W        W19487  20.197  29.540  10.146
57825W        W19488  20.706  29.613  11.596
57826W        W19489   2.893  34.436   3.704
57827W        W19490  31.013  43.398   4.668
57828W        W19491  10.645   9.866  14.296
57829W        W19492  26.069  38.973  10.550
57830W        W19493  26.643  20.711  12.953
57831W        W19494   5.713  12.281   0.800
57832W        W19495   0.838  23.134  12.431
57833W        W19496  23.513   1.839   2.893
57834W        W19497  43.782   2.300  12.398
57835W        W19498  44.006   7.811  12.506
57836W        W19499  41.910  18.665  11.878
57837W        W19500  40.471  28.073  10.042
57838W        W19501  33.901  33.024   4.116
57839W        W19502   2.949  41.965  13.452
57840W        W19503  10.759  30.916  14.370
57841W        W19504   2.724  35.037   0.802
57842W        W19505  36.959  38.556  11.125
57843W        W19506  35.522  41.418  11.036
57844W        W19507   7.755   8.759  13.426
57845W        W19508   5.849   2.237  14.467
57846W        W19509  17.766  24.625   1.893
57847W        W19510  13.677  44.312   0.921
57848W        W19511  39.398  25.014  10.516
57849W        W19512  40.374  36.924   0.901
57850W        W19513  31.133  42.969  12.011
57851W        W19514  26.130  13.664   2.788
57852W        W19515  11.868  21.642   4.197
57853W        W19516   8.228  44.449   3.159
57854W        W19517  17.297  27.140   0.763
57855W        W19518  34.107  41.461   3.635
57856W        W19519   1.907   6.376  12.361
57857W        W19520  34.529  42.936  12.045
57858W        W19521   1.923  32.125   2.357
57859W        W19522  26.495  13.743   0.964
57860W        W19523  23.100   8.846   1.422
57861W        W19524  26.181  44.344  10.609
57862W        W19525  13.841   8.187   2.740
57863W        W19526  43.793   5.805  11.940
57864W        W19527  10.202  11.839   3.755
57865W        W19528  13.728  31.614   0.955
57866W        W19529  18.634   4.918  13.816
57867W        W19530   9.845  17.624   3.820
57868W        W19531  42.858  22.217  13.796
57869W        W19532   6.272  22.597  10.142
57870W        W19533   2.448   3.299   5.167
57871W        W19534  22.709  19.631   4.797
57872W        W19535  31.549  24.528  12.083
57873W        W19536  15.685  16.207   2.193
57874W        W19537  18.111  19.602   0.461
57875W        W19538  14.104  42.389  13.825
57876W        W19539  24.572  43.368  14.374
57877W        W19540  29.565  23.732  13.983
57878W        W19541  41.017  35.390   1.273
57879W        W19542   8.178  32.565   0.264
57880W        W19543  22.037  13.613   4.133
57881W        W19544  36.347  19.702  13.802
57882W        W19545   4.945   0.380  11.886
57883W        W19546  44.823  27.585  13.330
57884W        W19547  21.224  17.115  11.947
57885W        W19548  43.809  12.813   0.454
57886W        W19549  31.548  26.672  10.636
57887W        W19550  11.849  17.573  11.037
57888W        W19551  41.889  15.722   9.938
57889W        W19552  23.556  16.105   0.884
57890W        W19553  20.133  44.960  12.043
57891W        W19554  44.496  30.149   4.319
57892W        W19555  40.326   8.877  14.494
57893W        W19556   1.333  43.270  11.460
57894W        W19557  28.051  37.423   0.793
57895W        W19558   4.763  10.216   3.344
57896W        W19559  14.598   5.835  12.449
57897W        W19560   3.393  22.639  13.457
57898W        W19561  39.844  10.858  12.542
57899W        W19562  39.054  14.763   4.228
57900W        W19563  40.829   5.808   4.345
57901W        W19564  36.067  42.428  11.877
57902W        W19565  18.172   8.341   3.685
57903W        W19566  29.042  33.519  12.987
57904W        W19567  30.104  13.342   3.718
57905W        W19568  26.534   9.746   1.353
57906W        W19569  18.710  12.298   2.367
57907W        W19570  32.090  11.649   3.184
57908W        W19571  15.119  34.048  14.326
57909W        W19572  44.906  23.665  13.334
57910W        W19573  43.472  20.105   2.811
57911W        W19574   0.480  44.774   2.322
57912W        W19575  41.878  37.440   5.318
57913W        W19576  29.519  34.019   4.811
57914W        W19577  44.283  25.965   2.206
57915W        W19578  38.483  18.231  14.820
57916W        W19579  13.761  12.808   3.763
57917W        W19580  37.868   1.237  10.478
57918W        W19581   9.761  14.825   0.469
57919W        W19582  20.244  19.129   0.385
57920W        W19583  42.987   3.406   0.433
57921W        W19584   8.777  44.854  11.575
57922W        W19585  16.170  11.310  13.381
57923W        W19586  22.197  18.147   2.856
57924W        W19587   3.259  23.539   0.431
57925W        W19588  26.557  37.387   3.815
57926W        W19589   0.779  15.165   1.806
57927W        W19590  35.000   8.268   0.332
57928W        W19591  26.549  41.030   4.776
57929W        W19592  20.247  39.441   1.411
57930W        W19593  40.415  33.102  12.853
57931W        W19594  22.699  32.551   4.773
57932W        W19595  41.421   4.775   0.315
57933W        W19596   5.228  44.329   1.373
57934W        W19597  14.137  25.488  13.978
57935W        W19598  24.524  27.162  11.093
57936W        W19599  44.277  34.610   4.282
57937W        W19600  42.024  30.499  13.340
57938W        W19601  24.980  26.162  13.032
57939W        W19602   9.253   6.330  14.473
57940W        W19603  20.632   8.874  10.950
57941W        W19604  22.006  37.577   1.729
57942W        W19605   8.883  34.391  10.487
57943W        W19606  28.072  19.575  14.339
57944W        W19607  38.381  14.688   3.292
57945W        W19608  41.924  43.512   0.316
57946W        W19609  25.971  12.627  13.308
57947W        W19610  36.404  13.127   1.422
57948W        W19611  40.458  30.978   4.300
57949W        W19612  42.999  33.035  13.051
57950W        W19613  42.391   9.386  13.371
57951W        W19614   3.371  19.160  10.616
57952W        W19615  43.416  27.188  14.293
57953W        W19616  38.325  12.356   3.801
57954W        W19617  21.225   0.856   2.881
57955W        W19618  26.548  44.289   2.694
57956W        W19619  29.623  32.136   0.915
57957W        W19620   1.765  43.461  11.103
57958W        W19621  34.609  28.508   4.740
57959W        W19622  44.905  16.152  12.468
57960W        W19623  10.849  19.665   3.657
57961W        W19624  13.741  34.504   4.690
57962W        W19625  38.473  19.546  10.632
57963W        W19626   0.490  10.177   1.770
57964W        W19627  18.553   3.887   4.674
57965W        W19628   5.861  31.056  13.009
57966W        W19629  26.564  43.392  14.487
57967W        W19630  17.766  16.258  14.336
57968W        W19631  23.732   8.294   2.891
57969W        W19632  41.522  36.987  11.451
57970W        W19633  27.508   0.442   1.233
57971W        W19634  10.779   5.777  11.048
57972W        W19635  30.013  26.108  13.387
57973W        W19636  16.280  29.494  13.484
57974W        W19637  42.293  30.448   4.799
57975W        W19638  16.262  43.834   1.381
57976W        W19639  31.075   0.251  11.067
57977W        W19640  19.098  25.584   2.318
57978W        W19641   9.345   8.693   5.272
57979W        W19642   4.812  16.686  10.500
57980W        W19643  16.711   1.344   1.313
57981W        W19644  27.554  17.221  10.621
57982W        W19645   1.938  43.414  11.875
57983W        W19646   9.734   4.789   2.700
57984W        W19647  43.875  32.041   1.727
57985W        W19648   7.724  26.075   4.649
57986W        W19649  30.585  24.118   3.231
57987W        W19650  44.964  19.045  14.798
57988W        W19651  24.020  42.801   0.445
57989W        W19652   8.826  39.422  11.385
57990W        W19653  36.484  36.976  12.578
57991W        W19654   4.707  13.110   5.151
57992W        W19655  27.544  43.372  15.000
57993W        W19656  34.599  36.453  11.395
57994W        W19657  39.900  20.217  10.614
57995W        W19658  22.019  16.120  10.953
57996W        W19659  19.744   5.355   3.657
57997W        W19660  22.588  24.616   2.687
57998W        W19661  16.650  35.563   3.750
57999W        W19662  24.063  39.424  14.496
58000W        W19663  10.273  14.133   2.403
58001W        W19664   5.899  25.582   1.862
58002W        W19665   9.322  16.778   1.902
58003W        W19666   4.852  24.706   3.762
58004W        W19667   3.329  11.171  14.303
58005W        W19668   6.846   7.402  13.397
58006W        W19669   4.414  43.965  11.520
58007W        W19670   7.745  43.828  10.601
58008W        W19671  15.633  39.398   3.655
58009W        W19672   1.442  40.365   3.658
58010W        W19673  34.375   4.347   2.741
58011W        W19674  22.027  13.711  13.910
58012W        W19675  36.395  20.042  11.583
58013W        W19676   0.278  29.028   3.349
58014W        W19677  20.698  27.570   1.723
58015W        W19678  31.609  11.154  13.975
58016W        W19679   6.695  43.930  10.505
58017W        W19680  16.639  28.624  12.931
58018W        W19681  17.236  11.325  14.468
58019W        W19682  21.228  27.954  11.455
58020W        W19683  36.084  30.032   2.851
58021W        W19684  35.011  13.743   2.344
58022W        W19685  24.546  20.095   1.907
58023W        W19686  43.305   9.213  14.424
58024W        W19687  29.027   1.464   2.900
58025W        W19688  14.772  35.416   2.833
58026W        W19689  32.086  22.728   2.725
58027W        W19690  26.695  34.369  13.911
58028W        W19691   3.420  40.492  13.409
58029W        W19692  20.547  17.196  14.979
58030W        W19693  43.462   3.865   4.188
58031W        W19694  34.944   0.315  10.541
58032W        W19695  23.228  14.803   4.311
58033W        W19696  42.880  25.094  12.523
58034W        W19697   4.794  42.861   4.716
58035W        W19698  24.526   7.250   1.884
58036W        W19699  14.679  34.988   9.576
58037W        W19700  36.511  19.278   3.700
58038W        W19701  20.031  10.284   1.249
58039W        W19702   7.668  32.559  13.025
58040W        W19703   7.195  18.293   1.248
58041W        W19704  36.067  27.993   3.370
58042W        W19705  39.418  25.526  12.342
58043W        W19706   5.733   6.837  14.380
58044W        W19707  24.000   7.307   1.255
58045W        W19708   2.390  44.933  10.562
58046W        W19709  18.120  19.188   2.902
58047W        W19710  38.956  14.149   2.232
58048W        W19711   5.227  26.054   3.847
58049W        W19712  31.597  38.556  11.023
58050W        W19713  33.569   7.336  14.832
58051W        W19714  17.662  22.178   0.850
58052W        W19715  38.539  26.982   4.151
58053W        W19716  30.974  37.906   2.667
58054W        W19717  28.574  43.434  13.903
58055W        W19718  17.560   0.937  13.929
58056W        W19719  22.201  34.495  14.355
58057W        W19720  10.847  25.207  10.908
58058W        W19721  37.918  14.732  12.489
58059W        W19722  23.046  26.112   3.704
58060W        W19723   6.791   6.329   2.218
58061W        W19724   4.443  18.217   4.285
58062W        W19725  32.943  30.034   1.761
58063W        W19726   2.293  32.561   3.660
58064W        W19727  18.760  41.925   4.307
58065W        W19728  31.616  13.790  14.454
58066W        W19729  25.640   3.237  11.538
58067W        W19730  35.012  37.842  13.408
58068W        W19731  38.011  25.005  14.988
58069W        W19732   2.900  27.104  14.014
58070W        W19733   1.383   8.708   2.273
58071W        W19734  41.812  27.534  11.957
58072W        W19735  17.723   0.989  10.448
58073W        W19736   1.257  38.973   3.247
58074W        W19737  43.878  36.349  12.888
58075W        W19738  31.914   1.913   0.420
58076W        W19739  37.441  31.984  14.989
58077W        W19740  35.392  33.107   3.374
58078W        W19741  32.966  22.537  10.479
58079W        W19742   4.367  32.888   1.775
58080W        W19743  38.921  12.175   1.891
58081W        W19744   9.683  27.107   1.257
58082W        W19745  30.065   9.261  10.526
58083W        W19746   9.661  22.652  11.554
58084W        W19747  44.493   8.808   1.913
58085W        W19748  29.964   6.371   2.775
58086W        W19749   6.348  28.935   9.943
58087W        W19750  10.240  24.078   0.383
58088W        W19751  40.383  36.910  13.409
58089W        W19752  37.965  13.206   4.635
58090W        W19753  30.504  26.543   4.726
58091W        W19754  26.608  44.485  12.968
58092W        W19755  16.782  29.558  14.000
58093W        W19756   4.777   1.349   4.775
58094W        W19757  22.061  25.073  13.049
58095W        W19758  37.524  10.339   2.245
58096W        W19759  30.518  16.749   1.333
58097W        W19760  26.176   3.928  14.277
58098W        W19761  32.406  11.285  14.296
58099W        W19762   8.776   7.303   9.980
58100W        W19763  27.585  24.562   4.631
58101W        W19764  33.879  11.234   1.278
58102W        W19765  30.117  34.933  12.367
58103W        W19766  14.244  42.501  14.892
58104W        W19767  27.454  25.688   1.236
58105W        W19768  37.573  35.970  12.402
58106W        W19769  25.645  39.321   0.293
58107W        W19770  33.044  26.153   4.142
58108W        W19771  20.678  20.546   0.271
58109W        W19772  38.556  39.818   4.777
58110W        W19773  21.094  38.065  14.830
58111W        W19774  33.423  14.281  10.054
58112W        W19775  16.592  41.360   4.761
58113W        W19776  17.569  34.453  13.886
58114W        W19777  10.172  12.318  14.274
58115W        W19778  24.613  30.023   3.169
58116W        W19779  33.921  28.451  13.814
58117W        W19780  41.315  24.643   4.220
58118W        W19781  15.302  12.334   4.276
58119W        W19782  33.617  44.475   5.229
58120W        W19783  37.376  44.479  12.464
58121W        W19784  35.431  39.007  12.897
58122W        W19785   2.747  27.574  13.895
58123W        W19786  15.153  41.429  13.514
58124W        W19787  17.251  29.437  11.026
58125W        W19788  43.307  33.473  13.966
58126W        W19789  34.086  31.479   3.285
58127W        W19790  25.968   4.881   4.808
58128W        W19791  29.119  39.961  14.276
58129W        W19792  42.953  15.696   3.178
58130W        W19793  25.486   8.802   3.278
58131W        W19794   6.880  29.065  14.872
58132W        W19795  22.139   5.203  12.874
58133W        W19796  13.824  26.686   0.804
58134W        W19797  33.962  36.934  13.863
58135W        W19798  33.538   2.725   2.390
58136W        W19799  19.054  30.553  11.997
58137W        W19800  41.361  44.348   1.384
58138W        W19801   5.364  35.874   2.881
58139W        W19802  35.095  34.961   1.308
58140W        W19803   9.824  33.897  12.424
58141W        W19804   2.909  35.902   2.309
58142W        W19805  31.150  17.250   5.174
58143W        W19806  34.034  13.314   1.739
58144W        W19807  31.922  28.935  14.027
58145W        W19808  18.616  25.033   3.636
58146W        W19809   8.284  24.481  13.400
58147W        W19810  37.942  42.956   2.725
58148W        W19811  11.129  36.065   1.251
58149W        W19812  21.632  33.036   1.903
58150W        W19813  31.536  22.211   3.838
58151W        W19814  23.670   2.355  14.990
58152W        W19815   5.776  23.616  12.848
58153W        W19816  25.172  38.561   3.170
58154W        W19817  22.562  41.882  13.046
58155W        W19818   5.849   1.362   2.863
58156W        W19819  20.046   0.864   3.315
58157W        W19820  36.871  22.501  14.446
58158W        W19821  39.444  43.764  10.444
58159W        W19822  10.854  14.336  13.029
58160W        W19823  17.113  26.650   4.597
58161W        W19824  25.508  32.439   3.809
58162W        W19825  44.859   5.212   1.782
58163W        W19826  36.461  16.117  10.466
58164W        W19827  13.195  13.181  13.037
58165W        W19828  10.783  19.253   0.455
58166W        W19829  27.036  20.238   3.857
58167W        W19830  26.696  26.658  13.846
58168W        W19831  31.035  34.568  10.549
58169W        W19832  10.867   2.254   3.186
58170W        W19833  29.000  29.587  11.967
58171W        W19834   5.353  32.465  14.500
58172W        W19835  44.864  15.616  11.076
58173W        W19836  40.355  32.885   3.385
58174W        W19837  39.483  15.111  11.906
58175W        W19838  26.108   9.699   2.311
58176W        W19839  14.596   6.407   2.755
58177W        W19840  37.084  21.677   4.607
58178W        W19841  38.461  17.612   0.825
58179W        W19842  30.162  30.653  11.073
58180W        W19843  40.909  37.389  14.437
58181W        W19844   2.762  36.062   3.191
58182W        W19845  15.144  34.037   2.792
58183W        W19846  32.961  35.411  14.297
58184W        W19847   8.360  25.625  14.800
58185W        W19848   9.760  40.955  11.105
58186W        W19849  34.907  26.554  12.424
58187W        W19850   9.771   4.943  10.441
58188W        W19851   8.231  12.295   1.924
58189W        W19852  38.007  29.462  14.453
58190W        W19853  36.049  12.718  10.524
58191W        W19854  36.385  41.836   0.294
58192W        W19855   6.916  29.114   3.847
58193W        W19856   0.349  36.361  12.558
58194W        W19857  27.027  35.090  13.037
58195W        W19858  16.129  38.820   0.815
58196W        W19859  18.267  40.464   3.151
58197W        W19860   4.224  29.145   4.693
58198W        W19861  12.761  41.371  12.982
58199W        W19862  33.995  22.520  12.403
58200W        W19863  25.577   8.198  10.519
58201W        W19864  32.619  26.492   1.934
58202W        W19865  25.155   4.752   1.243
58203W        W19866  16.180  25.642   0.941
58204W        W19867  26.563   9.302   0.784
58205W        W19868  19.105  42.947  13.364
58206W        W19869   4.890  38.521  13.867
58207W        W19870   3.863  16.289   1.381
58208W        W19871  22.230  39.489  12.507
58209W        W19872  10.340  13.322  12.409
58210W        W19873  15.256  29.586  10.633
58211W        W19874  37.008  11.184  12.547
58212W        W19875   9.369  33.428  10.038
58213W        W19876  40.917  44.331  10.904
58214W        W19877   3.907   9.166   0.367
58215W        W19878   8.321  15.593  12.412
58216W        W19879  43.490  15.159  14.360
58217W        W19880  40.492  30.951  12.971
58218W        W19881  36.348  25.472   1.739
58219W        W19882  25.562  18.661  12.455
58220W        W19883   8.327  39.549  13.837
58221W        W19884  14.191  43.318  14.986
58222W        W19885  44.775   8.236   1.237
58223W        W19886   4.444  39.983   4.729
58224W        W19887  39.914  38.417  13.838
58225W        W19888  14.751  39.923  12.909
58226W        W19889  20.654  14.244  12.989
58227W        W19890  20.732   7.223   0.789
58228W        W19891  21.526  26.490   3.234
58229W        W19892  10.704  23.729   3.384
58230W        W19893  21.516  43.986   1.445
58231W        W19894  16.618  21.745   3.783
58232W        W19895  26.511  27.040  13.491
58233W        W19896  38.064  43.399   2.320
58234W        W19897  30.093  24.507  13.867
58235W        W19898  32.037   6.885   4.180
58236W        W19899  31.423  39.980   2.295
58237W        W19900  28.569  41.421  12.379
58238W        W19901  41.832   6.754  13.324
58239W        W19902  17.240  34.892   3.632
58240W        W19903  31.023  41.503   3.672
58241W        W19904  36.353  27.100   1.290
58242W        W19905  30.085  26.547  14.889
58243W        W19906  28.576  44.782  12.062
58244W        W19907  24.984  38.445  11.504
58245W        W19908  27.191  33.903  10.622
58246W        W19909  35.063   2.832   4.277
58247W        W19910   0.319   8.723   2.288
58248W        W19911  29.615  36.890  13.359
58249W        W19912  11.234  10.632  10.441
58250W        W19913  33.393  39.356   0.889
58251W        W19914  39.378  44.779   1.313
58252W        W19915  28.955  24.593   2.735
58253W        W19916  22.569  37.502  12.910
58254W        W19917  39.494  19.710  13.062
58255W        W19918  28.058  25.668   4.248
58256W        W19919  37.019  17.559   3.700
58257W        W19920  13.754  36.027  13.902
58258W        W19921   6.705   8.754  11.120
58259W        W19922  23.082   1.309  11.445
58260W        W19923  13.826  25.519  13.347
58261W        W19924   1.483  42.912   2.812
58262W        W19925  12.761  18.643   2.381
58263W        W19926   5.247  42.816   2.357
58264W        W19927  20.121  39.019   1.224
58265W        W19928  18.558  17.672  12.009
58266W        W19929  16.298  31.900   0.941
58267W        W19930  10.279   0.817   3.213
58268W        W19931  37.043  36.402   1.439
58269W        W19932  17.207  14.658  13.855
58270W        W19933  13.706  31.569  11.964
58271W        W19934  23.724  24.041  12.922
58272W        W19935  17.569   0.387  11.127
58273W        W19936   6.383  21.207   2.293
58274W        W19937  43.423  21.173  14.854
58275W        W19938  11.693  36.540   1.415
58276W        W19939  24.085  30.070  11.400
58277W        W19940   3.798  11.245  14.470
58278W        W19941  40.904   7.367  13.310
58279W        W19942  44.303   4.894   0.965
58280W        W19943  40.905  39.494  10.582
58281W        W19944  34.560  14.188   0.828
58282W        W19945   6.873  15.208  14.302
58283W        W19946  19.087  27.470  14.881
58284W        W19947   7.386   0.908   1.410
58285W        W19948  14.741  12.190   0.406
58286W        W19949  21.219  35.385   3.208
58287W        W19950  41.026   4.282  14.857
58288W        W19951  12.116  32.010  14.896
58289W        W19952  33.907  15.694   4.819
58290W        W19953  37.857  44.326  13.058
58291W        W19954  36.386  14.819  13.878
58292W        W19955  15.690  17.717   2.736
58293W        W19956  29.500   4.430  14.502
58294W        W19957  34.561  31.138   4.238
58295W        W19958  29.431  23.055   0.331
58296W        W19959  34.972  26.509   2.792
58297W        W19960  20.553   8.190  13.417
58298W        W19961  17.262  36.996  14.435
58299W        W19962   4.288  22.234  13.403
58300W        W19963  16.250  36.977   3.714
58301W        W19964  16.670   3.932   3.732
58302W        W19965   3.928  42.984  14.818
58303W        W19966  14.819  27.080  13.453
58304W        W19967   1.377  44.864   4.598
58305W        W19968  21.194  21.108  14.939
58306W        W19969   5.266   9.315   3.744
58307W        W19970   5.377  21.193   1.354
58308W        W19971  12.249  21.052  11.012
58309W        W19972  16.126  41.485   2.406
58310W        W19973  26.205  37.970  14.440
58311W        W19974  34.118  18.237   5.226
58312W        W19975  28.079   1.803   4.186
58313W        W19976   4.904  38.451  10.921
58314W        W19977  43.789  43.281  13.010
58315W        W19978  36.454  32.957   4.600
58316W        W19979  16.614   5.383   0.332
58317W        W19980  41.386  11.364  13.355
58318W        W19981  15.791   1.902   0.250
58319W        W19982  25.987  38.934  13.433
58320W        W19983  42.444   5.695  14.383
58321W        W19984  30.911  44.480   5.138
58322W        W19985   8.319  33.467  11.552
58323W        W19986  34.520   5.291  12.406
58324W        W19987   5.891  29.486   2.313
58325W        W19988  22.523  18.769   2.760
58326W        W19989  35.533  11.300  12.841
58327W        W19990  44.400  18.734   3.332
58328W        W19991  35.429   0.811  14.300
58329W        W19992  13.659  39.856   0.880
58330W        W19993   1.881  19.766   2.792
58331W        W19994  25.045  42.491  14.780
58332W        W19995  26.011  14.293   2.386
58333W        W19996   4.234   8.275   1.718
58334W        W19997  42.965  14.126  13.005
58335W        W19998  43.018  11.837   5.311
58336W        W19999  11.361  22.995   2.752
58337W        W20000  18.073  37.462  10.568
58338W        W20001   3.853  38.045  12.940
58339W        W20002   5.339   5.304   0.824
58340W        W20003  40.349  12.230  10.416
58341W        W20004  27.042  44.005   1.704
58342W        W20005  36.411  25.204   0.461
58343W        W20006  13.312  30.051   3.203
58344W        W20007   3.414   6.709   4.701
58345W        W20008  17.157   4.251  14.784
58346W        W20009   9.343  30.531  14.972
58347W        W20010  42.383  35.587   4.750
58348W        W20011  33.418  18.175   9.999
58349W        W20012  44.923  31.004   4.683
58350W        W20013  18.052  41.316  14.514
58351W        W20014  22.212  26.527   1.858
58352W        W20015  41.865  10.307   2.811
58353W        W20016  31.902  38.478  14.432
58354W        W20017  33.878  14.302   4.270
58355W        W20018   0.934  19.174  13.897
58356W        W20019  21.518  30.980   1.766
58357W        W20020  20.561  12.688   0.462
58358W        W20021  38.350  33.608  13.002
58359W        W20022  13.753  33.878   9.488
58360W        W20023  32.611  29.503   0.446
58361W        W20024   6.810   9.787  11.560
58362W        W20025   1.741  17.066  13.898
58363W        W20026   0.742  32.451  13.945
58364W        W20027  20.048   1.763  12.394
58365W        W20028  26.099  33.058   1.319
58366W        W20029  23.098  25.707  12.054
58367W        W20030   9.779   7.410  14.787
58368W        W20031  25.116  38.898  10.569
58369W        W20032   8.298   7.898  13.378
58370W        W20033  18.785   0.898   2.362
58371W        W20034  41.940  31.034   3.701
58372W        W20035  10.869  29.457  13.961
58373W        W20036  37.417   4.773  14.321
58374W        W20037  26.002  40.422   3.343
58375W        W20038  15.676  42.918   4.181
58376W        W20039  36.565  21.642  10.433
58377W        W20040  41.796  41.813   2.736
58378W        W20041  39.020   6.849   4.803
58379W        W20042  22.718  10.807   2.901
58380W        W20043   1.358  21.056  11.422
58381W        W20044   3.951  31.975   1.930
58382W        W20045  15.660  17.090  13.823
58383W        W20046  30.570  19.121   2.309
58384W        W20047   2.329  40.955   2.677
58385W        W20048  13.836  32.558   4.180
58386W        W20049  10.722  30.609   3.721
58387W        W20050  28.993  22.147   0.303
58388W        W20051   8.819  44.960   2.742
58389W        W20052  34.471  38.419  12.047
58390W        W20053  28.439  10.720  13.879
58391W        W20054  33.504  18.757  10.513
58392W        W20055   5.201  36.413   3.242
58393W        W20056  29.981   3.872   1.338
58394W        W20057   6.821   3.427  14.824
58395W        W20058  28.177  44.886  11.974
58396W        W20059  15.103  35.568   0.392
58397W        W20060  36.923  24.113   3.790
58398W        W20061   1.419   8.735   4.287
58399W        W20062  19.255  41.482   3.336
58400W        W20063   9.151  43.510  13.343
58401W        W20064  25.147  27.022   3.675
58402W        W20065  10.739  19.273  13.884
58403W        W20066   2.288  19.763  13.021
58404W        W20067  40.512  44.330  14.867
58405W        W20068  24.077  24.201   1.881
58406W        W20069  23.184  26.073   2.402
58407W        W20070   1.802  11.205   4.151
58408W        W20071  44.314   1.817   3.796
58409W        W20072   4.366  22.569   0.411
58410W        W20073  20.615   4.286   0.367
58411W        W20074  29.931  23.991   0.885
58412W        W20075   2.935  28.493  14.775
58413W        W20076  16.278  20.171  14.938
58414W        W20077  42.881  25.696   2.353
58415W        W20078  30.106   5.440  14.483
58416W        W20079  30.929  27.691  14.452
58417W        W20080  24.655  39.549   0.809
58418W        W20081  10.754  21.689   2.189
58419W        W20082   0.335  44.316   3.660
58420W        W20083  23.651  22.512  10.916
58421W        W20084  16.708   2.948   4.618
58422W        W20085   5.226  39.398  13.328
58423W        W20086  20.526  44.405  11.431
58424W        W20087  40.482   0.250  14.845
58425W        W20088  14.221  12.309  14.845
58426W        W20089  32.473  10.800   3.222
58427W        W20090  21.209   1.332  13.873
58428W        W20091  41.500  24.006  11.404
58429W        W20092  35.910  42.013   3.855
58430W        W20093  39.013  30.651   1.695
58431W        W20094  41.508  11.135  11.859
58432W        W20095  28.496  20.089  11.374
58433W        W20096  26.544  23.022  12.045
58434W        W20097   7.910  12.756  10.423
58435W        W20098  41.413  14.247  14.789
58436W        W20099  41.489  35.467   3.718
58437W        W20100  19.284  13.280  14.451
58438W        W20101  16.126  29.115   1.918
58439W        W20102   4.211  21.157  11.083
58440W        W20103  12.823  34.876   2.735
58441W        W20104  36.355  12.178   1.852
58442W        W20105  15.240  26.675  12.429
58443W        W20106  43.953  17.649   1.897
58444W        W20107  41.822  13.171   2.181
58445W        W20108  43.795  37.055  11.101
58446W        W20109   9.222   8.751  10.991
58447W        W20110  44.380   5.815  10.912
58448W        W20111   5.303  40.846   0.832
58449W        W20112   1.892  33.076  10.416
58450W        W20113  25.650  35.547   3.681
58451W        W20114   8.282  37.439   0.887
58452W        W20115  44.793  44.964  10.474
58453W        W20116  28.985  38.854   0.252
58454W        W20117  24.979  38.403   2.377
58455W        W20118  31.132  41.035  10.980
58456W        W20119   5.839  36.440  14.303
58457W        W20120   7.241  26.025  14.971
58458W        W20121  23.600  34.891   4.114
58459W        W20122  41.865  25.197  10.601
58460W        W20123  41.537  36.034   0.466
58461W        W20124  21.250  17.215  13.832
58462W        W20125  10.740  33.517  11.403
58463W        W20126  24.081  32.906  13.042
58464W        W20127  37.555  22.030  10.570
58465W        W20128  43.288  44.281  10.974
58466W        W20129  19.218  31.118  12.352
58467W        W20130  11.239  10.825   2.279
58468W        W20131  10.286   2.955  13.989
58469W        W20132  36.074  36.457   0.449
58470W        W20133  11.807  27.477  12.974
58471W        W20134   7.306  33.612  13.313
58472W        W20135  25.597  27.990   4.236
58473W        W20136  24.116  26.172  14.286
58474W        W20137  42.512  17.131   2.797
58475W        W20138  15.589   6.759   3.184
58476W        W20139  15.131   3.814   0.770
58477W        W20140  18.622  19.708   5.234
58478W        W20141  33.113  25.548   0.903
58479W        W20142  36.460  33.405  10.985
58480W        W20143   2.781   4.251   0.814
58481W        W20144  16.771  21.554  11.981
58482W        W20145   2.791  37.062   4.663
58483W        W20146   7.686  24.046   4.179
58484W        W20147   5.254   5.248  10.415
58485W        W20148  35.515  26.095  11.498
58486W        W20149  18.076  37.942   4.171
58487W        W20150  13.111  22.246   3.846
58488W        W20151   0.270  29.649  12.840
58489W        W20152  39.414  29.134  10.891
58490W        W20153  12.302  41.518  13.530
58491W        W20154  16.778  21.054   2.843
58492W        W20155  15.788  31.531   4.693
58493W        W20156   0.806   4.360  11.892
58494W        W20157  13.810  21.742   4.115
58495W        W20158  12.703  40.842   0.881
58496W        W20159  36.960   0.274   0.396
58497W        W20160   4.859  34.557   3.366
58498W        W20161   5.435  26.075   1.921
58499W        W20162  33.604  30.154  11.892
58500W        W20163  44.863  16.268  13.339
58501W        W20164   5.921  32.631  13.545
58502W        W20165  25.992  40.486  10.933
58503W        W20166  40.897   1.954  10.613
58504W        W20167   5.883  37.030  13.005
58505W        W20168  31.545  13.684   0.413
58506W        W20169  43.438  40.544  13.984
58507W        W20170  33.946  31.595  11.928
58508W        W20171  11.310  17.100   3.189
58509W        W20172  13.785  40.847   2.671
58510W        W20173  13.644  41.021   4.169
58511W        W20174   2.821  23.729   4.701
58512W        W20175  38.451  33.568  14.406
58513W        W20176   1.442  29.168   2.802
58514W        W20177  34.936   8.406  12.428
58515W        W20178  28.994  11.269   4.137
58516W        W20179  13.625  14.828  13.838
58517W        W20180  31.554   3.805  12.094
58518W        W20181  37.434  17.188   5.155
58519W        W20182   6.426  23.047   2.825
58520W        W20183  41.459   6.839  11.898
58521W        W20184   0.973  32.901  10.438
58522W        W20185  27.557  42.915   0.885
58523W        W20186  25.621  15.180   3.765
58524W        W20187  34.584  43.941   3.205
58525W        W20188  26.194   3.328   2.273
58526W        W20189  15.105   0.272   4.284
58527W        W20190  42.296  36.999   0.280
58528W        W20191  21.568   4.773  11.548
58529W        W20192  39.831  12.355   3.211
58530W        W20193   1.959   5.920   1.229
58531W        W20194  35.100  18.180   5.286
58532W        W20195  26.477  33.447   4.142
58533W        W20196  38.541  28.466  14.937
58534W        W20197  42.370  24.514   3.825
58535W        W20198  41.389  12.223   2.886
58536W        W20199   7.391  39.056  11.988
58537W        W20200  17.612  33.465  11.089
58538W        W20201  27.567   6.683   4.202
58539W        W20202  35.487  33.505   2.323
58540W        W20203  26.004  10.713  10.522
58541W        W20204  41.340  21.586   3.245
58542W        W20205  30.560   7.330  12.940
58543W        W20206  19.213  43.856   1.443
58544W        W20207   4.806  39.326  11.508
58545W        W20208  29.010   9.784   2.309
58546W        W20209  17.128   7.779  12.505
58547W        W20210  41.928   3.370   4.172
58548W        W20211  33.948   3.426   3.332
58549W        W20212  21.710  30.931   1.388
58550W        W20213  29.539  13.625  12.060
58551W        W20214  16.126  24.622  11.901
58552W        W20215   5.867  11.147  13.971
58553W        W20216  36.568  18.088  14.025
58554W        W20217   8.876   3.313  12.062
58555W        W20218   3.348  20.601  10.490
58556W        W20219  24.187  18.600  14.833
58557W        W20220  38.851   6.192  14.790
58558W        W20221  23.214  34.916  13.364
58559W        W20222   8.266  36.560  12.036
58560W        W20223  18.613  30.963   0.744
58561W        W20224   7.361  25.541  14.328
58562W        W20225   7.793  15.121   1.404
58563W        W20226  29.459  25.024   3.187
58564W        W20227   0.425  30.467  12.497
58565W        W20228  17.147  26.599   1.358
58566W        W20229  21.061  18.062  13.529
58567W        W20230   9.275   6.331  14.980
58568W        W20231  21.725  42.324  14.862
58569W        W20232  25.548  24.662   1.275
58570W        W20233  33.915  22.696  13.412
58571W        W20234  18.162  13.317   3.814
58572W        W20235  23.036  29.134  10.641
58573W        W20236   3.319  14.282  10.641
58574W        W20237   3.252  33.930  13.940
58575W        W20238  38.952  29.054  10.575
58576W        W20239  44.755  34.500  12.027
58577W        W20240  11.230  40.524  13.959
58578W        W20241   0.870  43.829  13.908
58579W        W20242  21.241  22.169   0.922
58580W        W20243  17.225   3.246  14.862
58581W        W20244  11.765  17.104  14.892
58582W        W20245  43.387  17.287   3.312
58583W        W20246  34.888  23.068   0.264
58584W        W20247  27.666  22.184   2.794
58585W        W20248   5.805  38.402  11.034
58586W        W20249  30.128  40.883   4.255
58587W        W20250   6.834  32.408   4.263
58588W        W20251  19.094  38.950  13.334
58589W        W20252  13.630   9.726   2.235
58590W        W20253  32.065   7.775   2.711
58591W        W20254  24.663   9.363  14.011
58592W        W20255  37.553  13.320  13.386
58593W        W20256  30.439  20.271  11.878
58594W        W20257  25.023   7.344   3.234
58595W        W20258  39.445  23.109   4.223
58596W        W20259  25.210  15.810   1.883
58597W        W20260  27.471  12.223  13.933
58598W        W20261  43.884  21.700   1.324
58599W        W20262  39.355  31.547   2.691
58600W        W20263  14.816   7.408  12.970
58601W        W20264  36.471   4.814   3.773
58602W        W20265   5.436  31.558  12.446
58603W        W20266  33.571  32.466  14.493
58604W        W20267  44.458  25.069   3.189
58605W        W20268  42.314  15.583   4.133
58606W        W20269  12.783  42.350  10.950
58607W        W20270   7.223  38.030  12.065
58608W        W20271  19.091  12.224   4.334
58609W        W20272  34.498  36.509   4.620
58610W        W20273  14.184  29.572  14.004
58611W        W20274  43.896  31.089  12.894
58612W        W20275  10.762   2.775   4.208
58613W        W20276  18.268  13.212   0.868
58614W        W20277  36.910  36.513  13.511
58615W        W20278  26.640  40.840   0.281
58616W        W20279   7.293  30.527  11.939
58617W        W20280  36.063  39.058   3.168
58618W        W20281   8.749  42.904   2.295
58619W        W20282   0.414  41.476  14.879
58620W        W20283   3.931  41.901   1.736
58621W        W20284   3.785  38.882   2.410
58622W        W20285  26.057  44.938   0.271
58623W        W20286  31.616   6.332   0.300
58624W        W20287  20.081  37.465  12.054
58625W        W20288  34.121  27.473   3.307
58626W        W20289  11.739  21.576   2.366
58627W        W20290  15.281  25.695   2.306
58628W        W20291   1.888  23.515  11.974
58629W        W20292  17.282   2.750  12.434
58630W        W20293  31.493  16.766  10.934
58631W        W20294   4.438  44.888   3.746
58632W        W20295  17.587   3.250  13.968
58633W        W20296  19.723  27.974   1.321
58634W        W20297  22.543   0.437  14.971
58635W        W20298  15.097  23.033   3.854
58636W        W20299   6.768  32.619   1.259
58637W        W20300   5.419  17.588   1.745
58638W        W20301  11.173  25.116   4.315
58639W        W20302  15.817  43.473   1.711
58640W        W20303  12.706   0.461   2.212
58641W        W20304  34.049  40.461   1.222
58642W        W20305  34.584   1.874  11.892
58643W        W20306  36.917  14.297  11.602
58644W        W20307   4.415   2.959   4.721
58645W        W20308  13.669  27.680  13.909
58646W        W20309   2.410  11.184   4.686
58647W        W20310  11.242  24.577  12.932
58648W        W20311  11.174  44.310   0.766
58649W        W20312   4.730  22.500  12.990
58650W        W20313  41.488  16.146  13.955
58651W        W20314  27.101  42.898   5.258
58652W        W20315  42.840  36.053  12.973
58653W        W20316  10.209  23.539   1.428
58654W        W20317  43.787  42.002   4.241
58655W        W20318  26.075  31.577  12.940
58656W        W20319  21.238   9.235   4.354
58657W        W20320  31.054  13.253   2.727
58658W        W20321  15.084   5.769   2.771
58659W        W20322  39.360   9.645   3.237
58660W        W20323   2.789  32.558  10.406
58661W        W20324   6.411  36.431  11.516
58662W        W20325  14.817  28.009  10.085
58663W        W20326  18.288  24.040   3.315
58664W        W20327  34.032  34.461  12.394
58665W        W20328   8.211   2.850  13.377
58666W        W20329  40.031   3.448   1.809
58667W        W20330  35.007  10.156  10.563
58668W        W20331  21.234  32.494  10.973
58669W        W20332  24.712  27.142  10.442
58670W        W20333  18.164  24.175   4.280
58671W        W20334  39.365   3.433   0.439
58672W        W20335  18.262  11.258   0.789
58673W        W20336  37.494   4.387  13.039
58674W        W20337  40.002  30.103  14.809
58675W        W20338  11.847  15.669   1.427
58676W        W20339  31.088  16.233  10.632
58677W        W20340  28.594  11.318   1.441
58678W        W20341  14.158  22.741  14.831
58679W        W20342  32.942  43.814   3.386
58680W        W20343  11.697  23.497  12.526
58681W        W20344  16.199   8.672   1.840
58682W        W20345  23.215  40.544   2.802
58683W        W20346   1.827  39.328   4.338
58684W        W20347  38.447  16.737  14.890
58685W        W20348  27.612  35.568  12.902
58686W        W20349  22.663  24.705   1.816
58687W        W20350  25.129   6.390   2.712
58688W        W20351   7.888  17.709   4.735
58689W        W20352  29.640  29.639  11.048
58690W        W20353   2.470  30.421   4.710
58691W        W20354  20.221  11.833  11.441
58692W        W20355   1.807   9.196   3.178
58693W        W20356  28.620  37.508  12.452
58694W        W20357   9.801  32.937  10.584
58695W        W20358   5.237  40.499  13.891
58696W        W20359  13.287   9.381  14.349
58697W        W20360  38.416  29.517  14.823
58698W        W20361  32.585  10.325   2.756
58699W        W20362  20.105  41.505  12.385
58700W        W20363  20.700  21.050   1.828
58701W        W20364  37.010   6.905   1.401
58702W        W20365  19.131  24.710  10.541
58703W        W20366  30.535   6.909   1.288
58704W        W20367  22.157  32.437  13.451
58705W        W20368  32.431   3.891   0.325
58706W        W20369   8.215  12.292   4.769
58707W        W20370  14.709  38.449   1.849
58708W        W20371  22.726  41.457  11.066
58709W        W20372  21.110  15.229  12.410
58710W        W20373  13.812  42.960  10.517
58711W        W20374  35.410  25.975   1.279
58712W        W20375  28.582   7.777  13.036
58713W        W20376  38.061  26.189  12.006
58714W        W20377  39.924  27.079   1.325
58715W        W20378  19.254  19.600   4.821
58716W        W20379  28.476   5.249   4.314
58717W        W20380  15.165  27.450   2.273
58718W        W20381  18.744  26.579   0.729
58719W        W20382  43.442  21.574  13.350
58720W        W20383  41.367  44.268  10.927
58721W        W20384  27.498  35.413   1.823
58722W        W20385  32.946  21.136   1.790
58723W        W20386  13.713  10.868   0.855
58724W        W20387  34.986  23.688  11.859
58725W        W20388  42.989   1.787  12.030
58726W        W20389  22.087  13.684   3.802
58727W        W20390  24.525  15.753   2.213
58728W        W20391  21.049   1.770  12.434
58729W        W20392  22.031   3.735   9.507
58730W        W20393   7.849  12.701  13.009
58731W        W20394  38.509  28.119  11.024
58732W        W20395  30.930  40.352   9.998
58733W        W20396  27.974  10.635   1.290
58734W        W20397  23.633  15.799   3.369
58735W        W20398  40.513  26.675   1.299
58736W        W20399  41.999   8.836   5.273
58737W        W20400  29.623  33.448   1.237
58738W        W20401   3.300  38.832   3.321
58739W        W20402  11.231  38.069   4.114
58740W        W20403   9.708   9.816   4.253
58741W        W20404  34.569  24.609   0.960
58742W        W20405  40.978  29.602  14.838
58743W        W20406   0.969  36.973   4.223
58744W        W20407  22.154  28.666  14.954
58745W        W20408  34.015   3.238   2.888
58746W        W20409  33.436   4.873   0.734
58747W        W20410   0.308  14.626  14.881
58748W        W20411   2.307  17.234  13.849
58749W        W20412  36.371  37.535   0.928
58750W        W20413   4.308  20.574  13.515
58751W        W20414  28.543   2.239   2.381
58752W        W20415  42.030  13.831  12.546
58753W        W20416  23.986   5.315   5.784
58754W        W20417  16.178   3.440  10.970
58755W        W20418  30.070  41.347   0.317
58756W        W20419  17.285  17.193   0.307
58757W        W20420  17.712  37.455   4.155
58758W        W20421  22.712  22.639   1.377
58759W        W20422   1.311  10.345   1.924
58760W        W20423  24.992  40.952   2.339
58761W        W20424  14.219  39.029  12.086
58762W        W20425   8.284  27.682  11.114
58763W        W20426   3.924  38.558   0.779
58764W        W20427  24.179  40.404   9.992
58765W        W20428  40.830  38.551  13.956
58766W        W20429   9.804   9.736  14.777
58767W        W20430  10.221  23.591  13.412
58768W        W20431  21.191  33.527   1.225
58769W        W20432  40.012  34.491  11.512
58770W        W20433  10.717   7.372   3.847
58771W        W20434  41.990  28.663  12.375
58772W        W20435  27.469  26.623   5.655
58773W        W20436  40.549  16.094  14.863
58774W        W20437  36.983  32.615   1.912
58775W        W20438  31.990   2.782  13.533
58776W        W20439   4.841  21.254  13.900
58777W        W20440   1.813  32.028   1.362
58778W        W20441  23.521  20.168   4.240
58779W        W20442  31.043   7.840  13.993
58780W        W20443   1.811  15.115  13.047
58781W        W20444  29.668  12.286   3.829
58782W        W20445  41.534  23.201   1.370
58783W        W20446  41.906   3.937  14.356
58784W        W20447  44.348   7.255   0.348
58785W        W20448  23.711  38.456  12.953
58786W        W20449   7.330  25.609  10.508
58787W        W20450  28.985  33.921   4.254
58788W        W20451   6.403  26.050   3.251
58789W        W20452  11.855  18.134  11.572
58790W        W20453  31.405  44.271   3.298
58791W        W20454  20.652   8.239   2.256
58792W        W20455  11.797   9.232   2.693
58793W        W20456  18.258   6.689  10.518
58794W        W20457  14.109   3.265  13.432
58795W        W20458  34.438   0.827   4.677
58796W        W20459  36.481  40.995   3.868
58797W        W20460  33.557   1.755  12.884
58798W        W20461   1.738  14.222   2.334
58799W        W20462  26.128   8.378  14.305
58800W        W20463  14.175   5.786  13.428
58801W        W20464  37.917  22.580  13.467
58802W        W20465  18.709   1.428  12.936
58803W        W20466  34.540  26.170  13.473
58804W        W20467  15.261  41.428  13.795
58805W        W20468  18.633  43.788   2.752
58806W        W20469   3.942  28.566   2.259
58807W        W20470  20.530  18.059   0.911
58808W        W20471  17.090  21.245   1.721
58809W        W20472  27.036   3.248   2.298
58810W        W20473  32.469  15.199  12.457
58811W        W20474  28.576  29.094   1.339
58812W        W20475  22.192  27.148   3.731
58813W        W20476  12.645  28.053  11.450
58814W        W20477   3.943   7.786  11.882
58815W        W20478  43.767  30.518   1.444
58816W        W20479  44.962   4.292   0.298
58817W        W20480  43.961   1.768   2.257
58818W        W20481  36.422  36.873  10.944
58819W        W20482  44.878  31.516   2.791
58820W        W20483  13.606  22.195  11.470
58821W        W20484  14.223  44.772   3.192
58822W        W20485   3.307  14.713   0.378
58823W        W20486  31.462   7.910   1.754
58824W        W20487  22.731   7.880  11.606
58825W        W20488  12.215  33.923  11.934
58826W        W20489  18.637  33.510   3.331
58827W        W20490  31.104  21.021  14.932
58828W        W20491  16.570  14.192   5.783
58829W        W20492  13.735  43.429   1.877
58830W        W20493  23.695  21.128   5.141
58831W        W20494  40.470  15.786  14.459
58832W        W20495  36.384  25.200  12.486
58833W        W20496  25.085  44.483   3.843
58834W        W20497  10.670  18.079   3.764
58835W        W20498  22.740  44.944  12.958
58836W        W20499  28.995  18.188   4.223
58837W        W20500  26.530  15.726  11.384
58838W        W20501  22.063   0.827   3.152
58839W        W20502  27.505  21.599  11.598
58840W        W20503   4.933  28.011   3.748
58841W        W20504   4.923  41.495   3.319
58842W        W20505   9.714  11.711   0.275
58843W        W20506  40.327  12.697  12.058
58844W        W20507  22.652  15.277   0.376
58845W        W20508  23.489  28.047   3.820
58846W        W20509  23.540  41.294   0.299
58847W        W20510   0.394   4.916   0.323
58848W        W20511  40.844  35.064   4.686
58849W        W20512  24.708  20.628  12.941
58850W        W20513   6.793  26.041  11.534
58851W        W20514  21.111  44.477  11.488
58852W        W20515  38.012  44.465   3.817
58853W        W20516   4.885  42.386  14.415
58854W        W20517  12.799   8.297  12.574
58855W        W20518  16.279  13.342   3.648
58856W        W20519  25.966   1.897   2.242
58857W        W20520  24.097  19.706   3.317
58858W        W20521   6.397  18.096   3.211
58859W        W20522  35.562  29.002  13.454
58860W        W20523  30.652  20.202  12.392
58861W        W20524  26.641  42.402   5.755
58862W        W20525   2.943  16.586   3.729
58863W        W20526  34.925  36.390  14.465
58864W        W20527   7.258   1.413   4.694
58865W        W20528  18.627  43.421  14.847
58866W        W20529  42.352   1.897   0.341
58867W        W20530  21.227  30.471  12.402
58868W        W20531  19.222   1.884   3.387
58869W        W20532  20.113   2.913  10.927
58870W        W20533  32.085  27.962  11.438
58871W        W20534  19.650  40.488  11.065
58872W        W20535  34.905   4.745  14.411
58873W        W20536  19.637  13.738   2.313
58874W        W20537   9.797  44.908  10.975
58875W        W20538   8.775  41.993   2.302
58876W        W20539  14.683  10.173   1.213
58877W        W20540  37.571  30.478  13.880
58878W        W20541  35.011  28.966   3.160
58879W        W20542   2.735   6.885  14.496
58880W        W20543  22.631   3.781  10.093
58881W        W20544  16.132  38.923   3.822
58882W        W20545  35.912  33.063  11.422
58883W        W20546  12.835  26.129  13.041
58884W        W20547  19.101  27.580  12.028
58885W        W20548  27.531  12.839  11.412
58886W        W20549  24.024   1.404   3.386
58887W        W20550   7.309  38.885   0.291
58888W        W20551  29.596  32.141   1.316
58889W        W20552  30.940  41.908   2.184
58890W        W20553  22.597   7.720  14.329
58891W        W20554  28.476  13.260   0.820
58892W        W20555   2.259  41.804  13.001
58893W        W20556  30.030  23.714  13.540
58894W        W20557  26.970  28.508  10.566
58895W        W20558  30.933  11.154  11.050
58896W        W20559  30.982  13.761   2.238
58897W        W20560  43.329  38.891   0.871
58898W        W20561   8.384  16.134  12.828
58899W        W20562  25.028  16.204  14.313
58900W        W20563  28.087  32.913   2.728
58901W        W20564   2.896  20.724  13.990
58902W        W20565   9.730  43.006  13.516
58903W        W20566   6.845  38.542  11.075
58904W        W20567   4.414  18.064   2.750
58905W        W20568  38.412  25.963   3.721
58906W        W20569  10.351   3.362  11.899
58907W        W20570  41.821  15.795  14.879
58908W        W20571  40.845   9.173   0.459
58909W        W20572  30.449  30.056   1.266
58910W        W20573  44.936   4.942   3.786
58911W        W20574  14.816   6.384   0.732
58912W        W20575   4.381   0.263   0.277
58913W        W20576   6.682  18.215   0.770
58914W        W20577  40.450  10.264   1.388
58915W        W20578  24.107  32.603   2.685
58916W        W20579  14.757  12.703  11.977
58917W        W20580   5.847  26.145   3.167
58918W        W20581  29.477   2.258   1.887
58919W        W20582  40.828  41.419  13.042
58920W        W20583  14.790  12.691   3.248
58921W        W20584  36.448  38.029   2.332
58922W        W20585   7.212  28.930   3.287
58923W        W20586  13.269   1.829  14.930
58924W        W20587   6.273  31.451   2.869
58925W        W20588   3.423  40.422  11.070
58926W        W20589  11.189   9.231   2.179
58927W        W20590   8.848  36.425   1.930
58928W        W20591  10.285  12.649   1.308
58929W        W20592  34.960   5.833  12.846
58930W        W20593  27.613  32.950   2.777
58931W        W20594  18.545  25.576  13.004
58932W        W20595  33.392  28.611  10.949
58933W        W20596  14.628  10.700   3.386
58934W        W20597  23.639  43.312  11.502
58935W        W20598  29.011  19.104   4.290
58936W        W20599  16.141  40.987   2.283
58937W        W20600  19.156   7.313  10.998
58938W        W20601   2.966  16.170   2.816
58939W        W20602  35.901  34.938  13.424
58940W        W20603  29.587  16.168  11.488
58941W        W20604   4.803  29.975   3.838
58942W        W20605   5.215  12.121  12.044
58943W        W20606  42.796  35.548   0.771
58944W        W20607  28.971  41.494  10.451
58945W        W20608  20.757  28.046   2.368
58946W        W20609   7.692  25.649   1.213
58947W        W20610  32.473   0.984   0.785
58948W        W20611   2.739  43.312   4.716
58949W        W20612  22.667  32.629  11.948
58950W        W20613  34.438  44.463  13.969
58951W        W20614   1.362  30.493  13.527
58952W        W20615  13.167   4.316   2.683
58953W        W20616   5.736  14.737  13.431
58954W        W20617   8.682   6.862  13.959
58955W        W20618  25.590  36.010   2.854
58956W        W20619   3.846  39.411   0.962
58957W        W20620  36.358   7.300  14.345
58958W        W20621   6.411  36.039   2.759
58959W        W20622  26.080   5.371  14.366
58960W        W20623  12.153   0.461  14.900
58961W        W20624  21.036  26.179  13.933
58962W        W20625  21.073  26.547   4.701
58963W        W20626  27.450  36.917   1.924
58964W        W20627  19.705   7.805   3.279
58965W        W20628  14.116   7.667  12.402
58966W        W20629  37.886   9.863   3.786
58967W        W20630  13.210  25.180  14.309
58968W        W20631   1.870  24.641  10.638
58969W        W20632   3.338  31.558  14.349
58970W        W20633  32.430   8.283   3.762
58971W        W20634   7.754   2.317   2.348
58972W        W20635   9.831  33.883   2.901
58973W        W20636   0.880  23.704  10.053
58974W        W20637  23.654  23.162  14.975
58975W        W20638  28.140  19.137  10.595
58976W        W20639  22.196  43.802  14.290
58977W        W20640  28.013  41.512   5.222
58978W        W20641   6.834  11.805   0.452
58979W        W20642  28.566   8.751  13.413
58980W        W20643  13.129  30.063  14.303
58981W        W20644   1.837   5.385  10.957
58982W        W20645  34.399  19.046  11.415
58983W        W20646  32.623   3.417  10.557
58984W        W20647  20.045  36.465  13.482
58985W        W20648  11.794  44.369  12.459
58986W        W20649  24.689   8.251  13.500
58987W        W20650  18.293  14.696  12.944
58988W        W20651   1.940   0.960  10.490
58989W        W20652   1.921  28.618   1.246
58990W        W20653  36.843  39.839  14.418
58991W        W20654  32.062   2.354   4.241
58992W        W20655  20.156  25.206  14.846
58993W        W20656  39.897  27.978   3.830
58994W        W20657  19.272  31.992   3.303
58995W        W20658   1.852  11.241   1.791
58996W        W20659  37.053  23.563  13.977
58997W        W20660   2.264  25.546  12.349
58998W        W20661   5.690  41.537   4.602
58999W        W20662  40.908  31.445   3.256
59000W        W20663  39.320  10.634   0.858
59001W        W20664   2.273   9.820  13.389
59002W        W20665  13.349  34.993  11.027
59003W        W20666  12.701  41.338  14.438
59004W        W20667  15.153  39.939   2.179
59005W        W20668  37.065  34.577  12.001
59006W        W20669  16.642  13.229   3.265
59007W        W20670   4.296  18.063  12.441
59008W        W20671  11.849  22.515  13.027
59009W        W20672  42.795  24.078   4.663
59010W        W20673  20.658  32.575   4.767
59011W        W20674  17.184   5.720   4.228
59012W        W20675   6.397   7.261   4.214
59013W        W20676   8.785  42.998   1.760
59014W        W20677  12.766  28.456  13.895
59015W        W20678  12.805  35.448   0.480
59016W        W20679  44.896  33.442  14.955
59017W        W20680  14.630  23.070  11.992
59018W        W20681  13.667  33.532   3.768
59019W        W20682  20.577  30.923   2.329
59020W        W20683   1.335   8.305  11.932
59021W        W20684  25.552  42.937   1.334
59022W        W20685   7.719  40.018   3.180
59023W        W20686  14.704  18.696   4.829
59024W        W20687  10.155   6.728   2.664
59025W        W20688   4.760   0.399   3.346
59026W        W20689  27.173  37.445  10.601
59027W        W20690  15.593  14.592   5.129
59028W        W20691  35.528  23.690   4.813
59029W        W20692  40.867   7.198  10.049
59030W        W20693  20.067  14.833   2.365
59031W        W20694  21.578  25.529  14.345
59032W        W20695  35.404  36.894   3.146
59033W        W20696   7.210  33.600   1.700
59034W        W20697  20.185  28.059  13.042
59035W        W20698   0.965  40.010  10.896
59036W        W20699  25.519   3.923   4.605
59037W        W20700  26.167  26.116   1.349
59038W        W20701  37.368   3.732  13.806
59039W        W20702  42.944  13.694   1.381
59040W        W20703  14.222  27.501   3.706
59041W        W20704  13.658  42.778   1.348
59042W        W20705  42.942  41.041   0.396
59043W        W20706  31.092  25.198  11.867
59044W        W20707  12.269   4.266  10.422
59045W        W20708  39.375   4.703  11.013
59046W        W20709  35.428  14.253   4.117
59047W        W20710  17.694  14.828  13.835
59048W        W20711  15.203  35.469   4.809
59049W        W20712  13.224  25.635   4.313
59050W        W20713   9.759  29.984  11.002
59051W        W20714  20.621  39.891   1.771
59052W        W20715  41.954  15.237   3.779
59053W        W20716  33.559  14.639  14.461
59054W        W20717  25.048  25.628   2.738
59055W        W20718  29.552  17.586  13.989
59056W        W20719   5.212  35.937   0.265
59057W        W20720   0.928   0.980   4.689
59058W        W20721  19.631   1.282   4.224
59059W        W20722  43.320   3.861  14.346
59060W        W20723  15.271  16.649   0.441
59061W        W20724  36.032  31.475   1.824
59062W        W20725  23.016  14.315  14.972
59063W        W20726  33.912   0.368   2.181
59064W        W20727   4.304  28.075  12.841
59065W        W20728  44.481  44.903  14.805
59066W        W20729  28.986  37.550   3.270
59067W        W20730  40.852   4.737  13.975
59068W        W20731   5.256  10.253   4.354
59069W        W20732  16.100  28.969   0.317
59070W        W20733  32.132  44.386   3.218
59071W        W20734  13.729  42.413   4.685
59072W        W20735  30.469  41.410   0.391
59073W        W20736   0.968  37.073  12.989
59074W        W20737  29.670  23.210   2.339
59075W        W20738  23.003  41.319   4.620
59076W        W20739   4.288  23.679  11.959
59077W        W20740  34.502  39.016   2.309
59078W        W20741  35.359  34.578  13.419
59079W        W20742  17.093  38.872   1.324
59080W        W20743  36.406   1.798   0.326
59081W        W20744  13.604  12.281  12.556
59082W        W20745  39.447  11.247  13.940
59083W        W20746  10.811  35.500  13.998
59084W        W20747  32.581  26.598  13.873
59085W        W20748  31.135  22.014  14.812
59086W        W20749  18.650  44.999  10.643
59087W        W20750  34.588   0.894   4.343
59088W        W20751  22.036  27.077  12.915
59089W        W20752  30.599  29.581  11.102
59090W        W20753  27.986  32.992   4.806
59091W        W20754  15.591   1.745  11.486
59092W        W20755  38.555  43.475  14.317
59093W        W20756  37.423  33.495  13.464
59094W        W20757  42.918   3.868  12.579
59095W        W20758  40.033  43.970  11.084
59096W        W20759  20.180  14.735   1.725
59097W        W20760  24.040  30.131   4.726
59098W        W20761  14.276  23.701  12.944
59099W        W20762  16.721  14.234  11.095
59100W        W20763  29.543  42.449   2.743
59101W        W20764   5.861  39.940  11.009
59102W        W20765  10.377   2.372   1.719
59103W        W20766  13.279   5.709   2.283
59104W        W20767  10.806  17.800  11.120
59105W        W20768  10.740   1.874   0.926
59106W        W20769   5.193  22.653   2.194
59107W        W20770   5.928  44.338  14.350
59108W        W20771  27.149  20.268   3.201
59109W        W20772  43.926  19.656  10.532
59110W        W20773  39.387   6.790  11.999
59111W        W20774  24.003  31.511   0.454
59112W        W20775  38.394  25.203   3.833
59113W        W20776  13.330  19.098   0.797
59114W        W20777  41.963   2.321   4.184
59115W        W20778  41.534   1.736   0.292
59116W        W20779  27.013  12.291  14.468
59117W        W20780  27.084  44.342   4.764
59118W        W20781  16.726   8.228   2.214
59119W        W20782  37.857  10.212   2.891
59120W        W20783  33.402   9.873   2.353
59121W        W20784  26.083  41.915   4.669
59122W        W20785  42.931  42.981   5.303
59123W        W20786   3.387   2.909  11.527
59124W        W20787   3.746  33.484   9.950
59125W        W20788  10.747  24.664  12.942
59126W        W20789  12.752  18.084   3.331
59127W        W20790  11.244  27.466   1.833
59128W        W20791  11.828  15.111  14.946
59129W        W20792  28.144  21.027  13.913
59130W        W20793  19.542  29.040   0.269
59131W        W20794  35.864  11.140   1.762
59132W        W20795  44.946   0.892   2.415
59133W        W20796  23.019  43.337  13.416
59134W        W20797  14.109   8.735   9.992
59135W        W20798  28.564   1.934   1.346
59136W        W20799   0.427   2.891  13.977
59137W        W20800  39.883  25.142  12.095
59138W        W20801   7.369  25.529   0.281
59139W        W20802  17.756   6.715   2.685
59140W        W20803  23.029   3.832   4.205
59141W        W20804  19.247  27.059  13.927
59142W        W20805  44.473  10.313   1.437
59143W        W20806  14.814  32.930   4.303
59144W        W20807  25.517  39.403  14.318
59145W        W20808  21.130  21.096   0.341
59146W        W20809  24.531  10.765   2.699
59147W        W20810  34.483  12.738  12.457
59148W        W20811  15.748  36.553   1.886
59149W        W20812  42.448  29.973   4.658
59150W        W20813  34.415  40.532   0.399
59151W        W20814   2.367  14.819  12.518
59152W        W20815  29.150   7.267   0.967
59153W        W20816  42.868  11.154  14.936
59154W        W20817  20.198  44.312   2.255
59155W        W20818  44.936  28.441   4.228
59156W        W20819  25.570  10.794   4.203
59157W        W20820  20.061  18.743   3.820
59158W        W20821  35.901  39.993   4.245
59159W        W20822  19.555  25.611   0.264
59160W        W20823   1.278  28.471  14.841
59161W        W20824  30.000   2.929   3.241
59162W        W20825   5.384  27.119  14.871
59163W        W20826  22.539  16.299  10.970
59164W        W20827  38.992  38.858   3.384
59165W        W20828  35.869  43.404   1.699
59166W        W20829  36.084  44.493   4.243
59167W        W20830  34.939  33.971   0.940
59168W        W20831  29.454   8.721  10.079
59169W        W20832  33.543  33.095   0.245
59170W        W20833  15.192  32.527   4.771
59171W        W20834  33.440  23.108  12.474
59172W        W20835  25.963   5.242  11.403
59173W        W20836   1.746  43.456   2.825
59174W        W20837   7.672  25.074   4.339
59175W        W20838  41.315   8.395   2.271
59176W        W20839  31.508   1.869   0.940
59177W        W20840   8.243  19.107   4.626
59178W        W20841  38.557  14.304   3.317
59179W        W20842  29.588  18.288   4.341
59180W        W20843  22.183  43.490  11.991
59181W        W20844  38.878   8.315  14.333
59182W        W20845  24.082   8.898  10.977
59183W        W20846  27.037  39.554  11.384
59184W        W20847  35.865  22.074   0.939
59185W        W20848  42.987   4.336   3.365
59186W        W20849  24.116   6.335  10.132
59187W        W20850  34.102  12.150  13.455
59188W        W20851  37.530   7.246   1.338
59189W        W20852  27.677  10.377  10.123
59190W        W20853  14.338  12.748   0.384
59191W        W20854  15.640  18.552  12.026
59192W        W20855  37.459  39.438  14.013
59193W        W20856  32.910   2.340  14.357
59194W        W20857  39.855  10.762   2.253
59195W        W20858  23.988  10.812   1.905
59196W        W20859  21.222  23.170   4.328
59197W        W20860  35.855  11.140   1.371
59198W        W20861   8.213   4.214   1.347
59199W        W20862  19.063   0.382  12.490
59200W        W20863  27.137   7.207   1.928
59201W        W20864  23.589  16.248   0.247
59202W        W20865  17.619  31.988  12.971
59203W        W20866  11.644  41.953   0.746
59204W        W20867   6.678  43.016  14.460
59205W        W20868  38.062  15.705  13.025
59206W        W20869  38.462  43.809  13.375
59207W        W20870  10.186  21.089  12.836
59208W        W20871  12.162  18.189   2.822
59209W        W20872  31.575  41.420   0.428
59210W        W20873   6.790  18.283  11.862
59211W        W20874   7.714  18.786   1.246
59212W        W20875  12.812  34.503   3.737
59213W        W20876   0.814  38.413  12.898
59214W        W20877  16.796  36.381  10.489
59215W        W20878   3.392  16.705  10.569
59216W        W20879  22.141  31.647  14.945
59217W        W20880  24.550  37.495  10.572
59218W        W20881   2.286   8.850  12.534
59219W        W20882  15.736  21.608   3.171
59220W        W20883  21.249  23.552  11.918
59221W        W20884  33.385  27.146   3.725
59222W        W20885   5.899  23.161   1.214
59223W        W20886  25.195  24.629   0.278
59224W        W20887   4.371  22.176   3.758
59225W        W20888  20.677  31.912  11.886
59226W        W20889  37.014  28.624  14.837
59227W        W20890  23.237  21.617   0.867
59228W        W20891   0.880   1.795   1.881
59229W        W20892  15.630   6.252   0.356
59230W        W20893  44.758  13.313   1.900
59231W        W20894   8.785  40.034  12.872
59232W        W20895   6.252  18.266   3.862
59233W        W20896  28.643  39.452   4.597
59234W        W20897   6.335  36.993  13.961
59235W        W20898  20.678   3.243  13.952
59236W        W20899  44.881   5.274  10.428
59237W        W20900  43.848  35.555   4.820
59238W        W20901  17.568  38.047  11.034
59239W        W20902  35.539  13.324   1.288
59240W        W20903  40.389   4.733   2.840
59241W        W20904  44.871  42.956   2.184
59242W        W20905  33.582  44.938   3.327
59243W        W20906   9.276  14.222   4.832
59244W        W20907  39.992  26.616   2.379
59245W        W20908  27.060   6.752   3.309
59246W        W20909   0.841   2.319  12.346
59247W        W20910   6.840  11.866  13.986
59248W        W20911  35.046  20.147   0.925
59249W        W20912  20.068  43.481   2.773
59250W        W20913  37.495  16.142  13.893
59251W        W20914  13.263   2.242   1.910
59252W        W20915   2.303  15.139   0.292
59253W        W20916  42.329  29.551   1.842
59254W        W20917  43.831  17.295  14.350
59255W        W20918   7.331  35.069  13.955
59256W        W20919  24.171  13.227  11.061
59257W        W20920  18.644  19.260  14.845
59258W        W20921  10.725  31.539   3.276
59259W        W20922   1.776  20.627  11.870
59260W        W20923  22.600  23.583  12.355
59261W        W20924  14.609  12.731   1.695
59262W        W20925   8.303  36.082  11.870
59263W        W20926  40.000  17.141  14.422
59264W        W20927  23.124  13.243   4.648
59265W        W20928  18.242  35.952   4.270
59266W        W20929  43.985   3.721   1.752
59267W        W20930  31.517  43.347  13.513
59268W        W20931  13.734  37.832  10.015
59269W        W20932  28.169   7.291  13.034
59270W        W20933  28.154   7.769  13.015
59271W        W20934  19.630  24.480  12.529
59272W        W20935  26.962  43.346   3.800
59273W        W20936  15.089  30.982   4.773
59274W        W20937  36.432  33.027   4.150
59275W        W20938  33.016  37.868   2.273
59276W        W20939   8.239  36.390   3.220
59277W        W20940  12.215  26.025   1.732
59278W        W20941  27.669  11.635   2.836
59279W        W20942   0.791  27.198   3.766
59280W        W20943  28.618  23.510   0.940
59281W        W20944  15.149   0.280  12.970
59282W        W20945   2.790  18.145  11.894
59283W        W20946  36.857  35.382  10.576
59284W        W20947  27.027   3.220  10.469
59285W        W20948  11.291  27.462  13.474
59286W        W20949  29.601  11.705   5.217
59287W        W20950  27.532   1.974  13.924
59288W        W20951  36.005  22.527   4.815
59289W        W20952  12.344  16.722   2.275
59290W        W20953  44.001  22.569  12.943
59291W        W20954  30.589  18.565   1.705
59292W        W20955  11.843  11.148   4.246
59293W        W20956  18.627  44.008  14.936
59294W        W20957  26.181  17.235  10.508
59295W        W20958  25.090  19.276  10.955
59296W        W20959  30.463  43.787   0.274
59297W        W20960   8.298   7.722   0.742
59298W        W20961  32.407  41.454   4.774
59299W        W20962  25.626  39.945  12.908
59300W        W20963  17.128  33.459  10.545
59301W        W20964  34.107  17.690   5.249
59302W        W20965  11.173  25.581   0.327
59303W        W20966   9.224   1.817   5.138
59304W        W20967  35.852  40.408  11.923
59305W        W20968  24.653  34.581  14.874
59306W        W20969   5.755  34.446  11.104
59307W        W20970  25.582  17.106   2.833
59308W        W20971  24.215  35.454   0.343
59309W        W20972   4.354   0.866   1.868
59310W        W20973  28.629   4.774  10.474
59311W        W20974  10.769  37.353   3.267
59312W        W20975  12.741  18.079   4.323
59313W        W20976   1.843   5.333  10.631
59314W        W20977  30.606  10.305  10.916
59315W        W20978  15.661  28.500   0.749
59316W        W20979  37.884  43.985   3.784
59317W        W20980  42.796  36.523  11.471
59318W        W20981  40.855  21.711   1.267
59319W        W20982  31.647   0.881  11.003
59320W        W20983   8.806  12.857  12.498
59321W        W20984  27.095  34.449  13.996
59322W        W20985  11.711  30.097   3.344
59323W        W20986   8.196   9.795  11.373
59324W        W20987  43.803  19.149  12.004
59325W        W20988  22.651  16.308  11.388
59326W        W20989  11.771  24.644  13.791
59327W        W20990   4.348  16.186   3.748
59328W        W20991  26.033   7.841  12.386
59329W        W20992  36.944  34.876  12.025
59330W        W20993  41.916  40.382  10.552
59331W        W20994  20.120  34.869   4.168
59332W        W20995  11.361  16.672  12.383
59333W        W20996  20.538  18.161   2.334
59334W        W20997  39.913  22.047  13.793
59335W        W20998   6.714   8.369  14.355
59336W        W20999   7.847  26.952   4.672
59337W        W21000  42.980  30.992  11.019
59338W        W21001  17.300   0.310   0.740
59339W        W21002   7.793  33.582   1.212
59340W        W21003  23.061  18.169  12.978
59341W        W21004  10.812  16.170   0.915
59342W        W21005  26.065   1.864  14.976
59343W        W21006  36.355  15.739   0.781
59344W        W21007   8.801   8.706   4.836
59345W        W21008  16.670  11.825   2.834
59346W        W21009  31.981  27.042   0.293
59347W        W21010   3.824  29.514  12.413
59348W        W21011  41.902  33.015   4.259
59349W        W21012  32.425  24.018   1.787
59350W        W21013   6.837  34.069  12.032
59351W        W21014  38.871  31.129  13.995
59352W        W21015  43.353  29.115   1.723
59353W        W21016  24.112  37.982  14.283
59354W        W21017  16.112   1.339  13.993
59355W        W21018  27.041  20.069  13.863
59356W        W21019  20.263   0.397   9.938
59357W        W21020  34.593   6.423   0.399
59358W        W21021  32.017  35.557  10.941
59359W        W21022   1.311   1.456   3.212
59360W        W21023  39.352  44.430   3.376
59361W        W21024  31.927  20.751  14.009
59362W        W21025  25.992  31.417  10.600
59363W        W21026  26.474  28.455   2.418
59364W        W21027   1.889   3.334  10.961
59365W        W21028  23.019  39.500  11.593
59366W        W21029  13.162  35.590   2.242
59367W        W21030  29.115  17.770   2.795
59368W        W21031  31.418  24.568   1.785
59369W        W21032   4.925  13.110  12.511
59370W        W21033   2.815  38.072  11.457
59371W        W21034  18.268   4.285  10.897
59372W        W21035  11.838  27.068  12.525
59373W        W21036  18.178  35.019  11.378
59374W        W21037  13.772  13.141  13.811
59375W        W21038  31.932  11.683  10.403
59376W        W21039  41.900  20.225  12.344
59377W        W21040   9.255   8.714  14.357
59378W        W21041  34.868  17.737   1.384
59379W        W21042  31.572  27.958   3.695
59380W        W21043  39.913  19.068   1.302
59381W        W21044  34.455  26.009  12.473
59382W        W21045   1.452  24.106  11.001
59383W        W21046  42.281  14.653   4.640
59384W        W21047  26.116  20.241  14.317
59385W        W21048  27.129  44.003  12.511
59386W        W21049  32.113  15.150   2.370
59387W        W21050  38.397   6.737  10.546
59388W        W21051  42.937  16.296  13.954
59389W        W21052  21.086   2.847   2.195
59390W        W21053  25.557  15.298  12.027
59391W        W21054   4.755  19.677  13.000
59392W        W21055  37.454   1.467  10.415
59393W        W21056  10.702  27.187  12.462
59394W        W21057   6.871  18.283   1.284
59395W        W21058  18.217   0.763  13.321
59396W        W21059  13.611  32.493   0.390
59397W        W21060   8.881  24.036  13.804
59398W        W21061  43.362  41.973   0.931
59399W        W21062   0.425   3.905  11.035
59400W        W21063  27.962  32.125  14.965
59401W        W21064  14.214   8.191   0.887
59402W        W21065  22.592   3.809   3.359
59403W        W21066  35.861  37.471   1.863
59404W        W21067  33.392  44.854  14.770
59405W        W21068  14.793  38.879  13.547
59406W        W21069  31.968   1.434   0.810
59407W        W21070  40.496  19.144   0.333
59408W        W21071  39.397   8.657   2.793
59409W        W21072  32.516  33.986   0.822
59410W        W21073  12.718  11.647   2.870
59411W        W21074   8.739  36.012  13.374
59412W        W21075   0.348   6.725   2.387
59413W        W21076  35.943  43.901  14.422
59414W        W21077  23.678  32.078  12.960
59415W        W21078   0.867  25.566  11.067
59416W        W21079  37.902  24.710  10.629
59417W        W21080  29.645  20.702   3.677
59418W        W21081   0.850  30.514   2.859
59419W        W21082   7.411   6.315   0.899
59420W        W21083  17.174   4.899   4.223
59421W        W21084  30.102  21.219  10.948
59422W        W21085   0.286  41.981  12.373
59423W        W21086   1.258   5.803   2.291
59424W        W21087  29.172  39.006  13.912
59425W        W21088  42.281  38.389   0.955
59426W        W21089  43.934   8.273   1.414
59427W        W21090  38.861  19.176  10.911
59428W        W21091  22.503  38.538  12.899
59429W        W21092  31.083  23.198   1.858
59430W        W21093  17.294  15.789  11.924
59431W        W21094  26.021  15.180  12.576
59432W        W21095  42.017  31.090  11.894
59433W        W21096  25.185  29.657  10.506
59434W        W21097  14.309  32.426   0.845
59435W        W21098  26.139  39.483  10.914
59436W        W21099  27.495  26.133   4.251
59437W        W21100  14.655  42.328   4.251
59438W        W21101  32.436   1.479  12.377
59439W        W21102  40.353  31.116   1.802
59440W        W21103  12.799  26.675   1.825
59441W        W21104  27.589  22.656   3.148
59442W        W21105  19.612  28.023   3.332
59443W        W21106  37.982  34.409  13.309
59444W        W21107   2.302  14.825   1.884
59445W        W21108   4.928  17.647  10.940
59446W        W21109  33.600   9.785   1.252
59447W        W21110   5.829  17.716  13.828
59448W        W21111  14.795   2.246   2.409
59449W        W21112  30.965  40.945   1.906
59450W        W21113  39.398  37.421  13.969
59451W        W21114  29.952  34.429  10.641
59452W        W21115  32.424  22.535   1.351
59453W        W21116  19.759  40.312   4.789
59454W        W21117  34.920  29.137   9.931
59455W        W21118   5.315  42.336   1.932
59456W        W21119   8.776   8.811   3.359
59457W        W21120  12.153  10.344   1.762
59458W        W21121   5.261  14.226  13.383
59459W        W21122   9.817  36.089   1.400
59460W        W21123  32.398  28.026   1.850
59461W        W21124   2.375   6.210   3.696
59462W        W21125  44.496   7.253   2.847
59463W        W21126  39.426  37.566   1.215
59464W        W21127  14.181  27.628  13.394
59465W        W21128   0.925  18.242   1.871
59466W        W21129  38.043  28.023  10.153
59467W        W21130  22.608   2.733  13.440
59468W        W21131  28.591  15.619  12.453
59469W        W21132   1.930  32.516   0.296
59470W        W21133  16.117   3.404   3.282
59471W        W21134  31.549  15.205  14.975
59472W        W21135  10.770   0.450   1.416
59473W        W21136  13.132  41.924  11.942
59474W        W21137   9.728  18.162   2.745
59475W        W21138  17.266  19.702  12.548
59476W        W21139  29.535  24.615  12.967
59477W        W21140  38.921  32.088  11.995
59478W        W21141  17.202  31.538  13.450
59479W        W21142  13.243  26.036   1.715
59480W        W21143   2.410   7.868   0.865
59481W        W21144   8.657  20.709  13.843
59482W        W21145  22.584   1.276   5.155
59483W        W21146  31.977   2.932  10.599
59484W        W21147  37.016   6.789  13.046
59485W        W21148   0.865  41.298   4.666
59486W        W21149  23.641  29.424  13.013
59487W        W21150  34.956   5.783  10.487
59488W        W21151   8.797   3.428  11.104
59489W        W21152   5.789  14.629   0.319
59490W        W21153  13.281  44.861  11.034
59491W        W21154  10.139  44.318   1.821
59492W        W21155  30.945   1.743  11.076
59493W        W21156   3.240  13.269  14.927
59494W        W21157  36.082  14.293   3.710
59495W        W21158  37.581  32.515  11.077
59496W        W21159  13.295  38.560   3.178
59497W        W21160  28.946  10.651  13.039
59498W        W21161  42.976   3.726   3.715
59499W        W21162  33.997  37.070  12.894
59500W        W21163  36.015  44.331  12.404
59501W        W21164   2.760  40.948  13.429
59502W        W21165   9.832  15.774   3.151
59503W        W21166  32.599  13.175   0.320
59504W        W21167  28.542  29.012   4.798
59505W        W21168   3.737  40.926  10.947
59506W        W21169  28.553  33.466   3.819
59507W        W21170  31.432  38.049   2.801
59508W        W21171  20.539  37.579  13.534
59509W        W21172  16.795  44.352   4.226
59510W        W21173  32.120   2.263  13.049
59511W        W21174  31.468  33.910  14.937
59512W        W21175  38.847  10.844   2.851
59513W        W21176  12.765  30.453  14.010
59514W        W21177  26.003   6.706   2.697
59515W        W21178  19.588   2.243  10.611
59516W        W21179  10.718  21.143  10.108
59517W        W21180  29.081  44.845  10.467
59518W        W21181  29.587  29.549  14.349
59519W        W21182  17.745  17.095   2.186
59520W        W21183   3.807  22.543   9.989
59521W        W21184  19.603  43.980  14.826
59522W        W21185  16.608   5.407   3.766
59523W        W21186   5.849  40.323   1.216
59524W        W21187   7.835  18.294  12.339
59525W        W21188  18.762  21.701   1.871
59526W        W21189  32.112   6.824   3.192
59527W        W21190  25.495  29.005   5.289
59528W        W21191  35.930  44.875  12.869
59529W        W21192  25.040  34.514   4.235
59530W        W21193  34.527  11.629   2.667
59531W        W21194  38.035  23.634  13.828
59532W        W21195  18.179  37.345   1.870
59533W        W21196  21.237  14.663   5.157
59534W        W21197  11.720  18.774  14.418
59535W        W21198   1.468   6.827   2.362
59536W        W21199  14.323  24.584  13.886
59537W        W21200   1.911   8.896  12.355
59538W        W21201  43.016   2.961  14.850
59539W        W21202  39.869   5.279  12.982
59540W        W21203   0.250  42.946   0.356
59541W        W21204  38.401  17.572  14.920
59542W        W21205   8.299  17.181  13.792
59543W        W21206   9.844   3.911  14.361
59544W        W21207  21.198  12.824  13.472
59545W        W21208  12.630  33.491  13.375
59546W        W21209  18.758  27.469  12.983
59547W        W21210  30.492  37.507   3.323
59548W        W21211  30.631  40.332  12.501
59549W        W21212  25.470  39.521   3.288
59550W        W21213  10.193  29.430   0.299
59551W        W21214  19.267  26.143   2.208
59552W        W21215  17.085  30.155   1.354
59553W        W21216  16.138   6.191   0.761
59554W        W21217  39.404   2.409   0.770
59555W        W21218   2.454  31.026  14.310
59556W        W21219  39.903   7.395  14.500
59557W        W21220  37.989  10.724  12.344
59558W        W21221  34.423  29.104   0.310
59559W        W21222   1.865  43.388  14.314
59560W        W21223  27.484  41.414   5.223
59561W        W21224  39.454  28.568  10.597
59562W        W21225  36.388  33.523   4.265
59563W        W21226  10.659  12.128   3.377
59564W        W21227  30.643  39.924   0.941
59565W        W21228  14.183   9.156   0.250
59566W        W21229  22.199   7.385   1.294
59567W        W21230  25.642  29.147  14.884
59568W        W21231  17.570  42.776  10.919
59569W        W21232  13.656  34.575  12.869
59570W        W21233  21.552   7.222   1.735
59571W        W21234   7.852  37.509   4.259
59572W        W21235   8.188   2.300  12.978
59573W        W21236  41.317   1.283  14.759
59574W        W21237  27.525  20.638   4.244
59575W        W21238  35.398  27.583   1.287
59576W        W21239  39.392  32.610  13.540
59577W        W21240  25.692  36.945   2.896
59578W        W21241  26.695  16.142  13.327
59579W        W21242   7.345  41.452  10.510
59580W        W21243  30.955   1.475  13.520
59581W        W21244  22.572   1.933  13.319
59582W        W21245   6.332  22.022   0.893
59583W        W21246  21.543  33.959   3.850
59584W        W21247  25.626   8.368   4.738
59585W        W21248  38.425   0.743   2.209
59586W        W21249   0.407  22.565  13.029
59587W        W21250  30.424  43.853  11.456
59588W        W21251  35.888  17.106   2.790
59589W        W21252  43.448  30.631   4.127
59590W        W21253  34.071  38.445   1.835
59591W        W21254   3.750  15.598   4.694
59592W        W21255  41.847  38.849  11.546
59593W        W21256  19.258  14.109   2.792
59594W        W21257  19.095   9.890  14.905
59595W        W21258  18.249  33.446  13.535
59596W        W21259  37.889   5.837  10.630
59597W        W21260  33.550  25.612  12.973
59598W        W21261  28.128   7.320   1.785
59599W        W21262   8.353  14.123   1.249
59600W        W21263  34.493  28.083   3.825
59601W        W21264   1.754   9.813   4.792
59602W        W21265  34.083  24.073   2.225
59603W        W21266  22.078  25.008   1.355
59604W        W21267  43.482   6.736   1.862
59605W        W21268  32.560   2.874   3.675
59606W        W21269  41.362   2.829  13.845
59607W        W21270  39.446  43.285  13.978
59608W        W21271  40.050   3.295  11.594
59609W        W21272   9.307   3.434  11.887
59610W        W21273  12.145   8.775   1.329
59611W        W21274  18.199  30.576  11.017
59612W        W21275  22.619  28.071   1.899
59613W        W21276  13.642   7.204   3.254
59614W        W21277  29.042  13.122   3.216
59615W        W21278  36.889  20.566  11.400
59616W        W21279   0.941  34.514   3.634
59617W        W21280  38.435   3.738  12.954
59618W        W21281  43.778  24.717   4.339
59619W        W21282  24.529  10.816  11.104
59620W        W21283   8.837  17.072   0.259
59621W        W21284   5.782  36.922  10.923
59622W        W21285  32.580  18.227  10.100
59623W        W21286  21.132  30.596  11.551
59624W        W21287  16.218   4.910  10.626
59625W        W21288  21.731  22.617  10.125
59626W        W21289  28.487   2.446  11.402
59627W        W21290  41.363  36.842  14.377
59628W        W21291  13.735   9.795   0.266
59629W        W21292  13.109   5.841   2.769
59630W        W21293   0.478   2.802   1.849
59631W        W21294  11.784  30.520   4.807
59632W        W21295  10.833  13.747  14.471
59633W        W21296   4.373   7.374  13.821
59634W        W21297   8.719  39.534  12.867
59635W        W21298  17.664   4.914   4.198
59636W        W21299  29.125  40.973   3.299
59637W        W21300  39.411  10.205  11.606
59638W        W21301  24.986  23.495   1.848
59639W        W21302  34.935  12.748  13.967
59640W        W21303  18.273  34.390  13.385
59641W        W21304  22.113  17.254   2.794
59642W        W21305  38.061  39.925  13.336
59643W        W21306  24.165  38.559  11.094
59644W        W21307  30.575   3.300  11.474
59645W        W21308  16.302  30.002  12.877
59646W        W21309  38.560  16.238   0.907
59647W        W21310  31.491  25.505   3.225
59648W        W21311  33.597   1.967  11.033
59649W        W21312  29.120  40.052   4.218
59650W        W21313   6.191  14.752   1.740
59651W        W21314   2.247  12.718   3.817
59652W        W21315   3.422  34.586   4.290
59653W        W21316   8.258  12.658   3.236
59654W        W21317  16.222  33.098   2.813
59655W        W21318  18.622  33.973   4.648
59656W        W21319  16.600  14.726   0.303
59657W        W21320   9.166  21.684  12.506
59658W        W21321  22.063  16.633  11.117
59659W        W21322  44.495  26.648  13.311
59660W        W21323  36.553   9.755   0.883
59661W        W21324   1.244  31.480  14.382
59662W        W21325   8.188  34.085  12.985
59663W        W21326  42.502   2.808   0.446
59664W        W21327  36.886  17.126  13.831
59665W        W21328  33.922  29.089  10.948
59666W        W21329  41.504  33.097  14.361
59667W        W21330  20.702  28.549   2.803
59668W        W21331  15.305  13.297   4.778
59669W        W21332   3.759  33.480  10.593
59670W        W21333  39.331  32.505   0.910
59671W        W21334  31.139  22.702   2.712
59672W        W21335  12.253  34.510  12.891
59673W        W21336  21.216  10.271  10.444
59674W        W21337  39.930  37.939  11.558
59675W        W21338  33.964  13.314   3.729
59676W        W21339   6.198  13.773  13.500
59677W        W21340  21.263  27.502  12.504
59678W        W21341  14.829   1.760   1.791
59679W        W21342  38.383   5.403  13.407
59680W        W21343  35.108  24.632   4.184
59681W        W21344  19.642   8.358  10.643
59682W        W21345  24.982  42.366   1.247
59683W        W21346  37.443  11.789   3.691
59684W        W21347   9.268  43.417   1.935
59685W        W21348   9.302  11.856   2.285
59686W        W21349   1.340  12.656  14.511
59687W        W21350  30.077  34.471   1.843
59688W        W21351  28.584   5.205   2.184
59689W        W21352  41.522  42.365   1.309
59690W        W21353   9.304  41.442  11.868
59691W        W21354   2.853  35.978   4.781
59692W        W21355  14.179   6.729   4.141
59693W        W21356  16.806  16.203   1.353
59694W        W21357  23.226  20.241   2.339
59695W        W21358   9.273  13.626  13.410
59696W        W21359   3.349  30.135  12.508
59697W        W21360   8.844   9.250   1.429
59698W        W21361  26.460  34.034  13.406
59699W        W21362  44.286  35.055   1.356
59700W        W21363  13.237  41.359   3.737
59701W        W21364  37.424   1.300   1.258
59702W        W21365  22.177  41.464  14.960
59703W        W21366   5.884   4.822  11.888
59704W        W21367   8.368  11.260   4.646
59705W        W21368  28.039  21.605   2.774
59706W        W21369   8.675  21.609   4.287
59707W        W21370   2.803  33.055   4.654
59708W        W21371  28.973  36.085  12.380
59709W        W21372  39.886  39.884  10.476
59710W        W21373   5.884  11.793  13.873
59711W        W21374  25.019   8.189  12.954
59712W        W21375  39.064  42.808   1.239
59713W        W21376   2.794  17.117  14.767
59714W        W21377  26.026   8.320  12.568
59715W        W21378  16.759  26.128  12.488
59716W        W21379  24.165  11.668  13.409
59717W        W21380  27.682  38.422   4.614
59718W        W21381  15.795  27.070   1.930
59719W        W21382  15.763  15.245  13.416
59720W        W21383   8.379  11.781  13.968
59721W        W21384  21.179  16.238  14.959
59722W        W21385  35.455  31.949  11.438
59723W        W21386  15.751  16.091   5.131
59724W        W21387   5.424  21.628   2.187
59725W        W21388  16.798  39.479  13.419
59726W        W21389   6.313  23.709  11.974
59727W        W21390  41.926  37.469  12.919
59728W        W21391  41.017  35.947   3.188
59729W        W21392  40.407  15.257   1.323
59730W        W21393  12.707   3.226   1.920
59731W        W21394   2.749  11.859   2.318
59732W        W21395  23.082  29.470   1.223
59733W        W21396  10.219  18.686  13.029
59734W        W21397  22.632   4.902   2.705
59735W        W21398  36.935  21.115   1.228
59736W        W21399  43.366  23.217   1.814
59737W        W21400   4.710  25.700  10.951
59738W        W21401  31.026  43.411   3.649
59739W        W21402   4.379  29.059   1.711
59740W        W21403  35.064  31.635  14.309
59741W        W21404  10.800   9.858   1.767
59742W        W21405  22.639   5.825  13.978
59743W        W21406   7.885  15.716  10.485
59744W        W21407  44.932  23.101   4.233
59745W        W21408  32.058  26.010  13.510
59746W        W21409   6.348   5.821   0.302
59747W        W21410  40.425   7.876   0.734
59748W        W21411  40.528  41.438   3.300
59749W        W21412  39.327  22.065   4.818
59750W        W21413  41.337  42.396   3.289
59751W        W21414  18.611  37.415   4.288
59752W        W21415   9.754  32.474   4.692
59753W        W21416  34.059   0.981   4.160
59754W        W21417   0.396  19.224   0.802
59755W        W21418  24.688  14.149  14.822
59756W        W21419  40.902   2.248  14.469
59757W        W21420   5.317  36.040   0.892
59758W        W21421  37.387  15.226   3.361
59759W        W21422   5.913  15.134  13.019
59760W        W21423  19.685  24.977   1.429
59761W        W21424  43.285   6.337  13.497
59762W        W21425  31.474  36.450  12.557
59763W        W21426   9.682  27.666   3.828
59764W        W21427  19.607  16.800   0.884
59765W        W21428  44.402  39.512   2.219
59766W        W21429  26.569  36.028   3.694
59767W        W21430  26.075  12.190  10.501
59768W        W21431  42.338  39.861   3.678
59769W        W21432  23.046   2.746  14.411
59770W        W21433  31.016   3.881  13.924
59771W        W21434  24.168   9.779   4.751
59772W        W21435  31.443  17.784  13.425
59773W        W21436  20.073  15.199   1.212
59774W        W21437   0.323  22.176   1.347
59775W        W21438  37.088  41.326  13.438
59776W        W21439  20.666   7.679   0.415
59777W        W21440  14.145  44.878   3.802
59778W        W21441  22.139  44.973   3.198
59779W        W21442   0.248   1.292   4.321
59780W        W21443  24.225  11.356  12.517
59781W        W21444  15.687  17.109   1.760
59782W        W21445  11.213  29.137   2.257
59783W        W21446   6.737   5.762   2.235
59784W        W21447  40.988  17.119   5.245
59785W        W21448  35.421  42.365   1.356
59786W        W21449  13.252  41.484   4.677
59787W        W21450  24.981  17.659  12.412
59788W        W21451  26.071   5.871  12.919
59789W        W21452  10.297  19.051   4.312
59790W        W21453  37.371  38.960   1.848
59791W        W21454  34.013  14.340   2.731
59792W        W21455  42.887  21.602  10.917
59793W        W21456  21.596  17.602   3.271
59794W        W21457   4.772   1.464   0.403
59795W        W21458  20.751  19.080   1.809
59796W        W21459  14.644  41.870  13.395
59797W        W21460   8.825   0.465   2.815
59798W        W21461  27.129  30.067  12.384
59799W        W21462  26.125  38.879   3.840
59800W        W21463  31.425  14.101  13.986
59801W        W21464  33.447  28.066   2.392
59802W        W21465  18.079  20.214   0.755
59803W        W21466  18.594  10.308  11.066
59804W        W21467   3.423   9.260  10.620
59805W        W21468   4.888  31.146  12.059
59806W        W21469  41.847  40.026  12.850
59807W        W21470  21.208  13.118   3.856
59808W        W21471  37.352  12.649   4.205
59809W        W21472  21.154  32.456  13.898
59810W        W21473  23.144  44.872   4.141
59811W        W21474  16.783  42.516   4.662
59812W        W21475   9.251  38.987   4.830
59813W        W21476   4.708  14.743   4.762
59814W        W21477  21.601   4.377   1.915
59815W        W21478  27.638  38.524  11.069
59816W        W21479   2.940  38.886  14.400
59817W        W21480  28.624  37.531  10.154
59818W        W21481  25.581  40.513   3.740
59819W        W21482   1.880  20.148  13.526
59820W        W21483  38.044  14.224  10.462
59821W        W21484  38.969   0.899   0.803
59822W        W21485  17.106   7.249  11.502
59823W        W21486   5.934  31.442   2.261
59824W        W21487   0.490  25.558   4.640
59825W        W21488  21.736  25.975  11.990
59826W        W21489  13.303   6.750   4.709
59827W        W21490   0.783  39.467  12.385
59828W        W21491  30.443   0.836   3.330
59829W        W21492  29.575  20.661   2.281
59830W        W21493  27.623   9.384  14.799
59831W        W21494  43.453   7.396  13.837
59832W        W21495   1.803   6.811   3.681
59833W        W21496  37.443  44.322  10.536
59834W        W21497   5.246  40.888   4.152
59835W        W21498  26.620  36.486  13.872
59836W        W21499  13.611  33.562   0.308
59837W        W21500   6.343  37.566   0.334
59838W        W21501  23.690  35.518  13.317
59839W        W21502   5.214  28.671  13.046
59840W        W21503  38.451  16.265  13.484
59841W        W21504   4.868   7.270   5.192
59842W        W21505  26.978  16.087   2.214
59843W        W21506  29.996  32.634  14.000
59844W        W21507  42.977  30.626   2.303
59845W        W21508   1.806   4.251  12.846
59846W        W21509  36.968  31.939  13.881
59847W        W21510   0.424  42.402   4.301
59848W        W21511  11.760  19.209  11.961
59849W        W21512  19.066  39.355  10.934
59850W        W21513  28.668  33.988   0.785
59851W        W21514  31.592   8.701   2.239
59852W        W21515   2.900  38.843  11.459
59853W        W21516  41.470   2.335  12.980
59854W        W21517   1.847  19.180   2.229
59855W        W21518  29.929   6.847   2.697
59856W        W21519   9.791  21.539  13.378
59857W        W21520  15.721  23.629   0.955
59858W        W21521   2.325  31.568   0.413
59859W        W21522  33.524   6.194   2.397
59860W        W21523   7.726  23.587   2.404
59861W        W21524  32.904  30.045   2.809
59862W        W21525  43.800  15.672  12.832
59863W        W21526  32.082  26.527   1.276
59864W        W21527  32.913   2.751   1.885
59865W        W21528   2.957  21.104   1.852
59866W        W21529  28.026  20.724   1.224
59867W        W21530  35.382  24.150   1.763
59868W        W21531  11.309  21.194  12.563
59869W        W21532  12.125  41.369   0.899
59870W        W21533  28.637   3.442   2.380
59871W        W21534  26.053   8.386   1.921
59872W        W21535   6.202  17.129   3.190
59873W        W21536  32.915  28.640   4.240
59874W        W21537  32.466  33.019   3.298
59875W        W21538  44.831  44.413  10.543
59876W        W21539   1.467  19.137   0.363
59877W        W21540  25.492  33.601  12.474
59878W        W21541  37.071  41.012  13.824
59879W        W21542  38.901  13.337   4.212
59880W        W21543  20.550  23.506   4.682
59881W        W21544  38.950  38.386   3.697
59882W        W21545  42.304   4.880   4.793
59883W        W21546  42.985  34.411  13.458
59884W        W21547  21.746  31.896  14.777
59885W        W21548  24.536  21.142  14.819
59886W        W21549   8.202  43.504   4.220
59887W        W21550  17.706  26.034   4.166
59888W        W21551  14.828  10.341   0.838
59889W        W21552  12.652  19.585   1.782
59890W        W21553   5.311  11.268   4.302
59891W        W21554  18.583  15.600  13.460
59892W        W21555  27.189  31.434  10.526
59893W        W21556   3.714  37.341  11.992
59894W        W21557  38.943  26.080   3.288
59895W        W21558   2.395  42.908  12.973
59896W        W21559  42.342  30.570  11.990
59897W        W21560  17.700  36.062  11.115
59898W        W21561   6.301  10.191   3.739
59899W        W21562  34.878  39.029  13.052
59900W        W21563  33.122   1.882  11.923
59901W        W21564  12.170  30.158  11.941
59902W        W21565  20.246  13.677  14.806
59903W        W21566   8.719  22.017  11.951
59904W        W21567  15.598  23.126   3.736
59905W        W21568  17.242  17.086   4.309
59906W        W21569  32.391   2.226   2.746
59907W        W21570  40.964  16.688  13.371
59908W        W21571  38.938  16.120  12.051
59909W        W21572  24.518  27.101  13.473
59910W        W21573  33.479  27.596   0.481
59911W        W21574  16.310   5.899   0.730
59912W        W21575  21.755   3.433   1.397
59913W        W21576   4.698  18.114  10.492
59914W        W21577   7.732  22.245  11.994
59915W        W21578  40.028   2.932   3.746
59916W        W21579   6.199  26.659   3.859
59917W        W21580  10.157   4.216  14.889
59918W        W21581  40.953  14.311   0.323
59919W        W21582  12.216  43.859   0.288
59920W        W21583  17.717  14.107   2.706
59921W        W21584  30.105  10.850  13.893
59922W        W21585  40.977   6.717  12.950
59923W        W21586  43.441  35.380  14.768
59924W        W21587  32.122  32.013  10.554
59925W        W21588  13.626   8.346   9.443
59926W        W21589   6.861  26.046   0.299
59927W        W21590  41.536  38.003   2.829
59928W        W21591   3.378  40.502  12.414
59929W        W21592  32.925  22.243  11.943
59930W        W21593  40.013  32.619   3.337
59931W        W21594  39.403  23.227   1.321
59932W        W21595  40.389  43.290   4.196
59933W        W21596   1.852  22.639   4.746
59934W        W21597  16.730  27.021   1.888
59935W        W21598  34.597  43.406  11.479
59936W        W21599  18.623   2.932  14.276
59937W        W21600   2.415  19.547   0.849
59938W        W21601  44.971   9.714   0.834
59939W        W21602  30.483   2.957  12.021
59940W        W21603  37.044   0.457  13.022
59941W        W21604   8.842  38.423  14.018
59942W        W21605  42.959  41.959  12.431
59943W        W21606  20.235  30.925  13.864
59944W        W21607  38.435  22.701   1.434
59945W        W21608   2.945  26.486  13.350
59946W        W21609   9.204   2.723   1.425
59947W        W21610  31.149  13.290   0.242
59948W        W21611  25.194  10.292   0.819
59949W        W21612   5.910  34.925  12.572
59950W        W21613  11.830  13.182  10.453
59951W        W21614  36.465  34.905   1.386
59952W        W21615   3.877  37.856  14.808
59953W        W21616  34.881  18.614  12.875
59954W        W21617  33.396  14.688  12.534
59955W        W21618  15.722  15.753  13.333
59956W        W21619  17.212  23.064   1.926
59957W        W21620  31.572  17.750   2.735
59958W        W21621  11.841   3.784   3.327
59959W        W21622  26.999  18.114  11.472
59960W        W21623  11.166  11.185  13.465
59961W        W21624  24.046  20.619   1.728
59962W        W21625  40.364  33.428  11.435
59963W        W21626  38.390  44.837   4.263
59964W        W21627  10.679   3.763  13.430
59965W        W21628  12.741  41.886  13.359
59966W        W21629  15.143  30.476  12.469
59967W        W21630  29.612   0.403   1.284
59968W        W21631   7.408   2.759   3.255
59969W        W21632  14.748  28.565   1.310
59970W        W21633  15.580  28.127   4.663
59971W        W21634   9.250  40.808  12.050
59972W        W21635  22.608  39.366  13.821
59973W        W21636  19.158  40.331   2.714
59974W        W21637  16.217   0.313  13.475
59975W        W21638  10.227  22.631  10.473
59976W        W21639  32.985   5.233   4.626
59977W        W21640  36.424  23.491  13.834
59978W        W21641  26.152  26.054  14.501
59979W        W21642   5.258  35.949  12.370
59980W        W21643  41.398  10.649   3.210
59981W        W21644   5.203  25.506  11.082
59982W        W21645  42.452  37.529  11.971
59983W        W21646   7.884  31.626   3.747
59984W        W21647  33.428  11.804   0.333
59985W        W21648   6.377   2.904  14.954
59986W        W21649  14.227  29.120  13.969
59987W        W21650  22.732   4.868   1.731
59988W        W21651   5.708  17.211  13.425
59989W        W21652  24.636  17.084   0.454
59990W        W21653   1.893   3.272  11.959
59991W        W21654  12.779  24.066  12.369
59992W        W21655  16.624  36.380   3.257
59993W        W21656  14.741   2.841   1.423
59994W        W21657  36.018  21.071  10.609
59995W        W21658  44.930  40.478   1.818
59996W        W21659  37.409  19.254   3.860
59997W        W21660  36.069   7.834   2.251
59998W        W21661  29.094  15.612   2.216
59999W        W21662  34.963   8.388   1.333
60000W        W21663  24.993  22.668  12.463
60001W        W21664  35.360   7.875  14.824
60002W        W21665  36.982  37.898  11.409
60003W        W21666   8.371   0.758   3.852
60004W        W21667  30.624  29.935  14.507
60005W        W21668  32.537  11.750  14.966
60006W        W21669   0.869  26.577   0.872
60007W        W21670  24.155   7.878   0.309
60008W        W21671  42.336  28.142  11.865
60009W        W21672  25.192  41.954   4.224
60010W        W21673  40.339  44.782   1.421
60011W        W21674   8.672   4.229   3.782
60012W        W21675  29.116  27.165  12.972
60013W        W21676  14.290  39.948   1.393
60014W        W21677  12.128  19.644  10.555
60015W        W21678  23.054  16.580   3.205
60016W        W21679  29.078  27.948  14.840
60017W        W21680  33.890  27.503  10.578
60018W        W21681  10.318  29.520   2.841
60019W        W21682  37.567  19.746  14.423
60020W        W21683  35.490  25.622   3.201
60021W        W21684  26.682  34.529  11.433
60022W        W21685  44.385  22.735   2.875
60023W        W21686  16.650  35.094   2.292
60024W        W21687   4.935  33.401  11.900
60025W        W21688   1.933  19.213  14.293
60026W        W21689  41.329  38.931   5.290
60027W        W21690  26.160  31.134  12.092
60028W        W21691   5.311  28.991   3.644
60029W        W21692  37.403  30.507   3.286
60030W        W21693  15.143  15.218   4.682
60031W        W21694  21.157  37.515   2.662
60032W        W21695  34.980  23.517  12.492
60033W        W21696  28.071  42.471  11.423
60034W        W21697  14.269  42.805   4.133
60035W        W21698  14.731  32.904  12.069
60036W        W21699  27.961  26.594   5.289
60037W        W21700  18.611  43.458   2.789
60038W        W21701   5.297  25.672  11.873
60039W        W21702  25.641  25.656  13.477
60040W        W21703  43.311  37.947   1.444
60041W        W21704  34.105   6.728  12.834
60042W        W21705  22.146   2.364   3.311
60043W        W21706  24.055  19.049  10.597
60044W        W21707  20.144  20.272  12.423
60045W        W21708  25.649  15.164   0.461
60046W        W21709  31.033  40.354  11.611
60047W        W21710  26.493  26.682  10.599
60048W        W21711   3.885  22.148  13.953
60049W        W21712  43.953  21.544   3.184
60050W        W21713  39.434   7.240   3.831
60051W        W21714  32.955  41.520  14.322
60052W        W21715  18.695  16.677   0.247
60053W        W21716  34.095  38.990   3.330
60054W        W21717   1.929  20.102  13.898
60055W        W21718  21.153  25.644  11.010
60056W        W21719  31.606  27.014   2.313
60057W        W21720  13.326   2.831  11.967
60058W        W21721  22.213  35.403   4.177
60059W        W21722  35.108  32.931  13.948
60060W        W21723  18.187  27.106   3.655
60061W        W21724  16.165   5.803  13.394
60062W        W21725  30.566  11.761  13.322
60063W        W21726   0.423  42.409   2.188
60064W        W21727  16.611  28.465  13.446
60065W        W21728   8.293  15.719  10.061
60066W        W21729  30.026   8.179   3.357
60067W        W21730  12.132  29.557  11.949
60068W        W21731  11.810   9.778   4.644
60069W        W21732  35.059   6.295   1.918
60070W        W21733   6.376  37.524   9.947
60071W        W21734  26.647  38.005  14.010
60072W        W21735   7.856  12.265   0.911
60073W        W21736  13.801  32.979   3.271
60074W        W21737  35.433  43.926  12.425
60075W        W21738  28.646  43.869  12.861
60076W        W21739  15.719  11.250   3.645
60077W        W21740  11.833  42.344  12.429
60078W        W21741  27.599  12.272  13.330
60079W        W21742  39.911   1.918   2.751
60080W        W21743  18.653  40.511   4.598
60081W        W21744  20.188  23.516  11.114
60082W        W21745  40.462   4.277  12.087
60083W        W21746  42.930  27.030   0.266
60084W        W21747  14.781  25.094   4.279
60085W        W21748  14.630  42.900  13.935
60086W        W21749   9.885   6.327  14.348
60087W        W21750  22.161  29.639   4.186
60088W        W21751  17.793   8.750   2.845
60089W        W21752   6.782  33.067   2.387
60090W        W21753  27.623  16.171   4.334
60091W        W21754   0.884  18.222   0.941
60092W        W21755  41.895   4.807   5.310
60093W        W21756  19.639  26.960  11.891
60094W        W21757   3.870  25.500   3.204
60095W        W21758  11.859  41.832  12.058
60096W        W21759  37.070   6.714   0.361
60097W        W21760  22.534  23.202  12.571
60098W        W21761   6.184  30.148  13.547
60099W        W21762  19.227   6.762  12.876
60100W        W21763   4.861   4.781  10.631
60101W        W21764  16.237  16.248   2.893
60102W        W21765  27.104   2.815  14.880
60103W        W21766   1.348  36.896   1.703
60104W        W21767  19.138  42.812  11.444
60105W        W21768  32.518   3.306   4.231
60106W        W21769  41.462   4.744   4.670
60107W        W21770   7.304  37.356  14.913
60108W        W21771  33.908  23.698  13.378
60109W        W21772  11.810  43.982  14.470
60110W        W21773  28.530  38.954   4.644
60111W        W21774  13.201  35.533   3.854
60112W        W21775   9.239  38.494  13.008
60113W        W21776  32.992  10.723   2.680
60114W        W21777  10.737  37.486   3.793
60115W        W21778  10.704  23.733  14.013
60116W        W21779   2.281  42.430  12.903
60117W        W21780  21.180  40.441   3.379
60118W        W21781  25.683   9.217  13.059
60119W        W21782  26.503  15.639   1.325
60120W        W21783   0.261  17.083  12.945
60121W        W21784   4.753  27.473  13.946
60122W        W21785   2.438  32.598   1.917
60123W        W21786  41.869  41.354   4.617
60124W        W21787   4.735  11.624   1.864
60125W        W21788  26.060   0.858   0.317
60126W        W21789  15.116  37.899  12.009
60127W        W21790  40.897  27.574  14.963
60128W        W21791  29.653  41.010   0.383
60129W        W21792  38.449  14.242  14.812
60130W        W21793   7.712   8.361  12.835
60131W        W21794  12.215   5.875  14.026
60132W        W21795  38.859  33.624   4.719
60133W        W21796  26.201  19.216  13.351
60134W        W21797  24.086  32.441   1.411
60135W        W21798  33.054   4.762   1.893
60136W        W21799  12.129  24.974   3.684
60137W        W21800  34.997  42.902  10.442
60138W        W21801   6.301  26.490   0.395
60139W        W21802  44.368   1.469   2.349
60140W        W21803   8.845  39.945   1.309
60141W        W21804  11.228  15.751   1.706
60142W        W21805  24.172  17.781  14.291
60143W        W21806  32.979  42.307  14.931
60144W        W21807  24.606   9.834  10.532
60145W        W21808  22.072  18.154   3.289
60146W        W21809  36.468  33.437   1.912
60147W        W21810  41.386  43.355  14.795
60148W        W21811  35.374  13.631   4.796
60149W        W21812  26.558  22.578   0.779
60150W        W21813  36.047  17.208  11.962
60151W        W21814  22.599   8.870   3.182
60152W        W21815   1.412  39.334   2.386
60153W        W21816  23.663  39.890   0.871
60154W        W21817  10.261  37.891   1.412
60155W        W21818  16.132  36.557  12.469
60156W        W21819   6.788  33.559   3.791
60157W        W21820   3.373   6.875   0.961
60158W        W21821  39.057  38.974  11.893
60159W        W21822  26.579  40.811   4.336
60160W        W21823  23.722  33.881   4.740
60161W        W21824   8.842  20.149   0.803
60162W        W21825  11.254   8.229  10.955
60163W        W21826  42.365   7.685   3.340
60164W        W21827   7.258  39.828  12.553
60165W        W21828   1.281  22.623  14.884
60166W        W21829  19.685  21.105  12.927
60167W        W21830  25.109  29.480   0.453
60168W        W21831  19.180  37.881  12.868
60169W        W21832  39.558  32.942  12.843
60170W        W21833  16.250  20.059   1.283
60171W        W21834  40.800  44.826  12.565
60172W        W21835  36.451  19.058   1.292
60173W        W21836  19.217   3.321   1.390
60174W        W21837  20.176  25.005   4.768
60175W        W21838   9.292  18.178  10.608
60176W        W21839  29.468  31.469   0.754
60177W        W21840  13.224  16.136   1.770
60178W        W21841  13.770  34.530   0.389
60179W        W21842  43.998   3.731  12.503
60180W        W21843   9.875  30.650   2.218
60181W        W21844  27.972  22.619  12.899
60182W        W21845  41.997   0.973   2.274
60183W        W21846  41.887  14.164  14.855
60184W        W21847  30.454  22.733  10.597
60185W        W21848  16.090  12.712   2.409
60186W        W21849   2.773  23.138   2.351
60187W        W21850  14.664  13.331   2.843
60188W        W21851   8.767   3.270   3.190
60189W        W21852  36.879  35.070   0.844
60190W        W21853  17.722  24.141  13.317
60191W        W21854  40.920  43.483  10.567
60192W        W21855   6.909  27.023  11.939
60193W        W21856   4.842  22.238  10.008
60194W        W21857  24.980   0.758  13.383
60195W        W21858   2.799   5.304  11.570
60196W        W21859  16.791  10.787  10.458
60197W        W21860  12.264   5.842   2.870
60198W        W21861   4.247   4.810  14.779
60199W        W21862  24.178  36.967   2.873
60200W        W21863   6.863   1.874  12.875
60201W        W21864  25.111  41.496  12.905
60202W        W21865  10.671  25.030  13.429
60203W        W21866  28.135  44.912   4.113
60204W        W21867  10.690  41.938   1.694
60205W        W21868  42.826  16.671  14.962
60206W        W21869  26.475  12.691   0.252
60207W        W21870  32.957  41.371  14.945
60208W        W21871  15.240  35.574   3.337
60209W        W21872  42.013   3.887  11.559
60210W        W21873  32.081  40.797   2.812
60211W        W21874  27.963  14.829   9.947
60212W        W21875  21.682  44.973   1.704
60213W        W21876  42.344  18.603  10.501
60214W        W21877  28.637   7.730   2.360
60215W        W21878  19.652  34.023  12.041
60216W        W21879  18.068  22.571   3.330
60217W        W21880  12.174  31.931  12.493
60218W        W21881   4.791  14.735   0.939
60219W        W21882   3.423  19.197  11.574
60220W        W21883  25.474  16.716   0.779
60221W        W21884   2.395  21.580  14.844
60222W        W21885  40.536   1.923   1.370
60223W        W21886  20.161  39.507  12.481
60224W        W21887  22.134  20.119   3.203
60225W        W21888  17.196  20.684  14.380
60226W        W21889  19.157  31.512  12.985
60227W        W21890   1.764  31.129   0.873
60228W        W21891   1.416   1.873  13.863
60229W        W21892   2.462   9.807  11.993
60230W        W21893  27.085  34.097   2.298
60231W        W21894  39.495  42.939  10.925
60232W        W21895  37.068  27.551  12.462
60233W        W21896  23.509  16.606  11.073
60234W        W21897  15.185   9.834  12.481
60235W        W21898  20.698  34.417  13.363
60236W        W21899  21.611  12.673  14.924
60237W        W21900   2.441  29.127  10.946
60238W        W21901  42.880  11.775   1.749
60239W        W21902  31.125   6.291   1.812
60240W        W21903  26.193  11.329  13.056
60241W        W21904  26.085  18.228   2.747
60242W        W21905  18.677  20.570  14.466
60243W        W21906  43.324   4.715   1.416
60244W        W21907  22.190  30.556  13.508
60245W        W21908  42.928   1.975  12.524
60246W        W21909  10.696  23.138   1.902
60247W        W21910   1.436  40.502   1.373
60248W        W21911  29.531  28.175   1.415
60249W        W21912  21.679  27.125   4.216
60250W        W21913  11.632   1.417   0.474
60251W        W21914  14.628  40.355  13.821
60252W        W21915  39.474  41.504   0.898
60253W        W21916   2.898  35.901   4.143
60254W        W21917   9.297  22.566  11.591
60255W        W21918  38.989  43.882  10.959
60256W        W21919   8.685  11.247  11.047
60257W        W21920  34.000  35.866  11.003
60258W        W21921  29.080  21.122  12.358
60259W        W21922  16.660  22.570  14.844
60260W        W21923  22.130  40.822  14.412
60261W        W21924  20.169  38.328  12.529
60262W        W21925  32.600  16.233   2.677
60263W        W21926  26.189  42.423  11.046
60264W        W21927  10.343  14.175   1.711
60265W        W21928  27.487  36.990   3.695
60266W        W21929  35.046  32.395   2.891
60267W        W21930   2.756   6.916  11.008
60268W        W21931  43.938   9.741   1.934
60269W        W21932  15.750  18.193   1.367
60270W        W21933  42.459  18.096  13.536
60271W        W21934   3.827  26.984  13.955
60272W        W21935  31.998   7.742   3.815
60273W        W21936  40.408  13.320   1.344
60274W        W21937  24.551  23.107  11.472
60275W        W21938  10.857   1.763  13.436
60276W        W21939  36.900  16.627  13.840
60277W        W21940  40.411  34.005  11.600
60278W        W21941  14.652   0.757  13.469
60279W        W21942   2.448  11.832  10.549
60280W        W21943  27.134  41.957   0.266
60281W        W21944  15.646  17.241   2.245
60282W        W21945  41.809  42.972  14.424
60283W        W21946  31.535  22.208  12.458
60284W        W21947  12.852  41.501  14.999
60285W        W21948   0.985  22.660   4.296
60286W        W21949   4.387  28.186   2.384
60287W        W21950   9.239  36.443  12.439
60288W        W21951  10.349  21.034  12.420
60289W        W21952  32.046  12.192   2.276
60290W        W21953  30.435  11.646   0.438
60291W        W21954  36.017  12.122  11.420
60292W        W21955   8.755  12.274  14.982
60293W        W21956  33.604  12.309   3.269
60294W        W21957  22.228   4.913  14.432
60295W        W21958  44.993   6.844  14.294
60296W        W21959   6.702  42.874   0.425
60297W        W21960  38.921  25.615  13.053
60298W        W21961  15.273   7.370  12.403
60299W        W21962   3.778  38.020   1.411
60300W        W21963  15.716  38.340   1.913
60301W        W21964  43.871  34.016   2.212
60302W        W21965   2.409  34.044   0.959
60303W        W21966  44.907  43.497   0.463
60304W        W21967  17.583  17.294   3.324
60305W        W21968  21.586  23.658  13.989
60306W        W21969  15.218  27.017  11.392
60307W        W21970  44.910  15.325   0.811
60308W        W21971  10.320  35.504   0.809
60309W        W21972  14.736  25.570   0.844
60310W        W21973  25.583  32.006  13.364
60311W        W21974  30.928   3.428   4.683
60312W        W21975  38.950  24.002  11.993
60313W        W21976  22.513  26.661  11.990
60314W        W21977  15.128  38.830  14.515
60315W        W21978  15.294  21.060   2.811
60316W        W21979  21.598  19.118   1.867
60317W        W21980  29.127  16.717  10.496
60318W        W21981  29.004  36.440  14.451
60319W        W21982  40.423  21.635  13.043
60320W        W21983  24.678  10.840   3.277
60321W        W21984  32.896  22.673  12.563
60322W        W21985  34.397  33.080   2.281
60323W        W21986  34.469  39.015   1.935
60324W        W21987   1.268  21.526  12.510
60325W        W21988  26.018  33.050  13.308
60326W        W21989  20.091  35.405   3.251
60327W        W21990  34.925  15.621  11.050
60328W        W21991  16.243   5.342   2.310
60329W        W21992  12.201  37.373   2.403
60330W        W21993   0.485   9.210  12.086
60331W        W21994  26.006  29.663  12.450
60332W        W21995   6.401   3.814   2.797
60333W        W21996  28.126  41.986   1.328
60334W        W21997  18.610  28.612   2.407
60335W        W21998   9.784  31.909   0.315
60336W        W21999   9.181   8.719   4.832
60337W        W22000   5.816   9.172  11.379
60338W        W22001   4.300  24.693  10.412
60339W        W22002   6.216  12.353   2.879
60340W        W22003  11.730   5.396  14.029
60341W        W22004  32.040  37.474   3.348
60342W        W22005   3.266   1.859   4.327
60343W        W22006  17.592  12.283   3.653
60344W        W22007  23.028  40.418   1.932
60345W        W22008  28.162  13.605   1.782
60346W        W22009  37.493  27.483   2.813
60347W        W22010  38.861  28.144   4.755
60348W        W22011  32.634  29.124   3.190
60349W        W22012   8.388  36.521   1.733
60350W        W22013  18.068   2.912  12.049
60351W        W22014  33.930  33.517  11.104
60352W        W22015  22.060  19.609  13.545
60353W        W22016  23.734  30.922  10.539
60354W        W22017  26.586  20.547  14.827
60355W        W22018   0.398  26.555   1.886
60356W        W22019   8.879  14.734   1.718
60357W        W22020  21.158  28.093   0.459
60358W        W22021   0.964   8.810   2.685
60359W        W22022  42.819  40.002   2.789
60360W        W22023  25.024  44.787  12.054
60361W        W22024  39.905   6.320   4.602
60362W        W22025  33.405  16.723  14.777
60363W        W22026   0.435   2.436   2.827
60364W        W22027  10.758   5.252  10.029
60365W        W22028  24.714   6.703  13.039
60366W        W22029  20.763  41.803   3.651
60367W        W22030  13.744  19.167   3.183
60368W        W22031  41.954  12.842   0.398
60369W        W22032   9.887  39.976   2.192
60370W        W22033  40.894  19.633  11.124
60371W        W22034  40.395  42.824  10.972
60372W        W22035  44.368  25.963  10.501
60373W        W22036  11.169  20.087  14.832
60374W        W22037  31.420  26.959   4.328
60375W        W22038  38.459  14.713  11.492
60376W        W22039  16.237  37.961   0.387
60377W        W22040   0.397  33.391   2.415
60378W        W22041  34.983   2.863  10.597
60379W        W22042  26.655   4.900  14.934
60380W        W22043  40.483   6.851  14.930
60381W        W22044  11.229  14.203   1.732
60382W        W22045  33.456  12.138   1.254
60383W        W22046  16.710   3.245   2.326
60384W        W22047  22.719   3.917   5.217
60385W        W22048   3.376  20.229  13.922
60386W        W22049   8.705  20.651   1.834
60387W        W22050  16.107  26.702  11.858
60388W        W22051  34.507  30.063  12.009
60389W        W22052  38.497  30.470   4.831
60390W        W22053   2.927   5.397  14.398
60391W        W22054  44.437   3.325  14.925
60392W        W22055  23.047  15.771   1.254
60393W        W22056  26.053  22.563   2.293
60394W        W22057  35.933  28.439  12.077
60395W        W22058   6.411  17.776   2.738
60396W        W22059  24.147   7.326   0.950
60397W        W22060  23.005  40.025   5.151
60398W        W22061  28.011  40.462   2.286
60399W        W22062  24.540  26.475   1.430
60400W        W22063   9.860   7.710  13.357
60401W        W22064  22.136   8.673   1.881
60402W        W22065  15.245  22.527  12.389
60403W        W22066   2.919   3.359  13.924
60404W        W22067  10.659  31.461   3.635
60405W        W22068   0.937  33.948  13.308
60406W        W22069  33.947   4.876  12.967
60407W        W22070  33.382  26.055   2.394
60408W        W22071  12.747   9.384   9.957
60409W        W22072  11.861  43.977   2.692
60410W        W22073  34.111  35.402  10.635
60411W        W22074   8.167  35.501  11.910
60412W        W22075  38.837  13.687   1.373
60413W        W22076  26.615   1.380  14.488
60414W        W22077  39.519   8.336  12.499
60415W        W22078   0.366  36.888   4.118
60416W        W22079  30.632  33.921  10.499
60417W        W22080  12.799  19.598  10.476
60418W        W22081  35.432  40.547   1.702
60419W        W22082  10.157  25.551  13.950
60420W        W22083  10.192   9.198  10.473
60421W        W22084  34.545  29.606   0.784
60422W        W22085  12.155  29.632   3.283
60423W        W22086  42.848  18.774   2.253
60424W        W22087  21.163  22.732  11.988
60425W        W22088  21.652  10.371  11.120
60426W        W22089  34.907  38.338  11.406
60427W        W22090   4.275  18.606  14.349
60428W        W22091   9.772  14.170   2.741
60429W        W22092  43.442  41.897  10.445
60430W        W22093   6.198  35.514   1.289
60431W        W22094  20.116  31.145   4.158
60432W        W22095  32.946  33.569   2.301
60433W        W22096  39.385  21.157  10.534
60434W        W22097  29.458  38.910   2.766
60435W        W22098  19.234  43.774  10.589
60436W        W22099   0.321  18.698   1.885
60437W        W22100  37.073  23.993  11.871
60438W        W22101  39.419  18.747  12.386
60439W        W22102  42.496  14.759  11.036
60440W        W22103   0.418  27.657  13.407
60441W        W22104  30.100  12.136  13.901
60442W        W22105   1.358  30.576   4.193
60443W        W22106  41.366  38.018   0.291
60444W        W22107  12.730  16.685   4.343
60445W        W22108  18.710  43.968  10.628
60446W        W22109   3.733  15.313  12.500
60447W        W22110  31.555  11.865   1.420
60448W        W22111   1.817  35.474   0.447
60449W        W22112  36.497  27.447  13.977
60450W        W22113  14.213  20.235   4.597
60451W        W22114  30.643   1.784  11.862
60452W        W22115   0.815  16.260  12.834
60453W        W22116  25.670  12.818  10.517
60454W        W22117  15.624  20.654  14.442
60455W        W22118  31.949  30.054   2.234
60456W        W22119  13.651   1.253  14.316
60457W        W22120  27.662  18.094   1.355
60458W        W22121  12.665  19.544   0.880
60459W        W22122  11.182  39.809  14.773
60460W        W22123  40.008  24.487   3.823
60461W        W22124  11.758  36.033  14.810
60462W        W22125  31.007  38.343   0.934
60463W        W22126   3.424  21.154  13.897
60464W        W22127  38.496   7.815   1.221
60465W        W22128  31.407  27.954   4.310
60466W        W22129  23.165  12.824   4.138
60467W        W22130   3.314  39.809   4.316
60468W        W22131  20.737   0.478  12.071
60469W        W22132  35.426  32.958  13.906
60470W        W22133  27.949  30.544   1.224
60471W        W22134  44.871   5.333  13.885
60472W        W22135   2.441   9.237   4.773
60473W        W22136  26.129   0.490   4.608
60474W        W22137   7.881   5.777   3.316
60475W        W22138  38.839  27.561   2.272
60476W        W22139  41.964  40.975   0.302
60477W        W22140  40.385  34.578   3.233
60478W        W22141  18.672  36.849   0.729
60479W        W22142  43.335  11.358   4.317
60480W        W22143  21.248  16.811  13.034
60481W        W22144  28.047  27.461   0.908
60482W        W22145  31.513   4.704   0.836
60483W        W22146  26.458  39.876  14.026
60484W        W22147  44.987  21.086  13.054
60485W        W22148   2.947  37.851  14.922
60486W        W22149   5.408  13.141  10.436
60487W        W22150  34.944   1.894   0.731
60488W        W22151  16.640  27.093   2.235
60489W        W22152   0.963  17.299  10.483
60490W        W22153  13.637   9.778  13.046
60491W        W22154  22.654  40.892  13.487
60492W        W22155  29.635  13.693   3.218
60493W        W22156   0.833  15.115   0.796
60494W        W22157  14.250   8.187   4.733
60495W        W22158   1.772  15.820   3.720
60496W        W22159  31.007  23.068  12.068
60497W        W22160  13.743  17.763  11.512
60498W        W22161  24.693  40.503   1.792
60499W        W22162   7.274   3.803  12.024
60500W        W22163  10.346  32.000  12.578
60501W        W22164   6.397  42.448  12.425
60502W        W22165  24.980   1.460  14.380
60503W        W22166  25.521  36.422  13.395
60504W        W22167  40.986  22.238   1.403
60505W        W22168   8.751   4.280  10.448
60506W        W22169  12.647  15.778   4.194
60507W        W22170   4.793  33.059   0.444
60508W        W22171  32.086  29.049   2.887
60509W        W22172  41.345   7.178   2.378
60510W        W22173  23.123   5.697   1.874
60511W        W22174  37.565  14.137  13.924
60512W        W22175  37.549  27.660  14.475
60513W        W22176  25.576  41.474  14.316
60514W        W22177  39.498   3.233   4.205
60515W        W22178   0.384  44.477  10.635
60516W        W22179   9.260  10.238  12.425
60517W        W22180  28.583  16.237  12.426
60518W        W22181   5.804   7.834  10.422
60519W        W22182  26.987   6.427   0.806
60520W        W22183  17.157  40.360   3.785
60521W        W22184   0.872  35.879   4.327
60522W        W22185   9.271   5.419  13.446
60523W        W22186  19.748   1.260   4.812
60524W        W22187  26.694  26.581  10.037
60525W        W22188  28.155  27.558   4.717
60526W        W22189  42.391  24.074   2.902
60527W        W22190  16.095   3.388  13.797
60528W        W22191   5.222   0.277  14.473
60529W        W22192  16.118  34.996   1.418
60530W        W22193   3.885   9.335   0.845
60531W        W22194  28.622  23.010  14.305
60532W        W22195  33.596   3.294   1.238
60533W        W22196  11.267   5.924  12.979
60534W        W22197  21.017   2.748  13.416
60535W        W22198  21.197  29.457   1.829
60536W        W22199  10.735  27.090  10.627
60537W        W22200  39.976  28.536  14.417
60538W        W22201  20.057   2.379   1.434
60539W        W22202   9.783  28.075   0.955
60540W        W22203  35.880  24.166   3.157
60541W        W22204   6.395  22.611  12.846
60542W        W22205  14.302  43.364   4.322
60543W        W22206  25.619   9.880  14.930
60544W        W22207  32.503  33.585  12.974
60545W        W22208   4.778  27.954  10.429
60546W        W22209   6.818  40.308  12.867
60547W        W22210  29.650  41.962  12.535
60548W        W22211  44.833   0.873  13.376
60549W        W22212  18.548  31.600   1.869
60550W        W22213  30.596  12.615   1.850
60551W        W22214  27.940  24.553   2.665
60552W        W22215  43.892  18.213  12.080
60553W        W22216   7.716  39.808   1.378
60554W        W22217  44.384  23.722  14.900
60555W        W22218  28.654   3.232   2.695
60556W        W22219  41.803  15.623  12.971
60557W        W22220  42.954  14.184   0.907
60558W        W22221  14.604  32.028   4.611
60559W        W22222   2.342  39.978  12.040
60560W        W22223  13.338  36.979  13.875
60561W        W22224  14.795  32.004  12.370
60562W        W22225  26.141  11.240   0.307
60563W        W22226  14.237  25.086  10.588
60564W        W22227  31.442   0.461  10.468
60565W        W22228  39.532   4.247   1.872
60566W        W22229  16.758   1.239  12.892
60567W        W22230  38.872   7.868  13.918
60568W        W22231   7.748  14.160  12.920
60569W        W22232  39.827  32.015   4.705
60570W        W22233  34.420  28.575   1.260
60571W        W22234  11.744  14.094   4.317
60572W        W22235  22.624  24.993   0.457
60573W        W22236  17.248  41.506   0.762
60574W        W22237   9.800  39.982   1.806
60575W        W22238  11.225  29.642   0.861
60576W        W22239  28.019  16.286   2.865
60577W        W22240  43.854  40.391   1.343
60578W        W22241  11.139   7.382   2.401
60579W        W22242  25.626   4.436   3.295
60580W        W22243   3.376   3.908   2.354
60581W        W22244  40.934  36.078   3.632
60582W        W22245  21.111   1.807  13.346
60583W        W22246   9.209  20.229  14.785
60584W        W22247   3.839  35.912   3.661
60585W        W22248  35.101  10.151  14.433
60586W        W22249   0.924  42.312   4.783
60587W        W22250   3.756  10.357   2.379
60588W        W22251  23.603   8.168  13.903
60589W        W22252  40.314   2.780  13.395
60590W        W22253  34.007  40.473  10.538
60591W        W22254  19.136  28.040  11.470
60592W        W22255   5.756  17.570   1.854
60593W        W22256  16.611  22.034  11.458
60594W        W22257   6.199  15.711   5.240
60595W        W22258  44.842  23.233   1.726
60596W        W22259   7.223   0.454  10.637
60597W        W22260   3.818  36.854  14.004
60598W        W22261  32.935  35.092   1.821
60599W        W22262  15.690   0.820   2.721
60600W        W22263  41.981  32.936   2.832
60601W        W22264  20.532   4.223  10.947
60602W        W22265  18.104  28.444  12.048
60603W        W22266  29.984  24.679  14.424
60604W        W22267  17.122  36.029   4.255
60605W        W22268  31.103  38.012   0.452
60606W        W22269  42.488  35.920   1.380
60607W        W22270  24.662  29.605   1.759
60608W        W22271  41.924   0.287   0.911
60609W        W22272  17.265  31.533  11.522
60610W        W22273   9.367  37.376  11.502
60611W        W22274   6.681  19.271  12.871
60612W        W22275  41.348   1.316   0.847
60613W        W22276  43.940  21.235   2.208
60614W        W22277  22.554  12.711  14.481
60615W        W22278   5.195   3.796   2.806
60616W        W22279  11.136  20.656   1.701
60617W        W22280  38.946  40.499   4.726
60618W        W22281   1.732  25.049  11.489
60619W        W22282  10.360  41.367   0.423
60620W        W22283  35.967  13.839   1.414
60621W        W22284  34.042  28.463   0.272
60622W        W22285  14.819  12.833   3.851
60623W        W22286  34.913  41.802  14.021
60624W        W22287   7.201  17.093   0.842
60625W        W22288  22.105  26.640   2.844
60626W        W22289  16.209  14.720  12.833
60627W        W22290  22.205   5.800  10.913
60628W        W22291  43.850  42.962   0.860
60629W        W22292  20.729   0.766  14.992
60630W        W22293  44.410  24.026  12.977
60631W        W22294  38.048  16.196   2.372
60632W        W22295  22.526   4.921  14.929
60633W        W22296  16.729  15.608   0.793
60634W        W22297  34.081   2.770   2.676
60635W        W22298  11.839   3.378   9.979
60636W        W22299  12.210  38.345   1.283
60637W        W22300  22.630  30.516   4.148
60638W        W22301  18.676  33.044   0.366
60639W        W22302  36.862  34.385   4.685
60640W        W22303  26.953  29.016  14.969
60641W        W22304  13.802  34.369  12.388
60642W        W22305   3.307  14.338  11.857
60643W        W22306   0.470  42.838   3.670
60644W        W22307  38.428  21.747  10.495
60645W        W22308  42.501  24.043  10.444
60646W        W22309  21.093   3.287   1.288
60647W        W22310   2.823   3.834  13.328
60648W        W22311  41.801  41.374   3.190
60649W        W22312   1.367   8.165   3.150
60650W        W22313   6.209  16.635   2.824
60651W        W22314  20.061  34.526  14.888
60652W        W22315   5.799  31.899   1.321
60653W        W22316  31.496  15.170   2.753
60654W        W22317  39.504  18.764   2.875
60655W        W22318  10.768  14.294   4.805
60656W        W22319  22.200  23.135  12.956
60657W        W22320  17.245  31.060  12.558
60658W        W22321  15.805  25.681  10.505
60659W        W22322   5.808  20.673   2.770
60660W        W22323  22.699  30.549   0.834
60661W        W22324  33.560  18.062   3.799
60662W        W22325  41.470  32.481  11.968
60663W        W22326  37.468  38.459   3.684
60664W        W22327  18.102  43.446  11.061
60665W        W22328  17.769  26.006   2.689
60666W        W22329   8.864  34.393   0.871
60667W        W22330  11.325  36.352  14.468
60668W        W22331  37.992  29.668   3.239
60669W        W22332  37.921   4.292   3.649
60670W        W22333  17.762  41.441   4.122
60671W        W22334  20.077  16.087   5.215
60672W        W22335   2.900  29.628   2.366
60673W        W22336  38.957  28.623   1.812
60674W        W22337  17.750  41.827   3.720
60675W        W22338  38.998   5.353   1.850
60676W        W22339   1.942  27.101  14.932
60677W        W22340  18.573   1.381  10.500
60678W        W22341  31.003  25.654  12.532
60679W        W22342   9.217  18.574   4.762
60680W        W22343  41.367  39.972   2.709
60681W        W22344  17.640  13.627  10.027
60682W        W22345  14.712   2.873  11.533
60683W        W22346  41.301  44.859  11.562
60684W        W22347   5.344  12.654  12.412
60685W        W22348   0.377  31.983   4.267
60686W        W22349  12.662  16.218   4.179
60687W        W22350  11.189  27.047  10.451
60688W        W22351  28.493  32.421   1.284
60689W        W22352  15.304  16.195  15.000
60690W        W22353  42.355  43.304  12.397
60691W        W22354  18.698  35.035   4.781
60692W        W22355  27.059  31.041  13.022
60693W        W22356   0.864   3.337  13.913
60694W        W22357  27.084   0.841   0.844
60695W        W22358  14.596  24.576   3.157
60696W        W22359  33.899  35.096  13.482
60697W        W22360   6.316  12.281   0.328
60698W        W22361  14.287   8.405  10.623
60699W        W22362  17.619   4.766   0.966
60700W        W22363  24.661  38.434  12.461
60701W        W22364  43.431  32.963   3.323
60702W        W22365  39.832  44.926  12.005
60703W        W22366   3.801  38.533  12.955
60704W        W22367  38.461  27.116  12.429
60705W        W22368   7.288  33.127   3.358
60706W        W22369   3.314  11.675   0.810
60707W        W22370   9.859  42.445  14.902
60708W        W22371  29.428  40.436  14.784
60709W        W22372  36.897  37.039   3.335
60710W        W22373  16.805  10.761  13.862
60711W        W22374  44.943   6.320   1.405
60712W        W22375  42.990  25.488  11.536
60713W        W22376   7.758  15.636   2.188
60714W        W22377  14.622  35.560  10.584
60715W        W22378  24.487  16.572   0.286
60716W        W22379   9.720   3.877   4.194
60717W        W22380  29.590   2.381  14.417
60718W        W22381  25.531  34.054  13.946
60719W        W22382  23.604  28.011   3.288
60720W        W22383  39.424  38.536  12.511
60721W        W22384  43.999  38.565  12.924
60722W        W22385  33.385  35.561  14.796
60723W        W22386  13.837  32.440   2.257
60724W        W22387  27.529  30.098  11.057
60725W        W22388  22.140   1.783   0.251
60726W        W22389  42.380   9.325  12.400
60727W        W22390   5.297  26.118   4.268
60728W        W22391  20.076  20.563   1.929
60729W        W22392  34.478  34.958   0.786
60730W        W22393  18.676  43.006  11.967
60731W        W22394   9.329   4.314   4.251
60732W        W22395   0.442  22.660  10.489
60733W        W22396  25.187  42.887  13.420
60734W        W22397  27.583  37.526   3.674
60735W        W22398  30.625   5.384  13.960
60736W        W22399   9.315  13.174   1.833
60737W        W22400   5.751  26.573  12.478
60738W        W22401  28.565  28.595  13.367
60739W        W22402   4.307  24.222  14.005
60740W        W22403   0.461  39.048  11.569
60741W        W22404  25.153  16.614  13.063
60742W        W22405  12.262  40.341  13.321
60743W        W22406  44.404   8.355   3.181
60744W        W22407  36.416  14.149  13.963
60745W        W22408   2.775  23.998   0.402
60746W        W22409  23.589  31.944   3.330
60747W        W22410  12.284  15.190  12.564
60748W        W22411   9.344  10.379   3.850
60749W        W22412  17.140  13.822  10.509
60750W        W22413  15.206  20.071  12.855
60751W        W22414  18.182  41.508   1.267
60752W        W22415   9.697   4.411   1.374
60753W        W22416   5.805  41.449   1.300
60754W        W22417  25.644  39.874   1.810
60755W        W22418  15.176  16.269   9.594
60756W        W22419  33.918  21.642   2.736
60757W        W22420   1.888  17.618   2.278
60758W        W22421  11.833  17.617   1.887
60759W        W22422  17.646  23.223  12.500
60760W        W22423  32.890  23.130  11.441
60761W        W22424  13.658  30.976  13.034
60762W        W22425   4.742  39.315   1.301
60763W        W22426  25.156  32.974   2.760
60764W        W22427  42.982  34.464   2.865
60765W        W22428  44.461   3.255   1.387
60766W        W22429  17.276  36.967  11.586
60767W        W22430   6.826  16.266   1.771
60768W        W22431   4.909   0.955  14.892
60769W        W22432  24.616  40.829  11.383
60770W        W22433   1.737  21.058  10.541
60771W        W22434  25.617  24.089   3.293
60772W        W22435  18.149  41.964   2.832
60773W        W22436  28.455  42.819   0.865
60774W        W22437  21.237  15.819   0.327
60775W        W22438  26.101  38.891   0.907
60776W        W22439   3.742  41.850   2.393
60777W        W22440  36.885  38.907  12.427
60778W        W22441  20.768  18.545  14.464
60779W        W22442  36.857  43.494  11.954
60780W        W22443  26.699  44.424  13.937
60781W        W22444   4.337  39.484  14.989
60782W        W22445   6.349  15.188  10.580
60783W        W22446  12.179  40.035   1.743
60784W        W22447   8.834  29.936  14.830
60785W        W22448  36.004  26.613  14.408
60786W        W22449  24.170  24.148  13.012
60787W        W22450  12.261  28.930  11.000
60788W        W22451  15.224  27.947  13.387
60789W        W22452  30.911   3.912  14.358
60790W        W22453  17.615  10.166   0.932
60791W        W22454  21.610   9.847  13.937
60792W        W22455  41.993   8.292  11.414
60793W        W22456  11.285  18.640  12.378
60794W        W22457  38.047  40.943   2.400
60795W        W22458  26.097  24.714  11.499
60796W        W22459  19.125  12.339  14.926
60797W        W22460  19.689  32.086   1.847
60798W        W22461  26.025   1.250  11.433
60799W        W22462  15.659   3.898  14.903
60800W        W22463  31.631  31.573  13.459
60801W        W22464   6.893  13.190  11.527
60802W        W22465  39.374  28.648   2.875
60803W        W22466   8.891   6.276  13.431
60804W        W22467  38.007  11.332  13.453
60805W        W22468  29.951  11.865   0.348
60806W        W22469  15.250   0.457   3.794
60807W        W22470   1.457  23.143   3.233
60808W        W22471  13.177  12.342   0.471
60809W        W22472  14.649  10.738   2.367
60810W        W22473  14.251  38.518   3.735
60811W        W22474  10.772  28.055  14.388
60812W        W22475  43.825  37.022   0.850
60813W        W22476   7.859   4.915   1.282
60814W        W22477  20.581  24.164  13.511
60815W        W22478   2.376  31.433   2.195
60816W        W22479  15.611   0.892  11.510
60817W        W22480   2.730   1.248   3.719
60818W        W22481   2.337  19.254  13.346
60819W        W22482  16.577   8.835   3.825
60820W        W22483   7.226  29.581   3.174
60821W        W22484  40.939  44.340   1.747
60822W        W22485  38.860  39.405   3.380
60823W        W22486  33.566   6.855   1.245
60824W        W22487  20.600  28.948  13.910
60825W        W22488  13.214   7.179   4.352
60826W        W22489  22.158  28.102  13.988
60827W        W22490  20.049  24.213   0.880
60828W        W22491  13.277  29.454   3.833
60829W        W22492  14.637  36.564   2.263
60830W        W22493  34.416  44.434   1.772
60831W        W22494   4.792  31.416   4.801
60832W        W22495  34.043   3.240  14.480
60833W        W22496  43.315  10.179  10.995
60834W        W22497  41.477   2.769  14.514
60835W        W22498   0.325  18.705  11.380
60836W        W22499  31.982  32.025   2.252
60837W        W22500  14.309  20.757  10.446
60838W        W22501  11.649   7.294   3.318
60839W        W22502  32.086  41.896   0.900
60840W        W22503  40.492  35.501   0.747
60841W        W22504   9.376  28.492  13.327
60842W        W22505  22.672  17.591  11.464
60843W        W22506  38.862  14.800   0.830
60844W        W22507  23.569  41.466  12.551
60845W        W22508  39.485  31.070  14.386
60846W        W22509  30.600   2.815   0.873
60847W        W22510  11.133  30.497  12.429
60848W        W22511  23.093  37.831   3.668
60849W        W22512  17.089  27.092   3.820
60850W        W22513  29.646  18.273   1.906
60851W        W22514  26.137  36.052  11.425
60852W        W22515  20.221  28.479   2.786
60853W        W22516   0.405  25.084  14.314
60854W        W22517  30.965  32.407  11.516
60855W        W22518  11.292  42.819  10.529
60856W        W22519  37.898  13.260  13.880
60857W        W22520   6.192  38.493   4.807
60858W        W22521   9.718  10.660  11.427
60859W        W22522  11.314  35.022   1.399
60860W        W22523  20.522  32.935  13.891
60861W        W22524   0.830  22.532  11.430
60862W        W22525  23.239  16.167  12.861
60863W        W22526  10.233   8.290  13.831
60864W        W22527  37.477  20.173   2.850
60865W        W22528  35.954   1.470   3.384
60866W        W22529  13.825   6.817   2.745
60867W        W22530  10.848  44.972  13.924
60868W        W22531  33.050  43.834  11.465
60869W        W22532  15.654   1.477   2.262
60870W        W22533   9.273   6.688   3.281
60871W        W22534  19.214  37.431  11.476
60872W        W22535   3.376  33.509  11.030
60873W        W22536  42.848  30.007   2.893
60874W        W22537  21.658  43.446   3.329
60875W        W22538  14.205  14.683  12.952
60876W        W22539  40.006  43.007  11.000
60877W        W22540   1.952  33.536   2.241
60878W        W22541  18.189  10.289   1.896
60879W        W22542  13.106   0.934  13.968
60880W        W22543  42.026  44.487   4.736
60881W        W22544  29.985  38.836  14.349
60882W        W22545   9.829  26.500   3.866
60883W        W22546  35.025  14.609  13.476
60884W        W22547   2.905  14.227   2.860
60885W        W22548  24.687  32.463  14.883
60886W        W22549  11.175   2.311   0.936
60887W        W22550  37.032  36.979  14.887
60888W        W22551  43.974  16.799   0.295
60889W        W22552   9.177  42.017   0.757
60890W        W22553   8.256   5.695  14.850
60891W        W22554  15.084  42.373  11.394
60892W        W22555  12.826  38.355  10.927
60893W        W22556  26.469   9.374  13.844
60894W        W22557   1.320  29.062   2.309
60895W        W22558  35.021  14.286   0.875
60896W        W22559  18.774  31.035  10.954
60897W        W22560  20.110   4.908  11.106
60898W        W22561  21.017   2.881  12.481
60899W        W22562  17.598  30.014   3.825
60900W        W22563  44.768  32.470  10.460
60901W        W22564  36.970   5.790   0.882
60902W        W22565  44.371   2.252  10.633
60903W        W22566  24.046  36.402  13.884
60904W        W22567  11.796   6.225  14.284
60905W        W22568   0.964  39.441   1.799
60906W        W22569  34.055   7.274  14.282
60907W        W22570  11.173  43.006   4.838
60908W        W22571  34.432  19.144  13.547
60909W        W22572  41.020  31.129  13.994
60910W        W22573  12.792   5.869   0.357
60911W        W22574  13.175   5.829  13.827
60912W        W22575  18.184   9.227   0.249
60913W        W22576  26.482  41.435   1.768
60914W        W22577  28.097  19.539  13.459
60915W        W22578  39.910  41.520  14.007
60916W        W22579   2.762  39.848   4.215
60917W        W22580  13.782  10.153   4.296
60918W        W22581   7.839  35.989   4.644
60919W        W22582   2.413  34.615   4.243
60920W        W22583  29.008  26.153   1.265
60921W        W22584  20.768  31.581  14.336
60922W        W22585   7.750  29.027  12.451
60923W        W22586  34.046  11.195   2.305
60924W        W22587  29.519  31.127  13.932
60925W        W22588  25.672   9.690   1.709
60926W        W22589   0.836  11.743  11.964
60927W        W22590  32.886  31.493   2.258
60928W        W22591  36.063  37.888   1.877
60929W        W22592  17.747  34.953  11.934
60930W        W22593  13.293  28.985  13.360
60931W        W22594  39.930  11.225   4.218
60932W        W22595  42.292  11.833  13.869
60933W        W22596   1.290  17.777  11.101
60934W        W22597   1.764  34.513  10.453
60935W        W22598  35.393  23.531   3.300
60936W        W22599  19.585  37.567  13.505
60937W        W22600  36.949  13.668   1.425
60938W        W22601  13.270   7.761   9.564
60939W        W22602   7.893  43.399   4.611
60940W        W22603  16.796   3.752  10.404
60941W        W22604  40.900   6.769   1.920
60942W        W22605  43.817  26.602  10.440
60943W        W22606  21.719   6.847  12.346
60944W        W22607   0.328   2.427  11.395
60945W        W22608   4.707  26.535   1.222
60946W        W22609  43.318  17.623   3.181
60947W        W22610  29.087  42.387   3.652
60948W        W22611  43.465  39.019  10.022
60949W        W22612   5.748   4.423  13.867
60950W        W22613   6.305   7.417  11.965
60951W        W22614   3.922  33.385   0.839
60952W        W22615  13.645   7.232  14.369
60953W        W22616  22.127  22.097  14.449
60954W        W22617   0.788  20.578   4.735
60955W        W22618  42.330  23.064  12.440
60956W        W22619  43.505  33.561  11.503
60957W        W22620   8.885   2.271   2.674
60958W        W22621  28.134   3.216  14.325
60959W        W22622  43.310  21.113  11.859
60960W        W22623   9.707  13.308   1.794
60961W        W22624   8.731   3.847   3.647
60962W        W22625  23.091  37.933  12.354
60963W        W22626   4.299  18.665  13.462
60964W        W22627  32.581  37.994  10.496
60965W        W22628  27.183   3.862  10.899
60966W        W22629  34.077  31.423   1.930
60967W        W22630  20.651  26.041   4.322
60968W        W22631  13.752  10.236   2.368
60969W        W22632  30.540   4.327   3.207
60970W        W22633  16.173  40.841  13.027
60971W        W22634  27.964  10.700   4.350
60972W        W22635  39.486  11.754   1.219
60973W        W22636  40.959   1.950  12.895
60974W        W22637  14.235  35.478  12.381
60975W        W22638   6.804  27.459   3.311
60976W        W22639  20.135  26.982  11.075
60977W        W22640  27.955  31.498   2.248
60978W        W22641  26.201  43.832   4.751
60979W        W22642   5.343  37.851   0.349
60980W        W22643  22.666   6.186   0.802
60981W        W22644   8.375  27.161   1.438
60982W        W22645   3.723   5.808  13.547
60983W        W22646  23.530   1.401   0.837
60984W        W22647  29.634   9.687   0.285
60985W        W22648  31.982  34.047   1.298
60986W        W22649  26.583  37.072  10.909
60987W        W22650  28.617  39.046  14.953
60988W        W22651  33.536  23.002   4.144
60989W        W22652  38.895  20.704  13.441
60990W        W22653  16.316   5.287  14.342
60991W        W22654  20.056  11.820  11.000
60992W        W22655  15.802   3.241  12.918
60993W        W22656  22.710  28.555   0.848
60994W        W22657  27.185   4.393  10.949
60995W        W22658  19.159  37.948   0.281
60996W        W22659   0.843  43.466  12.345
60997W        W22660  17.721  16.806   4.148
60998W        W22661   3.292  37.360  12.349
60999W        W22662  11.818  12.750  12.893
61000W        W22663  32.026  21.692  10.098
61001W        W22664   1.353   6.827  12.921
61002W        W22665  13.311  31.645  13.812
61003W        W22666  29.604  19.258   2.276
61004W        W22667  29.500  19.541  14.925
61005W        W22668  21.176  13.819   1.257
61006W        W22669   5.348  43.406   4.597
61007W        W22670  26.193  26.598   4.730
61008W        W22671   7.816  16.715   4.279
61009W        W22672   4.251   2.960   3.750
61010W        W22673  19.644  26.480   0.931
61011W        W22674  15.316  20.107   0.771
61012W        W22675  33.888  13.671   4.679
61013W        W22676  36.074  33.973  13.335
61014W        W22677  28.125  26.467   2.192
61015W        W22678  29.607  10.176   3.631
61016W        W22679  10.343   6.193   0.326
61017W        W22680  31.006  35.427   2.892
61018W        W22681  28.678  17.077   3.308
61019W        W22682  43.919  19.776  14.324
61020W        W22683  44.839   0.973   2.896
61021W        W22684  44.458   3.748   1.423
61022W        W22685  23.071   6.323  11.998
61023W        W22686  12.763  22.516   3.728
61024W        W22687  33.419  24.602  11.552
61025W        W22688  39.430  13.606  10.547
61026W        W22689   0.925  44.870  14.799
61027W        W22690   4.788  22.606  13.398
61028W        W22691  17.208  10.337   4.633
61029W        W22692  10.330   6.829   0.296
61030W        W22693  30.535  27.019  10.497
61031W        W22694   0.898  39.945  10.613
61032W        W22695  33.538  13.777   2.192
61033W        W22696  34.504  31.482  12.959
61034W        W22697  31.023  24.127  11.072
61035W        W22698  33.399  19.118   0.326
61036W        W22699  43.373  14.623   3.325
61037W        W22700  26.176   1.901  12.033
61038W        W22701  11.756   0.416   2.179
61039W        W22702  42.819   7.190  12.443
61040W        W22703  30.136  22.682   3.195
61041W        W22704  37.554   3.769   2.727
61042W        W22705  44.467   1.925  11.864
61043W        W22706  11.327  10.815  12.825
61044W        W22707  26.536  29.926   0.259
61045W        W22708  11.709   1.953  13.007
61046W        W22709  21.686  15.763   2.797
61047W        W22710  34.407  33.405   2.678
61048W        W22711  36.029  33.918  11.413
61049W        W22712  23.169  18.208   3.344
61050W        W22713  16.722  17.586  10.977
61051W        W22714  42.339  26.667  14.467
61052W        W22715  21.133  37.932  11.407
61053W        W22716  33.616   9.879  12.369
61054W        W22717  31.987   0.879   0.731
61055W        W22718  10.738   9.252   0.406
61056W        W22719  44.800   6.716  11.395
61057W        W22720  16.614   9.154   4.294
61058W        W22721   1.931  10.670   2.383
61059W        W22722  23.563  40.907  14.845
61060W        W22723  13.297  22.211  14.476
61061W        W22724   9.244  27.631  13.851
61062W        W22725  27.142   5.270   4.286
61063W        W22726  43.375  42.009   1.746
61064W        W22727  42.284  29.649   1.358
61065W        W22728  12.812  39.899   1.840
61066W        W22729   9.811  26.198   4.744
61067W        W22730   1.345  10.287   3.383
61068W        W22731  24.663  44.828  12.067
61069W        W22732  11.676  19.078  11.052
61070W        W22733  32.114  12.325  13.970
61071W        W22734  21.530   0.802  14.405
61072W        W22735  31.531  24.113   3.686
61073W        W22736   4.820   4.794   1.344
61074W        W22737   4.450   3.358  12.835
61075W        W22738  21.117   8.179   4.274
61076W        W22739  34.428  18.142  10.486
61077W        W22740   0.284   1.278   1.749
61078W        W22741  30.010   0.278   0.818
61079W        W22742  14.271  10.246  10.032
61080W        W22743  10.196  35.083   0.937
61081W        W22744  32.408  44.286   2.343
61082W        W22745  26.699  26.065  13.881
61083W        W22746   3.762  41.422   0.471
61084W        W22747   9.213  31.952  10.636
61085W        W22748  13.278  15.811   3.164
61086W        W22749   6.896  27.192  13.425
61087W        W22750  16.762  22.225  10.566
61088W        W22751  13.227  40.532   3.211
61089W        W22752  27.680  36.354   1.707
61090W        W22753  21.055  42.316  13.513
61091W        W22754  43.900   3.453  11.451
61092W        W22755  18.230  11.279   1.386
61093W        W22756   0.253  29.565  13.530
61094W        W22757  16.294  42.353  10.986
61095W        W22758  16.102  36.004   2.867
61096W        W22759  12.283  25.475  13.972
61097W        W22760  20.595   9.825  12.830
61098W        W22761  44.937  36.528  10.934
61099W        W22762  22.007  24.645   4.824
61100W        W22763  13.280  31.053  10.925
61101W        W22764   7.225  11.348   4.326
61102W        W22765  37.077  44.882   3.284
61103W        W22766  26.126   0.777  14.840
61104W        W22767  11.283  14.691  11.115
61105W        W22768  44.946  41.931   0.852
61106W        W22769  40.511  21.066  13.432
61107W        W22770  37.906  11.627   2.301
61108W        W22771  23.119   4.793  13.360
61109W        W22772  43.418   5.855  13.915
61110W        W22773  41.329   6.888   4.158
61111W        W22774  36.973  18.710  14.959
61112W        W22775  19.218  20.148   1.286
61113W        W22776   4.705  17.227  12.980
61114W        W22777  25.161  27.951   2.356
61115W        W22778  16.750  25.011  10.552
61116W        W22779  35.986  14.736  11.111
61117W        W22780  28.475   7.241  10.529
61118W        W22781  33.595   3.334   0.401
61119W        W22782  15.179  38.871   4.275
61120W        W22783  23.566   0.768   4.672
61121W        W22784   7.804  40.410  14.287
61122W        W22785  41.819  41.376  11.035
61123W        W22786  28.608  15.326  13.509
61124W        W22787  31.043   8.162  11.054
61125W        W22788   3.814  34.957   1.268
61126W        W22789   8.772   2.919   4.603
61127W        W22790  36.071  18.593   1.385
61128W        W22791  43.353  12.351   4.831
61129W        W22792  12.338   7.905   3.157
61130W        W22793  30.577  42.871  14.902
61131W        W22794  18.264  36.542   0.791
61132W        W22795   5.207   6.357  11.070
61133W        W22796  20.094  41.428  10.621
61134W        W22797  32.907  34.922   3.653
61135W        W22798  16.259  18.564   4.124
61136W        W22799   9.380  15.679   0.377
61137W        W22800  28.598  11.132  13.449
61138W        W22801  42.457  26.697  10.477
61139W        W22802  41.423  36.387   1.249
61140W        W22803  31.955  37.538  10.556
61141W        W22804  17.268   6.196   1.705
61142W        W22805  14.267  28.021  13.469
61143W        W22806   5.287  35.447   2.738
61144W        W22807  16.613   7.888  13.973
61145W        W22808   2.335  36.560  14.944
61146W        W22809  29.125  42.364   2.725
61147W        W22810  33.018   3.385  13.848
61148W        W22811  24.596  34.453  10.425
61149W        W22812  40.002  17.720   0.400
61150W        W22813  40.983  36.484   2.194
61151W        W22814  23.677   4.237   1.346
61152W        W22815  31.440   9.327   3.684
61153W        W22816  43.771  12.648   1.333
61154W        W22817  31.418  30.452  10.911
61155W        W22818  24.136  26.653  14.885
61156W        W22819  29.615  15.656  13.472
61157W        W22820   8.893  17.599  10.939
61158W        W22821  44.303  25.693  10.972
61159W        W22822  33.585  13.280  11.555
61160W        W22823  28.167  29.141   4.321
61161W        W22824  31.067  37.372  13.486
61162W        W22825   9.874  12.188  14.467
61163W        W22826  33.022  25.480  14.882
61164W        W22827  40.932  41.383   4.629
61165W        W22828  25.498  39.002   3.686
61166W        W22829  37.445  44.768  14.853
61167W        W22830  11.821  36.370   0.781
61168W        W22831  28.501  44.469   2.239
61169W        W22832  33.055  44.420   0.781
61170W        W22833   8.338  20.114  13.859
61171W        W22834  25.627  44.409  12.933
61172W        W22835  44.481  33.081  13.987
61173W        W22836   4.853   3.853  12.479
61174W        W22837  36.501  37.395  12.451
61175W        W22838  32.412  25.623   0.481
61176W        W22839  38.420  10.703  13.968
61177W        W22840  40.481  38.985   3.711
61178W        W22841  24.555  40.845   2.827
61179W        W22842  15.141   6.791   4.140
61180W        W22843  42.865  26.501   4.838
61181W        W22844   3.460  24.570  12.923
61182W        W22845  27.495  15.265  14.006
61183W        W22846   5.333   4.878  10.624
61184W        W22847  37.079  11.678  14.904
61185W        W22848  38.002  38.008   3.291
61186W        W22849   0.785  20.695  14.878
61187W        W22850  28.043  24.188  11.383
61188W        W22851  11.791  15.224  12.944
61189W        W22852  19.644  17.232  14.491
61190W        W22853  20.088  43.902  11.503
61191W        W22854  40.457   0.938  13.033
61192W        W22855  33.922  31.451  13.387
61193W        W22856  28.953  29.474   4.140
61194W        W22857  26.501  26.463   4.718
61195W        W22858  12.650  26.492  13.022
61196W        W22859  19.275   0.415   1.246
61197W        W22860  22.167  21.211  14.827
61198W        W22861  31.905   8.258   1.301
61199W        W22862   5.326   1.770   3.668
61200W        W22863  40.363  29.020   2.873
61201W        W22864  23.548  30.030  12.849
61202W        W22865   6.210  17.608  13.874
61203W        W22866  22.540  27.638  14.318
61204W        W22867  21.727  12.278  13.925
61205W        W22868  34.927  44.789   3.703
61206W        W22869  38.891  25.616   0.281
61207W        W22870  44.846  30.069   1.892
61208W        W22871  10.742  26.461   0.823
61209W        W22872  25.714  28.548  12.897
61210W        W22873  41.413  22.569  14.801
61211W        W22874  20.086  11.228  11.858
61212W        W22875  44.011  37.948  13.403
61213W        W22876  11.274   8.170  13.021
61214W        W22877  15.163  16.153  10.426
61215W        W22878  15.612  25.218  10.488
61216W        W22879  38.889  37.966  12.861
61217W        W22880   7.738   3.770   0.900
61218W        W22881  39.511   4.870  13.307
61219W        W22882  33.502  44.448   2.300
61220W        W22883   9.812   4.280  11.548
61221W        W22884  19.711   4.327   2.206
61222W        W22885  33.907  36.911  11.562
61223W        W22886   5.782  27.618  10.998
61224W        W22887  30.619  38.937  10.912
61225W        W22888  19.219  13.319   3.188
61226W        W22889   2.347  36.390  11.876
61227W        W22890  20.220  24.610   3.386
61228W        W22891  26.018  27.626  13.393
61229W        W22892  19.222  23.643   3.235
61230W        W22893  12.328  28.069  11.588
61231W        W22894  16.710  32.581   4.698
61232W        W22895  12.776  15.242   2.676
61233W        W22896  10.213  24.033   5.202
61234W        W22897  28.621  40.411   0.405
61235W        W22898  36.488  34.954  12.867
61236W        W22899   2.889  33.990  13.315
61237W        W22900  32.569  16.694   4.131
61238W        W22901  19.123  41.537  10.450
61239W        W22902  12.326  24.663   3.309
61240W        W22903  13.322  11.808  11.430
61241W        W22904  19.199  17.147  14.891
61242W        W22905  40.924  16.741  12.440
61243W        W22906   0.302  32.111  14.355
61244W        W22907  30.931   8.801   2.883
61245W        W22908  41.517   9.657   4.740
61246W        W22909  16.177  18.184   2.327
61247W        W22910  28.651  11.650   3.668
61248W        W22911   1.265  32.050  12.853
61249W        W22912  38.075  25.012   1.901
61250W        W22913  32.065   4.748  14.002
61251W        W22914   8.875  37.436  10.056
61252W        W22915   2.745  31.130   4.153
61253W        W22916  32.637   4.234  14.499
61254W        W22917  21.022   7.213   0.784
61255W        W22918  43.852   9.647   3.665
61256W        W22919  35.523  16.616  14.032
61257W        W22920  17.648  33.611  12.033
61258W        W22921  20.665  22.538   0.746
61259W        W22922  22.130  13.815   1.817
61260W        W22923  32.031  36.468   1.339
61261W        W22924   5.381  27.041   2.220
61262W        W22925  10.383  32.526   3.695
61263W        W22926  27.149  22.616   3.717
61264W        W22927  33.567  30.561  13.827
61265W        W22928  16.272  12.337   4.605
61266W        W22929  30.533   5.693  12.515
61267W        W22930  19.172  13.307   2.760
61268W        W22931  11.186  40.826  13.954
61269W        W22932  35.992  10.664  13.417
61270W        W22933   9.302   9.752   3.796
61271W        W22934  18.097  27.162   0.762
61272W        W22935  19.181   3.432   3.719
61273W        W22936  30.022   9.281   0.843
61274W        W22937   7.706  34.958   0.755
61275W        W22938  35.390  12.667   4.259
61276W        W22939  34.010  41.530  12.824
61277W        W22940   1.770   8.250  10.513
61278W        W22941  16.239  44.453  12.555
61279W        W22942  21.084  36.054  12.857
61280W        W22943  26.513  36.442  14.369
61281W        W22944  33.907  42.808   3.643
61282W        W22945  17.307  27.648  14.300
61283W        W22946  22.120  19.776  10.600
61284W        W22947  44.399  20.058  10.981
61285W        W22948  43.922  36.926  14.795
61286W        W22949  41.311   9.210  12.890
61287W        W22950   7.298  10.763  14.302
61288W        W22951  31.031  19.190  12.986
61289W        W22952  43.325  13.333   2.756
61290W        W22953  13.175  41.904   1.866
61291W        W22954   8.404  34.056  10.438
61292W        W22955   4.328  22.588   1.260
61293W        W22956   6.211  19.542  10.051
61294W        W22957   7.346  25.523  11.078
61295W        W22958  27.115  37.945   0.942
61296W        W22959  23.679  41.516   1.394
61297W        W22960  28.562   9.813   0.828
61298W        W22961  16.742   9.318  14.883
61299W        W22962  17.090  19.773  14.865
61300W        W22963  41.429  39.045  11.889
61301W        W22964  31.106   1.461  14.869
61302W        W22965   9.224  20.715  12.445
61303W        W22966   5.396   5.238  14.925
61304W        W22967  35.051  33.036  12.518
61305W        W22968   5.308  30.012  12.938
61306W        W22969  11.867   4.813   4.666
61307W        W22970  26.965  38.342   0.733
61308W        W22971  38.908  34.112   2.390
61309W        W22972  21.683   4.385   2.718
61310W        W22973  35.461  23.060  10.143
61311W        W22974  25.073  10.855   3.729
61312W        W22975  11.645  12.841  13.490
61313W        W22976   5.826  40.953   0.849
61314W        W22977  44.831  12.138   2.179
61315W        W22978  35.994   0.890   2.306
61316W        W22979  25.708  34.602   2.794
61317W        W22980  38.004  13.156  13.539
61318W        W22981  42.396  31.998   3.193
61319W        W22982  22.094  17.648  13.839
61320W        W22983  44.972  32.437  12.072
61321W        W22984  19.696  18.176   3.698
61322W        W22985   6.726  23.241  13.034
61323W        W22986  25.699   3.361  13.983
61324W        W22987  35.601  11.695  11.867
61325W        W22988  14.825  24.086  10.618
61326W        W22989  40.440   0.867   1.314
61327W        W22990  24.977  21.528   4.132
61328W        W22991  39.035  41.869  14.026
61329W        W22992  32.469  25.090  13.458
61330W        W22993  10.198  12.296   4.762
61331W        W22994  32.545  30.565  12.365
61332W        W22995  30.552  36.912   3.207
61333W        W22996  43.317  32.008  14.434
61334W        W22997  37.416   2.310   0.749
61335W        W22998  29.469  42.316  11.604
61336W        W22999  31.569  13.831  12.925
61337W        W23000  19.204  31.986  12.385
61338W        W23001  44.416  33.514   3.768
61339W        W23002  13.303   4.829   3.795
61340W        W23003  44.791  12.837   0.428
61341W        W23004  34.561  40.415   4.731
61342W        W23005  33.577  14.128  12.474
61343W        W23006  37.880   6.698   1.273
61344W        W23007  16.243  42.878  12.870
61345W        W23008   0.854  35.444  14.925
61346W        W23009  25.522  32.010  10.116
61347W        W23010  28.969  30.585  12.438
61348W        W23011  26.157  22.639   0.775
61349W        W23012   1.747  23.095   3.338
61350W        W23013  13.270   9.210  13.886
61351W        W23014   7.813  22.020   2.891
61352W        W23015  37.851   1.788   3.290
61353W        W23016  37.839   4.330  11.994
61354W        W23017  29.073   9.389  14.479
61355W        W23018   3.758  14.769   4.637
61356W        W23019  23.233  24.484  13.414
61357W        W23020  17.280  21.183   3.691
61358W        W23021  29.460  22.598  12.531
61359W        W23022  22.200  24.526  11.106
61360W        W23023  41.832  10.335   4.349
61361W        W23024  29.018  32.555  14.510
61362W        W23025  40.884   6.795  13.401
61363W        W23026   2.307   7.415   2.230
61364W        W23027   5.327  15.717  12.024
61365W        W23028   5.402  36.996   4.758
61366W        W23029  28.161  11.634  11.538
61367W        W23030  16.695  43.888  12.522
61368W        W23031  32.052  30.004  14.500
61369W        W23032  14.609   2.415  13.485
61370W        W23033  19.151   1.414   3.676
61371W        W23034  31.063  32.557  12.359
61372W        W23035   6.187  30.575   0.320
61373W        W23036  22.570  25.169  14.788
61374W        W23037  41.406  19.547   4.291
61375W        W23038  38.891   9.765   3.326
61376W        W23039  26.198  11.173   1.397
61377W        W23040  44.283  13.110   2.796
61378W        W23041   3.923   7.415  12.081
61379W        W23042  13.700  21.127  13.820
61380W        W23043  16.641  43.882  14.795
61381W        W23044  27.004  17.258   3.856
61382W        W23045  32.542  35.005   3.149
61383W        W23046  22.111  33.909  13.454
61384W        W23047  19.079  15.288  11.951
61385W        W23048  41.998  39.827   4.753
61386W        W23049   0.350   6.421  14.438
61387W        W23050   5.371  13.840   1.931
61388W        W23051  28.669  36.076   0.737
61389W        W23052  20.556  27.076   4.130
61390W        W23053  16.693  37.428  14.015
61391W        W23054   9.711  28.481   2.752
61392W        W23055  21.114  27.958   0.915
61393W        W23056  34.425  19.647   1.896
61394W        W23057  31.512  22.127   2.748
61395W        W23058  30.989   0.902   1.217
61396W        W23059  22.594   1.733   5.590
61397W        W23060  33.106  10.659   0.851
61398W        W23061  44.378  15.247  12.340
61399W        W23062  43.455  39.551   2.864
61400W        W23063   2.451  15.776   3.817
61401W        W23064   8.690   3.727  12.079
61402W        W23065  24.539  26.064  13.841
61403W        W23066   9.330  39.553   4.305
61404W        W23067  42.960   0.433   4.760
61405W        W23068   6.221  25.077  14.495
61406W        W23069  34.069   9.685   0.850
61407W        W23070  41.398  13.118   1.871
61408W        W23071  27.518  44.952   3.279
61409W        W23072  37.534   1.899   1.836
61410W        W23073   9.324  34.488   4.666
61411W        W23074  17.670  17.574  13.031
61412W        W23075  20.757  35.581  10.410
61413W        W23076  36.054   4.260   4.803
61414W        W23077   4.781  11.749   3.349
61415W        W23078  15.246  17.655  13.321
61416W        W23079  32.077  41.489  13.810
61417W        W23080   4.846  22.663   3.386
61418W        W23081  35.397  38.534   2.269
61419W        W23082  28.514  11.623  11.008
61420W        W23083  39.921  31.472  12.345
61421W        W23084  24.707  25.637   3.808
61422W        W23085  12.336   6.700   4.132
61423W        W23086  20.101  42.787  10.467
61424W        W23087  39.838   5.701   2.759
61425W        W23088   2.829  14.739   3.216
61426W        W23089  42.902  36.524   1.802
61427W        W23090   5.923  30.936   2.894
61428W        W23091  44.859  36.043   1.379
61429W        W23092  37.934  22.049   0.302
61430W        W23093  21.625  44.368   4.143
61431W        W23094  29.616  22.039  13.442
61432W        W23095  26.558   7.736   0.329
61433W        W23096  44.959  19.573   3.336
61434W        W23097  32.134  31.000  14.414
61435W        W23098  16.202  42.508   3.776
61436W        W23099   1.370  18.186  13.481
61437W        W23100  35.501  16.708   4.269
61438W        W23101  17.760  25.607   3.636
61439W        W23102  29.667   5.397  12.384
61440W        W23103  23.083  13.297  14.481
61441W        W23104  18.076  25.065  10.624
61442W        W23105  36.849   9.230   2.897
61443W        W23106  41.803  20.727  11.021
61444W        W23107  23.166  10.252   0.859
61445W        W23108  27.545  22.550  12.046
61446W        W23109  37.400  30.948   2.847
61447W        W23110  10.262  42.019  13.806
61448W        W23111  44.369  21.071  10.145
61449W        W23112   9.261  33.417   2.192
61450W        W23113  40.358  35.376   2.343
61451W        W23114  40.006  23.539  14.908
61452W        W23115  20.546  12.654   0.755
61453W        W23116  41.403  36.437  10.498
61454W        W23117  19.628  33.930   1.728
61455W        W23118  24.086  31.011  12.458
61456W        W23119  41.832   8.803   0.403
61457W        W23120  16.712  40.341   2.761
61458W        W23121  13.322  36.355   1.935
61459W        W23122  20.040  17.263   2.772
61460W        W23123  41.477  12.306  10.942
61461W        W23124  42.459  33.496   2.203
61462W        W23125  12.618   0.855   4.220
61463W        W23126   8.257   3.737   1.393
61464W        W23127  35.967  27.060   0.440
61465W        W23128  12.693  31.622  14.786
61466W        W23129   1.927   6.279  14.339
61467W        W23130  22.063   6.414   2.841
61468W        W23131   4.264  18.089   1.374
61469W        W23132   4.877  24.977  11.455
61470W        W23133  17.160  35.873  13.997
61471W        W23134  34.905  10.297   2.361
61472W        W23135  10.256  25.147  12.848
61473W        W23136  42.816  23.150   1.916
61474W        W23137  14.739   3.329   2.243
61475W        W23138   3.942  15.232   1.388
61476W        W23139  20.725  16.289  10.576
61477W        W23140  32.988  23.106  11.079
61478W        W23141  25.140  43.457   3.820
61479W        W23142  41.336   1.331  10.513
61480W        W23143  12.333  42.521   2.852
61481W        W23144  33.579  37.986  12.849
61482W        W23145   2.967  12.768   0.812
61483W        W23146   7.345  25.487   0.962
61484W        W23147  43.879  23.732   4.640
61485W        W23148  39.515  43.361  12.082
61486W        W23149  44.769  34.072  13.376
61487W        W23150  33.046  10.794   4.240
61488W        W23151  28.616  10.352   4.769
61489W        W23152  23.095  43.942  11.911
61490W        W23153  17.776  37.960   3.659
61491W        W23154  18.190  10.163   1.435
61492W        W23155  18.269  34.418  10.987
61493W        W23156   5.209   1.917   3.311
61494W        W23157   8.214  41.968   3.256
61495W        W23158  17.237  24.208  10.040
61496W        W23159  20.097   7.380   1.280
61497W        W23160   7.288  28.618  11.090
61498W        W23161  10.223  23.993  12.010
61499W        W23162  14.729  10.191  10.996
61500W        W23163   5.785  40.024   2.676
61501W        W23164  38.823  20.616  14.341
61502W        W23165  43.398  34.580  14.878
61503W        W23166   3.938  21.168  14.343
61504W        W23167  29.044  43.765   4.330
61505W        W23168  18.568  16.196  11.555
61506W        W23169  42.953  30.495   2.700
61507W        W23170  39.518   1.464  11.995
61508W        W23171  41.988   9.811  12.903
61509W        W23172   8.283  31.640  12.994
61510W        W23173   8.306  40.955   0.429
61511W        W23174   7.789  29.519   1.444
61512W        W23175  23.082  17.084   4.243
61513W        W23176  11.297  40.481  10.903
61514W        W23177  15.294  12.805  12.472
61515W        W23178   3.273  18.708  14.447
61516W        W23179  16.711  32.073   2.195
61517W        W23180  18.260  37.907   1.336
61518W        W23181  14.749  37.374   2.814
61519W        W23182  43.916   5.733   1.377
61520W        W23183  21.649   6.719  14.841
61521W        W23184  19.560  21.553  12.046
61522W        W23185  32.495   2.814   2.416
61523W        W23186  21.140   9.757   1.345
61524W        W23187  39.958  19.143  11.538
61525W        W23188   5.302   3.351   0.437
61526W        W23189  12.759  42.281  12.552
61527W        W23190  39.406  38.469   1.327
61528W        W23191   1.905  36.455   4.331
61529W        W23192  33.081   0.829  12.378
61530W        W23193  36.405  11.291  12.406
61531W        W23194  30.427  43.360   3.706
61532W        W23195  28.568  40.364  14.418
61533W        W23196  12.818  40.502  12.543
61534W        W23197  43.514  38.428  14.378
61535W        W23198   0.763  42.863   4.743
61536W        W23199   7.853  26.058   1.774
61537W        W23200  39.056  24.208  12.448
61538W        W23201  21.029   2.246   2.367
61539W        W23202  44.298  30.576  12.394
61540W        W23203  17.771  43.848   0.799
61541W        W23204  21.737  31.971  13.518
61542W        W23205  39.556  10.270   3.317
61543W        W23206   2.965   0.476   1.905
61544W        W23207  31.953  31.646   0.367
61545W        W23208  17.628  31.013   3.751
61546W        W23209  32.016   3.918  14.462
61547W        W23210  12.643  37.434   2.866
61548W        W23211  11.695  28.170   1.731
61549W        W23212   6.281  37.014  14.954
61550W        W23213  39.815  42.830   0.269
61551W        W23214  34.037  34.980   1.873
61552W        W23215   2.839   4.394  12.043
61553W        W23216   4.726   4.849  13.974
61554W        W23217   5.731  33.101  12.441
61555W        W23218  37.470  26.059   3.658
61556W        W23219  39.957  38.547  14.300
61557W        W23220  40.471  41.462  10.947
61558W        W23221   0.862  18.164   2.239
61559W        W23222  38.359   5.927  14.893
61560W        W23223   4.890  36.442   2.326
61561W        W23224  33.984  10.167   0.271
61562W        W23225  25.660   9.365   1.718
61563W        W23226  17.078  27.486   3.170
61564W        W23227  27.124   7.238  13.821
61565W        W23228   8.740  10.798   2.409
61566W        W23229  34.385   1.974   3.703
61567W        W23230  19.703  41.452   0.431
61568W        W23231   6.692  11.216  13.405
61569W        W23232  18.731  27.690  10.521
61570W        W23233   1.349  41.787   4.727
61571W        W23234  21.689  36.352  12.832
61572W        W23235  38.461  29.168  14.432
61573W        W23236  17.279  21.736  12.053
61574W        W23237  42.854  38.931   0.826
61575W        W23238  16.139  38.003  12.497
61576W        W23239  11.312  39.554  11.002
61577W        W23240  13.137   0.327  12.416
61578W        W23241  14.810  12.619   2.859
61579W        W23242  38.489   0.968  13.399
61580W        W23243  44.331  26.030  11.501
61581W        W23244  10.150  43.270   3.810
61582W        W23245   0.756  17.668  11.076
61583W        W23246  28.608  22.631  12.390
61584W        W23247   7.270  31.936  12.053
61585W        W23248  28.981  38.924  12.404
61586W        W23249  22.026  30.549   3.668
61587W        W23250   9.372  44.992   0.270
61588W        W23251  17.561  17.799  13.898
61589W        W23252  42.012  28.026   1.300
61590W        W23253  14.206  42.863   5.269
61591W        W23254   9.816   4.224  14.854
61592W        W23255  32.047  16.584   4.244
61593W        W23256  15.154  37.446   3.278
61594W        W23257  24.989  32.547   0.359
61595W        W23258  23.156  41.919  11.462
61596W        W23259   2.443  27.010  14.764
61597W        W23260   0.941  20.675  11.465
61598W        W23261  36.926  34.891  12.433
61599W        W23262  35.483  25.032  13.971
61600W        W23263   6.344  35.058   3.336
61601W        W23264  16.306  35.968  10.005
61602W        W23265  39.437  28.475   0.402
61603W        W23266   0.431  26.522  11.568
61604W        W23267  22.544  35.576   4.826
61605W        W23268   8.693  27.616   1.418
61606W        W23269  34.115   9.386  14.761
61607W        W23270   7.686  33.553  12.367
61608W        W23271  40.305  24.670  13.874
61609W        W23272  35.503  23.524  10.570
61610W        W23273  39.828  21.159  14.347
61611W        W23274  20.117  34.887  14.507
61612W        W23275  14.180  12.155   2.791
61613W        W23276  23.723  34.925   1.230
61614W        W23277  26.183  25.595   4.124
61615W        W23278  18.204  13.171  11.864
61616W        W23279   2.295  17.292  11.029
61617W        W23280  29.575  44.954   0.769
61618W        W23281  42.493  10.200   3.326
61619W        W23282   8.834   7.371   2.855
61620W        W23283   2.311  26.594  11.398
61621W        W23284  36.442  20.080  14.985
61622W        W23285  24.631  39.927  14.405
61623W        W23286  23.072   9.860   1.762
61624W        W23287  17.579  28.059  12.918
61625W        W23288  22.597  37.933  12.531
61626W        W23289  13.187  39.520  14.345
61627W        W23290  35.414  33.402  14.379
61628W        W23291  41.502  29.491  11.524
61629W        W23292  15.648  30.451  11.422
61630W        W23293  24.498  42.841  11.604
61631W        W23294  20.196   7.373  13.812
61632W        W23295  11.648   7.227   1.797
61633W        W23296  19.194  20.048  10.463
61634W        W23297  15.773  23.713   1.795
61635W        W23298  44.811  40.311   4.209
61636W        W23299  29.988  11.714   1.389
61637W        W23300  36.431  29.935   0.245
61638W        W23301  38.520   3.857   3.703
61639W        W23302  32.530  24.678   4.782
61640W        W23303   1.885  29.044  12.563
61641W        W23304  34.116   8.805   2.893
61642W        W23305  16.621  21.681   2.686
61643W        W23306  43.014  29.548   2.706
61644W        W23307  23.511  22.061   1.924
61645W        W23308  13.111  30.645  11.961
61646W        W23309  34.393  36.984   3.285
61647W        W23310  21.098  35.461   1.934
61648W        W23311  37.895  30.108   4.817
61649W        W23312  17.255  14.282  13.422
61650W        W23313  25.129  20.252   1.429
61651W        W23314  43.339  33.064  13.899
61652W        W23315  12.238   3.423  12.402
61653W        W23316   0.419   4.820  11.025
61654W        W23317  40.023  38.558   3.754
61655W        W23318  43.867   3.450   3.204
61656W        W23319   3.459  15.222  13.861
61657W        W23320  23.184  33.427  14.318
61658W        W23321  24.083  38.927  13.880
61659W        W23322  23.005  18.730  12.966
61660W        W23323  35.410  26.560  12.834
61661W        W23324   7.912  25.574   2.385
61662W        W23325   2.950  34.525  12.940
61663W        W23326  41.293  14.606  12.909
61664W        W23327   8.865  43.779  14.298
61665W        W23328  10.696  23.000   0.389
61666W        W23329  34.453   4.763   2.248
61667W        W23330  33.528   3.244   3.183
61668W        W23331  36.920  12.191   1.891
61669W        W23332   4.711  29.590  10.418
61670W        W23333   4.424   7.198   4.773
61671W        W23334  39.557  44.854   2.417
61672W        W23335  23.500  14.289   1.287
61673W        W23336  34.461  27.098  12.845
61674W        W23337  29.114  11.251  11.915
61675W        W23338  20.673   6.420   0.323
61676W        W23339  33.533  22.136   3.145
61677W        W23340  41.923   0.265  14.774
61678W        W23341  39.842  33.107  11.980
61679W        W23342  36.886  16.653  11.480
61680W        W23343   0.316  11.320   0.858
61681W        W23344  11.688  37.511   1.236
61682W        W23345  14.094  43.377  12.516
61683W        W23346   3.452   6.254  12.521
61684W        W23347  24.068  18.580   0.415
61685W        W23348   9.308   9.752  13.321
61686W        W23349  38.978  31.576   2.314
61687W        W23350  35.064  35.596   1.343
61688W        W23351  21.171  25.178  14.500
61689W        W23352  33.495  10.677   3.229
61690W        W23353  21.710  37.860   3.666
61691W        W23354  36.910   7.718   0.469
61692W        W23355  41.400  19.242   0.313
61693W        W23356  18.656   4.380   4.651
61694W        W23357  39.550  36.070  13.848
61695W        W23358  26.658   6.753  12.865
61696W        W23359  13.177  36.903   0.781
61697W        W23360   6.213  23.701   1.802
61698W        W23361  35.437  36.049   3.320
61699W        W23362  24.585  10.138  12.452
61700W        W23363  14.210  44.765  12.950
61701W        W23364   6.838  30.096   2.322
61702W        W23365  16.768  32.111  11.603
61703W        W23366   9.244  33.434   3.240
61704W        W23367  36.365  13.229   2.305
61705W        W23368  23.049  41.480  11.077
61706W        W23369   6.814  41.896   0.832
61707W        W23370  18.596  25.471   3.214
61708W        W23371  38.447  44.394   1.929
61709W        W23372  30.488  10.806  13.818
61710W        W23373  41.449  39.431  14.795
61711W        W23374  30.122  33.102  10.425
61712W        W23375  43.875  31.028  12.566
61713W        W23376  15.208  30.114  13.823
61714W        W23377  43.473  40.347  13.341
61715W        W23378  25.121   2.927  11.409
61716W        W23379  33.593  21.731   2.265
61717W        W23380  19.662  17.071   0.845
61718W        W23381  37.933   9.757  11.478
61719W        W23382  39.838   9.861  11.093
61720W        W23383  41.812   2.450   5.127
61721W        W23384  18.225   0.814   0.349
61722W        W23385  11.727   2.376  10.990
61723W        W23386  40.302   3.303  12.400
61724W        W23387  27.037  21.072   0.853
61725W        W23388   6.342  31.921  14.971
61726W        W23389   9.823  27.983  13.965
61727W        W23390  13.696  35.514   0.376
61728W        W23391  19.254  11.861   4.746
61729W        W23392  12.710  31.136  12.382
61730W        W23393   4.755   8.785  13.978
61731W        W23394  19.696   3.709   1.805
61732W        W23395  29.024  30.965   0.784
61733W        W23396  41.819   6.898   3.753
61734W        W23397  31.478  32.512  13.415
61735W        W23398  15.327  39.390   2.237
61736W        W23399  25.554  32.600   2.738
61737W        W23400   5.901  20.664  10.983
61738W        W23401  38.946  33.996  11.527
61739W        W23402  32.493   2.355  10.609
61740W        W23403   5.289  32.438   1.835
61741W        W23404  39.482  16.176  11.589
61742W        W23405  33.557  13.177  13.886
61743W        W23406  17.096  34.912  11.600
61744W        W23407   9.644  16.573   1.359
61745W        W23408  14.722  33.511  12.996
61746W        W23409  30.429   0.822  12.859
61747W        W23410   2.821  18.146  11.492
61748W        W23411   7.273  39.397   3.180
61749W        W23412  12.630  28.490  14.447
61750W        W23413  40.916  22.652   4.745
61751W        W23414  26.085   0.857  14.371
61752W        W23415  23.234   0.916  12.465
61753W        W23416  20.247   9.363  11.948
61754W        W23417   0.438  17.568   3.788
61755W        W23418  19.769  35.905   2.863
61756W        W23419  37.388   2.793   2.352
61757W        W23420  37.913  38.462  14.473
61758W        W23421  33.455   0.780   4.675
61759W        W23422  28.972  22.645  13.894
61760W        W23423  28.625  41.520  13.005
61761W        W23424  11.286   4.836   0.857
61762W        W23425  18.641   5.323   1.360
61763W        W23426  32.021  12.211   0.405
61764W        W23427  22.667  43.994   0.880
61765W        W23428  19.559  32.945   2.311
61766W        W23429  41.513   5.373  13.941
61767W        W23430  18.295  22.711   0.369
61768W        W23431  12.664  32.532  13.379
61769W        W23432  39.324  31.552  12.543
61770W        W23433  25.616  12.186  13.001
61771W        W23434  24.496  32.485  11.601
61772W        W23435   4.823  29.034  14.506
61773W        W23436  26.967  34.889  12.013
61774W        W23437   7.233  21.750   3.362
61775W        W23438  25.705   0.279   0.276
61776W        W23439  31.516  19.174  14.515
61777W        W23440  13.233  27.107   2.368
61778W        W23441  34.033  24.634  10.480
61779W        W23442  39.323   2.869  14.334
61780W        W23443  29.610  36.031   2.823
61781W        W23444  28.940   7.909   1.776
61782W        W23445  29.147  26.066  13.547
61783W        W23446  23.143  30.995   3.346
61784W        W23447  20.561  18.613  13.836
61785W        W23448  37.524  44.461   2.671
61786W        W23449  44.286  36.355   4.291
61787W        W23450  25.028  30.460   4.116
61788W        W23451  20.267  20.570  11.532
61789W        W23452   8.334  39.966  10.445
61790W        W23453  28.522  11.802  14.473
61791W        W23454  27.943  14.623  13.852
61792W        W23455  10.222  22.188  11.496
61793W        W23456  29.497  39.314   3.659
61794W        W23457  40.366  32.593   4.790
61795W        W23458  33.490  34.889   3.162
61796W        W23459   8.737  30.954  13.404
61797W        W23460  41.956  26.668  13.865
61798W        W23461  15.707  12.822  12.912
61799W        W23462  11.704   1.921   1.282
61800W        W23463  12.290  38.966   1.225
61801W        W23464  37.061   6.347  12.989
61802W        W23465   9.781  27.985   2.876
61803W        W23466  16.241   4.449   3.642
61804W        W23467  28.520  17.733   0.309
61805W        W23468  12.292   6.230  11.107
61806W        W23469  28.992   7.741   3.828
61807W        W23470  20.768  17.575   4.271
61808W        W23471  12.816  27.585  11.600
61809W        W23472  29.616  16.788  12.877
61810W        W23473  37.987  26.987  10.464
61811W        W23474  38.922  23.013   5.254
61812W        W23475  34.504  36.432  10.907
61813W        W23476  21.045  31.573  12.360
61814W        W23477   8.167  18.234   1.730
61815W        W23478   4.706  16.250   5.294
61816W        W23479  14.773  10.327  14.928
61817W        W23480  27.020  22.202   0.458
61818W        W23481  40.366   9.814  14.382
61819W        W23482   4.879  36.420   3.691
61820W        W23483  15.605  26.021   1.734
61821W        W23484  27.480  24.089  11.899
61822W        W23485  41.794  27.637   3.226
61823W        W23486  38.865  21.178   2.708
61824W        W23487  35.600  13.655   1.287
61825W        W23488  27.033  40.890   3.152
61826W        W23489  29.161  29.477   3.779
61827W        W23490  15.677  35.885   5.771
61828W        W23491   9.181  20.547  11.576
61829W        W23492  27.685   5.829   2.284
61830W        W23493  38.449   5.819  12.086
61831W        W23494  19.275  19.685   1.917
61832W        W23495  34.120  41.012  14.386
61833W        W23496  22.089   5.901   0.951
61834W        W23497  27.003  35.510   1.302
61835W        W23498   1.272  40.027   3.705
61836W        W23499   4.450   6.216  11.086
61837W        W23500  28.110   2.942  13.413
61838W        W23501  30.597  42.478  12.979
61839W        W23502   2.254  25.210   3.281
61840W        W23503  31.454  30.562   3.234
61841W        W23504  10.152  38.833   0.479
61842W        W23505   3.314  20.760   0.409
61843W        W23506  13.788  30.491   1.350
61844W        W23507   0.409  14.632  12.507
61845W        W23508  32.030  20.148  13.921
61846W        W23509  34.045  12.327  14.986
61847W        W23510  44.851  43.817  10.494
61848W        W23511   5.737   7.317  13.338
61849W        W23512  23.564  31.495   0.776
61850W        W23513  23.622  31.927   4.302
61851W        W23514  18.753  28.946  13.368
61852W        W23515   1.289   2.763  10.556
61853W        W23516  38.921   8.768  10.963
61854W        W23517  21.549  41.990  10.590
61855W        W23518   3.781  28.178  12.407
61856W        W23519  38.047  29.646   1.897
61857W        W23520   0.860  22.070  11.568
61858W        W23521  43.862  34.497   2.337
61859W        W23522  27.597  44.982  10.933
61860W        W23523  21.229  38.507  13.974
61861W        W23524  12.197  26.027   3.778
61862W        W23525  38.351  42.471   0.298
61863W        W23526   5.875  28.649   0.443
61864W        W23527   1.851  28.547  14.837
61865W        W23528   0.809   4.883  14.923
61866W        W23529  27.994  30.616   0.783
61867W        W23530  27.687  29.625  14.311
61868W        W23531  41.836   6.407  12.462
61869W        W23532  27.152  42.416   4.801
61870W        W23533  31.454   7.698  13.309
61871W        W23534  19.624  22.085   0.891
61872W        W23535  36.950  21.089  10.557
61873W        W23536  14.598  10.747  14.327
61874W        W23537   5.718  20.554   1.785
61875W        W23538  10.738  38.839  10.922
61876W        W23539  14.626  31.016  13.966
61877W        W23540  32.547   2.890  12.043
61878W        W23541  19.674  10.178   3.154
61879W        W23542   4.346   4.368  13.410
61880W        W23543  41.297  10.380  12.906
61881W        W23544   5.401   6.302   3.754
61882W        W23545  35.520  43.447   1.867
61883W        W23546  29.662  27.484  13.040
61884W        W23547   2.231  29.532   4.180
61885W        W23548  21.557  29.438  11.388
61886W        W23549   0.883  19.071  13.322
61887W        W23550   3.281  10.266  13.329
61888W        W23551  12.184  39.882  14.958
61889W        W23552  38.031   7.222  13.008
61890W        W23553   7.880  22.561  10.417
61891W        W23554  13.223  11.764  10.539
61892W        W23555  17.563  19.535   3.299
61893W        W23556  20.093  11.720  14.886
61894W        W23557  22.172  20.687   2.734
61895W        W23558  16.244  34.027   0.363
61896W        W23559  39.985  23.567   1.750
61897W        W23560  27.006  37.444  12.029
61898W        W23561  32.433  23.568   2.286
61899W        W23562   2.927  19.127   1.819
61900W        W23563  17.065  28.611   4.784
61901W        W23564  13.812  13.332   1.353
61902W        W23565  34.099  19.643   1.268
61903W        W23566  25.634   5.741  14.465
61904W        W23567  14.280  36.523  13.491
61905W        W23568  24.096   1.393   4.355
61906W        W23569  26.151  31.533   1.247
61907W        W23570  30.611  15.194   2.743
61908W        W23571  18.549   9.274   2.821
61909W        W23572  19.188  32.481  12.454
61910W        W23573   4.304  20.228   0.903
61911W        W23574   2.839  13.603  14.481
61912W        W23575   6.370  42.511  10.054
61913W        W23576   7.197   3.867  12.371
61914W        W23577  17.094  21.557   1.810
61915W        W23578  12.235  16.774   4.764
61916W        W23579  27.183  13.286  13.406
61917W        W23580   6.268  14.639   0.846
61918W        W23581   5.799  25.598   0.868
61919W        W23582  22.196  14.798   1.270
61920W        W23583  12.143   3.393   0.439
61921W        W23584  26.545  14.286  14.869
61922W        W23585  21.733  21.552   4.598
61923W        W23586  29.466  10.270   1.919
61924W        W23587   4.344  38.070  13.537
61925W        W23588  10.867  25.571   1.920
61926W        W23589  26.083  40.532  11.920
61927W        W23590   8.390   0.255  11.057
61928W        W23591  43.431  25.614   0.726
61929W        W23592  25.605  19.154  14.435
61930W        W23593   2.388  42.812   4.328
61931W        W23594   1.915  25.181   3.743
61932W        W23595  27.980  16.771  14.983
61933W        W23596  34.027   0.259   2.743
61934W        W23597  18.210  43.984   2.776
61935W        W23598  26.588  39.505   3.779
61936W        W23599   8.861  19.070   2.247
61937W        W23600  41.337   1.321   4.155
61938W        W23601  20.614  23.077   3.681
61939W        W23602   1.251  35.515   4.796
61940W        W23603  20.201   7.848   3.235
61941W        W23604  20.193  44.480   2.707
61942W        W23605   8.297  39.001   1.836
61943W        W23606  11.666  42.892   2.231
61944W        W23607  42.834  44.783   2.720
61945W        W23608   7.186  23.683   3.800
61946W        W23609  11.639  22.571  14.373
61947W        W23610  15.212  28.967  10.982
61948W        W23611  21.669  30.914  12.839
61949W        W23612  37.466   5.865   1.722
61950W        W23613  16.619  37.441   2.889
61951W        W23614   2.942  11.850   3.732
61952W        W23615  28.563  19.070  13.323
61953W        W23616  38.038  24.697  12.082
61954W        W23617   3.273   3.280   2.359
61955W        W23618   3.270  26.508   3.190
61956W        W23619  20.191   0.843   4.663
61957W        W23620   2.277  42.907   4.609
61958W        W23621   1.894  17.612  11.395
61959W        W23622  23.002   6.302  12.502
61960W        W23623  38.974  43.481  13.480
61961W        W23624  39.008  35.962   3.767
61962W        W23625  20.274  29.503   2.856
61963W        W23626   5.849  44.355  12.895
61964W        W23627   3.789  11.863  13.935
61965W        W23628  14.309  40.347  14.897
61966W        W23629  26.550  19.587   2.849
61967W        W23630  35.905  43.431   0.774
61968W        W23631   8.341  31.986  12.577
61969W        W23632   4.311  24.992  12.882
61970W        W23633  10.176  11.193   2.827
61971W        W23634  23.659  14.332  14.333
61972W        W23635  29.554  37.928   3.362
61973W        W23636  42.438  15.091   3.751
61974W        W23637  12.694  36.539   4.315
61975W        W23638   7.187  32.002   2.212
61976W        W23639  28.108  40.324  13.430
61977W        W23640  29.536  35.912   3.357
61978W        W23641  18.062  32.615   3.800
61979W        W23642  20.143  18.608  13.001
61980W        W23643   5.933  13.265  14.944
61981W        W23644  37.062  20.621  14.885
61982W        W23645   0.399   5.422   1.824
61983W        W23646  13.627  35.423   5.260
61984W        W23647  19.639  33.427   3.635
61985W        W23648  35.971  39.924  13.465
61986W        W23649  15.676  32.086  10.532
61987W        W23650   6.334  40.850  14.773
61988W        W23651  11.284  38.411  10.607
61989W        W23652   3.745   0.474  11.938
61990W        W23653  32.898   1.919  12.523
61991W        W23654  35.967  21.046   3.629
61992W        W23655  32.495  24.141  11.582
61993W        W23656  22.609  34.873  14.320
61994W        W23657  36.041  12.841  13.511
61995W        W23658  34.962  16.735   2.233
61996W        W23659  33.074  12.715   1.798
61997W        W23660  17.790  10.779   4.727
61998W        W23661  27.609  15.225   3.820
61999W        W23662   9.356  29.655  13.340
62000W        W23663  42.466  28.932  14.481
62001W        W23664   1.457  14.119  11.034
62002W        W23665   5.224  34.480   4.599
62003W        W23666  39.003   4.407  12.518
62004W        W23667   0.402  39.820  13.982
62005W        W23668  14.102  30.544   3.360
62006W        W23669  12.797  38.376  13.825
62007W        W23670  25.589  28.032   5.135
62008W        W23671  30.437  23.099  12.513
62009W        W23672   0.393  34.489   2.250
62010W        W23673  37.952  38.886  14.302
62011W        W23674  30.572  20.712   2.900
62012W        W23675  38.030  15.125   1.327
62013W        W23676   3.721  26.594   3.860
62014W        W23677  17.151  33.875  11.608
62015W        W23678  39.859  44.994   2.864
62016W        W23679   3.723  11.629  11.855
62017W        W23680  12.289   2.901  14.935
62018W        W23681  10.694  32.439  11.100
62019W        W23682  31.017  37.928  12.988
62020W        W23683   2.407  13.716   3.646
62021W        W23684   8.382  22.558   4.205
62022W        W23685  29.920   1.257   2.317
62023W        W23686  19.616  27.483  11.593
62024W        W23687   7.728  23.092  14.849
62025W        W23688  43.793  32.966   0.277
62026W        W23689  18.183   5.365   4.773
62027W        W23690  17.079  17.268   1.696
62028W        W23691   9.394   9.320   1.450
62029W        W23692  33.012  28.943  14.279
62030W        W23693  34.894   4.444   2.291
62031W        W23694  13.300  24.487  14.434
62032W        W23695  43.491   1.382  11.010
62033W        W23696  17.122  11.864  13.803
62034W        W23697  36.591  20.035   5.681
62035W        W23698  38.896   1.245  14.468
62036W        W23699   6.314  13.717  11.886
62037W        W23700  26.475  37.448   3.306
62038W        W23701  39.513  34.879  11.972
62039W        W23702  16.673  24.711  12.004
62040W        W23703  23.727   0.824   1.224
62041W        W23704   6.871  29.548  12.042
62042W        W23705  31.009  33.408  13.380
62043W        W23706  14.269   6.307   3.769
62044W        W23707  13.762  27.565   2.312
62045W        W23708  32.945  38.015  13.032
62046W        W23709  41.362   3.347  11.991
62047W        W23710  17.184  24.591   1.706
62048W        W23711   2.452  20.697  10.984
62049W        W23712  36.084  31.526  11.515
62050W        W23713   0.406   2.803   1.385
62051W        W23714  38.442   8.881  10.974
62052W        W23715   9.802  22.628   3.735
62053W        W23716   3.323   0.988  12.940
62054W        W23717  29.076   5.841   3.170
62055W        W23718  33.436  42.425   3.336
62056W        W23719  41.994  23.124  11.609
62057W        W23720  15.114   2.286  13.839
62058W        W23721  21.652  32.899  13.811
62059W        W23722  11.176  39.481   0.345
62060W        W23723  41.864  36.449   2.213
62061W        W23724  16.308  26.959   1.438
62062W        W23725  36.959  16.640   2.213
62063W        W23726   1.776  38.895   4.180
62064W        W23727  44.909  11.233  12.857
62065W        W23728  34.511   8.794   2.393
62066W        W23729   1.958  17.761   1.270
62067W        W23730   2.776   1.305  14.028
62068W        W23731   2.747  35.561   1.433
62069W        W23732   9.161  23.084  10.903
62070W        W23733  27.594  11.347   4.750
62071W        W23734  14.698  31.952   4.335
62072W        W23735  42.829  26.187   1.211
62073W        W23736  22.590  44.482   2.821
62074W        W23737  24.642  35.587   2.805
62075W        W23738  18.672   3.262   0.259
62076W        W23739  18.111  29.533  14.895
62077W        W23740  19.711  13.295   4.260
62078W        W23741   0.433  17.269   3.651
62079W        W23742  17.785  35.047   3.631
62080W        W23743   8.796   8.875  11.611
62081W        W23744   4.392  22.182  12.372
62082W        W23745  18.182  18.147  12.377
62083W        W23746  32.115   7.379  10.606
62084W        W23747   8.387  23.237  12.020
62085W        W23748  37.980  40.489  14.341
62086W        W23749  33.601  15.791  11.858
62087W        W23750   9.755  14.744  14.874
62088W        W23751  28.114  21.026  14.817
62089W        W23752   6.812  22.670   3.360
62090W        W23753  43.435  19.546   1.781
62091W        W23754   6.679   7.371   0.293
62092W        W23755  30.453  31.905  13.836
62093W        W23756  22.228  12.767  14.876
62094W        W23757  15.083  32.885  11.567
62095W        W23758  23.686   4.816  11.002
62096W        W23759  38.523  39.810  13.930
62097W        W23760  17.137  42.371  14.379
62098W        W23761   2.966  34.554  12.409
62099W        W23762  30.542  14.647   3.241
62100W        W23763  20.550  16.110  14.797
62101W        W23764  41.955  31.916  10.411
62102W        W23765  42.416  36.475  14.955
62103W        W23766  33.973  28.615  12.989
62104W        W23767  19.071   4.281  13.356
62105W        W23768  14.631   9.330  13.817
62106W        W23769   7.310  15.819   4.318
62107W        W23770  10.139  11.809  12.457
62108W        W23771  22.022   4.758  12.396
62109W        W23772  20.629  35.006   4.354
62110W        W23773  25.977  10.827   3.156
62111W        W23774  40.004  13.604   0.297
62112W        W23775  10.866  15.203  10.962
62113W        W23776  25.161  32.623   2.705
62114W        W23777  15.790   7.305  10.981
62115W        W23778  14.749  33.120  14.324
62116W        W23779  36.552  16.811   0.462
62117W        W23780  13.322  43.382   3.704
62118W        W23781  22.552  23.112   0.858
62119W        W23782  26.171   9.244  10.584
62120W        W23783  34.448   8.390  11.904
62121W        W23784  42.376  44.011  14.885
62122W        W23785   7.877   9.745  13.340
62123W        W23786  34.901  18.116  12.554
62124W        W23787  15.650  41.331   2.849
62125W        W23788  35.000  37.518  11.487
62126W        W23789   7.193  25.581  13.040
62127W        W23790  12.840  22.580   1.213
62128W        W23791  25.135  20.688  10.944
62129W        W23792  21.247  16.748   4.233
62130W        W23793   0.980  19.252   2.817
62131W        W23794  21.031  42.298   2.786
62132W        W23795   1.267  15.729   1.920
62133W        W23796  38.908  17.579  13.952
62134W        W23797  17.636  29.624   0.886
62135W        W23798  36.539  26.021  14.475
62136W        W23799  41.036  22.653   2.688
62137W        W23800  21.724   2.797  13.004
62138W        W23801   7.882  29.980   2.383
62139W        W23802   2.444  31.033  11.600
62140W        W23803   6.706  16.192   2.417
62141W        W23804  36.862  28.002   1.819
62142W        W23805  24.692  21.118   0.799
62143W        W23806   7.297  41.010   2.873
62144W        W23807   4.315  25.582  12.554
62145W        W23808  22.604  38.333   4.298
62146W        W23809  13.824  27.083   1.788
62147W        W23810  28.944  41.997  14.290
62148W        W23811   8.671  44.828  14.358
62149W        W23812  41.941  30.608  10.119
62150W        W23813  20.764  10.320  10.895
62151W        W23814   5.707  38.924  13.852
62152W        W23815  10.346  44.802  11.538
62153W        W23816  20.259   2.389  11.376
62154W        W23817   6.719   7.873  14.761
62155W        W23818  25.646  11.812  10.478
62156W        W23819  40.424  29.629  11.527
62157W        W23820  24.663  11.126   4.672
62158W        W23821  32.045   8.674   2.750
62159W        W23822   4.395   2.247  14.495
62160W        W23823   2.894  10.306   3.291
62161W        W23824  31.996  18.288  11.424
62162W        W23825  37.005  26.205   0.936
62163W        W23826  25.622  13.727   1.814
62164W        W23827  16.096  11.194   2.821
62165W        W23828   3.222  20.131   2.730
62166W        W23829  14.816  44.969  11.538
62167W        W23830  21.229  23.174  13.395
62168W        W23831  11.664  43.272  14.878
62169W        W23832  37.521  31.492  12.028
62170W        W23833   6.812  33.398  13.398
62171W        W23834  19.261  22.029   4.748
62172W        W23835  31.020  16.649  10.911
62173W        W23836  22.060  22.012  12.962
62174W        W23837  36.486   3.216  10.096
62175W        W23838   7.384  16.801   1.384
62176W        W23839  36.095  27.016  12.919
62177W        W23840  22.701  31.151  13.399
62178W        W23841  15.208  18.735  11.869
62179W        W23842  18.786  41.417   0.365
62180W        W23843  21.722  21.041  11.002
62181W        W23844   5.766  17.225  14.922
62182W        W23845  17.298  33.114   3.283
62183W        W23846   8.897  24.545  11.430
62184W        W23847  31.945  24.196  12.947
62185W        W23848  21.095  27.541   3.846
62186W        W23849  44.280  21.149   3.176
62187W        W23850  34.443  12.174  11.999
62188W        W23851  35.418  34.036  14.762
62189W        W23852  28.085   5.362   4.328
62190W        W23853  44.494   4.910  14.809
62191W        W23854   6.225   0.920  11.559
62192W        W23855  15.206   2.887   3.344
62193W        W23856  32.478  25.701  13.476
62194W        W23857   1.414   6.274  12.841
62195W        W23858  14.284  30.074   1.809
62196W        W23859  19.660  23.633  14.359
62197W        W23860  14.594  16.577  11.608
62198W        W23861  17.716  37.491   0.358
62199W        W23862  31.135  22.234   1.731
62200W        W23863  23.202   2.395   4.248
62201W        W23864  21.520  43.955  12.370
62202W        W23865  41.416  13.753   0.356
62203W        W23866  17.607  24.554   0.396
62204W        W23867  22.570   3.795   3.869
62205W        W23868   6.288  20.102   2.246
62206W        W23869  39.058  37.336  11.033
62207W        W23870  33.997  26.588  14.868
62208W        W23871   5.306  36.954   0.758
62209W        W23872  13.248  44.897   1.443
62210W        W23873  10.358  11.249   1.227
62211W        W23874   8.213  16.810  13.336
62212W        W23875  38.373  13.112  12.970
62213W        W23876  29.616   4.857  13.049
62214W        W23877  20.085  22.034  13.836
62215W        W23878  10.373  26.203  13.518
62216W        W23879  10.816  38.361   0.751
62217W        W23880  42.524  36.405  13.007
62218W        W23881  15.773  19.258  14.478
62219W        W23882   4.343  17.638  13.042
62220W        W23883  21.129  43.415   1.319
62221W        W23884  31.078  25.014   1.925
62222W        W23885  36.508   8.174  13.809
62223W        W23886  30.594  36.016  14.892
62224W        W23887  37.545   3.735  12.854
62225W        W23888  29.479   7.854   0.787
62226W        W23889  32.605  19.677   9.547
62227W        W23890  40.374   2.789  12.864
62228W        W23891  11.642   2.369   0.901
62229W        W23892  27.551   0.890  12.450
62230W        W23893   3.454  42.502  11.082
62231W        W23894  39.429  26.149  13.856
62232W        W23895  26.598  18.683  11.891
62233W        W23896  33.036  27.591  14.816
62234W        W23897  11.721   1.969   0.401
62235W        W23898  21.173  28.058  13.459
62236W        W23899  15.089  35.492  14.942
62237W        W23900  27.668  18.217   4.671
62238W        W23901   5.390  32.530  12.979
62239W        W23902  12.798  33.914  10.925
62240W        W23903  18.151  43.915   0.779
62241W        W23904  28.150  14.281   3.660
62242W        W23905   8.833  40.904   3.767
62243W        W23906   6.246  16.637  14.466
62244W        W23907   0.917  25.607  14.837
62245W        W23908   3.947  16.623  11.001
62246W        W23909  22.202  14.771   3.228
62247W        W23910  34.870  12.313   0.842
62248W        W23911  13.237  42.938   0.271
62249W        W23912  23.714   8.258   0.375
62250W        W23913  38.993  39.809   3.161
62251W        W23914   6.689  28.002   0.407
62252W        W23915  25.535  20.048  12.827
62253W        W23916  25.574  22.559  11.055
62254W        W23917  31.064   2.926   3.327
62255W        W23918  34.890   1.863  12.948
62256W        W23919   8.367  11.210  13.536
62257W        W23920  21.164  37.988   1.796
62258W        W23921  41.377  33.577   4.746
62259W        W23922  35.959  34.423  11.472
62260W        W23923  12.203  32.430   2.753
62261W        W23924  44.477  19.249  14.477
62262W        W23925  29.948  14.283  14.013
62263W        W23926  32.115  15.738  13.409
62264W        W23927  34.935  30.586  10.952
62265W        W23928  19.096  20.066   4.680
62266W        W23929  41.468  40.527  12.917
62267W        W23930   3.910  42.922   0.436
62268W        W23931  11.322  38.946   1.837
62269W        W23932  14.602  20.763  13.360
62270W        W23933  42.977  39.817   0.784
62271W        W23934  30.580  26.979   2.370
62272W        W23935   5.837   4.305  12.862
62273W        W23936  26.588   4.886  13.927
62274W        W23937  16.271   3.950  14.004
62275W        W23938  43.908  11.252   0.843
62276W        W23939  16.125  20.205  11.498
62277W        W23940  13.199   5.292   4.615
62278W        W23941  30.585  34.534   0.839
62279W        W23942  37.461  21.676  11.576
62280W        W23943  36.909   8.700   1.787
62281W        W23944  10.138  40.422  11.076
62282W        W23945  44.267  18.209  10.436
62283W        W23946  36.085  33.380   0.334
62284W        W23947  13.151  30.502  12.369
62285W        W23948  35.588  15.773  10.558
62286W        W23949  13.659   3.226   0.844
62287W        W23950  37.480  30.993  14.317
62288W        W23951  17.784  21.022   0.253
62289W        W23952  38.570  23.141  12.075
62290W        W23953  14.712  22.746  14.767
62291W        W23954  25.474  36.977  11.064
62292W        W23955  24.069   1.959   4.640
62293W        W23956  28.645  10.247   4.319
62294W        W23957  12.127  36.362   1.311
62295W        W23958  14.673  17.659  14.841
62296W        W23959  32.512  42.335   2.754
62297W        W23960  10.261  20.741   4.761
62298W        W23961  34.406  30.492   1.316
62299W        W23962  28.049  14.334   2.376
62300W        W23963  41.891  11.284   3.765
62301W        W23964  14.785   3.238   2.701
62302W        W23965  36.909   6.319  14.495
62303W        W23966  11.161  39.547  10.561
62304W        W23967  42.835  43.337  11.928
62305W        W23968  21.171  13.238  12.962
62306W        W23969  24.056  22.589   5.175
62307W        W23970   7.356  19.165  12.453
62308W        W23971   1.822  24.561   4.312
62309W        W23972  18.690  19.095   3.305
62310W        W23973  30.083   6.861  11.555
62311W        W23974  19.167  30.557  14.846
62312W        W23975  27.567  12.655   4.698
62313W        W23976  38.826  39.038  12.544
62314W        W23977  18.083  25.670  12.460
62315W        W23978  14.190  32.083  10.987
62316W        W23979  21.618   2.397   1.352
62317W        W23980  35.109   0.760  13.548
62318W        W23981  14.715  21.721   4.816
62319W        W23982  35.977  28.460  11.046
62320W        W23983   2.952  20.198  12.475
62321W        W23984  41.789  20.159   3.635
62322W        W23985  32.422   3.321   0.288
62323W        W23986  24.095  27.562  13.052
62324W        W23987  44.464  27.081   0.478
62325W        W23988  14.796  12.224   3.248
62326W        W23989   3.258  12.284  12.469
62327W        W23990  22.699  10.173   2.180
62328W        W23991  29.085  21.063   0.727
62329W        W23992   0.330  43.405  13.470
62330W        W23993   4.884  44.876  10.909
62331W        W23994  16.238   0.397   0.882
62332W        W23995  28.458   4.936   4.768
62333W        W23996   0.369  11.767  10.504
62334W        W23997   5.327  23.586  12.432
62335W        W23998   5.313  32.020   3.176
62336W        W23999   0.439  13.324   3.356
62337W        W24000  25.033  28.681  10.533
62338W        W24001  22.526  10.870   0.741
62339W        W24002  15.756  23.603   3.295
62340W        W24003  30.930  13.211   2.356
62341W        W24004  30.607  13.318  11.123
62342W        W24005  43.310  28.173  14.391
62343W        W24006  30.141  10.196  11.074
62344W        W24007  31.446  36.495  13.005
62345W        W24008  19.137  26.643  13.037
62346W        W24009  31.080   8.284  13.415
62347W        W24010   9.756  23.710   2.294
62348W        W24011  10.863  10.686  12.403
62349W        W24012  33.894  27.676   1.829
62350W        W24013   0.311   4.210  12.437
62351W        W24014  26.104  41.833  11.030
62352W        W24015   2.877  17.591   0.913
62353W        W24016  12.768  33.964  13.518
62354W        W24017  16.687  32.514   1.240
62355W        W24018  35.534  37.392  11.875
62356W        W24019   0.494  11.635  14.019
62357W        W24020   1.794  28.947  12.868
62358W        W24021  29.533   8.263   0.812
62359W        W24022  37.519   1.442   3.852
62360W        W24023  30.639  11.677  13.851
62361W        W24024   0.420  34.447  10.406
62362W        W24025  42.406  16.670   0.438
62363W        W24026   5.747  32.629  12.867
62364W        W24027  31.898  17.797  14.429
62365W        W24028  31.532  13.343  12.880
62366W        W24029   1.802  42.388   1.364
62367W        W24030   1.389  12.636  13.359
62368W        W24031  29.044  12.681  11.977
62369W        W24032  43.508  14.736   0.918
62370W        W24033   1.289  29.516   3.252
62371W        W24034  32.565  19.267  13.456
62372W        W24035  40.400  33.959   1.857
62373W        W24036  28.048  40.048  12.557
62374W        W24037  27.974   3.262  11.037
62375W        W24038  37.873  13.721   1.909
62376W        W24039   5.236  27.136   3.155
62377W        W24040  24.042  25.014  13.808
62378W        W24041   6.220  43.308  14.387
62379W        W24042  29.952  30.099  11.922
62380W        W24043  13.334   3.333  13.356
62381W        W24044  30.421  10.679  12.863
62382W        W24045   9.866  25.652   4.810
62383W        W24046  22.700  11.814  11.010
62384W        W24047   0.381  33.880  14.445
62385W        W24048  42.818  37.376  11.512
62386W        W24049   7.746  37.468   2.733
62387W        W24050   4.847   8.723   3.178
62388W        W24051  11.707  23.639  12.854
62389W        W24052  33.428  23.712  11.569
62390W        W24053  29.957  26.615   3.217
62391W        W24054  20.081  40.397   4.656
62392W        W24055  21.097  31.027   2.333
62393W        W24056  44.757  34.076   0.779
62394W        W24057  27.156  23.643   0.256
62395W        W24058   9.685  32.998   0.852
62396W        W24059  20.122  17.246  11.537
62397W        W24060  30.963  34.486  12.887
62398W        W24061   5.371  34.909   1.360
62399W        W24062   7.182  37.973   2.320
62400W        W24063  18.233  11.842  11.968
62401W        W24064  37.952  36.027  14.930
62402W        W24065   2.264  29.081   1.871
62403W        W24066   4.304   8.745   0.727
62404W        W24067  36.046  31.434  11.010
62405W        W24068  16.581  26.688  13.835
62406W        W24069   3.869  31.090  12.974
62407W        W24070  41.034  26.032   0.830
62408W        W24071  38.853  11.842  10.455
62409W        W24072  13.240  27.451   0.842
62410W        W24073  22.100  37.579   3.857
62411W        W24074  29.482   4.747  12.005
62412W        W24075  23.664  30.657   1.217
62413W        W24076  21.663  36.029   4.281
62414W        W24077   0.761  22.746  13.851
62415W        W24078  26.703  28.115   1.773
62416W        W24079  30.487   5.801  13.426
62417W        W24080  28.458  32.598  14.819
62418W        W24081  32.016   6.917   4.760
62419W        W24082  22.026  31.151   0.393
62420W        W24083  37.004  34.376   0.732
62421W        W24084  30.094   4.237   1.731
62422W        W24085  12.856  38.861  14.919
62423W        W24086  43.319  44.869  10.441
62424W        W24087   4.259  43.982  12.525
62425W        W24088  37.514  31.646  10.519
62426W        W24089  24.607  30.995  14.849
62427W        W24090  34.381   6.775  11.922
62428W        W24091  31.521   7.275  13.048
62429W        W24092  27.646  22.244   1.446
62430W        W24093  28.145  12.289  12.468
62431W        W24094  21.683  44.321   0.943
62432W        W24095  33.602  35.903   5.250
62433W        W24096  37.020   5.934  13.808
62434W        W24097  19.589  20.656  13.494
62435W        W24098  27.670  15.667  12.859
62436W        W24099  17.690  17.703   1.856
62437W        W24100  34.504  22.654   0.931
62438W        W24101   0.477   0.744   2.820
62439W        W24102   8.664  44.854   2.238
62440W        W24103  39.324  14.829  14.347
62441W        W24104   7.699  41.389  12.859
62442W        W24105  21.541  40.836  10.445
62443W        W24106  27.086  19.252   3.830
62444W        W24107  33.880  27.056  10.984
62445W        W24108   5.851  39.995  14.451
62446W        W24109  38.074  15.677  14.794
62447W        W24110  35.412  44.468  10.566
62448W        W24111  30.069  43.314  14.954
62449W        W24112  42.866   5.711  14.871
62450W        W24113  24.663   2.868  14.932
62451W        W24114  14.107  16.123   3.156
62452W        W24115  34.399  27.071  14.367
62453W        W24116  26.961  20.670  11.039
62454W        W24117  29.070  20.048   1.895
62455W        W24118  32.017   9.876  12.425
62456W        W24119  39.990  23.055   4.246
62457W        W24120  14.246   5.367  14.312
62458W        W24121  38.389  31.046  14.809
62459W        W24122  37.994  32.101  13.313
62460W        W24123  20.691  22.734   1.781
62461W        W24124  14.823  30.419   0.246
62462W        W24125  36.474   1.854   1.260
62463W        W24126  21.027  13.296  11.057
62464W        W24127  24.615   1.895  12.843
62465W        W24128  26.162   6.341  11.371
62466W        W24129  35.041  19.137   4.832
62467W        W24130   3.928  15.133  14.348
62468W        W24131  24.565   3.926   2.721
62469W        W24132  12.339  26.058   0.759
62470W        W24133  35.954  41.346  10.437
62471W        W24134  40.405  14.291  13.370
62472W        W24135  37.960  41.298   4.271
62473W        W24136   4.739  12.317  11.529
62474W        W24137  15.085  28.100   1.215
62475W        W24138  14.660  42.825  10.526
62476W        W24139  41.365  20.048  12.926
62477W        W24140  24.558  43.332  14.890
62478W        W24141  44.500  37.483   3.751
62479W        W24142  43.842  44.859  11.583
62480W        W24143  42.860  41.382   1.865
62481W        W24144  28.452   8.366   0.380
62482W        W24145   0.365  13.296   4.288
62483W        W24146  16.312  13.254  12.014
62484W        W24147   0.924  42.912   2.292
62485W        W24148   9.236  30.052  11.439
62486W        W24149  28.051   9.379  11.996
62487W        W24150   3.299  17.105   3.738
62488W        W24151  17.726  29.085   4.725
62489W        W24152  42.419  15.646   2.282
62490W        W24153  32.416  30.148   2.797
62491W        W24154   4.819  39.533   0.770
62492W        W24155   9.285  30.999  13.996
62493W        W24156  12.280   7.254  11.598
62494W        W24157  38.970  11.180   4.215
62495W        W24158   1.772  31.578  13.434
62496W        W24159  30.584  29.550   3.359
62497W        W24160  30.100  31.016   0.457
62498W        W24161  44.337  39.409   0.731
62499W        W24162  35.458   8.859   2.244
62500W        W24163  14.131  39.827  14.780
62501W        W24164   5.374  41.468  10.585
62502W        W24165  37.467  43.511  13.977
62503W        W24166   0.947  33.987   2.371
62504W        W24167  37.002  44.920  13.419
62505W        W24168   3.762   3.342   4.276
62506W        W24169  25.074  20.029  12.976
62507W        W24170  40.956  30.134  11.087
62508W        W24171   1.770  25.469  14.328
62509W        W24172  28.122  10.377   0.752
62510W        W24173  28.487  18.609   0.739
62511W        W24174  19.619  37.379   1.910
62512W        W24175   9.394  16.214   0.264
62513W        W24176   3.345  13.249  14.433
62514W        W24177   4.326  24.001  11.885
62515W        W24178  32.099  41.517   0.456
62516W        W24179  18.706   5.730  10.569
62517W        W24180  26.534  13.775  13.827
62518W        W24181  44.860  36.376   1.428
62519W        W24182  11.826  10.743  10.921
62520W        W24183  13.815   3.324   0.307
62521W        W24184  44.928  37.974  14.398
62522W        W24185  22.190  28.050   4.782
62523W        W24186  35.856  15.629  12.361
62524W        W24187   9.752   5.346  14.014
62525W        W24188  33.586   4.280  14.821
62526W        W24189  31.025   3.764   0.838
62527W        W24190  41.434  32.952  11.577
62528W        W24191  31.508  11.685  11.975
62529W        W24192  27.019  38.455   4.710
62530W        W24193  43.923  30.517  11.449
62531W        W24194  44.761  27.553  14.898
62532W        W24195  34.087  31.993  12.071
62533W        W24196   7.268  23.660  14.948
62534W        W24197  26.570  20.639   1.355
62535W        W24198  27.180  29.489  11.537
62536W        W24199  38.469  29.003   0.918
62537W        W24200  25.976  24.116   2.331
62538W        W24201  18.709  38.077   3.855
62539W        W24202  38.541  42.784  12.935
62540W        W24203   7.200  26.699   5.243
62541W        W24204  19.731  36.405  14.420
62542W        W24205  31.502  42.365   0.809
62543W        W24206  42.950   6.404  12.399
62544W        W24207   9.238  40.503   4.619
62545W        W24208  19.557  21.161   3.654
62546W        W24209  18.639  28.636   4.837
62547W        W24210  31.619  22.010  14.867
62548W        W24211  14.206  37.879   0.470
62549W        W24212  22.701   7.204   1.750
62550W        W24213  24.652  25.522   0.781
62551W        W24214   2.856   8.243  11.100
62552W        W24215  39.865  24.206  12.366
62553W        W24216  33.041  14.131   3.638
62554W        W24217  26.964  43.449   1.272
62555W        W24218  32.561  36.003  13.479
62556W        W24219  19.182  19.174  14.882
62557W        W24220  17.663  14.247   3.692
62558W        W24221  11.300   9.322   3.868
62559W        W24222  13.239   8.294  10.120
62560W        W24223   8.809  15.136   2.390
62561W        W24224  34.461  24.211  13.878
62562W        W24225  16.294  30.574   3.712
62563W        W24226   0.320  32.947   1.282
62564W        W24227  31.424  21.674  14.913
62565W        W24228   3.835   3.719  10.422
62566W        W24229  13.605  31.569  13.930
62567W        W24230   6.369  44.342   3.854
62568W        W24231   1.283  10.367   3.740
62569W        W24232  40.946  28.438   0.438
62570W        W24233   4.834  23.155   0.477
62571W        W24234   7.840  10.749   2.769
62572W        W24235  27.145  29.175   0.369
62573W        W24236  22.658  26.153   0.825
62574W        W24237  12.616  24.574   0.959
62575W        W24238  36.912  40.983  10.971
62576W        W24239  37.566   8.197   4.231
62577W        W24240  42.313  34.542  11.575
62578W        W24241  38.513  14.818  14.835
62579W        W24242  25.976  10.324  13.940
62580W        W24243  26.140  33.400   2.816
62581W        W24244  36.065  41.849   2.192
62582W        W24245  11.837  44.483   3.826
62583W        W24246   7.884   0.826   1.931
62584W        W24247  35.409  37.926   0.380
62585W        W24248   0.428  39.055   2.809
62586W        W24249   4.276  14.245   2.700
62587W        W24250  37.914  24.006  12.839
62588W        W24251  19.563  33.536  11.109
62589W        W24252   4.895  32.931  14.478
62590W        W24253  41.974  36.533   4.745
62591W        W24254   6.295   4.939   3.272
62592W        W24255  22.654  34.104  12.040
62593W        W24256  30.945  25.591   3.271
62594W        W24257  22.529  20.540  10.012
62595W        W24258  27.457  15.700   4.280
62596W        W24259  19.153  18.577   5.271
62597W        W24260  23.105  30.467   1.260
62598W        W24261   9.860  12.250  14.861
62599W        W24262  23.190  26.200   5.308
62600W        W24263  21.595   0.858   4.211
62601W        W24264   1.374  33.585  11.601
62602W        W24265  13.240  19.203  12.476
62603W        W24266  35.099   2.867   3.799
62604W        W24267  14.709  30.000   1.399
62605W        W24268  43.816  15.794  14.279
62606W        W24269  12.768  27.455   3.149
62607W        W24270  38.545  32.409  11.012
62608W        W24271   5.688  43.273  14.290
62609W        W24272   8.238  37.533  14.300
62610W        W24273  16.642  18.125   1.773
62611W        W24274  44.345   4.342  13.977
62612W        W24275  34.055  33.114   3.850
62613W        W24276  42.789   0.810   0.346
62614W        W24277   1.380  27.017  13.396
62615W        W24278  26.556  30.554   1.811
62616W        W24279   2.269  13.175   5.317
62617W        W24280  18.611  19.173  10.999
62618W        W24281   1.304  42.471   4.665
62619W        W24282  33.913  11.224   4.756
62620W        W24283  22.037  30.440   1.301
62621W        W24284  28.669  44.891   3.636
62622W        W24285  42.987  44.832  12.900
62623W        W24286  11.152  37.424   0.295
62624W        W24287  42.296  39.932  10.606
62625W        W24288  24.185   3.234   1.422
62626W        W24289  42.862   7.333   4.706
62627W        W24290   8.387  20.612  11.884
62628W        W24291  20.760  35.076  10.905
62629W        W24292  39.369  41.921  10.604
62630W        W24293   1.321  33.474  10.999
62631W        W24294  18.739   9.861   2.820
62632W        W24295  10.876  44.318   2.818
62633W        W24296  40.376  41.296  11.554
62634W        W24297  42.507  29.168   1.336
62635W        W24298   7.701   3.839  14.839
62636W        W24299  18.770   8.238  12.856
62637W        W24300   2.752  26.491  11.016
62638W        W24301  12.233  18.630   1.413
62639W        W24302  24.643  30.509  11.881
62640W        W24303  35.583  27.179   0.863
62641W        W24304   8.273  25.691   0.389
62642W        W24305  19.150  17.066   2.720
62643W        W24306  42.350   9.847   1.337
62644W        W24307  32.987   9.665  14.409
62645W        W24308  41.318  38.968   1.788
62646W        W24309   7.278   9.300   3.349
62647W        W24310  33.109  23.071  12.455
62648W        W24311  15.210  15.674   4.642
62649W        W24312  29.106  15.314  14.957
62650W        W24313  38.860  43.290   2.372
62651W        W24314   0.823  27.185   4.657
62652W        W24315  25.662  14.156   0.775
62653W        W24316  17.124  13.754   2.379
62654W        W24317  39.033  31.514  12.870
62655W        W24318  41.338  33.556  11.428
62656W        W24319  17.570  11.659  10.484
62657W        W24320  25.582   8.340   3.643
62658W        W24321  25.149  41.358  13.444
62659W        W24322  27.544  30.545  14.383
62660W        W24323  21.244  42.431  13.031
62661W        W24324  37.475  42.994   4.283
62662W        W24325  13.714  43.799  11.390
62663W        W24326  20.266   4.325  14.841
62664W        W24327  21.116  27.166  11.106
62665W        W24328  20.079  13.219   4.204
62666W        W24329   0.977  16.648  11.412
62667W        W24330  36.055  26.701   2.735
62668W        W24331  20.064  28.550  14.401
62669W        W24332  23.087  16.598   2.852
62670W        W24333  23.224  30.997  12.041
62671W        W24334  16.131   6.357   4.765
62672W        W24335   3.815  10.860   2.866
62673W        W24336   8.870   4.896  12.960
62674W        W24337  24.007  19.591   1.428
62675W        W24338  19.108   7.683  10.410
62676W        W24339  27.079  34.956   3.778
62677W        W24340   6.388  14.716   1.330
62678W        W24341  18.079  29.931  11.421
62679W        W24342  44.342  41.412  12.988
62680W        W24343  33.565  30.598   5.231
62681W        W24344   6.903  13.168   0.340
62682W        W24345  39.485   5.231  13.016
62683W        W24346  30.653  10.691  11.485
62684W        W24347  20.125  27.022  14.360
62685W        W24348  36.933  23.030   4.289
62686W        W24349   0.329  14.337   5.156
62687W        W24350  21.182   2.303  10.928
62688W        W24351   3.807  18.287   1.823
62689W        W24352  42.360  38.449   4.336
62690W        W24353  18.664  41.360   1.302
62691W        W24354  12.703  39.960   2.205
62692W        W24355  44.447  15.747  14.454
62693W        W24356  19.094  19.689  11.599
62694W        W24357  11.211  10.759   4.646
62695W        W24358  32.024  31.017   0.953
62696W        W24359   9.168   4.750  12.528
62697W        W24360  43.858  30.111   2.677
62698W        W24361  30.937   2.821   0.803
62699W        W24362   9.805  42.986   2.179
62700W        W24363  20.578  25.693  14.785
62701W        W24364   3.762  11.246  10.588
62702W        W24365  40.978  12.178  10.467
62703W        W24366  17.285  21.638  10.476
62704W        W24367  28.603  26.978   3.772
62705W        W24368  29.922  16.123   1.758
62706W        W24369   2.759  25.126  12.094
62707W        W24370  22.665  13.163   0.387
62708W        W24371   5.848  35.098   2.317
62709W        W24372  15.189   8.262   0.307
62710W        W24373  33.495  14.322  14.944
62711W        W24374  42.328   1.400   2.816
62712W        W24375   1.398  29.933   3.150
62713W        W24376  20.532  30.439   0.359
62714W        W24377  26.509  25.198  13.024
62715W        W24378  13.259  43.795  11.427
62716W        W24379  31.118  43.976  14.350
62717W        W24380   5.828   4.305  11.123
62718W        W24381  16.101   5.727  10.535
62719W        W24382  36.939  39.479  12.452
62720W        W24383  41.495  25.520  14.894
62721W        W24384   6.901  17.103   2.260
62722W        W24385  17.596  32.078   0.453
62723W        W24386  36.550   3.383  14.503
62724W        W24387  14.595  38.509   3.369
62725W        W24388  38.547  34.445   2.749
62726W        W24389  43.371   7.735  14.784
62727W        W24390   6.810  10.283  12.965
62728W        W24391  41.875  24.681  10.550
62729W        W24392   6.791  22.545  14.886
62730W        W24393  27.009  21.045   3.858
62731W        W24394   8.185  19.044   2.345
62732W        W24395  44.970  15.287  13.988
62733W        W24396   7.238  35.366  14.422
62734W        W24397   1.381  14.734   3.792
62735W        W24398   2.854  43.404  13.444
62736W        W24399  22.743   0.946   2.859
62737W        W24400  16.752  44.342  10.027
62738W        W24401  40.878  35.976  14.890
62739W        W24402   6.183  42.358   0.243
62740W        W24403  37.505  16.214  12.556
62741W        W24404  26.094  32.505   0.899
62742W        W24405  40.891  25.620   0.348
62743W        W24406  42.831   2.741  10.461
62744W        W24407  36.388  21.633  10.091
62745W        W24408  31.107  37.429  11.613
62746W        W24409  19.610  39.055  14.981
62747W        W24410  14.169  35.026  12.493
62748W        W24411  23.543  29.636  11.093
62749W        W24412  15.720   1.271   4.343
62750W        W24413  33.959   8.195   0.731
62751W        W24414  32.950   3.243  12.453
62752W        W24415  23.192  10.654  14.783
62753W        W24416  43.927  43.289  10.558
62754W        W24417  25.564  31.103  13.909
62755W        W24418  17.566   7.853  10.538
62756W        W24419  27.519  21.073  11.421
62757W        W24420  33.415   9.705   2.782
62758W        W24421  20.264  25.166   2.310
62759W        W24422  23.201  40.461  10.147
62760W        W24423  34.076  12.197  11.384
62761W        W24424   7.681   3.749   1.725
62762W        W24425  22.014  25.161   5.651
62763W        W24426   9.362  43.350  13.916
62764W        W24427  24.209   3.725  14.829
62765W        W24428  24.032   7.321   0.443
62766W        W24429   5.702   9.744  11.949
62767W        W24430  13.152  22.246  11.953
62768W        W24431   3.257  29.522  13.941
62769W        W24432  20.190  21.092  12.487
62770W        W24433  34.079  34.442   0.820
62771W        W24434  43.794  19.283  11.436
62772W        W24435   0.762   1.769  13.403
62773W        W24436  20.031  12.856  12.487
62774W        W24437  42.475  41.006  12.405
62775W        W24438  27.069   1.454  13.378
62776W        W24439  37.969  34.485  14.279
62777W        W24440   9.776  16.202   3.696
62778W        W24441   6.223  40.451   1.373
62779W        W24442  42.863  28.979  11.951
62780W        W24443  18.567   4.229   0.756
62781W        W24444   1.277  20.189   1.311
62782W        W24445   8.226   9.785  10.922
62783W        W24446  39.425   3.450  11.494
62784W        W24447  29.482  35.897  12.871
62785W        W24448  32.535  15.772  12.882
62786W        W24449  37.488  42.352   2.379
62787W        W24450  17.185  19.067   2.683
62788W        W24451  31.045  26.513   2.690
62789W        W24452  13.723  17.582  10.439
62790W        W24453  11.639  44.871   0.450
62791W        W24454  21.684  13.707  11.565
62792W        W24455   0.494  34.566   2.708
62793W        W24456   1.849  17.111  11.941
62794W        W24457   7.838  37.438   4.624
62795W        W24458   8.192  21.685   3.347
62796W        W24459  22.110  30.975  11.127
62797W        W24460   4.336  32.620   4.324
62798W        W24461  25.548  10.732  14.020
62799W        W24462  20.181   7.785   4.771
62800W        W24463   4.209  18.624  12.340
62801W        W24464   2.756   7.354  11.091
62802W        W24465  31.078   7.184   1.898
62803W        W24466  17.119  28.063  10.904
62804W        W24467  36.382  14.688  14.935
62805W        W24468  32.973  18.242  12.086
62806W        W24469  18.211  32.604  12.075
62807W        W24470   8.887  40.007  12.385
62808W        W24471  25.505  21.677   1.329
62809W        W24472  41.995  38.867  14.987
62810W        W24473  36.466  10.810  13.792
62811W        W24474  12.143  39.983  13.320
62812W        W24475  39.036   9.182  11.611
62813W        W24476  22.745   8.727   2.278
62814W        W24477   0.421  19.673  10.530
62815W        W24478  36.463  16.678  12.380
62816W        W24479  22.202  24.034   0.817
62817W        W24480   9.812  41.501  11.902
62818W        W24481  12.843   9.289  13.385
62819W        W24482   1.973   9.315   0.351
62820W        W24483  12.205  26.647   1.436
62821W        W24484  20.183  18.262   4.713
62822W        W24485  40.971  23.042  12.362
62823W        W24486  37.403  11.181   4.142
62824W        W24487  20.257  28.036   2.217
62825W        W24488  33.886   0.892   1.210
62826W        W24489  37.477  21.675   3.836
62827W        W24490   3.922  12.309  13.013
62828W        W24491  26.641  30.050  10.469
62829W        W24492  39.425  21.672   0.316
62830W        W24493  43.451  15.622   1.330
62831W        W24494  33.927  37.982  12.058
62832W        W24495  40.400  41.900   2.255
62833W        W24496  11.264  20.712   0.446
62834W        W24497  20.215  39.545  11.978
62835W        W24498  29.623  35.550   0.926
62836W        W24499  31.488  16.240  11.918
62837W        W24500  30.473   7.252  11.857
62838W        W24501   3.275  13.801  14.421
62839W        W24502  16.095  33.450  12.876
62840W        W24503  19.067  21.698  11.555
62841W        W24504   5.364   2.463   1.245
62842W        W24505  24.703  15.660  13.986
62843W        W24506  30.933  21.152  13.871
62844W        W24507  25.005  42.964  14.852
62845W        W24508   2.942  13.688   3.650
62846W        W24509  40.480  26.983   4.143
62847W        W24510   4.821  30.082  13.373
62848W        W24511  11.200  40.371  12.450
62849W        W24512  31.983  32.008  12.059
62850W        W24513  34.578  14.720  10.506
62851W        W24514  24.497  26.162  12.070
62852W        W24515  12.684  31.473   4.631
62853W        W24516   6.894  17.081   0.805
62854W        W24517  16.146  36.399   2.256
62855W        W24518  20.673  29.428   1.707
62856W        W24519  14.808  26.985  10.930
62857W        W24520   9.280  43.432  11.569
62858W        W24521  27.551   0.453  12.846
62859W        W24522   9.380  18.664   3.764
62860W        W24523  25.987  25.156   1.231
62861W        W24524   1.907   3.825   1.873
62862W        W24525  25.651  23.609  12.401
62863W        W24526  24.534  43.921  10.499
62864W        W24527   1.351  29.530  12.910
62865W        W24528   9.301  44.468  11.874
62866W        W24529   5.292  25.177  12.954
62867W        W24530  24.617   6.293   0.936
62868W        W24531  18.184  29.559  11.858
62869W        W24532  21.663   8.243  13.850
62870W        W24533  35.901  44.904  14.006
62871W        W24534  30.016  37.959  11.116
62872W        W24535  40.926  41.471   3.345
62873W        W24536  39.850  31.998  13.945
62874W        W24537  17.213   9.308   0.893
62875W        W24538  40.425  34.906   3.709
62876W        W24539   1.898  13.709   3.356
62877W        W24540  17.294  13.830   1.738
62878W        W24541  16.090   9.739  11.941
62879W        W24542  10.210  27.510  11.068
62880W        W24543  12.821  23.020  10.895
62881W        W24544  30.931  16.581  14.900
62882W        W24545  35.969  29.032   2.666
62883W        W24546  27.061  30.552   2.199
62884W        W24547  14.760  39.929   4.178
62885W        W24548  14.614  38.970   0.243
62886W        W24549   1.751  30.600  12.044
62887W        W24550  33.061  15.205   0.914
62888W        W24551  42.877  11.830  13.004
62889W        W24552  24.149  28.072   0.921
62890W        W24553  37.871  28.117   4.710
62891W        W24554  39.387  37.060   2.741
62892W        W24555   9.672  34.477   2.885
62893W        W24556  33.924  43.778  11.439
62894W        W24557   5.386  30.030  14.921
62895W        W24558  28.576  35.081  13.309
62896W        W24559  24.989  41.822  11.102
62897W        W24560  40.936  37.930   1.320
62898W        W24561  18.076  44.944  10.571
62899W        W24562   0.753  15.202  13.350
62900W        W24563   1.254   1.349  11.371
62901W        W24564  28.643  15.644  10.048
62902W        W24565  20.042  33.521   1.376
62903W        W24566  13.845  27.074   3.702
62904W        W24567  13.209   0.749  14.967
62905W        W24568  15.308  15.245   2.663
62906W        W24569  25.530  14.250  12.434
62907W        W24570  16.103  30.438   3.244
62908W        W24571  31.133   4.366  13.814
62909W        W24572  10.737  26.588   1.373
62910W        W24573   6.797  20.696  11.865
62911W        W24574  11.863  22.997  11.952
62912W        W24575   5.239  23.026   3.632
62913W        W24576   1.399  43.477  14.863
62914W        W24577   1.323   5.817   3.295
62915W        W24578   5.899  38.439   2.665
62916W        W24579   7.189  42.878   3.358
62917W        W24580  34.887  42.004  10.919
62918W        W24581  43.938  10.278  10.045
62919W        W24582  33.059  41.038  10.470
62920W        W24583  18.196  23.618  11.002
62921W        W24584  13.627  18.189   3.784
62922W        W24585   9.208  18.553  14.855
62923W        W24586   4.350  15.719   1.756
62924W        W24587  32.902  33.467   0.314
62925W        W24588  10.309  11.166   9.980
62926W        W24589  25.608  29.627   1.450
62927W        W24590  13.664   8.776  14.016
62928W        W24591  40.319  21.651   2.386
62929W        W24592  44.786  32.617  13.359
62930W        W24593  36.403  31.043   4.709
62931W        W24594  19.262  30.451  13.936
62932W        W24595  10.337  38.958  10.419
62933W        W24596  26.599  16.764   1.926
62934W        W24597  10.329  11.643   4.731
62935W        W24598  36.551  15.242   4.231
62936W        W24599  12.206   9.176  13.878
62937W        W24600  21.573  36.957  12.521
62938W        W24601  13.117  38.872  12.577
62939W        W24602   9.370  29.613   4.123
62940W        W24603   1.817  18.616   4.159
62941W        W24604   0.986  34.960  10.919
62942W        W24605   1.431  31.025  12.988
62943W        W24606  44.281  25.038   2.812
62944W        W24607  20.218  14.159  11.068
62945W        W24608   5.421  36.536   1.440
62946W        W24609  42.778  12.835   2.829
62947W        W24610  34.993   7.215  12.528
62948W        W24611  37.894  19.211  12.060
62949W        W24612  27.151  17.774  13.936
62950W        W24613  18.599  17.304   1.912
62951W        W24614  22.180  30.472  10.616
62952W        W24615   2.927  12.257  10.498
62953W        W24616   0.322  40.510   2.404
62954W        W24617  27.581  21.074  13.894
62955W        W24618   4.219  29.646   3.748
62956W        W24619  33.943  19.224  11.546
62957W        W24620  25.554  20.212   3.326
62958W        W24621  37.838   7.382  14.031
62959W        W24622  34.876  16.160   2.359
62960W        W24623  19.691  44.796  14.951
62961W        W24624  23.704   8.821  10.909
62962W        W24625  34.074   8.795   1.442
62963W        W24626  23.550  37.381   3.654
62964W        W24627  17.264  10.838   0.875
62965W        W24628  43.968  40.435  12.011
62966W        W24629   7.898  20.526   3.194
62967W        W24630  24.532  20.137   4.790
62968W        W24631  39.376   7.737   4.310
62969W        W24632  22.107  19.575  12.370
62970W        W24633  11.205  24.611   0.871
62971W        W24634  10.317   5.695  10.928
62972W        W24635  44.932  36.925   3.167
62973W        W24636  34.443  23.150   0.323
62974W        W24637  31.527  13.164  10.931
62975W        W24638  28.093  11.702   4.219
62976W        W24639   6.241  11.236  12.557
62977W        W24640  35.097  42.475   1.316
62978W        W24641  11.306  31.971   3.778
62979W        W24642   7.747  16.100   2.897
62980W        W24643  21.045  41.013  13.369
62981W        W24644  41.507  41.531   0.874
62982W        W24645  40.495  42.358  12.990
62983W        W24646  19.095   1.912  14.349
62984W        W24647  35.017  40.905   1.347
62985W        W24648  15.142   3.363  13.440
62986W        W24649  19.697  11.639  11.527
62987W        W24650  26.111  12.340   3.235
62988W        W24651  20.239  21.607  13.936
62989W        W24652  34.980  34.040   3.703
62990W        W24653  33.583  42.834   2.704
62991W        W24654  30.507  43.015  10.937
62992W        W24655  44.467  37.506  13.046
62993W        W24656  36.949  17.706  14.360
62994W        W24657   6.839  41.402   1.843
62995W        W24658  41.841  31.945  13.467
62996W        W24659  30.506  36.555   3.692
62997W        W24660  39.957  29.040  11.086
62998W        W24661  23.160  18.582   0.888
62999W        W24662   9.685  14.592  12.466
63000W        W24663  29.491  17.109  11.941
63001W        W24664  10.746   5.866   3.154
63002W        W24665  43.859  26.020  14.413
63003W        W24666  22.546   1.901   0.420
63004W        W24667  11.739  43.287   4.289
63005W        W24668  35.373   8.213   0.435
63006W        W24669   8.658  29.645  13.802
63007W        W24670   9.323  40.308  11.424
63008W        W24671  15.693  15.718   0.827
63009W        W24672  19.228  18.160  14.926
63010W        W24673   1.347  29.616   1.436
63011W        W24674  12.825   0.292   1.713
63012W        W24675  33.958  44.286  14.322
63013W        W24676  23.193  30.016   1.301
63014W        W24677  38.506  24.032  13.793
63015W        W24678  22.601  21.640   0.318
63016W        W24679  44.911  18.681  10.620
63017W        W24680  35.574  17.772   3.702
63018W        W24681  41.935  38.401   0.887
63019W        W24682   2.276  28.646  14.020
63020W        W24683   8.840   3.417   4.674
63021W        W24684  15.755   0.907   1.257
63022W        W24685  17.100  42.922   5.247
63023W        W24686  33.940  30.554   1.447
63024W        W24687   3.914  25.138   5.221
63025W        W24688  22.199  15.698   3.147
63026W        W24689  11.369  25.544  14.011
63027W        W24690   9.349  44.999   3.299
63028W        W24691  23.037  13.286  12.541
63029W        W24692  35.005  44.938  10.932
63030W        W24693  23.608  17.167  12.948
63031W        W24694  30.621  30.949   3.294
63032W        W24695  43.814  29.973  10.896
63033W        W24696   4.706  37.050   1.829
63034W        W24697  36.929   3.257   2.663
63035W        W24698  28.953  12.200  13.392
63036W        W24699  21.755  41.875   0.812
63037W        W24700  25.971  43.826   3.343
63038W        W24701   5.396  43.377   4.185
63039W        W24702  15.788  11.670  12.580
63040W        W24703   8.659  17.121  14.516
63041W        W24704  26.150  15.328  10.981
63042W        W24705  24.538   3.235  14.319
63043W        W24706  14.285  36.989   3.683
63044W        W24707   2.907  24.591  13.463
63045W        W24708  15.284   9.726  14.973
63046W        W24709  29.653  44.777   2.665
63047W        W24710  10.656  20.666  12.010
63048W        W24711   2.733   4.325  12.919
63049W        W24712  34.903  34.952   2.838
63050W        W24713  15.168  24.985   4.322
63051W        W24714  15.668  24.582  11.938
63052W        W24715   3.797  36.411  14.476
63053W        W24716  33.543  17.222  13.497
63054W        W24717  37.003  30.017  10.423
63055W        W24718  33.598  30.567   2.393
63056W        W24719   7.222  30.018  13.796
63057W        W24720  22.717  16.725   1.451
63058W        W24721  30.533  38.364   4.756
63059W        W24722   2.435  35.085  13.361
63060W        W24723   6.885  15.808  13.058
63061W        W24724  15.627  44.375   4.292
63062W        W24725   6.714   0.818   3.237
63063W        W24726   8.362  41.417   1.311
63064W        W24727   7.721  27.488   3.364
63065W        W24728  25.527  15.296   2.666
63066W        W24729  20.142  42.990   0.947
63067W        W24730   5.312  12.819  11.992
63068W        W24731   2.325  24.011   4.764
63069W        W24732  35.048  27.046   4.711
63070W        W24733  15.219  32.103   1.914
63071W        W24734  15.752   2.909  10.494
63072W        W24735  34.937  24.123  13.841
63073W        W24736  31.404  34.985   2.380
63074W        W24737  35.085  40.906   3.769
63075W        W24738   5.868  14.828  14.943
63076W        W24739   8.812  21.687  10.545
63077W        W24740  40.319  24.703   2.188
63078W        W24741  15.815   1.895   4.192
63079W        W24742   4.439  26.680   3.688
63080W        W24743   8.283  13.164   4.757
63081W        W24744   9.338  27.638   3.377
63082W        W24745  41.873  44.423  12.086
63083W        W24746  39.422  20.209   2.191
63084W        W24747  42.875  12.705  11.962
63085W        W24748   2.767  26.160   2.344
63086W        W24749  35.476  10.806   5.698
63087W        W24750  36.878  27.472  11.002
63088W        W24751   9.751  22.243   0.860
63089W        W24752  16.721  10.861   0.928
63090W        W24753  16.603  25.023   4.830
63091W        W24754  34.512   8.207   4.731
63092W        W24755  36.363  20.690   4.795
63093W        W24756  22.535  18.258  13.032
63094W        W24757  15.714  19.763  14.916
63095W        W24758  30.959  27.625   0.242
63096W        W24759  21.018  32.578   4.676
63097W        W24760   9.237  11.806  12.020
63098W        W24761  19.625  12.256   2.683
63099W        W24762  10.266  11.724   0.407
63100W        W24763  26.987  19.625   4.121
63101W        W24764  36.987  42.381   1.789
63102W        W24765  26.006  23.655  11.107
63103W        W24766   1.314  22.243   4.327
63104W        W24767  26.107  10.157   2.279
63105W        W24768   4.421   0.448   1.768
63106W        W24769  10.222   4.792   0.380
63107W        W24770  33.878  24.107   9.578
63108W        W24771  41.502  42.428  14.396
63109W        W24772  39.898  34.456   4.326
63110W        W24773  36.582  19.630   1.274
63111W        W24774  21.043  12.162   3.292
63112W        W24775   0.286  20.637   3.699
63113W        W24776  11.327  15.329   4.654
63114W        W24777  42.365  21.635   2.370
63115W        W24778  39.414  11.209   3.155
63116W        W24779  11.623  14.320   3.712
63117W        W24780  37.064  20.556   1.815
63118W        W24781  21.696  23.061   4.256
63119W        W24782  26.635   1.927  14.028
63120W        W24783   7.194  34.425   2.308
63121W        W24784  21.050  40.441  10.519
63122W        W24785  42.467  22.639   3.793
63123W        W24786  37.878  38.994   3.766
63124W        W24787  25.603  28.460  11.935
63125W        W24788  28.103  35.984  12.572
63126W        W24789  38.061   6.874   4.151
63127W        W24790   7.721   2.762  12.934
63128W        W24791  43.765   1.972   1.909
63129W        W24792  36.399   5.902   2.183
63130W        W24793  39.493  34.446   0.734
63131W        W24794  37.939  39.915  13.801
63132W        W24795  22.636  22.552   0.318
63133W        W24796  42.951   7.181   1.289
63134W        W24797  36.398   8.277  13.002
63135W        W24798   8.164  26.981  10.508
63136W        W24799   7.402  15.232   3.281
63137W        W24800  38.383  32.039  14.963
63138W        W24801  20.067  26.688  12.959
63139W        W24802  21.115   9.208  14.879
63140W        W24803  26.529  17.602  10.481
63141W        W24804  10.791   3.331  14.832
63142W        W24805  43.905  19.687   2.747
63143W        W24806  12.711  26.160   0.385
63144W        W24807  41.342   5.761  14.326
63145W        W24808   5.688  15.283  14.318
63146W        W24809  20.055   0.283   4.234
63147W        W24810  27.075  33.949  10.908
63148W        W24811  30.611  39.377  12.084
63149W        W24812  11.232  13.720   4.320
63150W        W24813  27.959  25.014   2.882
63151W        W24814   0.415  28.448   3.704
63152W        W24815   9.870   9.779   3.709
63153W        W24816  19.564   4.271   0.478
63154W        W24817  19.754  33.964  14.355
63155W        W24818  27.602   7.400  11.036
63156W        W24819  43.815  43.913  10.524
63157W        W24820  20.615  40.830   2.811
63158W        W24821  38.344  35.014  13.819
63159W        W24822  20.691  16.101  12.547
63160W        W24823   5.199  15.814   3.176
63161W        W24824  34.393  10.692  11.456
63162W        W24825   8.756  40.514  12.976
63163W        W24826  30.106  43.312  12.044
63164W        W24827   6.711  12.693   1.242
63165W        W24828   2.472  16.271  12.036
63166W        W24829  27.028  15.782  10.951
63167W        W24830  25.976  15.725   5.248
63168W        W24831  27.997   5.806  14.768
63169W        W24832   4.343  22.217   3.239
63170W        W24833   4.399  15.800   4.310
63171W        W24834  38.425  29.014  11.008
63172W        W24835   8.284  31.488  10.601
63173W        W24836  25.060  42.473  12.833
63174W        W24837  31.917  43.431  10.613
63175W        W24838  44.286  32.049  12.020
63176W        W24839  28.123  42.469   3.836
63177W        W24840  37.350  10.723  13.057
63178W        W24841  13.709  11.357  11.019
63179W        W24842  11.636  17.212   0.914
63180W        W24843  13.717  21.752   2.775
63181W        W24844   0.747   2.781   3.726
63182W        W24845  25.111   6.823  14.797
63183W        W24846   6.375  16.152  14.948
63184W        W24847   0.329  17.112  11.405
63185W        W24848  35.098  31.997  11.910
63186W        W24849  42.833  14.800  13.420
63187W        W24850   6.763  15.720  11.459
63188W        W24851  11.195   2.831   4.631
63189W        W24852  23.130  12.820  13.421
63190W        W24853  38.072   7.172  14.282
63191W        W24854   9.168  26.507  12.512
63192W        W24855  44.302  18.703   1.701
63193W        W24856  27.989  22.535  10.628
63194W        W24857  38.514   3.236   4.656
63195W        W24858   5.255  25.060   3.739
63196W        W24859  38.484  23.043   1.312
63197W        W24860  25.012  20.267  10.411
63198W        W24861   3.326  36.856  12.568
63199W        W24862   9.737  23.184  14.776
63200W        W24863  11.197  31.461   0.404
63201W        W24864   4.300  25.123  12.009
63202W        W24865   4.324   8.835  11.858
63203W        W24866  30.564  35.402  12.566
63204W        W24867  15.711   8.195  10.442
63205W        W24868  38.004  31.012  14.320
63206W        W24869  16.105  23.703   1.737
63207W        W24870  25.698  26.971   0.323
63208W        W24871  18.120  37.912  14.304
63209W        W24872  34.876  43.839  11.481
63210W        W24873  34.393   4.212   5.318
63211W        W24874   0.270   2.785   2.304
63212W        W24875  15.821  19.590   1.748
63213W        W24876   6.773  43.789   3.764
63214W        W24877  31.125  11.256  12.025
63215W        W24878   6.839  37.498  10.491
63216W        W24879  10.185   4.734  10.931
63217W        W24880  31.015   5.744  11.053
63218W        W24881  39.871  19.065  14.916
63219W        W24882   3.315   8.656   2.725
63220W        W24883  20.195  43.958  12.541
63221W        W24884  28.493   7.747  11.391
63222W        W24885  19.728  35.017  12.566
63223W        W24886  37.889   3.425  11.072
63224W        W24887   7.266  11.776   3.687
63225W        W24888  25.607   0.832   2.874
63226W        W24889  33.095   4.317   4.760
63227W        W24890   4.848  35.059  12.017
63228W        W24891  14.130   2.801   0.743
63229W        W24892  22.066   7.902  13.038
63230W        W24893  16.651  11.360  14.344
63231W        W24894   1.962  33.501   0.367
63232W        W24895   4.287  42.345  12.984
63233W        W24896  28.607  30.490  11.497
63234W        W24897  10.636  29.962  10.902
63235W        W24898  17.231  10.789  13.980
63236W        W24899  14.684  21.668   3.174
63237W        W24900  24.501  16.138  10.437
63238W        W24901  31.419   2.250  10.617
63239W        W24902  15.726  38.024  14.464
63240W        W24903  44.421  17.245   0.356
63241W        W24904  15.814  34.484   4.628
63242W        W24905   4.274  24.190  12.473
63243W        W24906  37.892   9.716  13.961
63244W        W24907   9.216   2.260  13.398
63245W        W24908  17.290  33.883  11.100
63246W        W24909   0.861  44.455  14.290
63247W        W24910   3.714   0.865   2.305
63248W        W24911  33.599  30.941  14.020
63249W        W24912   7.774  28.510   1.831
63250W        W24913  39.901  11.835  14.761
63251W        W24914  33.128  37.356  14.341
63252W        W24915  19.603  23.062   3.695
63253W        W24916  39.879   4.316  10.932
63254W        W24917  14.588   1.764   1.242
63255W        W24918   6.240  10.655   1.869
63256W        W24919  37.038   5.439   0.338
63257W        W24920   2.338  33.000  11.906
63258W        W24921  42.366  37.842   2.245
63259W        W24922   9.355  26.186   4.703
63260W        W24923   0.913   2.855  10.435
63261W        W24924  29.485  13.323  13.491
63262W        W24925  15.640  20.536   1.736
63263W        W24926  24.207  43.777   3.276
63264W        W24927  17.133   3.265   1.932
63265W        W24928  40.522  39.364  12.827
63266W        W24929  39.975   7.839  11.062
63267W        W24930  26.694  30.638  14.984
63268W        W24931   6.219  25.218  12.344
63269W        W24932  29.096  17.792  13.936
63270W        W24933   1.895  31.445   1.754
63271W        W24934  14.619  39.559  14.323
63272W        W24935  44.375  34.979  11.860
63273W        W24936  18.197  31.645  12.501
63274W        W24937  37.974  34.997  10.502
63275W        W24938  30.140  27.510  13.362
63276W        W24939  10.316  29.643  11.009
63277W        W24940  31.437  25.015   4.285
63278W        W24941  44.385  32.112  12.342
63279W        W24942   9.331  23.185  11.489
63280W        W24943   6.348   4.321   0.733
63281W        W24944   8.316  17.565  10.991
63282W        W24945  19.679  17.144   3.740
63283W        W24946   8.199   4.732   0.253
63284W        W24947  41.400  13.608   0.953
63285W        W24948  31.085  13.131  12.362
63286W        W24949   0.975  27.953   0.867
63287W        W24950  32.887  40.421  11.468
63288W        W24951  40.405   9.240   0.257
63289W        W24952  30.498   5.805  11.512
63290W        W24953  42.515  39.867   1.845
63291W        W24954  44.272   0.811   2.858
63292W        W24955   9.211  33.883  13.531
63293W        W24956  30.934  43.447  13.827
63294W        W24957  12.130  19.682   4.778
63295W        W24958   2.778  13.831  11.113
63296W        W24959  19.738  36.964  14.879
63297W        W24960  15.317  32.515   0.908
63298W        W24961  16.280   9.343   0.473
63299W        W24962   5.405  17.630  10.962
63300W        W24963  10.254   3.891   0.482
63301W        W24964  20.100  35.042   2.755
63302W        W24965  22.220  18.559  14.439
63303W        W24966  28.052  10.231  10.022
63304W        W24967  28.050  26.618  12.344
63305W        W24968  27.140   4.338   2.278
63306W        W24969  33.587  19.180   2.282
63307W        W24970  40.430  40.818  12.939
63308W        W24971   8.326  41.321   4.696
63309W        W24972  36.468   6.783  14.462
63310W        W24973  22.657  34.594   1.437
63311W        W24974  40.509  38.862   2.721
63312W        W24975  38.874  22.672  14.439
63313W        W24976  23.722  37.525   2.241
63314W        W24977  40.824  34.390  12.872
63315W        W24978   5.737  28.044  10.460
63316W        W24979  36.450  23.598   2.709
63317W        W24980  13.307  42.474   0.365
63318W        W24981  29.925  13.766  11.018
63319W        W24982  25.220   7.669   4.833
63320W        W24983  27.166  37.498   3.288
63321W        W24984   8.805  35.057  14.883
63322W        W24985  16.219  32.010  10.058
63323W        W24986  37.461  25.686  11.586
63324W        W24987  28.156  39.998   3.178
63325W        W24988  34.557  37.073   3.812
63326W        W24989  23.097  32.469  12.386
63327W        W24990   2.809  33.117   2.855
63328W        W24991   2.251  26.604   1.439
63329W        W24992  43.308  15.297   2.276
63330W        W24993  19.713  32.014   4.251
63331W        W24994  22.034  36.947   3.229
63332W        W24995  26.599  33.407   1.220
63333W        W24996  29.174  35.048  13.012
63334W        W24997  30.051  24.012   4.228
63335W        W24998  28.676   6.828  13.356
63336W        W24999  21.584  29.567  14.460
63337W        W25000  31.556  22.149   0.483
63338W        W25001  29.967   7.844  13.844
63339W        W25002   8.666  12.168  10.964
63340W        W25003  24.683  42.446   1.931
63341W        W25004  31.412  34.494   1.807
63342W        W25005   1.875   1.768   0.732
63343W        W25006   0.365  19.700  10.894
63344W        W25007  30.420  23.717   2.844
63345W        W25008  40.969  33.912  13.333
63346W        W25009  24.046  24.083  10.631
63347W        W25010   9.704  40.433  14.383
63348W        W25011  41.529   3.714  13.434
63349W        W25012  39.049   3.295  11.529
63350W        W25013  43.337  32.511   0.750
63351W        W25014   6.328  35.049   4.304
63352W        W25015  34.514  32.392   0.367
63353W        W25016  33.951  42.861   4.165
63354W        W25017   1.392  38.011  10.516
63355W        W25018  44.325  11.831   2.372
63356W        W25019  36.394  13.198  11.564
63357W        W25020  36.857  16.722   3.822
63358W        W25021   6.412  42.899   1.831
63359W        W25022  42.813   8.284  10.954
63360W        W25023  14.759  25.095   2.248
63361W        W25024  33.020  33.981   4.306
63362W        W25025  23.146   0.317   5.318
63363W        W25026  39.496   0.371  11.512
63364W        W25027  37.892   5.286   0.961
63365W        W25028   6.397  43.352  13.038
63366W        W25029  18.593  15.145  11.867
63367W        W25030  40.313  21.066   1.333
63368W        W25031  35.880   7.387  11.607
63369W        W25032  34.377  35.051  11.378
63370W        W25033  18.750  20.186  14.308
63371W        W25034  19.735  21.674  13.038
63372W        W25035  43.002  44.770   0.329
63373W        W25036   9.254  41.395   3.639
63374W        W25037  25.008   1.866  13.467
63375W        W25038  10.676  20.188  12.494
63376W        W25039   0.971  36.366   3.366
63377W        W25040  29.509  15.095  10.972
63378W        W25041  38.075  23.992   2.716
63379W        W25042  11.164   5.243   1.816
63380W        W25043  41.384  25.670   3.173
63381W        W25044  38.327  40.871  13.520
63382W        W25045  29.531   7.697   2.316
63383W        W25046   0.983  21.236   0.858
63384W        W25047  16.240  12.238   4.149
63385W        W25048   7.314   8.852  10.642
63386W        W25049  28.135  22.518   3.670
63387W        W25050  13.756  29.448  13.403
63388W        W25051  12.222  43.767  13.333
63389W        W25052  21.705  37.522   4.802
63390W        W25053  44.902   6.195  12.897
63391W        W25054  32.129  13.290   3.845
63392W        W25055  43.379   7.386   0.808
63393W        W25056  30.036  30.958  10.456
63394W        W25057  11.656  23.159  13.415
63395W        W25058  14.800  24.597  10.634
63396W        W25059  18.052   9.793  12.905
63397W        W25060  23.509  29.474   2.726
63398W        W25061  21.209  29.608   3.185
63399W        W25062  20.646   5.312  14.803
63400W        W25063   3.335  10.216   3.290
63401W        W25064  35.433  34.447   1.864
63402W        W25065  27.669  37.450   4.236
63403W        W25066   6.203  24.087  13.910
63404W        W25067  14.782  38.976  10.480
63405W        W25068  19.127   7.824   4.158
63406W        W25069  23.237  25.162  12.490
63407W        W25070  13.612  32.047   0.430
63408W        W25071   0.913  31.984   1.785
63409W        W25072  32.436  15.137   0.929
63410W        W25073  34.482  27.622  10.990
63411W        W25074   6.297  33.947   4.675
63412W        W25075  43.860  37.433  12.408
63413W        W25076  28.671  32.133  12.005
63414W        W25077  41.993  31.505  13.506
63415W        W25078  33.085   1.750  11.579
63416W        W25079  28.503  41.010  12.844
63417W        W25080  40.873  19.651   0.371
63418W        W25081  14.826  17.576   2.385
63419W        W25082  29.024  27.570  13.797
63420W        W25083  10.639  42.997   2.750
63421W        W25084  41.393  20.255   0.855
63422W        W25085  28.599   7.781  14.419
63423W        W25086  13.729  18.070  13.545
63424W        W25087   9.309   7.687   2.182
63425W        W25088  21.526  18.616   1.704
63426W        W25089   3.289  17.112  10.903
63427W        W25090  34.502   4.369   1.319
63428W        W25091   5.752  12.275  10.558
63429W        W25092  35.894   1.295   0.761
63430W        W25093  29.575  31.019   0.379
63431W        W25094  34.001   4.359   4.725
63432W        W25095   4.896   6.316  12.568
63433W        W25096  24.638  41.469  11.386
63434W        W25097  18.232  13.253  12.963
63435W        W25098  11.786  43.837  14.002
63436W        W25099  32.626  24.077  14.854
63437W        W25100  14.281  33.531   1.917
63438W        W25101  40.978  31.101   4.179
63439W        W25102   8.869  11.165   2.199
63440W        W25103  26.158  10.275  11.087
63441W        W25104  32.995   1.316   1.378
63442W        W25105  42.336  22.237   0.320
63443W        W25106  25.664  12.648   3.809
63444W        W25107  18.740  35.047  12.405
63445W        W25108  26.543  22.054   2.277
63446W        W25109  19.647  41.888   3.160
63447W        W25110   0.418   2.325   3.285
63448W        W25111   5.241   2.814  10.947
63449W        W25112  35.951   0.956  11.380
63450W        W25113  17.090  43.442  12.350
63451W        W25114  41.352  16.607   0.300
63452W        W25115  18.671  27.180   4.354
63453W        W25116  41.441  17.235  10.479
63454W        W25117  13.269  19.757  11.037
63455W        W25118   1.749  42.915   1.288
63456W        W25119  42.809  25.609  10.965
63457W        W25120   0.842  12.827   1.717
63458W        W25121  18.191  31.007  11.014
63459W        W25122  26.520  38.395   1.429
63460W        W25123  25.100  32.475  12.017
63461W        W25124  33.440  21.244   1.862
63462W        W25125  13.689  28.623  13.900
63463W        W25126  19.221  16.656   4.140
63464W        W25127   9.215  27.057   2.225
63465W        W25128  10.178  40.474   2.802
63466W        W25129  23.656  28.670   4.227
63467W        W25130  24.694  20.263  10.935
63468W        W25131  28.660   8.313   1.241
63469W        W25132  12.722   7.295   4.694
63470W        W25133  26.651   8.370  12.400
63471W        W25134  39.382  40.375  12.386
63472W        W25135  40.352   9.378   5.712
63473W        W25136   7.402  36.930  10.968
63474W        W25137  42.473   5.257  14.908
63475W        W25138  39.494   9.850  10.429
63476W        W25139  33.976  36.924   4.666
63477W        W25140  27.168   9.289   0.797
63478W        W25141  26.964   2.443  13.888
63479W        W25142  16.251  29.639   2.803
63480W        W25143   0.803  26.095   2.903
63481W        W25144  11.358   7.725  10.439
63482W        W25145  16.764  40.887  12.489
63483W        W25146  11.762  44.426   2.232
63484W        W25147  18.775   2.235  13.897
63485W        W25148  25.214  30.919  13.988
63486W        W25149  34.520   1.460  13.404
63487W        W25150  22.574  20.698   0.943
63488W        W25151  29.092  19.741   4.776
63489W        W25152  34.117  36.092  12.574
63490W        W25153  33.913  28.666   4.758
63491W        W25154  35.510  27.967   0.452
63492W        W25155  44.873  37.566  14.369
63493W        W25156  39.943  23.556   2.184
63494W        W25157   9.755  10.690   1.879
63495W        W25158  18.677  32.440  13.326
63496W        W25159   5.868  15.596  13.997
63497W        W25160  23.050  16.804  14.412
63498W        W25161   3.278  30.598   3.728
63499W        W25162  40.410  24.662   1.704
63500W        W25163  44.369   7.310   2.316
63501W        W25164  18.179  43.921   4.337
63502W        W25165  37.969  13.251   0.307
63503W        W25166   8.382  24.984   0.418
63504W        W25167  36.563  17.280   4.147
63505W        W25168  28.593   7.838  10.983
63506W        W25169   4.362  37.515   4.312
63507W        W25170  27.653  19.082   1.695
63508W        W25171  28.034  34.049  11.993
63509W        W25172  19.580  11.660   0.761
63510W        W25173  41.878   8.716  13.408
63511W        W25174  31.964  27.010   0.749
63512W        W25175   9.355  42.955   3.680
63513W        W25176   0.954  34.055  12.075
63514W        W25177  13.276  42.844  10.642
63515W        W25178  35.919   8.244  13.342
63516W        W25179  31.451   1.276   3.632
63517W        W25180   4.766   7.774  14.900
63518W        W25181  19.213  43.986  11.927
63519W        W25182  22.167  11.813  10.977
63520W        W25183  18.126   3.902   3.330
63521W        W25184   9.758   4.863   0.448
63522W        W25185  34.522  10.350  10.515
63523W        W25186   5.882   6.296   3.635
63524W        W25187  39.382   2.741   0.864
63525W        W25188  31.598  14.261  12.340
63526W        W25189  16.639  34.557  12.067
63527W        W25190  40.839   5.876  11.966
63528W        W25191  27.566   0.806  10.417
63529W        W25192  35.012  22.155   1.229
63530W        W25193  23.567   2.339  13.972
63531W        W25194  31.553  22.628   3.168
63532W        W25195  22.648  37.015  14.470
63533W        W25196  22.195  25.106  10.430
63534W        W25197  43.836   6.901   4.775
63535W        W25198  18.227  18.788   0.765
63536W        W25199  10.253   2.400  12.365
63537W        W25200   4.775  11.320  13.896
63538W        W25201  41.827  13.733  11.473
63539W        W25202  38.852  31.977   0.354
63540W        W25203   8.787  28.506  12.047
63541W        W25204   1.880  22.534  12.534
63542W        W25205  35.390   5.777   2.364
63543W        W25206   7.807  23.491   5.251
63544W        W25207  28.012  35.887   3.353
63545W        W25208  40.841  40.315   0.365
63546W        W25209   3.787  16.652  14.432
63547W        W25210   2.325   9.224   1.433
63548W        W25211   3.296   6.809  10.639
63549W        W25212   2.439  38.844   1.438
63550W        W25213  30.134  32.479   3.373
63551W        W25214  37.940  22.570   0.930
63552W        W25215  17.252  42.880   2.376
63553W        W25216  17.713  29.521  13.531
63554W        W25217   2.897  28.070  10.909
63555W        W25218  27.189  15.603   1.770
63556W        W25219   2.283  44.327   1.355
63557W        W25220  26.528   6.392   4.346
63558W        W25221  16.224  31.534   2.255
63559W        W25222  19.262  35.463   3.826
63560W        W25223  27.632   5.408  12.043
63561W        W25224  19.074  32.965   3.740
63562W        W25225  13.221  23.990   3.323
63563W        W25226  18.060  31.028  14.275
63564W        W25227  38.000   5.349   9.564
63565W        W25228  39.953  30.632   2.740
63566W        W25229   4.807  28.483  11.036
63567W        W25230  27.045  43.813  10.901
63568W        W25231  23.671  30.466   2.812
63569W        W25232  33.987  28.093   2.806
63570W        W25233  13.776  10.731   2.219
63571W        W25234  44.997  35.931  14.007
63572W        W25235  41.490  22.018  11.946
63573W        W25236   0.916  11.864  14.429
63574W        W25237   9.234  32.490  11.072
63575W        W25238  27.607  18.772  14.769
63576W        W25239  34.950  30.599   3.749
63577W        W25240  11.767   0.387   3.290
63578W        W25241  15.756  22.181  13.522
63579W        W25242  28.484   7.257  14.434
63580W        W25243   1.330  17.769  11.874
63581W        W25244  27.042   5.348  13.354
63582W        W25245  22.036  32.113   4.346
63583W        W25246  37.952   5.779  10.042
63584W        W25247  12.826   5.907  14.485
63585W        W25248  42.914  37.381  14.389
63586W        W25249  20.114  10.756  13.911
63587W        W25250   6.239  30.422   3.265
63588W        W25251  17.640  22.534  13.316
63589W        W25252  15.281  39.446  10.028
63590W        W25253  15.748  44.951   4.670
63591W        W25254  28.067  29.165   3.288
63592W        W25255  17.652  20.695  10.596
63593W        W25256  17.154  38.996   4.120
63594W        W25257  16.613   8.863  12.094
63595W        W25258  25.216  37.510   1.776
63596W        W25259  32.435  33.410   1.448
63597W        W25260  17.692  25.499   1.894
63598W        W25261  13.307  11.300  10.442
63599W        W25262  22.249  37.579   0.858
63600W        W25263  29.008  31.099  11.062
63601W        W25264  44.952  43.937   1.914
63602W        W25265  18.746  37.387  11.859
63603W        W25266  40.388  27.970  11.382
63604W        W25267   4.836  39.963   2.372
63605W        W25268  29.465   5.333   4.644
63606W        W25269  28.624  29.137  10.996
63607W        W25270   4.797  23.081  12.389
63608W        W25271  40.806   8.346   4.263
63609W        W25272  13.686  34.387   9.992
63610W        W25273  35.856  13.643   0.906
63611W        W25274  41.992  21.095  13.504
63612W        W25275  25.673   1.917  14.413
63613W        W25276  22.218  11.636   3.346
63614W        W25277   7.698  22.130   4.661
63615W        W25278  28.148  36.018  10.573
63616W        W25279  42.521  19.654  11.858
63617W        W25280   4.301  10.679   2.884
63618W        W25281  37.344   8.308  12.872
63619W        W25282  25.140   4.368  13.845
63620W        W25283  33.007  25.694   1.451
63621W        W25284  26.105  24.122   3.652
63622W        W25285   7.777  10.272   1.871
63623W        W25286  31.138  31.021   2.774
63624W        W25287  42.922  18.790  12.458
63625W        W25288  15.205  21.728  14.956
63626W        W25289  13.654  24.660  10.981
63627W        W25290  13.312  26.635  12.920
63628W        W25291  15.119   2.384   1.735
63629W        W25292   2.466  13.218  14.420
63630W        W25293  33.476  12.267   0.384
63631W        W25294  37.514  39.864   1.379
63632W        W25295  29.141  37.413  10.552
63633W        W25296  42.844  30.547   4.177
63634W        W25297  17.207   2.380   1.812
63635W        W25298  15.269  12.186  10.572
63636W        W25299  32.900  26.636  10.459
63637W        W25300   2.284  38.956  12.973
63638W        W25301  13.275   7.788  11.530
63639W        W25302  40.502  12.763   0.832
63640W        W25303  15.255   8.837  11.390
63641W        W25304  28.481  19.043  14.904
63642W        W25305  35.561   7.867   2.289
63643W        W25306   7.215  19.171   4.217
63644W        W25307  44.481  19.173   0.376
63645W        W25308  10.336   0.445  13.964
63646W        W25309   9.870  17.728  10.442
63647W        W25310  31.626  44.333   0.743
63648W        W25311   7.225  15.787  11.916
63649W        W25312  16.248  29.006   2.665
63650W        W25313  29.527   0.379  12.842
63651W        W25314  15.723  12.731  10.988
63652W        W25315  36.973  10.681  10.930
63653W        W25316  21.218   1.817   0.848
63654W        W25317  14.147  23.721  11.035
63655W        W25318  38.955   2.770  11.400
63656W        W25319  19.566  20.114  11.607
63657W        W25320  24.034   6.374   3.170
63658W        W25321   6.918   4.857  10.608
63659W        W25322  38.838  15.215   0.255
63660W        W25323  27.597   8.706  11.876
63661W        W25324  30.120  38.541  14.808
63662W        W25325  39.838   6.733  11.971
63663W        W25326  26.107  41.347  14.027
63664W        W25327  16.080   9.832   4.825
63665W        W25328  44.763  31.578   4.329
63666W        W25329  13.646  44.270  12.407
63667W        W25330   5.193  39.495  12.499
63668W        W25331  30.986  17.077   3.186
63669W        W25332  24.656   0.289   4.600
63670W        W25333  27.551  25.502   0.408
63671W        W25334  31.540  28.161   2.820
63672W        W25335  36.517  17.635  13.383
63673W        W25336  31.456  44.010   3.272
63674W        W25337  17.164  30.548  11.028
63675W        W25338  38.914  32.433  11.041
63676W        W25339   5.756   0.313   0.288
63677W        W25340  10.252  34.109   2.209
63678W        W25341  10.693  15.245   0.826
63679W        W25342  10.157   9.314  11.999
63680W        W25343  26.641  38.502  14.927
63681W        W25344  24.490  12.159   1.296
63682W        W25345  37.961  22.145   0.858
63683W        W25346  25.475   8.363  13.921
63684W        W25347   0.915   6.677  10.611
63685W        W25348   0.385  16.282   2.244
63686W        W25349  33.550  28.547   0.334
63687W        W25350  22.734  34.968  11.600
63688W        W25351  11.790  42.388   3.870
63689W        W25352  40.538  17.282   5.314
63690W        W25353  20.116  31.940   0.856
63691W        W25354  35.962  19.536  12.434
63692W        W25355  28.466   0.969  12.934
63693W        W25356  23.659   8.833  10.465
63694W        W25357  10.334   2.761  11.450
63695W        W25358   3.311  27.172   4.299
63696W        W25359  24.630  37.411   3.649
63697W        W25360  26.591  26.026  12.529
63698W        W25361  24.121  27.104   4.783
63699W        W25362  34.519  27.521  11.467
63700W        W25363   5.790   7.173   0.250
63701W        W25364  36.452  39.546  14.994
63702W        W25365  22.198  33.915  11.963
63703W        W25366   7.712   9.342   4.320
63704W        W25367  44.417  20.159  13.880
63705W        W25368  28.936  18.743  11.919
63706W        W25369  41.982  34.431  14.970
63707W        W25370  14.273   8.729  12.885
63708W        W25371  13.669  22.130  14.827
63709W        W25372  44.468  28.629  10.921
63710W        W25373  31.063  31.020   3.379
63711W        W25374  40.371  40.989   1.361
63712W        W25375  41.006  23.702  14.318
63713W        W25376  12.783   8.773   9.986
63714W        W25377   3.312  27.027   2.345
63715W        W25378   8.672   5.705   3.724
63716W        W25379  44.431  30.981  12.050
63717W        W25380  18.170  18.121   2.709
63718W        W25381  21.134  17.212  10.560
63719W        W25382  21.549  10.712   1.928
63720W        W25383  32.436  16.213   3.694
63721W        W25384   2.896  20.233  11.395
63722W        W25385   3.763  31.630   2.898
63723W        W25386  26.121  27.994   1.707
63724W        W25387   4.238   8.699  14.918
63725W        W25388  11.755   7.704   3.221
63726W        W25389  26.113  12.277  12.493
63727W        W25390  36.979  44.873   3.638
63728W        W25391  39.940  39.471   3.766
63729W        W25392  35.919  11.641   2.241
63730W        W25393  25.205  10.258   4.690
63731W        W25394  20.254  41.946  13.512
63732W        W25395  31.908  10.704   1.303
63733W        W25396   4.854  34.108   2.241
63734W        W25397  15.176  23.113   2.696
63735W        W25398   8.876  42.464  12.509
63736W        W25399  39.987  38.069   0.385
63737W        W25400  31.516  41.963   1.751
63738W        W25401   6.811  27.594  11.432
63739W        W25402  12.261  38.542   1.816
63740W        W25403   1.865   2.292   1.901
63741W        W25404   1.401  22.195  14.882
63742W        W25405   5.801  25.148   0.942
63743W        W25406  22.505  28.972   4.315
63744W        W25407  33.618   3.834   0.907
63745W        W25408  12.830  40.979   2.339
63746W        W25409  27.644  32.037   3.854
63747W        W25410  12.339  28.484  10.514
63748W        W25411  32.593  15.813   3.288
63749W        W25412  15.166  25.033   0.784
63750W        W25413   7.824  35.972  13.939
63751W        W25414  24.117   5.412   0.806
63752W        W25415  16.712  42.439   3.379
63753W        W25416  26.653  30.120   4.748
63754W        W25417  15.626  31.579   1.853
63755W        W25418  13.767  27.565  10.895
63756W        W25419  42.826  37.493   1.822
63757W        W25420  13.658   7.398  12.486
63758W        W25421  13.750   2.832   1.718
63759W        W25422  13.701  44.771  14.324
63760W        W25423  23.109  14.191   1.794
63761W        W25424   1.950   8.893  10.637
63762W        W25425  16.302   8.854  13.907
63763W        W25426   8.332  40.499  14.864
63764W        W25427   4.714  32.416  13.002
63765W        W25428  40.344   0.825   5.226
63766W        W25429  24.694  32.107   1.231
63767W        W25430  16.664   4.901  11.563
63768W        W25431  27.447   3.225   0.808
63769W        W25432  19.143  21.146  11.068
63770W        W25433  13.634   8.896  12.368
63771W        W25434  32.093  13.635   0.931
63772W        W25435   8.736  20.070  12.929
63773W        W25436  24.621   9.862  14.997
63774W        W25437  44.292  32.106  14.302
63775W        W25438  38.428  14.101   2.691
63776W        W25439   2.873   7.371  14.979
63777W        W25440  10.810  10.868   0.356
63778W        W25441  32.067  21.735   1.738
63779W        W25442  23.103  14.110   3.380
63780W        W25443  30.975  26.557   3.367
63781W        W25444  24.079  19.595  11.575
63782W        W25445  26.691  41.341   5.608
63783W        W25446  41.502  25.157  14.374
63784W        W25447   0.900  21.200   3.668
63785W        W25448   9.721   3.350  14.984
63786W        W25449  17.618  41.897  12.539
63787W        W25450  17.284  38.920   2.856
63788W        W25451  42.902  35.878   3.187
63789W        W25452  23.068  33.594   4.767
63790W        W25453  15.690  34.926  13.037
63791W        W25454  17.158  24.579  13.802
63792W        W25455  31.631  24.644  12.879
63793W        W25456  34.072  17.303  14.029
63794W        W25457   0.911  16.176  13.809
63795W        W25458  28.999  44.880  11.017
63796W        W25459  24.205  18.294  11.435
63797W        W25460  32.630  36.944  12.860
63798W        W25461  43.452  28.967  11.072
63799W        W25462   7.275  13.174   1.809
63800W        W25463  15.163  32.067   1.427
63801W        W25464  14.221  24.230  11.078
63802W        W25465  17.072   6.290  12.936
63803W        W25466  17.685  40.535  10.559
63804W        W25467  20.097  28.168  12.421
63805W        W25468  31.137  13.770  11.511
63806W        W25469  20.180   0.365   1.279
63807W        W25470  11.706  11.644  13.972
63808W        W25471  13.304  38.911  11.442
63809W        W25472  29.434  44.870   4.649
63810W        W25473   8.767  38.972   2.262
63811W        W25474  11.647  15.121   2.666
63812W        W25475  33.453  43.475  12.089
63813W        W25476  43.815  12.753   5.286
63814W        W25477  40.869  12.301   4.227
63815W        W25478  31.981  22.598  14.470
63816W        W25479  18.551  16.277   1.308
63817W        W25480   3.273   2.251  10.438
63818W        W25481  37.975  28.944  11.400
63819W        W25482  42.323  39.840  10.920
63820W        W25483  38.502  38.065  11.017
63821W        W25484   5.760  35.934   0.312
63822W        W25485  35.491  34.060   1.225
63823W        W25486   4.908  24.057  14.004
63824W        W25487   1.265   1.262   4.783
63825W        W25488  11.698  23.518   1.911
63826W        W25489  11.363   2.383  11.389
63827W        W25490  21.108  33.572  13.860
63828W        W25491  23.511  33.035   4.808
63829W        W25492  10.167  42.392   4.710
63830W        W25493  39.919  40.877  12.351
63831W        W25494  25.155  10.696   0.267
63832W        W25495  12.661  40.969  10.597
63833W        W25496  24.580  34.993  11.072
63834W        W25497   8.377   2.421  10.977
63835W        W25498  24.072  39.391   2.353
63836W        W25499   8.285  32.506  12.827
63837W        W25500  24.125  35.975  11.003
63838W        W25501   1.341  15.165  11.877
63839W        W25502  41.826   3.330  10.015
63840W        W25503   2.444   3.873  14.851
63841W        W25504  20.212  38.504  14.883
63842W        W25505   2.301   3.231   0.288
63843W        W25506  15.231   6.698   1.875
63844W        W25507  12.225   7.222  12.421
63845W        W25508  21.252  13.750   3.317
63846W        W25509  31.950  38.911  10.955
63847W        W25510  36.523  26.609  10.024
63848W        W25511  42.030  38.477  12.427
63849W        W25512   0.914  29.058  12.893
63850W        W25513   6.315  15.269  13.446
63851W        W25514  16.574  22.084   4.605
63852W        W25515  27.653  27.574  11.545
63853W        W25516   0.300  34.982   1.441
63854W        W25517   8.900  25.074   0.768
63855W        W25518  24.639  30.910   3.833
63856W        W25519  39.474  19.580  13.917
63857W        W25520   5.829  10.827  11.410
63858W        W25521  27.523  20.564   4.727
63859W        W25522  13.625  40.999  14.370
63860W        W25523   7.175  20.032  11.488
63861W        W25524  18.118  25.063   4.720
63862W        W25525   1.969  19.578  12.478
63863W        W25526  13.704   5.900  13.363
63864W        W25527  34.547  13.286  11.543
63865W        W25528  44.345  37.470   1.313
63866W        W25529  16.666  18.081  13.354
63867W        W25530  12.311  19.080  11.901
63868W        W25531   1.317  18.783  11.505
63869W        W25532  11.685  16.128   0.434
63870W        W25533  16.692  34.997  14.385
63871W        W25534   5.413  21.230   3.732
63872W        W25535  29.176  30.922  13.449
63873W        W25536  14.676   4.901  11.593
63874W        W25537  21.033  39.041   3.675
63875W        W25538  17.657  33.462  13.960
63876W        W25539  31.141  24.180  12.534
63877W        W25540  36.033  20.664   4.813
63878W        W25541   6.825  42.023  13.423
63879W        W25542  13.328  32.899   0.898
63880W        W25543  16.071   1.437  14.849
63881W        W25544  10.769  19.039   2.267
63882W        W25545   5.296  37.489  10.935
63883W        W25546   2.803   2.858  11.951
63884W        W25547  42.515  13.237   2.240
63885W        W25548   7.675  44.779   4.716
63886W        W25549  17.260  28.679   3.328
63887W        W25550   2.862   3.889   1.334
63888W        W25551  25.206  43.839   0.814
63889W        W25552  37.404  23.175   0.797
63890W        W25553  40.990  23.729   1.826
63891W        W25554  13.761  27.064  14.865
63892W        W25555  27.162   8.753   1.430
63893W        W25556  28.958  36.093   2.196
63894W        W25557  15.679  42.817   0.414
63895W        W25558  27.996  37.957  13.906
63896W        W25559  24.141  36.047   1.796
63897W        W25560  15.106   2.412  11.584
63898W        W25561  36.008  36.506   3.682
63899W        W25562  22.209  21.532  13.368
63900W        W25563  31.524  15.102  14.315
63901W        W25564  10.764  29.621   2.394
63902W        W25565  44.922  36.517   2.255
63903W        W25566  14.317  44.848  11.457
63904W        W25567  39.402   4.220   4.703
63905W        W25568  35.455  39.558  10.472
63906W        W25569  10.379  40.848   0.333
63907W        W25570   0.369  29.932  14.362
63908W        W25571  10.313  25.037   5.250
63909W        W25572  11.714  42.522  11.097
63910W        W25573  37.061  24.088   2.271
63911W        W25574   1.273  23.202   2.699
63912W        W25575   1.462   5.785  14.847
63913W        W25576  31.948  35.425   4.229
63914W        W25577   9.250  29.570   3.358
63915W        W25578  20.063   6.307   0.254
63916W        W25579  35.952  10.722  12.828
63917W        W25580  30.474   9.157   4.722
63918W        W25581  19.046   8.682  14.997
63919W        W25582  32.015  17.290  12.455
63920W        W25583  31.097  23.171  13.905
63921W        W25584  26.157  26.573   3.359
63922W        W25585  24.676  32.899  11.059
63923W        W25586  23.642  35.406   2.775
63924W        W25587  32.033  42.983  14.934
63925W        W25588  25.530  11.800  14.343
63926W        W25589   5.810   0.813  11.586
63927W        W25590  19.669   5.386   0.749
63928W        W25591  30.530  28.089  14.438
63929W        W25592  37.998  14.161  13.323
63930W        W25593   0.828  11.622  14.924
63931W        W25594  22.552  12.327  13.838
63932W        W25595  13.815  20.614   0.873
63933W        W25596  12.768  20.567  14.347
63934W        W25597  17.779  35.990   4.259
63935W        W25598  18.059  35.403  11.117
63936W        W25599  37.422   0.867  11.466
63937W        W25600  20.208  25.012   0.399
63938W        W25601  13.308  18.654   4.646
63939W        W25602  27.087  19.718   1.447
63940W        W25603  38.923  23.638   2.365
63941W        W25604  16.767   1.970  11.599
63942W        W25605  20.247   1.258   4.291
63943W        W25606   4.298  31.421   3.724
63944W        W25607  30.086   2.427  13.982
63945W        W25608  30.026  16.258  13.330
63946W        W25609  37.566   1.474   0.402
63947W        W25610  22.639  42.018   0.462
63948W        W25611  27.587  11.736  11.095
63949W        W25612  14.220   7.387   2.253
63950W        W25613  39.344  32.431  14.503
63951W        W25614  27.105  20.072  13.519
63952W        W25615  18.789  22.669  10.545
63953W        W25616  22.150   3.270   1.239
63954W        W25617  39.544  17.710   2.877
63955W        W25618  11.748  42.412   3.363
63956W        W25619  43.794   1.938  11.971
63957W        W25620   3.401   3.278   1.736
63958W        W25621   6.232  25.509   4.803
63959W        W25622  14.190   6.241  14.387
63960W        W25623  22.201  29.556  13.507
63961W        W25624   2.833  13.291   0.951
63962W        W25625  25.680  42.501   1.793
63963W        W25626  32.942   0.772   1.228
63964W        W25627  37.978  36.367  13.002
63965W        W25628  33.399  10.685  13.989
63966W        W25629  26.660  25.156   1.276
63967W        W25630  10.267  40.898   2.735
63968W        W25631  15.208  20.053  10.509
63969W        W25632  16.188  36.511   0.926
63970W        W25633  25.182   5.811  14.014
63971W        W25634  27.005  19.636   2.414
63972W        W25635  44.486   7.361   3.652
63973W        W25636  30.036  31.061  14.275
63974W        W25637  29.988   2.309   1.349
63975W        W25638  14.616  35.983  14.425
63976W        W25639   2.395  17.678  10.466
63977W        W25640  22.658  11.762  12.092
63978W        W25641  42.818  43.931   4.332
63979W        W25642  38.945  39.389  13.412
63980W        W25643   9.159  17.574   4.348
63981W        W25644  15.760  39.329   2.750
63982W        W25645  39.935   9.834   3.332
63983W        W25646  34.938  16.270  12.874
63984W        W25647  25.571  44.841  13.462
63985W        W25648  35.008   3.420   0.738
63986W        W25649  36.359  33.569  12.472
63987W        W25650   1.357  25.215   3.181
63988W        W25651  34.998   8.309  10.559
63989W        W25652  10.145  21.613  13.500
63990W        W25653  34.108   4.339  11.075
63991W        W25654  40.982  11.696  12.860
63992W        W25655  14.136  35.099  13.468
63993W        W25656  22.646  33.906   3.736
63994W        W25657   5.426  16.715  10.547
63995W        W25658  15.198  17.274  12.536
63996W        W25659   4.394  40.976  10.955
63997W        W25660  19.086  24.573  12.077
63998W        W25661   2.914  31.142   3.368
63999W        W25662  31.575  15.202  13.919
64000W        W25663  25.012   5.745  14.877
64001W        W25664  41.926  10.238   3.226
64002W        W25665  31.006   1.875   0.381
64003W        W25666  36.379  41.021   1.420
64004W        W25667   5.789   9.210  12.493
64005W        W25668   2.408  35.449  14.283
64006W        W25669  42.458  26.113  12.460
64007W        W25670  16.691  24.135  12.517
64008W        W25671   8.326  17.700  10.500
64009W        W25672  24.520  34.424   3.681
64010W        W25673  29.936  31.449  14.383
64011W        W25674  37.335  43.383   3.805
64012W        W25675  16.271  34.952  14.389
64013W        W25676  11.623  29.097  13.516
64014W        W25677  42.819   5.249   2.801
64015W        W25678  43.913  20.532  13.003
64016W        W25679  26.575  34.955   0.394
64017W        W25680  19.062  20.755   4.821
64018W        W25681  10.376  44.411   3.347
64019W        W25682  38.971  27.664   3.659
64020W        W25683  36.528  25.162  11.944
64021W        W25684  29.611  40.406  13.515
64022W        W25685  32.511  31.921  11.911
64023W        W25686  23.532  14.658   1.724
64024W        W25687   5.433   5.221   4.190
64025W        W25688  19.258  35.369   2.897
64026W        W25689  19.245  14.681  13.997
64027W        W25690  18.262  37.844  10.532
64028W        W25691  10.817  17.649   4.723
64029W        W25692   0.386  35.041  13.314
64030W        W25693  41.536  13.301   2.364
64031W        W25694  17.296  42.449  11.088
64032W        W25695  34.483  36.495   0.307
64033W        W25696  28.055  17.208  10.934
64034W        W25697  11.851  26.532   4.260
64035W        W25698  28.490   1.416   2.862
64036W        W25699  22.663  40.458  12.412
64037W        W25700  24.540  28.470   0.738
64038W        W25701   2.857  11.234  10.419
64039W        W25702  13.809  14.282  13.370
64040W        W25703  10.689  43.776  10.450
64041W        W25704  23.144   0.328   4.140
64042W        W25705  13.261  14.339   0.903
64043W        W25706  23.592  21.104  12.393
64044W        W25707  38.851  41.460   5.316
64045W        W25708  32.484  26.504   1.335
64046W        W25709   5.819  26.206   3.689
64047W        W25710  11.238   9.841   3.648
64048W        W25711  18.784  42.780   2.708
64049W        W25712   5.904  22.167   4.772
64050W        W25713  40.850  14.614  11.478
64051W        W25714   6.347  20.647  13.054
64052W        W25715  12.237   9.265  13.481
64053W        W25716   3.878   3.438   1.811
64054W        W25717  18.716  33.399   1.777
64055W        W25718   4.795   9.282   3.807
64056W        W25719  40.927  20.273   1.344
64057W        W25720  17.755  43.281  11.441
64058W        W25721  24.174  28.994   2.326
64059W        W25722  16.607  28.626  11.087
64060W        W25723  37.038  25.632   2.231
64061W        W25724   6.689  15.632   2.263
64062W        W25725  43.007  44.906  11.603
64063W        W25726   2.324  15.288   0.728
64064W        W25727  14.772  42.384   1.441
64065W        W25728  44.429  14.104   0.817
64066W        W25729  18.128  31.044   3.302
64067W        W25730   1.775  24.193  11.612
64068W        W25731  23.163  36.878  12.045
64069W        W25732   8.778  15.648   1.791
64070W        W25733  40.961   5.833   4.601
64071W        W25734  44.984   7.908  13.894
64072W        W25735  11.630   3.218  12.522
64073W        W25736  35.079  20.644   1.296
64074W        W25737  24.505  12.219  12.383
64075W        W25738  19.047  30.960   1.849
64076W        W25739  16.138   3.917  11.491
64077W        W25740  10.172   5.696   1.831
64078W        W25741   1.324  13.277  10.900
64079W        W25742  37.047  42.472  14.394
64080W        W25743  20.140  40.453  10.440
64081W        W25744  13.320  22.573  12.989
64082W        W25745   9.320  13.813   4.718
64083W        W25746  26.006  10.665  13.022
64084W        W25747   7.674   0.486   0.871
64085W        W25748  40.404  41.376  11.974
64086W        W25749   2.272  14.658   4.119
64087W        W25750   5.284   5.331  11.460
64088W        W25751  20.668  41.891   4.206
64089W        W25752  41.906  16.144   1.786
64090W        W25753  30.106  30.600  14.279
64091W        W25754  21.656  18.247  14.875
64092W        W25755   0.895  30.040   3.166
64093W        W25756  38.330   9.386  14.804
64094W        W25757  39.996   5.779  13.989
64095W        W25758  14.140  42.971  11.972
64096W        W25759  40.025  24.107   4.284
64097W        W25760  41.912  14.196  12.029
64098W        W25761  19.232  16.612   2.850
64099W        W25762   0.858  26.157   4.744
64100W        W25763  19.182   7.264  12.497
64101W        W25764  26.993  17.093  14.883
64102W        W25765  24.525  26.184   4.185
64103W        W25766  14.213  25.529  12.063
64104W        W25767  44.385  11.792  13.809
64105W        W25768  13.829  24.170   1.803
64106W        W25769   2.336  29.096   2.197
64107W        W25770  30.967  25.671   2.698
64108W        W25771  26.591   6.212   1.799
64109W        W25772  17.700  14.712   3.254
64110W        W25773  19.216   1.848  10.415
64111W        W25774   9.321  30.495   1.894
64112W        W25775   9.797  15.321   1.272
64113W        W25776   0.862  26.472   0.376
64114W        W25777  12.336  32.086  11.446
64115W        W25778  40.994  14.607  14.345
64116W        W25779  31.106  22.517   4.737
64117W        W25780  31.584  17.621   2.262
64118W        W25781  16.625  28.642   0.312
64119W        W25782  44.873  17.726  14.780
64120W        W25783  30.503  27.678  12.463
64121W        W25784  41.911   5.335  14.447
64122W        W25785  19.205   6.681  10.888
64123W        W25786  14.143  26.201   0.903
64124W        W25787  27.483   1.899   1.727
64125W        W25788  19.224   4.877  14.305
64126W        W25789  22.047   6.827   3.828
64127W        W25790  44.904  44.996  12.073
64128W        W25791  40.535  27.633  13.424
64129W        W25792  13.126  24.711  11.041
64130W        W25793  22.023   2.432   1.392
64131W        W25794  40.369  44.449  12.096
64132W        W25795  31.462   2.368  13.380
64133W        W25796  21.224   6.288  13.499
64134W        W25797  44.458   6.907  14.358
64135W        W25798  26.979   9.300  13.352
64136W        W25799  24.190   1.354   0.924
64137W        W25800  15.647  44.902   3.189
64138W        W25801  33.444  22.130   5.207
64139W        W25802  10.813  11.373  11.391
64140W        W25803  23.681  10.866   4.259
64141W        W25804  18.118  24.700   2.663
64142W        W25805  16.691  25.478  14.977
64143W        W25806  33.936  13.608  12.847
64144W        W25807  27.501   7.311   0.922
64145W        W25808  20.160  32.504   0.318
64146W        W25809  44.873  38.395  10.893
64147W        W25810  12.330  22.557  10.952
64148W        W25811   1.816   4.856   1.892
64149W        W25812  14.103  34.564  11.067
64150W        W25813   7.295  14.181  10.464
64151W        W25814  11.289  36.410  11.572
64152W        W25815   1.290  20.687   3.846
64153W        W25816   0.305  32.451  12.913
64154W        W25817  10.270  34.572  13.411
64155W        W25818  30.537  34.386   3.242
64156W        W25819  15.651  32.052   2.236
64157W        W25820  37.505  11.228   2.269
64158W        W25821  28.483  28.086   4.353
64159W        W25822   0.778  20.607   9.928
64160W        W25823  19.185  43.277  13.974
64161W        W25824  11.208   7.223  13.473
64162W        W25825  24.109  29.132  13.827
64163W        W25826  12.156  37.474  14.028
64164W        W25827   7.783   3.351  12.869
64165W        W25828   5.780   1.941  14.930
64166W        W25829  16.132  21.079   2.763
64167W        W25830  12.351   6.913   5.092
64168W        W25831  42.820  36.560  11.987
64169W        W25832  13.305  41.371   1.388
64170W        W25833  42.937  38.378  11.045
64171W        W25834  33.447  13.836   2.707
64172W        W25835  20.679  39.000   0.410
64173W        W25836   7.386  32.452   0.402
64174W        W25837  20.178   0.421  11.397
64175W        W25838   1.927  33.414   1.423
64176W        W25839  35.492  26.156   3.214
64177W        W25840   5.731  11.153   1.282
64178W        W25841  31.981  24.686   1.772
64179W        W25842  41.384  44.947  12.470
64180W        W25843  12.206  37.519  14.482
64181W        W25844  21.080   6.333   1.301
64182W        W25845  17.639  32.899  11.949
64183W        W25846  43.887  15.800  10.947
64184W        W25847  16.182  13.759  13.857
64185W        W25848  10.246  44.337   1.434
64186W        W25849  43.302  22.684   2.878
64187W        W25850  27.583  14.230   5.300
64188W        W25851  40.970  24.146   4.719
64189W        W25852  39.868  44.420   1.384
64190W        W25853  29.589  31.466   3.326
64191W        W25854  39.902   3.845   1.376
64192W        W25855   7.672  20.219   1.921
64193W        W25856  18.279  40.043   4.141
64194W        W25857  21.030  39.405   3.244
64195W        W25858  14.658   7.754  14.436
64196W        W25859   6.817  30.008  11.432
64197W        W25860  12.173   4.211  11.897
64198W        W25861  15.269  26.090  14.986
64199W        W25862  40.052   2.793  12.087
64200W        W25863  41.848  22.656  12.415
64201W        W25864  21.213  22.508   4.175
64202W        W25865  41.478  15.730  11.438
64203W        W25866  25.146   9.158   4.831
64204W        W25867  35.569  30.044  10.954
64205W        W25868  42.380  26.516  12.358
64206W        W25869  39.917  15.139   3.794
64207W        W25870  31.441   2.432   0.876
64208W        W25871  16.658  18.168   1.432
64209W        W25872  10.869  22.726   1.315
64210W        W25873  31.939  26.629  11.007
64211W        W25874  30.432  25.079   0.470
64212W        W25875  20.238  23.731   4.783
64213W        W25876  38.380  36.591   3.333
64214W        W25877  20.654  21.597  10.927
64215W        W25878  20.110  40.520   2.415
64216W        W25879   2.846  43.460   3.178
64217W        W25880  18.193   2.450   1.336
64218W        W25881  19.279  28.150  11.958
64219W        W25882   1.238   3.253   2.180
64220W        W25883  17.761  43.333   3.854
64221W        W25884   4.359  24.138   1.851
64222W        W25885   3.797  35.489  10.502
64223W        W25886  12.630  14.752   1.393
64224W        W25887  25.020  14.640  13.426
64225W        W25888  31.972  34.442  11.600
64226W        W25889   6.894   4.721  10.955
64227W        W25890  15.132  37.449   0.364
64228W        W25891  23.584  13.140   1.229
64229W        W25892  43.418  17.794  14.846
64230W        W25893  11.775  30.060   1.245
64231W        W25894  29.542  37.492  10.534
64232W        W25895  32.436  10.275  12.870
64233W        W25896  20.696  34.886   3.167
64234W        W25897  16.656  18.279   4.191
64235W        W25898   5.850  29.060   1.700
64236W        W25899  41.509  18.159  12.444
64237W        W25900  40.029  27.040   4.298
64238W        W25901  38.484  28.118   0.317
64239W        W25902  12.629  35.564  12.429
64240W        W25903   7.750  14.296   2.736
64241W        W25904  13.711  35.009  14.761
64242W        W25905  39.005   9.665  13.964
64243W        W25906  35.477  15.699  14.951
64244W        W25907  18.275  38.441   4.315
64245W        W25908  44.005  21.757   0.751
64246W        W25909   7.848   8.851  12.435
64247W        W25910  17.118  37.958   2.395
64248W        W25911  22.999   2.874   1.863
64249W        W25912  34.981   2.845  14.845
64250W        W25913  24.103  12.851   1.445
64251W        W25914   3.805   0.981   0.911
64252W        W25915   7.834  34.006  11.374
64253W        W25916  10.762  42.823  14.958
64254W        W25917  35.963  27.598  14.314
64255W        W25918  10.753   4.229   4.223
64256W        W25919   6.294   0.280   2.791
64257W        W25920  22.675  16.115  14.369
64258W        W25921  13.204  12.639   0.867
64259W        W25922  42.032   4.836  10.932
64260W        W25923  41.948  20.198   2.218
64261W        W25924  32.937   6.322   4.320
64262W        W25925  20.250   0.883   4.266
64263W        W25926  36.943  30.521  11.552
64264W        W25927  19.230  14.308   2.250
64265W        W25928   9.853  15.769   2.312
64266W        W25929  18.558  35.409   4.227
64267W        W25930   7.910  25.666  10.499
64268W        W25931  10.845  26.958   1.390
64269W        W25932  21.550  40.513   0.381
64270W        W25933   0.860  43.877  14.893
64271W        W25934   1.437  26.970   3.828
64272W        W25935  24.077   6.802   2.727
64273W        W25936  37.849  20.602  11.917
64274W        W25937  17.162  35.948  14.796
64275W        W25938  37.922  33.101  13.478
64276W        W25939  27.111  32.081  14.464
64277W        W25940  22.084  28.652   4.349
64278W        W25941  28.947  14.677   2.381
64279W        W25942   8.311  37.539  10.614
64280W        W25943  25.099  19.714   1.863
64281W        W25944  19.753  34.453  14.464
64282W        W25945   5.377  37.569   0.319
64283W        W25946   5.892  18.602  14.859
64284W        W25947  33.103  31.029  13.482
64285W        W25948  24.520  12.260   2.734
64286W        W25949  17.276  36.402  11.446
64287W        W25950  17.240  18.174   0.828
64288W        W25951  21.159  22.578  13.903
64289W        W25952  43.919   9.712  13.328
64290W        W25953  39.372  42.980  11.556
64291W        W25954   5.878  32.116  13.313
64292W        W25955  18.634  41.360   4.176
64293W        W25956   6.285  36.912   3.705
64294W        W25957  26.006  16.098  12.082
64295W        W25958   0.423  32.463   2.304
64296W        W25959  16.168  13.845   4.803
64297W        W25960   7.756  20.220  14.830
64298W        W25961  42.786  29.967   0.793
64299W        W25962   1.806  21.028  12.558
64300W        W25963   3.864  24.151  11.979
64301W        W25964   6.424   1.786   3.222
64302W        W25965  37.544  14.320   3.655
64303W        W25966  17.065   2.403  10.488
64304W        W25967   4.755  23.010  13.395
64305W        W25968  12.190  41.996   0.769
64306W        W25969  12.764  18.619  14.922
64307W        W25970  20.569   2.343   3.843
64308W        W25971   7.360  26.587   0.733
64309W        W25972  20.192   8.722  12.360
64310W        W25973  13.158  39.849   2.268
64311W        W25974  32.093   4.226   4.133
64312W        W25975   6.845   5.210  14.911
64313W        W25976  11.317  42.514   1.392
64314W        W25977   8.265   8.852  13.456
64315W        W25978   1.874  25.539  10.573
64316W        W25979  26.025  18.651   4.330
64317W        W25980   0.393  15.192  11.984
64318W        W25981  12.797  29.520   3.762
64319W        W25982  42.310  39.399   2.890
64320W        W25983  37.470  32.396  11.526
64321W        W25984  23.573   0.391  10.642
64322W        W25985  28.621  12.770  14.388
64323W        W25986  36.063  27.956   4.696
64324W        W25987  28.995  26.689  13.513
64325W        W25988   0.452  39.346  14.992
64326W        W25989  35.360  39.856  11.399
64327W        W25990  40.525  20.165   3.353
64328W        W25991  31.631  27.129  10.609
64329W        W25992  34.050   0.816  11.938
64330W        W25993  25.188  21.043   2.759
64331W        W25994  22.099  39.502   2.416
64332W        W25995  19.081  12.638  12.046
64333W        W25996  16.219  35.997   1.910
64334W        W25997  20.650  17.162   3.343
64335W        W25998  43.815  25.635   2.666
64336W        W25999  32.444  30.112  12.077
64337W        W26000  40.831  44.398  13.910
64338W        W26001  35.958  37.914   2.754
64339W        W26002  36.974   2.737  13.522
64340W        W26003   2.731   2.441   4.316
64341W        W26004  40.338  17.174   1.410
64342W        W26005  14.095  42.515   0.301
64343W        W26006  38.354  39.377   0.274
64344W        W26007  31.547  41.306  14.793
64345W        W26008   3.895  20.103   1.884
64346W        W26009  31.046  28.968  14.934
64347W        W26010   8.737  42.862  13.974
64348W        W26011   8.806  35.002   4.284
64349W        W26012   2.888  41.789  12.891
64350W        W26013   6.782   6.822   0.311
64351W        W26014  19.644  32.986   3.690
64352W        W26015  22.743  21.666  14.992
64353W        W26016  16.626   3.725   1.322
64354W        W26017  25.049   4.345   2.251
64355W        W26018   6.910  19.654  10.993
64356W        W26019  37.078   7.330  13.516
64357W        W26020   6.837  25.028   2.699
64358W        W26021  42.417   9.662  14.999
64359W        W26022  42.935  29.044   2.191
64360W        W26023  19.772  26.188  14.356
64361W        W26024  19.646   3.847   2.377
64362W        W26025  44.909  11.210  11.592
64363W        W26026  41.914  28.651  13.949
64364W        W26027  21.198   3.285   0.331
64365W        W26028  24.486  20.702  11.000
64366W        W26029   4.754  37.885   2.781
64367W        W26030   6.261   9.710   1.808
64368W        W26031  37.908  17.234  12.573
64369W        W26032  39.867   7.848   0.742
64370W        W26033  28.102  32.635  13.390
64371W        W26034  34.967  11.736  10.547
64372W        W26035  28.941  29.506   3.223
64373W        W26036  33.105  32.022  12.838
64374W        W26037  14.293  28.579  11.458
64375W        W26038  41.947  39.019   3.230
64376W        W26039  41.806  12.219  11.071
64377W        W26040   9.700  21.220  10.146
64378W        W26041  14.252  40.304   2.249
64379W        W26042  26.208  43.274  11.546
64380W        W26043  15.222  29.533  13.431
64381W        W26044   5.777  26.045   2.860
64382W        W26045  32.429  21.649  12.990
64383W        W26046  43.006  35.994  10.415
64384W        W26047  24.198  32.482   3.818
64385W        W26048  37.946  44.775   1.837
64386W        W26049  15.279   7.329   0.482
64387W        W26050  31.947  15.783   5.215
64388W        W26051   7.256  31.030   0.819
64389W        W26052  13.680  44.302  11.604
64390W        W26053  37.478  27.493  11.921
64391W        W26054  29.030  26.149  13.061
64392W        W26055  26.607  44.309  10.014
64393W        W26056  21.757  10.295   0.798
64394W        W26057   5.733  37.431   0.362
64395W        W26058  21.106  25.185   1.704
64396W        W26059  10.285  10.161  12.557
64397W        W26060  25.511  23.041  12.961
64398W        W26061  33.951  42.853  14.961
64399W        W26062  21.601  25.699  13.037
64400W        W26063  44.824   8.193   3.220
64401W        W26064  38.545   6.287   3.380
64402W        W26065  41.323  25.602   5.234
64403W        W26066  41.042  12.784  12.340
64404W        W26067  36.367  23.729  12.070
64405W        W26068   2.889   3.360   3.161
64406W        W26069  36.902  13.608  13.917
64407W        W26070  38.019  30.589   5.200
64408W        W26071  28.955  28.541   4.746
64409W        W26072  31.991  18.273  11.107
64410W        W26073   7.360  28.095  14.783
64411W        W26074  31.509  13.301   2.732
64412W        W26075  17.630  26.167   3.151
64413W        W26076   5.427   8.716  14.937
64414W        W26077  14.174  32.474   3.752
64415W        W26078  33.468  16.288  11.000
64416W        W26079  17.130   6.333   2.775
64417W        W26080   2.874  39.929   3.279
64418W        W26081  12.139  37.840   1.375
64419W        W26082   0.965   1.791  10.549
64420W        W26083  30.624  23.056  11.001
64421W        W26084  19.047  24.164  11.562
64422W        W26085   0.877   7.690   3.662
64423W        W26086  24.535  13.279   3.315
64424W        W26087  23.702  35.949   3.250
64425W        W26088  31.120  27.590   2.192
64426W        W26089  36.566  24.007  14.947
64427W        W26090  17.790   5.868  13.465
64428W        W26091  28.936  17.178   2.810
64429W        W26092  15.771   8.744   0.877
64430W        W26093  32.437  31.474  13.428
64431W        W26094  40.321   7.207  10.009
64432W        W26095  13.806  37.076  14.354
64433W        W26096  11.141  19.647  12.409
64434W        W26097  36.877  36.382  14.815
64435W        W26098  29.528  25.130  13.794
64436W        W26099  36.356  25.119  13.363
64437W        W26100  12.847  42.332   0.836
64438W        W26101   6.273  14.272  11.095
64439W        W26102  33.581   8.198   3.784
64440W        W26103  29.015   3.318  13.333
64441W        W26104  31.008  13.245  11.002
64442W        W26105   7.243   2.927   4.600
64443W        W26106  24.022   6.868  10.565
64444W        W26107   2.800  13.203  13.334
64445W        W26108  22.212  28.668   3.780
64446W        W26109   2.823   4.425   3.248
64447W        W26110  24.974  39.325   0.798
64448W        W26111  16.727  35.038   3.755
64449W        W26112  35.000  18.060   2.738
64450W        W26113  24.695  24.190   2.227
64451W        W26114  34.984   8.804  12.893
64452W        W26115  28.157  19.280   1.731
64453W        W26116  19.688  16.222   1.341
64454W        W26117  30.066  17.677   2.791
64455W        W26118  17.696  13.190  11.543
64456W        W26119   5.323   3.932  12.011
64457W        W26120  27.688  37.571   4.668
64458W        W26121   9.646  27.989  14.349
64459W        W26122   2.428  20.173   0.297
64460W        W26123  37.046  34.099   0.242
64461W        W26124   5.227  43.014  12.890
64462W        W26125   9.390   3.338   3.308
64463W        W26126   3.760   4.725   3.214
64464W        W26127  33.123  41.854   3.667
64465W        W26128  37.550  18.652   4.136
64466W        W26129   5.438  31.536  14.461
64467W        W26130  44.417   7.841   1.914
64468W        W26131  39.993  26.100  14.287
64469W        W26132  21.599  16.655  12.831
64470W        W26133  23.714  42.295   3.731
64471W        W26134  21.257   0.758   3.630
64472W        W26135  36.888  22.188  12.494
64473W        W26136  17.070   1.859   2.332
64474W        W26137  23.013  33.964  13.368
64475W        W26138   4.939  41.341  14.391
64476W        W26139  43.293  37.950   0.777
64477W        W26140  20.623  39.442   3.328
64478W        W26141  15.120   8.172  12.498
64479W        W26142  39.419  28.996   2.312
64480W        W26143   7.352   4.711   4.761
64481W        W26144  33.880   9.283  11.467
64482W        W26145  37.439  41.487   2.751
64483W        W26146  30.419  33.588  11.883
64484W        W26147  17.779  39.365   1.270
64485W        W26148  25.052   5.274   0.892
64486W        W26149  34.438  15.613   9.934
64487W        W26150  17.695  16.718   3.384
64488W        W26151  21.083   0.959  13.535
64489W        W26152  13.345  36.495  12.926
64490W        W26153  36.875  37.873   1.328
64491W        W26154  38.891   2.253  13.035
64492W        W26155  26.958   4.728   4.135
64493W        W26156  32.421   4.913   4.136
64494W        W26157  44.776   0.370   1.774
64495W        W26158  14.115  40.928   1.256
64496W        W26159  40.958  12.177  13.891
64497W        W26160  16.188   2.791   1.329
64498W        W26161  44.000  22.624   0.739
64499W        W26162  35.404  18.116   0.291
64500W        W26163  16.576  21.109  13.544
64501W        W26164  24.072  28.004  14.484
64502W        W26165   6.333  32.890   3.243
64503W        W26166  43.876   8.745  13.999
64504W        W26167   6.237  44.009  13.848
64505W        W26168  41.877  37.029  13.980
64506W        W26169  16.132   1.921  11.016
64507W        W26170  28.523  24.027  10.985
64508W        W26171  34.595  25.499   2.322
64509W        W26172  44.330  25.602  14.332
64510W        W26173  34.965  32.000  12.940
64511W        W26174  28.462  43.425  13.024
64512W        W26175  20.676   7.207  12.549
64513W        W26176  18.270  21.541  14.398
64514W        W26177  20.746  25.016  11.584
64515W        W26178   0.889   5.860   4.644
64516W        W26179   3.825  35.917   1.310
64517W        W26180  24.633  20.681   0.953
64518W        W26181  12.691  13.302   3.802
64519W        W26182   6.237   1.357  11.975
64520W        W26183  35.402  21.516  14.780
64521W        W26184  43.473  15.821   1.845
64522W        W26185   2.745  17.128   3.266
64523W        W26186   4.318  44.882  10.551
64524W        W26187  24.500   5.779  14.375
64525W        W26188  43.403   1.884  14.810
64526W        W26189  30.632  20.231  10.972
64527W        W26190   1.916  21.075  11.968
64528W        W26191  40.958   0.356  12.411
64529W        W26192   9.244   4.433   3.272
64530W        W26193  24.191  28.943  11.124
64531W        W26194  15.637  23.620  12.921
64532W        W26195  44.762   7.672  14.362
64533W        W26196  37.371  12.713  11.120
64534W        W26197  23.619  20.029   0.823
64535W        W26198  17.664  34.399  14.799
64536W        W26199  12.341  15.237   4.318
64537W        W26200   8.840  25.675  14.352
64538W        W26201  14.301  35.555   0.938
64539W        W26202   0.837  29.541   0.432
64540W        W26203  26.093   8.299   1.218
64541W        W26204  27.677  24.973   0.921
64542W        W26205   9.829  14.264   1.718
64543W        W26206  39.419  18.590  13.309
64544W        W26207   4.391  26.603   4.148
64545W        W26208  19.745  26.207   3.313
64546W        W26209   7.730  41.406  13.386
64547W        W26210  20.587  12.664   2.326
64548W        W26211   5.773   1.246  12.987
64549W        W26212  37.516  16.230   1.794
64550W        W26213  26.529  24.192   4.340
64551W        W26214   8.368   2.742   3.644
64552W        W26215  19.718  44.922   3.207
64553W        W26216  41.413  40.901  12.408
64554W        W26217  16.730  37.394  12.469
64555W        W26218  30.938  25.707   1.872
64556W        W26219   1.463  16.071  10.443
64557W        W26220  37.466  40.846   4.806
64558W        W26221  41.510  14.327   2.841
64559W        W26222  16.300   3.765   1.228
64560W        W26223  16.127  42.941   4.630
64561W        W26224  44.449  15.250   2.869
64562W        W26225  16.732  17.153   1.708
64563W        W26226  18.588  34.059   0.885
64564W        W26227  24.178  21.542  12.536
64565W        W26228  39.957  33.966  11.076
64566W        W26229  17.694  19.777  12.063
64567W        W26230   0.271  10.298   2.883
64568W        W26231  10.646  29.490  14.795
64569W        W26232  43.390  28.470  14.376
64570W        W26233  14.627  36.029   4.347
64571W        W26234  14.275  13.232  10.911
64572W        W26235  35.453   8.867   4.678
64573W        W26236  40.847  24.658  14.308
64574W        W26237  11.235  12.656  13.019
64575W        W26238  42.388  20.648   2.703
64576W        W26239  44.457  32.443   1.242
64577W        W26240  34.495  17.101  13.470
64578W        W26241  43.913  11.281   2.865
64579W        W26242  44.789  11.637  13.063
64580W        W26243  35.525   2.239   4.692
64581W        W26244  16.744  44.763  13.056
64582W        W26245  19.589  20.217   1.732
64583W        W26246  29.556  28.549  12.001
64584W        W26247  37.008  20.735  13.949
64585W        W26248   6.706  44.347  10.615
64586W        W26249  21.660   0.754   3.715
64587W        W26250   8.207  13.208  12.406
64588W        W26251   3.428  44.878  12.015
64589W        W26252  42.292   0.455  11.984
64590W        W26253  31.427  29.502  14.382
64591W        W26254   4.859  17.106   4.639
64592W        W26255  35.984  19.093  11.995
64593W        W26256  16.618  35.968   4.135
64594W        W26257  42.366   4.435   0.834
64595W        W26258  26.999  22.066  10.934
64596W        W26259  41.450  33.949   1.375
64597W        W26260  23.022  25.491  11.392
64598W        W26261  30.046  43.311   2.282
64599W        W26262  17.252  32.924   2.742
64600W        W26263  34.509  40.539   2.714
64601W        W26264  26.035  21.099  14.982
64602W        W26265  20.729   1.970   3.167
64603W        W26266  34.589  43.279  13.544
64604W        W26267  16.153  30.154   4.297
64605W        W26268  18.753  15.247  14.433
64606W        W26269  28.672  11.301  10.443
64607W        W26270  23.089  19.090  14.470
64608W        W26271  34.886  22.680  10.565
64609W        W26272   5.736  36.530  10.953
64610W        W26273   5.215  43.314   0.796
64611W        W26274  26.033  20.130   3.745
64612W        W26275  37.388  42.958   1.402
64613W        W26276  39.029  10.684  12.557
64614W        W26277  39.934  18.221   3.322
64615W        W26278  13.255  24.082   2.319
64616W        W26279   0.366   3.219   3.212
64617W        W26280  10.169  10.198  10.944
64618W        W26281   2.313  31.545   0.817
64619W        W26282  27.549  22.747   1.345
64620W        W26283  35.983  10.837   4.196
64621W        W26284   3.722  33.967   0.862
64622W        W26285  37.512   6.347   9.944
64623W        W26286  33.547  36.013   4.633
64624W        W26287  15.176  11.286   0.273
64625W        W26288  35.453  31.986   3.365
64626W        W26289  42.010  15.680  12.044
64627W        W26290   0.447  13.330  10.502
64628W        W26291  44.407  12.325   2.210
64629W        W26292   7.895  18.699  13.892
64630W        W26293  37.868  15.138  10.974
64631W        W26294   6.726  44.856   2.684
64632W        W26295  42.285   9.173  12.966
64633W        W26296  19.162  15.741  14.961
64634W        W26297   0.883  29.445  10.471
64635W        W26298  16.295  32.889  13.887
64636W        W26299  14.238  16.667  12.438
64637W        W26300  44.008  37.920   4.818
64638W        W26301  41.991   9.388  14.354
64639W        W26302  30.062  21.142   2.677
64640W        W26303   7.902  27.082  13.517
64641W        W26304  16.793  30.527   1.406
64642W        W26305   9.154  40.970   0.899
64643W        W26306  41.875  17.683  12.085
64644W        W26307  11.233   8.688   0.963
64645W        W26308  25.569  11.321  13.437
64646W        W26309  17.722  26.682  10.456
64647W        W26310  33.895  14.802   3.198
64648W        W26311  44.306   5.808  12.035
64649W        W26312  12.647   4.355  14.985
64650W        W26313  39.419  34.946  14.336
64651W        W26314   3.217  44.897  14.327
64652W        W26315   0.925  14.265   1.339
64653W        W26316  36.905   4.708   2.399
64654W        W26317   8.767  15.784  11.013
64655W        W26318  17.261  21.659   9.945
64656W        W26319  27.568  14.720  13.840
64657W        W26320  26.555   7.814  11.098
64658W        W26321  15.595  34.987  14.927
64659W        W26322  37.345  30.447   1.850
64660W        W26323   1.325   1.359  12.554
64661W        W26324  37.046  43.963   3.319
64662W        W26325  37.518   9.378   3.841
64663W        W26326  23.073   0.384  14.319
64664W        W26327  16.220  11.176  14.359
64665W        W26328  28.124  34.395   1.306
64666W        W26329  29.081  12.304   4.190
64667W        W26330   9.797   0.767   0.427
64668W        W26331  31.897  19.573   0.302
64669W        W26332  11.143  21.600   1.371
64670W        W26333  37.498  16.654   2.844
64671W        W26334   1.949  10.640   0.899
64672W        W26335  37.033  19.692   4.221
64673W        W26336   3.759  41.803  14.837
64674W        W26337  10.183  10.221   3.657
64675W        W26338   8.707  23.005  12.392
64676W        W26339   2.910  14.706   4.294
64677W        W26340  30.567  31.072  11.598
64678W        W26341  18.152  23.118   4.215
64679W        W26342  10.633  28.025   4.723
64680W        W26343  14.637  36.986  10.543
64681W        W26344  35.578  25.543  11.071
64682W        W26345  35.530  44.482  10.973
64683W        W26346   5.196   2.887   4.209
64684W        W26347  29.923  44.907  11.588
64685W        W26348  36.386  13.251  13.321
64686W        W26349  18.077  12.233  12.520
64687W        W26350  44.307  29.626   2.293
64688W        W26351  13.810  14.671   0.379
64689W        W26352  36.498  10.324   0.374
64690W        W26353  37.377  26.020  12.033
64691W        W26354  38.910  19.139  12.917
64692W        W26355  26.208   4.328  13.909
64693W        W26356  14.285  14.733   2.784
64694W        W26357   7.877  42.793   4.176
64695W        W26358  28.583  21.652   2.715
64696W        W26359  13.724  40.959   1.879
64697W        W26360  18.677  23.176   2.795
64698W        W26361   0.257  25.145   0.916
64699W        W26362  32.885  27.655  10.494
64700W        W26363   8.656  15.694   2.180
64701W        W26364  44.409  40.914  13.465
64702W        W26365  16.242  34.600  10.559
64703W        W26366  37.428  38.329   0.246
64704W        W26367  30.443  15.223   1.368
64705W        W26368   8.234  23.180   1.323
64706W        W26369  18.278  21.020  13.039
64707W        W26370  31.059  19.710  13.438
64708W        W26371   6.362  40.808   3.356
64709W        W26372  41.451  21.528  12.898
64710W        W26373  30.928  10.800   2.363
64711W        W26374  10.843  15.788   1.233
64712W        W26375   6.731  37.960  12.888
64713W        W26376   9.834  30.028  13.398
64714W        W26377  34.119  26.046  12.525
64715W        W26378  12.671   3.753   3.814
64716W        W26379   2.419  18.084  13.974
64717W        W26380  44.340  25.576   5.119
64718W        W26381   6.403   0.770  12.884
64719W        W26382  38.837   9.839   4.808
64720W        W26383   2.886  42.808  13.914
64721W        W26384  23.575  21.211  10.626
64722W        W26385  12.807  43.894  10.907
64723W        W26386  28.552  36.497   1.708
64724W        W26387  40.038  34.052   3.653
64725W        W26388  42.331  32.476  14.922
64726W        W26389  30.960  25.174   0.387
64727W        W26390  22.163  43.441   2.212
64728W        W26391  26.187   8.332  13.318
64729W        W26392  28.146  39.828  13.822
64730W        W26393  13.806  18.594   4.286
64731W        W26394  41.421   5.764   3.717
64732W        W26395  10.307   1.334   1.884
64733W        W26396  17.624  44.403  14.496
64734W        W26397   6.691  13.740   0.310
64735W        W26398   7.345  31.416  13.013
64736W        W26399  12.321  17.644  13.863
64737W        W26400  41.511  44.373  14.862
64738W        W26401  17.111   7.386  13.481
64739W        W26402   1.243  37.505  10.548
64740W        W26403  22.130  16.742  10.428
64741W        W26404  41.979  34.073   4.139
64742W        W26405   0.950  34.376  11.059
64743W        W26406  18.789  22.570   1.816
64744W        W26407  18.708  24.157  13.009
64745W        W26408  30.944  32.888   2.251
64746W        W26409   1.887  34.902   1.372
64747W        W26410  14.632  15.787  13.472
64748W        W26411   8.197   4.838  12.362
64749W        W26412  28.566  22.138  12.558
64750W        W26413   1.852  38.863  14.493
64751W        W26414  13.177  17.261   3.794
64752W        W26415  42.421  39.469   0.883
64753W        W26416   2.944  40.464   2.696
64754W        W26417  10.148   2.810  14.468
64755W        W26418  29.052   8.161  12.014
64756W        W26419  25.653   3.866  13.936
64757W        W26420  20.043  35.460   2.871
64758W        W26421  30.655  38.883   4.817
64759W        W26422  20.093   7.192  14.855
64760W        W26423   5.723  30.621  14.401
64761W        W26424   9.276  40.015   3.324
64762W        W26425  23.154  44.461  12.025
64763W        W26426  12.340  13.349  10.970
64764W        W26427   5.923  18.265  10.933
64765W        W26428  15.811   6.740  14.312
64766W        W26429  29.016   6.360  10.892
64767W        W26430  27.670  14.632   4.290
64768W        W26431  24.689  23.578   2.709
64769W        W26432  20.751  30.022  13.424
64770W        W26433  36.871  15.123   1.398
64771W        W26434  11.800  43.834   3.712
64772W        W26435  12.680   1.977  13.504
64773W        W26436  34.892  37.494   0.836
64774W        W26437   3.306  28.142  10.465
64775W        W26438  41.829  31.971  11.868
64776W        W26439  12.771   6.833  12.416
64777W        W26440   0.373  42.343  11.999
64778W        W26441  37.445  13.714   3.651
64779W        W26442   6.730  21.217  11.119
64780W        W26443  11.313  40.394   1.744
64781W        W26444   6.822  28.094   3.635
64782W        W26445   4.399  41.020  13.386
64783W        W26446   5.841  35.045   1.919
64784W        W26447  14.259   4.375   1.271
64785W        W26448  42.459  39.415   0.246
64786W        W26449  24.160  12.260   1.277
64787W        W26450   1.483  41.850  10.405
64788W        W26451  30.605  26.081  13.316
64789W        W26452  43.874  43.451  11.428
64790W        W26453  16.732   2.847   2.886
64791W        W26454  21.068  39.970  11.014
64792W        W26455  25.049   2.225   9.957
64793W        W26456   3.376  21.077   3.661
64794W        W26457  40.505  28.001  13.342
64795W        W26458   1.298  24.490   1.333
64796W        W26459  17.731   6.396   2.382
64797W        W26460  39.347  40.438   2.325
64798W        W26461  31.958  40.016  14.468
64799W        W26462  23.546  13.297  11.507
64800W        W26463  18.144  21.219  14.986
64801W        W26464   0.491  14.333   0.285
64802W        W26465  41.486   0.907   4.680
64803W        W26466   2.810  24.034   3.770
64804W        W26467  21.230   1.257   1.241
64805W        W26468  42.319  40.379  12.054
64806W        W26469  13.741  23.014   2.237
64807W        W26470  28.048  31.943   2.364
64808W        W26471  36.038   8.269  11.431
64809W        W26472  31.048  41.908  10.450
64810W        W26473  15.716  16.319  14.417
64811W        W26474  44.480  44.004   2.774
64812W        W26475   8.771  44.368   1.255
64813W        W26476  35.920  36.058   3.822
64814W        W26477  20.745  33.487   3.675
64815W        W26478  14.221   7.377   4.121
64816W        W26479  23.174  23.612  10.911
64817W        W26480  26.077  16.672  11.877
64818W        W26481  23.016   0.868   3.800
64819W        W26482  32.067   4.723   1.902
64820W        W26483  12.805  28.182   4.295
64821W        W26484  11.296  36.933   2.277
64822W        W26485  41.481   2.902  11.407
64823W        W26486  43.835   0.875  14.502
64824W        W26487  18.578   5.355   3.228
64825W        W26488  33.617   7.217   2.317
64826W        W26489  35.586   2.737   0.402
64827W        W26490  10.661  18.173  10.996
64828W        W26491  19.248   9.882   0.756
64829W        W26492  24.563  32.582   2.200
64830W        W26493  44.276   1.367   1.263
64831W        W26494  28.031  44.932  14.004
64832W        W26495  25.628  32.060   5.191
64833W        W26496  24.706  16.572  10.572
64834W        W26497  11.737   6.771  11.088
64835W        W26498  18.261  44.446   0.872
64836W        W26499  20.676  24.638  14.859
64837W        W26500  38.383  13.743   1.307
64838W        W26501  39.896  12.130  14.953
64839W        W26502  26.529  34.888   1.896
64840W        W26503   1.260  13.159   4.204
64841W        W26504  44.776  11.833   3.259
64842W        W26505  29.041  38.047  14.433
64843W        W26506  36.347   5.239   0.861
64844W        W26507  42.308  31.962   1.848
64845W        W26508  26.512  19.086  13.878
64846W        W26509  25.599  27.027   3.817
64847W        W26510  29.100  27.657  14.793
64848W        W26511   3.292  43.931   4.117
64849W        W26512  22.167   8.229   2.783
64850W        W26513  30.943  11.630  12.044
64851W        W26514   8.658  43.502  13.425
64852W        W26515   7.302  39.443   4.814
64853W        W26516  39.436  34.867  12.398
64854W        W26517   3.265   9.674  10.582
64855W        W26518  43.808  14.335  14.976
64856W        W26519  31.995  16.769   3.356
64857W        W26520  32.084  40.897  14.945
64858W        W26521  16.146  18.603  12.453
64859W        W26522  19.134  36.843  12.082
64860W        W26523   0.283  13.294  14.325
64861W        W26524   9.668  40.809   0.963
64862W        W26525   1.330  17.774   2.288
64863W        W26526  28.600  41.851  11.867
64864W        W26527   6.833  24.199  14.881
64865W        W26528   3.770  10.853  11.993
64866W        W26529  35.436  19.285  10.498
64867W        W26530  11.783  27.146  11.007
64868W        W26531  35.453  19.089  11.443
64869W        W26532  31.067  17.784   4.667
64870W        W26533  24.657  13.675   4.166
64871W        W26534  16.596  18.656   3.805
64872W        W26535   6.270  35.400  10.585
64873W        W26536  15.147  22.640   3.783
64874W        W26537  24.008  12.613  10.569
64875W        W26538  11.814  39.013  14.297
64876W        W26539  28.666   4.930   1.778
64877W        W26540  29.592   5.787  11.610
64878W        W26541   0.870  28.069   9.987
64879W        W26542  43.790  25.076  12.032
64880W        W26543  35.528  10.800   0.361
64881W        W26544  25.147  31.973  13.826
64882W        W26545   4.298  25.982  12.899
64883W        W26546  36.418   0.751   1.399
64884W        W26547   9.736  20.639   3.717
64885W        W26548  44.978   2.339   3.192
64886W        W26549  34.518   8.757   0.405
64887W        W26550  30.070  41.510   1.747
64888W        W26551  42.934  25.979   0.918
64889W        W26552   9.859  31.026   1.710
64890W        W26553  36.434   4.402  12.945
64891W        W26554   7.250  39.555   2.189
64892W        W26555   2.259  12.666  11.056
64893W        W26556  37.542  14.592   2.705
64894W        W26557  27.658  44.334  14.799
64895W        W26558  44.990  23.165  12.046
64896W        W26559   0.976  44.944  10.641
64897W        W26560   4.873  27.062  14.016
64898W        W26561  41.838  38.548   1.239
64899W        W26562  43.834  11.359   0.433
64900W        W26563  37.915  31.077  13.010
64901W        W26564  10.365  23.197  12.466
64902W        W26565  33.493  34.916  11.512
64903W        W26566  26.627  10.697   2.887
64904W        W26567  35.591   4.866   3.333
64905W        W26568   0.298  20.599   3.244
64906W        W26569  40.876  29.588   4.205
64907W        W26570   9.359  26.113   1.729
64908W        W26571  42.960  31.605  11.416
64909W        W26572  13.606  10.818  14.950
64910W        W26573  35.086  28.174   0.937
64911W        W26574  37.031  34.539   0.420
64912W        W26575  43.857   8.842   1.380
64913W        W26576   4.757  20.587  11.378
64914W        W26577  24.615  33.549  13.019
64915W        W26578   1.732  43.888   1.754
64916W        W26579  27.588  36.358   4.755
64917W        W26580   8.879  28.131  10.506
64918W        W26581  15.623   5.707   3.827
64919W        W26582  33.499   8.251  14.345
64920W        W26583  28.540  24.576  14.458
64921W        W26584   2.414   4.788   4.263
64922W        W26585  26.199  38.523  11.495
64923W        W26586  38.546  20.231   4.663
64924W        W26587  29.448  43.957  14.819
64925W        W26588  22.690  43.809  12.466
64926W        W26589  11.179  18.259  13.484
64927W        W26590  38.382   7.765  11.081
64928W        W26591  18.660  24.591   1.879
64929W        W26592  41.895  39.021   0.467
64930W        W26593  26.161  15.786   3.790
64931W        W26594  35.054   1.747   2.341
64932W        W26595  37.830   3.890  12.345
64933W        W26596   8.297  12.839  11.060
64934W        W26597  31.607   4.899  10.997
64935W        W26598  26.498  38.507   3.722
64936W        W26599  32.985  27.556  14.012
64937W        W26600  12.282  27.133  12.410
64938W        W26601   5.862  25.014  12.437
64939W        W26602  31.633  37.009  11.118
64940W        W26603   4.876  42.784   4.238
64941W        W26604  33.126  35.519   1.808
64942W        W26605  29.078  39.429  11.093
64943W        W26606   8.682  44.459   5.317
64944W        W26607  27.062  30.633  11.085
64945W        W26608  19.764   0.885   2.688
64946W        W26609   1.864  18.628  12.433
64947W        W26610  21.251  23.192  14.855
64948W        W26611  37.872  36.421   1.894
64949W        W26612  19.668  15.135  14.300
64950W        W26613  42.462   4.339  10.580
64951W        W26614  32.561  15.185  12.074
64952W        W26615   8.817  34.400   4.772
64953W        W26616  28.047  12.280  14.016
64954W        W26617  31.410   8.849   1.744
64955W        W26618  32.405  35.079  10.427
64956W        W26619  31.050  33.615  10.502
64957W        W26620  11.342  21.643  12.469
64958W        W26621  39.391  40.398  14.402
64959W        W26622  31.511  32.087  13.508
64960W        W26623   1.416  13.619   0.406
64961W        W26624  37.843  39.480   2.210
64962W        W26625  10.678  18.055   0.283
64963W        W26626   8.723  11.227  10.545
64964W        W26627  31.596  35.498   3.157
64965W        W26628  18.571  17.662   5.310
64966W        W26629   3.216  18.065  14.368
64967W        W26630  30.642  34.004  14.766
64968W        W26631   4.704  40.479   2.828
64969W        W26632  33.431  23.596   5.199
64970W        W26633  35.102  20.063  12.081
64971W        W26634  32.506  42.031  14.471
64972W        W26635   9.308   9.374   2.342
64973W        W26636   6.253  33.528   3.766
64974W        W26637   9.214  17.083   0.426
64975W        W26638  37.530   2.452   3.334
64976W        W26639  34.891  42.850  13.482
64977W        W26640   0.818  30.151   0.962
64978W        W26641   0.895  15.651  13.807
64979W        W26642   9.751   1.476  11.384
64980W        W26643   2.898  29.643  13.803
64981W        W26644  20.700  32.957   0.462
64982W        W26645  35.109  11.672   4.293
64983W        W26646   4.206   6.833  12.067
64984W        W26647  30.469  15.801  14.869
64985W        W26648  34.937  36.424   0.269
64986W        W26649  39.813  19.547  11.383
64987W        W26650  23.686  44.813   0.786
64988W        W26651  22.110  35.422  13.515
64989W        W26652  33.901   0.418   3.334
64990W        W26653  10.263   3.777   5.279
64991W        W26654  29.987  24.184  11.970
64992W        W26655   5.372  37.955   2.760
64993W        W26656  26.545  16.294   0.266
64994W        W26657   8.789   5.431  14.786
64995W        W26658  35.412  15.240   0.829
64996W        W26659   9.315  16.659  13.390
64997W        W26660  15.319  15.797  12.948
64998W        W26661  38.364   3.341   1.326
64999W        W26662  33.064  24.563  10.434
65000W        W26663   6.225  30.627   3.761
65001W        W26664   2.388  42.283  12.014
65002W        W26665  36.364   8.237   4.818
65003W        W26666  17.262   1.845  13.879
65004W        W26667  11.369  39.372  12.498
65005W        W26668  39.862  37.361  10.552
65006W        W26669  17.783   9.201   0.741
65007W        W26670   2.378  25.509   1.858
65008W        W26671   4.917   1.317   1.291
65009W        W26672   0.875  15.101  10.041
65010W        W26673  21.628  28.992   1.301
65011W        W26674  32.544  43.288  11.523
65012W        W26675  19.718  20.266   2.881
65013W        W26676  34.005  41.895  10.968
65014W        W26677  33.057  32.404  13.499
65015W        W26678  11.150  44.823  10.428
65016W        W26679  14.310  39.465   9.541
65017W        W26680  43.509  16.089   2.814
65018W        W26681  44.002  14.712   1.381
65019W        W26682  20.165  26.511   0.414
65020W        W26683  21.092  23.507  12.509
65021W        W26684  44.453  11.360   4.726
65022W        W26685  30.014  10.155   3.347
65023W        W26686  14.702  27.005   0.914
65024W        W26687  41.510  39.038  12.877
65025W        W26688  25.702  24.215   0.907
65026W        W26689  41.448  43.278  13.538
65027W        W26690  15.166  38.345   5.260
65028W        W26691  39.353  43.897  14.457
65029W        W26692  35.864  28.011   0.850
65030W        W26693  35.387  18.544  10.443
65031W        W26694   2.330   8.770  12.843
65032W        W26695  22.686  19.044   1.699
65033W        W26696  30.582  27.091   3.187
65034W        W26697  42.511  16.123   0.276
65035W        W26698  15.212  43.488  14.323
65036W        W26699  14.244  26.158   4.767
65037W        W26700  42.846   8.288  14.361
65038W        W26701  18.272  21.517   3.374
65039W        W26702  14.783  18.071   2.336
65040W        W26703  24.668   0.948   3.855
65041W        W26704  38.034  25.066  12.997
65042W        W26705  14.710   5.227   1.406
65043W        W26706  33.918  21.746   3.385
65044W        W26707  39.939   6.205   1.345
65045W        W26708   0.286  16.794   3.675
65046W        W26709  40.481   1.813   2.895
65047W        W26710  43.969  40.313  14.959
65048W        W26711  23.639  10.154   4.700
65049W        W26712  34.369  30.160  11.591
65050W        W26713   3.826   2.278   3.262
65051W        W26714   7.786  15.211   4.272
65052W        W26715  32.957   1.252  11.459
65053W        W26716  23.182  32.900   1.832
65054W        W26717  23.016  38.499  10.428
65055W        W26718  10.784  31.018   4.662
65056W        W26719  42.358  11.129  13.344
65057W        W26720  21.117  33.605  14.944
65058W        W26721  26.176   5.795   0.946
65059W        W26722  25.560   2.754  13.012
65060W        W26723  34.943  17.307   2.398
65061W        W26724   1.249  29.119   1.243
65062W        W26725   1.280  35.523  13.872
65063W        W26726  30.549  31.603   1.843
65064W        W26727  38.422  20.215   2.797
65065W        W26728  44.314  12.204  11.949
65066W        W26729  13.804   0.982   4.160
65067W        W26730  36.363   1.965   2.209
65068W        W26731  36.539   6.760  13.457
65069W        W26732   0.897   6.882   4.251
65070W        W26733  35.467  27.978   3.350
65071W        W26734  36.034  17.155   1.412
65072W        W26735  42.365  38.992   3.335
65073W        W26736  40.029  15.686   1.425
65074W        W26737  38.067  40.528   1.312
65075W        W26738   4.911  39.832   4.165
65076W        W26739  29.595  11.219  12.009
65077W        W26740  23.540  19.147  12.495
65078W        W26741  19.136  35.882  12.832
65079W        W26742  35.051  43.800   4.120
65080W        W26743  33.564  19.133   0.753
65081W        W26744  17.202  12.173   4.604
65082W        W26745  40.026  32.526  10.501
65083W        W26746   7.408   4.326  12.975
65084W        W26747   9.839   3.909   0.955
65085W        W26748  32.588  18.180  13.959
65086W        W26749  35.008   9.768  10.049
65087W        W26750  21.240  29.133  11.546
65088W        W26751   2.963  38.473   1.802
65089W        W26752  29.078   3.780  14.027
65090W        W26753  44.363  20.680   0.397
65091W        W26754  27.196   9.677  13.900
65092W        W26755   3.283  31.035   3.676
65093W        W26756  40.485  28.007   4.229
65094W        W26757  34.614  18.754  14.393
65095W        W26758  12.294  29.586  11.072
65096W        W26759   3.898  36.447   0.774
65097W        W26760  34.064  24.498   0.345
65098W        W26761   7.216   4.715  12.443
65099W        W26762  21.106  29.013  13.844
65100W        W26763  39.935  42.477  11.487
65101W        W26764  21.201  18.724   0.861
65102W        W26765  31.998   0.475  10.565
65103W        W26766  20.625  38.018   4.808
65104W        W26767  40.012  25.040   0.784
65105W        W26768  18.173  40.524  13.321
65106W        W26769  14.230  15.213  11.598
65107W        W26770  44.407  18.188   3.775
65108W        W26771  36.548  38.383   1.272
65109W        W26772  10.641   8.823   0.251
65110W        W26773  16.579  22.586  11.459
65111W        W26774  39.026   5.765  13.966
65112W        W26775   8.189  34.369  14.788
65113W        W26776  15.202   6.211   1.320
65114W        W26777  24.667  41.952   1.317
65115W        W26778  10.733  40.871  12.909
65116W        W26779   4.280  43.278   4.212
65117W        W26780   8.240  36.068   3.355
65118W        W26781  10.371  21.579   1.877
65119W        W26782  20.724   9.243   1.290
65120W        W26783  13.310  23.710  14.317
65121W        W26784  15.158  27.455   1.228
65122W        W26785  34.078  25.002  14.398
65123W        W26786  21.101   5.910  14.857
65124W        W26787  32.535  24.108   1.439
65125W        W26788  21.139  34.119   2.853
65126W        W26789   3.278  14.183   1.725
65127W        W26790  35.388  35.380   4.600
65128W        W26791  41.305   4.339  13.904
65129W        W26792  41.789  25.020  13.974
65130W        W26793   5.298  40.800  11.028
65131W        W26794  13.325  44.770   1.893
65132W        W26795  16.099   2.785   2.746
65133W        W26796  36.356  13.153   0.382
65134W        W26797  16.607  31.554   0.902
65135W        W26798  18.281  10.733   0.293
65136W        W26799  36.430  41.430  13.891
65137W        W26800   7.769  22.081  10.622
65138W        W26801  11.267  16.081  13.443
65139W        W26802  35.435   1.317  12.561
65140W        W26803  20.251  37.390   1.814
65141W        W26804  33.448  41.994  12.431
65142W        W26805  39.904  42.897   2.870
65143W        W26806  41.931  29.640  10.615
65144W        W26807  22.594   6.815   2.671
65145W        W26808  17.164  39.364   2.835
65146W        W26809  35.498  24.630   2.297
65147W        W26810  37.869  15.623  10.514
65148W        W26811  31.064  19.061   5.085
65149W        W26812  26.154  32.634   3.170
65150W        W26813   8.272  36.888  12.349
65151W        W26814   4.713  26.081   9.982
65152W        W26815   2.843  41.916   2.894
65153W        W26816   6.751   5.701   4.136
65154W        W26817  20.575  13.627  12.096
65155W        W26818  14.293  15.307  12.053
65156W        W26819  22.730  27.112   1.416
65157W        W26820  28.521  10.815   2.282
65158W        W26821  35.931   0.759  13.528
65159W        W26822  41.912  30.636  11.967
65160W        W26823  28.092   1.462   1.721
65161W        W26824  34.531  17.244   1.876
65162W        W26825  43.441  34.487   0.794
65163W        W26826   9.265   7.287  13.519
65164W        W26827   7.224   6.201  10.572
65165W        W26828   0.775  32.602   1.775
65166W        W26829  31.019  42.935   2.372
65167W        W26830  24.096  29.620   0.911
65168W        W26831  44.361  13.639   2.772
65169W        W26832  32.092  15.582  10.088
65170W        W26833  15.157  22.141   0.455
65171W        W26834  45.000  38.979   0.256
65172W        W26835  23.557  18.059  14.346
65173W        W26836  10.198   4.337   1.289
65174W        W26837   8.366  42.340   1.799
65175W        W26838  21.571   4.750   1.387
65176W        W26839  36.976  10.345   2.877
65177W        W26840  24.202  28.501  13.509
65178W        W26841  32.904  20.584   4.835
65179W        W26842   3.258  42.024  13.868
65180W        W26843   2.306  38.826  14.906
65181W        W26844  39.891  15.778   4.316
65182W        W26845  17.301  25.111  10.907
65183W        W26846  28.489  22.039  12.995
65184W        W26847  14.687   8.785   1.216
65185W        W26848  35.855   6.396   1.747
65186W        W26849  41.503  38.390  14.445
65187W        W26850   4.915  13.711  14.967
65188W        W26851  24.176  25.056  12.877
65189W        W26852  38.831  28.618  12.828
65190W        W26853  20.176  36.855  14.794
65191W        W26854   0.768   9.357  10.600
65192W        W26855  32.044  29.026  13.483
65193W        W26856  41.428  44.490  13.949
65194W        W26857  33.006  40.027   0.743
65195W        W26858  22.139  25.065   9.540
65196W        W26859  11.166  30.522  12.850
65197W        W26860  22.050  15.674   3.832
65198W        W26861  35.579  29.060   2.800
65199W        W26862  40.889  37.338  14.004
65200W        W26863   6.225  34.063   2.410
65201W        W26864   1.475  22.640   2.194
65202W        W26865  40.364  10.225  11.388
65203W        W26866  37.900   8.679   4.779
65204W        W26867  41.849  23.736   3.306
65205W        W26868  16.130  38.833   2.790
65206W        W26869  21.126   6.366   3.272
65207W        W26870  11.768  36.350  12.377
65208W        W26871   5.911  41.007   2.733
65209W        W26872  37.569   7.886  13.917
65210W        W26873  23.530  30.157  14.785
65211W        W26874  34.098  22.503   2.349
65212W        W26875  43.501  30.965   1.865
65213W        W26876  39.470  13.600   4.665
65214W        W26877  35.044  21.754   3.835
65215W        W26878  14.206  25.539  10.592
65216W        W26879   0.447  15.142  14.816
65217W        W26880  37.502  29.030  13.049
65218W        W26881   1.414  32.002   3.165
65219W        W26882  18.268  34.414   3.793
65220W        W26883  23.045  42.510   0.774
65221W        W26884  27.474  30.079   3.656
65222W        W26885  33.880  39.028  13.430
65223W        W26886  42.924   8.288  12.013
65224W        W26887  34.606  17.064  13.806
65225W        W26888  32.084  25.963  14.486
65226W        W26889   6.387  10.708  14.762
65227W        W26890   8.310  38.558  12.392
65228W        W26891  18.741  21.103  10.137
65229W        W26892  24.152   9.870  13.507
65230W        W26893  28.184   6.688   4.296
65231W        W26894   0.335  22.080   1.851
65232W        W26895  33.609   7.202  11.568
65233W        W26896  41.934  41.936   4.719
65234W        W26897  17.162  27.942   4.726
65235W        W26898  22.509   4.715  12.890
65236W        W26899  42.965  19.194   3.811
65237W        W26900  30.087  13.787  11.385
65238W        W26901   3.807  33.976   0.331
65239W        W26902  18.671  10.337   3.306
65240W        W26903  21.085  24.003   4.667
65241W        W26904  35.031  14.175   2.730
65242W        W26905  27.955   3.949  13.802
65243W        W26906  39.887   6.414  13.490
65244W        W26907  26.967   0.433  10.417
65245W        W26908  25.711   4.419   0.799
65246W        W26909  21.678   4.763   0.777
65247W        W26910  41.341  42.933   1.757
65248W        W26911  41.477   1.250   1.934
65249W        W26912  29.150  23.667  13.500
65250W        W26913  32.562  26.107  13.534
65251W        W26914  18.555   2.857  10.443
65252W        W26915  25.196   0.252  14.457
65253W        W26916  15.578  25.647  12.536
65254W        W26917  41.487  10.878  11.428
65255W        W26918  29.973  31.136  14.853
65256W        W26919  19.181   3.368   0.926
65257W        W26920  35.483  35.359  13.807
65258W        W26921  24.643  27.079   3.845
65259W        W26922  31.152  29.611   0.254
65260W        W26923   5.388  16.788  14.962
65261W        W26924   8.401   3.891   4.288
65262W        W26925  18.673  25.621   2.869
65263W        W26926  23.189  32.577   0.963
65264W        W26927  13.182   2.919   3.261
65265W        W26928   5.274  27.500  11.062
65266W        W26929  22.599  38.971  11.893
65267W        W26930  17.239  15.654  13.892
65268W        W26931  11.155  39.041   0.274
65269W        W26932   6.692  37.480   0.770
65270W        W26933  25.059  43.850   1.218
65271W        W26934   7.234  32.963  11.608
65272W        W26935  25.590  12.333  14.817
65273W        W26936  38.970   9.305   3.334
65274W        W26937   6.711   1.443  12.382
65275W        W26938   7.901  21.041   1.330
65276W        W26939  43.455   9.304   5.730
65277W        W26940  28.954   7.357  14.795
65278W        W26941  25.082  21.705   3.806
65279W        W26942  13.208  38.887   2.839
65280W        W26943   3.417  26.571  10.524
65281W        W26944  15.099  40.460  11.602
65282W        W26945  35.520  40.002   1.797
65283W        W26946  43.916   4.751   2.187
65284W        W26947   8.786  18.058  13.463
65285W        W26948  15.088   1.379  13.003
65286W        W26949  34.109  27.999  11.475
65287W        W26950   5.736  37.837   1.375
65288W        W26951  37.500  26.605  14.465
65289W        W26952  18.684  28.678   0.756
65290W        W26953  28.019  25.682  11.924
65291W        W26954  30.065  39.903  12.518
65292W        W26955   9.746  20.044  12.027
65293W        W26956  29.942  21.725  13.025
65294W        W26957   2.438  10.241   3.154
65295W        W26958  41.832  18.122   4.620
65296W        W26959  32.471  11.742   1.725
65297W        W26960  21.566  19.667   1.426
65298W        W26961   1.481  25.623  11.390
65299W        W26962  25.081   2.239   3.725
65300W        W26963  44.399  13.106  11.410
65301W        W26964  16.592  38.839   1.868
65302W        W26965  44.972  13.244   9.633
65303W        W26966  22.080  37.376  12.377
65304W        W26967   9.238  11.826   1.230
65305W        W26968  12.839   3.280  10.417
65306W        W26969  39.926  36.524  11.535
65307W        W26970  14.098  39.517  11.609
65308W        W26971   2.253  15.118   1.226
65309W        W26972  38.494  25.560  11.496
65310W        W26973  19.663  39.428   1.269
65311W        W26974  37.409  41.444  12.486
65312W        W26975  33.458  26.596  12.496
65313W        W26976   9.234  19.271   0.426
65314W        W26977   8.339  33.565  14.283
65315W        W26978  27.151   1.948  11.076
65316W        W26979  13.673  11.363   1.743
65317W        W26980  13.325   1.346  13.893
65318W        W26981  33.971  17.109   0.894
65319W        W26982   5.779   4.795   1.710
65320W        W26983   7.688  27.196   1.745
65321W        W26984  21.223   3.870  11.943
65322W        W26985  40.387  23.559  14.382
65323W        W26986  16.694   2.380   0.359
65324W        W26987  43.501  20.677  12.996
65325W        W26988  18.245  43.996   0.316
65326W        W26989  36.901  42.898  11.412
65327W        W26990  10.276  15.661  10.455
65328W        W26991  17.622   2.759  14.411
65329W        W26992  10.219  17.577  10.901
65330W        W26993  20.174  33.441  13.900
65331W        W26994  35.445   5.814  13.489
65332W        W26995  33.904  19.561   3.788
65333W        W26996  30.436  31.548   2.361
65334W        W26997   0.805  29.992  12.890
65335W        W26998   2.240   0.480   4.142
65336W        W26999  10.229  25.176   4.709
65337W        W27000  24.129  29.561   1.797
65338W        W27001  31.507  28.594   2.733
65339W        W27002  34.543  15.270   3.324
65340W        W27003  27.492   6.267  11.919
65341W        W27004  38.930   6.426   0.293
65342W        W27005  14.704  30.534   2.781
65343W        W27006   9.691   4.252  12.848
65344W        W27007  21.164  36.097   3.198
65345W        W27008   5.206   7.182   1.261
65346W        W27009  20.538  42.819   0.930
65347W        W27010   8.177  25.995   2.765
65348W        W27011  12.810  26.123   4.239
65349W        W27012  14.711  14.802  14.838
65350W        W27013  35.531  43.781  13.521
65351W        W27014  25.078  35.969   1.373
65352W        W27015  28.537  17.289   2.849
65353W        W27016   5.371   0.931   4.716
65354W        W27017  18.718   4.325   3.670
65355W        W27018  28.558  13.757   4.657
65356W        W27019  37.549   1.413   3.278
65357W        W27020  21.607  13.189   3.152
65358W        W27021  13.162  39.014   0.279
65359W        W27022  25.527  14.596   1.790
65360W        W27023  31.076  25.074  14.005
65361W        W27024  30.121  26.992  13.506
65362W        W27025  18.246  42.350   3.836
65363W        W27026  42.921  42.497  11.445
65364W        W27027  35.952  43.470   1.276
65365W        W27028  34.532  23.993  11.903
65366W        W27029  19.697   4.368   0.787
65367W        W27030   8.781  41.300   3.259
65368W        W27031   4.295  42.793   0.894
65369W        W27032  18.612  23.125  10.544
65370W        W27033  18.693  28.056   4.745
65371W        W27034  30.086   4.370   3.253
65372W        W27035  21.233  11.129   3.160
65373W        W27036  22.686   5.195  11.404
65374W        W27037   1.249  44.339   0.464
65375W        W27038  35.984  44.786  11.896
65376W        W27039  41.903  21.175   3.330
65377W        W27040  35.583  14.225  11.469
65378W        W27041  13.328   0.471   0.965
65379W        W27042  18.753  40.872  11.553
65380W        W27043  42.986  14.238   1.229
65381W        W27044  33.419   3.816  12.915
65382W        W27045  40.922  43.880  14.826
65383W        W27046  34.610  14.219  14.279
65384W        W27047  12.817  32.958  13.857
65385W        W27048  39.899  21.582   4.793
65386W        W27049  35.077  28.108  11.040
65387W        W27050  33.874  26.572  14.329
65388W        W27051  26.089  19.661   4.198
65389W        W27052   5.387   8.770  13.421
65390W        W27053  20.529  43.477   2.337
65391W        W27054  25.584   5.899   2.900
65392W        W27055  36.508  30.466   2.178
65393W        W27056  19.545  42.497   4.299
65394W        W27057  19.167  33.540   4.170
65395W        W27058  37.944  43.316   0.895
65396W        W27059  18.141  11.793  11.555
65397W        W27060  36.577  43.488  11.450
65398W        W27061  15.304  31.944   4.276
65399W        W27062  30.522  21.112   3.678
65400W        W27063  11.260   7.233   2.834
65401W        W27064   4.807   1.940   0.315
65402W        W27065  20.737  22.157  14.833
65403W        W27066  40.305  41.832  13.499
65404W        W27067  17.624  36.966   2.674
65405W        W27068  11.358  29.528  12.862
65406W        W27069  39.934  19.210   4.690
65407W        W27070   5.433  32.491  11.556
65408W        W27071  23.984  29.622   5.257
65409W        W27072  31.476  29.537   3.261
65410W        W27073   3.769  44.270  14.286
65411W        W27074  44.985  43.400   4.319
65412W        W27075   0.747   2.920  12.439
65413W        W27076  18.725  36.029   1.883
65414W        W27077  24.026  18.570   4.322
65415W        W27078   2.960  34.982  12.031
65416W        W27079  44.912  24.705   3.853
65417W        W27080  37.971  16.122  14.979
65418W        W27081  16.124  33.610   4.124
65419W        W27082  11.744   1.317  13.348
65420W        W27083  44.968  34.530  10.567
65421W        W27084   4.714  39.395  12.926
65422W        W27085  28.639   3.948   3.355
65423W        W27086  42.968  22.686   2.721
65424W        W27087  31.009  33.932   2.840
65425W        W27088  17.265  20.107  13.901
65426W        W27089   5.337  15.673   4.263
65427W        W27090  28.989   1.307   3.750
65428W        W27091  32.555  15.305  13.356
65429W        W27092  41.809  41.298  14.501
65430W        W27093  16.272  25.185   4.804
65431W        W27094  44.778   7.714   5.605
65432W        W27095  42.007  22.084  10.991
65433W        W27096  21.638  18.694   0.319
65434W        W27097  11.650  31.955  10.093
65435W        W27098  10.278  16.643   1.708
65436W        W27099   8.847  32.541  11.017
65437W        W27100  10.338  15.669  13.518
65438W        W27101  24.690   7.226  11.856
65439W        W27102  42.331  38.492  11.910
65440W        W27103  15.764   6.285   5.206
65441W        W27104  26.611  27.132   0.468
65442W        W27105  32.102  24.205   1.418
65443W        W27106  42.364  20.627  14.763
65444W        W27107  41.012  16.227  11.577
65445W        W27108  42.878  41.949  10.412
65446W        W27109  30.033  25.033  14.801
65447W        W27110  36.409  15.741   5.105
65448W        W27111  16.307   3.404  12.896
65449W        W27112   8.334  10.241   0.782
65450W        W27113  10.271  42.487   0.267
65451W        W27114  13.604   5.293  14.758
65452W        W27115  12.676  36.927   3.678
65453W        W27116  38.345  31.531   4.256
65454W        W27117   8.224  34.614   3.258
65455W        W27118  35.507   8.846   0.256
65456W        W27119  16.177  25.585  13.014
65457W        W27120  10.692  14.788  10.959
65458W        W27121  29.925  10.793   3.266
65459W        W27122  25.041  37.422  13.064
65460W        W27123  33.549  12.765   4.839
65461W        W27124  15.630  29.578  10.901
65462W        W27125  35.398  11.744   2.691
65463W        W27126  34.375  35.362  12.482
65464W        W27127  18.719  17.767  10.035
65465W        W27128  33.945   1.837   3.820
65466W        W27129  34.087  14.246   0.292
65467W        W27130   6.797   3.316  14.326
65468W        W27131   3.829   6.423  14.510
65469W        W27132   5.931  33.897  13.972
65470W        W27133  14.595  31.423   0.275
65471W        W27134  11.778  18.585   4.836
65472W        W27135  29.107  34.519  12.519
65473W        W27136  39.828   1.748  13.036
65474W        W27137  15.650  32.038  13.893
65475W        W27138   8.875  16.677   1.930
65476W        W27139  40.445  25.024  10.932
65477W        W27140  44.950  19.234  12.460
65478W        W27141  42.494  12.136   1.699
65479W        W27142   8.203  13.187  11.461
65480W        W27143  29.931  43.289  11.096
65481W        W27144  23.579  20.645   4.145
65482W        W27145  44.403  34.552   1.347
65483W        W27146  21.649  21.071   0.416
65484W        W27147  32.481   0.887   2.686
65485W        W27148  10.262   5.370   4.700
65486W        W27149  40.029  37.081   2.853
65487W        W27150  28.005  21.701  14.514
65488W        W27151  38.065  19.733  11.052
65489W        W27152  24.597  18.174  11.611
65490W        W27153   8.198  10.850  10.039
65491W        W27154  19.106   4.708   0.319
65492W        W27155  33.540  25.670  13.318
65493W        W27156  34.442  16.764  11.045
65494W        W27157  16.301  15.215   9.663
65495W        W27158  23.198  24.568   0.291
65496W        W27159  43.389  13.133   0.845
65497W        W27160  33.579  24.704   5.728
65498W        W27161   4.893  19.751  11.996
65499W        W27162   9.194  18.662  10.982
65500W        W27163  18.673  25.173  12.460
65501W        W27164  11.766  43.798   1.317
65502W        W27165  27.966  17.210   3.343
65503W        W27166  26.047  42.304   1.925
65504W        W27167   6.374  27.159  10.951
65505W        W27168  23.094  34.511   2.415
65506W        W27169  10.379  16.765  13.804
65507W        W27170  15.119   7.384   4.791
65508W        W27171  30.454  23.552  12.045
65509W        W27172  26.079   9.255   0.729
65510W        W27173   3.914  27.181   0.420
65511W        W27174  11.367  25.564   4.165
65512W        W27175  16.812  40.323  14.334
65513W        W27176  17.574   9.318   4.814
65514W        W27177  37.883  38.063   1.333
65515W        W27178   7.313  34.570   0.794
65516W        W27179  16.310   5.287   4.194
65517W        W27180  33.566   0.364   3.366
65518W        W27181  36.898  19.278   1.348
65519W        W27182  26.584  44.402   2.186
65520W        W27183  33.546  34.426  13.860
65521W        W27184  29.531   3.820  13.808
65522W        W27185   0.352  21.581   2.846
65523W        W27186   4.867  18.219  13.522
65524W        W27187  29.583  38.552  11.531
65525W        W27188  43.330  27.962  12.987
65526W        W27189  19.731  17.635   3.736
65527W        W27190  39.854   9.735   9.442
65528W        W27191  18.738  36.991   2.237
65529W        W27192  37.005  29.574  11.963
65530W        W27193  41.353   7.295  11.110
65531W        W27194  22.236  19.689   2.313
65532W        W27195  26.644  31.972   3.232
65533W        W27196  19.595   1.317  13.939
65534W        W27197  39.416  27.502   3.764
65535W        W27198  15.088   6.823  11.041
65536W        W27199  32.094  42.977   2.221
65537W        W27200   7.772  35.875   1.396
65538W        W27201  17.153   2.924  14.467
65539W        W27202  26.578   7.911  13.840
65540W        W27203  40.527   7.739   2.213
65541W        W27204  44.850  15.741  12.830
65542W        W27205  42.427  37.417  13.373
65543W        W27206  43.407  18.084   0.406
65544W        W27207  42.008  33.984   4.791
65545W        W27208  14.298  16.156  11.074
65546W        W27209   3.841  44.982  12.882
65547W        W27210  31.474  41.992  13.362
65548W        W27211  14.103  13.320  10.546
65549W        W27212  41.384  28.598   2.367
65550W        W27213  31.582   2.766   0.755
65551W        W27214  38.466  18.580  13.029
65552W        W27215  24.004  20.652  10.416
65553W        W27216  20.730   7.896  12.056
65554W        W27217  43.812   9.206   2.180
65555W        W27218   4.853  26.166   0.906
65556W        W27219  26.631  19.749  13.965
65557W        W27220  16.789   2.953  14.947
65558W        W27221  23.138  12.263   1.306
65559W        W27222   2.385  14.689   3.774
65560W        W27223  37.516  30.505   4.685
65561W        W27224  41.812   2.284  11.562
65562W        W27225  14.268  35.971  12.451
65563W        W27226   2.373  15.326  10.445
65564W        W27227  19.726  19.087  14.286
65565W        W27228  24.709  38.044   0.782
65566W        W27229  18.658  17.083   5.156
65567W        W27230   2.366   5.838  14.939
65568W        W27231  32.033   4.301  11.084
65569W        W27232  27.997   0.359  10.406
65570W        W27233  14.745  16.806  14.314
65571W        W27234   6.848  21.527  14.008
65572W        W27235  19.164  38.019  11.504
65573W        W27236   0.383  18.631   2.237
65574W        W27237  26.470  32.901   4.736
65575W        W27238  24.539  32.930  12.955
65576W        W27239  11.286   8.344   3.147
65577W        W27240  22.653   8.364  14.932
65578W        W27241  15.289   8.195  10.404
65579W        W27242  12.197  37.424  12.938
65580W        W27243  26.084   6.869  13.995
65581W        W27244   8.174  36.487  14.866
65582W        W27245  22.701  24.651  12.351
65583W        W27246  25.482  14.270  11.095
65584W        W27247   2.388  44.918   4.794
65585W        W27248  22.098   4.801   0.251
65586W        W27249  43.911   1.737   3.217
65587W        W27250   7.895  37.403   3.848
65588W        W27251  28.608  37.404  13.523
65589W        W27252  24.098   9.650  14.788
65590W        W27253  36.441   3.453   0.437
65591W        W27254   2.317   2.413   0.748
65592W        W27255  19.192  35.538  10.930
65593W        W27256  17.130  37.993  11.986
65594W        W27257   2.834  25.498  11.396
65595W        W27258  31.008  18.627  13.396
65596W        W27259  40.035  16.588   2.725
65597W        W27260  11.750   5.707   9.592
65598W        W27261  25.523  29.117  12.863
65599W        W27262  31.580  13.347   0.861
65600W        W27263  14.690  32.006   2.866
65601W        W27264  39.028  16.766   2.858
65602W        W27265  26.610   4.818   0.357
65603W        W27266  25.184  17.592   0.913
65604W        W27267   9.759  41.456   1.397
65605W        W27268  17.577  36.090   3.678
65606W        W27269   6.920  43.867  14.457
65607W        W27270  19.255  39.905   1.408
65608W        W27271  20.756  10.663  12.079
65609W        W27272  23.554  25.136  11.890
65610W        W27273   1.396  44.845   0.905
65611W        W27274  23.674   2.931  13.933
65612W        W27275   4.404   1.903   0.403
65613W        W27276  30.044  39.826   4.222
65614W        W27277  23.047  14.636  13.312
65615W        W27278  18.067  26.579   4.679
65616W        W27279  27.045  42.956   0.943
65617W        W27280   4.758   2.374   0.875
65618W        W27281  29.172  25.999   4.671
65619W        W27282   0.312  19.131  11.114
65620W        W27283  44.413  43.900  14.831
65621W        W27284  19.097  11.314  11.378
65622W        W27285  37.970  40.479  11.098
65623W        W27286  28.161  21.653   4.719
65624W        W27287   3.241  12.662  10.438
65625W        W27288  17.298  22.621  14.843
65626W        W27289   2.867  20.103  10.984
65627W        W27290   8.880  29.065  13.832
65628W        W27291  19.608  25.683  12.397
65629W        W27292  21.700  17.114   2.361
65630W        W27293   7.732  33.118   0.280
65631W        W27294   6.191   1.468   4.243
65632W        W27295  35.901  41.927  12.464
65633W        W27296  16.784   0.460  11.929
65634W        W27297  12.196  35.509  10.541
65635W        W27298  11.166  31.493  11.439
65636W        W27299  13.301  15.810  13.324
65637W        W27300  17.305  39.943  12.485
65638W        W27301  25.021  35.465   1.740
65639W        W27302  34.873  11.815   0.273
65640W        W27303  17.746   3.456   3.745
65641W        W27304  37.521  27.548  12.970
65642W        W27305   0.407  26.696   1.390
65643W        W27306   4.865  42.381  14.788
65644W        W27307  18.637  27.973  12.827
65645W        W27308   5.746  40.943   3.251
65646W        W27309  30.086  33.438  14.455
65647W        W27310   0.849  22.515  12.479
65648W        W27311  12.183   3.399   1.802
65649W        W27312   7.879   3.356  11.439
65650W        W27313  21.019  22.169   0.254
65651W        W27314  14.654  27.640  13.863
65652W        W27315   7.324  35.575   1.704
65653W        W27316   5.377  23.021  14.970
65654W        W27317   7.734   0.895  10.107
65655W        W27318  37.904  14.590  14.419
65656W        W27319  22.044  41.426   3.679
65657W        W27320  11.786   0.885   4.127
65658W        W27321   4.312   8.204  10.495
65659W        W27322  34.587  16.148  14.439
65660W        W27323  16.112  31.550   3.642
65661W        W27324  44.980  22.638   2.367
65662W        W27325  27.609  29.542   0.962
65663W        W27326  11.286  32.116  13.944
65664W        W27327  44.951   9.206  14.952
65665W        W27328  22.162  44.933   9.526
65666W        W27329  33.448  24.019  13.930
65667W        W27330  17.273  37.347   0.942
65668W        W27331   5.717  33.489   2.868
65669W        W27332  37.408  32.454  10.541
65670W        W27333  22.122   8.327  14.506
65671W        W27334  36.461   7.702  12.038
65672W        W27335  37.354  29.067   2.378
65673W        W27336  33.590  37.408   1.927
65674W        W27337  25.041  21.529  14.899
65675W        W27338  24.002   1.401  13.009
65676W        W27339   4.443   5.769  10.628
65677W        W27340  41.503  23.527   4.692
65678W        W27341  33.950  12.821   3.210
65679W        W27342   4.855  42.932  14.803
65680W        W27343  33.408  17.605   2.335
65681W        W27344   4.424  42.986  11.600
65682W        W27345  37.505   7.745   2.380
65683W        W27346  17.676  34.507  10.522
65684W        W27347   5.764  29.057   1.349
65685W        W27348   3.728  18.665  13.903
65686W        W27349  18.159  30.952   4.624
65687W        W27350   3.263  24.196   1.930
65688W        W27351  29.979  43.005   4.790
65689W        W27352  17.699  25.686  13.413
65690W        W27353  36.510  18.758   3.793
65691W        W27354  17.172   6.861  12.839
65692W        W27355   0.940   1.372  12.390
65693W        W27356   9.782   3.799  10.549
65694W        W27357  15.183  16.774  11.544
65695W        W27358  27.188  15.289   3.348
65696W        W27359   7.303  21.128  12.007
65697W        W27360   7.338  18.716   0.385
65698W        W27361  40.054  37.553   3.349
65699W        W27362  27.468  15.768   1.697
65700W        W27363  34.483  40.878  12.951
65701W        W27364  29.067   7.404   2.223
65702W        W27365  24.645  36.459  13.836
65703W        W27366  12.223   0.787  13.451
65704W        W27367  41.885   1.442  13.062
65705W        W27368  25.468  18.276   1.705
65706W        W27369  35.944  41.407  12.410
65707W        W27370  17.095  27.525  10.414
65708W        W27371  44.975  37.466  11.029
65709W        W27372  41.313  30.619   2.265
65710W        W27373   5.422  34.085   3.803
65711W        W27374  37.978  42.464  13.377
65712W        W27375  43.493  34.436  12.451
65713W        W27376  34.413  38.476   4.303
65714W        W27377  30.598   9.348  13.988
65715W        W27378  20.092  39.843  11.600
65716W        W27379  19.233  39.991   3.286
65717W        W27380  14.754  26.649  12.545
65718W        W27381   0.751   5.406   2.892
65719W        W27382  28.137  14.594   5.195
65720W        W27383  20.586   2.268   4.666
65721W        W27384   3.894  43.441   4.123
65722W        W27385  19.190   6.875   2.209
65723W        W27386   4.337  16.568  13.325
65724W        W27387  20.038  30.466  11.610
65725W        W27388  37.070   5.267  14.911
65726W        W27389  31.637  40.903   3.794
65727W        W27390  12.230  34.535   2.372
65728W        W27391  30.104  15.769   0.957
65729W        W27392  25.125  32.057  11.112
65730W        W27393  39.041   2.439   3.634
65731W        W27394  30.432   2.369  10.969
65732W        W27395  14.762  11.756   3.719
65733W        W27396  42.777  34.395  10.465
65734W        W27397  27.048  32.520   0.752
65735W        W27398   4.249  20.225  14.311
65736W        W27399  19.161  21.689   4.620
65737W        W27400  26.681  37.561   5.118
65738W        W27401  33.113  15.303   2.855
65739W        W27402  39.851  29.990   0.271
65740W        W27403   9.204   6.402  13.994
65741W        W27404  15.278  40.492   0.842
65742W        W27405  29.560  29.114  14.785
65743W        W27406  34.476  11.212   2.335
65744W        W27407  18.239  11.204   1.794
65745W        W27408  21.635  27.599  10.944
65746W        W27409   7.387  38.335  12.947
65747W        W27410   8.378  31.613   2.202
65748W        W27411  25.587   6.189   0.784
65749W        W27412  21.073  20.625   0.433
65750W        W27413  31.095   3.813  10.475
65751W        W27414  13.105  25.704   1.251
65752W        W27415   6.237  29.947  10.457
65753W        W27416  15.245  27.475   4.141
65754W        W27417  44.935  15.330   4.679
65755W        W27418  12.770  18.601   2.725
65756W        W27419  26.536  11.698  10.577
65757W        W27420  17.757  30.479   4.265
65758W        W27421   1.777  32.938   0.267
65759W        W27422   6.782  10.159  11.059
65760W        W27423  30.600  15.645  13.046
65761W        W27424  22.088  25.542   3.335
65762W        W27425  43.976  17.301  10.528
65763W        W27426  32.025  33.002  10.927
65764W        W27427   5.701   8.859  10.589
65765W        W27428  32.010  11.355  12.003
65766W        W27429  11.621  34.118   2.698
65767W        W27430   6.242   1.296   1.843
65768W        W27431  11.328   1.477  12.428
65769W        W27432  12.286  14.727   3.365
65770W        W27433  12.324  32.088   1.319
65771W        W27434  18.736  16.629   1.785
65772W        W27435   7.767  35.412  10.440
65773W        W27436  40.399   4.379   1.234
65774W        W27437  23.049  12.196  10.970
65775W        W27438  41.029  12.242   3.359
65776W        W27439  44.009  37.556   1.283
65777W        W27440  29.020  21.534   3.293
65778W        W27441  10.253   7.735  14.963
65779W        W27442  34.931  23.102  14.798
65780W        W27443  40.330  44.818  13.880
65781W        W27444  44.397   9.180  12.397
65782W        W27445  43.943  31.566  10.935
65783W        W27446  39.358   7.311  13.491
65784W        W27447   5.772  28.469  14.983
65785W        W27448   9.234   4.893  11.905
65786W        W27449  11.766  22.141  12.909
65787W        W27450  30.980  28.072   2.204
65788W        W27451  20.570  41.448  12.561
65789W        W27452  37.539   4.785  11.998
65790W        W27453  42.815   4.763  12.927
65791W        W27454  18.748   5.305  12.434
65792W        W27455   3.767  25.501   4.227
65793W        W27456  34.945  39.922   4.154
65794W        W27457  29.440  31.414  12.462
65795W        W27458  21.517  27.011  10.932
65796W        W27459  14.327  39.826   0.760
65797W        W27460  18.107  10.843  11.533
65798W        W27461  43.002  10.746  14.976
65799W        W27462  13.758  19.761   2.264
65800W        W27463  29.482   1.241   3.358
65801W        W27464  13.746  31.056  11.117
65802W        W27465  36.361   4.227   2.845
65803W        W27466  27.977  29.558   2.856
65804W        W27467  25.531  40.937   3.795
65805W        W27468  31.075   1.790   4.160
65806W        W27469   9.689  40.400  11.989
65807W        W27470  44.364  18.073  12.368
65808W        W27471  22.190  22.077   3.343
65809W        W27472  37.433  17.180   1.917
65810W        W27473   3.896   8.805   3.785
65811W        W27474  15.686  13.775   3.690
65812W        W27475   9.267  13.157  13.936
65813W        W27476   0.324  17.733   3.243
65814W        W27477  10.676   3.804   3.362
65815W        W27478  11.139  21.657   4.750
65816W        W27479   7.731  16.205  14.873
65817W        W27480  19.129  34.602  14.952
65818W        W27481  24.578   2.376   0.386
65819W        W27482  33.984  42.842  10.580
65820W        W27483  41.438  28.045  13.873
65821W        W27484  17.673   0.870   3.672
65822W        W27485  27.620  44.785  10.424
65823W        W27486  44.866  43.466  11.864
65824W        W27487  44.412  40.534   3.285
65825W        W27488  37.869  15.280   1.723
65826W        W27489  27.598   5.726  11.032
65827W        W27490  33.471  31.552   0.342
65828W        W27491   9.649  43.959  11.910
65829W        W27492  22.585  31.962   4.247
65830W        W27493  40.047  25.205   4.598
65831W        W27494  39.423  22.156  11.403
65832W        W27495   0.902   9.649   3.671
65833W        W27496  36.460  41.026  13.997
65834W        W27497  27.659  19.761  10.922
65835W        W27498  41.304  27.030   0.807
65836W        W27499  17.662  24.225   3.818
65837W        W27500  17.748  27.640   4.699
65838W        W27501  22.248  22.610  13.321
65839W        W27502  42.509  17.283   0.283
65840W        W27503  43.382  36.086  13.006
65841W        W27504  39.339  39.432   3.866
65842W        W27505   7.251   7.221   1.345
65843W        W27506  25.675   3.781   4.267
65844W        W27507   4.704  23.559   1.217
65845W        W27508   9.731  31.599  12.052
65846W        W27509  36.843  26.548  11.445
65847W        W27510   5.792   6.859   1.357
65848W        W27511  12.739  26.067   2.269
65849W        W27512  29.144  20.638  13.481
65850W        W27513  37.432  15.229   1.779
65851W        W27514  14.251   0.438   4.607
65852W        W27515   3.308  29.941   0.377
65853W        W27516  36.538  43.483   2.730
65854W        W27517  11.737  14.622   2.705
65855W        W27518  32.091  38.073  14.429
65856W        W27519  29.481  17.183  12.395
65857W        W27520   4.851   2.815   0.934
65858W        W27521  27.539  18.274  12.510
65859W        W27522  20.715  42.364  12.418
65860W        W27523  27.662  26.582  10.419
65861W        W27524  41.515  16.293  10.414
65862W        W27525   2.319  19.134   4.187
65863W        W27526   2.402   8.772   2.674
65864W        W27527  15.088   0.330  12.508
65865W        W27528  36.581  43.464   1.409
65866W        W27529   3.399  43.378   1.281
65867W        W27530   7.236  18.274  13.359
65868W        W27531  29.085   6.243   4.116
65869W        W27532  24.153  18.680   1.910
65870W        W27533  25.688  26.206   1.236
65871W        W27534  25.127  41.484   0.425
65872W        W27535  23.714  22.635   3.209
65873W        W27536  10.225  23.229   2.751
65874W        W27537  12.767   9.286   3.645
65875W        W27538  41.940   5.721   0.762
65876W        W27539  27.643  19.105   4.136
65877W        W27540  33.001  32.935  11.946
65878W        W27541  12.222  20.132  14.971
65879W        W27542  37.467  40.925   3.784
65880W        W27543  38.361  21.017   4.252
65881W        W27544  30.507  36.099   3.793
65882W        W27545  13.658   7.265   1.314
65883W        W27546  20.046  32.596  12.059
65884W        W27547  24.092  13.802   3.179
65885W        W27548  14.254  10.730  14.487
65886W        W27549  12.650  24.560  12.560
65887W        W27550   3.771  23.502   4.300
65888W        W27551  27.001   2.256  14.278
65889W        W27552   7.781  41.820   4.305
65890W        W27553  36.867  23.187   0.786
65891W        W27554  13.190  32.014  11.104
65892W        W27555  39.057  23.648   0.272
65893W        W27556  12.843  27.691   1.242
65894W        W27557  31.048  11.661   3.688
65895W        W27558  18.105  10.310  11.014
65896W        W27559   4.252  10.155  13.507
65897W        W27560  24.568  25.469   1.853
65898W        W27561  20.589   5.815   9.950
65899W        W27562  16.617  12.798   0.828
65900W        W27563  35.439  44.319   0.352
65901W        W27564  25.202  23.513   3.722
65902W        W27565   1.480  26.121   3.772
65903W        W27566  40.048   8.818  14.871
65904W        W27567  26.198  42.496   5.201
65905W        W27568  11.285   5.294   5.217
65906W        W27569   8.246  37.962   2.292
65907W        W27570  27.667  25.981   1.889
65908W        W27571   4.878   9.666   9.985
65909W        W27572  25.215  11.786   1.728
65910W        W27573  25.074  38.462  12.993
65911W        W27574  36.865  10.651   2.212
65912W        W27575   2.230   6.771   1.741
65913W        W27576  21.111  18.688  14.847
65914W        W27577   3.371  39.358   1.899
65915W        W27578  24.548   4.838   0.966
65916W        W27579   3.460   4.246   3.330
65917W        W27580  10.139  24.687   4.331
65918W        W27581  11.206  22.999   3.803
65919W        W27582  14.223  12.653  14.346
65920W        W27583  27.123  39.925  13.914
65921W        W27584   8.712  36.854  12.435
65922W        W27585  14.094  12.356   4.154
65923W        W27586  38.045   1.326  11.941
65924W        W27587   2.864   4.846   1.406
65925W        W27588  18.280   3.386  11.555
65926W        W27589  39.498  37.081   3.865
65927W        W27590  33.601   6.827   0.424
65928W        W27591  22.228   7.752  11.413
65929W        W27592  26.951   8.208  13.527
65930W        W27593  31.426  36.915   3.824
65931W        W27594   2.913   7.763  12.978
65932W        W27595  18.678  18.615  11.870
65933W        W27596  32.428  40.432  10.447
65934W        W27597  14.713  28.941  12.885
65935W        W27598   8.720  16.299  14.805
65936W        W27599  44.378   3.400   4.116
65937W        W27600   2.242  43.361   3.169
65938W        W27601  41.820  12.805  12.469
65939W        W27602  39.513  14.781   4.689
65940W        W27603   1.750  12.753  13.974
65941W        W27604  38.487   2.298  12.396
65942W        W27605  39.546  44.488   1.378
65943W        W27606  19.056  18.262   4.240
65944W        W27607  17.689  11.857  11.123
65945W        W27608  29.538  23.082   1.293
65946W        W27609   4.275  17.708   2.264
65947W        W27610  33.927  16.584  14.829
65948W        W27611  38.452   2.408  14.371
65949W        W27612  29.618  31.900  13.321
65950W        W27613   5.797   0.782   1.348
65951W        W27614  38.434  11.255   4.814
65952W        W27615   5.930  15.255   4.720
65953W        W27616  32.005  40.357  10.936
65954W        W27617  32.477  35.949  11.041
65955W        W27618  41.969  10.211  12.925
65956W        W27619  15.625  34.392  12.978
65957W        W27620   1.972  40.886   1.311
65958W        W27621  13.275  23.045  13.478
65959W        W27622  36.946  35.466   0.321
65960W        W27623  35.060  12.826   0.907
65961W        W27624  43.296  42.482   1.281
65962W        W27625  21.101   7.349  10.442
65963W        W27626   6.303  37.443   1.842
65964W        W27627  38.522  12.349  11.995
65965W        W27628  22.722  25.652   3.802
65966W        W27629   8.756  32.121  12.007
65967W        W27630   0.449  26.032   0.759
65968W        W27631  37.017  16.700  10.537
65969W        W27632  11.800  15.724   0.399
65970W        W27633  44.969  37.537   0.923
65971W        W27634  23.629  41.893   0.933
65972W        W27635   8.860  33.963   4.675
65973W        W27636  17.164   8.276   2.665
65974W        W27637  13.826  40.832  12.061
65975W        W27638  19.637  25.003  10.000
65976W        W27639   8.254  34.371  12.419
65977W        W27640  34.433   2.249  11.893
65978W        W27641  17.238  16.259   2.809
65979W        W27642  23.672  19.611  11.081
65980W        W27643  23.021  14.640  11.933
65981W        W27644  30.026  34.577  13.541
65982W        W27645   8.300   5.831   1.856
65983W        W27646  33.881  10.379   4.667
65984W        W27647  28.930   1.860   3.837
65985W        W27648  31.044  39.913   3.332
65986W        W27649  36.396  43.016  11.406
65987W        W27650  18.285  21.643   4.659
65988W        W27651  44.441   4.815  10.620
65989W        W27652  13.699  24.199  11.013
65990W        W27653   7.307   4.320  14.444
65991W        W27654  39.435  19.630  14.776
65992W        W27655   1.410  31.961  11.093
65993W        W27656   1.411  44.862  10.499
65994W        W27657  43.463   2.920   0.312
65995W        W27658  43.983  33.536  10.913
65996W        W27659  26.152  11.182   4.688
65997W        W27660   8.689  37.363  10.533
65998W        W27661   4.940  44.478   4.652
65999W        W27662  39.386  26.019  12.838
66000W        W27663   5.749  34.943  10.890
66001W        W27664   9.213   7.237  11.114
66002W        W27665  39.966  38.474  14.984
66003W        W27666  40.545   5.323  11.117
66004W        W27667  40.975   8.261   5.144
66005W        W27668  17.097  34.449   2.216
66006W        W27669  11.365  35.054   0.965
66007W        W27670  33.010   3.922  13.336
66008W        W27671   5.330  44.389  14.792
66009W        W27672  19.604  43.860   2.696
66010W        W27673  30.078   1.740  12.078
66011W        W27674   3.758  25.098   9.981
66012W        W27675  31.468  20.730  12.977
66013W        W27676  31.557  19.744   1.781
66014W        W27677  20.143  23.035   3.821
66015W        W27678  39.470   5.844  12.449
66016W        W27679  10.695  41.353   0.810
66017W        W27680   9.279  29.488  12.523
66018W        W27681  41.372  24.204   0.753
66019W        W27682  23.137   5.809   0.912
66020W        W27683  31.950  17.113   3.274
66021W        W27684   1.741  38.827   0.862
66022W        W27685  30.623  26.644  11.582
66023W        W27686   7.710  37.407  10.472
66024W        W27687  33.406  20.608  11.458
66025W        W27688  23.568  25.684   1.314
66026W        W27689  30.966   2.905  14.299
66027W        W27690  30.135  27.075  12.350
66028W        W27691  19.257  12.695  14.477
66029W        W27692   1.320   2.328   4.745
66030W        W27693  44.382   8.329  11.601
66031W        W27694   1.444   4.248  13.798
66032W        W27695  18.622  41.033   4.271
66033W        W27696   3.767  33.999  10.588
66034W        W27697  15.721   2.445   4.694
66035W        W27698  24.694  10.871   0.373
66036W        W27699  32.014  34.000   1.747
66037W        W27700  13.765  26.122  10.933
66038W        W27701  13.749  32.941  11.109
66039W        W27702  29.018  31.448   2.874
66040W        W27703  21.747  37.552   3.726
66041W        W27704   6.226  20.612   3.344
66042W        W27705  11.240  26.526  10.459
66043W        W27706  25.058  10.192  13.013
66044W        W27707  44.921  35.927   3.779
66045W        W27708  14.212  34.086   3.176
66046W        W27709  10.818   0.860  11.856
66047W        W27710  11.302  44.875   0.468
66048W        W27711  39.864   0.803   4.826
66049W        W27712  41.327   6.833   1.295
66050W        W27713  20.651  37.578  14.879
66051W        W27714  31.642  13.626  11.501
66052W        W27715  17.582   7.283  11.386
66053W        W27716  30.923  34.535   5.233
66054W        W27717  26.466   2.768  11.926
66055W        W27718  34.970  41.494  14.823
66056W        W27719   7.798   9.820   2.266
66057W        W27720  34.557  20.205  12.980
66058W        W27721   7.379  16.738   4.143
66059W        W27722  18.763  24.175  13.965
66060W        W27723  18.703  17.291  14.296
66061W        W27724   6.911  33.980   2.727
66062W        W27725  21.240  13.623   4.646
66063W        W27726  24.703  33.535   0.246
66064W        W27727  37.956  33.957   1.351
66065W        W27728  30.956   8.292   1.908
66066W        W27729   6.181  25.684  10.932
66067W        W27730  40.052  11.231  13.344
66068W        W27731  41.429   8.892   2.289
66069W        W27732  23.629  40.944  12.484
66070W        W27733  31.474  44.988   2.337
66071W        W27734  22.715  31.606   0.277
66072W        W27735  15.285  26.053   4.706
66073W        W27736   4.388  41.296  14.939
66074W        W27737  27.568  15.666   0.390
66075W        W27738  41.433  15.224  11.890
66076W        W27739  28.661   9.364  11.391
66077W        W27740  20.624  12.237  11.536
66078W        W27741  22.702   7.762   0.372
66079W        W27742  38.840  29.446  12.028
66080W        W27743  26.502  21.172  14.337
66081W        W27744  41.881  22.238   4.228
66082W        W27745  20.122  36.000  11.583
66083W        W27746  10.282   3.222   2.222
66084W        W27747  43.787  23.065   4.652
66085W        W27748  44.865   7.881  14.774
66086W        W27749   5.203   0.462  11.874
66087W        W27750  32.921  17.630  13.055
66088W        W27751   8.665  37.883   2.885
66089W        W27752  34.385   6.227   0.830
66090W        W27753  13.835   2.261   1.386
66091W        W27754  23.648   6.301   0.323
66092W        W27755  21.583   4.747  12.547
66093W        W27756  27.977  44.493  11.121
66094W        W27757  40.955  23.609  11.460
66095W        W27758  21.133  37.539   4.744
66096W        W27759  25.964  43.991  10.064
66097W        W27760  23.112  31.049   3.719
66098W        W27761  28.512  33.030   2.694
66099W        W27762  16.188  44.334   2.798
66100W        W27763  30.130   6.349  13.446
66101W        W27764   9.780  34.451  10.417
66102W        W27765   0.827  44.828   0.845
66103W        W27766  41.531  20.171  10.620
66104W        W27767  10.157  40.358  12.484
66105W        W27768  35.475  30.042  11.881
66106W        W27769  24.058   6.752   3.226
66107W        W27770   8.831  10.806   3.723
66108W        W27771  16.592  40.533  14.886
66109W        W27772  32.602  30.938   3.730
66110W        W27773  21.512   0.394   1.910
66111W        W27774   2.960  24.137  13.361
66112W        W27775  23.240   3.866   1.253
66113W        W27776  17.732  32.421  10.479
66114W        W27777  28.672  17.635   2.196
66115W        W27778  13.105  30.594  13.827
66116W        W27779  43.957  14.796   3.153
66117W        W27780  26.573   0.986  11.918
66118W        W27781  30.561  40.407   2.890
66119W        W27782   9.242  11.746   4.833
66120W        W27783   3.263  16.141   1.360
66121W        W27784   0.959   3.765   2.272
66122W        W27785  14.675  12.720  10.594
66123W        W27786   4.752  17.301   0.333
66124W        W27787   7.842  33.878   0.812
66125W        W27788   2.918   4.929  10.502
66126W        W27789  38.442  34.105  11.010
66127W        W27790   7.854  35.394   1.394
66128W        W27791  33.406  31.505   2.838
66129W        W27792   2.804  19.142  10.920
66130W        W27793  42.288  41.810   4.713
66131W        W27794  16.696  43.508  14.965
66132W        W27795  35.027   0.944   4.674
66133W        W27796  35.459  21.104  13.929
66134W        W27797  20.607  10.770   2.355
66135W        W27798   4.913  42.291  12.932
66136W        W27799  31.435   9.742  12.925
66137W        W27800  27.580  20.567   3.634
66138W        W27801  31.611  21.159   3.218
66139W        W27802  18.168  15.231   3.858
66140W        W27803  40.452  27.659   4.256
66141W        W27804  30.629   7.696  14.929
66142W        W27805  11.126   5.851   1.227
66143W        W27806   8.896  23.035   2.667
66144W        W27807   1.826  43.885  13.887
66145W        W27808   7.346  37.865   0.804
66146W        W27809  18.785  19.039   4.807
66147W        W27810  11.306  11.298  14.015
66148W        W27811  31.480  44.850  12.893
66149W        W27812  23.125  20.116   4.170
66150W        W27813  23.182  22.702  14.378
66151W        W27814  44.928   7.388   1.710
66152W        W27815  25.205  39.366   1.352
66153W        W27816   1.413   9.315   0.430
66154W        W27817   3.712  35.584  11.004
66155W        W27818  40.373  32.909   4.164
66156W        W27819  33.405  21.578   3.283
66157W        W27820  30.955  34.115   3.816
66158W        W27821  32.603  44.302  13.876
66159W        W27822  21.731  10.648   4.780
66160W        W27823  36.530   2.781  13.833
66161W        W27824  42.419  20.653  12.541
66162W        W27825   2.723  34.000   2.255
66163W        W27826  29.167  18.576  12.474
66164W        W27827  32.905   8.375   0.893
66165W        W27828  20.131   4.861  14.026
66166W        W27829   1.804  19.190  12.956
66167W        W27830  35.525  30.947   2.858
66168W        W27831   6.410  29.002  11.034
66169W        W27832  13.614  29.103  14.487
66170W        W27833  28.462  42.518   1.919
66171W        W27834  15.323   7.683   2.193
66172W        W27835  28.639   0.863  12.459
66173W        W27836  30.965   2.941   4.220
66174W        W27837  28.064  12.117  12.027
66175W        W27838  28.110  24.684   3.681
66176W        W27839   5.285  18.251   0.783
66177W        W27840  33.440  13.779  11.372
66178W        W27841  34.413  39.434  14.989
66179W        W27842  24.053  29.512   4.154
66180W        W27843  41.460  16.116   3.776
66181W        W27844  15.281  31.442   0.479
66182W        W27845  28.595  10.677  10.903
66183W        W27846  20.188  12.713  11.599
66184W        W27847  17.220   1.971  11.077
66185W        W27848  41.474   7.838  10.995
66186W        W27849  25.100  11.625   2.723
66187W        W27850  18.093  28.140   3.258
66188W        W27851  13.141  26.013  13.916
66189W        W27852  34.865   0.478   1.278
66190W        W27853  24.513  43.327  11.989
66191W        W27854   2.856  21.174  11.474
66192W        W27855   2.724  17.115   1.239
66193W        W27856  36.543   0.855  13.334
66194W        W27857   8.333  28.966  10.614
66195W        W27858  23.628   5.389   4.192
66196W        W27859  26.170  19.676   0.315
66197W        W27860   7.300  21.070   2.197
66198W        W27861  24.133  28.021   1.805
66199W        W27862  41.815   9.326   3.757
66200W        W27863  24.714  20.611   2.301
66201W        W27864  29.140  44.322  14.810
66202W        W27865  20.242   0.923   0.953
66203W        W27866   2.351   5.809  10.965
66204W        W27867  30.126   9.690  11.518
66205W        W27868  16.752   2.920  11.939
66206W        W27869  16.142  25.106   1.370
66207W        W27870  27.964   6.347   5.199
66208W        W27871  34.417  38.065  12.446
66209W        W27872  26.489  43.956   1.732
66210W        W27873   9.337  13.161  10.565
66211W        W27874  38.490  15.108   1.729
66212W        W27875  14.196  41.986  14.929
66213W        W27876  41.453  18.271   3.867
66214W        W27877  31.643   4.335  10.991
66215W        W27878  22.535   3.283  13.502
66216W        W27879  11.157  38.489  13.385
66217W        W27880  16.253  14.729  14.966
66218W        W27881  21.683  37.380  11.389
66219W        W27882   3.820  40.466  10.011
66220W        W27883  15.142  17.144   0.357
66221W        W27884  26.643  34.506   2.190
66222W        W27885   4.810  40.425   4.282
66223W        W27886  25.655  17.205  10.418
66224W        W27887  10.701   1.481  10.478
66225W        W27888  44.359   1.958  14.348
66226W        W27889  12.152  28.542   3.697
66227W        W27890  17.087  11.141   4.330
66228W        W27891  34.396   9.791  12.468
66229W        W27892  22.159  26.030  13.358
66230W        W27893  13.267  27.521   1.770
66231W        W27894   8.236   7.790   2.763
66232W        W27895  15.632  17.158   0.300
66233W        W27896   8.867  21.173   3.379
66234W        W27897  37.993  32.530  12.503
66235W        W27898  31.124  33.503  13.901
66236W        W27899  44.396   7.733  13.817
66237W        W27900  33.957  26.577   5.089
66238W        W27901  16.310   8.346  10.642
66239W        W27902   0.980  10.672  11.605
66240W        W27903  31.915  20.525   3.346
66241W        W27904  14.305  24.625   4.155
66242W        W27905  33.583  35.543   4.164
66243W        W27906  11.672  38.980   1.218
66244W        W27907  23.024  43.991   2.861
66245W        W27908  11.841  21.572  13.957
66246W        W27909  26.063  28.486  13.859
66247W        W27910   0.424  28.525  11.054
66248W        W27911   3.865  33.519  11.873
66249W        W27912  20.225  36.966  14.408
66250W        W27913   5.814  31.511   0.397
66251W        W27914  42.891  23.993  11.539
66252W        W27915   9.732  18.247  12.423
66253W        W27916  39.971  37.573   4.726
66254W        W27917  14.188  43.501  11.469
66255W        W27918  12.758  15.734   0.944
66256W        W27919   4.724  37.886   1.442
66257W        W27920   4.219   8.327   4.833
66258W        W27921   9.383  33.128  14.450
66259W        W27922  40.455  40.411   0.400
66260W        W27923  13.171  29.933  11.102
66261W        W27924  37.082  15.154   2.417
66262W        W27925  37.037   1.356  14.759
66263W        W27926  13.161  37.419   1.302
66264W        W27927  18.137  15.258  14.403
66265W        W27928  39.517  32.084   3.222
66266W        W27929  10.863   8.771   4.116
66267W        W27930  42.794  15.628   4.647
66268W        W27931  21.224  29.943   2.365
66269W        W27932  28.140  23.632   5.102
66270W        W27933  12.316  23.190   2.313
66271W        W27934  31.440  13.643   1.325
66272W        W27935  22.562  11.747  12.526
66273W        W27936   6.923  32.121  14.339
66274W        W27937  39.314   6.676  14.896
66275W        W27938   9.669   6.345  13.891
66276W        W27939  15.095  36.540   1.799
66277W        W27940   6.903  32.100  11.051
66278W        W27941  42.408  33.086   1.922
66279W        W27942  26.091  41.926   2.188
66280W        W27943  12.630  42.812   2.192
66281W        W27944  36.417  19.217  13.396
66282W        W27945  29.596  24.702  11.405
66283W        W27946  26.503  13.613  12.892
66284W        W27947  17.634  38.374   3.790
66285W        W27948   8.397  30.556   4.330
66286W        W27949   0.815  41.919   1.404
66287W        W27950  35.989   5.426  14.928
66288W        W27951  17.274   9.788  10.459
66289W        W27952  32.441  24.508   0.872
66290W        W27953   1.960  32.396  14.816
66291W        W27954  11.221  15.686  14.838
66292W        W27955  33.383  11.853  12.927
66293W        W27956   6.203  32.024  10.407
66294W        W27957  10.659   3.777   0.361
66295W        W27958  42.858  42.471   1.382
66296W        W27959   2.450  41.977  11.989
66297W        W27960   4.252  36.983   4.188
66298W        W27961  19.228  21.207   3.210
66299W        W27962  41.797  11.798   1.415
66300W        W27963  32.963   1.750   2.891
66301W        W27964  29.660  17.571  11.405
66302W        W27965  31.146  19.763  11.433
66303W        W27966  42.438   4.921  11.905
66304W        W27967  31.927  22.172   3.359
66305W        W27968  21.189  28.629   4.722
66306W        W27969  34.063  31.648   3.752
66307W        W27970  28.106  17.088  13.894
66308W        W27971  40.902  13.135  10.041
66309W        W27972  14.814   5.869   3.810
66310W        W27973  15.127  28.003   3.159
66311W        W27974  28.016  20.266   0.273
66312W        W27975  34.957  42.402  13.412
66313W        W27976  28.593  43.510   3.301
66314W        W27977  22.612  33.604   5.111
66315W        W27978   3.898   1.372  11.997
66316W        W27979  31.009   7.397  12.473
66317W        W27980  30.499   0.949   2.700
66318W        W27981  38.820  31.616  12.490
66319W        W27982   3.245  17.698   2.801
66320W        W27983  42.419   7.729  12.386
66321W        W27984  27.567  13.212   3.356
66322W        W27985  43.938  38.872   3.841
66323W        W27986  18.545   8.702  10.620
66324W        W27987   1.867   5.906  12.479
66325W        W27988  21.151  34.976   1.793
66326W        W27989  23.145  43.360  13.792
66327W        W27990  11.205  16.139   2.404
66328W        W27991  30.050  27.681  11.435
66329W        W27992  38.992  10.824  11.556
66330W        W27993  13.227  42.499  13.311
66331W        W27994  41.357  33.590   3.192
66332W        W27995  44.317  24.575   4.830
66333W        W27996  14.340  14.319  12.829
66334W        W27997  19.661  21.046   1.211
66335W        W27998  18.751   5.774  10.948
66336W        W27999  23.658  16.582  14.938
66337W        W28000  29.461  33.412  12.954
66338W        W28001  20.651   3.311   0.734
66339W        W28002  32.532  12.309   3.185
66340W        W28003  40.420   1.732   5.093
66341W        W28004  32.507  31.963  14.456
66342W        W28005  33.451  42.452  13.375
66343W        W28006  37.400  23.717  12.093
66344W        W28007   3.441   2.813   1.805
66345W        W28008   0.834   4.406  10.895
66346W        W28009   3.845  18.137   4.152
66347W        W28010  12.726  18.058   1.717
66348W        W28011   8.737  35.106  13.941
66349W        W28012  37.548  12.741   0.422
66350W        W28013  40.494  34.370   9.945
66351W        W28014  27.105   8.798   4.768
66352W        W28015  44.341  23.730   4.634
66353W        W28016   9.784  10.642   5.722
66354W        W28017  44.478  32.523   3.855
66355W        W28018  10.741  11.676  10.917
66356W        W28019  11.664   8.221   2.684
66357W        W28020  33.550   7.317   1.211
66358W        W28021  39.970  16.614  12.561
66359W        W28022   0.772   9.696  11.435
66360W        W28023  41.886  22.017  11.993
66361W        W28024  17.588  15.709  11.926
66362W        W28025  18.078  35.442  12.471
66363W        W28026   6.386   8.817   4.150
66364W        W28027  25.691   7.207   4.790
66365W        W28028  38.885  37.463   3.729
66366W        W28029  18.244   3.710   0.906
66367W        W28030  19.542   7.208   0.443
66368W        W28031  24.147  36.087   4.819
66369W        W28032  33.496  36.025   1.343
66370W        W28033  43.959  12.720   2.228
66371W        W28034  26.689  33.114   2.690
66372W        W28035  43.515  38.527  12.539
66373W        W28036   6.862   2.782   1.740
66374W        W28037  36.936  20.096  13.003
66375W        W28038  40.891  38.836   0.269
66376W        W28039  21.154  33.385   4.692
66377W        W28040  35.490  39.330  12.000
66378W        W28041  36.386  28.137  11.990
66379W        W28042  42.898   3.751   2.178
66380W        W28043  23.664  41.806   2.210
66381W        W28044  37.834  29.031   4.166
66382W        W28045  38.385  33.607  13.334
66383W        W28046  39.959  23.731  10.518
66384W        W28047  27.181   3.289  14.276
66385W        W28048  24.067   0.890   4.616
66386W        W28049  40.348   5.322  11.534
66387W        W28050  39.930  30.525  14.875
66388W        W28051  27.145  23.531  11.384
66389W        W28052   8.753  18.174   0.879
66390W        W28053  26.995   6.877   2.732
66391W        W28054   1.903   0.790   2.386
66392W        W28055  16.734  19.537  11.111
66393W        W28056  12.719   7.816  14.782
66394W        W28057  42.911  24.058  13.467
66395W        W28058   8.724  18.150  14.877
66396W        W28059   3.901   1.427   2.208
66397W        W28060  24.209   9.693   0.428
66398W        W28061  33.892   5.380   1.319
66399W        W28062   1.435  38.378   1.855
66400W        W28063  25.070  31.526  10.976
66401W        W28064  18.737  15.682  13.925
66402W        W28065   1.947  42.298  12.460
66403W        W28066  25.026  15.767   2.346
66404W        W28067   4.799  22.108   4.779
66405W        W28068   2.386   2.897  14.372
66406W        W28069   7.890   1.956  13.040
66407W        W28070   4.771  25.575  13.943
66408W        W28071  38.449  24.641   2.696
66409W        W28072   4.844  22.659  11.982
66410W        W28073   0.908  44.444  13.429
66411W        W28074  26.952   9.312   0.392
66412W        W28075  25.699  12.173   0.964
66413W        W28076  36.069   3.829  10.947
66414W        W28077  30.515   1.878   2.193
66415W        W28078  26.606  13.348   5.085
66416W        W28079  41.450   0.809   2.679
66417W        W28080   5.223  44.341  10.565
66418W        W28081  33.422  27.565  12.526
66419W        W28082   9.264  14.704  11.536
66420W        W28083  41.878  22.747   3.157
66421W        W28084  28.954  31.901  14.974
66422W        W28085  34.592  21.636   9.921
66423W        W28086  38.897  14.167  13.414
66424W        W28087  33.921  18.135   3.822
66425W        W28088  36.575  36.014  14.343
66426W        W28089   4.804  35.392   3.267
66427W        W28090   9.665  25.207   0.740
66428W        W28091  26.953  13.789   4.762
66429W        W28092   7.262  13.183  14.839
66430W        W28093  43.788  18.551   4.813
66431W        W28094  33.513  35.588  10.439
66432W        W28095  38.460  30.638  11.907
66433W        W28096  44.378  23.730  13.373
66434W        W28097  15.731  34.076  10.492
66435W        W28098  14.677  20.050  13.949
66436W        W28099  18.665  19.230   1.341
66437W        W28100  20.245  16.605   0.249
66438W        W28101   8.896  11.217   3.707
66439W        W28102   4.416  28.548   2.242
66440W        W28103  42.325  10.307   2.668
66441W        W28104  44.824  33.941  12.985
66442W        W28105  14.698  12.682  13.528
66443W        W28106  39.529  43.789  12.863
66444W        W28107  41.350  33.884   2.354
66445W        W28108  13.213  40.534   1.383
66446W        W28109  40.436  14.643  14.420
66447W        W28110  12.771   7.206  14.510
66448W        W28111  16.740   0.490   4.281
66449W        W28112   6.739  23.689   0.732
66450W        W28113   7.227  22.193  12.033
66451W        W28114  31.057  31.422   4.147
66452W        W28115  14.286  11.806  14.512
66453W        W28116  21.248  29.478   2.343
66454W        W28117  15.137  22.631   0.467
66455W        W28118  38.985  30.642  11.865
66456W        W28119  40.323  34.061  14.001
66457W        W28120  41.905  11.644  11.072
66458W        W28121  21.710   2.893  12.451
66459W        W28122  11.822  26.009   1.316
66460W        W28123   7.189  35.497   3.346
66461W        W28124  25.534  39.494  12.519
66462W        W28125  37.369  16.089  11.874
66463W        W28126  38.041   6.803  14.974
66464W        W28127   5.353  28.139  13.965
66465W        W28128  29.475  14.793   0.243
66466W        W28129  17.588   8.811  10.996
66467W        W28130   0.392  27.178  14.869
66468W        W28131  31.955  13.694   3.309
66469W        W28132   0.391  26.161  12.932
66470W        W28133  28.930  23.582   1.887
66471W        W28134  41.340  39.325  12.559
66472W        W28135  11.776  14.231  13.372
66473W        W28136  36.872  22.062   2.673
66474W        W28137  41.521  39.064   3.158
66475W        W28138  13.735  43.958   1.366
66476W        W28139  27.620  38.905   3.310
66477W        W28140  22.071  33.564  11.021
66478W        W28141  11.168   1.756   2.809
66479W        W28142  14.685   0.425   2.697
66480W        W28143   1.345   1.968  14.295
66481W        W28144  23.642  34.588  12.993
66482W        W28145   6.245  34.586  13.889
66483W        W28146  10.658  30.072  10.634
66484W        W28147  29.660   6.191  14.297
66485W        W28148  16.178  31.630   3.145
66486W        W28149  26.526   1.316   0.848
66487W        W28150  22.703  15.729  12.364
66488W        W28151   4.346  21.191   4.252
66489W        W28152  36.400   0.335   0.964
66490W        W28153  38.354   3.258   4.314
66491W        W28154  35.357  24.602  14.859
66492W        W28155   3.233  36.897  11.065
66493W        W28156  39.368  20.267  10.560
66494W        W28157  29.010  34.474   0.965
66495W        W28158   6.751  23.507   2.883
66496W        W28159   6.908  32.549  12.993
66497W        W28160  27.190  18.779  11.392
66498W        W28161   7.783  17.636   4.224
66499W        W28162  42.032  36.552  13.369
66500W        W28163  17.228  43.015  10.466
66501W        W28164   4.777  23.190   4.217
66502W        W28165  29.639   1.464  13.886
66503W        W28166  23.717  35.512   1.401
66504W        W28167  31.130  44.303  10.907
66505W        W28168  34.929  24.681  12.418
66506W        W28169   3.712  28.503  13.435
66507W        W28170   0.793   2.850  14.310
66508W        W28171   5.835  14.199   4.623
66509W        W28172   4.916   6.688   0.427
66510W        W28173  27.088  20.666   0.448
66511W        W28174  27.050  22.646   2.362
66512W        W28175  29.121   6.326   0.372
66513W        W28176  35.864   9.191   0.801
66514W        W28177  12.204   4.782   4.325
66515W        W28178  13.159  30.145   1.309
66516W        W28179  44.880  12.626   3.171
66517W        W28180   4.377  33.966  11.416
66518W        W28181  12.247  33.890   2.211
66519W        W28182  31.921   4.312   4.803
66520W        W28183   3.808  19.225   4.826
66521W        W28184   6.819   0.249  14.891
66522W        W28185  21.534  30.457  12.468
66523W        W28186   2.960   4.853  12.043
66524W        W28187   3.348  22.620   5.247
66525W        W28188  40.522  44.494   4.820
66526W        W28189   5.732  23.695  10.480
66527W        W28190  39.861  11.661  12.880
66528W        W28191  43.908   3.851  10.462
66529W        W28192  44.975  42.800   4.797
66530W        W28193  20.197  10.782  11.908
66531W        W28194  35.011  14.296  14.029
66532W        W28195  31.973  32.974   3.650
66533W        W28196  18.715  29.576  12.938
66534W        W28197  29.519  21.705   3.750
66535W        W28198  23.518  41.509   0.781
66536W        W28199   2.756  19.242   2.234
66537W        W28200  13.742  39.500  12.458
66538W        W28201  43.337  16.809  13.009
66539W        W28202  27.142  27.477  11.911
66540W        W28203   7.694   1.359   1.748
66541W        W28204  10.706  44.269   0.839
66542W        W28205  20.671  12.803   4.777
66543W        W28206  42.853  16.620   2.756
66544W        W28207   2.839  43.790   3.200
66545W        W28208  31.617  28.984   1.285
66546W        W28209  44.889  41.472   2.806
66547W        W28210  40.316   8.317   2.735
66548W        W28211   9.780   8.861  10.025
66549W        W28212  15.139  41.472  14.852
66550W        W28213  20.230  28.634   1.730
66551W        W28214  15.233  35.015   0.858
66552W        W28215  14.265   5.887   1.326
66553W        W28216  31.638   5.711  12.855
66554W        W28217  23.029  16.307   2.684
66555W        W28218   3.300  10.821  12.888
66556W        W28219  44.876   3.763   4.231
66557W        W28220  23.156  33.118   0.906
66558W        W28221  36.938   4.803   2.829
66559W        W28222  32.470  40.397   3.739
66560W        W28223  26.691  44.945  10.916
66561W        W28224  13.617  13.294   0.826
66562W        W28225  26.599   7.361  13.404
66563W        W28226   6.920  30.936  13.396
66564W        W28227  39.006  30.631   2.275
66565W        W28228  11.814  16.197   2.759
66566W        W28229  30.965  11.770  14.376
66567W        W28230   1.911  43.440   3.659
66568W        W28231  10.314  36.056   4.322
66569W        W28232  17.067  13.767  13.522
66570W        W28233  26.139  26.122   3.791
66571W        W28234  15.206  20.598   1.216
66572W        W28235  12.181  21.211   2.733
66573W        W28236  26.624  26.475   5.163
66574W        W28237  37.432  35.524   1.873
66575W        W28238  16.740  14.290   9.495
66576W        W28239  32.013  11.186   0.757
66577W        W28240  31.136   5.750  12.562
66578W        W28241  29.456   3.838   3.295
66579W        W28242   9.824  30.951  11.388
66580W        W28243  22.084  44.435  12.046
66581W        W28244  38.560   4.827  12.496
66582W        W28245  22.543  24.067  14.282
66583W        W28246  33.587  30.986  13.488
66584W        W28247  42.419   0.812   4.689
66585W        W28248  14.693   4.730   3.717
66586W        W28249   4.272  17.081   2.204
66587W        W28250   7.342   4.278   2.772
66588W        W28251  10.142  44.449  10.901
66589W        W28252  16.205  25.215   3.798
66590W        W28253  33.953   1.817   3.248
66591W        W28254   2.401  23.111   1.218
66592W        W28255  19.751  10.269   1.434
66593W        W28256  31.153  21.584   3.773
66594W        W28257   8.308  10.789  14.805
66595W        W28258   3.284  25.588  12.949
66596W        W28259   4.823  38.903  10.458
66597W        W28260  31.097  14.821   4.739
66598W        W28261  15.202  22.056  14.014
66599W        W28262  24.531  31.089   0.358
66600W        W28263  24.558  34.870  10.432
66601W        W28264   8.225   4.776   4.617
66602W        W28265  12.199   2.313   3.253
66603W        W28266  35.001  29.475   3.686
66604W        W28267  24.037  23.522   2.740
66605W        W28268  20.619   0.875  13.412
66606W        W28269   9.847  43.980   3.351
66607W        W28270  10.664  16.775  12.860
66608W        W28271  30.054  40.481   1.807
66609W        W28272  43.333  19.190  14.486
66610W        W28273  43.499  39.896  14.956
66611W        W28274  36.526  17.597  14.917
66612W        W28275  17.565   0.824  11.481
66613W        W28276   1.317  33.608   1.927
66614W        W28277  43.924  20.596  13.888
66615W        W28278  30.445  35.106   0.291
66616W        W28279  35.860   5.892  12.847
66617W        W28280  28.930   4.923   3.637
66618W        W28281  37.913   2.411   3.792
66619W        W28282  10.874  10.287   4.180
66620W        W28283  42.367   5.893   2.665
66621W        W28284   1.926  25.966   1.416
66622W        W28285   5.238  38.828   0.860
66623W        W28286  41.393   4.922   1.810
66624W        W28287  26.986   1.959  10.448
66625W        W28288  35.890  12.845   0.860
66626W        W28289  39.913  43.000  12.445
66627W        W28290  32.447  18.789  14.901
66628W        W28291  44.263  42.347  14.827
66629W        W28292  30.038  12.190  11.920
66630W        W28293   2.339  29.600   3.171
66631W        W28294  33.082  16.294   2.361
66632W        W28295  37.540  15.690  14.003
66633W        W28296  28.134  24.140   4.779
66634W        W28297  27.620  10.702   2.195
66635W        W28298  44.406  17.577   1.439
66636W        W28299  43.939  44.821  14.889
66637W        W28300  42.327   4.812  14.454
66638W        W28301  23.551   6.830   2.832
66639W        W28302   3.254  40.536   1.925
66640W        W28303   4.896  13.284   1.231
66641W        W28304  11.659  40.858   1.219
66642W        W28305  43.838  39.021  14.304
66643W        W28306  39.538   5.408   1.260
66644W        W28307   0.742  13.709  12.359
66645W        W28308  13.263   4.905  13.058
66646W        W28309  21.114  24.484  13.532
66647W        W28310  14.599  14.646   0.898
66648W        W28311  13.729   4.845  13.350
66649W        W28312   5.893  18.162  10.503
66650W        W28313   1.352  16.724  12.411
66651W        W28314  15.167  14.271   2.774
66652W        W28315  24.028  24.211   2.312
66653W        W28316  26.690  42.450  12.086
66654W        W28317  39.925  39.869   2.317
66655W        W28318  17.692  40.524  12.032
66656W        W28319  24.716  24.178  14.882
66657W        W28320  19.740  20.138  11.954
66658W        W28321   1.740  10.281   0.789
66659W        W28322  35.524   7.677  11.537
66660W        W28323   5.914  10.370   3.263
66661W        W28324  28.018  13.170  12.414
66662W        W28325   6.360   0.264   0.288
66663W        W28326   2.406  12.710   2.408
66664W        W28327  31.997   8.308   5.251
66665W        W28328   0.840  14.789  10.152
66666W        W28329  30.522  40.931   0.423
66667W        W28330  25.999   2.747   2.857
66668W        W28331  32.976   8.703  11.419
66669W        W28332  29.074  31.124  11.578
66670W        W28333  41.489  13.186   3.842
66671W        W28334  38.445  15.193  14.432
66672W        W28335  43.393  35.943  11.941
66673W        W28336  33.411  11.217   2.881
66674W        W28337   8.721  29.052   0.376
66675W        W28338   6.687   5.243  12.891
66676W        W28339  23.659  14.787  12.866
66677W        W28340  24.169  18.723  11.870
66678W        W28341  39.861   2.861  12.501
66679W        W28342  33.934  11.264  12.505
66680W        W28343  18.122  41.877  14.371
66681W        W28344  21.629  36.382   4.772
66682W        W28345  15.666  12.645   1.445
66683W        W28346  44.939  37.048  11.098
66684W        W28347  26.578   5.410   0.951
66685W        W28348  25.088  17.610   1.873
66686W        W28349  42.920   6.893   1.892
66687W        W28350  29.523  27.068   4.210
66688W        W28351   7.331   0.814   3.264
66689W        W28352  41.457  30.091  10.534
66690W        W28353   2.736  25.698  11.985
66691W        W28354  11.837  33.125   1.917
66692W        W28355  40.549   0.401   2.204
66693W        W28356  32.038  32.968  11.436
66694W        W28357  25.074  18.151  13.543
66695W        W28358  32.010  29.592   4.131
66696W        W28359  42.952  19.083  10.928
66697W        W28360  22.182  23.715  10.067
66698W        W28361  22.999   8.247   4.287
66699W        W28362  20.620  42.809   2.750
66700W        W28363   1.443  31.918  13.932
66701W        W28364  19.249   9.331  13.831
66702W        W28365   4.223  31.485  11.489
66703W        W28366  29.588   8.795  10.607
66704W        W28367  22.508   3.824  11.944
66705W        W28368  32.627  41.793  13.871
66706W        W28369  13.278  34.451   1.858
66707W        W28370  38.352   2.895  12.891
66708W        W28371  25.593  22.134  11.593
66709W        W28372  11.338  25.674   2.811
66710W        W28373   3.725  26.513   1.835
66711W        W28374  38.351  32.111  12.561
66712W        W28375  14.713   5.750   2.335
66713W        W28376  26.157  37.873   3.737
66714W        W28377  16.803  39.839   4.736
66715W        W28378  31.130  10.140   1.766
66716W        W28379  35.548  29.123  14.284
66717W        W28380  19.565  37.509   3.780
66718W        W28381  37.898   3.395   1.276
66719W        W28382  20.086  15.761   0.820
66720W        W28383  26.193  42.520  14.360
66721W        W28384  19.637   7.790   4.799
66722W        W28385   9.279  15.160  14.831
66723W        W28386  43.328  39.881  10.583
66724W        W28387  40.805  40.858   2.878
66725W        W28388   7.727   0.882  13.058
66726W        W28389  16.117  41.937   0.922
66727W        W28390  37.027  19.673  14.013
66728W        W28391  24.563  18.264   4.657
66729W        W28392  27.126  25.579  14.287
66730W        W28393  22.132  29.615  10.589
66731W        W28394   4.912  33.925  11.443
66732W        W28395   4.362  23.099   2.669
66733W        W28396  13.176  13.198  10.891
66734W        W28397  27.049  18.276  11.904
66735W        W28398   9.740   3.867  12.426
66736W        W28399  14.169   7.893   4.658
66737W        W28400  20.121  38.426   3.220
66738W        W28401  12.359   0.276  11.093
66739W        W28402  11.683  13.683  11.891
66740W        W28403   8.379  12.621   4.810
66741W        W28404  41.842   8.181   0.353
66742W        W28405   3.254   8.670  11.496
66743W        W28406   8.676  19.112  14.431
66744W        W28407   7.899   9.243   3.354
66745W        W28408  15.105  27.083  10.933
66746W        W28409  22.251  33.081   2.298
66747W        W28410  13.656  13.285   3.867
66748W        W28411  22.695  18.720   0.337
66749W        W28412  22.186  18.566  12.953
66750W        W28413  34.501  37.388  11.421
66751W        W28414  38.013  36.859   1.791
66752W        W28415  41.326   6.776  12.407
66753W        W28416  19.738   2.956   3.359
66754W        W28417  35.543   6.389  14.511
66755W        W28418  44.494  30.563   2.280
66756W        W28419  27.197  31.449  12.433
66757W        W28420  29.538  25.993  12.447
66758W        W28421  40.498  42.849  13.021
66759W        W28422  21.549  43.277  13.975
66760W        W28423  35.534  24.551  10.974
66761W        W28424   8.305   4.264   3.828
66762W        W28425  33.981  24.507  10.155
66763W        W28426  19.575  41.985  11.569
66764W        W28427   1.904  30.102   1.725
66765W        W28428  16.271   5.839   2.303
66766W        W28429   7.249  19.624   5.090
66767W        W28430  29.943   3.394  10.552
66768W        W28431  29.618  12.716   2.688
66769W        W28432  33.466  15.804  10.093
66770W        W28433  19.200  17.642   1.261
66771W        W28434  32.391   6.719  13.791
66772W        W28435  13.683   8.672   4.123
66773W        W28436  25.508  32.570   4.743
66774W        W28437  36.472  39.057   0.749
66775W        W28438  14.280  16.165   2.233
66776W        W28439   1.237   1.368  13.431
66777W        W28440  42.414  43.396  11.560
66778W        W28441  15.312  21.745   2.384
66779W        W28442   3.354   3.883  12.437
66780W        W28443  38.005  27.126   2.831
66781W        W28444  29.927  21.020  13.844
66782W        W28445  36.457   3.813  10.968
66783W        W28446  13.751  16.571  13.860
66784W        W28447  23.591  14.735   0.336
66785W        W28448  42.404  44.398  14.785
66786W        W28449  31.917   8.226  13.043
66787W        W28450  37.882  17.563  12.945
66788W        W28451  13.324  11.233   2.259
66789W        W28452  19.274  23.575   1.258
66790W        W28453   2.823   4.242  11.525
66791W        W28454  29.097  37.913  12.910
66792W        W28455  30.630  15.199   1.924
66793W        W28456  13.803  30.139   0.841
66794W        W28457   8.833  41.376  14.807
66795W        W28458  40.507  25.197   2.676
66796W        W28459  26.158  17.616  11.905
66797W        W28460   0.967  12.277  10.987
66798W        W28461  31.052  10.780   0.470
66799W        W28462   2.786  42.473  12.009
66800W        W28463   5.247   9.222  12.038
66801W        W28464  20.769  39.538  11.495
66802W        W28465  41.467  14.324   3.373
66803W        W28466   4.918  35.103   5.265
66804W        W28467  40.919   7.386  14.419
66805W        W28468   7.373  11.248  13.001
66806W        W28469   1.911  29.983  13.039
66807W        W28470  28.072  36.424   2.238
66808W        W28471   8.308  42.471   3.371
66809W        W28472  38.568  16.605  11.424
66810W        W28473  39.940  17.649   2.721
66811W        W28474  17.241  42.452   2.206
66812W        W28475  21.682   4.789  11.041
66813W        W28476  21.536  10.242   2.811
66814W        W28477  20.744   8.821   2.381
66815W        W28478  43.011  42.984   2.721
66816W        W28479  22.043  37.427  10.551
66817W        W28480  20.204  18.235  10.913
66818W        W28481   1.302  44.811  14.291
66819W        W28482  33.953  42.421   0.739
66820W        W28483   6.210  17.625  14.492
66821W        W28484  19.625   9.177  13.037
66822W        W28485  43.772  22.112   0.430
66823W        W28486  39.929  34.411  13.428
66824W        W28487  30.659  14.831  13.316
66825W        W28488  39.929  19.560  14.432
66826W        W28489  31.507  31.899   2.274
66827W        W28490  14.703  19.648   3.249
66828W        W28491  10.866  19.539   0.848
66829W        W28492  33.937  15.111  12.885
66830W        W28493  28.160   8.338  13.402
66831W        W28494  39.902   0.282   3.294
66832W        W28495   1.777  23.559  12.553
66833W        W28496  16.199  42.878   0.932
66834W        W28497   2.230  32.557  13.971
66835W        W28498  16.116  43.782   2.412
66836W        W28499   1.828   4.403   3.272
66837W        W28500   8.772   4.759   1.894
66838W        W28501  36.549  23.641   4.326
66839W        W28502   5.438   2.733  10.502
66840W        W28503  19.081  40.522  10.930
66841W        W28504   6.211  14.663  12.904
66842W        W28505   9.192  32.026   3.153
66843W        W28506  32.475  21.738   2.268
66844W        W28507  24.627  22.552   0.785
66845W        W28508  15.711   5.898  11.127
66846W        W28509  35.034  25.568   3.332
66847W        W28510  10.235  13.828  12.998
66848W        W28511  27.040  17.632  13.465
66849W        W28512  11.650   2.373  14.017
66850W        W28513  31.533  26.118  13.836
66851W        W28514  18.061  29.077  11.442
66852W        W28515   2.761  20.547   3.747
66853W        W28516  39.837  13.267  11.863
66854W        W28517  35.413  10.257   3.204
66855W        W28518  40.003  21.106   1.291
66856W        W28519  38.531  39.383   2.733
66857W        W28520  16.657  13.251  13.834
66858W        W28521   6.412  40.434  12.495
66859W        W28522  30.651  38.366  12.558
66860W        W28523  31.081  26.061  12.453
66861W        W28524  24.998  39.956  13.910
66862W        W28525  39.851  27.670   0.740
66863W        W28526  29.643  13.112   4.754
66864W        W28527  32.557  38.505   3.302
66865W        W28528  14.223  32.592   3.298
66866W        W28529  22.706  24.999   5.703
66867W        W28530  28.555  14.805  13.861
66868W        W28531  14.230  26.663  13.900
66869W        W28532   4.781   2.733  12.995
66870W        W28533  22.044  17.107   4.615
66871W        W28534   8.887   3.945   0.278
66872W        W28535  39.353  36.084  12.013
66873W        W28536  43.387  28.967  12.500
66874W        W28537  23.714   3.887  14.870
66875W        W28538  30.143  33.448  11.417
66876W        W28539  13.806  25.035   3.245
66877W        W28540  17.753  17.731  11.411
66878W        W28541  33.387  17.791  10.986
66879W        W28542  19.581  24.998   0.331
66880W        W28543  28.117  12.196  14.945
66881W        W28544  30.565   6.894  13.946
66882W        W28545  32.984  17.766   0.887
66883W        W28546  18.148  43.015   0.410
66884W        W28547  30.026  36.924   3.784
66885W        W28548  30.977  24.585  11.447
66886W        W28549  44.363  37.070   1.707
66887W        W28550   5.716  28.491  11.377
66888W        W28551   1.245   6.414  11.007
66889W        W28552  18.742  33.432  11.460
66890W        W28553  14.717  29.005  10.465
66891W        W28554   1.822  26.959   2.244
66892W        W28555  30.982  33.110   1.871
66893W        W28556  37.907   7.199   5.166
66894W        W28557  22.067  38.967  11.026
66895W        W28558  20.677  40.903   2.260
66896W        W28559  41.292  34.450   4.667
66897W        W28560   8.894  25.028   4.599
66898W        W28561  18.589   6.348   0.370
66899W        W28562   9.878   9.890  13.906
66900W        W28563  44.984  24.988  11.125
66901W        W28564  25.070   3.950   9.977
66902W        W28565  24.690  29.531   4.688
66903W        W28566   9.297  40.440  14.466
66904W        W28567  34.038   2.340   3.678
66905W        W28568  13.670  36.989   0.295
66906W        W28569   5.784  32.085   0.282
66907W        W28570  27.588  33.467   1.784
66908W        W28571  31.012  31.425   4.753
66909W        W28572  22.741  36.556   2.776
66910W        W28573  18.607  15.132   1.835
66911W        W28574  15.654   0.443   0.403
66912W        W28575  34.510  44.771   0.420
66913W        W28576  13.278  44.793   4.123
66914W        W28577  16.190   8.376   4.614
66915W        W28578  33.902  17.587   2.704
66916W        W28579   7.228  16.278  14.499
66917W        W28580  40.404  34.943   3.240
66918W        W28581   7.391  16.234  13.953
66919W        W28582  32.955  19.230   4.696
66920W        W28583  39.018  24.573  11.919
66921W        W28584  10.283  44.805   4.150
66922W        W28585  40.825  26.631   0.450
66923W        W28586  21.120  34.888   2.705
66924W        W28587  17.196  11.310   0.751
66925W        W28588  26.487  37.427   1.893
66926W        W28589  25.101  12.299   4.606
66927W        W28590  10.652  20.668   2.221
66928W        W28591  11.365  35.066  14.335
66929W        W28592  26.131  43.397   3.303
66930W        W28593   1.433  27.565   3.149
66931W        W28594   5.724  31.955   0.858
66932W        W28595   8.827   3.419   4.126
66933W        W28596  22.089  22.169  10.921
66934W        W28597  20.623   0.300  10.991
66935W        W28598   3.849   9.867  13.398
66936W        W28599   3.409  12.628   4.269
66937W        W28600  28.465  25.561   3.303
66938W        W28601   8.276  32.543  12.093
66939W        W28602  41.039  11.256  12.376
66940W        W28603  10.266  20.179   1.871
66941W        W28604  16.729  28.514   3.257
66942W        W28605  44.831  40.349   1.402
66943W        W28606  25.071   0.379   2.366
66944W        W28607  44.505  40.994  14.790
66945W        W28608  39.409  10.183  13.462
66946W        W28609  28.550   8.685  13.955
66947W        W28610  17.782  34.965  14.970
66948W        W28611  38.530  11.820  12.023
66949W        W28612  30.041  26.037  11.530
66950W        W28613  40.307  40.911   2.798
66951W        W28614  26.661  18.108  11.504
66952W        W28615  35.876  35.542   2.277
66953W        W28616   3.852  27.576   2.377
66954W        W28617  25.005  21.165  13.904
66955W        W28618  37.025   7.297   0.357
66956W        W28619   8.197  37.049   4.620
66957W        W28620  10.661  29.537  10.469
66958W        W28621  34.966  42.993  14.342
66959W        W28622  24.142  14.210  11.445
66960W        W28623   8.274  25.075   3.761
66961W        W28624  16.787   2.849  12.960
66962W        W28625  15.583  34.071  11.871
66963W        W28626  44.458  11.293   0.894
66964W        W28627  35.035  30.452  12.556
66965W        W28628  42.496  40.887  14.998
66966W        W28629  13.326  28.591   3.309
66967W        W28630  24.215  21.223  13.343
66968W        W28631   6.413  41.989  11.982
66969W        W28632  26.590   3.887   4.197
66970W        W28633  10.873  30.974   1.324
66971W        W28634  10.276  35.389  10.637
66972W        W28635   5.270   6.790  13.350
66973W        W28636  23.176   4.815   2.346
66974W        W28637  35.040  21.229   0.325
66975W        W28638  28.056  14.682  10.628
66976W        W28639  18.233  14.224   2.836
66977W        W28640  25.109  39.501  13.038
66978W        W28641   0.921  22.512   1.812
66979W        W28642  12.794  37.468  14.974
66980W        W28643  27.974   6.244  11.519
66981W        W28644  20.665  16.664  12.363
66982W        W28645  37.860  21.514  10.929
66983W        W28646  44.839  41.989   1.367
66984W        W28647   9.175  21.741   2.730
66985W        W28648  39.393  22.201  10.407
66986W        W28649  43.512  25.992  14.398
66987W        W28650  21.176  17.674  12.511
66988W        W28651  25.998  28.670   1.920
66989W        W28652  40.417  38.425   0.321
66990W        W28653   2.745  35.573  13.469
66991W        W28654  28.632  38.452  14.336
66992W        W28655  24.012  29.003   0.462
66993W        W28656  16.777  35.905  13.849
66994W        W28657  35.514   7.869   1.744
66995W        W28658   4.916  30.066  11.602
66996W        W28659  18.651  19.553   3.315
66997W        W28660  33.436  43.305   2.758
66998W        W28661  14.719  33.034   2.795
66999W        W28662   0.443  14.773   0.960
67000W        W28663  13.674   7.205   3.836
67001W        W28664  24.557  36.035   3.633
67002W        W28665  20.057  29.466   3.764
67003W        W28666  23.616  41.798  10.474
67004W        W28667   6.375  16.143  12.570
67005W        W28668  43.420  34.913  14.491
67006W        W28669  17.302  13.133   1.408
67007W        W28670  33.017  30.471  13.003
67008W        W28671  28.660  14.783   3.346
67009W        W28672  28.037   9.219   0.741
67010W        W28673  17.588  22.190  12.939
67011W        W28674  25.964  30.150   4.186
67012W        W28675  26.080  34.923   2.409
67013W        W28676  31.589   3.810  12.850
67014W        W28677  30.551  21.080  12.034
67015W        W28678  22.232  28.092  12.450
67016W        W28679  32.128  11.631   1.852
67017W        W28680  40.423  13.610  12.958
67018W        W28681  24.135   6.366   0.903
67019W        W28682  28.452  25.143  12.359
67020W        W28683  33.973  39.992  10.636
67021W        W28684  17.764  21.673  12.465
67022W        W28685  28.564   8.403  14.992
67023W        W28686  31.934  23.198   1.301
67024W        W28687  38.910  43.310   2.875
67025W        W28688  21.578  37.903   2.265
67026W        W28689  40.005   3.747  12.361
67027W        W28690   9.234  19.159  10.985
67028W        W28691  32.468  26.687  11.478
67029W        W28692  13.144   9.388   4.128
67030W        W28693  14.210  31.128  14.763
67031W        W28694  15.295   2.317  12.972
67032W        W28695  22.706  29.960   1.388
67033W        W28696  22.578  27.593  11.862
67034W        W28697  20.581  19.612   0.403
67035W        W28698   7.404  29.472  12.526
67036W        W28699  10.835  42.014   2.672
67037W        W28700  39.434  28.671  14.436
67038W        W28701  27.189  19.048   4.677
67039W        W28702  24.644  39.962   4.613
67040W        W28703  15.673   3.316   0.382
67041W        W28704  21.142  35.913  13.471
67042W        W28705  28.086   4.314  14.501
67043W        W28706   8.684  26.961   1.820
67044W        W28707  32.408  11.658  11.499
67045W        W28708  32.616  25.514  11.068
67046W        W28709  16.626  13.741   3.642
67047W        W28710   2.426  25.666  11.967
67048W        W28711  38.370  44.872  11.942
67049W        W28712  21.561   4.845   2.732
67050W        W28713  40.417  10.841  12.481
67051W        W28714  20.272  26.554   2.409
67052W        W28715   9.843  22.613  14.760
67053W        W28716  28.632   8.318   4.246
67054W        W28717  44.985  12.286  13.836
67055W        W28718  13.131   1.345   4.617
67056W        W28719   9.157  10.210   2.890
67057W        W28720  12.805  30.151  11.861
67058W        W28721  10.862  21.025  14.895
67059W        W28722  44.283  25.041  10.093
67060W        W28723  22.686   8.345  13.334
67061W        W28724  28.521  16.670  11.921
67062W        W28725  10.669  12.201   1.288
67063W        W28726  40.447  44.930  12.929
67064W        W28727   4.790  30.932  13.896
67065W        W28728  24.079  28.983  13.389
67066W        W28729  31.147   2.771   1.714
67067W        W28730  10.760  42.975   4.126
67068W        W28731  41.316  31.123   1.861
67069W        W28732  42.308  23.175   4.345
67070W        W28733  15.749  44.324  14.928
67071W        W28734  24.122  41.394   0.257
67072W        W28735  39.534  10.216  14.015
67073W        W28736  17.600  37.899   1.842
67074W        W28737  36.089  33.923  10.626
67075W        W28738  15.181  36.402  12.948
67076W        W28739   7.237  33.019  13.037
67077W        W28740   9.672   4.325   2.197
67078W        W28741   8.852  30.422   2.846
67079W        W28742   7.885  42.485   1.839
67080W        W28743  36.916  32.096  14.392
67081W        W28744  19.047   3.246   2.742
67082W        W28745  39.058  33.117  10.074
67083W        W28746  21.667  39.924  14.904
67084W        W28747  41.949  44.977  11.510
67085W        W28748  23.566  12.162  14.323
67086W        W28749  44.804   3.739  11.968
67087W        W28750  44.331  43.445   4.746
67088W        W28751   0.945  30.151   3.702
67089W        W28752   3.773   9.306   1.327
67090W        W28753  26.174  16.606   1.732
67091W        W28754  19.675  29.436  14.818
67092W        W28755   5.197  10.188  14.355
67093W        W28756  22.602   3.837  13.533
67094W        W28757  17.228  41.390   1.872
67095W        W28758  38.902   0.745   1.449
67096W        W28759  20.254  16.247  12.914
67097W        W28760  28.970  37.913   2.715
67098W        W28761  11.141  12.323   2.200
67099W        W28762  44.478  38.959   0.831
67100W        W28763   7.296   6.203   3.629
67101W        W28764  34.912  30.124   4.268
67102W        W28765  37.897  31.511  14.924
67103W        W28766  43.302  39.932  11.949
67104W        W28767   2.375  40.496  14.968
67105W        W28768  23.118  17.140  10.894
67106W        W28769  31.954  23.645   1.281
67107W        W28770  13.281  19.073   3.746
67108W        W28771  39.825  40.412  14.889
67109W        W28772   3.361  34.078   3.707
67110W        W28773  17.661  43.865   1.314
67111W        W28774  13.816  19.727  10.487
67112W        W28775   1.469   6.789  11.955
67113W        W28776   7.411   6.349   4.603
67114W        W28777  39.916  41.042   1.797
67115W        W28778  16.717  27.498  11.504
67116W        W28779  19.101   3.363  12.359
67117W        W28780   4.247  17.285  11.941
67118W        W28781  44.448  36.515   3.833
67119W        W28782   1.821  18.188  12.015
67120W        W28783  42.019  24.014   0.780
67121W        W28784   8.862   0.392   1.404
67122W        W28785  17.276  36.554   4.210
67123W        W28786   2.909  29.579  11.985
67124W        W28787  23.993  32.941   4.204
67125W        W28788  21.694  12.704  12.992
67126W        W28789  21.666  10.268  14.294
67127W        W28790   7.234  25.616   2.716
67128W        W28791  32.104   2.255  13.354
67129W        W28792  18.106  22.061  11.584
67130W        W28793  33.109  39.446   3.243
67131W        W28794   7.777  21.549  13.319
67132W        W28795   3.249  44.345   1.258
67133W        W28796  44.980  11.174   0.375
67134W        W28797   4.828   7.178  13.999
67135W        W28798  27.585  42.935  10.948
67136W        W28799   0.772  35.098  12.996
67137W        W28800  39.896   9.836  14.012
67138W        W28801   0.453   7.805   0.737
67139W        W28802  18.118  39.428   0.946
67140W        W28803  20.228  36.079   2.833
67141W        W28804  36.554  39.428  10.903
67142W        W28805  18.197  13.349  13.506
67143W        W28806  23.605  23.157   1.278
67144W        W28807  44.844  13.772  14.492
67145W        W28808  39.835  20.203  11.975
67146W        W28809  15.627  42.845  10.084
67147W        W28810  23.213  35.853  13.438
67148W        W28811  21.665  11.831  14.300
67149W        W28812  21.568  17.616   0.483
67150W        W28813  25.613  19.588   4.302
67151W        W28814   3.769  19.730  13.036
67152W        W28815  27.555   5.881   3.265
67153W        W28816  19.707  12.823   0.459
67154W        W28817   1.812  22.164   2.225
67155W        W28818  16.240  12.676   3.801
67156W        W28819  13.191   9.368   0.385
67157W        W28820   2.746  41.803  14.858
67158W        W28821  41.034  42.403   3.152
67159W        W28822  14.329  38.327  14.370
67160W        W28823  34.377  28.954  12.928
67161W        W28824  12.698  41.883  14.961
67162W        W28825   0.271   8.284   2.233
67163W        W28826  39.434  34.990   3.386
67164W        W28827  39.403   1.252   4.309
67165W        W28828  43.851  34.520   3.702
67166W        W28829  22.725  38.848  13.963
67167W        W28830   8.301  41.906  10.645
67168W        W28831  10.761  39.879   3.232
67169W        W28832   6.726   1.272   0.860
67170W        W28833  17.669  15.241  12.559
67171W        W28834  22.080  36.383   1.257
67172W        W28835  20.609  16.289   4.122
67173W        W28836   7.239   1.767  12.561
67174W        W28837  30.602   9.314   4.258
67175W        W28838  27.087  41.986   2.389
67176W        W28839  35.045  35.860  14.001
67177W        W28840  17.111  20.522  10.407
67178W        W28841  34.378  30.994   2.856
67179W        W28842   3.809  23.992   0.361
67180W        W28843  27.601  42.828   4.247
67181W        W28844   5.417   9.344   2.848
67182W        W28845  32.523   3.938   3.229
67183W        W28846   1.879  12.648  12.515
67184W        W28847  37.928  28.118  12.389
67185W        W28848  23.154  19.762   3.229
67186W        W28849   3.322  37.409  10.009
67187W        W28850  29.163  14.755  10.637
67188W        W28851   6.231  37.353   1.329
67189W        W28852   4.378  29.562  10.983
67190W        W28853  24.605  24.165   4.192
67191W        W28854  28.614  39.833   5.740
67192W        W28855  26.539   8.840   5.183
67193W        W28856  42.797  27.603   1.423
67194W        W28857   3.757  24.097  10.921
67195W        W28858  39.458  35.102  14.985
67196W        W28859  37.539  11.233   0.895
67197W        W28860   2.260  36.943   4.225
67198W        W28861  43.870  34.549  13.939
67199W        W28862  12.347  29.586  11.555
67200W        W28863   3.221  28.101   4.276
67201W        W28864  27.026  14.766  12.387
67202W        W28865   5.889  40.535  12.043
67203W        W28866  41.426  12.291   5.289
67204W        W28867  11.139  35.585   1.333
67205W        W28868  32.935  36.412   0.754
67206W        W28869   6.211   2.441  10.409
67207W        W28870  18.669  24.644   1.220
67208W        W28871  23.092  14.602   3.798
67209W        W28872   6.831  22.203   0.927
67210W        W28873   3.835  32.533   2.787
67211W        W28874  26.113  34.437  13.930
67212W        W28875  16.236   2.909   2.392
67213W        W28876  33.043  17.662   4.630
67214W        W28877  21.144  32.449   2.295
67215W        W28878  21.582  34.864  13.870
67216W        W28879  33.892  35.483   0.891
67217W        W28880  14.751   4.354   2.204
67218W        W28881  32.485  44.409  13.486
67219W        W28882  32.554  42.922  14.309
67220W        W28883  41.426  41.301   2.272
67221W        W28884   3.333  35.904   1.760
67222W        W28885  16.191  17.223  10.544
67223W        W28886  17.179  16.258   1.321
67224W        W28887   2.786   7.693   1.221
67225W        W28888   9.246  36.021  11.941
67226W        W28889   9.172  17.772  13.496
67227W        W28890   8.656  24.197  12.956
67228W        W28891  26.575   6.182  12.065
67229W        W28892   5.775  26.971   3.695
67230W        W28893  29.510   1.297   2.289
67231W        W28894   6.296  32.447  13.451
67232W        W28895  41.426   4.427   0.943
67233W        W28896  38.936  28.170   5.180
67234W        W28897   5.324  43.845   0.790
67235W        W28898  30.006  20.736   9.635
67236W        W28899  14.620  16.223  12.406
67237W        W28900  38.408   1.781  10.590
67238W        W28901  29.633  38.402   3.344
67239W        W28902  19.682  14.093   4.648
67240W        W28903  28.022  28.949  14.357
67241W        W28904  40.840  37.040   2.179
67242W        W28905  26.963   8.720   2.267
67243W        W28906  34.967  30.569   2.793
67244W        W28907  44.796  33.900  11.944
67245W        W28908  14.325  21.597  12.018
67246W        W28909  27.138  16.311   4.739
67247W        W28910  34.952  17.265  12.942
67248W        W28911   8.165   9.375  14.971
67249W        W28912  33.128  32.463  10.472
67250W        W28913  38.542  30.413  13.920
67251W        W28914  44.482   0.761  12.075
67252W        W28915  34.998   8.289  14.867
67253W        W28916  23.030  37.063  14.465
67254W        W28917  32.394   8.210   4.298
67255W        W28918  18.229  38.396  11.392
67256W        W28919  33.529  11.759  10.520
67257W        W28920   9.761  36.585   0.749
67258W        W28921  34.447   0.886   2.243
67259W        W28922  44.262  10.153   2.334
67260W        W28923  19.136   0.932   1.243
67261W        W28924  23.157   4.802  13.922
67262W        W28925  40.449  37.050  14.785
67263W        W28926  34.054  33.983  14.912
67264W        W28927  44.835  31.587  12.027
67265W        W28928  38.374  29.109  11.882
67266W        W28929  11.702  12.342   4.175
67267W        W28930   4.895  44.293  10.645
67268W        W28931  12.614  30.967  11.585
67269W        W28932   3.728   6.295  14.917
67270W        W28933   3.226  35.873   9.974
67271W        W28934  29.163  29.962   1.357
67272W        W28935   5.883  17.227  10.521
67273W        W28936  18.129   4.844   1.788
67274W        W28937  33.878  25.173   2.830
67275W        W28938  13.615   4.867  11.972
67276W        W28939  10.205  16.609  14.307
67277W        W28940  40.801  28.026   1.839
67278W        W28941  18.703  22.690   4.784
67279W        W28942   9.354  36.424   0.438
67280W        W28943  15.298  38.878  14.956
67281W        W28944   2.335  30.480   1.295
67282W        W28945  12.762  12.730   0.423
67283W        W28946  28.033  38.071   3.266
67284W        W28947  15.107  29.995   1.859
67285W        W28948  44.904   1.404  11.898
67286W        W28949  22.105  31.635   1.710
67287W        W28950  38.937  10.872  11.855
67288W        W28951  31.121  26.518  10.119
67289W        W28952  27.514  13.616   4.657
67290W        W28953  32.005  44.407  13.902
67291W        W28954   4.797   1.254  14.994
67292W        W28955  38.565  19.560  13.510
67293W        W28956  35.012  23.139  14.279
67294W        W28957  22.105  21.118   4.776
67295W        W28958  19.243  38.064  13.519
67296W        W28959  29.510  38.442  12.946
67297W        W28960  22.600  20.214  11.569
67298W        W28961  34.549   2.465   0.347
67299W        W28962  41.997   9.343  10.478
67300W        W28963  40.375  39.345  13.998
67301W        W28964  29.583   6.776  11.587
67302W        W28965  21.719  22.570  11.510
67303W        W28966   6.249   9.239   1.399
67304W        W28967  15.223   6.270   0.877
67305W        W28968  37.469  22.029  13.843
67306W        W28969  41.817  20.104   2.730
67307W        W28970  20.263   4.402   3.673
67308W        W28971  12.334  43.995  11.979
67309W        W28972  34.967  33.950  14.847
67310W        W28973  10.329  15.637   2.248
67311W        W28974  30.953  30.418  10.404
67312W        W28975  14.207  33.578   4.642
67313W        W28976   1.342   5.857   0.770
67314W        W28977   5.324  42.861  13.488
67315W        W28978  34.941   0.908   3.304
67316W        W28979  41.406   6.364  11.111
67317W        W28980   1.286  11.712  11.107
67318W        W28981  40.834  44.461   3.790
67319W        W28982  36.865  33.403  13.034
67320W        W28983  29.155   9.354   2.398
67321W        W28984  18.148  16.683   5.274
67322W        W28985  27.667  22.051  10.637
67323W        W28986  13.767  25.665   2.289
67324W        W28987  20.046   1.863  10.100
67325W        W28988  37.044   1.731  11.979
67326W        W28989  32.496  18.050   4.215
67327W        W28990  39.525  32.938   1.775
67328W        W28991   5.327  17.671   3.745
67329W        W28992  40.042  29.106   2.206
67330W        W28993  30.543   5.928  14.999
67331W        W28994  32.062  42.386   2.753
67332W        W28995   1.966   7.880   4.217
67333W        W28996  36.463  27.197  12.842
67334W        W28997  39.054  22.538   3.329
67335W        W28998  20.071  29.990   3.646
67336W        W28999  20.549   1.937   0.953
67337W        W29000  27.510  20.556  11.097
67338W        W29001  16.256  22.019   3.779
67339W        W29002  42.877  39.849   3.636
67340W        W29003  34.957  38.829   2.709
67341W        W29004   3.952   6.248   4.122
67342W        W29005   0.371  22.147  12.914
67343W        W29006  16.246  13.252  12.936
67344W        W29007  10.244  23.199   1.738
67345W        W29008  28.503  42.516  11.102
67346W        W29009   0.818  30.969  11.588
67347W        W29010  39.481  20.204  12.046
67348W        W29011  31.123  11.283   4.195
67349W        W29012  35.961  34.924   5.320
67350W        W29013   1.929  13.758  11.979
67351W        W29014  17.080  44.775   3.782
67352W        W29015  42.957  29.101   4.758
67353W        W29016   9.867  15.724  12.571
67354W        W29017  15.711  27.067  11.028
67355W        W29018  43.848   6.362  13.880
67356W        W29019  15.762  38.941   0.798
67357W        W29020  30.474  17.787   1.305
67358W        W29021  38.385  23.192  14.323
67359W        W29022  30.918  28.078  11.901
67360W        W29023  17.074  14.633   3.186
67361W        W29024  25.608  17.089  13.527
67362W        W29025  31.641  34.034  10.627
67363W        W29026   6.237  34.000  13.922
67364W        W29027  32.001  15.135   3.262
67365W        W29028  44.393   4.931   9.992
67366W        W29029  43.022  30.144  11.916
67367W        W29030   5.784   1.956   1.910
67368W        W29031  12.230  34.406   4.347
67369W        W29032  40.525   0.941   3.663
67370W        W29033  34.497  27.669   3.157
67371W        W29034  29.167  34.485   3.350
67372W        W29035  19.213  31.445   1.288
67373W        W29036  44.454  29.012  13.927
67374W        W29037   0.329   2.280   0.305
67375W        W29038   8.738  24.159   3.232
67376W        W29039  23.723  17.780   2.303
67377W        W29040  26.610   4.356   3.361
67378W        W29041  33.386  12.776   1.867
67379W        W29042  38.898  11.253   0.833
67380W        W29043  25.489  16.285  14.968
67381W        W29044  25.981   3.871   4.817
67382W        W29045  39.343   4.372  14.880
67383W        W29046  29.668  31.072   0.732
67384W        W29047  24.682  14.694   1.838
67385W        W29048  44.275   1.876   4.331
67386W        W29049  23.217  42.996   2.836
67387W        W29050  12.728  31.646  10.589
67388W        W29051  26.108  16.269  12.414
67389W        W29052  13.182  15.696   2.777
67390W        W29053  34.905  42.824  14.882
67391W        W29054  24.043   9.810   1.868
67392W        W29055   3.388  21.641  14.507
67393W        W29056   0.847   5.812  13.906
67394W        W29057  31.997  35.401  11.488
67395W        W29058  21.529  39.337  10.466
67396W        W29059  40.391   4.804   1.439
67397W        W29060  14.707   7.830   3.799
67398W        W29061  26.084  16.784  14.865
67399W        W29062   3.759  22.593   1.840
67400W        W29063  13.272  24.176   4.116
67401W        W29064  27.526  28.583  10.958
67402W        W29065  15.773  39.368   1.867
67403W        W29066  24.674  13.763  14.959
67404W        W29067  10.726  38.024  11.391
67405W        W29068  24.603  27.016  11.926
67406W        W29069  30.947   5.763  13.308
67407W        W29070  40.917  36.495  10.994
67408W        W29071  36.098  37.905   3.782
67409W        W29072  11.788  37.380   0.415
67410W        W29073  41.431  34.008  12.883
67411W        W29074  19.109  41.465  14.927
67412W        W29075   4.751  28.113  13.876
67413W        W29076  39.354  19.542  11.397
67414W        W29077  42.783   9.266   4.247
67415W        W29078  44.862  44.421   4.349
67416W        W29079  12.764  13.257  12.379
67417W        W29080  14.099  20.243  12.992
67418W        W29081  40.548   0.476  13.310
67419W        W29082  15.133   4.284   3.697
67420W        W29083  18.681  37.569  14.325
67421W        W29084   2.472  18.055   3.238
67422W        W29085  37.360  29.980   3.268
67423W        W29086  42.491   5.227  10.616
67424W        W29087  42.374  21.533   3.187
67425W        W29088  15.658   1.442  11.108
67426W        W29089  19.728  41.359  11.083
67427W        W29090   5.329  37.354   4.248
67428W        W29091  10.361  17.614   4.724
67429W        W29092   3.394  20.751  14.341
67430W        W29093  34.083  29.016   2.360
67431W        W29094  42.385  36.902   3.252
67432W        W29095  18.548  44.804   2.834
67433W        W29096  39.819  29.533   4.343
67434W        W29097  21.030  11.147  14.910
67435W        W29098  25.668  25.027   3.832
67436W        W29099  21.517  42.029   3.281
67437W        W29100  31.083  44.373  14.773
67438W        W29101   3.250   6.795  14.890
67439W        W29102  22.248  14.196  13.476
67440W        W29103  32.941  11.153   2.410
67441W        W29104  25.670   2.790   2.879
67442W        W29105  42.841  26.120   1.837
67443W        W29106  38.844  34.579  12.844
67444W        W29107   9.209  25.701  12.415
67445W        W29108  41.336  42.910   2.192
67446W        W29109  24.098   9.167  13.528
67447W        W29110   7.407  26.503   1.268
67448W        W29111  11.810  43.306   1.896
67449W        W29112  37.522   4.365  12.090
67450W        W29113  33.420   6.695  14.884
67451W        W29114   0.360  30.646  12.861
67452W        W29115  29.969  35.516  12.518
67453W        W29116  32.398   6.325   0.246
67454W        W29117  17.281  28.607   0.435
67455W        W29118   9.179   1.862   0.474
67456W        W29119  18.767  12.232  10.611
67457W        W29120  25.495  17.629   2.230
67458W        W29121   5.310  22.740  13.854
67459W        W29122  18.118  10.149   0.797
67460W        W29123   6.874   5.437   0.773
67461W        W29124  24.178  23.003  11.395
67462W        W29125  28.936  14.231  13.548
67463W        W29126  27.115  28.545  11.388
67464W        W29127  20.688  16.617   1.346
67465W        W29128  40.983  20.761   1.712
67466W        W29129  14.611  25.002  13.821
67467W        W29130  44.969  10.198   1.339
67468W        W29131  44.930  42.473  13.335
67469W        W29132  13.819  31.455  13.415
67470W        W29133  17.581  21.232  10.438
67471W        W29134   4.413  17.662  11.595
67472W        W29135  25.201  32.542  10.897
67473W        W29136  19.125  12.138   1.223
67474W        W29137  23.000  21.720  14.805
67475W        W29138  10.205  18.761   2.845
67476W        W29139  19.683  34.959  12.080
67477W        W29140  43.869  24.686   2.232
67478W        W29141  42.503   2.772   4.322
67479W        W29142  39.877   5.799  10.553
67480W        W29143  29.107  23.590   3.652
67481W        W29144   2.247  10.851   4.209
67482W        W29145  39.367   8.399  13.981
67483W        W29146   1.900  13.239  12.973
67484W        W29147  24.484  40.345  12.536
67485W        W29148  39.522  14.831   0.258
67486W        W29149  14.793   4.278   1.331
67487W        W29150  41.526  37.536   1.261
67488W        W29151  12.837  15.156  14.287
67489W        W29152  43.900  34.588  12.955
67490W        W29153  13.121  16.112  10.404
67491W        W29154  18.549   6.720   0.939
67492W        W29155  43.823  18.194  14.310
67493W        W29156  32.596   2.306  11.564
67494W        W29157  14.656  16.169   4.123
67495W        W29158   1.885   0.394  11.040
67496W        W29159  10.288  16.199   0.427
67497W        W29160  44.848  26.585   3.641
67498W        W29161   7.800  21.224  10.064
67499W        W29162  17.104  21.219  10.935
67500W        W29163  10.328  17.297   1.290
67501W        W29164  19.044  24.553  13.353
67502W        W29165  25.493  40.488   2.694
67503W        W29166   6.427   8.867   3.168
67504W        W29167   4.862  14.233   4.611
67505W        W29168  31.547  44.480   0.392
67506W        W29169  37.039  15.085   0.742
67507W        W29170  13.615   6.287   3.298
67508W        W29171   8.352  26.004   3.654
67509W        W29172  12.170  14.645   2.822
67510W        W29173  30.961  13.196  13.497
67511W        W29174   5.302  23.564  10.457
67512W        W29175   0.412  22.513   1.244
67513W        W29176  37.361  23.169  13.441
67514W        W29177  26.596   4.390   3.779
67515W        W29178   6.738  31.558   1.310
67516W        W29179  15.098  29.975  12.427
67517W        W29180  20.182  10.167  12.474
67518W        W29181  16.150  34.011  14.491
67519W        W29182   9.151  28.588   4.709
67520W        W29183  43.911  24.187  12.887
67521W        W29184  42.356   3.844   3.354
67522W        W29185  28.610   5.430   0.857
67523W        W29186  28.488   5.292  11.519
67524W        W29187  33.459   6.830  11.525
67525W        W29188   6.900  42.496   2.415
67526W        W29189  36.403  35.542  11.933
67527W        W29190  23.490  33.583  11.912
67528W        W29191  19.750   3.913  14.466
67529W        W29192  40.407  25.152   4.114
67530W        W29193   7.705  14.636   2.221
67531W        W29194  27.458  27.507   2.325
67532W        W29195  10.245  14.665  12.072
67533W        W29196  17.592  37.007   0.761
67534W        W29197  12.331  25.600  12.005
67535W        W29198  18.104  38.040  12.562
67536W        W29199  31.455  12.344   2.663
67537W        W29200  19.111   9.160  11.071
67538W        W29201  24.178  21.190  12.513
67539W        W29202  36.867  21.240   0.289
67540W        W29203  22.671  25.185   3.801
67541W        W29204  37.494   3.432   2.859
67542W        W29205  16.317  26.601  12.511
67543W        W29206   5.423  23.673  10.994
67544W        W29207  28.106  30.468   3.813
67545W        W29208  43.013  31.405   1.382
67546W        W29209  43.852  41.998   4.709
67547W        W29210  16.622  16.708  14.889
67548W        W29211   1.804  30.465   1.703
67549W        W29212  26.953  17.613  14.783
67550W        W29213  37.851  15.671  14.492
67551W        W29214  29.591  26.696  11.515
67552W        W29215   4.418  40.468   4.617
67553W        W29216  36.857  30.605   3.858
67554W        W29217  37.550  43.817   0.889
67555W        W29218  23.048  10.648   4.702
67556W        W29219  10.197   8.253  11.965
67557W        W29220  35.876  35.462  11.992
67558W        W29221  33.050  36.961   3.279
67559W        W29222  40.047   3.240   4.742
67560W        W29223   0.268  32.078   1.789
67561W        W29224  33.074  15.672  14.759
67562W        W29225   9.195  14.827  12.061
67563W        W29226  12.760  22.578  10.630
67564W        W29227   7.834   7.277   5.195
67565W        W29228  32.556  38.529  10.947
67566W        W29229  21.606  33.063   0.949
67567W        W29230  27.479  37.006   2.673
67568W        W29231  30.089   9.291  12.843
67569W        W29232  25.212  19.717   3.146
67570W        W29233   3.335  22.011   2.321
67571W        W29234  38.459   5.366   4.741
67572W        W29235   2.302  40.485   0.249
67573W        W29236  32.934  29.924  14.434
67574W        W29237  43.963   1.749   1.216
67575W        W29238  31.472   8.658   5.308
67576W        W29239  27.156  13.292   2.303
67577W        W29240  33.974  25.551  14.031
67578W        W29241  12.213   1.267   1.780
67579W        W29242  36.365  36.845   0.853
67580W        W29243  18.635  20.643   4.349
67581W        W29244  30.655  12.680  13.449
67582W        W29245  25.004  29.940  12.573
67583W        W29246   1.884  22.677   0.422
67584W        W29247  22.031   0.903  10.095
67585W        W29248   6.799  29.010   1.221
67586W        W29249  18.166  29.066  11.983
67587W        W29250  20.146  20.539  14.289
67588W        W29251   6.781  44.910  13.814
67589W        W29252   8.303  44.343  12.883
67590W        W29253  35.964  16.690   0.767
67591W        W29254   4.300  28.121   0.868
67592W        W29255  30.033   6.402  10.545
67593W        W29256  41.956  12.677   3.271
67594W        W29257  20.618   0.468  11.389
67595W        W29258  43.004  39.949  11.443
67596W        W29259   2.841  30.989  13.905
67597W        W29260  42.907  20.206   4.601
67598W        W29261  24.980  14.153   1.929
67599W        W29262  44.893  35.534   1.274
67600W        W29263   4.272   7.885  10.489
67601W        W29264  35.592  28.507   1.724
67602W        W29265  26.008  16.781  12.991
67603W        W29266  44.897  33.438  10.117
67604W        W29267  32.066  19.103  10.484
67605W        W29268  16.315  17.658  10.604
67606W        W29269  11.356  14.711   0.430
67607W        W29270   4.902  15.604  14.506
67608W        W29271   9.298   3.459   9.988
67609W        W29272  15.139  41.352   3.170
67610W        W29273  35.379   4.943   3.752
67611W        W29274  34.909  12.263  14.917
67612W        W29275   0.857   2.445  13.817
67613W        W29276  30.940  29.627   3.699
67614W        W29277  26.992  38.875   2.770
67615W        W29278  25.616   7.208  12.498
67616W        W29279  14.739  10.213  10.577
67617W        W29280  32.927  35.592  14.992
67618W        W29281   0.743  32.422   2.775
67619W        W29282  23.035  37.952   1.927
67620W        W29283  15.283  13.213  12.545
67621W        W29284   9.821   5.400  10.534
67622W        W29285  35.416  16.582  14.797
67623W        W29286   3.768   5.226  14.857
67624W        W29287  34.013  26.630  13.416
67625W        W29288  14.592  22.239   2.350
67626W        W29289  40.318  18.197   3.691
67627W        W29290  43.908  12.219  13.982
67628W        W29291   2.359   3.755  12.400
67629W        W29292  40.511  20.631   0.259
67630W        W29293  16.781  39.852  14.334
67631W        W29294   9.883   1.365  14.301
67632W        W29295  18.618   4.935   4.227
67633W        W29296   1.949  39.397  11.114
67634W        W29297  27.512  41.342  13.506
67635W        W29298  30.562  41.024  11.532
67636W        W29299   9.685   8.694  12.574
67637W        W29300   8.391  30.148  14.815
67638W        W29301  10.377  28.458   4.306
67639W        W29302  43.342  17.565  12.902
67640W        W29303  14.781  40.902   1.890
67641W        W29304  24.989  10.843   0.938
67642W        W29305  40.530  35.992   4.760
67643W        W29306  11.663  36.458   2.902
67644W        W29307  42.969  16.290  10.159
67645W        W29308  27.181  36.590   1.243
67646W        W29309  24.146  26.469   5.229
67647W        W29310  12.362  21.548   1.353
67648W        W29311  31.542   9.295  11.074
67649W        W29312  20.676  13.608  12.535
67650W        W29313  18.632   3.734   2.706
67651W        W29314  37.942  20.612  13.519
67652W        W29315  15.273  38.476  13.811
67653W        W29316  17.682   4.445  14.365
67654W        W29317  30.129  33.042  14.468
67655W        W29318   9.316  13.146   0.247
67656W        W29319   3.754  32.590  11.537
67657W        W29320  34.868   3.826   2.350
67658W        W29321  31.047  15.316   2.821
67659W        W29322  37.835   4.401  13.420
67660W        W29323  15.611  11.632  12.042
67661W        W29324  29.004  28.934  12.925
67662W        W29325  28.475  24.093  13.441
67663W        W29326  26.634  10.355   0.865
67664W        W29327  29.425   3.808   2.304
67665W        W29328  36.530  39.012   4.768
67666W        W29329   1.320  16.304   0.805
67667W        W29330  11.294   8.733   5.216
67668W        W29331   4.407  23.677  12.961
67669W        W29332  40.841   5.341   4.184
67670W        W29333  25.547  36.360   2.808
67671W        W29334   9.381  42.856   0.346
67672W        W29335   6.824  31.012  12.890
67673W        W29336  22.107  37.033   1.925
67674W        W29337  13.641  24.973  14.020
67675W        W29338  17.700  43.955  11.032
67676W        W29339  23.022  43.800   2.253
67677W        W29340  16.201  10.871   4.738
67678W        W29341  21.602  24.032   0.765
67679W        W29342  13.620  43.453  11.461
67680W        W29343  23.619   5.313  10.525
67681W        W29344   9.175  29.137  11.607
67682W        W29345  10.732  35.363   1.272
67683W        W29346  31.070  39.385  13.063
67684W        W29347  43.792  32.072  12.544
67685W        W29348  24.624  10.784  14.912
67686W        W29349  12.350  18.566   2.254
67687W        W29350  31.131  35.013   1.694
67688W        W29351   4.424  26.125  14.450
67689W        W29352  18.053   4.409   2.826
67690W        W29353  10.279   4.315  11.928
67691W        W29354  34.878  43.918   2.698
67692W        W29355  20.243  32.034   2.833
67693W        W29356  32.913  17.644   3.212
67694W        W29357  22.721  41.386  13.933
67695W        W29358  38.058  42.454   2.667
67696W        W29359  19.235  29.115  11.026
67697W        W29360  16.668  26.702  14.987
67698W        W29361  39.457  22.176   1.309
67699W        W29362  22.635  42.316   2.251
67700W        W29363  29.985  25.011   0.405
67701W        W29364  11.268  29.933  13.455
67702W        W29365  17.645   4.812  14.335
67703W        W29366  43.320  17.654   4.636
67704W        W29367  43.004  41.411  14.779
67705W        W29368  14.290  25.577  11.380
67706W        W29369  30.482   7.874  13.392
67707W        W29370  34.093  31.062   3.197
67708W        W29371  34.095   8.224  13.954
67709W        W29372   6.255  31.596  14.915
67710W        W29373  36.947  36.899  13.323
67711W        W29374  13.332  25.478   0.424
67712W        W29375  38.022  26.088  10.941
67713W        W29376  20.141  16.593  14.441
67714W        W29377  32.921  11.701   0.787
67715W        W29378  44.403  32.521  13.349
67716W        W29379   9.149  13.615  14.468
67717W        W29380  33.415  24.990   0.379
67718W        W29381  24.629   7.327   4.694
67719W        W29382  18.761   5.384   2.668
67720W        W29383  41.309   6.400   0.403
67721W        W29384   5.217  35.509  12.050
67722W        W29385  14.765  23.015  13.915
67723W        W29386  32.906  38.367  12.529
67724W        W29387  33.607  30.480  14.809
67725W        W29388   7.289  26.703  13.419
67726W        W29389  12.310  38.866   0.304
67727W        W29390   7.278  17.758  10.587
67728W        W29391   7.413  31.445  14.352
67729W        W29392  10.805   2.359  11.092
67730W        W29393  33.023  15.745   2.417
67731W        W29394  21.246  39.542   1.838
67732W        W29395  17.781  18.118   0.309
67733W        W29396  15.804  21.245   4.312
67734W        W29397   9.307  28.525   3.835
67735W        W29398   2.874  31.583  11.107
67736W        W29399  41.851  43.382   1.829
67737W        W29400  17.232  28.157  13.045
67738W        W29401  26.674  34.906  10.905
67739W        W29402  38.017   1.333  12.888
67740W        W29403   8.358   0.384   1.867
67741W        W29404  10.183  21.527   2.189
67742W        W29405  18.196  35.519   3.820
67743W        W29406  18.753  42.982  14.372
67744W        W29407  28.060  36.565  11.123
67745W        W29408  19.169   6.912   0.906
67746W        W29409  36.449  36.054  11.574
67747W        W29410   7.295  30.948  12.863
67748W        W29411   5.893   2.804   0.294
67749W        W29412  15.247   0.249  11.124
67750W        W29413  12.851   2.806   2.349
67751W        W29414  36.545  14.742   3.349
67752W        W29415  32.949  36.390   3.337
67753W        W29416  35.056  42.873   4.197
67754W        W29417   0.272  41.457  11.932
67755W        W29418  14.170  15.668  12.069
67756W        W29419   4.796  17.630   3.343
67757W        W29420  14.227  12.759  10.574
67758W        W29421  37.010   2.867   3.359
67759W        W29422   3.342  28.620  11.479
67760W        W29423  14.787  33.391  11.045
67761W        W29424   2.811   3.951   4.747
67762W        W29425  17.648  23.173   2.278
67763W        W29426   0.323   3.742   4.125
67764W        W29427   0.368   9.858   1.270
67765W        W29428  43.428   7.184   0.326
67766W        W29429  34.935   9.294  10.095
67767W        W29430  30.100  33.992  10.534
67768W        W29431  15.662   2.291  14.805
67769W        W29432   7.715  26.101  11.099
67770W        W29433   4.704  14.250   1.846
67771W        W29434   2.809  27.942   0.392
67772W        W29435   0.807  42.856  13.804
67773W        W29436  38.829  35.554  12.012
67774W        W29437   4.902   7.761  11.029
67775W        W29438  30.917  34.880  14.840
67776W        W29439  23.032  30.062  10.529
67777W        W29440  25.580  39.028  10.908
67778W        W29441   9.787  26.543  12.347
67779W        W29442  35.008  38.046   0.306
67780W        W29443  16.148  23.705  12.964
67781W        W29444  28.139  23.690  10.907
67782W        W29445  13.809  17.634   1.782
67783W        W29446  30.934   4.252   2.323
67784W        W29447  14.824   6.861  13.972
67785W        W29448   1.850  26.163   3.805
67786W        W29449  19.153  16.633   5.226
67787W        W29450  28.958  40.936   3.851
67788W        W29451  34.866  36.452  11.889
67789W        W29452  12.627   3.784   1.709
67790W        W29453   1.732  34.939  12.347
67791W        W29454  14.622  42.031   2.218
67792W        W29455  35.991   5.274   1.396
67793W        W29456   7.367  39.014   1.738
67794W        W29457  16.211   8.240   2.340
67795W        W29458  15.134  39.503  14.300
67796W        W29459  21.740  35.590  12.545
67797W        W29460  35.058  12.815   3.200
67798W        W29461  43.390  43.874   2.853
67799W        W29462  34.100  22.553   4.285
67800W        W29463   3.237  18.725  11.433
67801W        W29464  38.343   6.422   3.631
67802W        W29465  26.135  36.479   3.653
67803W        W29466  19.140  41.871   2.859
67804W        W29467  28.612  14.200  11.876
67805W        W29468  40.516  29.533   1.387
67806W        W29469  22.724  17.734   2.382
67807W        W29470  12.289  41.982   3.302
67808W        W29471  15.794   8.738   4.610
67809W        W29472  34.609  27.531  12.412
67810W        W29473  19.222  38.911  10.968
67811W        W29474  39.046  18.638   1.283
67812W        W29475  10.670  35.459  11.948
67813W        W29476  37.441  21.584  10.526
67814W        W29477  10.302  12.769   2.187
67815W        W29478   6.867  43.864   0.287
67816W        W29479  17.732  17.704   3.295
67817W        W29480  24.069  15.732  10.920
67818W        W29481   0.255  15.698   2.758
67819W        W29482  39.334  14.591   2.806
67820W        W29483  34.972  24.561  13.001
67821W        W29484  28.519   9.758   2.374
67822W        W29485   4.345  32.411   2.308
67823W        W29486  21.119  37.396  13.868
67824W        W29487  24.657   5.420  11.408
67825W        W29488  34.964  31.411  12.545
67826W        W29489  34.584  35.105  14.365
67827W        W29490  11.180  28.941  13.057
67828W        W29491  28.989  20.557  10.901
67829W        W29492   2.900   0.300  11.908
67830W        W29493  23.693  17.219   1.751
67831W        W29494  27.079  30.148   3.841
67832W        W29495  26.953  27.528  12.957
67833W        W29496   8.821   9.814   3.268
67834W        W29497  43.304  15.739  12.057
67835W        W29498  31.140   3.264  10.061
67836W        W29499  42.873  40.522  13.016
67837W        W29500  36.542  42.526   4.811
67838W        W29501  41.798  30.047   3.161
67839W        W29502  15.207  38.914   2.862
67840W        W29503  33.067   5.409  13.328
67841W        W29504   4.232   8.729  12.924
67842W        W29505  22.175  25.658   5.786
67843W        W29506  26.588  11.301  12.921
67844W        W29507  14.653  27.502  13.506
67845W        W29508  31.515  41.413   2.238
67846W        W29509  28.999  29.498   2.381
67847W        W29510   6.377  12.670   4.635
67848W        W29511  15.626  22.164   2.188
67849W        W29512   6.686  31.470  14.790
67850W        W29513  27.557  43.337   4.829
67851W        W29514  43.999  19.104  10.480
67852W        W29515  39.053  37.004   0.842
67853W        W29516  13.110  27.990  14.845
67854W        W29517  20.271  28.456  13.320
67855W        W29518  42.947   6.750  14.832
67856W        W29519  13.806  40.887   0.760
67857W        W29520   7.249  32.944  14.784
67858W        W29521  16.597   6.739   4.636
67859W        W29522  43.350  16.776   1.226
67860W        W29523  10.294  35.046  11.968
67861W        W29524  40.856  10.253   1.923
67862W        W29525   4.824  40.903  11.451
67863W        W29526  26.699   4.429  14.840
67864W        W29527   3.883  31.579   4.332
67865W        W29528  28.493   4.869  14.861
67866W        W29529  14.321  22.217   2.816
67867W        W29530   4.415  14.602  10.920
67868W        W29531  38.565  12.265  12.562
67869W        W29532   9.824   9.847  13.057
67870W        W29533  40.545  35.584  13.830
67871W        W29534  10.282  28.047  13.526
67872W        W29535  40.917  38.906  11.118
67873W        W29536   0.294  37.845  14.848
67874W        W29537  21.673  29.580  12.000
67875W        W29538  40.317  20.057   4.678
67876W        W29539   7.205  12.349   1.260
67877W        W29540  24.483  19.665  10.539
67878W        W29541  37.934  25.596   1.229
67879W        W29542  39.421  23.618  12.570
67880W        W29543  16.202  31.928   4.635
67881W        W29544  25.637  32.913   2.886
67882W        W29545  27.956  17.304   4.198
67883W        W29546  35.887  17.693  13.336
67884W        W29547  20.630  19.133   0.792
67885W        W29548   5.776  18.682   1.384
67886W        W29549  31.035  11.244  10.464
67887W        W29550   3.877  16.626  12.545
67888W        W29551  16.675  36.894   1.225
67889W        W29552  37.549  16.661  10.436
67890W        W29553  12.353   0.842  10.503
67891W        W29554   7.746  33.413  13.341
67892W        W29555   5.900  41.811  13.951
67893W        W29556  44.001  18.120   3.841
67894W        W29557   3.945  14.706   1.798
67895W        W29558  38.846  40.987  10.924
67896W        W29559  21.107  29.129   3.845
67897W        W29560  31.926  42.933   4.345
67898W        W29561  31.094  43.394  14.799
67899W        W29562  28.461  13.797   4.146
67900W        W29563  11.720  38.071   1.709
67901W        W29564  24.646   3.301  13.808
67902W        W29565  11.774   7.803  13.017
67903W        W29566  34.983   3.893   0.817
67904W        W29567  19.676  27.196   2.395
67905W        W29568  28.506  27.106  13.798
67906W        W29569  12.192  40.816   3.809
67907W        W29570  27.449  35.041  14.870
67908W        W29571   3.230  34.577   0.424
67909W        W29572  38.381  35.974  10.474
67910W        W29573  27.996  40.020   5.746
67911W        W29574  38.510  29.628   0.778
67912W        W29575  21.105  16.813   1.905
67913W        W29576  24.030  42.026  14.016
67914W        W29577   1.898   1.391   3.263
67915W        W29578  24.997   9.324  10.895
67916W        W29579  13.762  43.905   0.939
67917W        W29580  10.745  37.953  13.339
67918W        W29581  30.017  31.603  12.430
67919W        W29582  41.477   3.222   0.314
67920W        W29583  33.579  27.986  14.290
67921W        W29584  13.747  28.023  12.015
67922W        W29585  28.610   0.832  10.572
67923W        W29586  43.904  13.812   1.777
67924W        W29587  26.642  39.014  12.987
67925W        W29588  43.448  11.783   3.760
67926W        W29589  32.924   3.811  11.608
67927W        W29590  28.954  21.059  10.552
67928W        W29591  23.565   1.330   3.242
67929W        W29592  20.188  44.484   3.850
67930W        W29593  10.695  24.113  10.983
67931W        W29594  25.478  21.735  10.960
67932W        W29595  22.072  32.575   4.249
67933W        W29596   9.645  16.799  10.971
67934W        W29597  26.650   0.369   4.631
67935W        W29598  40.826   4.924   2.321
67936W        W29599  26.610   8.372   4.290
67937W        W29600  17.208   3.284  12.091
67938W        W29601  22.025  36.977  12.984
67939W        W29602  19.536  10.732   0.400
67940W        W29603   9.267  39.851   3.660
67941W        W29604   2.955  22.251   0.364
67942W        W29605  35.595  20.636   3.347
67943W        W29606  16.744  25.110  13.374
67944W        W29607  19.557   0.868   4.133
67945W        W29608  19.617   5.216   4.269
67946W        W29609  39.866   9.725   1.364
67947W        W29610  42.379   2.960  11.545
67948W        W29611  30.591   4.215   4.650
67949W        W29612  34.409  36.464  10.423
67950W        W29613  31.033  24.032   4.700
67951W        W29614  19.557  23.657   1.807
67952W        W29615  31.568  11.637   1.743
67953W        W29616  44.452  43.900  11.472
67954W        W29617  24.645   4.216  12.971
67955W        W29618  26.122   6.784  13.481
67956W        W29619  31.530  19.759   2.277
67957W        W29620   5.242  23.090  12.869
67958W        W29621  27.074  18.730   2.202
67959W        W29622  40.434  38.406   1.862
67960W        W29623  36.543   3.910  11.503
67961W        W29624  16.778  15.272  14.415
67962W        W29625  21.239  42.471  11.475
67963W        W29626  21.055  18.051   1.216
67964W        W29627  27.600  24.607   4.158
67965W        W29628  42.916  28.016   0.881
67966W        W29629  39.544  42.981   3.249
67967W        W29630  17.567  39.330   4.745
67968W        W29631  33.446  12.139   1.700
67969W        W29632  28.589  10.252   2.297
67970W        W29633  16.291  13.689  11.088
67971W        W29634   0.922  30.580   1.287
67972W        W29635  17.743  34.043  12.526
67973W        W29636  39.430  17.778  11.043
67974W        W29637  24.610  14.333  11.376
67975W        W29638   7.255  13.613  14.860
67976W        W29639   2.328  37.563   3.377
67977W        W29640   0.330   8.220   3.828
67978W        W29641   8.237   8.774   4.664
67979W        W29642  33.924  25.520  11.945
67980W        W29643  13.842  22.589   0.441
67981W        W29644  37.406  41.354  14.937
67982W        W29645   2.395  13.304   2.212
67983W        W29646  16.708  39.509   4.351
67984W        W29647  30.061  28.110  10.996
67985W        W29648   8.389   3.451   4.762
67986W        W29649  31.598  23.062  12.844
67987W        W29650   0.914  18.659   4.115
67988W        W29651  14.118  42.377  10.640
67989W        W29652   5.325  29.964   2.777
67990W        W29653   0.393  30.994  13.411
67991W        W29654   5.881  29.121  11.612
67992W        W29655  44.432  36.352  11.485
67993W        W29656   4.298   0.249  14.994
67994W        W29657  25.541   6.828  11.042
67995W        W29658  21.177  40.850   4.148
67996W        W29659  43.924  18.231  11.098
67997W        W29660   4.314  34.956   3.848
67998W        W29661  41.873  23.158  10.903
67999W        W29662  43.505   4.444   1.230
68000W        W29663   1.454  31.406   1.860
68001W        W29664   2.243  16.173  12.556
68002W        W29665  37.464  18.105  13.966
68003W        W29666   5.760  32.431   3.802
68004W        W29667  17.757  37.024  13.816
68005W        W29668  40.440  30.987  10.432
68006W        W29669  34.988  22.167  14.893
68007W        W29670  44.803  18.214  11.068
68008W        W29671  24.690  41.994  14.862
68009W        W29672  36.071   5.748   2.695
68010W        W29673  11.285   5.420  14.829
68011W        W29674  36.557  14.156  14.477
68012W        W29675  36.352  30.548   0.409
68013W        W29676  27.559  24.154  10.120
68014W        W29677  13.644  22.666  11.895
68015W        W29678  19.703   9.865   3.673
68016W        W29679  43.769  12.810  10.102
68017W        W29680   0.464  25.079   1.869
68018W        W29681  11.823  27.560   1.765
68019W        W29682  33.979  36.078   3.718
68020W        W29683   9.163  25.091  14.900
68021W        W29684   3.277  37.481   2.382
68022W        W29685  10.749  14.169  12.529
68023W        W29686  12.191  27.638   2.220
68024W        W29687  40.452   1.865  11.041
68025W        W29688  34.865  13.290   1.383
68026W        W29689  25.126  29.552   4.676
68027W        W29690  34.082   1.955   1.344
68028W        W29691   5.245   8.896  11.949
68029W        W29692  39.898   1.809   1.930
68030W        W29693  13.815  23.103  12.981
68031W        W29694  27.626  18.098   1.868
68032W        W29695  24.576  25.991   3.696
68033W        W29696  26.497  33.914  14.386
68034W        W29697  38.844  10.212  13.390
68035W        W29698   2.919  37.488  13.039
68036W        W29699   8.271   8.838   3.796
68037W        W29700  15.319   0.747   4.222
68038W        W29701  32.955  31.417   1.863
68039W        W29702  40.985  12.847  14.511
68040W        W29703  44.002  36.508  10.922
68041W        W29704  44.933  36.518  12.997
68042W        W29705  37.008  24.622   1.365
68043W        W29706  25.663  31.583   2.293
68044W        W29707  23.157   0.456  14.772
68045W        W29708  41.035  15.206   1.828
68046W        W29709  27.567  25.712  12.092
68047W        W29710   5.272  44.288  13.006
68048W        W29711  19.170  38.516   1.872
68049W        W29712  19.696   7.732  11.924
68050W        W29713  27.658   6.849   3.355
68051W        W29714   7.294  14.624   2.277
68052W        W29715  21.104  15.226  10.060
68053W        W29716  26.669   6.354   2.249
68054W        W29717   0.255  16.150   0.291
68055W        W29718  21.234  34.036  12.918
68056W        W29719  35.451  26.534  10.991
68057W        W29720   3.362  42.390  13.927
68058W        W29721  17.710   5.341   2.764
68059W        W29722  31.928  16.748  11.089
68060W        W29723  31.579   5.192   3.648
68061W        W29724  40.845  25.134   1.372
68062W        W29725  28.612  28.080   3.864
68063W        W29726   2.797  27.067  13.463
68064W        W29727  29.630  35.991   4.290
68065W        W29728  36.998  24.676  14.505
68066W        W29729   3.841   7.805   0.912
68067W        W29730  25.627  41.879   3.773
68068W        W29731   6.287  34.985  12.025
68069W        W29732  37.406  14.767  11.963
68070W        W29733  25.161  21.545   1.756
68071W        W29734  34.562  31.445   0.849
68072W        W29735  22.700  40.392   2.875
68073W        W29736  11.868  13.707   4.800
68074W        W29737  21.173   8.404  11.069
68075W        W29738   2.310  28.678   4.273
68076W        W29739  20.089   7.881  13.929
68077W        W29740  26.084   0.428  10.416
68078W        W29741  43.786  14.793  10.994
68079W        W29742  15.596  39.027  13.503
68080W        W29743   9.719   4.816   4.317
68081W        W29744  34.900  19.210  12.561
68082W        W29745  34.439  25.163  14.403
68083W        W29746  10.776  36.087  14.378
68084W        W29747  37.082   7.763   3.294
68085W        W29748  14.625  10.813  10.607
68086W        W29749  40.368   5.423  13.908
68087W        W29750  15.723  14.764  12.067
68088W        W29751   9.678   4.254   4.314
68089W        W29752  43.887   3.338  10.453
68090W        W29753   7.696  19.141   3.158
68091W        W29754   2.396   6.863   1.442
68092W        W29755   9.786  39.339  13.931
68093W        W29756  19.686   7.335  11.434
68094W        W29757   4.394  11.351  13.801
68095W        W29758   4.746  38.337   3.335
68096W        W29759   7.713  21.531  12.862
68097W        W29760  36.370  42.016   3.267
68098W        W29761   0.821  35.048   5.119
68099W        W29762  29.951   3.905  12.056
68100W        W29763  38.547  26.159  10.490
68101W        W29764  15.791  25.597   2.295
68102W        W29765   1.331  38.068  12.559
68103W        W29766   0.925  32.581  11.372
68104W        W29767  30.017  39.389  11.495
68105W        W29768  34.886  11.194  14.895
68106W        W29769   3.818  13.751   2.278
68107W        W29770  22.054  10.337   2.397
68108W        W29771   0.745  41.307   5.094
68109W        W29772  39.866  21.605  11.515
68110W        W29773  17.290  44.010   2.347
68111W        W29774  25.149  23.231   2.254
68112W        W29775  14.700  42.483   3.178
68113W        W29776  16.245  10.689  13.792
68114W        W29777  39.894  29.501  11.945
68115W        W29778   3.730  24.692  12.872
68116W        W29779  28.551  33.462  14.990
68117W        W29780  43.871  37.071  11.401
68118W        W29781   2.885  37.004  10.546
68119W        W29782  14.703  30.130   3.345
68120W        W29783  41.861   8.326   3.808
68121W        W29784  11.148  44.417   1.712
68122W        W29785  27.668  27.958   4.141
68123W        W29786  20.696  36.404   4.705
68124W        W29787  23.510  21.188  14.853
68125W        W29788  31.019   8.737  11.012
68126W        W29789   4.342   7.307   4.279
68127W        W29790  12.337   3.294  12.886
68128W        W29791  35.992   4.374   2.886
68129W        W29792  29.952  22.540   9.604
68130W        W29793  16.699  15.581  11.994
68131W        W29794  23.027  10.153   1.234
68132W        W29795  18.627  25.154   0.747
68133W        W29796  17.771  27.543   0.376
68134W        W29797  11.354   1.330  11.379
68135W        W29798   9.296  33.586  13.516
68136W        W29799  33.600  24.143  11.898
68137W        W29800  34.919   9.827  12.354
68138W        W29801  11.825   4.426  14.351
68139W        W29802  31.033  31.568   2.377
68140W        W29803  20.744  20.153  10.892
68141W        W29804   7.359  10.684  11.936
68142W        W29805  34.537   9.734  10.160
68143W        W29806  29.508  10.779  14.350
68144W        W29807  19.728  31.100   4.332
68145W        W29808  11.834  44.800  11.573
68146W        W29809  34.592  16.094   0.405
68147W        W29810  18.604  33.518  10.635
68148W        W29811  40.454  37.529   4.740
68149W        W29812  15.269   6.348   4.613
68150W        W29813  28.582  41.810  10.625
68151W        W29814  33.092   0.420   3.748
68152W        W29815   1.940  19.113   1.305
68153W        W29816  25.994  41.959  13.931
68154W        W29817  38.956  32.901   2.182
68155W        W29818  38.530  14.169  12.512
68156W        W29819  13.809  19.542   3.291
68157W        W29820  15.194  20.606   0.297
68158W        W29821   3.842  36.483   1.349
68159W        W29822  30.466   2.797   3.344
68160W        W29823  13.180  23.734  10.080
68161W        W29824  39.006  12.824   9.991
68162W        W29825  35.569  20.208   1.737
68163W        W29826  41.336   7.338   0.967
68164W        W29827  29.924  29.941   1.316
68165W        W29828   6.370   2.388   3.752
68166W        W29829  34.933  43.800  11.996
68167W        W29830  39.330  19.227   2.703
68168W        W29831  30.531   9.757   0.937
68169W        W29832  27.570   8.387   2.829
68170W        W29833  28.086  26.697   0.916
68171W        W29834  11.711  12.813  14.024
68172W        W29835  22.218  30.126   1.910
68173W        W29836   1.243  32.079  13.441
68174W        W29837  28.116  25.522   0.956
68175W        W29838   5.311  27.498   4.692
68176W        W29839  26.619  31.043   1.426
68177W        W29840  32.980  17.629  13.451
68178W        W29841  13.276   6.897   3.860
68179W        W29842  10.845  27.683  13.532
68180W        W29843  15.165  41.827   1.904
68181W        W29844  43.387   1.758   5.143
68182W        W29845  35.864  11.738  14.356
68183W        W29846   8.321  43.895   1.794
68184W        W29847   1.407  33.490  14.982
68185W        W29848  11.135  26.061  10.461
68186W        W29849  42.922  36.418   3.728
68187W        W29850  18.282  33.493   3.768
68188W        W29851   6.318  31.044   2.219
68189W        W29852   9.865  32.531  14.331
68190W        W29853  22.747  12.181   0.250
68191W        W29854  34.000  20.625  12.908
68192W        W29855  20.200   5.353  11.415
68193W        W29856  27.136   3.238  13.451
68194W        W29857  17.670  19.243   3.826
68195W        W29858  24.052  22.623  11.980
68196W        W29859   1.947   4.716  13.017
68197W        W29860  26.035  16.158   3.635
68198W        W29861  35.084   9.260  11.896
68199W        W29862  10.809  44.438  13.030
68200W        W29863  28.473  12.683  14.008
68201W        W29864  44.850  36.410  14.823
68202W        W29865   7.273  17.678   2.894
68203W        W29866  21.680  12.823   3.272
68204W        W29867  16.180  18.618   2.368
68205W        W29868   6.684  26.040  12.942
68206W        W29869   7.237  11.360   1.398
68207W        W29870  18.194  33.470   0.826
68208W        W29871  38.986  23.017   1.723
68209W        W29872  10.754   5.258  11.878
68210W        W29873  40.438  12.724   1.346
68211W        W29874   4.731  10.657  11.979
68212W        W29875  37.575  17.770  14.030
68213W        W29876  28.458  24.102   1.373
68214W        W29877   6.887  22.599  12.022
68215W        W29878  28.043  12.117  10.637
68216W        W29879  41.824  34.056   3.192
68217W        W29880  16.681  16.180  10.634
68218W        W29881  23.151  17.752   0.872
68219W        W29882   4.382  14.764  10.555
68220W        W29883  38.848   0.935  11.551
68221W        W29884  39.962  13.637   4.354
68222W        W29885  42.294  15.787  10.456
68223W        W29886  16.286  18.565  13.029
68224W        W29887   1.412   2.842  13.326
68225W        W29888  13.792  16.619  12.945
68226W        W29889  33.427  34.907   2.224
68227W        W29890  12.619  39.811  11.894
68228W        W29891  13.274   5.916   4.701
68229W        W29892  34.581  32.918  11.090
68230W        W29893  20.211  41.420   1.701
68231W        W29894  36.046  10.645  11.539
68232W        W29895  30.066  24.084  14.877
68233W        W29896   1.373  42.513  11.947
68234W        W29897   1.254  27.131  13.804
68235W        W29898  39.837  44.473  13.863
68236W        W29899  26.671  17.590   0.867
68237W        W29900  44.999  24.052   4.696
68238W        W29901  24.152  23.548  10.935
68239W        W29902   4.844  21.164  11.490
68240W        W29903  11.302  44.962   3.273
68241W        W29904  20.224  37.480  14.415
68242W        W29905   8.773  39.065   3.379
68243W        W29906  19.649  19.697  10.550
68244W        W29907   8.234  10.675   1.316
68245W        W29908  20.531   4.271  13.833
68246W        W29909  33.544  11.791   3.364
68247W        W29910  26.056   7.678  14.415
68248W        W29911  17.139  10.262  12.850
68249W        W29912  40.963   8.264   5.602
68250W        W29913   8.682   4.762  11.001
68251W        W29914  10.799  10.198   1.832
68252W        W29915  18.160  39.542  12.935
68253W        W29916  43.469   5.211  13.064
68254W        W29917  24.553  10.283   2.364
68255W        W29918  21.594  22.678   4.319
68256W        W29919   4.757  21.026  11.952
68257W        W29920  41.809  28.647  10.579
68258W        W29921  28.546  29.055  11.489
68259W        W29922  37.430  14.166   0.305
68260W        W29923  44.463  30.428   3.204
68261W        W29924  24.694  18.736   4.771
68262W        W29925  39.498  29.006  10.527
68263W        W29926  35.065   3.897   3.150
68264W        W29927  38.469   8.874   2.317
68265W        W29928  29.016  20.186  11.859
68266W        W29929   6.182  33.915   2.756
68267W        W29930  41.963  27.509   0.919
68268W        W29931  39.536  27.966  12.466
68269W        W29932   9.367  18.121  12.436
68270W        W29933   2.720  23.075   0.266
68271W        W29934  20.221  26.133  11.455
68272W        W29935  22.697  24.601  12.995
68273W        W29936  37.364  33.062   0.735
68274W        W29937  23.041  15.318   1.776
68275W        W29938  29.572  40.004   9.667
68276W        W29939  14.687  22.729   1.849
68277W        W29940  17.270  19.062   3.250
68278W        W29941  40.845  34.957   1.236
68279W        W29942  14.134  11.747   3.329
68280W        W29943   2.857   5.207   2.774
68281W        W29944  39.918  13.773   1.885
68282W        W29945  43.274   3.738   2.346
68283W        W29946  24.634   5.243  14.301
68284W        W29947  20.565  41.299  14.401
68285W        W29948  40.027  40.863  11.129
68286W        W29949  10.755  13.134  12.551
68287W        W29950  41.818  20.052  14.908
68288W        W29951  41.942   0.399   9.924
68289W        W29952   5.859  33.920   4.768
68290W        W29953   7.768  17.696   0.952
68291W        W29954  10.796   3.306   2.372
68292W        W29955  21.674  24.658   9.556
68293W        W29956  31.018  43.852  12.449
68294W        W29957  39.966   6.913  10.552
68295W        W29958  43.861  13.130   1.850
68296W        W29959  29.505   3.907  10.436
68297W        W29960  15.084  39.531   1.262
68298W        W29961   8.340  29.444   4.829
68299W        W29962   3.919   0.963   0.456
68300W        W29963  21.110  41.838   3.303
68301W        W29964  35.580  28.543  11.085
68302W        W29965   9.795  10.355   1.274
68303W        W29966   9.707  29.552  13.010
68304W        W29967  11.715  26.666   1.308
68305W        W29968  10.643   6.694  14.761
68306W        W29969  24.022  39.011  12.028
68307W        W29970  26.659  27.640   3.711
68308W        W29971  26.004  35.462  12.868
68309W        W29972  30.514  20.194   9.580
68310W        W29973  31.972  28.664  11.560
68311W        W29974  40.932  21.087  10.914
68312W        W29975  18.147  41.530  10.899
68313W        W29976   7.780  41.832   1.857
68314W        W29977  22.104  10.231   3.859
68315W        W29978  29.027  43.361  13.050
68316W        W29979   8.204  33.081  10.630
68317W        W29980  13.327   7.273   0.438
68318W        W29981  24.083  39.975   3.201
68319W        W29982  10.272  37.041  14.295
68320W        W29983  24.539  15.612   0.375
68321W        W29984  37.995  28.993   4.630
68322W        W29985   0.391   3.883   0.406
68323W        W29986  39.869   9.302  12.841
68324W        W29987  21.668  15.188  14.338
68325W        W29988  21.067  13.762   9.992
68326W        W29989   2.255  29.166  13.868
68327W        W29990  38.519  40.520  14.019
68328W        W29991   5.208   7.324   3.785
68329W        W29992  21.182   4.420  10.511
68330W        W29993  21.110  12.144  14.474
68331W        W29994   5.813   8.376   4.271
68332W        W29995   6.408  32.919   3.746
68333W        W29996  16.635  44.451  11.907
68334W        W29997  39.321  28.022  10.032
68335W        W29998  40.503  10.791   9.574
68336W        W29999  44.406   0.388  14.282
68337W        W30000  40.830  41.911   0.354
68338W        W30001  21.537  26.668  13.889
68339W        W30002   9.264  13.657  12.927
68340W        W30003  32.904  40.394   3.215
68341W        W30004  33.117  19.167  13.063
68342W        W30005  40.944  36.032  10.900
68343W        W30006  33.018  22.230  13.945
68344W        W30007  24.038  35.091  12.903
68345W        W30008  34.865  14.790  13.989
68346W        W30009  38.481  17.651   4.761
68347W        W30010  20.099  37.998  12.411
68348W        W30011  22.611  29.476   2.376
68349W        W30012  35.358  12.146   2.890
68350W        W30013  26.616  28.621  13.439
68351W        W30014  37.571  11.209  13.983
68352W        W30015  35.056   4.250  10.642
68353W        W30016   2.236  14.100  13.016
68354W        W30017  31.131  37.974  11.540
68355W        W30018  22.544  42.890  12.082
68356W        W30019  39.846  17.278  10.482
68357W        W30020  32.105  41.453  10.919
68358W        W30021  34.481  42.483  13.460
68359W        W30022   7.371  11.678   0.795
68360W        W30023  32.400  24.671  11.963
68361W        W30024  27.090  21.019   1.891
68362W        W30025  20.691  13.227   2.766
68363W        W30026  35.864  30.933  11.067
68364W        W30027  31.980  28.485  13.948
68365W        W30028   9.807  14.608  14.452
68366W        W30029   7.699  11.691   4.178
68367W        W30030  32.438  43.796   0.429
68368W        W30031  35.451  16.569   3.272
68369W        W30032  17.275   9.209   3.737
68370W        W30033  19.085   8.723   0.816
68371W        W30034  44.860   4.813  12.961
68372W        W30035   4.899  40.032  12.353
68373W        W30036   5.735   0.381   2.314
68374W        W30037  15.704   5.376   4.711
68375W        W30038   8.818  23.000  12.044
68376W        W30039  36.978   5.813   3.325
68377W        W30040  15.254  31.484  11.041
68378W        W30041  17.242   2.935   0.812
68379W        W30042  29.934  17.229   4.651
68380W        W30043  20.719  20.224   3.228
68381W        W30044   6.784   3.459   3.244
68382W        W30045  25.560  13.294  13.942
68383W        W30046  15.629  38.506  13.367
68384W        W30047  30.433  18.204  13.049
68385W        W30048  41.830  34.382   0.791
68386W        W30049  29.140  13.344   1.917
68387W        W30050  26.533  22.030   4.673
68388W        W30051  34.060  23.508  10.152
68389W        W30052  33.058  44.975   1.334
68390W        W30053  16.627  39.515   0.419
68391W        W30054  16.212   2.302   1.439
68392W        W30055  18.720  35.048   3.229
68393W        W30056  17.266  33.036  13.421
68394W        W30057  16.268  12.661   4.724
68395W        W30058   5.791  37.374  10.549
68396W        W30059  10.779  23.507  14.990
68397W        W30060  44.824  40.482   3.147
68398W        W30061  38.564  34.986   2.223
68399W        W30062  34.609   7.814   3.271
68400W        W30063  21.223  30.969  14.348
68401W        W30064   1.370  16.229   2.409
68402W        W30065  16.075  29.945  10.613
68403W        W30066  20.635  19.734  10.962
68404W        W30067  30.446  31.432  14.000
68405W        W30068  41.920  44.412   0.874
68406W        W30069  35.006  13.256   3.186
68407W        W30070  31.065  27.053  14.291
68408W        W30071  15.791  25.985   0.902
68409W        W30072  44.432  40.372  11.479
68410W        W30073  25.597   1.859   0.853
68411W        W30074   1.256  17.130  11.084
68412W        W30075  12.814   4.773  11.970
68413W        W30076  35.091  19.663   4.620
68414W        W30077  25.142  34.527  10.424
68415W        W30078   9.384  11.867   3.731
68416W        W30079  10.310  33.051  14.959
68417W        W30080  41.477  35.948   2.416
68418W        W30081  25.675  14.597   1.346
68419W        W30082  17.632  13.644  12.921
68420W        W30083  10.684  17.633  13.307
68421W        W30084   6.234   2.331  13.540
68422W        W30085  16.567  27.024   1.415
68423W        W30086  10.183  30.997  11.919
68424W        W30087   6.870  25.024   1.871
68425W        W30088  10.700  13.739  11.404
68426W        W30089   5.892   5.421  12.508
68427W        W30090  35.473  22.062  11.569
68428W        W30091  36.044  22.201  10.534
68429W        W30092  24.678   3.912  13.971
68430W        W30093  39.315   2.458  12.556
68431W        W30094  27.081  31.100  14.320
68432W        W30095  11.670  15.726  11.479
68433W        W30096   5.872  41.876   1.282
68434W        W30097  22.595  19.675  11.570
68435W        W30098  29.524  27.514   2.223
68436W        W30099  29.080   7.321  12.486
68437W        W30100   5.256  24.719   0.862
68438W        W30101  12.146  39.345   0.429
68439W        W30102  40.929  44.495  13.002
68440W        W30103  15.214   4.914   4.669
68441W        W30104  19.284  30.460   1.296
68442W        W30105  13.288  18.227  14.937
68443W        W30106  18.715  42.380   2.226
68444W        W30107  32.072  27.127   3.688
68445W        W30108  39.917  31.487  10.450
68446W        W30109  23.732  21.682   0.900
68447W        W30110  12.761   0.922  14.024
68448W        W30111  33.512  19.099  10.460
68449W        W30112   2.929   7.365   4.344
68450W        W30113  43.502   2.789  11.872
68451W        W30114  33.436  22.681  13.845
68452W        W30115   7.348  23.703   0.258
68453W        W30116   8.684   9.738  13.937
68454W        W30117   4.791  25.980   0.416
68455W        W30118   7.234   5.350  10.547
68456W        W30119  43.332  30.160  11.963
68457W        W30120  30.107  11.659   3.280
68458W        W30121  43.935  34.441   2.783
68459W        W30122  31.960  41.014  13.454
68460W        W30123  29.030   0.474   2.334
68461W        W30124   1.899  17.271   0.799
68462W        W30125  41.787  27.673   2.704
68463W        W30126   6.828  20.621   4.319
68464W        W30127   9.213  20.260  12.066
68465W        W30128  39.013  14.709   3.180
68466W        W30129  44.501  32.392  12.512
68467W        W30130  12.695  39.542   2.831
68468W        W30131  29.046   9.781  13.944
68469W        W30132   6.835   4.836  14.290
68470W        W30133  33.432  31.457  13.498
68471W        W30134  24.723  33.457  14.957
68472W        W30135  14.112  21.642  13.405
68473W        W30136  38.893  26.191   1.778
68474W        W30137  31.528  43.941   0.740
68475W        W30138  19.279  32.945  14.456
68476W        W30139   2.427   0.878   5.189
68477W        W30140  38.406  40.954   4.331
68478W        W30141  23.034  13.302   3.372
68479W        W30142   7.245  25.096  12.065
68480W        W30143  12.803   0.460   1.286
68481W        W30144  37.989  14.781  12.979
68482W        W30145  44.335   3.933  13.444
68483W        W30146  16.144  42.853   1.288
68484W        W30147  25.484  34.947   1.388
68485W        W30148  23.580   5.323   0.962
68486W        W30149  35.079  35.921  13.508
68487W        W30150   3.353  18.105  12.525
68488W        W30151  24.541  34.998  14.474
68489W        W30152  23.527  41.315   3.835
68490W        W30153  14.648   2.945  13.308
68491W        W30154  43.425  40.361  10.563
68492W        W30155  30.515  18.123   2.886
68493W        W30156  12.182  24.486   4.769
68494W        W30157   9.206  27.101   3.867
68495W        W30158   7.794  27.545  12.093
68496W        W30159  25.658   8.698   0.849
68497W        W30160  41.461   9.390   2.706
68498W        W30161  34.105  38.381   3.662
68499W        W30162  32.445   0.776   4.265
68500W        W30163  20.578  29.999  13.865
68501W        W30164  43.308  24.213   3.331
68502W        W30165  18.135  11.221   3.338
68503W        W30166  21.570   1.449   1.836
68504W        W30167  14.274  21.520  14.422
68505W        W30168  35.472  44.871   1.406
68506W        W30169   9.703  39.065   3.857
68507W        W30170  19.539  37.885   4.682
68508W        W30171  12.253  32.526   1.871
68509W        W30172  27.629  33.112   4.707
68510W        W30173  19.745  14.205   3.384
68511W        W30174  29.546  30.460   1.817
68512W        W30175  18.679  17.270  13.836
68513W        W30176  10.641  19.248  10.969
68514W        W30177  20.731  17.113   4.809
68515W        W30178  11.787  25.470  11.989
68516W        W30179   0.335  37.853  13.465
68517W        W30180  22.218  12.812   0.423
68518W        W30181  29.546  41.986  13.960
68519W        W30182  27.462  11.156   2.291
68520W        W30183  34.568  41.968   2.777
68521W        W30184   1.356   5.823  14.404
68522W        W30185   4.797  23.170  12.024
68523W        W30186  12.743  22.727  11.073
68524W        W30187   4.702  14.202  13.540
68525W        W30188   1.257  44.285  14.502
68526W        W30189  12.189  31.952   2.708
68527W        W30190  34.454  25.153   0.936
68528W        W30191  36.970  21.565  10.415
68529W        W30192  17.564   8.386  10.968
68530W        W30193  16.804   4.298   2.667
68531W        W30194  35.548  15.295   2.180
68532W        W30195  10.158   1.936   1.719
68533W        W30196  42.455  31.091   4.278
68534W        W30197  17.701  25.986   0.859
68535W        W30198  41.332   2.227  13.342
68536W        W30199  16.227   5.437   0.745
68537W        W30200   1.265  34.563   2.405
68538W        W30201  34.480  14.617  14.942
68539W        W30202  19.582   5.282  12.558
68540W        W30203  28.061  41.951   4.238
68541W        W30204   5.788   1.938  10.588
68542W        W30205  12.135   5.715  12.472
68543W        W30206  25.694  27.524   2.830
68544W        W30207  35.374  26.127   0.451
68545W        W30208  16.717  11.259   1.856
68546W        W30209  36.509  18.681   1.305
68547W        W30210  16.616   3.951   4.750
68548W        W30211  19.776   3.945  10.978
68549W        W30212  33.479  37.865   3.802
68550W        W30213  21.744  32.469  10.570
68551W        W30214   4.228   5.347  13.326
68552W        W30215  30.552  34.025   3.706
68553W        W30216  27.512  17.194  10.938
68554W        W30217  34.439  21.697  14.493
68555W        W30218  44.403   1.765   1.739
68556W        W30219  38.548  43.916  13.927
68557W        W30220  35.377  19.725  13.407
68558W        W30221  32.142   4.781   3.782
68559W        W30222   8.724   7.368  11.034
68560W        W30223  20.584  10.201  14.868
68561W        W30224   7.322   1.283   0.480
68562W        W30225  19.217  17.653   9.945
68563W        W30226  39.021   7.258   2.345
68564W        W30227   7.411  23.492  13.964
68565W        W30228  28.169  15.224   4.300
68566W        W30229  20.068  34.537  11.920
68567W        W30230  36.892  31.126  12.397
68568W        W30231   8.162  34.579  13.816
68569W        W30232  31.508  20.197   5.603
68570W        W30233  27.518   0.955  12.087
68571W        W30234  35.997   7.316  12.048
68572W        W30235  20.727  39.935  12.912
68573W        W30236  43.785   4.723   1.447
68574W        W30237  10.294  37.920   0.454
68575W        W30238   1.924  10.846   4.774
68576W        W30239  22.147  36.437  14.345
68577W        W30240  34.011   1.271  11.594
68578W        W30241  14.296  27.976  12.354
68579W        W30242  41.449  40.966   1.920
68580W        W30243  40.975  37.975   4.336
68581W        W30244  11.261  15.731   2.291
68582W        W30245  40.826  17.559   1.863
68583W        W30246  37.398  28.983  10.091
68584W        W30247  28.951  40.022   0.790
68585W        W30248   3.266  28.990   0.360
68586W        W30249  27.088  26.065  14.854
68587W        W30250  33.561  36.888  11.444
68588W        W30251  30.639  25.676   2.389
68589W        W30252  30.093  19.611  10.048
68590W        W30253  24.061  36.857   2.332
68591W        W30254  14.292   0.293   0.265
68592W        W30255  32.537  31.952  11.019
68593W        W30256  11.314  42.852   1.437
68594W        W30257  44.479   6.920   1.228
68595W        W30258  37.360  14.218  12.522
68596W        W30259  35.359  13.135  12.885
68597W        W30260  29.961  33.462   1.302
68598W        W30261  14.658   0.291   4.651
68599W        W30262  27.664  16.098  13.819
68600W        W30263  37.019  37.411   0.393
68601W        W30264  26.019  35.590   0.909
68602W        W30265  34.375   6.326   2.698
68603W        W30266   7.791   7.761   0.337
68604W        W30267   6.738  19.054   4.180
68605W        W30268  37.474  11.760  14.347
68606W        W30269  32.900   1.301   4.308
68607W        W30270   2.889  14.163  10.616
68608W        W30271  16.644  40.912   2.288
68609W        W30272  27.154   2.373   2.336
68610W        W30273  42.392  13.790  11.914
68611W        W30274  16.639  14.643  11.604
68612W        W30275  12.615  38.940  14.324
68613W        W30276  23.701   5.423   3.748
68614W        W30277  30.077  22.190   5.224
68615W        W30278  12.328   2.931   3.657
68616W        W30279  37.513  26.584  12.856
68617W        W30280  30.157  42.949   4.249
68618W        W30281  14.792  14.294  11.864
68619W        W30282   6.795  41.347   1.414
68620W        W30283  18.204  31.059   2.835
68621W        W30284  21.702  19.735  14.868
68622W        W30285   7.357   9.226   0.967
68623W        W30286  16.695  19.250   0.339
68624W        W30287  25.205  25.214   3.711
68625W        W30288  43.805   3.371  14.415
68626W        W30289   2.767  25.589   0.262
68627W        W30290  19.616  17.745  14.339
68628W        W30291  21.595  23.987  10.443
68629W        W30292   5.201  42.799   1.790
68630W        W30293  10.145  42.835   5.233
68631W        W30294  26.026  26.982  10.609
68632W        W30295  10.748  31.918   4.206
68633W        W30296  41.985  40.827   4.817
68634W        W30297  10.365  14.237   4.199
68635W        W30298  36.068  34.378   2.264
68636W        W30299  21.612  17.769   1.301
68637W        W30300  30.052  16.641   1.358
68638W        W30301   6.868  14.655  12.403
68639W        W30302  12.348  24.677  11.526
68640W        W30303  19.245   1.284   4.139
68641W        W30304  30.653  34.949   3.748
68642W        W30305  22.078  27.198   0.450
68643W        W30306  41.413  44.286   4.240
68644W        W30307  35.945  21.043  12.865
68645W        W30308  18.698  29.566  14.397
68646W        W30309  36.347  26.963   2.813
68647W        W30310   6.792  28.496  11.606
68648W        W30311   8.836  27.492  12.512
68649W        W30312  35.569  35.031   4.792
68650W        W30313  19.201  35.016  14.516
68651W        W30314  10.817  27.106  14.288
68652W        W30315  33.012  28.598  10.496
68653W        W30316  31.555   7.695   2.389
68654W        W30317  13.834  26.654   4.260
68655W        W30318   2.237  32.454   4.819
68656W        W30319  25.652  32.438  11.063
68657W        W30320  22.089  32.555  11.564
68658W        W30321  25.508   8.901  11.934
68659W        W30322  33.049  33.616   3.725
68660W        W30323  12.219   9.292   3.306
68661W        W30324  41.506   6.225  12.049
68662W        W30325  18.119  26.160   2.376
68663W        W30326   7.886  40.945  10.550
68664W        W30327  13.696  40.358  12.867
68665W        W30328  23.513  38.961  11.907
68666W        W30329  41.302  10.843  12.383
68667W        W30330  36.929  27.022  14.791
68668W        W30331  44.770  32.904   2.184
68669W        W30332  23.078  20.525   1.285
68670W        W30333  21.036  17.066   0.787
68671W        W30334  23.522  41.841  11.399
68672W        W30335  21.586  30.471  14.030
68673W        W30336  17.308  33.987  14.997
68674W        W30337  27.536  31.125  14.943
68675W        W30338  38.965  32.918  12.517
68676W        W30339  29.445  39.540  12.339
68677W        W30340  19.765   3.431  13.826
68678W        W30341  42.515  28.166   3.362
68679W        W30342   0.798   2.742  11.983
68680W        W30343  25.087  39.378  14.344
68681W        W30344  20.697  36.443  13.544
68682W        W30345  13.603  24.156  12.402
68683W        W30346  28.663  29.026  13.793
68684W        W30347  37.858   7.839  14.930
68685W        W30348  44.459  40.330   2.882
68686W        W30349   1.879  38.471   1.857
68687W        W30350  18.208  15.733  14.776
68688W        W30351  13.728   1.251  10.615
68689W        W30352  33.927  44.470  13.468
68690W        W30353  19.187  44.435  13.911
68691W        W30354  17.598  25.075   0.364
68692W        W30355  20.671  43.948  13.427
68693W        W30356  35.410  35.555   0.286
68694W        W30357  21.018  32.107  12.074
68695W        W30358  37.405   9.880   0.763
68696W        W30359  32.097  19.541  12.938
68697W        W30360  34.003  39.037   4.147
68698W        W30361  21.150  37.925  14.482
68699W        W30362   9.736  44.373   2.185
68700W        W30363  37.900   3.315   2.789
68701W        W30364   3.238  35.467   1.717
68702W        W30365   3.361  19.112   4.816
68703W        W30366  27.072   4.349  12.899
68704W        W30367   6.187  37.382  13.951
68705W        W30368   0.786  25.158  14.879
68706W        W30369  30.017  42.326   2.710
68707W        W30370  28.996  32.494   1.397
68708W        W30371  29.447   2.238  13.822
68709W        W30372  43.930  12.736   4.275
68710W        W30373  21.630  32.570  14.909
68711W        W30374   5.690   3.422   0.887
68712W        W30375  37.984  25.175  11.925
68713W        W30376   2.735  40.920   3.233
68714W        W30377  40.926   6.397  11.612
68715W        W30378  14.205   9.721   0.310
68716W        W30379  43.401   6.692   3.676
68717W        W30380  42.900  27.080  10.583
68718W        W30381  28.444  26.022  13.320
68719W        W30382  27.563  14.178  11.944
68720W        W30383  10.356  25.677  10.928
68721W        W30384  21.018   7.675   2.762
68722W        W30385  20.595  34.024  14.510
68723W        W30386  32.896  22.075  14.889
68724W        W30387  14.178  32.392   2.309
68725W        W30388  31.618   3.436   1.409
68726W        W30389  38.439  41.419  12.536
68727W        W30390  38.337   1.890   2.900
68728W        W30391   2.285  44.829  12.369
68729W        W30392  10.869   9.698  14.002
68730W        W30393  23.660  23.030  11.915
68731W        W30394  25.139  11.248   4.617
68732W        W30395  10.198  30.458   2.313
68733W        W30396  18.767   4.837   2.273
68734W        W30397  12.268  33.404  13.407
68735W        W30398   6.813  15.692  14.436
68736W        W30399  41.469  34.103   0.935
68737W        W30400  30.977  13.748   1.349
68738W        W30401  30.445  37.400   0.781
68739W        W30402  13.252  16.571   0.325
68740W        W30403  19.707  25.212   0.802
68741W        W30404  16.698  24.550  13.935
68742W        W30405  28.442  21.210   1.374
68743W        W30406   0.280   1.822  13.427
68744W        W30407  44.448  24.103  13.403
68745W        W30408  30.160  38.029  12.885
68746W        W30409  40.000  17.091  13.412
68747W        W30410  43.948   7.749  11.546
68748W        W30411  18.569   6.424  14.885
68749W        W30412  44.787   3.304  10.929
68750W        W30413  11.372  39.036   3.751
68751W        W30414   3.258  29.620  14.869
68752W        W30415  37.019  27.453   3.296
68753W        W30416   4.936  17.069   4.301
68754W        W30417  14.669  17.307   2.257
68755W        W30418  40.496   7.672   3.795
68756W        W30419   0.844  33.442   0.309
68757W        W30420  14.220  24.521  12.882
68758W        W30421  18.136  31.450   4.139
68759W        W30422  14.164  27.043   3.827
68760W        W30423  40.015  42.378   1.271
68761W        W30424   7.274  21.223  12.989
68762W        W30425  28.436   1.864  13.477
68763W        W30426  34.591   8.282  12.842
68764W        W30427  21.752  20.254   0.323
68765W        W30428  33.394  19.745   9.936
68766W        W30429  27.984  19.600   0.844
68767W        W30430  28.617  21.219   3.768
68768W        W30431   4.238  28.459   1.730
68769W        W30432  20.032   1.465  10.909
68770W        W30433  21.077  33.469   2.664
68771W        W30434  33.475  36.000  14.023
68772W        W30435  43.984  18.645   0.820
68773W        W30436  18.138  15.231   2.180
68774W        W30437  24.108  44.461  10.551
68775W        W30438  36.919  10.171  12.079
68776W        W30439  31.498   2.954   0.314
68777W        W30440  13.698  26.135  13.405
68778W        W30441  26.702  39.493  13.355
68779W        W30442   1.847   2.450   0.310
68780W        W30443  42.420  13.148   4.307
68781W        W30444   0.440  39.880   1.215
68782W        W30445  29.124  16.766   1.804
68783W        W30446   0.798  24.562   0.463
68784W        W30447   0.310  38.328  12.348
68785W        W30448   4.812  16.098  11.103
68786W        W30449  16.704  19.576  13.511
68787W        W30450  35.553  20.692  14.925
68788W        W30451  35.043  20.055  14.823
68789W        W30452  40.485  25.509  13.440
68790W        W30453  26.107   2.918   3.219
68791W        W30454  32.583  26.026   0.274
68792W        W30455  17.235   7.275  13.849
68793W        W30456  25.212  10.246  12.398
68794W        W30457  16.762   2.962   1.331
68795W        W30458   6.310   8.715  13.322
68796W        W30459  38.859  44.823  13.879
68797W        W30460  19.534   3.250  12.372
68798W        W30461   2.394   0.880  13.401
68799W        W30462  25.967  17.578  13.412
68800W        W30463   7.823   9.833   3.847
68801W        W30464   1.316  41.364  10.420
68802W        W30465  11.828  15.682   4.664
68803W        W30466  22.204  22.597   1.414
68804W        W30467  14.677  30.519  14.822
68805W        W30468   4.879  33.537  11.537
68806W        W30469  28.119  34.521   3.813
68807W        W30470  41.490  26.472   0.871
68808W        W30471   2.277  35.420   0.860
68809W        W30472  28.977  17.765  12.033
68810W        W30473  31.050  10.258  13.518
68811W        W30474  44.799  18.118   3.860
68812W        W30475  39.406   9.658  14.358
68813W        W30476  42.998  15.277  13.984
68814W        W30477  23.625   0.865   3.845
68815W        W30478  24.651  16.086  12.919
68816W        W30479  33.070  31.550  14.968
68817W        W30480  39.461   9.328  14.820
68818W        W30481  10.307  21.722  10.482
68819W        W30482  39.420  33.477  11.919
68820W        W30483  17.077   9.357   3.152
68821W        W30484  32.446  42.791   1.220
68822W        W30485  26.197   7.306   0.860
68823W        W30486  12.191  12.206   0.259
68824W        W30487   8.254  43.914  14.507
68825W        W30488  27.013  15.687  12.935
68826W        W30489  43.933  24.608   4.760
68827W        W30490  26.513  44.926  12.904
68828W        W30491  39.020   5.235  10.982
68829W        W30492  11.656  24.032   3.838
68830W        W30493  37.931   5.423  10.123
68831W        W30494  14.813  23.494   4.346
68832W        W30495   4.891  27.059  14.891
68833W        W30496  44.791  26.104  12.396
68834W        W30497  20.723  15.730   0.857
68835W        W30498   7.280  16.722  14.380
68836W        W30499  27.685  31.492  14.944
68837W        W30500   5.921  33.882  13.339
68838W        W30501  22.041  15.212   4.695
68839W        W30502  33.420  27.979  12.363
68840W        W30503  35.062  13.707   0.836
68841W        W30504  39.873  23.163  13.442
68842W        W30505  43.327  33.909   1.231
68843W        W30506  15.592  43.010   3.681
68844W        W30507  32.001   1.280   3.779
68845W        W30508   2.462  27.483   4.325
68846W        W30509  24.579  25.707   2.408
68847W        W30510  26.053  35.052  12.553
68848W        W30511  21.743   9.369  14.379
68849W        W30512  25.695  17.217   0.823
68850W        W30513   3.804  21.577  10.637
68851W        W30514   6.385   1.247  11.510
68852W        W30515  11.660  35.883   1.441
68853W        W30516  36.429  11.150  13.867
68854W        W30517  39.978  42.352   2.407
68855W        W30518  22.251  43.398  13.387
68856W        W30519  20.225  22.188  11.994
68857W        W30520  34.025  25.215  13.961
68858W        W30521  24.653  41.864   4.249
68859W        W30522  23.182   6.421   0.960
68860W        W30523  34.400  41.948  14.318
68861W        W30524  31.588  28.629  11.560
68862W        W30525  20.548  34.488  10.902
68863W        W30526  23.002  44.359  12.386
68864W        W30527  23.542  39.506  14.316
68865W        W30528  39.879  15.798   2.193
68866W        W30529  17.631  40.873   1.907
68867W        W30530  16.742   7.173  12.364
68868W        W30531  32.538  28.547  13.887
68869W        W30532   1.254  25.142  10.965
68870W        W30533   8.688  33.892  10.610
68871W        W30534  39.442  23.082  12.926
68872W        W30535   3.282   2.722  14.407
68873W        W30536  34.438   4.862   1.242
68874W        W30537  34.915   7.219  13.024
68875W        W30538   9.331  14.659   4.658
68876W        W30539   8.208  17.092  12.853
68877W        W30540  21.022  11.716  14.320
68878W        W30541  26.670   4.876   4.802
68879W        W30542  18.607  36.452   1.822
68880W        W30543  15.180   1.398   2.808
68881W        W30544  34.556   6.796   1.832
68882W        W30545  33.426  30.472   3.369
68883W        W30546  31.627  28.490  12.450
68884W        W30547  19.243  34.612  10.456
68885W        W30548  15.627  30.609  13.805
68886W        W30549  30.598  14.193   3.838
68887W        W30550  42.947   9.661  11.085
68888W        W30551  21.552  35.501   1.410
68889W        W30552  18.061  16.317   4.808
68890W        W30553   9.780  22.688   2.221
68891W        W30554  26.607  26.630   3.769
68892W        W30555  10.329   3.334  10.107
68893W        W30556   3.221   4.327  12.082
68894W        W30557   6.243  20.721   2.358
68895W        W30558  27.588   3.458  10.562
68896W        W30559  26.992  14.723   0.378
68897W        W30560  25.149  19.646  13.448
68898W        W30561   7.266  24.672   3.288
68899W        W30562  39.945  25.510  12.440
68900W        W30563   0.356  24.618  14.428
68901W        W30564   3.954  30.491  11.419
68902W        W30565  16.078  35.920  12.921
68903W        W30566   6.855  13.729  10.601
68904W        W30567  39.018  11.131  13.021
68905W        W30568  23.115   4.250  11.866
68906W        W30569  42.935  26.031  11.582
68907W        W30570  11.808  20.744   1.813
68908W        W30571   6.752  13.702  11.114
68909W        W30572  41.365  27.085  14.381
68910W        W30573  34.886  35.107  10.939
68911W        W30574  25.556  18.756   4.602
68912W        W30575  11.813  40.457  11.524
68913W        W30576  20.192   5.364   1.769
68914W        W30577  26.102   0.949  13.806
68915W        W30578  38.836  23.115   2.814
68916W        W30579  26.601  12.266  12.995
68917W        W30580  13.749  22.007   0.910
68918W        W30581  22.009  20.170  11.919
68919W        W30582   1.850  22.115   1.779
68920W        W30583  44.304  26.462  11.111
68921W        W30584  20.062  30.037  12.496
68922W        W30585   7.727  19.059   2.377
68923W        W30586  24.646  14.220   5.114
68924W        W30587  41.846  18.186  13.036
68925W        W30588  10.853  28.967   3.734
68926W        W30589   7.733  20.130   0.459
68927W        W30590  14.798  33.876  11.971
68928W        W30591  24.978  20.059   3.806
68929W        W30592  32.590  40.842  12.019
68930W        W30593  20.220   5.693   0.393
68931W        W30594  42.463  44.786   0.964
68932W        W30595   6.281  38.871   2.225
68933W        W30596   7.414  32.893   2.743
68934W        W30597  26.684  35.857  12.551
68935W        W30598  19.539  24.026  11.980
68936W        W30599  40.315  22.013  12.390
68937W        W30600  18.054   5.775  12.848
68938W        W30601  16.245  17.649  11.957
68939W        W30602  24.040  10.334  10.555
68940W        W30603  36.071  25.588   2.902
68941W        W30604  18.602  29.977  12.067
68942W        W30605  15.614   7.313   4.828
68943W        W30606  13.298  17.226   1.412
68944W        W30607   6.194  29.961   1.862
68945W        W30608   5.266  25.672   3.186
68946W        W30609  19.202   1.263   0.861
68947W        W30610   5.308  30.970  12.359
68948W        W30611  19.577  44.379  10.621
68949W        W30612  15.694  20.757   0.793
68950W        W30613  14.726   6.700  13.336
68951W        W30614  38.991  34.919   0.957
68952W        W30615   9.301  20.648   2.683
68953W        W30616  15.288  28.605   3.868
68954W        W30617  32.040  31.904  10.022
68955W        W30618   2.866  25.113   1.737
68956W        W30619  42.901  39.932   3.264
68957W        W30620  35.433  34.521   3.860
68958W        W30621  31.148  33.488  14.804
68959W        W30622  41.788  33.490  14.795
68960W        W30623   4.406  11.831   2.414
68961W        W30624   7.673  37.834   4.797
68962W        W30625  21.620  25.513   2.341
68963W        W30626  18.573   9.324   2.344
68964W        W30627  25.679   5.780  11.973
68965W        W30628   7.323  37.445   0.757
68966W        W30629  11.137   9.321  13.944
68967W        W30630  40.535  32.042   1.841
68968W        W30631  12.194  10.175  11.116
68969W        W30632  17.575  19.207  10.477
68970W        W30633  29.488  43.504  10.446
68971W        W30634  43.908  14.677   0.396
68972W        W30635  44.840  11.799  12.418
68973W        W30636  24.021   0.839  14.344
68974W        W30637  10.324   4.422  12.481
68975W        W30638   1.373  25.134  12.379
68976W        W30639  31.149  25.147  10.505
68977W        W30640  28.043  30.094   1.228
68978W        W30641  43.871  41.006   0.911
68979W        W30642   9.192  27.643   1.749
68980W        W30643  17.182   7.349   4.302
68981W        W30644  40.341   1.789   3.300
68982W        W30645  16.231  14.209  14.027
68983W        W30646  12.756   8.890  13.326
68984W        W30647  42.856  34.088  12.362
68985W        W30648  38.873   8.321  13.972
68986W        W30649  19.634  22.503   4.651
68987W        W30650  23.702   1.387  11.551
68988W        W30651  40.865  40.020  12.875
68989W        W30652  14.631  39.980  10.500
68990W        W30653   0.431   1.878   3.278
68991W        W30654  34.396  39.346   2.806
68992W        W30655  14.698  36.855  13.417
68993W        W30656  38.076  40.456   0.414
68994W        W30657  11.643  28.513   4.326
68995W        W30658  24.214   4.729   1.857
68996W        W30659   8.758   6.700   2.324
68997W        W30660  16.108  13.108   0.732
68998W        W30661   5.738   0.465   3.156
68999W        W30662   2.419  26.088  12.437
69000W        W30663  14.689  41.448   4.125
69001W        W30664   8.329  37.928  14.857
69002W        W30665   2.353  32.127  10.563
69003W        W30666   0.766  39.430   2.226
69004W        W30667   7.842  39.952  14.840
69005W        W30668  21.125  15.626  10.552
69006W        W30669  19.549  30.938   2.825
69007W        W30670  44.387  25.714   4.142
69008W        W30671  17.142  30.059  11.476
69009W        W30672  26.703  18.197   4.694
69010W        W30673  25.470   3.806   3.271
69011W        W30674   7.773   2.792   2.297
69012W        W30675  42.523  12.198  10.050
69013W        W30676  41.888  16.745   0.799
69014W        W30677  10.729  26.105   1.220
69015W        W30678  20.687  11.170   1.770
69016W        W30679   4.903  28.670  11.958
69017W        W30680  12.357  11.819  10.950
69018W        W30681  20.570  25.496  10.895
69019W        W30682   1.442  10.137   2.221
69020W        W30683  34.968  11.662   3.211
69021W        W30684  13.325  10.345   1.242
69022W        W30685  40.449  32.025  14.865
69023W        W30686  14.166   3.942   1.449
69024W        W30687   6.265  28.464   3.220
69025W        W30688  20.684  10.785   0.962
69026W        W30689  39.358  26.481  10.626
69027W        W30690   2.261  17.196   1.806
69028W        W30691   0.969   5.367   1.707
69029W        W30692  16.603  27.055   2.842
69030W        W30693  29.143  31.596   3.755
69031W        W30694   3.742  12.784  14.462
69032W        W30695  19.170  37.890  14.831
69033W        W30696  11.308  24.096   3.264
69034W        W30697  21.093  29.136   2.178
69035W        W30698   5.385   7.668  10.420
69036W        W30699  16.185  14.746   3.631
69037W        W30700  42.825   4.889  10.467
69038W        W30701  19.110   0.839   2.725
69039W        W30702   2.859  31.909   0.847
69040W        W30703  40.479  11.733  10.645
69041W        W30704   1.238  38.827  12.991
69042W        W30705  34.555  11.178   0.737
69043W        W30706  18.195  29.171   2.270
69044W        W30707  22.234  13.300  10.417
69045W        W30708  37.351  27.963  12.048
69046W        W30709  40.418  36.946   1.849
69047W        W30710  14.615   8.694  13.316
69048W        W30711   0.860  20.674   1.266
69049W        W30712  21.561  41.907  11.083
69050W        W30713  36.930   4.815  13.329
69051W        W30714  38.364  23.708   2.224
69052W        W30715  41.479  17.220  14.951
69053W        W30716  39.453  22.649   3.247
69054W        W30717  26.059  10.140   4.655
69055W        W30718   3.749  14.748   3.667
69056W        W30719  14.672   9.709   4.324
69057W        W30720  20.039  28.449   2.189
69058W        W30721  44.771  13.737   0.295
69059W        W30722  37.832  20.746  10.935
69060W        W30723  16.152  28.958  10.409
69061W        W30724  22.996  39.347   1.797
69062W        W30725  26.106  31.947  14.837
69063W        W30726  38.029  24.671   0.388
69064W        W30727  19.230  30.576   0.865
69065W        W30728  39.536  34.420   1.828
69066W        W30729  27.522   0.490   4.695
69067W        W30730  16.598  21.630   0.760
69068W        W30731  31.456  38.547  14.275
69069W        W30732   3.889   6.184   0.951
69070W        W30733  21.201  35.909  14.928
69071W        W30734  38.010  16.242   0.403
69072W        W30735  40.325   2.232   4.215
69073W        W30736  24.482  13.336   3.776
69074W        W30737  19.093  31.644   2.300
69075W        W30738  35.563  38.458  13.513
69076W        W30739  44.939  28.067  12.423
69077W        W30740  42.345  43.981  11.422
69078W        W30741  13.644  41.518  12.873
69079W        W30742  28.570  36.507  13.009
69080W        W30743   4.945  30.418   3.769
69081W        W30744   8.278  38.853   0.730
69082W        W30745  33.614  44.925  12.353
69083W        W30746   5.720  16.579   1.268
69084W        W30747  39.813  26.959   2.248
69085W        W30748  28.054  10.283   1.844
69086W        W30749  22.609  30.067   3.645
69087W        W30750  14.111  21.143  13.383
69088W        W30751  32.123   3.902  13.824
69089W        W30752  37.567   2.414   2.276
69090W        W30753  11.683  27.497   3.216
69091W        W30754   9.340  37.886   4.625
69092W        W30755   8.220  26.000  12.346
69093W        W30756  38.333  28.499   2.273
69094W        W30757   5.375  24.980  14.403
69095W        W30758  15.736   1.859   3.318
69096W        W30759  42.485  28.615   1.263
69097W        W30760   7.725  22.523   4.741
69098W        W30761  40.862   1.880  11.007
69099W        W30762  24.641  16.757  13.856
69100W        W30763   7.194  28.106   3.820
69101W        W30764   9.865   7.232   9.476
69102W        W30765  37.032   3.232   1.271
69103W        W30766  13.279   9.713   1.304
69104W        W30767  28.664  15.306  14.831
69105W        W30768  35.106   3.426   0.357
69106W        W30769  43.436  36.085  14.421
69107W        W30770  27.506  23.614   4.229
69108W        W30771  32.101  38.948   2.380
69109W        W30772  30.500  15.294   2.356
69110W        W30773  41.346  20.077  12.522
69111W        W30774  21.259  36.957  10.521
69112W        W30775  24.486  31.553   0.783
69113W        W30776   8.836   5.875   4.169
69114W        W30777   3.276  36.363  13.895
69115W        W30778  24.574  15.581  13.311
69116W        W30779   1.391  27.159   0.760
69117W        W30780  30.548  30.659   3.745
69118W        W30781   0.918  10.675  14.944
69119W        W30782  22.046  38.832  14.321
69120W        W30783  23.701  15.766  12.887
69121W        W30784  34.119   6.706  11.929
69122W        W30785  40.388  11.861  14.476
69123W        W30786  32.608  17.778   2.297
69124W        W30787   2.727  38.502   2.779
69125W        W30788  35.099  19.160   4.146
69126W        W30789  23.067  28.649   2.750
69127W        W30790  44.435  29.448   2.769
69128W        W30791   4.340  43.493   0.429
69129W        W30792   1.892  37.074  13.870
69130W        W30793  24.146  36.036  11.547
69131W        W30794  37.460  29.972  14.786
69132W        W30795  20.534  44.377  11.951
69133W        W30796  16.693  30.090  12.823
69134W        W30797   0.809  39.989  11.388
69135W        W30798   9.177  37.550   3.175
69136W        W30799  39.439  26.561   3.370
69137W        W30800  41.331  27.062   4.235
69138W        W30801  10.679  34.068  12.511
69139W        W30802  20.756  27.946  11.032
69140W        W30803  29.509  36.992   0.344
69141W        W30804  26.519   2.380  14.363
69142W        W30805   0.287  26.164  13.800
69143W        W30806  40.393  28.027   2.899
69144W        W30807   8.731  15.585   5.212
69145W        W30808  13.684   5.439   4.784
69146W        W30809  24.199  19.059   3.721
69147W        W30810   4.854  34.043   2.803
69148W        W30811  32.043  18.171  13.928
69149W        W30812  21.185   1.924   3.658
69150W        W30813  25.639  11.169  11.078
69151W        W30814  13.218  18.682   0.284
69152W        W30815  28.965   0.757   3.299
69153W        W30816  36.866  28.656  12.945
69154W        W30817  18.774  19.568   0.729
69155W        W30818  19.217  15.272   1.323
69156W        W30819   8.697  43.381   1.912
69157W        W30820  38.955  18.088  10.475
69158W        W30821   3.806  23.512  14.886
69159W        W30822  23.002  29.967   3.191
69160W        W30823  39.064   7.840  11.977
69161W        W30824   0.364  24.045   3.805
69162W        W30825  44.409   3.821   4.137
69163W        W30826   3.262   4.943   2.342
69164W        W30827   3.308   4.364  14.940
69165W        W30828  44.955  20.544   1.817
69166W        W30829  13.129  31.528   3.694
69167W        W30830  21.585  34.375   3.241
69168W        W30831   5.375   6.683   3.175
69169W        W30832  44.289   6.321   4.671
69170W        W30833  13.267  25.008   2.280
69171W        W30834  26.626   7.333   3.752
69172W        W30835  26.592   1.428  14.018
69173W        W30836   7.306  13.602   2.863
69174W        W30837  21.137  24.637   4.300
69175W        W30838  27.481  17.590   1.854
69176W        W30839   9.272  37.350  14.998
69177W        W30840  41.896  34.523   3.723
69178W        W30841  35.947  30.098  13.402
69179W        W30842  33.014  36.030  10.526
69180W        W30843  27.505   5.736   4.711
69181W        W30844  40.313  40.936   3.696
69182W        W30845  30.464  31.607   3.642
69183W        W30846  25.180   0.391  13.917
69184W        W30847  33.481  38.367   1.809
69185W        W30848   8.356  43.855   2.228
69186W        W30849  34.419  25.078  13.517
69187W        W30850  28.963   5.932   1.694
69188W        W30851  39.434  38.063  13.913
69189W        W30852  15.152  14.619   2.404
69190W        W30853  17.129  20.062  14.284
69191W        W30854  26.997  22.614  10.617
69192W        W30855  38.002  27.618   1.728
69193W        W30856  27.180  37.003   1.769
69194W        W30857   3.239  24.509  11.474
69195W        W30858  38.824  15.121   3.746
69196W        W30859  19.183  33.036   1.756
69197W        W30860  13.794  10.220  14.795
69198W        W30861  25.155  22.732  10.965
69199W        W30862   7.743  14.688   0.361
69200W        W30863  23.997   9.788  13.970
69201W        W30864  43.825  36.920  14.470
69202W        W30865   9.696   5.718   2.390
69203W        W30866   2.241  36.971   2.670
69204W        W30867   6.413  13.313   0.452
69205W        W30868  44.501  35.953   0.273
69206W        W30869  23.710  11.732  11.041
69207W        W30870  17.122  37.055   3.316
69208W        W30871  22.589  14.669   4.601
69209W        W30872   9.668  14.832  11.974
69210W        W30873  32.963   9.671  13.522
69211W        W30874  27.549  12.215   4.632
69212W        W30875  33.425  13.137  14.759
69213W        W30876  28.026  34.563   1.747
69214W        W30877  32.132  24.005  13.385
69215W        W30878   4.348  23.665   1.267
69216W        W30879  22.131   9.219  11.908
69217W        W30880   6.202  27.587  12.076
69218W        W30881  24.531  21.572   1.719
69219W        W30882   7.699  34.935  11.410
69220W        W30883  40.353  10.273  12.835
69221W        W30884  34.960   4.255   0.942
69222W        W30885   4.368   6.890   3.288
69223W        W30886  42.862   9.749   4.727
69224W        W30887  11.837  22.056  13.906
69225W        W30888  14.177  35.957   5.723
69226W        W30889  11.725  21.543   2.739
69227W        W30890  16.098  26.490   0.398
69228W        W30891   1.785   2.239   2.898
69229W        W30892   1.468  31.571  12.984
69230W        W30893  39.546  44.374   4.214
69231W        W30894  17.760  23.100   4.701
69232W        W30895  22.148  23.538   2.284
69233W        W30896  16.805   0.792   4.237
69234W        W30897  43.366  21.566  14.347
69235W        W30898  33.624   7.393   3.725
69236W        W30899  22.057  35.977   3.146
69237W        W30900   8.743  39.944   4.258
69238W        W30901  43.384   9.694   9.564
69239W        W30902  44.010  20.047   4.248
69240W        W30903  32.116  22.159  12.398
69241W        W30904  11.764  42.295  10.475
69242W        W30905  28.138   8.249   3.334
69243W        W30906  43.832  32.902  11.574
69244W        W30907  31.500  30.963   0.379
69245W        W30908  32.935  33.021  10.513
69246W        W30909  33.515   4.404  10.461
69247W        W30910  19.233  37.965  10.622
69248W        W30911  36.925  40.944  11.522
69249W        W30912   2.322  19.653   3.367
69250W        W30913  32.051  18.626  12.540
69251W        W30914  23.633  12.714   4.245
69252W        W30915  37.465  33.070   4.263
69253W        W30916  35.958  40.319   5.240
69254W        W30917  38.366  17.665  10.919
69255W        W30918   2.772  37.573   1.853
69256W        W30919  43.301   5.379  14.489
69257W        W30920  34.947   4.385   3.736
69258W        W30921   5.218  40.027   0.844
69259W        W30922  18.124  22.180   1.748
69260W        W30923  20.205  12.661   3.147
69261W        W30924  42.991  35.058   0.384
69262W        W30925  40.974   0.401   0.305
69263W        W30926  14.193  30.115   0.892
69264W        W30927   3.952  39.343  11.070
69265W        W30928   7.767  31.531   2.888
69266W        W30929  13.129  34.481  12.887
69267W        W30930  10.791   1.248  13.500
69268W        W30931  10.154  22.514  11.036
69269W        W30932   0.270  29.439  14.988
69270W        W30933   8.747  39.559  13.353
69271W        W30934  14.701   2.270   0.325
69272W        W30935   1.258  18.064  13.960
69273W        W30936  10.301  15.190   1.273
69274W        W30937  10.781  15.158   1.875
69275W        W30938  13.646  21.237  12.850
69276W        W30939   4.836  40.918   2.231
69277W        W30940  27.045  43.786  11.598
69278W        W30941  37.367   1.788   1.381
69279W        W30942  40.940  31.976   4.807
69280W        W30943  37.527  39.947  14.803
69281W        W30944  17.085  10.153  13.521
69282W        W30945  37.936  19.688  12.917
69283W        W30946  34.870  18.626  10.632
69284W        W30947   4.334  43.441   1.329
69285W        W30948   0.470  22.575  14.849
69286W        W30949  37.974   5.356  11.498
69287W        W30950   2.266  30.611  12.872
69288W        W30951  15.756  20.624   9.928
69289W        W30952  42.520  23.736  11.034
69290W        W30953  13.690  26.662  10.438
69291W        W30954  25.607   9.868   4.161
69292W        W30955  34.381   4.251   0.729
69293W        W30956   0.970   3.873   1.879
69294W        W30957   4.813  43.016   0.868
69295W        W30958  28.176  22.695  12.569
69296W        W30959  10.202   9.693   1.345
69297W        W30960  42.885   6.848  13.482
69298W        W30961  13.608  20.228   4.650
69299W        W30962  19.630  43.506  11.968
69300W        W30963  12.650   5.798  10.622
69301W        W30964  37.966   7.863   1.872
69302W        W30965  18.272  22.622   1.744
69303W        W30966  30.945  23.151   3.163
69304W        W30967  34.007   0.393  11.871
69305W        W30968  27.668   5.226  14.408
69306W        W30969  27.544  23.047   4.317
69307W        W30970  38.063  37.884   2.728
69308W        W30971  31.591  20.160  13.440
69309W        W30972   2.904  29.669   4.311
69310W        W30973  23.656  31.627   3.336
69311W        W30974   1.806  24.058   3.216
69312W        W30975  11.836  40.995   2.184
69313W        W30976   4.282  10.753  12.561
69314W        W30977  16.155  34.473   2.688
69315W        W30978  29.426  15.679   5.149
69316W        W30979  36.457   5.356  11.031
69317W        W30980   2.911   1.338  13.483
69318W        W30981  38.420   5.321  10.469
69319W        W30982   2.824  20.684   3.229
69320W        W30983  43.302  17.182  11.596
69321W        W30984  37.065  35.474   1.242
69322W        W30985  25.647  32.628  12.037
69323W        W30986  16.625  12.277   2.283
69324W        W30987  41.417  26.655   5.274
69325W        W30988  32.403   0.316  12.516
69326W        W30989  21.617  38.340  14.800
69327W        W30990  42.427  13.638  13.455
69328W        W30991  20.606  40.046  10.558
69329W        W30992   8.863  23.554   4.326
69330W        W30993  10.837  37.428  13.531
69331W        W30994  28.561   2.423   4.201
69332W        W30995  43.795   0.921  13.875
69333W        W30996  10.212  37.948   3.870
69334W        W30997  32.112  26.703   4.138
69335W        W30998  37.066   7.400  14.802
69336W        W30999  15.290  21.526   4.815
69337W        W31000   0.744  15.173   5.084
69338W        W31001   3.231  38.927   2.293
69339W        W31002  43.964   2.395  10.624
69340W        W31003  19.716  33.934   1.423
69341W        W31004  21.182  29.073   1.218
69342W        W31005  12.143  28.550  14.007
69343W        W31006  15.778  12.288  14.022
69344W        W31007   9.722  19.158  12.348
69345W        W31008  24.711  28.082   4.755
69346W        W31009  41.485   5.756   1.735
69347W        W31010  32.949   8.313   2.204
69348W        W31011  41.027   7.730  11.950
69349W        W31012  36.523  10.272  11.455
69350W        W31013  15.725   6.785  13.892
69351W        W31014  29.031  14.620  12.898
69352W        W31015  28.122   4.880   0.895
69353W        W31016  43.401  23.216  11.080
69354W        W31017  11.208   4.296  13.871
69355W        W31018   4.422  17.569   4.787
69356W        W31019  22.520  43.286  14.445
69357W        W31020  10.201  21.023   1.374
69358W        W31021  20.572  37.872  11.569
69359W        W31022  20.155  42.520   3.291
69360W        W31023  31.563  15.607  10.525
69361W        W31024  16.590  19.140   4.158
69362W        W31025  32.416  21.662   0.768
69363W        W31026  12.170  18.641  12.076
69364W        W31027  42.974  25.513   5.288
69365W        W31028  44.818  25.097  14.901
69366W        W31029  42.858   8.723   3.757
69367W        W31030   8.670  22.199   1.796
69368W        W31031   7.179  23.117   0.743
69369W        W31032  39.550   8.315   4.699
69370W        W31033  21.547   3.714   3.831
69371W        W31034  14.818  10.736  12.045
69372W        W31035   3.912   2.362   0.805
69373W        W31036   2.358  16.235   2.822
69374W        W31037  14.824  33.998  12.845
69375W        W31038  35.890  33.560  14.516
69376W        W31039  29.944  33.109   0.482
69377W        W31040  27.493  29.942  14.341
69378W        W31041  20.620   8.851   1.429
69379W        W31042  33.480  29.577   1.427
69380W        W31043  42.500  32.111   4.257
69381W        W31044  42.428   8.400   0.455
69382W        W31045  27.611  10.638  12.489
69383W        W31046  43.985  24.126  14.820
69384W        W31047   7.246  17.710   0.761
69385W        W31048  24.650  11.687  11.428
69386W        W31049   4.739  38.414   2.681
69387W        W31050  13.262  18.777   9.922
69388W        W31051   2.950   6.719   0.337
69389W        W31052  33.598  30.119  14.877
69390W        W31053   3.750  10.336  11.956
69391W        W31054  13.118  11.339  14.888
69392W        W31055  44.489  26.045  14.011
69393W        W31056   0.976  35.971  10.997
69394W        W31057  15.722  30.160  13.883
69395W        W31058   7.261  18.622  13.524
69396W        W31059  20.204   3.755   3.163
69397W        W31060  21.735  36.569  10.568
69398W        W31061  18.624  10.727  14.949
69399W        W31062  34.089  32.899  12.367
69400W        W31063   5.790  28.106   3.313
69401W        W31064   7.678   7.340  12.573
69402W        W31065  38.865  41.456   3.328
69403W        W31066   2.782   9.728   1.788
69404W        W31067   9.159  19.540   4.262
69405W        W31068  36.491  35.042   4.299
69406W        W31069  26.626  24.056   1.783
69407W        W31070  33.431  19.103   5.319
69408W        W31071  37.859  41.993  12.472
69409W        W31072  26.662   4.309   1.274
69410W        W31073  32.560  43.945  13.374
69411W        W31074   3.346  31.133  11.476
69412W        W31075  42.786  43.862   4.766
69413W        W31076  28.998   5.428  12.953
69414W        W31077  28.678   5.264   1.233
69415W        W31078  18.059  26.572   2.337
69416W        W31079  11.283  31.917  14.382
69417W        W31080  25.482  32.469   2.178
69418W        W31081  35.104  29.503   4.266
69419W        W31082  11.646  30.998   0.727
69420W        W31083   1.342  24.048   4.261
69421W        W31084  17.304   6.296  10.462
69422W        W31085  43.938  33.127   1.904
69423W        W31086  23.116  11.235  11.396
69424W        W31087  23.158   1.462   0.318
69425W        W31088   6.200  36.567   0.936
69426W        W31089  40.313  19.594  13.921
69427W        W31090  26.701  42.030  10.930
69428W        W31091  30.004  32.093  14.416
69429W        W31092  39.873  17.197   3.670
69430W        W31093  19.739  14.124   5.113
69431W        W31094  34.435  34.517  12.443
69432W        W31095  39.535   9.782   1.390
69433W        W31096  37.516   1.962   4.760
69434W        W31097  13.287  43.878  14.918
69435W        W31098  27.148  32.057  13.994
69436W        W31099  31.956  20.757  14.835
69437W        W31100  38.904  41.404   1.434
69438W        W31101   3.905  13.137  14.502
69439W        W31102  31.442  34.580  12.090
69440W        W31103  16.217   6.414   0.328
69441W        W31104  25.617  14.120   3.202
69442W        W31105  27.088  25.024  12.519
69443W        W31106  11.712  39.450   0.294
69444W        W31107  37.378  29.656  11.042
69445W        W31108  14.625  23.227  12.896
69446W        W31109  18.737  37.466  14.012
69447W        W31110  19.215  29.064   2.180
69448W        W31111   7.223  23.139   0.385
69449W        W31112   0.424  18.621   0.280
69450W        W31113  18.623  19.756  11.969
69451W        W31114  18.057  22.730  13.791
69452W        W31115  41.360  37.428  11.980
69453W        W31116  41.027  18.154   2.891
69454W        W31117   1.353  14.828  11.545
69455W        W31118  41.489  37.575   0.844
69456W        W31119   9.176  19.077  13.371
69457W        W31120   8.283  33.421   2.821
69458W        W31121  36.449  37.984  10.432
69459W        W31122  36.921  44.939  14.364
69460W        W31123  22.734  17.789   4.276
69461W        W31124  42.284  30.454   4.330
69462W        W31125  36.467  25.035  13.913
69463W        W31126  34.089  30.003   2.859
69464W        W31127  12.651  26.974   1.274
69465W        W31128  20.235  14.775  11.531
69466W        W31129  31.897  41.788   4.246
69467W        W31130  13.820  39.911   4.797
69468W        W31131  44.951   4.252  12.476
69469W        W31132  22.156   4.325   2.852
69470W        W31133  22.614  19.589   2.725
69471W        W31134  25.069  43.315   0.820
69472W        W31135  21.219  38.877  13.503
69473W        W31136  44.324   8.318   2.315
69474W        W31137   7.821  13.232  14.791
69475W        W31138  18.544  18.708   2.894
69476W        W31139  42.412  41.495   1.375
69477W        W31140   2.272  39.543  13.937
69478W        W31141  26.194   2.819  13.951
69479W        W31142   8.233  24.098  11.021
69480W        W31143   7.298   0.321  12.976
69481W        W31144   6.298  16.761   2.384
69482W        W31145  16.589  13.725   4.723
69483W        W31146  27.504  40.328  14.503
69484W        W31147  19.065  41.519  11.067
69485W        W31148   9.732  10.325   3.853
69486W        W31149  35.510   2.321  11.611
69487W        W31150  11.646  30.507  14.487
69488W        W31151   4.307  18.198   0.738
69489W        W31152   1.917  31.445   2.185
69490W        W31153  37.868  12.677  10.615
69491W        W31154  18.655   5.373  13.462
69492W        W31155  13.229  37.386  12.956
69493W        W31156   0.299  19.080   1.404
69494W        W31157  28.152   3.394  13.851
69495W        W31158   0.949  14.094  12.482
69496W        W31159  39.929  26.066   0.744
69497W        W31160  18.706  25.660   1.343
69498W        W31161  35.013  20.047  14.285
69499W        W31162  13.689  40.414  13.971
69500W        W31163  11.188  33.898   4.233
69501W        W31164  10.228  42.359   2.254
69502W        W31165  29.110  31.585   1.427
69503W        W31166  31.442  29.435  13.799
69504W        W31167  36.956  13.725   4.194
69505W        W31168  21.601  28.584   3.631
69506W        W31169  24.063  14.789   1.897
69507W        W31170  40.549   0.350   2.848
69508W        W31171  43.872  28.998  10.988
69509W        W31172  28.598  20.075  11.864
69510W        W31173  32.976  30.164  11.888
69511W        W31174  17.714   5.297   0.908
69512W        W31175  40.912  12.213  12.484
69513W        W31176  12.326  10.222   3.864
69514W        W31177  35.926   2.278  12.090
69515W        W31178   6.186  44.264   4.733
69516W        W31179   8.855   9.327   3.263
69517W        W31180  37.382  44.853  13.925
69518W        W31181  30.122  31.486  11.446
69519W        W31182  38.494  38.332  14.315
69520W        W31183  27.109  21.624  10.485
69521W        W31184  29.458  43.440  13.476
69522W        W31185  13.341  35.980  12.488
69523W        W31186  37.926  24.979   5.313
69524W        W31187  21.099  30.485   0.921
69525W        W31188  34.570  44.951  14.766
69526W        W31189  34.453  32.923   0.456
69527W        W31190   9.763  31.562  11.582
69528W        W31191  21.661  15.661  13.527
69529W        W31192  43.919  20.228   2.277
69530W        W31193   3.742  43.493   4.701
69531W        W31194   2.962  22.102   4.240
69532W        W31195  35.517  24.636  12.510
69533W        W31196  21.225  43.343  14.371
69534W        W31197  44.840  17.793   0.831
69535W        W31198  18.231   9.848  13.874
69536W        W31199  21.229  42.853  13.318
69537W        W31200  30.105  21.188  10.003
69538W        W31201  28.057  44.298   0.858
69539W        W31202  11.329  26.109  13.914
69540W        W31203  39.508  42.498   3.170
69541W        W31204   7.205  36.365  10.572
69542W        W31205  11.654  13.742  11.416
69543W        W31206   6.690  37.068  10.616
69544W        W31207   1.896  25.657   2.393
69545W        W31208  43.820  12.261  13.004
69546W        W31209   4.720  26.631   0.358
69547W        W31210   7.905   3.907   4.704
69548W        W31211   3.305  22.655   4.755
69549W        W31212   0.978  37.489   9.968
69550W        W31213  11.179  13.111  10.463
69551W        W31214   5.817  41.435  12.967
69552W        W31215  33.117  11.675  12.068
69553W        W31216  13.271   8.365   2.800
69554W        W31217  38.901   1.443  13.320
69555W        W31218   9.805  11.653  12.051
69556W        W31219   6.197  18.788  13.034
69557W        W31220  26.495   2.391  11.913
69558W        W31221  26.142  10.824   3.677
69559W        W31222  24.522  20.125   0.307
69560W        W31223   2.778  12.711  11.930
69561W        W31224   4.818  43.943  13.474
69562W        W31225  28.972   3.249  11.436
69563W        W31226  43.464  40.473  14.977
69564W        W31227  20.074  16.186  14.317
69565W        W31228   5.798   5.868   4.353
69566W        W31229   6.760  11.228  10.441
69567W        W31230  23.070   7.378   0.893
69568W        W31231  43.879  16.209  14.019
69569W        W31232  24.105  37.044  10.527
69570W        W31233  17.251  28.449   0.825
69571W        W31234   7.810  20.672   2.341
69572W        W31235  22.607  17.263  10.445
69573W        W31236  36.910  28.627   2.873
69574W        W31237  21.095   3.449  12.954
69575W        W31238  14.120  15.142   2.877
69576W        W31239  12.780  33.002   0.890
69577W        W31240   3.877   7.254   1.774
69578W        W31241  31.630  40.311  14.996
69579W        W31242  28.971  18.267  10.989
69580W        W31243  14.830   2.304  14.410
69581W        W31244  44.329  34.487  12.534
69582W        W31245  27.586  23.719   3.870
69583W        W31246  20.216  33.617  12.830
69584W        W31247  31.403   1.347  10.631
69585W        W31248  42.952   4.914   0.862
69586W        W31249   2.733   1.354  14.957
69587W        W31250  29.663   3.446  14.415
69588W        W31251  38.856  31.506   4.722
69589W        W31252  22.179   3.917  13.443
69590W        W31253  27.549   4.880   0.776
69591W        W31254   6.762  18.185  10.600
69592W        W31255   7.336  24.610  14.305
69593W        W31256   6.403  26.204  12.060
69594W        W31257  18.244  14.663   2.391
69595W        W31258  18.726  13.107  11.567
69596W        W31259  25.201   2.764   0.363
69597W        W31260   4.351  22.219  14.977
69598W        W31261   1.305  26.157  12.053
69599W        W31262  29.607  39.358   3.312
69600W        W31263  26.529   6.846  12.502
69601W        W31264  42.344  41.866   2.398
69602W        W31265  33.432  31.940  13.811
69603W        W31266  38.489  21.542   4.757
69604W        W31267  27.554  43.363  12.483
69605W        W31268  23.592  41.476   2.202
69606W        W31269  31.518  15.599   0.944
69607W        W31270  19.192  39.476   4.667
69608W        W31271  11.629  17.574  12.543
69609W        W31272   1.905  12.291  12.001
69610W        W31273   5.880   7.201   0.793
69611W        W31274   3.866  42.298  11.528
69612W        W31275  24.017  11.796   4.341
69613W        W31276  19.699  44.433  13.918
69614W        W31277  34.505  30.910  11.602
69615W        W31278   4.291   5.892  11.471
69616W        W31279  28.651  29.608   3.735
69617W        W31280  35.363   9.183  13.845
69618W        W31281  32.930  29.075  14.861
69619W        W31282   1.335   0.888   2.825
69620W        W31283   7.874   2.807   1.759
69621W        W31284  23.640   7.675  12.505
69622W        W31285  40.902  37.405   3.235
69623W        W31286  31.029  15.745  10.092
69624W        W31287  13.829  32.528  10.514
69625W        W31288  35.566  43.004  11.606
69626W        W31289  11.831  11.686   2.722
69627W        W31290  14.784   3.307  10.547
69628W        W31291  15.250  42.997  12.823
69629W        W31292  18.684  18.653  11.376
69630W        W31293  24.628  36.551  14.414
69631W        W31294  42.001  11.741  10.445
69632W        W31295  42.364   2.722  14.478
69633W        W31296  20.661  17.233  10.981
69634W        W31297  35.419   1.972  14.881
69635W        W31298  22.094  25.528  13.447
69636W        W31299  32.959  31.429   0.382
69637W        W31300   6.252  19.675  11.960
69638W        W31301   7.844  39.879  14.322
69639W        W31302  25.193  10.650  11.571
69640W        W31303  17.590  36.370  11.387
69641W        W31304  29.520  43.818   4.681
69642W        W31305  16.769  16.092   0.738
69643W        W31306  26.692   3.840  13.845
69644W        W31307  23.161  28.623   1.260
69645W        W31308  39.556  17.271   1.800
69646W        W31309  41.878  28.985   2.327
69647W        W31310   9.755   5.754   3.187
69648W        W31311  28.958  29.562   0.244
69649W        W31312  14.181  26.655   1.781
69650W        W31313  16.645  34.409  12.413
69651W        W31314  28.161  11.281   3.260
69652W        W31315  36.433  15.112   1.845
69653W        W31316  14.179   3.793  13.459
69654W        W31317  14.791  38.995   5.197
69655W        W31318  43.940  13.730   2.372
69656W        W31319  36.984  32.921  11.081
69657W        W31320   8.173  40.351   2.200
69658W        W31321  17.639   2.758   4.659
69659W        W31322  27.015  11.690  10.114
69660W        W31323   4.337   0.910   0.735
69661W        W31324   5.417  33.909   3.200
69662W        W31325  15.688   8.787  11.925
69663W        W31326  30.538  38.485   4.168
69664W        W31327  33.099  44.261   2.891
69665W        W31328  11.697  19.551   2.856
69666W        W31329  39.915   7.306  12.987
69667W        W31330  28.557  15.146   0.330
69668W        W31331   2.922  15.681   4.213
69669W        W31332   3.412   9.317  13.341
69670W        W31333  18.550   2.823   0.858
69671W        W31334   9.858  26.141   3.750
69672W        W31335  35.090  20.752  14.315
69673W        W31336   0.859  23.699  12.943
69674W        W31337   0.401  41.421  10.988
69675W        W31338  35.885  15.119  14.928
69676W        W31339   4.896  20.724   0.442
69677W        W31340  30.158  37.546  13.793
69678W        W31341  25.688  19.771   2.754
69679W        W31342  14.604   9.179   2.800
69680W        W31343  29.920   2.472   3.778
69681W        W31344  11.739   4.747  14.510
69682W        W31345  14.677  35.020   2.270
69683W        W31346  21.153  13.790  13.954
69684W        W31347   5.203  34.539   2.191
69685W        W31348  19.547  27.013  14.921
69686W        W31349  24.128  16.726   1.818
69687W        W31350  20.036  30.968   3.855
69688W        W31351  31.485  24.047   1.782
69689W        W31352  31.114  24.228  14.014
69690W        W31353  28.995  17.563   1.283
69691W        W31354  30.632   7.189   0.369
69692W        W31355  33.566   1.482   3.264
69693W        W31356  43.304  40.437   3.784
69694W        W31357  22.517   1.863   2.256
69695W        W31358  24.135  19.046  13.950
69696W        W31359  32.622  11.626   4.642
69697W        W31360   7.280  14.160   4.316
69698W        W31361   1.792  39.860  13.980
69699W        W31362  34.925   2.924  11.452
69700W        W31363  25.517  22.056   1.414
69701W        W31364  18.203  29.493   2.321
69702W        W31365  17.290   3.745  11.956
69703W        W31366  43.799  39.322  12.896
69704W        W31367  10.758  39.987  13.517
69705W        W31368  40.808  30.084  13.001
69706W        W31369  15.202  28.643  10.573
69707W        W31370  29.582  20.149  11.472
69708W        W31371  33.547  18.614  14.364
69709W        W31372  26.632  38.905   0.726
69710W        W31373  30.627  44.379  11.923
69711W        W31374   8.291  13.693  14.770
69712W        W31375  13.119  32.030   3.864
69713W        W31376   9.205  36.055  14.370
69714W        W31377  29.593  16.582  12.063
69715W        W31378  33.401   5.328  12.509
69716W        W31379  25.685  35.545  13.337
69717W        W31380  33.055  30.932   4.726
69718W        W31381  27.029   0.945   4.114
69719W        W31382  26.005  23.069   1.360
69720W        W31383  30.549  15.141   3.252
69721W        W31384   3.396  30.490   2.779
69722W        W31385  25.606   2.803   2.293
69723W        W31386  16.774  22.230   1.304
69724W        W31387  18.243  44.277   2.259
69725W        W31388   1.246  38.067   0.812
69726W        W31389  42.845  38.466  13.906
69727W        W31390   7.251   7.710   4.788
69728W        W31391  15.748   0.922  11.120
69729W        W31392  14.273  31.067  10.464
69730W        W31393   2.841  24.650  14.759
69731W        W31394  39.950   2.424   4.655
69732W        W31395  19.134   9.326   1.435
69733W        W31396  20.573  27.028   2.387
69734W        W31397  35.884   4.409  11.418
69735W        W31398   4.405  18.181  10.590
69736W        W31399  27.059  44.273   5.258
69737W        W31400   4.831  18.642   2.400
69738W        W31401   7.183  26.627  14.308
69739W        W31402  32.093  11.223   1.869
69740W        W31403   0.825  31.445  10.891
69741W        W31404  18.636  24.065   1.446
69742W        W31405  20.116  41.396   9.982
69743W        W31406  39.434  15.276  11.450
69744W        W31407  17.146   7.311   0.347
69745W        W31408  36.372  29.543   4.672
69746W        W31409  11.303  28.037   0.846
69747W        W31410  44.860   9.264  11.605
69748W        W31411   9.833  40.333  12.896
69749W        W31412  11.151  14.607  13.041
69750W        W31413  43.434  33.019   4.283
69751W        W31414  32.577  11.142  11.491
69752W        W31415  35.100  37.004  14.406
69753W        W31416  21.178   7.256   4.299
69754W        W31417  13.669  37.439   1.307
69755W        W31418  37.996  31.435  10.438
69756W        W31419  18.583   0.788   0.363
69757W        W31420  38.535  42.021  14.904
69758W        W31421   5.351  30.038   4.119
69759W        W31422  12.174  26.599   3.672
69760W        W31423  20.656   5.731  10.608
69761W        W31424  38.835   8.298   4.286
69762W        W31425   0.293  14.191  13.029
69763W        W31426  22.560  16.701   2.419
69764W        W31427  26.007  28.026  11.440
69765W        W31428  12.797  28.980   2.276
69766W        W31429  12.128  22.725  12.484
69767W        W31430  34.069  27.950   2.326
69768W        W31431  25.100  21.188  10.900
69769W        W31432   0.474  26.208  14.313
69770W        W31433  13.228  42.950  14.440
69771W        W31434  35.895  15.178   1.216
69772W        W31435  15.168   1.256   0.823
69773W        W31436  30.114  24.674  10.634
69774W        W31437  12.828  30.479  14.478
69775W        W31438  16.785  26.003   1.776
69776W        W31439   8.884  36.481   4.723
69777W        W31440   3.232  14.229   3.157
69778W        W31441  26.522   6.819   4.826
69779W        W31442  37.059  32.611  13.886
69780W        W31443  20.237  11.628   3.334
69781W        W31444  26.634  25.706   1.281
69782W        W31445   7.902  32.917   1.370
69783W        W31446  32.514  17.246  12.024
69784W        W31447  40.816  24.982  14.836
69785W        W31448  27.039  44.801  11.903
69786W        W31449  42.372  33.903  13.976
69787W        W31450  22.542  10.796  11.943
69788W        W31451  17.562  13.263   0.964
69789W        W31452  41.943  13.708   3.197
69790W        W31453  43.980   4.264  10.606
69791W        W31454  14.200  23.683  12.341
69792W        W31455   1.824  30.049  12.429
69793W        W31456  42.414  24.174   0.870
69794W        W31457  18.788  21.564  14.031
69795W        W31458  32.478  18.642   0.259
69796W        W31459  22.742  37.028   3.331
69797W        W31460  10.675   8.817   2.209
69798W        W31461  34.005  25.485  13.362
69799W        W31462  20.239   9.654  10.904
69800W        W31463  26.582  11.694  11.122
69801W        W31464  36.452  30.541  13.023
69802W        W31465   1.744  39.534   1.742
69803W        W31466  21.149   3.805   5.300
69804W        W31467  21.152  39.336  12.987
69805W        W31468  30.535  35.448   4.350
69806W        W31469  20.142  38.469   1.380
69807W        W31470  29.538  20.188  13.826
69808W        W31471  42.483  35.869  12.953
69809W        W31472  29.940  14.331  10.434
69810W        W31473  11.852  25.163   9.924
69811W        W31474  25.545   8.707   1.330
69812W        W31475  18.768  16.303   3.771
69813W        W31476  28.939  25.477   1.260
69814W        W31477  42.964  40.334   0.325
69815W        W31478  13.665   2.804  11.010
69816W        W31479   2.738  25.683   3.214
69817W        W31480  17.192  41.425   2.412
69818W        W31481   7.188  13.208  12.540
69819W        W31482  37.921  18.650   4.172
69820W        W31483  25.007  17.148  14.338
69821W        W31484  27.515  26.081   1.339
69822W        W31485  30.916  21.225   0.834
69823W        W31486   8.176   4.715   3.700
69824W        W31487  29.662  36.407  14.893
69825W        W31488  36.896   7.777  11.529
69826W        W31489   2.344  21.615  12.544
69827W        W31490  20.732   3.744  14.770
69828W        W31491  37.554  25.215   3.212
69829W        W31492  26.089  16.752   4.203
69830W        W31493  30.025  40.937   2.312
69831W        W31494  34.032  34.979   2.226
69832W        W31495   8.705   5.858   1.790
69833W        W31496  17.785  10.351  11.568
69834W        W31497  37.380  39.819   0.424
69835W        W31498   8.760  18.134   1.340
69836W        W31499   9.867  36.927  10.513
69837W        W31500  43.772  27.162   4.832
69838W        W31501  28.110  23.594  12.972
69839W        W31502  18.779  16.077  14.851
69840W        W31503   6.868  16.706   4.220
69841W        W31504  39.065  19.724  14.408
69842W        W31505  30.536  11.185  12.901
69843W        W31506  31.981  33.906  14.923
69844W        W31507   2.389  22.165  10.579
69845W        W31508  21.549  14.707  11.126
69846W        W31509  13.815   1.472  11.469
69847W        W31510  18.662  24.573  14.875
69848W        W31511  26.033  41.405   4.327
69849W        W31512   2.235  44.827   2.287
69850W        W31513  19.760   0.757  14.410
69851W        W31514  29.112  29.528  10.560
69852W        W31515  28.051  43.870   1.440
69853W        W31516  13.799   9.879  11.905
69854W        W31517  40.435   7.205   1.325
69855W        W31518   3.805   0.758   1.915
69856W        W31519  11.269   1.791  13.885
69857W        W31520  23.080   1.400  13.411
69858W        W31521  28.641  15.114   2.279
69859W        W31522  37.580  34.556  10.462
69860W        W31523  35.376   9.866  11.382
69861W        W31524  25.625  42.455   2.183
69862W        W31525  19.281  32.913   4.665
69863W        W31526  14.598  31.112   2.800
69864W        W31527  14.772  36.504  13.835
69865W        W31528  34.403  27.681   1.898
69866W        W31529  38.048  10.783   4.115
69867W        W31530   5.899   7.191  12.982
69868W        W31531   7.371  17.602   0.268
69869W        W31532  27.943   8.755   0.345
69870W        W31533  26.033  44.505   2.295
69871W        W31534   1.846  32.511  10.600
69872W        W31535   0.468   3.413  14.348
69873W        W31536  40.802  29.972   4.619
69874W        W31537  15.313  11.297  11.468
69875W        W31538   6.303  41.502   0.440
69876W        W31539  27.177   6.415   3.796
69877W        W31540  30.455  16.187   3.812
69878W        W31541   6.785  13.711  13.916
69879W        W31542  22.150  14.665  12.027
69880W        W31543  42.023   9.369  11.931
69881W        W31544  38.385  34.030   3.754
69882W        W31545  20.197   4.895   3.208
69883W        W31546  13.741   6.217   2.811
69884W        W31547  34.972  13.152   0.759
69885W        W31548   7.297  25.134  12.978
69886W        W31549  38.974  38.879   1.380
69887W        W31550  31.630  29.028  12.857
69888W        W31551  11.694  27.530   4.130
69889W        W31552  18.708  18.702   3.239
69890W        W31553  18.708  37.065   3.316
69891W        W31554  30.147  10.158   0.815
69892W        W31555  10.303  28.184  10.569
69893W        W31556  27.083  27.941  10.426
69894W        W31557  14.685  42.968   2.326
69895W        W31558  36.034   0.333  12.395
69896W        W31559   1.747   9.817   2.322
69897W        W31560   4.291  23.664  13.855
69898W        W31561  41.314   9.718  12.401
69899W        W31562  28.548  19.042   0.397
69900W        W31563  12.275  33.475   0.394
69901W        W31564  34.401  23.718   4.249
69902W        W31565   2.268  18.599   1.228
69903W        W31566  22.690  42.827  11.433
69904W        W31567  37.968   0.758  11.568
69905W        W31568  33.128   4.881  13.507
69906W        W31569  27.559  42.017   4.827
69907W        W31570  43.790   7.220   3.678
69908W        W31571  24.145  38.401   3.356
69909W        W31572  41.888  38.856  11.868
69910W        W31573  23.551  13.742  12.975
69911W        W31574  25.603   0.743  13.054
69912W        W31575   0.332   1.442  12.902
69913W        W31576  40.408  22.213  10.969
69914W        W31577  32.028  37.044  12.938
69915W        W31578  38.952  25.039   1.292
69916W        W31579  11.139  37.967  10.583
69917W        W31580  22.237   1.879  14.304
69918W        W31581  29.025   2.798   1.897
69919W        W31582  37.027  10.769  10.512
69920W        W31583  18.137   0.442  14.333
69921W        W31584  40.894  17.252  13.866
69922W        W31585   0.274   7.186   4.263
69923W        W31586  21.737  31.952  12.083
69924W        W31587  35.467  27.557  12.980
69925W        W31588   4.898   3.313  10.087
69926W        W31589  33.976  23.101   4.746
69927W        W31590  25.480   8.290   1.360
69928W        W31591  13.280  44.845  10.495
69929W        W31592  26.986  42.306   2.384
69930W        W31593   2.236  19.047   2.872
69931W        W31594  26.481  35.591  12.988
69932W        W31595  30.025   9.182  13.476
69933W        W31596  42.793  15.140  11.421
69934W        W31597   4.356  39.812   1.747
69935W        W31598  27.078  24.033  11.552
69936W        W31599   6.817  10.662  13.873
69937W        W31600  26.640  16.118   1.213
69938W        W31601  41.350   8.788  14.801
69939W        W31602  17.150  41.318  14.798
69940W        W31603   4.809  32.399   2.861
69941W        W31604  39.933   0.262  10.544
69942W        W31605  24.637  34.940  14.856
69943W        W31606  10.655  17.297  14.380
69944W        W31607  19.674   8.316   2.320
69945W        W31608   2.957  29.491   0.467
69946W        W31609  26.488   6.873   1.740
69947W        W31610  32.091  35.411   2.868
69948W        W31611  16.734  27.103   4.273
69949W        W31612  10.156  11.269   0.325
69950W        W31613  19.046   7.875   1.367
69951W        W31614  34.386  18.154  12.513
69952W        W31615  22.601  21.648   4.300
69953W        W31616  20.721  15.627   5.112
69954W        W31617  43.429  27.532  13.856
69955W        W31618  39.340  20.148   0.286
69956W        W31619  21.595  43.872   3.274
69957W        W31620  25.472  37.019   2.181
69958W        W31621  13.811   7.691  13.965
69959W        W31622  37.928  23.631   3.748
69960W        W31623  31.135  19.662   2.285
69961W        W31624  37.477  38.831  13.009
69962W        W31625  41.498  31.908  13.509
69963W        W31626  17.775   2.430  14.394
69964W        W31627  12.610  41.022   4.784
69965W        W31628   1.950  40.450  14.291
69966W        W31629  24.624  14.831  13.921
69967W        W31630  27.556  33.605   3.853
69968W        W31631  12.652  16.729  13.519
69969W        W31632  20.179  30.499   0.822
69970W        W31633  34.597   0.406   3.284
69971W        W31634   4.294  40.870  14.866
69972W        W31635   5.774   0.325  10.579
69973W        W31636   7.867   8.709   2.732
69974W        W31637  35.971  17.152  12.554
69975W        W31638  30.161  30.966   4.261
69976W        W31639  17.583  21.228   1.274
69977W        W31640  35.561  15.108  13.503
69978W        W31641   8.194   2.377  14.002
69979W        W31642  20.049  32.023   2.230
69980W        W31643  15.289  25.675   3.209
69981W        W31644  26.551  26.125   2.340
69982W        W31645  33.110  22.708  14.008
69983W        W31646  15.740  27.614  11.952
69984W        W31647  14.217  14.734   3.797
69985W        W31648   2.773  16.642  11.577
69986W        W31649  40.522  39.901   0.958
69987W        W31650  27.471  11.358   3.805
69988W        W31651  13.223   6.769  14.978
69989W        W31652   0.357  34.557  11.874
69990W        W31653   1.836  16.146  12.994
69991W        W31654  14.741   7.327   2.872
69992W        W31655  32.629  34.968   1.392
69993W        W31656  18.095   8.829   3.654
69994W        W31657  35.024  44.502  10.543
69995W        W31658   4.392   6.777  13.841
69996W        W31659  44.494   6.367   1.709
69997W        W31660  23.652  22.647   4.342
69998W        W31661  40.474  43.482  13.374
69999W        W31662   4.212   7.858  11.390
70000W        W31663  19.254  22.545  12.533
70001W        W31664   2.802  22.054   0.879
70002W        W31665  26.973  38.417  12.032
70003W        W31666  22.669  27.195  13.038
70004W        W31667  34.906   6.397   3.373
70005W        W31668  19.113  24.026   0.952
70006W        W31669  10.351  23.146   0.450
70007W        W31670  34.436  35.978  14.383
70008W        W31671  26.117  42.320  11.417
70009W        W31672  16.255  30.978   2.692
70010W        W31673  27.120   0.835  14.508
70011W        W31674  20.535  41.345  10.506
70012W        W31675  25.122  22.747   0.332
70013W        W31676   9.251  17.279   1.933
70014W        W31677  33.064  40.387   1.356
70015W        W31678  40.397  34.480  12.891
70016W        W31679  43.476  12.313  11.592
70017W        W31680  25.499  25.094  12.576
70018W        W31681  28.103  18.118   2.710
70019W        W31682   1.426  30.472   0.443
70020W        W31683  17.720  43.791   2.351
70021W        W31684   6.838   1.939   1.883
70022W        W31685  18.742  10.161   0.436
70023W        W31686  43.321  25.164  11.560
70024W        W31687  12.684   3.390   4.336
70025W        W31688  29.161   9.734  10.458
70026W        W31689   8.196   9.388   3.789
70027W        W31690  35.021  32.404   1.423
70028W        W31691  28.187  11.809   0.741
70029W        W31692  25.983   3.250   4.731
70030W        W31693   8.866  44.772  14.905
70031W        W31694  31.436   4.907  10.556
70032W        W31695  13.304  42.430  12.001
70033W        W31696  23.570  17.612  13.049
70034W        W31697  17.621  11.263  14.850
70035W        W31698   8.686   8.231   2.805
70036W        W31699   2.241  10.356   2.413
70037W        W31700  18.220  32.408  14.287
70038W        W31701  17.165  44.458   2.195
70039W        W31702  31.993  31.570   3.167
70040W        W31703  40.493   6.377  11.099
70041W        W31704  25.076   3.297  11.484
70042W        W31705   2.727  29.132   2.789
70043W        W31706  25.664   7.267   0.459
70044W        W31707   8.874  32.468   0.891
70045W        W31708  34.929  39.811   1.779
70046W        W31709  16.812  17.067   3.677
70047W        W31710   7.182  37.378  11.110
70048W        W31711  35.592  16.248  13.934
70049W        W31712  17.078  21.062  11.375
70050W        W31713  37.867  22.599  10.101
70051W        W31714  31.491  37.958  12.485
70052W        W31715  10.254  12.680  13.504
70053W        W31716  17.630  34.120   3.247
70054W        W31717   2.812  28.438  12.382
70055W        W31718  22.731  30.032  14.967
70056W        W31719   6.818  44.008   1.255
70057W        W31720  20.230   2.427   2.777
70058W        W31721   7.246   9.177  14.927
70059W        W31722   1.453  32.894   3.380
70060W        W31723  27.037  18.578   2.893
70061W        W31724  44.355  13.115  12.971
70062W        W31725  28.640  20.768   4.270
70063W        W31726  43.843   1.394  14.357
70064W        W31727   6.694   2.826   1.399
70065W        W31728  20.202   3.821   0.829
70066W        W31729  44.989   9.822  14.826
70067W        W31730  14.296  22.215   1.326
70068W        W31731  11.721  30.518   0.933
70069W        W31732   8.781  29.540  11.582
70070W        W31733  20.764  25.694  12.512
70071W        W31734   4.305  38.056  14.857
70072W        W31735  22.564  35.575   3.361
70073W        W31736  29.548   7.200  10.159
70074W        W31737  33.542  14.227   0.385
70075W        W31738  12.149  11.282   4.773
70076W        W31739  23.160   3.447   9.506
70077W        W31740   8.884  20.686  11.999
70078W        W31741  27.448  24.626  10.090
70079W        W31742   1.880  42.523  11.110
70080W        W31743  18.677   6.366  12.432
70081W        W31744  10.238   6.277  11.966
70082W        W31745  25.556  15.757  11.467
70083W        W31746  11.149  14.615   1.285
70084W        W31747  21.729   7.245   3.250
70085W        W31748  26.038  19.606  14.793
70086W        W31749  27.019  12.855  13.016
70087W        W31750  29.029  35.563   0.248
70088W        W31751  39.559  31.521   0.354
70089W        W31752  29.965  40.501   2.349
70090W        W31753   9.837  19.759   1.442
70091W        W31754  42.974  33.525  10.987
70092W        W31755   6.191  32.490  12.517
70093W        W31756  22.708  14.594  14.480
70094W        W31757  43.491  35.943   1.274
70095W        W31758  22.192  16.129   0.796
70096W        W31759  13.719  37.958   0.763
70097W        W31760  29.532  30.443  10.596
70098W        W31761  24.093  12.791   4.757
70099W        W31762  44.869  13.228  14.426
70100W        W31763  37.058  14.125   0.443
70101W        W31764  21.628  43.986  13.802
70102W        W31765  11.333  30.978  13.312
70103W        W31766   8.792   7.381   4.678
70104W        W31767  30.983  39.453  10.506
70105W        W31768  25.114  33.567   3.775
70106W        W31769   6.259  10.818   3.631
70107W        W31770  11.265   8.888  13.360
70108W        W31771   6.717  14.709  14.875
70109W        W31772  24.517   0.956   4.603
70110W        W31773  10.323  29.971  12.496
70111W        W31774  40.452  31.942   0.356
70112W        W31775   6.682  36.500   0.322
70113W        W31776   0.455   6.325  11.862
70114W        W31777  13.286  27.184  11.383
70115W        W31778   3.830  39.408  13.498
70116W        W31779  27.644   1.884  11.596
70117W        W31780   2.456   0.334  10.502
70118W        W31781  22.058  10.285  11.062
70119W        W31782  38.905  38.827   3.696
70120W        W31783  20.669   5.851   2.687
70121W        W31784  20.182  10.171  13.859
70122W        W31785  28.484  42.927  13.050
70123W        W31786  23.145  28.672   3.154
70124W        W31787  14.143  15.274   3.276
70125W        W31788  23.087   0.974  10.897
70126W        W31789   4.417   6.284   2.788
70127W        W31790  22.703  42.792   2.764
70128W        W31791  34.531  38.962  11.985
70129W        W31792  44.436  26.662  12.398
70130W        W31793  24.025  34.439   5.226
70131W        W31794  27.449  34.093  14.406
70132W        W31795  16.225   8.795  14.989
70133W        W31796  18.766  17.687  12.467
70134W        W31797   0.938   2.250   1.362
70135W        W31798  20.659  39.503  13.486
70136W        W31799  22.684  27.159  11.996
70137W        W31800   9.269  13.730   4.115
70138W        W31801   1.296  15.799   4.216
70139W        W31802  29.121  36.359  10.471
70140W        W31803  28.115  26.977   5.242
70141W        W31804  17.747  26.576   1.415
70142W        W31805  33.585   3.304   4.222
70143W        W31806  43.432   5.198  13.469
70144W        W31807  19.752  12.237   4.201
70145W        W31808  25.550  44.859  12.973
70146W        W31809  37.006  44.951   4.345
70147W        W31810  28.535  10.763  14.291
70148W        W31811  12.331  21.677  12.872
70149W        W31812  31.075  10.716  14.762
70150W        W31813  17.611  34.874   3.307
70151W        W31814  27.535  34.374  13.878
70152W        W31815   4.224  20.272  13.968
70153W        W31816  42.980  34.895   5.081
70154W        W31817  15.734  36.497   1.451
70155W        W31818  17.236   9.779   3.339
70156W        W31819  19.230   5.354   2.700
70157W        W31820  26.563  24.201   2.807
70158W        W31821  16.713   4.243   2.405
70159W        W31822  12.252   2.787   4.827
70160W        W31823  33.004   8.847  12.995
70161W        W31824  11.224  34.945  12.444
70162W        W31825  43.801  20.126  14.410
70163W        W31826  16.630  27.618  12.063
70164W        W31827  16.117  37.565  14.881
70165W        W31828  24.117  27.556   3.176
70166W        W31829  23.067  15.614   0.728
70167W        W31830  13.333  22.729  10.140
70168W        W31831  27.624  22.631  14.024
70169W        W31832  31.083  37.499   4.696
70170W        W31833  39.320   1.934  12.367
70171W        W31834  35.575  18.705   0.297
70172W        W31835  39.376  17.285  13.059
70173W        W31836  31.127   1.880  13.942
70174W        W31837  13.308  10.670  10.946
70175W        W31838  42.870  40.415   4.274
70176W        W31839  10.284  28.593  14.895
70177W        W31840  21.526  44.348   3.793
70178W        W31841  40.534  13.808  11.971
70179W        W31842   0.814  20.108  14.330
70180W        W31843  24.150  14.213   3.639
70181W        W31844  40.364  14.697   2.669
70182W        W31845  37.048  34.906  10.965
70183W        W31846   6.295  43.944   2.360
70184W        W31847  42.330  24.038  14.800
70185W        W31848  44.267  24.981  12.839
70186W        W31849  34.067   9.232   0.965
70187W        W31850  22.155   6.304  13.945
70188W        W31851  29.549  24.147   1.839
70189W        W31852  25.479  28.150   0.921
70190W        W31853   0.942  28.930  10.050
70191W        W31854  25.486  17.572   1.851
70192W        W31855  39.919  26.635   3.842
70193W        W31856  34.599  34.875  10.578
70194W        W31857  43.362  35.879   1.815
70195W        W31858  36.922  40.309  12.025
70196W        W31859  12.223  22.600   0.280
70197W        W31860   8.682  18.669  12.377
70198W        W31861  43.873   7.206   0.944
70199W        W31862  11.172   9.699   9.565
70200W        W31863  26.077  26.673   4.315
70201W        W31864  36.964  10.268   4.670
70202W        W31865  22.523  38.379  11.463
70203W        W31866   4.763  35.020  13.443
70204W        W31867  38.960  29.153   2.243
70205W        W31868  22.228  40.912  12.549
70206W        W31869  13.323   7.235  13.795
70207W        W31870  39.477  17.626  10.621
70208W        W31871  14.739   4.442  12.976
70209W        W31872  33.626   8.790   4.235
70210W        W31873   7.856  14.805   4.768
70211W        W31874  10.848   9.203   3.760
70212W        W31875   7.383   2.460   0.249
70213W        W31876  19.695  22.147  11.092
70214W        W31877  39.431  42.414  14.952
70215W        W31878   6.688  26.572  13.490
70216W        W31879  25.562   4.751  13.338
70217W        W31880  12.238   5.720  13.529
70218W        W31881  20.566  42.327   1.315
70219W        W31882  29.022  17.575   4.813
70220W        W31883  42.285  40.968   3.862
70221W        W31884  33.950  14.694   2.184
70222W        W31885  34.455  42.412   4.700
70223W        W31886   0.410  31.926   3.702
70224W        W31887  20.562  27.164   0.746
70225W        W31888  18.066  40.929   1.789
70226W        W31889  32.426  38.004  10.952
70227W        W31890  29.606  40.907  13.829
70228W        W31891   8.192  13.795  10.452
70229W        W31892  39.542   8.167  12.976
70230W        W31893  43.401  44.361  10.529
70231W        W31894  43.294   8.728   1.844
70232W        W31895  22.595  20.134  12.388
70233W        W31896   0.479  28.622  13.000
70234W        W31897  12.698  31.080   2.260
70235W        W31898  10.811  37.087  13.405
70236W        W31899   3.883  21.642  12.523
70237W        W31900  38.369  18.132   2.711
70238W        W31901   2.246   4.901  14.959
70239W        W31902  34.994   3.868   4.693
70240W        W31903  29.064  36.576  11.447
70241W        W31904  24.088  15.115  11.920
70242W        W31905   2.966  17.298   2.675
70243W        W31906  21.089  27.464  14.024
70244W        W31907  38.976   6.240   1.245
70245W        W31908  36.936   9.785  12.349
70246W        W31909   0.970  26.667  12.929
70247W        W31910   1.892  14.229   1.890
70248W        W31911  30.925  18.575  12.344
70249W        W31912   1.363  25.569  13.321
70250W        W31913   7.715  43.764  11.608
70251W        W31914   3.350  21.641  11.996
70252W        W31915  10.722  18.163   4.127
70253W        W31916  44.277  32.546   0.393
70254W        W31917  14.157   2.277   0.409
70255W        W31918  41.982  28.664  10.947
70256W        W31919  24.496  34.001  11.001
70257W        W31920  32.079   7.851   1.818
70258W        W31921  32.509  13.705   0.783
70259W        W31922   5.273  13.707  13.455
70260W        W31923  20.673   3.851   3.815
70261W        W31924  23.546  40.380   9.956
70262W        W31925  32.525  15.740  14.825
70263W        W31926   4.372  24.641  13.794
70264W        W31927  25.671  22.143  14.348
70265W        W31928  25.993  28.180  13.997
70266W        W31929   1.858  19.130   3.324
70267W        W31930  25.489  44.283   4.697
70268W        W31931  37.356  22.162  10.950
70269W        W31932  29.988  42.401  11.121
70270W        W31933  29.498  32.517   1.886
70271W        W31934  11.291  33.553  13.957
70272W        W31935  23.652  30.932   4.337
70273W        W31936  34.477  22.067   4.341
70274W        W31937  21.107   3.849  14.439
70275W        W31938  31.956  25.654   3.253
70276W        W31939  15.219  34.110   4.693
70277W        W31940  29.459  26.043  14.876
70278W        W31941  43.430  42.841  13.033
70279W        W31942   9.301  33.577   5.208
70280W        W31943   6.295  36.873   4.172
70281W        W31944  28.591  12.737  12.064
70282W        W31945  34.582  44.908  13.357
70283W        W31946  42.011   3.904  12.986
70284W        W31947  33.533  41.427   3.371
70285W        W31948  44.990   5.922   1.917
70286W        W31949  38.893   7.840  11.458
70287W        W31950  38.545  38.381   4.224
70288W        W31951  26.063  36.937  12.546
70289W        W31952  36.884  21.549  14.337
70290W        W31953  13.710  20.642  11.384
70291W        W31954   7.350   1.314  10.540
70292W        W31955  28.100  15.130  11.914
70293W        W31956   8.235  32.467  11.591
70294W        W31957  11.364  21.241   1.363
70295W        W31958  44.847   2.777  10.968
70296W        W31959  34.427  44.895  14.377
70297W        W31960   5.889  22.605   0.739
70298W        W31961   8.335  30.546  10.509
70299W        W31962  35.964  42.997   2.793
70300W        W31963  34.023  32.032   2.379
70301W        W31964   1.453  27.037  10.541
70302W        W31965  42.419  20.090  13.032
70303W        W31966  16.224  43.432   1.911
70304W        W31967  44.406  44.789  10.976
70305W        W31968   1.353  27.947   4.792
70306W        W31969  43.846  12.671  12.451
70307W        W31970  31.141  43.828   4.130
70308W        W31971  40.524  11.255   3.223
70309W        W31972  25.129  27.656  13.792
70310W        W31973  37.579  32.142   4.686
70311W        W31974   0.327   7.798   2.258
70312W        W31975   9.821   4.799  14.997
70313W        W31976   0.453  13.718   4.295
70314W        W31977  41.001  12.716   4.786
70315W        W31978  10.168  11.345  12.921
70316W        W31979   0.405   0.254  14.858
70317W        W31980  13.234   2.383  11.423
70318W        W31981  44.494   4.853  12.078
70319W        W31982   1.314  10.300  11.531
70320W        W31983  35.455  43.313  13.033
70321W        W31984  25.037   2.266   2.284
70322W        W31985  22.532  18.184  11.891
70323W        W31986  39.822  10.820   2.775
70324W        W31987  26.046  17.285   4.626
70325W        W31988  31.635  19.155  13.438
70326W        W31989  23.687   0.369  13.968
70327W        W31990   9.391   2.816   1.881
70328W        W31991   5.750   2.238   0.864
70329W        W31992   5.360  10.293   4.611
70330W        W31993   4.306   8.194   2.283
70331W        W31994  35.879  28.444  11.561
70332W        W31995  19.576  39.508  14.982
70333W        W31996   8.881  27.001   3.268
70334W        W31997  42.968  39.905  10.979
70335W        W31998  31.991   0.846   0.449
70336W        W31999  32.995   0.772  10.438
70337W        W32000  44.946   4.238  14.320
70338W        W32001  17.140  40.484   4.662
70339W        W32002  11.239  41.340  13.900
70340W        W32003  15.297   8.792   3.231
70341W        W32004   8.788   7.271  13.452
70342W        W32005  38.441  13.797  11.069
70343W        W32006  36.039  23.162   9.534
70344W        W32007   2.462  30.117   4.262
70345W        W32008  38.446   4.396  10.452
70346W        W32009  17.168  23.036  10.461
70347W        W32010  12.280  22.151  14.461
70348W        W32011  17.664   5.785  12.375
70349W        W32012  30.912  19.548  12.928
70350W        W32013  34.038   2.398  14.413
70351W        W32014   3.862  27.961  10.568
70352W        W32015   7.280  24.557   4.678
70353W        W32016  25.596  15.796   3.685
70354W        W32017  44.843  36.411   2.684
70355W        W32018  25.208  20.189  12.433
70356W        W32019  17.241  39.923  12.089
70357W        W32020   4.774  22.613   0.776
70358W        W32021  43.496  36.073   2.763
70359W        W32022  44.414  32.590   2.861
70360W        W32023  17.595  44.947   4.610
70361W        W32024  30.010   9.654   3.702
70362W        W32025  23.629  19.778   4.655
70363W        W32026  20.725  35.458  12.347
70364W        W32027   6.759  15.595  13.997
70365W        W32028  25.982  41.891   0.403
70366W        W32029  40.916   3.724   4.241
70367W        W32030  22.060   5.804   2.252
70368W        W32031  33.073  32.122   3.669
70369W        W32032  26.688  26.103   0.473
70370W        W32033  23.638  32.025   5.223
70371W        W32034  22.572  32.017  14.976
70372W        W32035  33.099  31.035   1.395
70373W        W32036  43.286  38.506   2.722
70374W        W32037  29.523   3.315  12.848
70375W        W32038  14.672   0.354  11.435
70376W        W32039   3.382  37.903   0.256
70377W        W32040  22.125   8.394  13.338
70378W        W32041  35.409  11.166  14.500
70379W        W32042  10.807  10.363   4.797
70380W        W32043  25.605  43.016   3.691
70381W        W32044  25.164  39.012  14.463
70382W        W32045   0.873  19.710  14.023
70383W        W32046  16.813  26.569  11.031
70384W        W32047  22.035  11.641  11.562
70385W        W32048  11.684  12.615  12.364
70386W        W32049   2.953  21.617  14.950
70387W        W32050  35.929  36.020  11.017
70388W        W32051  41.488  35.368  12.554
70389W        W32052  24.056  19.156   0.940
70390W        W32053   6.289   8.181   1.439
70391W        W32054  44.918  19.166   4.810
70392W        W32055  34.489   5.353   3.210
70393W        W32056   2.779  34.113   4.610
70394W        W32057  39.534  16.626  14.366
70395W        W32058  30.484   3.388   4.149
70396W        W32059  34.046  37.853   0.729
70397W        W32060  17.065  29.109  14.394
70398W        W32061   4.901  33.487   1.811
70399W        W32062  18.755   1.328  13.343
70400W        W32063  43.828  39.039  11.945
70401W        W32064   8.783   7.258   3.727
70402W        W32065  15.229  42.974  13.325
70403W        W32066  37.393  23.234  14.418
70404W        W32067  28.656   1.270   0.271
70405W        W32068  21.705  34.020   4.334
70406W        W32069  42.803   2.812  12.857
70407W        W32070  24.709  23.508  14.499
70408W        W32071  25.564   4.327   0.248
70409W        W32072  35.592   9.725   4.125
70410W        W32073  11.753  26.060  14.019
70411W        W32074  16.748  21.080   1.712
70412W        W32075  12.746  40.334  11.538
70413W        W32076  15.218  24.514   1.407
70414W        W32077  29.457  36.489  13.863
70415W        W32078   7.790  10.783   1.871
70416W        W32079  31.055   9.783   1.214
70417W        W32080  21.164  24.047   5.158
70418W        W32081  38.060  39.850   3.754
70419W        W32082  23.549  30.454  13.403
70420W        W32083  17.757  38.339   0.782
70421W        W32084  35.037  26.136  11.932
70422W        W32085   1.393  39.836   2.877
70423W        W32086  40.304  24.685   3.315
70424W        W32087  11.169  18.655  12.964
70425W        W32088  12.342   2.353   4.628
70426W        W32089  39.903  14.229   2.266
70427W        W32090  42.792  30.912  13.045
70428W        W32091  11.343   4.426   4.313
70429W        W32092  10.220  14.264  14.374
70430W        W32093  38.459  16.159  12.351
70431W        W32094  43.903  40.427   3.857
70432W        W32095  15.801  25.074   5.106
70433W        W32096  41.802  38.376   3.848
70434W        W32097  17.125  12.830   1.257
70435W        W32098  25.215  14.665  10.989
70436W        W32099  22.109   7.797   3.847
70437W        W32100  18.595  23.153  12.065
70438W        W32101  28.439  29.554  11.031
70439W        W32102  42.478   5.423  12.962
70440W        W32103   8.258  12.172  13.005
70441W        W32104  34.487   5.806  13.365
70442W        W32105  30.439  35.030   4.165
70443W        W32106  33.016  33.018  14.788
70444W        W32107  14.683   6.231   2.379
70445W        W32108  37.057   1.428   3.836
70446W        W32109  26.964  41.468  11.973
70447W        W32110  11.313  18.213   3.691
70448W        W32111   2.856  37.362   0.294
70449W        W32112  22.700   9.832   1.329
70450W        W32113  14.798  38.467   1.356
70451W        W32114  30.473  29.019  12.890
70452W        W32115  37.509  10.322   1.776
70453W        W32116   2.426   8.781  11.970
70454W        W32117  38.821  10.304   5.189
70455W        W32118  40.438  43.856   3.758
70456W        W32119   0.933  33.916   1.310
70457W        W32120  21.037  29.480   5.285
70458W        W32121  29.999  29.641  10.486
70459W        W32122  28.599  23.601   0.460
70460W        W32123   2.819  17.586   4.224
70461W        W32124  19.660  17.729   2.766
70462W        W32125  12.235  12.116   0.839
70463W        W32126  28.036   3.717  10.457
70464W        W32127  26.543  25.966  14.789
70465W        W32128  33.577  19.669  14.438
70466W        W32129  33.606   5.195  11.105
70467W        W32130  17.195   7.309  10.070
70468W        W32131  11.309  37.882  13.545
70469W        W32132  15.689  40.832   3.158
70470W        W32133   4.299  28.641  10.598
70471W        W32134   0.393  30.090   2.788
70472W        W32135   6.302  28.555   0.465
70473W        W32136  19.201  12.291  13.973
70474W        W32137   2.948   6.300  14.432
70475W        W32138  43.812  17.119   0.914
70476W        W32139  29.567  42.422   3.244
70477W        W32140  30.495  35.953  11.545
70478W        W32141  35.364   0.469   3.191
70479W        W32142  14.313  43.797   2.414
70480W        W32143   8.870  34.076   3.357
70481W        W32144  24.097  21.231   2.756
70482W        W32145  26.699  37.529  14.907
70483W        W32146  11.172  18.582   0.433
70484W        W32147   6.317  22.145  10.925
70485W        W32148  14.783  28.680  14.982
70486W        W32149  13.824  11.746   4.620
70487W        W32150  44.431  16.285  12.898
70488W        W32151  14.120   7.688  14.369
70489W        W32152   0.952  31.554   0.914
70490W        W32153  16.806  38.036   4.760
70491W        W32154  44.911  30.081  12.538
70492W        W32155  30.583  21.199  13.817
70493W        W32156  40.813   9.820   3.675
70494W        W32157  21.208  11.647   2.196
70495W        W32158  44.795  22.022   2.854
70496W        W32159  39.892  40.022   4.338
70497W        W32160  29.601   7.182   4.792
70498W        W32161  35.511   8.292   5.144
70499W        W32162  34.974   2.399   3.182
70500W        W32163   4.265  40.830  13.824
70501W        W32164  13.669  16.762   1.293
70502W        W32165  27.647  43.802   2.199
70503W        W32166  24.640  38.991   2.757
70504W        W32167  37.949  44.380   0.252
70505W        W32168   3.264  23.597   3.665
70506W        W32169  12.248  43.879   3.871
70507W        W32170  36.435   1.465  10.965
70508W        W32171  17.578  18.228  11.027
70509W        W32172  17.708   4.916  13.822
70510W        W32173   7.685  23.696  14.498
70511W        W32174  26.091  23.716  11.996
70512W        W32175  35.013   0.896  11.471
70513W        W32176   5.420  39.954  11.451
70514W        W32177  24.188  39.357   1.717
70515W        W32178   2.895  40.375  14.762
70516W        W32179  39.040  30.449   2.763
70517W        W32180   0.261  10.765   9.965
70518W        W32181  33.559  39.324   1.433
70519W        W32182   9.776  39.846  11.920
70520W        W32183  43.904  14.656   4.638
70521W        W32184  17.770  36.019  14.486
70522W        W32185  26.989  44.889   1.397
70523W        W32186   6.822  22.046   4.783
70524W        W32187   7.757   5.839  12.947
70525W        W32188  19.624  22.650   2.194
70526W        W32189   7.250  26.695  14.972
70527W        W32190   7.873  44.394  10.906
70528W        W32191  39.864   8.773   0.402
70529W        W32192  40.041  44.467   3.767
70530W        W32193  21.236  20.652   1.415
70531W        W32194  37.400   3.955  10.621
70532W        W32195  40.997  16.748  11.097
70533W        W32196   6.230  17.572   0.272
70534W        W32197  38.884  22.641  14.932
70535W        W32198   7.383  30.452   3.823
70536W        W32199  41.948  30.645   4.809
70537W        W32200   5.299  12.691   0.471
70538W        W32201  20.237   2.819  14.348
70539W        W32202  13.611  42.447  13.953
70540W        W32203  12.122  39.539   9.992
70541W        W32204  17.203  30.478   0.833
70542W        W32205   2.927  16.280  13.375
70543W        W32206  33.918  17.654   1.921
70544W        W32207  27.547  17.601  12.873
70545W        W32208   3.850   1.445   4.617
70546W        W32209  23.515  32.981  11.873
70547W        W32210  35.090   7.394  10.100
70548W        W32211  39.996  34.098  12.415
70549W        W32212  24.225   6.859   2.362
70550W        W32213  39.423  19.583   4.235
70551W        W32214  18.198  25.600   4.701
70552W        W32215  29.527  28.099  10.993
70553W        W32216   8.369   3.232  14.874
70554W        W32217  19.610   9.227  13.526
70555W        W32218   6.263  19.116  10.021
70556W        W32219  16.633  43.362   2.390
70557W        W32220  14.674   7.722   2.270
70558W        W32221  23.213  10.790  13.433
70559W        W32222  34.473   2.925   4.164
70560W        W32223  32.452  30.634   2.763
70561W        W32224  36.064  25.117   4.682
70562W        W32225  34.920  44.464   4.625
70563W        W32226  44.274  23.217   1.878
70564W        W32227  26.074  37.415  10.915
70565W        W32228  16.650  12.170  12.006
70566W        W32229  12.285   7.312  13.450
70567W        W32230   3.419  25.710   5.233
70568W        W32231  21.529  39.945   2.671
70569W        W32232  35.594  15.257   4.830
70570W        W32233   0.377  41.315  13.813
70571W        W32234  42.826  34.993  11.598
70572W        W32235  26.699  21.706  11.113
70573W        W32236   4.772  29.580   1.410
70574W        W32237  12.756  23.529   0.306
70575W        W32238   8.840  36.026  12.421
70576W        W32239  30.433  19.626   1.236
70577W        W32240  16.299   3.855  12.427
70578W        W32241  43.464  35.991   0.924
70579W        W32242   1.258  13.253  13.793
70580W        W32243   1.299   4.361   2.198
70581W        W32244   3.951  44.415  13.933
70582W        W32245  44.911   9.364   9.995
70583W        W32246  11.223   6.239  13.361
70584W        W32247   6.421  30.457  12.932
70585W        W32248  18.187  16.772  10.160
70586W        W32249  22.564  37.977  10.996
70587W        W32250  28.009  41.512   3.846
70588W        W32251  41.347  19.069  14.894
70589W        W32252  28.652   2.898  10.933
70590W        W32253  13.337  26.121   3.334
70591W        W32254   6.877  13.198   1.894
70592W        W32255   2.949  39.366  12.521
70593W        W32256   6.887  28.181  11.594
70594W        W32257  21.544  30.923  14.395
70595W        W32258  31.598  16.105   1.697
70596W        W32259  36.495  30.628  13.362
70597W        W32260  42.495  44.773  11.083
70598W        W32261   0.477   1.888  11.594
70599W        W32262  37.880  35.509  12.443
70600W        W32263  26.166  20.259   0.291
70601W        W32264  20.222  40.929   1.839
70602W        W32265  37.427  17.290  14.894
70603W        W32266  38.984  38.061   1.714
70604W        W32267  17.225  33.593  11.961
70605W        W32268  22.712  35.581  12.422
70606W        W32269  18.746  27.962   0.847
70607W        W32270  29.606  22.704  13.343
70608W        W32271  17.220   8.355  11.433
70609W        W32272   6.279  40.964  10.959
70610W        W32273   6.230  35.988  10.971
70611W        W32274   5.843  28.483  13.424
70612W        W32275  29.093  32.424  13.410
70613W        W32276  17.100  23.568   0.286
70614W        W32277  38.539   6.265   4.290
70615W        W32278  23.657  28.477   4.624
70616W        W32279  41.467  33.879  11.592
70617W        W32280  36.929   7.747  12.860
70618W        W32281   9.858  26.984   3.316
70619W        W32282   0.983  33.422   3.256
70620W        W32283  38.421  31.443  11.953
70621W        W32284  21.564   8.773  12.862
70622W        W32285   8.797  15.131   3.680
70623W        W32286  29.637  39.850  12.971
70624W        W32287  26.153   0.814   3.235
70625W        W32288  35.577   7.181   1.769
70626W        W32289  24.025  23.628   3.220
70627W        W32290  27.974   4.432  12.390
70628W        W32291  31.606  41.862   1.329
70629W        W32292   8.884   9.297   4.183
70630W        W32293  37.918  25.707   1.818
70631W        W32294  44.432  42.985  14.444
70632W        W32295  43.831  15.270  14.974
70633W        W32296  20.065  10.820   1.424
70634W        W32297  21.233  24.224  10.495
70635W        W32298  21.150  20.100   2.750
70636W        W32299  17.729  17.248   0.375
70637W        W32300   8.170  11.727   1.848
70638W        W32301  26.000   9.149   3.282
70639W        W32302  40.502  35.575   3.766
70640W        W32303  28.542   5.912   2.350
70641W        W32304  20.679  10.230   1.807
70642W        W32305  16.599   3.711  12.959
70643W        W32306  12.262  35.487   1.708
70644W        W32307  12.819  18.646  11.090
70645W        W32308  22.075   5.929  12.824
70646W        W32309  36.911  25.989   4.792
70647W        W32310  18.678  12.697   4.319
70648W        W32311  21.613  10.316   0.249
70649W        W32312   0.268  30.046   3.855
70650W        W32313  12.191  19.167  14.870
70651W        W32314  37.580   1.372  12.018
70652W        W32315  34.982  37.497   0.325
70653W        W32316  40.013  10.666  13.364
70654W        W32317  24.979  14.792   4.298
70655W        W32318  34.048   5.693   4.806
70656W        W32319  38.359  15.219  13.445
70657W        W32320  40.356   0.973  11.448
70658W        W32321  41.432   9.721   1.803
70659W        W32322  37.041   4.311   2.357
70660W        W32323  18.275   5.728  11.560
70661W        W32324  43.768  24.649   3.695
70662W        W32325  18.600  34.470   1.428
70663W        W32326  26.461   7.778   3.816
70664W        W32327  43.446  36.530  14.323
70665W        W32328  16.606   9.327   0.748
70666W        W32329   7.319   3.250   3.217
70667W        W32330  44.303  34.596   0.467
70668W        W32331   1.282  18.692   3.272
70669W        W32332  15.269   3.294   2.381
70670W        W32333   3.342  36.352   1.731
70671W        W32334   1.764  25.515   1.385
70672W        W32335  17.183  22.118   1.826
70673W        W32336   6.233   0.907   0.876
70674W        W32337  20.269  39.003  10.046
70675W        W32338  43.841  37.967   3.366
70676W        W32339  36.573  21.651   0.821
70677W        W32340  11.169  26.604   0.886
70678W        W32341  29.635  44.295   2.863
70679W        W32342   2.733  27.084   3.186
70680W        W32343   4.732  18.228   4.831
70681W        W32344  28.050  22.057   4.342
70682W        W32345  17.646  27.543   4.223
70683W        W32346  20.145  13.710   0.762
70684W        W32347  10.653  14.806  13.957
70685W        W32348   0.282   4.818   0.881
70686W        W32349  25.516  27.172  12.074
70687W        W32350  15.605  32.493   1.767
70688W        W32351  35.093  29.570  14.353
70689W        W32352  24.021  31.466   0.928
70690W        W32353  28.078   9.751   4.135
70691W        W32354   1.779  36.906   4.626
70692W        W32355   3.280  27.187  12.366
70693W        W32356  43.453  27.990  10.430
70694W        W32357  32.038  28.983  12.904
70695W        W32358  16.665   9.771  12.430
70696W        W32359  35.882   2.874   0.470
70697W        W32360  18.050  21.600  13.311
70698W        W32361  22.726   2.789  11.542
70699W        W32362  44.304  14.679  13.994
70700W        W32363   9.360  31.447   3.322
70701W        W32364  42.298  23.669  13.803
70702W        W32365  34.527  44.864   3.870
70703W        W32366  33.107  35.972   4.161
70704W        W32367  15.809  22.221  13.023
70705W        W32368  32.939  21.675  13.468
70706W        W32369   2.381  30.624  11.440
70707W        W32370  31.474  34.457  11.054
70708W        W32371  20.679  36.568   0.419
70709W        W32372  21.251   7.251   4.822
70710W        W32373  21.530  42.975  13.361
70711W        W32374   2.820  31.944   2.726
70712W        W32375  19.199  23.109   3.631
70713W        W32376  25.569  42.334  12.986
70714W        W32377  26.109   0.326   3.834
70715W        W32378  20.236   0.368  10.936
70716W        W32379  18.614  37.421   5.164
70717W        W32380   7.209  42.334   2.868
70718W        W32381   0.772   7.665   2.188
70719W        W32382   3.829  33.965  12.871
70720W        W32383  33.597  22.733   1.343
70721W        W32384  30.078  41.425  14.954
70722W        W32385  41.483  19.569  14.866
70723W        W32386  24.674  25.113   5.105
70724W        W32387  16.092  16.194  11.593
70725W        W32388  10.783  26.528  12.578
70726W        W32389  31.011  12.648  13.368
70727W        W32390   9.739  29.606   3.318
70728W        W32391  11.744  25.119  10.606
70729W        W32392  11.667  29.983   2.402
70730W        W32393  40.876   8.696  11.604
70731W        W32394  25.098   0.304  12.419
70732W        W32395  38.474  23.719  12.967
70733W        W32396  37.047  34.943  13.986
70734W        W32397  20.093   6.860  12.857
70735W        W32398  32.555  41.430   1.763
70736W        W32399  17.218  42.923  12.975
70737W        W32400  27.520  13.221  14.504
70738W        W32401   2.419  32.067  14.817
70739W        W32402  13.617  31.983  13.022
70740W        W32403  23.200   8.801  11.868
70741W        W32404  26.559  40.380   3.761
70742W        W32405  13.645  22.558   3.815
70743W        W32406  32.514  28.164   0.260
70744W        W32407   1.914  36.438  14.485
70745W        W32408  23.510  12.749  12.070
70746W        W32409  33.049  11.804   0.309
70747W        W32410  22.078  26.971  14.935
70748W        W32411   9.763   8.329   2.277
70749W        W32412  23.098  27.958  14.325
70750W        W32413  14.687  11.243  11.918
70751W        W32414   6.274   9.354  13.440
70752W        W32415  36.964  33.053   4.152
70753W        W32416   0.934   5.211  13.489
70754W        W32417   8.695   1.737   4.311
70755W        W32418   7.366  40.878   3.700
70756W        W32419  11.752  31.001  11.892
70757W        W32420  40.450  10.358   3.754
70758W        W32421   5.694   4.232   4.751
70759W        W32422   2.758  14.772  13.926
70760W        W32423  37.366  10.667  10.437
70761W        W32424  23.237   3.865  11.127
70762W        W32425  32.972  22.648   9.665
70763W        W32426  33.507  20.048   4.258
70764W        W32427  31.644  27.502   3.706
70765W        W32428   7.181  36.059  10.991
70766W        W32429  13.200  43.449  14.288
70767W        W32430  29.669  13.339  12.010
70768W        W32431  35.079  18.237   1.916
70769W        W32432  11.206  41.437  12.553
70770W        W32433  38.972  16.589   1.877
70771W        W32434   3.771   6.418  10.113
70772W        W32435  17.107  44.001   4.200
70773W        W32436  29.478  44.451   3.295
70774W        W32437  11.167  38.878  11.382
70775W        W32438  39.827   1.453  14.898
70776W        W32439  19.087  35.488  11.974
70777W        W32440   8.852  35.104   1.402
70778W        W32441   2.806  39.968  11.116
70779W        W32442  29.640   6.750   0.335
70780W        W32443  27.982   2.960  13.973
70781W        W32444  15.630  32.102   0.434
70782W        W32445  24.601  19.103   3.290
70783W        W32446  39.013  22.222  12.571
70784W        W32447  25.030  27.470   5.214
70785W        W32448  35.908  42.840   0.377
70786W        W32449  30.558  28.052   4.697
70787W        W32450  26.558  18.706  14.019
70788W        W32451  11.152  21.587  10.631
70789W        W32452  30.151   6.857  11.086
70790W        W32453  35.042  43.359   4.233
70791W        W32454  23.171  32.523  11.570
70792W        W32455  35.521  43.328   0.389
70793W        W32456  31.074  15.209  12.010
70794W        W32457  29.161  39.472   2.707
70795W        W32458  28.446   3.253  12.998
70796W        W32459   1.797   6.725   1.220
70797W        W32460  31.011  18.139   2.192
70798W        W32461   0.888  20.215   0.770
70799W        W32462  41.338  27.048   2.665
70800W        W32463  42.466  43.508   4.184
70801W        W32464  34.561  40.367  14.336
70802W        W32465  17.658  35.852  12.915
70803W        W32466  13.631  11.352  11.920
70804W        W32467  39.888  27.149   1.709
70805W        W32468  15.262  12.351  12.862
70806W        W32469  41.356  25.538  13.831
70807W        W32470  40.488  18.292   5.081
70808W        W32471  11.621  18.061   4.221
70809W        W32472   9.354   8.212   3.287
70810W        W32473  38.882  16.119   3.293
70811W        W32474  27.457   9.352   2.765
70812W        W32475  13.128  40.346   3.826
70813W        W32476   0.781  20.225   1.389
70814W        W32477   1.939  11.339   1.216
70815W        W32478  27.540  21.746  12.087
70816W        W32479  29.477  43.312  14.377
70817W        W32480  36.584  18.051   3.681
70818W        W32481   7.213  15.612   2.210
70819W        W32482  14.718  25.995   0.813
70820W        W32483  37.529  19.771  10.015
70821W        W32484  25.065  37.018   3.169
70822W        W32485   4.845  36.575   0.305
70823W        W32486  13.237  38.447   0.402
70824W        W32487  33.381  10.857   0.813
70825W        W32488  14.809  37.001   3.212
70826W        W32489  21.246  41.364  12.837
70827W        W32490  28.089  32.524   3.655
70828W        W32491  32.424  19.731  10.443
70829W        W32492  17.561  42.456   3.229
70830W        W32493  13.229  10.234   5.195
70831W        W32494  23.044  23.678   2.411
70832W        W32495  28.088  35.466  13.536
70833W        W32496   7.905  37.855   0.952
70834W        W32497  31.617   2.236   2.792
70835W        W32498  31.971  26.457  10.028
70836W        W32499  35.576  18.546  14.834
70837W        W32500  11.212  44.414  12.981
70838W        W32501   0.767  38.830   0.735
70839W        W32502  16.104  27.538   0.859
70840W        W32503   4.901  28.486   2.372
70841W        W32504  24.196   8.891  13.816
70842W        W32505  25.203  15.625  12.516
70843W        W32506  13.840  43.870  10.414
70844W        W32507  38.462   1.896   0.331
70845W        W32508  38.486  38.052  13.508
70846W        W32509  34.068   6.416  11.880
70847W        W32510   4.758  14.121  13.824
70848W        W32511  21.088  19.082  12.072
70849W        W32512  25.500   3.947  12.830
70850W        W32513  39.895  42.942  14.960
70851W        W32514   1.803   4.418   2.820
70852W        W32515   7.870  26.570   0.484
70853W        W32516  29.049  25.608  11.405
70854W        W32517  21.066  11.681  11.382
70855W        W32518   5.410  25.550   3.693
70856W        W32519  29.527  14.335  10.493
70857W        W32520  30.513  23.522   0.868
70858W        W32521  13.606  15.170   0.817
70859W        W32522  14.769  15.134  13.966
70860W        W32523  10.689  17.680  12.890
70861W        W32524   2.309   3.386  14.905
70862W        W32525  20.524  21.021  11.474
70863W        W32526  36.079  44.311   4.782
70864W        W32527   9.382  27.135  13.982
70865W        W32528   7.799   0.482   3.840
70866W        W32529   8.777  41.358   2.415
70867W        W32530   8.303   1.910  11.079
70868W        W32531  12.308  37.501  10.157
70869W        W32532  42.357  34.989   3.195
70870W        W32533  28.953   4.360   0.401
70871W        W32534  37.031   8.672   4.271
70872W        W32535  19.575  33.502  11.482
70873W        W32536   3.832  29.549   2.801
70874W        W32537   5.932  11.649  13.546
70875W        W32538  38.407  25.992  12.499
70876W        W32539  26.656  42.499  13.539
70877W        W32540  21.571  11.633  12.344
70878W        W32541   5.736  25.186   1.722
70879W        W32542  35.494  34.544   0.907
70880W        W32543  40.423   9.322   5.222
70881W        W32544   3.934  35.394  12.910
70882W        W32545  14.295  30.590  13.433
70883W        W32546   4.386   8.774  13.313
70884W        W32547   8.655  14.807   3.207
70885W        W32548  19.161   3.262   4.345
70886W        W32549  10.867   5.715   1.920
70887W        W32550  38.506  14.208  14.296
70888W        W32551  15.167  26.666  12.015
70889W        W32552  34.007  40.995   1.329
70890W        W32553  25.016  33.005   3.636
70891W        W32554  42.311  11.283  12.824
70892W        W32555  14.315  18.561  10.587
70893W        W32556  26.031  30.931  10.973
70894W        W32557   8.849  23.163  11.015
70895W        W32558  17.209  18.648  13.940
70896W        W32559   0.405  27.610  12.877
70897W        W32560  43.344  38.914  13.356
70898W        W32561  32.035  10.341  12.052
70899W        W32562  33.521  16.716  11.897
70900W        W32563  28.117  10.749  11.102
70901W        W32564  37.440  10.838   3.842
70902W        W32565   6.252  26.021   2.827
70903W        W32566  43.511  42.394  13.872
70904W        W32567  10.684   3.805  13.948
70905W        W32568  30.988   7.362   4.641
70906W        W32569  44.443   0.820   1.714
70907W        W32570   3.290   5.306  13.411
70908W        W32571  35.532  19.126   3.789
70909W        W32572   1.377  11.817   1.332
70910W        W32573  44.782  21.640  12.963
70911W        W32574  21.532  14.313  12.027
70912W        W32575  13.793  18.211  13.037
70913W        W32576  12.293  27.619  10.426
70914W        W32577   7.698  15.650  14.439
70915W        W32578  33.394  44.908  13.939
70916W        W32579   0.782  10.285  12.563
70917W        W32580  39.431  38.856  12.928
70918W        W32581  32.024   2.225   3.713
70919W        W32582  41.466  27.635  10.542
70920W        W32583  40.964   4.842   3.149
70921W        W32584  15.221  38.490  13.021
70922W        W32585  27.526   3.221   1.907
70923W        W32586  12.756   0.869   3.686
70924W        W32587  15.322  36.045   2.274
70925W        W32588  38.351   2.255   2.769
70926W        W32589  13.190  42.920  12.996
70927W        W32590   6.395  26.020  12.869
70928W        W32591   9.814  22.217  11.875
70929W        W32592   5.755  43.406   2.290
70930W        W32593  20.210   5.251   4.605
70931W        W32594  24.707   8.679  11.609
70932W        W32595  42.355  12.265   5.175
70933W        W32596  39.395  15.664  11.985
70934W        W32597  25.149  26.065  12.375
70935W        W32598  42.514   9.857   4.688
70936W        W32599  16.280  44.287  10.644
70937W        W32600   1.910  13.735  10.541
70938W        W32601  34.446  38.846  12.963
70939W        W32602  25.155  33.880   4.602
70940W        W32603  33.555  24.162   0.353
70941W        W32604  27.654  13.803   0.820
70942W        W32605  11.298  22.046  10.933
70943W        W32606   1.351  40.967  13.041
70944W        W32607  27.495  35.961   2.662
70945W        W32608  25.146   9.847  11.436
70946W        W32609   4.250  34.039   2.820
70947W        W32610  12.754  30.425   1.445
70948W        W32611  24.634  22.669   3.635
70949W        W32612  26.021   8.820  10.904
70950W        W32613  10.675  23.007   3.170
70951W        W32614   2.853  33.906   3.321
70952W        W32615  11.639  10.291   1.419
70953W        W32616  16.303  26.457   1.878
70954W        W32617  40.419  20.134  14.438
70955W        W32618   8.397   9.258   1.379
70956W        W32619   5.701  13.755   0.736
70957W        W32620  26.065  22.251  14.496
70958W        W32621  25.965  26.480   0.357
70959W        W32622  24.526  30.092  11.547
70960W        W32623   2.909  36.898   3.748
70961W        W32624   7.825  37.888  11.514
70962W        W32625  32.411   1.450   0.433
70963W        W32626  31.591   1.299   3.284
70964W        W32627   2.821   1.977   2.393
70965W        W32628  40.968  36.911  11.955
70966W        W32629  29.171  13.784   2.334
70967W        W32630  33.433   6.254  14.927
70968W        W32631  15.317  42.305   1.349
70969W        W32632  12.670  12.234  12.376
70970W        W32633   3.219  10.817   4.340
70971W        W32634  33.075   7.226   0.934
70972W        W32635  24.086  28.950   0.923
70973W        W32636  27.574  29.591  12.449
70974W        W32637   7.855  15.224  12.865
70975W        W32638  40.417  36.983   2.196
70976W        W32639  26.028  44.969  11.434
70977W        W32640  22.081  37.931  11.101
70978W        W32641  31.606  23.718   5.272
70979W        W32642  21.539  38.018  14.959
70980W        W32643  17.696  36.899  14.764
70981W        W32644  31.135  34.529   0.420
70982W        W32645  30.034   1.833   0.947
70983W        W32646  30.931  14.638   0.428
70984W        W32647  28.474  25.181   2.240
70985W        W32648  24.712  22.643  12.418
70986W        W32649  10.701  31.513  12.851
70987W        W32650  15.082  36.927  14.367
70988W        W32651  30.028  32.057   0.943
70989W        W32652  35.079  25.126  13.324
70990W        W32653  10.250   0.288  11.486
70991W        W32654  26.086  27.524   0.733
70992W        W32655  15.221   0.828   1.331
70993W        W32656  22.691  25.126   2.834
70994W        W32657   3.716  10.288   4.251
70995W        W32658  42.862  38.358   1.333
70996W        W32659  36.877   2.462  10.468
70997W        W32660  24.201   4.399  14.375
70998W        W32661  25.590  41.802  12.077
70999W        W32662  10.210   0.814   2.273
71000W        W32663  13.843  31.959   3.320
71001W        W32664  14.692   4.893   2.280
71002W        W32665  37.413  35.049   1.273
71003W        W32666  31.016  15.175   0.407
71004W        W32667  20.261  42.787  10.926
71005W        W32668   8.849   6.339   3.289
71006W        W32669  35.519  14.747   3.711
71007W        W32670  44.907   0.758   3.155
71008W        W32671  33.035   6.839  12.016
71009W        W32672  36.559  27.501  14.974
71010W        W32673   0.885  10.751   3.809
71011W        W32674  33.904  25.542   2.207
71012W        W32675   3.841  29.920  10.896
71013W        W32676  42.451  10.267  12.434
71014W        W32677   6.744  28.990  11.447
71015W        W32678  15.785  41.836   0.748
71016W        W32679  24.008  30.910   3.787
71017W        W32680  23.602   1.389  12.362
71018W        W32681  33.381  37.035  12.862
71019W        W32682  15.811   5.827  10.155
71020W        W32683  18.723   8.277   3.700
71021W        W32684  41.457  20.539  11.974
71022W        W32685  13.188  25.569   0.911
71023W        W32686   5.211  19.241   2.212
71024W        W32687   2.874  43.808  10.510
71025W        W32688  14.199  18.549   5.309
71026W        W32689  19.261  17.802   3.163
71027W        W32690  30.575  17.180   0.448
71028W        W32691   7.892  43.849   0.253
71029W        W32692  24.515  31.565  11.424
71030W        W32693  12.727  38.554  10.418
71031W        W32694   8.392  25.659   2.750
71032W        W32695  20.689  35.055   1.216
71033W        W32696  27.585   2.740   0.412
71034W        W32697  38.859  20.527   3.306
71035W        W32698  29.566  25.613   3.212
71036W        W32699  28.136   4.348   2.232
71037W        W32700  12.239   5.776   3.276
71038W        W32701  26.628  39.544  14.818
71039W        W32702   7.703  16.243  12.087
71040W        W32703  35.407  34.977  10.428
71041W        W32704   6.258  10.777  11.493
71042W        W32705  27.451  18.701  11.553
71043W        W32706  25.709  10.677  11.480
71044W        W32707  35.525  20.228  12.975
71045W        W32708  19.675   9.714   2.375
71046W        W32709   1.435  35.444   3.835
71047W        W32710   8.289  38.367   0.756
71048W        W32711  20.625  30.055  11.858
71049W        W32712  32.021   8.679  11.602
71050W        W32713  37.076  24.480  12.372
71051W        W32714  17.190   8.267  12.013
71052W        W32715  10.783  27.135   1.830
71053W        W32716   0.793  43.502   3.667
71054W        W32717  12.155  25.079  12.510
71055W        W32718   9.807  38.858  14.379
71056W        W32719   7.866   8.389   1.866
71057W        W32720  35.547   7.726   3.651
71058W        W32721  33.970  33.029  11.116
71059W        W32722  23.659  28.518   2.379
71060W        W32723  29.118  12.158   0.448
71061W        W32724   9.379   7.288  10.132
71062W        W32725  28.551  31.582   2.387
71063W        W32726   1.445  31.010   1.892
71064W        W32727  43.470   2.793   1.402
71065W        W32728  17.583  15.097  11.431
71066W        W32729  19.045  37.498  10.505
71067W        W32730  37.053  17.604   0.303
71068W        W32731  19.265  21.650   1.848
71069W        W32732  33.895  31.624  10.626
71070W        W32733   7.886  38.489  13.857
71071W        W32734  44.334   2.850   0.805
71072W        W32735  37.838  28.440  11.466
71073W        W32736  22.600  24.547  11.985
71074W        W32737  36.558  28.514   4.752
71075W        W32738   8.846  11.787   0.365
71076W        W32739   7.308   3.775  10.923
71077W        W32740  17.786  30.421   0.270
71078W        W32741   5.314  30.912   2.771
71079W        W32742  30.529  36.403   2.190
71080W        W32743   5.728  23.549  13.332
71081W        W32744  31.414   0.492   2.278
71082W        W32745   9.341  30.412   4.753
71083W        W32746  34.900  16.227  11.460
71084W        W32747  16.656  38.407  14.979
71085W        W32748  34.419  26.042   1.885
71086W        W32749  22.204  32.035  10.613
71087W        W32750  14.224   8.328  14.433
71088W        W32751  38.031  42.355  11.054
71089W        W32752  39.844  26.964  10.916
71090W        W32753   1.307  11.211  11.066
71091W        W32754   9.348  19.567  10.086
71092W        W32755  37.358  25.004  13.419
71093W        W32756   1.275  39.810  11.524
71094W        W32757  16.567   9.169   3.307
71095W        W32758  44.476   3.929  10.490
71096W        W32759  26.598  42.014   2.363
71097W        W32760  33.461  42.937  11.892
71098W        W32761   3.398  27.658   4.238
71099W        W32762  37.058  19.558  10.645
71100W        W32763  30.135  11.298  11.105
71101W        W32764  18.733  44.503  11.437
71102W        W32765  13.654   5.744  10.533
71103W        W32766  36.852  26.139  10.589
71104W        W32767  40.338  42.776  13.469
71105W        W32768  23.642  12.736   0.369
71106W        W32769  20.617   1.863  13.921
71107W        W32770  36.025  18.218  14.773
71108W        W32771   3.432   2.250  13.935
71109W        W32772  16.590   7.879   2.776
71110W        W32773   6.187  28.104   3.754
71111W        W32774   9.841  26.484   3.378
71112W        W32775   6.766  23.143  12.511
71113W        W32776   5.226  34.094   1.336
71114W        W32777  35.003  13.186   4.811
71115W        W32778  31.148  12.260   1.407
71116W        W32779  33.456   0.755  11.919
71117W        W32780  43.396  40.976  13.328
71118W        W32781   6.728   1.411  14.290
71119W        W32782  39.050  11.344  10.582
71120W        W32783   6.707  12.842  12.015
71121W        W32784  12.649  13.681  14.423
71122W        W32785  42.009  20.148   1.214
71123W        W32786  20.120  27.949   9.988
71124W        W32787  44.873  27.578   0.903
71125W        W32788  44.819  16.581   1.881
71126W        W32789  34.923   1.344  13.944
71127W        W32790  41.811  11.291  13.476
71128W        W32791  20.124   7.847  13.347
71129W        W32792  27.514  42.785  14.472
71130W        W32793  39.406  18.117   1.443
71131W        W32794  41.842  41.900   2.391
71132W        W32795  26.565  42.827   0.912
71133W        W32796  43.015  32.048  12.012
71134W        W32797  16.139  19.239  10.615
71135W        W32798  11.347   8.760   4.755
71136W        W32799   8.350  25.565   2.349
71137W        W32800  20.140  30.971   2.852
71138W        W32801  22.217  40.977   3.701
71139W        W32802  21.693  40.855  12.391
71140W        W32803   9.342  43.912   4.247
71141W        W32804  40.397  10.179  11.882
71142W        W32805  16.112  40.475  14.346
71143W        W32806   8.255  29.173   0.405
71144W        W32807  16.710   3.287   2.800
71145W        W32808  36.568  19.257   9.943
71146W        W32809  17.223  26.543   2.239
71147W        W32810  30.503  41.998   1.894
71148W        W32811  29.077  15.648  14.506
71149W        W32812   8.879   9.747   2.347
71150W        W32813  17.749  38.831  12.407
71151W        W32814  18.116  12.838   4.331
71152W        W32815  35.058  40.807   2.386
71153W        W32816   1.424   6.282  14.800
71154W        W32817   3.322  32.039   1.374
71155W        W32818  11.358  43.439   2.300
71156W        W32819   0.940  12.825  12.886
71157W        W32820   2.741  12.733  12.838
71158W        W32821  30.518  14.610   4.610
71159W        W32822   0.387  35.580   4.277
71160W        W32823   5.333  42.942  14.359
71161W        W32824  31.150  10.773   3.182
71162W        W32825  37.038   2.874   1.917
71163W        W32826   2.304  35.956   1.443
71164W        W32827  24.103   9.684  12.090
71165W        W32828  43.491  40.891   3.372
71166W        W32829  28.049  22.606   0.768
71167W        W32830  40.337   1.972   1.806
71168W        W32831  23.654  16.288  11.475
71169W        W32832  15.591  43.416  11.942
71170W        W32833  43.015  18.631   1.899
71171W        W32834  40.419  21.594   1.422
71172W        W32835  40.047  44.829  13.965
71173W        W32836  29.063   3.768  12.890
71174W        W32837   1.880  42.432   1.919
71175W        W32838   3.301  29.666   0.791
71176W        W32839   3.404  43.019  11.124
71177W        W32840  32.444  41.880   3.800
71178W        W32841  29.621  13.155   2.895
71179W        W32842   0.799  14.296   0.433
71180W        W32843  21.040  29.443  13.365
71181W        W32844  34.593  31.077   0.794
71182W        W32845  11.657  30.060   4.295
71183W        W32846  43.296   7.175  13.048
71184W        W32847  25.214  13.724   1.736
71185W        W32848   6.838   2.851   4.344
71186W        W32849  31.458  27.954  14.888
71187W        W32850   6.679  20.045  10.438
71188W        W32851   8.750  40.514   2.398
71189W        W32852  13.730  29.500   1.251
71190W        W32853  43.447  10.178  13.008
71191W        W32854  11.303   7.301   4.313
71192W        W32855   1.741  42.373  10.490
71193W        W32856  35.477  30.414   0.291
71194W        W32857   9.158  26.504  12.876
71195W        W32858  42.968  34.106  14.513
71196W        W32859  28.598  30.959  14.455
71197W        W32860  12.212  10.707  13.796
71198W        W32861  15.329  37.974  14.834
71199W        W32862  13.628  41.853   1.286
71200W        W32863   7.275  33.000  14.392
71201W        W32864  29.145  44.363   0.246
71202W        W32865  38.867   9.700   2.322
71203W        W32866  40.827  10.313   3.342
71204W        W32867  11.351  28.594   0.840
71205W        W32868  22.030  13.702   3.216
71206W        W32869  30.479  28.102  13.365
71207W        W32870  31.422  32.486   2.247
71208W        W32871  41.914  21.224  12.480
71209W        W32872   8.262  14.741   1.826
71210W        W32873  36.429  27.989   1.794
71211W        W32874  30.151  44.329  14.858
71212W        W32875  29.050  37.967  13.369
71213W        W32876  17.291  20.253   2.256
71214W        W32877  42.513   4.312   3.362
71215W        W32878  14.328   3.939   4.222
71216W        W32879   5.850  40.503   2.316
71217W        W32880   5.797  42.012  14.974
71218W        W32881  35.372  19.723   2.687
71219W        W32882   4.271   3.836   3.154
71220W        W32883   6.272  21.248   3.157
71221W        W32884  24.657   5.886  12.566
71222W        W32885  27.178  35.010  13.547
71223W        W32886  25.116  27.158  14.480
71224W        W32887  31.519  23.658  11.591
71225W        W32888  42.819  44.313  10.521
71226W        W32889   4.440   8.246   3.765
71227W        W32890  43.832  13.701   0.747
71228W        W32891   8.866  33.486   3.187
71229W        W32892  28.442  20.661  14.931
71230W        W32893   7.907  42.964  11.508
71231W        W32894  16.213   7.872  14.861
71232W        W32895  32.597   7.829  14.471
71233W        W32896  32.890  22.645  10.084
71234W        W32897  31.605  34.985  11.127
71235W        W32898  38.065  39.324   1.233
71236W        W32899  31.617   6.824  13.530
71237W        W32900  14.219  38.904   9.972
71238W        W32901  12.299  43.868  12.446
71239W        W32902  38.363  27.078  10.466
71240W        W32903  25.678  11.715   2.832
71241W        W32904  33.928  14.638   3.743
71242W        W32905   1.820   0.780   4.140
71243W        W32906  22.575   4.296  12.515
71244W        W32907  23.615   9.701   0.726
71245W        W32908   5.209  33.502  13.042
71246W        W32909  22.226   2.791   2.367
71247W        W32910   9.730  25.176   2.880
71248W        W32911   0.753   3.279  12.061
71249W        W32912  24.503  32.500  12.874
71250W        W32913   6.693  31.479  12.848
71251W        W32914  42.947  29.480  12.860
71252W        W32915  10.812  36.566   0.415
71253W        W32916  30.999  22.131  12.577
71254W        W32917  10.703  24.122   2.378
71255W        W32918   6.888  36.356  10.578
71256W        W32919  32.414  42.521   1.419
71257W        W32920  20.043  17.610   3.641
71258W        W32921  19.285  36.042  13.845
71259W        W32922  43.515   8.757  14.776
71260W        W32923  36.938  34.561  11.537
71261W        W32924   0.354  15.740   9.662
71262W        W32925   2.312  43.363  13.378
71263W        W32926  33.938  11.666   2.872
71264W        W32927  16.250  10.760   2.717
71265W        W32928  30.532  16.150   4.765
71266W        W32929  27.061  13.742  11.579
71267W        W32930  36.469  28.491   1.852
71268W        W32931  24.587   2.369   3.372
71269W        W32932   8.177  24.571  10.563
71270W        W32933   3.261  28.623   1.909
71271W        W32934   6.918  17.647  12.934
71272W        W32935  27.543   0.931   3.671
71273W        W32936  36.467  17.184   9.985
71274W        W32937  36.562   0.443   1.243
71275W        W32938  23.236  41.453   3.335
71276W        W32939  36.059  26.187   2.735
71277W        W32940   5.889  38.568   2.252
71278W        W32941  35.051   2.401  12.362
71279W        W32942  39.978  23.109  11.584
71280W        W32943  29.936   0.906  14.886
71281W        W32944  36.489  25.161   3.821
71282W        W32945  33.470  30.435   2.810
71283W        W32946  35.034  14.225   3.318
71284W        W32947   5.392  43.782   1.827
71285W        W32948  42.311  37.920   4.683
71286W        W32949  31.112  36.991   3.293
71287W        W32950  10.833  35.077   3.714
71288W        W32951  13.258  43.462  10.599
71289W        W32952  20.533  33.494   3.363
71290W        W32953  13.251   9.375  13.450
71291W        W32954  39.817   0.301   4.772
71292W        W32955  11.188   6.215  12.460
71293W        W32956   2.310  21.195   0.320
71294W        W32957  30.940  38.482   1.261
71295W        W32958  37.859  23.668   1.278
71296W        W32959   4.241   7.732  11.092
71297W        W32960   1.798  35.441  12.931
71298W        W32961   9.321  10.767   3.184
71299W        W32962   5.204  24.174  13.987
71300W        W32963  31.576   2.911   4.715
71301W        W32964  25.054   6.807  10.577
71302W        W32965  25.483  13.272  11.038
71303W        W32966  37.965  18.552   1.433
71304W        W32967  21.057   3.420   2.759
71305W        W32968  22.179  40.457  10.983
71306W        W32969  29.612  15.754  10.031
71307W        W32970  15.813  32.101   4.694
71308W        W32971   9.353  41.960   4.700
71309W        W32972  18.167  30.594   3.146
71310W        W32973   4.346  19.747   0.879
71311W        W32974  35.997  42.442   1.253
71312W        W32975  16.092  20.061  14.435
71313W        W32976  36.457   0.761   4.600
71314W        W32977  24.691  38.454   0.308
71315W        W32978   3.864   4.238  14.445
71316W        W32979   8.392  28.625  14.436
71317W        W32980  37.507  37.573  11.610
71318W        W32981  44.463   1.462   1.781
71319W        W32982  28.606   3.780  11.036
71320W        W32983  26.532   7.718  12.470
71321W        W32984  18.778  18.777   1.862
71322W        W32985  14.334  22.030   3.720
71323W        W32986  39.476  22.511   4.809
71324W        W32987  28.948  40.359  12.823
71325W        W32988  33.530   8.675  12.006
71326W        W32989  15.149  37.338  14.361
71327W        W32990   0.859  11.759   0.838
71328W        W32991  22.137   5.411   0.755
71329W        W32992  25.617   5.831  10.136
71330W        W32993  44.277  35.403  13.963
71331W        W32994  19.054  32.549   0.261
71332W        W32995   1.912  39.325  13.975
71333W        W32996  21.123  44.453  14.328
71334W        W32997   6.223  21.751  10.923
71335W        W32998  19.705   0.800  12.540
71336W        W32999  22.017  20.592   4.282
71337W        W33000  27.586  26.664   2.285
71338W        W33001  25.560   3.714  14.469
71339W        W33002  21.618  32.899  12.845
71340W        W33003  33.976   7.788   2.744
71341W        W33004   5.387  42.476   3.746
71342W        W33005   1.881  22.701  10.436
71343W        W33006  13.629  18.221  14.334
71344W        W33007  33.607  21.082   2.675
71345W        W33008  27.162  38.049  14.464
71346W        W33009   5.284  19.620   3.359
71347W        W33010  33.124  22.553   4.132
71348W        W33011  10.877   4.383   1.371
71349W        W33012  36.062   2.829   2.226
71350W        W33013  37.417   5.759  13.544
71351W        W33014  27.960   0.318  11.882
71352W        W33015   2.459  15.580  12.931
71353W        W33016  18.749  15.234  12.555
71354W        W33017  36.571   8.845   2.188
71355W        W33018  14.647  28.618  11.588
71356W        W33019  44.783  11.261  14.000
71357W        W33020  34.611  19.709   4.733
71358W        W33021  44.373  13.776   2.353
71359W        W33022   3.875  43.959   3.642
71360W        W33023  24.000  43.424   3.815
71361W        W33024  12.706   3.400   3.269
71362W        W33025  15.757  17.746  12.891
71363W        W33026  42.299  42.503  12.521
71364W        W33027   2.923  18.789   3.667
71365W        W33028  12.610  35.394   3.160
71366W        W33029  31.100  33.041  14.493
71367W        W33030  26.530  18.757   2.888
71368W        W33031  42.932  31.921  14.024
71369W        W33032  21.667  42.334   0.293
71370W        W33033  36.079  30.532   3.752
71371W        W33034   7.793  12.804   0.312
71372W        W33035  28.551  42.327  13.037
71373W        W33036   1.345   4.249  12.373
71374W        W33037   7.687  43.431  10.642
71375W        W33038  26.059   8.240  10.907
71376W        W33039  21.121  44.417   3.332
71377W        W33040  19.765   9.726  11.605
71378W        W33041  44.783  37.459  11.544
71379W        W33042  40.953  24.636   4.641
71380W        W33043  16.254  38.328   4.698
71381W        W33044  36.975   9.269  11.943
71382W        W33045  12.251  32.050   0.283
71383W        W33046   4.806  20.543   1.441
71384W        W33047  26.520   0.288  11.480
71385W        W33048  17.233   6.399   0.397
71386W        W33049  11.831  44.794   1.425
71387W        W33050   9.348  31.898  14.323
71388W        W33051   3.741  23.042   1.904
71389W        W33052  17.255   7.815   1.303
71390W        W33053  41.447  25.168  12.463
71391W        W33054  14.142  17.192  14.507
71392W        W33055  33.553  23.073   2.226
71393W        W33056   3.383   3.715  10.493
71394W        W33057  24.608  24.173  14.495
71395W        W33058  11.309  41.928   4.679
71396W        W33059  11.748  12.209   2.336
71397W        W33060  36.989  38.428  11.514
71398W        W33061   2.903   9.245   0.418
71399W        W33062  33.064   2.929   3.852
71400W        W33063  10.793  39.002   4.669
71401W        W33064  29.572   1.917   3.380
71402W        W33065  30.000  38.901  10.613
71403W        W33066   9.337  42.404  14.488
71404W        W33067  15.582  23.224   2.746
71405W        W33068  32.541  33.098   1.362
71406W        W33069  22.116  26.656  14.928
71407W        W33070  23.022  34.033   4.809
71408W        W33071   6.697   0.760   1.908
71409W        W33072  34.387  10.190  10.052
71410W        W33073  36.395  27.591  10.466
71411W        W33074   4.727  44.889  10.573
71412W        W33075  26.553   4.742   4.207
71413W        W33076  29.643  40.330  11.050
71414W        W33077  23.682   3.811   3.148
71415W        W33078  44.464  11.796  10.599
71416W        W33079   6.253   1.968   2.190
71417W        W33080   5.290  19.078  10.422
71418W        W33081  18.588  36.525  10.990
71419W        W33082  19.677  25.665   1.898
71420W        W33083  26.193   0.853  10.982
71421W        W33084  40.870  14.175  11.555
71422W        W33085  23.066  39.532   4.826
71423W        W33086  17.104  39.964  10.073
71424W        W33087  11.740   9.829   9.566
71425W        W33088   4.884  23.128  12.990
71426W        W33089  33.132   3.943  12.895
71427W        W33090  40.814  43.424  11.085
71428W        W33091  36.552  28.958   5.155
71429W        W33092  40.989  26.664   1.907
71430W        W33093   5.772  19.654  11.587
71431W        W33094  38.536  31.931  10.644
71432W        W33095  41.005  24.484   1.361
71433W        W33096   1.943  14.259   1.270
71434W        W33097  26.188  36.353   4.735
71435W        W33098  19.615  11.772  13.053
71436W        W33099  19.253  44.878   4.280
71437W        W33100  20.230   8.252   3.708
71438W        W33101   6.755  24.991   0.367
71439W        W33102  28.047  43.815  12.496
71440W        W33103   6.414  16.598  11.417
71441W        W33104  38.894   3.437   0.464
71442W        W33105  28.929  25.070  11.371
71443W        W33106  24.073  25.674   3.814
71444W        W33107  44.004  37.498  14.481
71445W        W33108   7.329   1.255  14.942
71446W        W33109  19.170  13.244   0.779
71447W        W33110  39.542  32.500  14.761
71448W        W33111  38.925  28.486   1.226
71449W        W33112  20.146  37.029   1.748
71450W        W33113  32.485  41.954  10.456
71451W        W33114  13.320   8.744  14.773
71452W        W33115  31.000   6.399  10.501
71453W        W33116  26.564  25.631  14.442
71454W        W33117   5.439  36.580  14.951
71455W        W33118  16.151  12.733   2.705
71456W        W33119  16.196  28.129   2.186
71457W        W33120  19.089  30.557   2.716
71458W        W33121  37.473  40.831   2.748
71459W        W33122  31.987  26.954   1.889
71460W        W33123  39.916  35.998   3.835
71461W        W33124  18.649  29.073  12.096
71462W        W33125  40.421  17.283   1.744
71463W        W33126  17.708  29.644  10.588
71464W        W33127  10.787  24.147  14.483
71465W        W33128  34.400  14.317  10.638
71466W        W33129  41.386   7.265   4.609
71467W        W33130  27.513  38.840  14.027
71468W        W33131  10.759   6.888   2.285
71469W        W33132  26.681  38.445  11.013
71470W        W33133   3.804   7.198   3.684
71471W        W33134   4.439   2.864   2.866
71472W        W33135  31.077  16.648   1.839
71473W        W33136   5.291  10.679   1.406
71474W        W33137  14.605   2.877   4.673
71475W        W33138  10.184  32.626  12.846
71476W        W33139  23.527  28.125   0.385
71477W        W33140  37.904   4.879  13.380
71478W        W33141  28.633   4.715  10.971
71479W        W33142  19.162   6.869   2.692
71480W        W33143  37.437   6.732   2.414
71481W        W33144  19.118  28.980   1.387
71482W        W33145  16.285  16.755  13.045
71483W        W33146   4.428   9.888   4.134
71484W        W33147   7.862   3.243  10.081
71485W        W33148  36.010  36.042  13.955
71486W        W33149  18.630  37.364   3.700
71487W        W33150  27.516  33.625   0.908
71488W        W33151  16.728   7.860  13.428
71489W        W33152   9.189  11.204   2.683
71490W        W33153   0.273  25.511   1.765
71491W        W33154  35.870  37.876   4.700
71492W        W33155  32.035   8.251  12.073
71493W        W33156  38.044  29.030  11.955
71494W        W33157  24.105  36.930   1.881
71495W        W33158  26.982  29.502  10.892
71496W        W33159   4.219  38.568   0.351
71497W        W33160  32.988  11.149   4.127
71498W        W33161  42.480  26.673  12.998
71499W        W33162  19.206  43.784   3.824
71500W        W33163  40.459   1.801  11.452
71501W        W33164  30.657  36.355  13.499
71502W        W33165  16.582  22.693  10.922
71503W        W33166  21.646   5.217   0.795
71504W        W33167   6.216  19.146  12.993
71505W        W33168  20.139   4.226  11.396
71506W        W33169   8.656   0.356  10.466
71507W        W33170  42.298  29.560  11.398
71508W        W33171  40.542  30.576   2.219
71509W        W33172  42.980  24.007  13.058
71510W        W33173   5.318  14.165  13.854
71511W        W33174   3.306   9.744   1.295
71512W        W33175   7.213  27.513  14.452
71513W        W33176  26.996  20.584  13.353
71514W        W33177  11.296  24.063   0.745
71515W        W33178  12.734  42.400  11.522
71516W        W33179  22.512   4.900  11.956
71517W        W33180  35.942  20.547  14.823
71518W        W33181  25.119  27.582   2.205
71519W        W33182   1.811   4.741  11.876
71520W        W33183  40.899   5.903  13.455
71521W        W33184  30.577  15.604  12.462
71522W        W33185   8.240  32.413   4.134
71523W        W33186  18.117  17.589   1.786
71524W        W33187   5.209  10.775   3.311
71525W        W33188  13.790  38.834   2.243
71526W        W33189   4.773  38.937   2.770
71527W        W33190  42.029  15.694  12.554
71528W        W33191  25.477  33.404  13.052
71529W        W33192   2.809   5.736  13.821
71530W        W33193  26.991  36.950   4.275
71531W        W33194  33.464  32.100   0.866
71532W        W33195  24.015  20.187   4.284
71533W        W33196   2.425  26.098  13.021
71534W        W33197  27.139  21.757  11.100
71535W        W33198   4.768  21.703   4.818
71536W        W33199  36.082  10.157  10.025
71537W        W33200  40.917   7.230  11.595
71538W        W33201  17.237  14.638   2.872
71539W        W33202  39.551  42.434   0.428
71540W        W33203  21.218  10.677  13.009
71541W        W33204  27.539   5.839   1.269
71542W        W33205  18.205  33.904   4.724
71543W        W33206  20.128  44.354   1.731
71544W        W33207  34.050   4.830   3.717
71545W        W33208  22.513  27.471  13.938
71546W        W33209  31.501  43.361   1.218
71547W        W33210  20.130   8.835  11.872
71548W        W33211  26.623  23.633   3.790
71549W        W33212   4.231  18.653   0.825
71550W        W33213   2.360  40.447  13.891
71551W        W33214  41.909  36.462   3.817
71552W        W33215  20.696  37.030  13.939
71553W        W33216  40.364  36.858  12.505
71554W        W33217  10.810  36.954  14.419
71555W        W33218   5.821   8.309  13.031
71556W        W33219  32.417  43.837  10.972
71557W        W33220  33.078  32.394   3.223
71558W        W33221  31.083   6.807   2.734
71559W        W33222  20.266   5.305  10.113
71560W        W33223   2.357  33.599  13.416
71561W        W33224   8.162  31.101   1.232
71562W        W33225  32.578  18.273  11.573
71563W        W33226   3.808  29.926   2.896
71564W        W33227   1.380  37.577  10.904
71565W        W33228   9.317   1.430   4.708
71566W        W33229  12.149  35.474   0.736
71567W        W33230  10.325   2.931   2.269
71568W        W33231  37.368  41.449  11.859
71569W        W33232  33.618  42.888  10.938
71570W        W33233  12.148   2.790   0.732
71571W        W33234  32.886  24.218  12.898
71572W        W33235  27.606  32.459   3.795
71573W        W33236  22.121  22.207   0.921
71574W        W33237   2.413  33.526   2.858
71575W        W33238  40.803  21.020   4.201
71576W        W33239  29.522  26.697   2.293
71577W        W33240  18.180  43.291   4.251
71578W        W33241  38.028  13.691  13.312
71579W        W33242  27.956  39.362   4.138
71580W        W33243   6.908  25.186  14.912
71581W        W33244  43.914  12.143   4.754
71582W        W33245  28.506  19.094  14.306
71583W        W33246  17.264  31.546  10.964
71584W        W33247  30.415   1.744   3.790
71585W        W33248   1.884  29.114   0.455
71586W        W33249  10.290  27.691   3.152
71587W        W33250  42.008  40.843  14.009
71588W        W33251  28.607  34.534   0.458
71589W        W33252   5.417  16.094  12.956
71590W        W33253  27.041  36.386   4.620
71591W        W33254  41.987  41.304  13.835
71592W        W33255  15.772  41.864  14.791
71593W        W33256  22.612  14.598  13.524
71594W        W33257  16.087  25.676   2.853
71595W        W33258  34.096  42.514   1.240
71596W        W33259  24.161  34.374   0.280
71597W        W33260  14.794  41.854   3.173
71598W        W33261  39.318   3.873   4.294
71599W        W33262  19.232   2.731  11.089
71600W        W33263  29.443  44.460   1.727
71601W        W33264   8.317  26.677  11.958
71602W        W33265  31.484  35.030   3.386
71603W        W33266   0.341  22.569  13.364
71604W        W33267  33.464  40.305  14.904
71605W        W33268   9.341  18.273  12.894
71606W        W33269  10.245  20.196  10.540
71607W        W33270  42.809  15.591   1.745
71608W        W33271   8.176  15.808  14.484
71609W        W33272   8.765  36.928   4.199
71610W        W33273  15.208   8.670   2.715
71611W        W33274  41.356  31.607  13.311
71612W        W33275  18.271   4.713  12.398
71613W        W33276   5.197   5.265  14.415
71614W        W33277  13.116  39.531   2.296
71615W        W33278   4.763  41.843   3.749
71616W        W33279   2.823   5.711  12.906
71617W        W33280  44.422  14.229   2.235
71618W        W33281  19.709  10.250   5.100
71619W        W33282  39.458  39.450  13.328
71620W        W33283  12.270   0.815   2.735
71621W        W33284   7.888   7.203  12.010
71622W        W33285  42.393  19.089  12.862
71623W        W33286  20.678  16.243  13.307
71624W        W33287  23.007  41.538   1.250
71625W        W33288   0.922   0.449   4.243
71626W        W33289  19.663   3.909   1.276
71627W        W33290  17.200  36.439  11.018
71628W        W33291  36.352  32.075  10.119
71629W        W33292  33.522  24.549  13.450
71630W        W33293  37.953  21.541  12.945
71631W        W33294   8.813  24.522   3.208
71632W        W33295   7.774   4.924   2.205
71633W        W33296  15.606  15.703  10.064
71634W        W33297  39.825  10.199   3.352
71635W        W33298  39.434  14.106  12.483
71636W        W33299  13.237  26.511  12.339
71637W        W33300  14.267   2.801   3.713
71638W        W33301  38.529   1.273  13.890
71639W        W33302  21.584  44.372  11.607
71640W        W33303   8.185  41.913  14.329
71641W        W33304  34.905   4.218  12.912
71642W        W33305  35.577  16.613  11.587
71643W        W33306  29.577  11.195   2.256
71644W        W33307  40.948   8.747   3.194
71645W        W33308  29.628  18.260  10.598
71646W        W33309  41.850   0.395  11.471
71647W        W33310   2.289  28.112  12.524
71648W        W33311  15.311  31.901  11.423
71649W        W33312   4.820  21.232   4.736
71650W        W33313  12.150   6.795   3.735
71651W        W33314  41.989  44.303   3.776
71652W        W33315  30.151  36.052  14.466
71653W        W33316   8.308  10.200   2.710
71654W        W33317  14.767   4.358  13.493
71655W        W33318   0.317  29.664  11.404
71656W        W33319  19.776  42.420  13.791
71657W        W33320  27.097  19.058  12.464
71658W        W33321   1.270  29.625  11.426
71659W        W33322  33.598  28.931  14.364
71660W        W33323  38.033  36.092  13.985
71661W        W33324  37.842  10.745   1.239
71662W        W33325   3.295   7.848  13.403
71663W        W33326   9.384  31.048   4.773
71664W        W33327  13.307  33.594  11.049
71665W        W33328  20.274  21.115   0.252
71666W        W33329  26.465   5.905   0.820
71667W        W33330  44.935  37.428  10.640
71668W        W33331  18.050   4.863  11.965
71669W        W33332   1.875   9.763   0.424
71670W        W33333   6.278  32.438  14.463
71671W        W33334  13.672  10.716  13.452
71672W        W33335  17.278  27.577  14.030
71673W        W33336  20.726  14.737   4.276
71674W        W33337   9.795  41.973   1.707
71675W        W33338  38.518  28.465   2.748
71676W        W33339   0.823  24.567  14.023
71677W        W33340   5.274  28.658   3.815
71678W        W33341  11.352   3.923   2.393
71679W        W33342  41.016   2.402  11.490
71680W        W33343  33.881  44.833   1.448
71681W        W33344   4.732   0.892   4.831
71682W        W33345  12.613  15.705   1.706
71683W        W33346  20.676  27.113   4.658
71684W        W33347  28.670  17.798  11.026
71685W        W33348  24.581  26.586   5.130
71686W        W33349  25.507  12.674   3.170
71687W        W33350   3.828  24.560   0.274
71688W        W33351   1.956  24.512   3.366
71689W        W33352  41.312  15.228   0.420
71690W        W33353  26.146  43.969   1.860
71691W        W33354  16.186  31.040  13.829
71692W        W33355  41.421   5.842   3.284
71693W        W33356  27.973  40.019  13.384
71694W        W33357   3.421  29.081  10.535
71695W        W33358  34.949   4.248   5.144
71696W        W33359  21.536  27.579   4.630
71697W        W33360  26.505  28.652   1.859
71698W        W33361  13.280  41.477   0.306
71699W        W33362  36.565  15.289  10.591
71700W        W33363  41.315  40.342   2.384
71701W        W33364  34.968   3.817   1.304
71702W        W33365  29.547  24.000  10.505
71703W        W33366  43.785  17.743   3.700
71704W        W33367  41.024  30.631   2.341
71705W        W33368  14.176  15.141  13.895
71706W        W33369   1.276  41.435   3.261
71707W        W33370  27.487  32.142  13.428
71708W        W33371   7.786  18.276   2.249
71709W        W33372   4.277  33.035   3.273
71710W        W33373  27.116  14.324   4.268
71711W        W33374  34.035  44.924  11.403
71712W        W33375   5.219  17.093  14.290
71713W        W33376  33.129  12.142   4.257
71714W        W33377  37.399   5.778  13.833
71715W        W33378  41.347   8.738  11.535
71716W        W33379  19.158  25.981  10.530
71717W        W33380  25.712  32.090   4.315
71718W        W33381  26.075  44.319  10.954
71719W        W33382  39.444  23.566   3.193
71720W        W33383  40.014  43.867  14.786
71721W        W33384  18.294  16.095  10.896
71722W        W33385  23.120  11.796  12.370
71723W        W33386  24.977   6.796   3.829
71724W        W33387  10.787  12.194  12.552
71725W        W33388   1.786  22.231   1.451
71726W        W33389  30.004  32.613   3.844
71727W        W33390   8.827   0.846  14.761
71728W        W33391  29.130  41.403  12.569
71729W        W33392  10.822  17.652   3.826
71730W        W33393  29.497   0.333   3.660
71731W        W33394  20.211  19.179   1.833
71732W        W33395  15.699   6.333  14.008
71733W        W33396  31.481  18.211  14.765
71734W        W33397  27.485  41.337  12.931
71735W        W33398  24.189   2.339   3.674
71736W        W33399  32.100  15.204   1.328
71737W        W33400   8.357   4.870   0.749
71738W        W33401  29.031  34.389   0.444
71739W        W33402  34.910   2.728  14.344
71740W        W33403  20.715   8.170   1.355
71741W        W33404  17.655  24.639   3.352
71742W        W33405  38.030  44.882  14.910
71743W        W33406   7.896  10.202   2.687
71744W        W33407  24.718   6.698  11.013
71745W        W33408  13.244  27.555  12.960
71746W        W33409  36.873   9.726   2.334
71747W        W33410  17.625  29.173  12.968
71748W        W33411  33.481  12.745   2.879
71749W        W33412   4.791   7.237  10.149
71750W        W33413  28.110  27.625   1.862
71751W        W33414  39.943  24.556  14.998
71752W        W33415   7.699  28.944   1.406
71753W        W33416   4.339  37.556  13.797
71754W        W33417  32.924  42.474  13.839
71755W        W33418  10.868  22.704  10.617
71756W        W33419  18.206  44.844   2.756
71757W        W33420  29.137   2.471   2.356
71758W        W33421  13.132   0.423  11.404
71759W        W33422  15.287  17.302  10.920
71760W        W33423  33.090  28.669   3.730
71761W        W33424  10.824   7.748   4.236
71762W        W33425  31.583  34.973  12.999
71763W        W33426   7.866  26.615   4.266
71764W        W33427  41.455  44.969  13.430
71765W        W33428  44.286  42.882  12.029
71766W        W33429   2.876   6.691   3.675
71767W        W33430  39.885  34.505   3.345
71768W        W33431  34.021  36.473  12.566
71769W        W33432  35.477   9.756  12.966
71770W        W33433  36.035   9.852  12.554
71771W        W33434  29.662  41.501  11.891
71772W        W33435  40.816  42.787   0.841
71773W        W33436   7.395  37.074  14.815
71774W        W33437  34.574  28.054   2.884
71775W        W33438  31.576   0.824  13.422
71776W        W33439  16.175  41.354  13.867
71777W        W33440  42.486  25.558  11.501
71778W        W33441  20.208  12.695   4.138
71779W        W33442   2.895  15.119  10.582
71780W        W33443  44.754  37.902   1.720
71781W        W33444  11.854   7.743   2.848
71782W        W33445  39.008  15.095   1.864
71783W        W33446   8.357  23.734  10.437
71784W        W33447  23.600   5.849   1.271
71785W        W33448  19.123   0.787   4.672
71786W        W33449  35.958  26.545  11.935
71787W        W33450  24.533   9.788  12.340
71788W        W33451   7.213  22.108   4.703
71789W        W33452  17.193  10.673  10.579
71790W        W33453  38.999   0.980   3.176
71791W        W33454  43.942  43.437  13.382
71792W        W33455  43.372  18.140  13.415
71793W        W33456  14.164   6.372  12.579
71794W        W33457  27.596  44.496  13.329
71795W        W33458   6.876  19.169  11.987
71796W        W33459   5.865  35.457   1.729
71797W        W33460   9.394   4.300  14.863
71798W        W33461  19.692  30.926   5.319
71799W        W33462   0.806   8.344   3.262
71800W        W33463  15.819  14.833  14.971
71801W        W33464   6.723  14.288  13.952
71802W        W33465  21.630  44.278  10.894
71803W        W33466  32.981  10.672  14.026
71804W        W33467  36.355  23.209  13.877
71805W        W33468  31.142  42.366  12.521
71806W        W33469   8.199  39.500   0.916
71807W        W33470  30.003  43.811   4.205
71808W        W33471  28.132  34.571   4.148
71809W        W33472  18.561  41.313   2.402
71810W        W33473  21.595  38.867  11.099
71811W        W33474  25.577  36.991  11.560
71812W        W33475  15.304   5.870   0.337
71813W        W33476  10.181  36.549  10.123
71814W        W33477  20.181  34.112   0.310
71815W        W33478  33.108   1.277  12.483
71816W        W33479  33.584  35.496  12.457
71817W        W33480   3.734  20.131  10.463
71818W        W33481  11.333  34.001   1.702
71819W        W33482  20.242   2.850   1.403
71820W        W33483  28.529  10.219   1.703
71821W        W33484   0.462  39.462  12.347
71822W        W33485   2.338  25.098   9.989
71823W        W33486  28.048  18.113  14.907
71824W        W33487  16.277  27.451  10.538
71825W        W33488  34.381  14.303  13.875
71826W        W33489  22.024  42.831   3.243
71827W        W33490   5.374  20.254   2.776
71828W        W33491  39.895  12.198  12.348
71829W        W33492  33.381  35.016   1.874
71830W        W33493  10.871  37.086   2.859
71831W        W33494  19.773  12.632  11.934
71832W        W33495  11.748  10.738  10.129
71833W        W33496  20.115   8.742  10.151
71834W        W33497  39.824  12.342   3.766
71835W        W33498  11.800   0.325   4.301
71836W        W33499   6.194  28.630   4.296
71837W        W33500  15.750   5.430  13.343
71838W        W33501  15.253  15.175   0.825
71839W        W33502  28.124  20.644  13.408
71840W        W33503  11.647  11.793   4.304
71841W        W33504  39.537   7.402  14.019
71842W        W33505  29.502  37.391   1.785
71843W        W33506  30.434  27.514   1.755
71844W        W33507  17.606  22.230  13.404
71845W        W33508  20.171  20.557  13.484
71846W        W33509  35.414  28.613  14.464
71847W        W33510   8.840  33.468   2.374
71848W        W33511  41.479  41.426  11.580
71849W        W33512  18.155  17.292   0.858
71850W        W33513  25.962  17.078  12.510
71851W        W33514   8.172  23.132   2.665
71852W        W33515  37.469  37.541   0.292
71853W        W33516   8.399   9.307   2.837
71854W        W33517  37.841  39.870   4.115
71855W        W33518  44.911  26.636   4.268
71856W        W33519   9.289  14.295  13.528
71857W        W33520  28.957  13.797  14.442
71858W        W33521  28.567  17.124   1.926
71859W        W33522   4.362   2.270   2.418
71860W        W33523   3.844  40.457   0.763
71861W        W33524  21.143  32.081   0.948
71862W        W33525  26.951  28.051  13.981
71863W        W33526  10.823   5.393   5.312
71864W        W33527   1.811  23.668   4.742
71865W        W33528  28.504  12.777   0.261
71866W        W33529  15.644  16.644   4.735
71867W        W33530  39.531  25.053  11.559
71868W        W33531   0.295   0.426  12.034
71869W        W33532  39.042  15.778  10.933
71870W        W33533  42.984  28.144  14.975
71871W        W33534  29.120  14.115  10.597
71872W        W33535  36.011  29.636  11.060
71873W        W33536  13.620  18.607   0.251
71874W        W33537   1.880  31.539  11.896
71875W        W33538  12.612  41.827   2.307
71876W        W33539  33.991  30.554   1.724
71877W        W33540  21.144  21.237   4.676
71878W        W33541  27.033  39.031   3.198
71879W        W33542  18.772   0.391  10.082
71880W        W33543  37.050  40.356   3.268
71881W        W33544  39.339  39.046  10.046
71882W        W33545  15.293  27.578   2.828
71883W        W33546  42.888   2.335   4.706
71884W        W33547  34.428  14.808  13.894
71885W        W33548  26.959   4.291   2.801
71886W        W33549  22.084  29.012  13.015
71887W        W33550  36.380  25.503  11.070
71888W        W33551  14.322   3.434   4.649
71889W        W33552  29.994  28.097   3.644
71890W        W33553  42.349  32.066  14.459
71891W        W33554   6.706  33.126   3.200
71892W        W33555   1.244  37.437   4.770
71893W        W33556   5.245  14.180   1.415
71894W        W33557   7.832  30.129   3.205
71895W        W33558  16.209  18.669   3.266
71896W        W33559   6.193  42.984   5.304
71897W        W33560  26.181   6.698   1.268
71898W        W33561   8.858   8.299   0.855
71899W        W33562  25.169  25.150   1.750
71900W        W33563  18.604  42.806   4.783
71901W        W33564  15.718  33.121  10.117
71902W        W33565   5.324  43.438  11.454
71903W        W33566  20.060   4.278   4.786
71904W        W33567  11.270  23.602  11.011
71905W        W33568  36.901   6.246   0.323
71906W        W33569  39.844  41.408  12.841
71907W        W33570  38.844  18.618   0.818
71908W        W33571  12.786  14.700   2.221
71909W        W33572  33.441  16.242  14.413
71910W        W33573  20.181  16.156   0.745
71911W        W33574  42.806   5.404   5.220
71912W        W33575  13.229  27.066   0.760
71913W        W33576  17.663  35.856  12.453
71914W        W33577  15.103  31.018   2.735
71915W        W33578  31.035   3.323   0.897
71916W        W33579   4.397  19.742  13.826
71917W        W33580  18.161  39.938  13.826
71918W        W33581  43.296  33.444   0.458
71919W        W33582  39.946  29.658   0.738
71920W        W33583   0.796  39.458   3.799
71921W        W33584  31.484  43.953  14.005
71922W        W33585   0.795  38.437  13.528
71923W        W33586   0.788  14.692   0.410
71924W        W33587  23.993   1.899   9.579
71925W        W33588  22.687  22.665   0.857
71926W        W33589  41.905  16.573  12.531
71927W        W33590   2.745  11.340   0.443
71928W        W33591  16.727  29.008   1.838
71929W        W33592  13.657  44.863   1.341
71930W        W33593   7.309   3.355  13.852
71931W        W33594   2.937  26.657   0.791
71932W        W33595  40.454  22.720  13.537
71933W        W33596  21.558   1.886  12.896
71934W        W33597  30.621  35.103  12.480
71935W        W33598  19.168  10.329  13.834
71936W        W33599   5.334  30.604  13.818
71937W        W33600  38.484  14.791   0.746
71938W        W33601  19.072  22.588   4.642
71939W        W33602  37.422  27.557   2.219
71940W        W33603  22.572  34.017  11.035
71941W        W33604  20.185   7.189  13.308
71942W        W33605  34.896  23.627   1.845
71943W        W33606  10.741  11.825   0.314
71944W        W33607  22.643  41.797   1.384
71945W        W33608  28.659  20.678  14.492
71946W        W33609  37.450  27.664   3.763
71947W        W33610  12.827  37.845   2.413
71948W        W33611  19.651  31.943   3.232
71949W        W33612   9.705  25.614   0.881
71950W        W33613   7.852   3.423  14.851
71951W        W33614  29.981  38.957   3.848
71952W        W33615   4.212  12.358   1.717
71953W        W33616  30.440  16.685  14.277
71954W        W33617  39.992   0.492   3.743
71955W        W33618   2.826  38.074   1.879
71956W        W33619  26.022  11.676  14.861
71957W        W33620  25.111  11.737  14.997
71958W        W33621  28.180  42.927  11.463
71959W        W33622  12.772  27.047   2.686
71960W        W33623  15.587   0.291  14.801
71961W        W33624  21.221  30.625  13.361
71962W        W33625  36.536   1.389  11.527
71963W        W33626  28.164   7.706   2.742
71964W        W33627  42.008  34.532  11.097
71965W        W33628  35.039  22.636   4.248
71966W        W33629  19.214  18.230  10.623
71967W        W33630  12.719  40.842  12.927
71968W        W33631  13.285   7.760   0.261
71969W        W33632  21.605  19.662  11.457
71970W        W33633   4.870  12.753  10.018
71971W        W33634  37.491   7.380   2.418
71972W        W33635   4.792  19.683   2.755
71973W        W33636   4.929  44.355   3.265
71974W        W33637  23.144   6.400  11.002
71975W        W33638  31.477  25.136  13.401
71976W        W33639  24.577   8.309   3.671
71977W        W33640  16.240  19.241  13.479
71978W        W33641   4.224   1.778  10.457
71979W        W33642  14.110  19.262  11.929
71980W        W33643  33.913  44.756   0.360
71981W        W33644   7.241  18.601   1.745
71982W        W33645  21.561  32.426   3.706
71983W        W33646  10.157   0.423  14.824
71984W        W33647  44.980  22.717  12.093
71985W        W33648  22.058  12.343   0.867
71986W        W33649  15.141   3.266   1.812
71987W        W33650  32.518  17.257  12.415
71988W        W33651  17.079  39.347  10.456
71989W        W33652  42.325  13.237  12.077
71990W        W33653   7.219  24.552  12.399
71991W        W33654  24.543  35.478  12.522
71992W        W33655  41.029  28.609  14.431
71993W        W33656   2.834  15.765  14.409
71994W        W33657   6.408  12.302   4.290
71995W        W33658  41.474  35.890   4.696
71996W        W33659  24.514  13.710   3.355
71997W        W33660  32.510  14.805   3.340
71998W        W33661   7.393   5.905   2.896
71999W        W33662  18.775  29.069   3.224
72000W        W33663  19.583  22.248   4.128
72001W        W33664  43.299  12.731   5.290
72002W        W33665  41.039  11.274   0.755
72003W        W33666  22.174  12.168   2.217
72004W        W33667  33.593   9.386   3.637
72005W        W33668   6.869  38.491   4.239
72006W        W33669  19.130   3.876   2.347
72007W        W33670  33.580  25.557  14.414
72008W        W33671   6.310  12.769  12.038
72009W        W33672  41.500   0.926  14.953
72010W        W33673  28.603  42.417   0.422
72011W        W33674   9.270  38.956  14.364
72012W        W33675  13.240   1.248   4.217
72013W        W33676  18.702  30.487  13.372
72014W        W33677   9.766  23.215  11.941
72015W        W33678   8.869  42.806   9.923
72016W        W33679  24.983  13.709  10.899
72017W        W33680  16.122  32.422  11.397
72018W        W33681  13.712  12.339  12.937
72019W        W33682   0.901  29.015   2.230
72020W        W33683   2.848  10.192  14.491
72021W        W33684  38.411  10.788   0.937
72022W        W33685   2.275  27.131   1.213
72023W        W33686  11.857   6.776  14.803
72024W        W33687  37.875  27.037   3.190
72025W        W33688  20.641   6.248   0.957
72026W        W33689   8.807  37.065   1.242
72027W        W33690  20.709  23.154  14.338
72028W        W33691  16.775  44.775  14.839
72029W        W33692  16.797  34.468  11.378
72030W        W33693  43.781   7.756  14.985
72031W        W33694  27.096  17.722   2.894
72032W        W33695  29.977  40.941   3.378
72033W        W33696   5.404  18.713   4.355
72034W        W33697  34.088   3.419  14.780
72035W        W33698   6.184  41.485   2.753
72036W        W33699  14.202  13.166   3.237
72037W        W33700  40.885  39.898   3.311
72038W        W33701  22.139   2.355  11.452
72039W        W33702  35.100  40.454   2.891
72040W        W33703  42.925  24.565   4.636
72041W        W33704  12.767   0.815   2.780
72042W        W33705  25.185   8.730   5.301
72043W        W33706  43.965   3.751  11.005
72044W        W33707  32.550  17.206  13.016
72045W        W33708   2.923  14.782   2.690
72046W        W33709  32.434   7.716  10.494
72047W        W33710  20.217  14.216   2.696
72048W        W33711  36.440  21.600   4.316
72049W        W33712  17.581  22.166   4.600
72050W        W33713  39.022   0.408  12.492
72051W        W33714  21.655  38.493  13.527
72052W        W33715  30.070  13.713  13.500
72053W        W33716   2.930  20.709   0.854
72054W        W33717  36.017  44.977  10.916
72055W        W33718  20.213   2.793   5.653
72056W        W33719  27.066  42.780  10.617
72057W        W33720   5.915  42.908  13.935
72058W        W33721  37.544   3.279  12.473
72059W        W33722  20.257   3.387  11.003
72060W        W33723   7.707  42.800   0.300
72061W        W33724   2.754  15.161   1.900
72062W        W33725  29.054  30.030  14.878
72063W        W33726   8.348  27.460  12.364
72064W        W33727   2.898  34.868   1.391
72065W        W33728  12.857  23.540  10.944
72066W        W33729  20.148   1.855   1.252
72067W        W33730  11.662  42.890  13.914
72068W        W33731  41.018  34.950  13.433
72069W        W33732  35.469   9.704   4.767
72070W        W33733  37.985   9.825   1.918
72071W        W33734  35.910   9.179  14.831
72072W        W33735  28.166  17.149   4.793
72073W        W33736  39.024  40.523   4.268
72074W        W33737  42.881  33.939  11.871
72075W        W33738  14.713  11.769   3.173
72076W        W33739  13.350  12.266  10.924
72077W        W33740  37.984   7.292   1.815
72078W        W33741  26.681  15.186   0.745
72079W        W33742   8.246  37.381   3.830
72080W        W33743  24.674  20.187  12.855
72081W        W33744  22.560  29.964   0.761
72082W        W33745  11.204  22.129   1.264
72083W        W33746  24.627  26.509  11.455
72084W        W33747   0.897  25.054  12.054
72085W        W33748  26.134  19.074   0.886
72086W        W33749   5.858  33.613   3.347
72087W        W33750   9.808  34.096  13.404
72088W        W33751   8.230  37.490   2.722
72089W        W33752  12.815  32.089  13.536
72090W        W33753  42.969  31.515   2.887
72091W        W33754  16.124  12.262   3.353
72092W        W33755  30.533  19.212   1.412
72093W        W33756  35.087  26.117  13.460
72094W        W33757  28.446  35.853  11.539
72095W        W33758  33.548  24.488  12.876
72096W        W33759  28.148  30.134   3.736
72097W        W33760   4.401  31.561  14.835
72098W        W33761  39.835   1.367   1.736
72099W        W33762  28.563  16.241   4.340
72100W        W33763  16.797  29.103   3.643
72101W        W33764  44.278  24.511   4.259
72102W        W33765  24.714   2.324  12.388
72103W        W33766   2.843  41.344   2.845
72104W        W33767  23.997  28.124  13.875
72105W        W33768  43.502  36.940  10.573
72106W        W33769  34.413   7.889   0.899
72107W        W33770   6.714   2.405  14.030
72108W        W33771   2.866  22.513  13.025
72109W        W33772  16.695  30.659   1.808
72110W        W33773   5.710  18.060  12.079
72111W        W33774  11.851  15.805  13.456
72112W        W33775   1.297   5.716   4.789
72113W        W33776   3.346  41.896   4.736
72114W        W33777  15.592  36.533  12.077
72115W        W33778  44.961   5.275   2.765
72116W        W33779   7.836  39.486   3.815
72117W        W33780  38.533  30.573  11.128
72118W        W33781  19.539  18.586   2.225
72119W        W33782  42.020  34.937  10.503
72120W        W33783  27.481  38.461  13.381
72121W        W33784   5.369  37.527   2.237
72122W        W33785  34.909  20.226   2.783
72123W        W33786  22.589  34.528   2.253
72124W        W33787  31.950  25.017  14.019
72125W        W33788  28.011  10.742  11.384
72126W        W33789  25.710  27.664   4.671
72127W        W33790  22.093  24.621   3.386
72128W        W33791  40.509  42.826   3.282
72129W        W33792   8.823  41.935  12.952
72130W        W33793   3.833  28.120  14.331
72131W        W33794  35.051   7.694  11.603
72132W        W33795   4.857  24.079   3.668
72133W        W33796  37.032  14.251   1.374
72134W        W33797  22.165  10.237   0.389
72135W        W33798  36.351  37.393   1.767
72136W        W33799  28.664  34.105  12.088
72137W        W33800   5.383  31.977  11.063
72138W        W33801  20.708  14.206  14.434
72139W        W33802  13.321  40.985  11.612
72140W        W33803  27.677  13.208   2.195
72141W        W33804  22.069  42.008  14.793
72142W        W33805   4.333  34.909   0.460
72143W        W33806  39.839   3.348  13.506
72144W        W33807  38.423  31.106   4.228
72145W        W33808  36.397  36.426  14.503
72146W        W33809  16.671  22.121   2.683
72147W        W33810  43.398  30.165  11.439
72148W        W33811   9.372   8.842  10.430
72149W        W33812  33.898   1.475  13.929
72150W        W33813  12.728  11.803   0.867
72151W        W33814  25.051  10.182  10.575
72152W        W33815  44.433  15.662  10.544
72153W        W33816  39.047  41.038   2.669
72154W        W33817   6.323  16.681  10.948
72155W        W33818   3.311  32.094  13.392
72156W        W33819  23.103  44.793   3.690
72157W        W33820   6.794  42.992   2.743
72158W        W33821  17.162  34.588  11.534
72159W        W33822  35.589  44.349   3.167
72160W        W33823   0.300  11.714  12.387
72161W        W33824  37.575  42.944  13.307
72162W        W33825  44.472  44.286   1.385
72163W        W33826  35.485  27.981  14.863
72164W        W33827  17.623  10.737  14.877
72165W        W33828  21.055  36.992   0.920
72166W        W33829  30.995  28.960  13.382
72167W        W33830  24.535   5.918   2.841
72168W        W33831   4.346  32.094  10.551
72169W        W33832  37.557  34.604   1.849
72170W        W33833  26.514  23.179  10.997
72171W        W33834   2.459  32.493   2.824
72172W        W33835  11.187  22.115   2.248
72173W        W33836  34.902  34.378  11.959
72174W        W33837  38.826  42.971  14.347
72175W        W33838  15.770  37.387  13.048
72176W        W33839  19.675  16.109  13.841
72177W        W33840  32.594  35.981   0.276
72178W        W33841   5.799  44.406   1.318
72179W        W33842  27.489  43.814   1.372
72180W        W33843  21.747  36.431  11.050
72181W        W33844  21.642  13.846   0.285
72182W        W33845  43.914  24.082   1.237
72183W        W33846  42.965   1.326  14.903
72184W        W33847  19.662  28.994  13.415
72185W        W33848  10.307  43.968   1.882
72186W        W33849   4.291  10.321   1.842
72187W        W33850   8.855  22.094   4.780
72188W        W33851  39.407  43.838   4.327
72189W        W33852  42.326  25.690   2.708
72190W        W33853  18.139  26.964  10.429
72191W        W33854  23.068  13.801  13.891
72192W        W33855  38.835  44.814  13.345
72193W        W33856  28.567  27.591   3.788
72194W        W33857  40.944  24.622   3.827
72195W        W33858  29.508  23.209   4.664
72196W        W33859  31.117  38.875  11.524
72197W        W33860  36.467  35.894   5.189
72198W        W33861  10.282   7.775   2.263
72199W        W33862  19.614   2.302   3.280
72200W        W33863  38.489  12.825  11.029
72201W        W33864  21.122  15.287   1.861
72202W        W33865  27.083  32.087  12.387
72203W        W33866  31.052   4.349   2.841
72204W        W33867   6.735  15.296  10.563
72205W        W33868  30.020  19.644  13.422
72206W        W33869   4.829  12.711   1.347
72207W        W33870   4.926   9.668   3.251
72208W        W33871   1.843  22.029   0.407
72209W        W33872  24.590  23.025   4.806
72210W        W33873   4.287  28.165  13.942
72211W        W33874  26.584  34.560  11.090
72212W        W33875  38.567  29.515   2.313
72213W        W33876   9.800  13.109  10.887
72214W        W33877   3.801  26.965   3.636
72215W        W33878  28.965  29.606   2.698
72216W        W33879  22.505  25.497   1.297
72217W        W33880  41.998   0.922  11.050
72218W        W33881   3.893  25.661  13.338
72219W        W33882  17.589  17.600  13.501
72220W        W33883  18.776  33.461   4.141
72221W        W33884  31.058   4.442   4.761
72222W        W33885   2.937  24.146  14.892
72223W        W33886  34.951   1.447   4.695
72224W        W33887  44.339  14.790  10.055
72225W        W33888   9.755  12.218  12.348
72226W        W33889   2.760  42.854  12.475
72227W        W33890  16.619  34.863   9.947
72228W        W33891  16.167  28.531   3.360
72229W        W33892  29.979  41.452   3.711
72230W        W33893  36.362  35.969   0.960
72231W        W33894  20.695  17.798  11.106
72232W        W33895  11.769   3.399   1.420
72233W        W33896  33.606  28.983   3.343
72234W        W33897  15.264  31.010   0.814
72235W        W33898   2.249  42.852  14.383
72236W        W33899   6.208  20.274  13.967
72237W        W33900   3.338  11.817   4.825
72238W        W33901  32.061  12.300  14.915
72239W        W33902  10.265  34.536   9.975
72240W        W33903  17.748  42.852   0.808
72241W        W33904  37.997  21.575   3.148
72242W        W33905  35.879  36.360   4.782
72243W        W33906  38.998  15.809  14.827
72244W        W33907  20.711  16.642  13.865
72245W        W33908  22.180   6.406   3.815
72246W        W33909  44.365  12.706  10.454
72247W        W33910  32.041  42.452  13.538
72248W        W33911  12.622  34.435  10.585
72249W        W33912  21.625  40.461  12.394
72250W        W33913  33.588  40.390   3.784
72251W        W33914  17.249  33.039  12.492
72252W        W33915  44.437  20.731  14.279
72253W        W33916  23.009  23.118   4.833
72254W        W33917  30.572   8.185  12.555
72255W        W33918   5.363  44.991   2.320
72256W        W33919  32.981  10.330  10.548
72257W        W33920  37.550  21.517  10.908
72258W        W33921   0.253   7.205   5.115
72259W        W33922  29.442  38.470   2.229
72260W        W33923  14.803  22.582   0.292
72261W        W33924  27.475  22.596  11.081
72262W        W33925  36.961  23.658  12.090
72263W        W33926   2.341   9.294  10.470
72264W        W33927  17.767  34.439   4.784
72265W        W33928  44.284  15.667   2.230
72266W        W33929  34.442  11.828   0.372
72267W        W33930  24.071  22.190   4.769
72268W        W33931  10.283   9.269  14.301
72269W        W33932  23.490  13.349   0.836
72270W        W33933  32.988  37.974  12.558
72271W        W33934  16.606  12.156   3.325
72272W        W33935  22.135  11.683   2.794
72273W        W33936  12.821  21.040  14.348
72274W        W33937   4.844  39.495  14.016
72275W        W33938   0.787  13.131  10.125
72276W        W33939  22.105  10.678   4.711
72277W        W33940  33.057  10.242  11.563
72278W        W33941   3.920  31.004   4.220
72279W        W33942  39.932  34.001  13.022
72280W        W33943  24.150  21.725  14.275
72281W        W33944  43.297  26.535   9.932
72282W        W33945  26.026   5.401   9.944
72283W        W33946  22.568  13.819   0.956
72284W        W33947   2.966  37.471  14.934
72285W        W33948  15.313  31.047   3.669
72286W        W33949  28.438  16.250   1.932
72287W        W33950  27.061  36.918  12.856
72288W        W33951  17.663  31.452   0.259
72289W        W33952  36.930   3.373  14.314
72290W        W33953  33.543  35.063   3.735
72291W        W33954  21.187  30.017   3.385
72292W        W33955  42.507  14.108   0.936
72293W        W33956  29.669   4.824  14.775
72294W        W33957  42.781  17.233  12.907
72295W        W33958  35.379   9.216  13.317
72296W        W33959  18.585  35.514   0.260
72297W        W33960  32.105  11.170  10.505
72298W        W33961  28.140   4.389   3.181
72299W        W33962  36.519  28.607  13.399
72300W        W33963  23.116  24.130  10.408
72301W        W33964  24.670   7.336   3.722
72302W        W33965  32.969   7.248  14.846
72303W        W33966  12.281  12.143   3.378
72304W        W33967  37.023  15.823   0.419
72305W        W33968   8.315   2.433   2.306
72306W        W33969  39.492  33.036   0.821
72307W        W33970  43.935  43.850   4.693
72308W        W33971  43.002  39.443   0.409
72309W        W33972  41.496  24.568   2.360
72310W        W33973  43.805  20.152  14.807
72311W        W33974  30.104  27.069   1.870
72312W        W33975  12.756  15.715  13.898
72313W        W33976  36.518  36.020   2.195
72314W        W33977   9.226  21.631  11.983
72315W        W33978  24.656   1.877   1.243
72316W        W33979  31.482  24.991   3.251
72317W        W33980  28.450  41.929   1.422
72318W        W33981  27.544  25.163   5.255
72319W        W33982  31.615   1.877   0.372
72320W        W33983   2.892   9.761  10.407
72321W        W33984  38.465  17.716   1.895
72322W        W33985  44.772  33.088   1.216
72323W        W33986   4.753  41.807   0.340
72324W        W33987  40.991  23.107  11.899
72325W        W33988  35.947  21.695   1.810
72326W        W33989  20.264   5.322   9.521
72327W        W33990  11.692  26.997   0.484
72328W        W33991  18.768   3.374  14.777
72329W        W33992  35.562  40.825   0.874
72330W        W33993  33.547  32.065   9.969
72331W        W33994   4.369   1.961   2.233
72332W        W33995  11.157   6.757   0.334
72333W        W33996   3.226  29.443   3.667
72334W        W33997  20.169  39.326  12.937
72335W        W33998   5.873  42.379   3.212
72336W        W33999  25.196  16.733   4.173
72337W        W34000  12.350  22.051  12.016
72338W        W34001   2.448  25.612  14.823
72339W        W34002  29.162  39.340   4.259
72340W        W34003  10.322  42.346  14.288
72341W        W34004  35.905  25.202   1.304
72342W        W34005  31.625  41.022   2.188
72343W        W34006   3.784  33.033   2.883
72344W        W34007  39.018   0.259   2.268
72345W        W34008  28.933  22.008  12.533
72346W        W34009  21.723   2.880  13.849
72347W        W34010  35.460  32.135  13.995
72348W        W34011  21.192  31.123  11.887
72349W        W34012  21.714  24.147   3.662
72350W        W34013  29.588  21.566   1.821
72351W        W34014   2.913  38.380   3.275
72352W        W34015   3.288  41.972  13.406
72353W        W34016   9.193  31.983  13.430
72354W        W34017  12.159  17.574   4.794
72355W        W34018  19.636  14.169   1.330
72356W        W34019  22.719  14.793  12.452
72357W        W34020  29.426  16.133   4.351
72358W        W34021  39.404  32.958  13.329
72359W        W34022   0.391  38.350  10.480
72360W        W34023  25.485  32.004  11.991
72361W        W34024  28.456  42.964  12.383
72362W        W34025   1.303   9.246  13.540
72363W        W34026   1.926  36.367  11.463
72364W        W34027  42.954  41.859  11.606
72365W        W34028  38.551  39.867   3.766
72366W        W34029  13.748   6.301   3.791
72367W        W34030  26.048  44.404  11.551
72368W        W34031  32.111  22.193   1.396
72369W        W34032   6.236   2.372   4.625
72370W        W34033   5.398  40.531  12.968
72371W        W34034   6.773  13.301  12.900
72372W        W34035   1.864  39.353   0.472
72373W        W34036   7.901  25.982  14.972
72374W        W34037  17.154  13.759   4.130
72375W        W34038  18.735   6.243  11.440
72376W        W34039  27.100  43.446  10.129
72377W        W34040  39.531  24.496   2.766
72378W        W34041  38.942   1.324   1.313
72379W        W34042  38.559  44.761   0.923
72380W        W34043  23.210  29.569   4.161
72381W        W34044  20.655  32.016   4.740
72382W        W34045  44.837  33.417   2.245
72383W        W34046   2.413  15.731   2.408
72384W        W34047  16.092   7.227   1.249
72385W        W34048  13.113  29.166   4.639
72386W        W34049  25.498  30.127   1.932
72387W        W34050  17.607   5.264   1.788
72388W        W34051   7.825  11.694  11.938
72389W        W34052   0.925   0.943  13.488
72390W        W34053  41.819  24.010   3.320
72391W        W34054  16.215  40.539  12.495
72392W        W34055  11.837   3.943  12.897
72393W        W34056  10.147  15.653  10.945
72394W        W34057   5.349  23.990  12.347
72395W        W34058   2.380  12.736  12.488
72396W        W34059  32.622  15.206  10.491
72397W        W34060  43.430  36.455  11.025
72398W        W34061   6.311  11.243   4.675
72399W        W34062   8.724  15.760   4.776
72400W        W34063  24.539  26.085  11.123
72401W        W34064  28.055  20.253   0.781
72402W        W34065  14.170   6.713  11.390
72403W        W34066  35.879   1.871  11.386
72404W        W34067  19.638  29.065   4.154
72405W        W34068  38.547  40.399   3.253
72406W        W34069  30.440  33.446  14.460
72407W        W34070   9.868  43.011  14.478
72408W        W34071  18.663  33.519  12.010
72409W        W34072  23.588  44.902  10.498
72410W        W34073  22.183  15.805  10.472
72411W        W34074  37.573   6.781   3.385
72412W        W34075  23.567   6.324   4.297
72413W        W34076  44.283   0.910  12.472
72414W        W34077   9.770  13.819   2.708
72415W        W34078  21.125  21.089  13.971
72416W        W34079   5.278   0.469  14.862
72417W        W34080  27.157  35.459  13.856
72418W        W34081  12.137   5.285  13.819
72419W        W34082   6.820  24.514  14.443
72420W        W34083   4.256  16.591   4.337
72421W        W34084  42.898  39.527   3.178
72422W        W34085  10.865  34.453   4.803
72423W        W34086  15.626  13.824   2.817
72424W        W34087   7.349   7.891   0.458
72425W        W34088  44.962  24.717  10.498
72426W        W34089  36.438  31.126   1.769
72427W        W34090  37.865  24.663  11.080
72428W        W34091  22.112  36.474  13.509
72429W        W34092  14.787  32.132   3.300
72430W        W34093  34.106  19.696   2.378
72431W        W34094   1.254  27.183   0.369
72432W        W34095  27.475  20.082  10.952
72433W        W34096   9.874  23.084   4.293
72434W        W34097  30.436  38.006   2.768
72435W        W34098  30.130  34.052   4.292
72436W        W34099   4.737  21.044  10.462
72437W        W34100  11.210  11.141  14.779
72438W        W34101  34.014  39.414   1.866
72439W        W34102  13.134  38.029   3.839
72440W        W34103  34.436   3.410  11.443
72441W        W34104  10.371  24.057   3.268
72442W        W34105  21.667   1.259   2.204
72443W        W34106   9.277  14.154  10.430
72444W        W34107  13.125  34.994  11.453
72445W        W34108  23.553  11.176  13.513
72446W        W34109  39.370  24.086   4.794
72447W        W34110  20.042  20.574  12.467
72448W        W34111   9.655  12.732  12.840
72449W        W34112  25.061  16.568   2.867
72450W        W34113  37.061  41.917  13.453
72451W        W34114   8.847  21.522  14.763
72452W        W34115  32.070  31.446  14.901
72453W        W34116  29.547  31.909   5.285
72454W        W34117  11.336   9.777   4.607
72455W        W34118  20.063   7.336  12.423
72456W        W34119  25.068  14.256   0.345
72457W        W34120  35.006   1.819   4.225
72458W        W34121   8.714  38.975   4.728
72459W        W34122  33.593   3.771  14.405
72460W        W34123  15.661  12.305  13.004
72461W        W34124  32.915  18.693  14.374
72462W        W34125   3.240  35.078  11.896
72463W        W34126  26.169  27.632  11.505
72464W        W34127   8.725  28.084   3.365
72465W        W34128  16.767  25.472  11.095
72466W        W34129   1.781  37.581  14.461
72467W        W34130  40.458  30.039   2.675
72468W        W34131  19.145  22.058  11.569
72469W        W34132  42.829  28.939  11.526
72470W        W34133   8.888  42.488  13.344
72471W        W34134   3.900   4.392  13.984
72472W        W34135  18.774   2.450   2.245
72473W        W34136  23.724  21.749  12.093
72474W        W34137  15.094  23.159  11.064
72475W        W34138   1.919  31.975   3.156
72476W        W34139  20.120   9.308   1.294
72477W        W34140   1.373  44.793   2.372
72478W        W34141  10.322   2.899   0.757
72479W        W34142  17.239  29.072  13.915
72480W        W34143  29.993  12.809   0.308
72481W        W34144  28.111  16.725  12.542
72482W        W34145  18.644  29.533  14.979
72483W        W34146  37.034  37.405  13.911
72484W        W34147  33.979  34.478   1.717
72485W        W34148  36.892   8.200   4.145
72486W        W34149  28.171   0.909   2.233
72487W        W34150  28.524  18.065   1.793
72488W        W34151  27.184  11.701  14.774
72489W        W34152  39.847   1.326  12.563
72490W        W34153  17.261   9.715   4.296
72491W        W34154  31.577  16.195  12.914
72492W        W34155  14.164  24.110   4.256
72493W        W34156  25.142  16.667  10.581
72494W        W34157  16.763  28.102   2.683
72495W        W34158  15.305  25.167   3.645
72496W        W34159  21.249   7.878   4.708
72497W        W34160  30.079  44.478  11.590
72498W        W34161  19.656  31.616   0.266
72499W        W34162   5.799  24.112  14.871
72500W        W34163  42.922   8.707   2.894
72501W        W34164  17.598  22.133  13.948
72502W        W34165   7.872   7.371  13.444
72503W        W34166   6.907  44.355   2.307
72504W        W34167  21.111   3.286  14.317
72505W        W34168  43.310  30.102   3.334
72506W        W34169  20.141  19.049  13.862
72507W        W34170  21.555  27.099   1.288
72508W        W34171  36.369  17.238  14.024
72509W        W34172   2.743   2.352   1.724
72510W        W34173   0.490  42.837  11.468
72511W        W34174  24.532  11.206  14.940
72512W        W34175  43.963  28.948  13.473
72513W        W34176  15.094  31.461  12.890
72514W        W34177  29.487   9.782  13.318
72515W        W34178  37.066  27.989  13.530
72516W        W34179  19.144  19.210  10.567
72517W        W34180  11.646  32.967  10.404
72518W        W34181  15.731  37.025   0.397
72519W        W34182  15.735  27.576   4.597
72520W        W34183  35.406  22.118   0.840
72521W        W34184  30.022   2.953  13.515
72522W        W34185  26.508  23.009   3.321
72523W        W34186  41.887  17.200  13.443
72524W        W34187  10.756  40.537  11.398
72525W        W34188  27.186   7.739   2.867
72526W        W34189  30.614  41.926   0.965
72527W        W34190  13.333  26.157  12.399
72528W        W34191  37.413  42.841  11.519
72529W        W34192  21.539  41.406  14.372
72530W        W34193  24.201  22.081  12.354
72531W        W34194   2.374   2.871  13.456
72532W        W34195  15.183  26.201   1.731
72533W        W34196  17.574  12.349  11.017
72534W        W34197  30.559  21.514   2.819
72535W        W34198  32.505  18.158   0.387
72536W        W34199  20.139  40.311   3.664
72537W        W34200  14.251  32.972  13.865
72538W        W34201  33.580   8.391   5.297
72539W        W34202  44.467   7.305   9.655
72540W        W34203  40.345   8.878  11.465
72541W        W34204  10.678  23.224  13.536
72542W        W34205  18.197   1.814  13.490
72543W        W34206  37.962  31.580   4.243
72544W        W34207  39.880  40.379   4.262
72545W        W34208  19.733  26.128  10.929
72546W        W34209  14.325   7.682  11.456
72547W        W34210  23.172   0.859   1.412
72548W        W34211  44.341  12.733  13.391
72549W        W34212   1.779   1.809   1.403
72550W        W34213  40.457   3.764   1.240
72551W        W34214  24.010  32.475  14.992
72552W        W34215   2.412  36.550   1.348
72553W        W34216  42.478  27.121  13.811
72554W        W34217   6.407   4.786  12.577
72555W        W34218  44.277  21.081  14.871
72556W        W34219  32.529   5.388   2.410
72557W        W34220   0.397  37.031  13.857
72558W        W34221  34.092  35.572  13.366
72559W        W34222  19.072  37.529   0.284
72560W        W34223   3.946  25.071  14.858
72561W        W34224  42.918  42.362  12.543
72562W        W34225  30.975   4.253  11.107
72563W        W34226  43.858  34.506  14.503
72564W        W34227  18.772   9.689  12.071
72565W        W34228   4.271   3.226   4.715
72566W        W34229  40.383  17.229  13.481
72567W        W34230   6.409   5.426   4.680
72568W        W34231  44.861   3.218  11.372
72569W        W34232  28.116   2.283  11.392
72570W        W34233  23.162  26.169   1.233
72571W        W34234  39.919  36.512  14.282
72572W        W34235  33.509  11.678   4.259
72573W        W34236   0.260  17.569  12.533
72574W        W34237  30.047  11.833  12.855
72575W        W34238  19.686  22.213   0.352
72576W        W34239  24.553  23.989  13.963
72577W        W34240  37.505  28.564   2.773
72578W        W34241  34.926  35.860   2.201
72579W        W34242  13.278  44.921   3.737
72580W        W34243  33.510   9.779  11.609
72581W        W34244  12.176  31.494  13.377
72582W        W34245   0.882   7.289   1.417
72583W        W34246  29.102  34.608  14.426
72584W        W34247  34.536  21.115  12.034
72585W        W34248  37.877  38.551  10.630
72586W        W34249  31.981  22.038  14.321
72587W        W34250  21.582  16.249   1.396
72588W        W34251  26.463  28.579   2.825
72589W        W34252  41.805   2.770  10.606
72590W        W34253  40.828  21.636  14.332
72591W        W34254  18.293  33.069  12.417
72592W        W34255  37.070  29.670   3.201
72593W        W34256  13.278  30.051   1.858
72594W        W34257  35.466   2.307  11.103
72595W        W34258  14.613  27.003   3.293
72596W        W34259  17.783  39.552   2.189
72597W        W34260  35.105  35.960  14.842
72598W        W34261   7.370  17.298  12.945
72599W        W34262  30.065   0.829  12.507
72600W        W34263  25.138   9.822  13.494
72601W        W34264  40.545  12.795  10.463
72602W        W34265  40.823   9.259   4.133
72603W        W34266  39.392   0.268  14.420
72604W        W34267  16.166  17.752  13.925
72605W        W34268  36.014  12.668  12.353
72606W        W34269  14.821  16.613  13.026
72607W        W34270  15.644  18.095  11.123
72608W        W34271  21.601  24.193   9.677
72609W        W34272  30.096  25.013   4.607
72610W        W34273  11.749  21.743  11.985
72611W        W34274  27.174  44.005  12.877
72612W        W34275  29.667  15.321   4.748
72613W        W34276  14.321  39.407  12.085
72614W        W34277  22.677   9.835  13.369
72615W        W34278  36.058  40.349   2.756
72616W        W34279  25.065  12.763  12.414
72617W        W34280  23.514  42.410   4.179
72618W        W34281  33.956   0.371  14.378
72619W        W34282  35.981  24.112   4.676
72620W        W34283  13.149  42.515   0.728
72621W        W34284  35.042  12.209  13.983
72622W        W34285   7.309   7.820   1.214
72623W        W34286  10.783  33.977  14.775
72624W        W34287  30.145  43.781   0.246
72625W        W34288  27.488  10.275   1.911
72626W        W34289   7.796  31.536   3.376
72627W        W34290  27.457  24.009   0.818
72628W        W34291  14.257  33.072  12.945
72629W        W34292  23.510  43.825   2.259
72630W        W34293  32.131   9.861   1.330
72631W        W34294  13.748  21.594   0.835
72632W        W34295  11.249  18.170  12.064
72633W        W34296  26.050  20.703  10.891
72634W        W34297  22.125  21.622  14.275
72635W        W34298  30.543   1.369  14.427
72636W        W34299  27.091  34.943   1.350
72637W        W34300  20.593  11.639   4.787
72638W        W34301  10.381   9.728  14.340
72639W        W34302   4.389  26.178   4.790
72640W        W34303  35.034  42.414  12.457
72641W        W34304   2.292   5.280   4.123
72642W        W34305  21.155  42.902  12.478
72643W        W34306  16.631   1.298  10.956
72644W        W34307  36.486  14.190  10.434
72645W        W34308  34.515  15.697   4.218
72646W        W34309  30.955  42.918   1.836
72647W        W34310   4.394  21.609   0.479
72648W        W34311  27.024  40.430  12.474
72649W        W34312  31.573  30.949   1.731
72650W        W34313  14.227  39.518   4.276
72651W        W34314  24.034  28.625   4.319
72652W        W34315   6.767   9.391   4.172
72653W        W34316  10.761  39.013   0.926
72654W        W34317  24.061  37.539  13.897
72655W        W34318  37.545  45.000   4.206
72656W        W34319  42.503   0.772   1.880
72657W        W34320  28.577  24.651   0.879
72658W        W34321  28.980  19.627   2.902
72659W        W34322  26.110  32.487   2.711
72660W        W34323  42.371  26.146   0.249
72661W        W34324  41.947   3.909  13.433
72662W        W34325   9.294  29.518   9.939
72663W        W34326  27.689   8.238   1.391
72664W        W34327  18.270  22.034   4.234
72665W        W34328  35.379  34.005   1.803
72666W        W34329  36.883  13.842  12.851
72667W        W34330  22.543  40.339  11.061
72668W        W34331   3.367  26.151   0.853
72669W        W34332  31.929  26.685   3.310
72670W        W34333  13.623   3.344  10.605
72671W        W34334   3.747   6.678  10.491
72672W        W34335  26.599  35.933   1.751
72673W        W34336  22.695  21.220  10.985
72674W        W34337  30.540   2.319  12.087
72675W        W34338  35.513  39.485   4.805
72676W        W34339  15.609   2.913  11.959
72677W        W34340   6.344  12.153   2.230
72678W        W34341  42.420  42.356   0.914
72679W        W34342  19.196  22.725  11.411
72680W        W34343  18.732  16.302   5.675
72681W        W34344  27.674  30.535   0.844
72682W        W34345  44.986   7.731   2.714
72683W        W34346  30.005  27.690  11.949
72684W        W34347  22.204  12.670   2.664
72685W        W34348   6.914   8.747   1.415
72686W        W34349   4.732  32.070   1.714
72687W        W34350  24.143  13.207  12.381
72688W        W34351  17.222   4.393  13.513
72689W        W34352   2.812  14.653  10.962
72690W        W34353  39.409  13.829  13.843
72691W        W34354  11.865  31.616   4.798
72692W        W34355  13.199   2.434   2.332
72693W        W34356  14.637  15.669  13.006
72694W        W34357  37.336  21.141   2.203
72695W        W34358  30.040   6.822   4.135
72696W        W34359  44.870  25.491  11.560
72697W        W34360  25.098   4.864  11.505
72698W        W34361   2.949   8.307   3.762
72699W        W34362   5.688  26.956  13.949
72700W        W34363   5.221  28.161   4.630
72701W        W34364  38.358  29.454  13.538
72702W        W34365  41.952  27.621  11.382
72703W        W34366  27.637  32.983  13.444
72704W        W34367  27.123  29.113   1.763
72705W        W34368  12.821  35.916   4.747
72706W        W34369  22.564  15.774   0.967
72707W        W34370  21.598   1.828  11.371
72708W        W34371  30.651  28.449  14.842
72709W        W34372   6.348  27.642  10.967
72710W        W34373  39.975   7.846   1.266
72711W        W34374   1.753  36.858   4.225
72712W        W34375  41.912   5.347   3.230
72713W        W34376  10.195  30.078   4.131
72714W        W34377   6.269  16.310  10.528
72715W        W34378  18.601  34.863   2.897
72716W        W34379  12.128  29.992   2.353
72717W        W34380  37.912  19.043   2.867
72718W        W34381  39.378   8.265   0.409
72719W        W34382  22.183  40.356  11.481
72720W        W34383  12.641  34.935  12.396
72721W        W34384  31.905   0.920  13.329
72722W        W34385  44.852  11.357   2.347
72723W        W34386  22.671  24.011   2.684
72724W        W34387   9.196   8.328  14.514
72725W        W34388  27.456  27.163   3.632
72726W        W34389  41.488  26.980   4.715
72727W        W34390  42.813  38.332   0.849
72728W        W34391  12.726  35.528  11.894
72729W        W34392  44.267  31.035   2.266
72730W        W34393  23.713  23.198  10.514
72731W        W34394  36.984   1.844   3.196
72732W        W34395   0.828  37.451  12.907
72733W        W34396  19.059  39.996  10.545
72734W        W34397  36.082  26.121   0.902
72735W        W34398  40.901   6.406  14.830
72736W        W34399  42.973  29.428  14.426
72737W        W34400  18.612  42.504   4.837
72738W        W34401   3.727  30.581   2.416
72739W        W34402  38.994   3.429   3.344
72740W        W34403  26.493  37.496  10.628
72741W        W34404  24.991  26.000   0.382
72742W        W34405  22.167  28.554   4.618
72743W        W34406   2.949   9.689  11.604
72744W        W34407  17.099  27.523   2.209
72745W        W34408   3.224  27.110  14.441
72746W        W34409  43.430  24.589   3.309
72747W        W34410  29.165   6.274  13.872
72748W        W34411  32.496  25.090   0.911
72749W        W34412  21.670  41.380  13.995
72750W        W34413  38.366  21.652   1.410
72751W        W34414  40.420  33.462   0.370
72752W        W34415   0.424  43.822   3.688
72753W        W34416  29.508   5.783  13.987
72754W        W34417  32.021  40.843  13.833
72755W        W34418  30.116   2.894  12.991
72756W        W34419  18.665  40.466  12.493
72757W        W34420  43.339   5.720  12.952
72758W        W34421  33.123  20.706   0.782
72759W        W34422  14.651   6.737   4.769
72760W        W34423   2.728  24.157  12.490
72761W        W34424  23.221  36.501   2.319
72762W        W34425  11.860  28.589  13.056
72763W        W34426  40.960   5.430   1.426
72764W        W34427   1.872  31.914  11.554
72765W        W34428  30.515  22.234  13.379
72766W        W34429  21.597  20.105   4.693
72767W        W34430  13.687  22.249   3.745
72768W        W34431  42.491  21.544  12.553
72769W        W34432  31.984  19.249  11.557
72770W        W34433  43.880  33.490   2.696
72771W        W34434  14.615  28.079   4.237
72772W        W34435  26.501   2.419   4.354
72773W        W34436   6.837   9.716   0.436
72774W        W34437  20.573  18.084  12.827
72775W        W34438   7.304  15.717   1.807
72776W        W34439  26.114  42.942   4.310
72777W        W34440   6.415  37.553   2.745
72778W        W34441  28.093  22.594  13.808
72779W        W34442   6.755  26.083  11.909
72780W        W34443   6.187  39.909   3.150
72781W        W34444  14.673  20.030  11.003
72782W        W34445   3.261  40.976  14.016
72783W        W34446  17.133  44.265  11.492
72784W        W34447  22.155  15.217   0.368
72785W        W34448  16.242  28.063   9.920
72786W        W34449   5.719  28.653   1.860
72787W        W34450  11.795  36.086   2.849
72788W        W34451  30.526   7.356   4.643
72789W        W34452  17.230   2.285   0.414
72790W        W34453   6.427  25.133   0.944
72791W        W34454  26.153  39.815  14.358
72792W        W34455  23.697  16.597   4.718
72793W        W34456  16.657   0.321   3.783
72794W        W34457  41.802  44.426   2.853
72795W        W34458  18.618  20.661  13.407
72796W        W34459  40.439  13.833   0.371
72797W        W34460  10.384  37.885   3.214
72798W        W34461  36.400   4.803  10.523
72799W        W34462  14.753  20.554   2.895
72800W        W34463  29.542  23.688   3.843
72801W        W34464  32.134  15.641   0.868
72802W        W34465  38.517   6.285  13.928
72803W        W34466  15.731  27.672  14.910
72804W        W34467  42.999  40.878  14.306
72805W        W34468  35.462  23.601   1.250
72806W        W34469  10.646  43.831   0.912
72807W        W34470  18.681  20.677  11.958
72808W        W34471  10.235  26.195   4.132
72809W        W34472  14.698   1.400  11.879
72810W        W34473  26.652   6.902  11.045
72811W        W34474   3.305  42.286  14.764
72812W        W34475  20.690   9.221  14.973
72813W        W34476  32.048  22.207  11.110
72814W        W34477  28.995  19.086  14.329
72815W        W34478  25.657  34.595   4.694
72816W        W34479   9.731  16.696   4.133
72817W        W34480  14.626  14.763   1.252
72818W        W34481  36.361  33.967  13.347
72819W        W34482  20.667  31.644   3.775
72820W        W34483   2.266  26.697  14.954
72821W        W34484  34.909   6.882  14.977
72822W        W34485  25.488  38.914   9.633
72823W        W34486   2.280  35.431  12.528
72824W        W34487  31.902  20.578   2.722
72825W        W34488  35.546  17.686  12.441
72826W        W34489  22.073   0.898  14.859
72827W        W34490  18.265  30.455  13.056
72828W        W34491  38.360  18.596   0.473
72829W        W34492  40.372  30.046   1.258
72830W        W34493  10.779   2.867  10.475
72831W        W34494  35.856  41.013   1.795
72832W        W34495  36.530   7.280   3.747
72833W        W34496   7.247   5.886   3.785
72834W        W34497   5.316  43.898   2.316
72835W        W34498  28.957  25.539  13.903
72836W        W34499  14.827  38.819   4.782
72837W        W34500   3.439   3.446  10.964
72838W        W34501  40.036   9.371   2.328
72839W        W34502  37.358  13.136  11.042
72840W        W34503  29.597  39.424  12.827
72841W        W34504  42.942   1.811  11.086
72842W        W34505  33.948  26.083   1.274
72843W        W34506  24.067  16.653  12.482
72844W        W34507  29.598  20.267   4.765
72845W        W34508  18.290  42.370   3.157
72846W        W34509   8.821  16.789  11.537
72847W        W34510   9.305  41.022  12.564
72848W        W34511  41.869  39.961  14.293
72849W        W34512  40.328  27.511   2.291
72850W        W34513  34.560   1.274  12.443
72851W        W34514   5.732   8.869   2.761
72852W        W34515  27.503  29.137   0.966
72853W        W34516   9.180  42.801  14.320
72854W        W34517  44.426  24.994   1.846
72855W        W34518  32.471  26.697  13.384
72856W        W34519  28.164  21.569   2.307
72857W        W34520  37.995   0.346   0.291
72858W        W34521  12.262  29.062   0.393
72859W        W34522  43.779  43.279   0.784
72860W        W34523  11.171  23.505   3.362
72861W        W34524   3.925  13.769  12.062
72862W        W34525  41.342  18.167   1.746
72863W        W34526  41.499  25.681  14.451
72864W        W34527  31.940  14.724  12.993
72865W        W34528  19.066  30.530  11.494
72866W        W34529  38.339  11.678  14.311
72867W        W34530  30.463  42.878   1.311
72868W        W34531  30.924  28.483  12.068
72869W        W34532  34.957  16.804  10.958
72870W        W34533   8.865  24.997  11.486
72871W        W34534  42.979  40.879   2.224
72872W        W34535  14.813  36.873   2.369
72873W        W34536  14.655  42.916   4.206
72874W        W34537  31.966  44.865   0.835
72875W        W34538   4.358   2.346  12.044
72876W        W34539  13.643  37.050   1.435
72877W        W34540  38.021  20.112  13.546
72878W        W34541  26.563  30.633  11.552
72879W        W34542  16.233  20.765  12.906
72880W        W34543  16.746   3.220  12.396
72881W        W34544  25.525  29.660   0.841
72882W        W34545  30.043  34.046  13.419
72883W        W34546  41.377  41.931  12.935
72884W        W34547  35.533  12.194   0.284
72885W        W34548  43.908  29.516   1.836
72886W        W34549  23.216   6.748  14.361
72887W        W34550  18.054  18.257   4.131
72888W        W34551  44.434  43.792  10.453
72889W        W34552  43.426  41.429  10.090
72890W        W34553  44.490  26.956   3.737
72891W        W34554   7.747  40.451  14.810
72892W        W34555  22.996  17.656   1.375
72893W        W34556  40.380  43.822  10.992
72894W        W34557  18.605  34.436  13.462
72895W        W34558  23.090   1.780   2.811
72896W        W34559  23.107  30.160   4.349
72897W        W34560  38.927  41.998   3.783
72898W        W34561  32.624   0.866  10.969
72899W        W34562  12.341  15.244  11.048
72900W        W34563   8.852  30.111  14.029
72901W        W34564  15.707  19.721  13.851
72902W        W34565  43.803  22.574  11.518
72903W        W34566  29.514  43.377   4.123
72904W        W34567  29.116   9.243  11.917
72905W        W34568  25.698  41.311   3.244
72906W        W34569  29.596  29.001   4.279
72907W        W34570  32.435   2.810   4.633
72908W        W34571  37.392  20.253   5.255
72909W        W34572  22.171  41.889  13.828
72910W        W34573   7.355  17.228   3.324
72911W        W34574   9.725  30.438  14.355
72912W        W34575  31.933  16.316   3.682
72913W        W34576  36.547  14.154  12.088
72914W        W34577  35.468  29.434  11.901
72915W        W34578   5.727  11.656   2.298
72916W        W34579  38.532  35.405   3.790
72917W        W34580  36.518   3.278  11.591
72918W        W34581  37.946  12.827  13.810
72919W        W34582  21.539   4.269  13.537
72920W        W34583  17.063  33.580  10.070
72921W        W34584  28.555  37.342   1.451
72922W        W34585  34.888  36.066   9.974
72923W        W34586  10.267  37.563   4.643
72924W        W34587   7.702  33.948   4.818
72925W        W34588   1.792  29.591  14.972
72926W        W34589  30.999  15.810   2.847
72927W        W34590  26.982  35.556  10.422
72928W        W34591   7.394  38.840  11.376
72929W        W34592  14.336  12.122   1.781
72930W        W34593  42.321  25.134  11.889
72931W        W34594   7.277   6.791  14.321
72932W        W34595   9.759  14.718   2.897
72933W        W34596   2.359  24.524   3.162
72934W        W34597  28.044  37.923  12.527
72935W        W34598  10.823   8.206  14.941
72936W        W34599  26.513  35.055   2.365
72937W        W34600  10.242  38.386  12.921
72938W        W34601   3.321  29.461   2.816
72939W        W34602  33.075  36.941  13.339
72940W        W34603  28.513  41.977   0.317
72941W        W34604  30.413  37.910  12.962
72942W        W34605  25.559  10.814  12.406
72943W        W34606  15.155  12.766   3.799
72944W        W34607  36.395  14.286   2.677
72945W        W34608  33.452  23.202  12.039
72946W        W34609   4.441   8.328  10.977
72947W        W34610  11.667  33.904   1.442
72948W        W34611  42.788   0.859   5.163
72949W        W34612  29.126  22.620   1.401
72950W        W34613  34.934  29.155  12.022
72951W        W34614  41.398  12.725   0.287
72952W        W34615  14.256   3.363  12.833
72953W        W34616  25.192  28.596  14.437
72954W        W34617  40.375  12.617  13.335
72955W        W34618  18.124  29.985  14.856
72956W        W34619  40.538  37.932   1.857
72957W        W34620  11.301  41.491  12.929
72958W        W34621  42.797  20.250  12.892
72959W        W34622  20.044   0.758  12.462
72960W        W34623  36.493  27.069   0.291
72961W        W34624  23.642  13.328   3.732
72962W        W34625  20.037   7.686  14.873
72963W        W34626   4.351  37.394  12.393
72964W        W34627   7.830   2.895   0.777
72965W        W34628  38.377  11.246   0.876
72966W        W34629   2.939  23.208   3.383
72967W        W34630  17.129  17.099   3.223
72968W        W34631   9.308  40.938  13.881
72969W        W34632  30.443  20.711  13.482
72970W        W34633  23.098  40.044  14.434
72971W        W34634  11.180  39.904  14.285
72972W        W34635   3.306   0.329  14.369
72973W        W34636  36.906  38.542   2.377
72974W        W34637   6.374   1.272  13.460
72975W        W34638   4.798  30.938   2.316
72976W        W34639  17.287  38.877  13.946
72977W        W34640  29.557  11.845  12.889
72978W        W34641  17.582  10.229   4.191
72979W        W34642   6.356  32.886  13.934
72980W        W34643  39.042  33.615  14.494
72981W        W34644  30.456  14.204   4.734
72982W        W34645  32.036  11.217  11.513
72983W        W34646  33.457   3.444  12.515
72984W        W34647  31.151  42.845  10.902
72985W        W34648  34.403  16.687  11.935
72986W        W34649  36.940  23.239  14.781
72987W        W34650  27.974  12.293   4.166
72988W        W34651  22.017  27.993  14.812
72989W        W34652  35.363   9.309   0.401
72990W        W34653  43.895  40.923  11.960
72991W        W34654   4.916  29.598  13.511
72992W        W34655  16.641   0.970   2.786
72993W        W34656  26.671  35.370   4.696
72994W        W34657   3.244  10.658  14.354
72995W        W34658  21.111  29.481   0.858
72996W        W34659  34.412  24.002   2.707
72997W        W34660  24.060  43.896   2.802
72998W        W34661  24.513  20.535   4.736
72999W        W34662  42.838  43.304   1.883
73000W        W34663  30.521  20.739   0.326
73001W        W34664   3.359   1.249   4.275
73002W        W34665   4.278  40.335  13.500
73003W        W34666  39.377  11.259  10.925
73004W        W34667  43.403  24.531  10.505
73005W        W34668  44.892  11.176   1.848
73006W        W34669  34.595  14.678  12.499
73007W        W34670   4.817  38.382  10.585
73008W        W34671  40.864   4.862   0.905
73009W        W34672  34.496   4.883  14.425
73010W        W34673   8.879  43.948   4.830
73011W        W34674   8.165  30.605   1.341
73012W        W34675   1.340  22.517  12.870
73013W        W34676  27.159  21.123  10.906
73014W        W34677  21.175  11.783   4.194
73015W        W34678  12.227  42.313  14.804
73016W        W34679  42.923   0.341   1.862
73017W        W34680  38.969  28.046   1.266
73018W        W34681  33.116  44.911  14.435
73019W        W34682   2.384  40.379   3.735
73020W        W34683  14.264   4.841   2.719
73021W        W34684   6.283   9.856  14.480
73022W        W34685   0.383  17.228   3.151
73023W        W34686  12.661  21.739   1.220
73024W        W34687   3.339  41.813   3.182
73025W        W34688  43.969  25.963  10.492
73026W        W34689  41.799  26.200   1.722
73027W        W34690  43.895   4.702  11.904
73028W        W34691  35.956  26.098   3.839
73029W        W34692  42.407  21.551  14.435
73030W        W34693  16.573  29.502  12.896
73031W        W34694  10.346  13.164  13.886
73032W        W34695  15.216  18.060   0.920
73033W        W34696  39.057  13.714  12.015
73034W        W34697  18.063  33.615  14.474
73035W        W34698  11.254  22.674  10.927
73036W        W34699  29.462  26.524   0.960
73037W        W34700  19.127   1.822   2.686
73038W        W34701  36.393  36.868  13.933
73039W        W34702  38.820  11.161   9.975
73040W        W34703  13.329  34.955   1.924
73041W        W34704  37.030  32.436   2.773
73042W        W34705   4.434  21.151   2.225
73043W        W34706  17.775  38.882  14.403
73044W        W34707  13.318  40.800   2.897
73045W        W34708  16.699   7.395  10.577
73046W        W34709  32.986  10.750  12.436
73047W        W34710  23.021  16.598   0.755
73048W        W34711   7.762  39.338   1.235
73049W        W34712  11.270   3.425  12.569
73050W        W34713  34.111  41.369  11.437
73051W        W34714  13.650   2.355   2.829
73052W        W34715  17.693  32.075   2.795
73053W        W34716  37.477  33.891   0.749
73054W        W34717   1.970  11.338   3.826
73055W        W34718  33.501  27.018  10.475
73056W        W34719  43.354  12.295   1.346
73057W        W34720  35.898  11.368   4.318
73058W        W34721  26.959  32.521  11.539
73059W        W34722  37.014  37.465  10.509
73060W        W34723   1.803   6.351  13.352
73061W        W34724   4.343  33.075  11.405
73062W        W34725   9.163  16.782   4.182
73063W        W34726   5.727  41.025   2.264
73064W        W34727  24.539   1.478  13.920
73065W        W34728  33.539   2.339   0.311
73066W        W34729  18.150   4.229  10.638
73067W        W34730  20.036  28.121   0.810
73068W        W34731  37.078  41.031   0.244
73069W        W34732  22.146  19.080  11.034
73070W        W34733   9.715   4.785  12.032
73071W        W34734  12.652  10.156  13.948
73072W        W34735  39.925  24.630   1.905
73073W        W34736  36.031   7.253  14.960
73074W        W34737   1.465  33.460   2.684
73075W        W34738  19.538  19.636  12.056
73076W        W34739  25.670  13.845   1.222
73077W        W34740  14.653  39.061  14.997
73078W        W34741  10.877   6.831  14.503
73079W        W34742  42.952  37.336   0.745
73080W        W34743  28.497  40.887   9.926
73081W        W34744  44.826   1.812   2.780
73082W        W34745   3.267   5.288  12.472
73083W        W34746  35.922  17.158   3.774
73084W        W34747  21.596  33.060  14.776
73085W        W34748  33.414   0.377  13.509
73086W        W34749  17.137  18.779   2.681
73087W        W34750  26.099  31.596  13.822
73088W        W34751  35.598  24.207   4.761
73089W        W34752  41.396  10.666  14.974
73090W        W34753  24.130  15.110  10.938
73091W        W34754  42.786  24.983  10.077
73092W        W34755   1.810  25.160   0.794
73093W        W34756   3.953   0.289   2.740
73094W        W34757  39.048   0.461   4.291
73095W        W34758  39.013  34.867   3.648
73096W        W34759   4.335  38.433  10.924
73097W        W34760  24.132  18.577   3.716
73098W        W34761  14.784  12.306  10.532
73099W        W34762  36.566  12.622  14.804
73100W        W34763  39.885  14.111  12.065
73101W        W34764  44.861  24.165   0.763
73102W        W34765  28.945   3.425   0.366
73103W        W34766  12.718  24.136   0.386
73104W        W34767  44.460  13.201   5.222
73105W        W34768  42.798   6.237  14.293
73106W        W34769  15.167  17.133   4.798
73107W        W34770  41.499  32.625  11.488
73108W        W34771  35.998  32.429   4.709
73109W        W34772  22.088  28.171  13.031
73110W        W34773  41.303  24.201   0.383
73111W        W34774  19.663  36.574  12.093
73112W        W34775  12.809   1.916  10.997
73113W        W34776  15.236   3.783  11.511
73114W        W34777  33.603   5.772  10.986
73115W        W34778   2.960   0.961  12.948
73116W        W34779  25.155  13.332   0.468
73117W        W34780  37.058  43.962   4.710
73118W        W34781  26.507  19.606  14.515
73119W        W34782  24.070  21.104  13.048
73120W        W34783  30.460  26.134  12.567
73121W        W34784  34.385   9.192   3.752
73122W        W34785  26.056  37.890   4.227
73123W        W34786  16.812  41.306   0.799
73124W        W34787   0.852  18.602   3.736
73125W        W34788   5.313   9.334  13.979
73126W        W34789  31.483  26.505  14.875
73127W        W34790  43.834  31.109  11.970
73128W        W34791  43.428  25.049   5.304
73129W        W34792  18.689  13.201   0.769
73130W        W34793  33.607  39.957   4.117
73131W        W34794  20.093  36.579   2.902
73132W        W34795   3.822  36.955   1.884
73133W        W34796  38.000  17.182   4.649
73134W        W34797   9.198  21.079   1.758
73135W        W34798  16.101  22.086  10.438
73136W        W34799  23.701  15.688   4.255
73137W        W34800   5.416   6.877   2.705
73138W        W34801  36.519  27.643   4.302
73139W        W34802  21.574  18.781   0.923
73140W        W34803  13.830  20.529  11.031
73141W        W34804  43.779  31.483  12.882
73142W        W34805   8.374  10.703   2.747
73143W        W34806  25.626  29.666  13.433
73144W        W34807  18.586  29.105  14.394
73145W        W34808  14.338  14.296  10.559
73146W        W34809  17.196  18.570   0.789
73147W        W34810  34.987  44.966   1.304
73148W        W34811   8.660   6.780   3.308
73149W        W34812   1.398  28.576  10.923
73150W        W34813  26.537  39.021  10.992
73151W        W34814  40.400  32.009   1.386
73152W        W34815  14.236  37.873   1.800
73153W        W34816  20.188  13.617   2.752
73154W        W34817  25.621  18.272   4.780
73155W        W34818  16.732  41.798   1.299
73156W        W34819  17.709  38.828   3.815
73157W        W34820  20.680  36.865   0.351
73158W        W34821   6.784  44.342   4.239
73159W        W34822  32.444  36.924  11.522
73160W        W34823  31.633  21.093  12.844
73161W        W34824  29.555  22.039  12.028
73162W        W34825  19.534   4.293   3.273
73163W        W34826  33.430  28.458  12.056
73164W        W34827   6.321  42.994  11.972
73165W        W34828   6.898   1.732   0.736
73166W        W34829   2.958  26.959   2.799
73167W        W34830   2.904   4.849   4.219
73168W        W34831  43.807  40.907   4.345
73169W        W34832  27.091  41.952   1.276
73170W        W34833  28.145  40.422  12.481
73171W        W34834  36.943  10.848  14.313
73172W        W34835   4.792  28.053  13.042
73173W        W34836  16.714   2.358  10.625
73174W        W34837   3.268  25.503   4.748
73175W        W34838  19.732  11.279   3.657
73176W        W34839  42.321   9.182   2.900
73177W        W34840   6.785   0.287   1.398
73178W        W34841  16.679  29.985   3.642
73179W        W34842  30.557  10.748   1.347
73180W        W34843  25.623   9.361   0.284
73181W        W34844  21.148  19.579  12.841
73182W        W34845   6.266  44.914   0.729
73183W        W34846  15.327  26.119  11.597
73184W        W34847  36.537  13.155  12.551
73185W        W34848   0.754  30.590  13.026
73186W        W34849  44.839  14.729   5.625
73187W        W34850  16.127  19.049  14.436
73188W        W34851  42.517  37.427   4.680
73189W        W34852  29.572  27.189  10.514
73190W        W34853  12.326  27.188   3.209
73191W        W34854  25.580  19.170   4.284
73192W        W34855  14.274   9.296  11.403
73193W        W34856  14.312  10.738   0.454
73194W        W34857  35.596  37.952  12.352
73195W        W34858  25.640  11.716  13.397
73196W        W34859  13.116  40.527  12.852
73197W        W34860  18.174   2.226  13.950
73198W        W34861  10.226  27.482   0.913
73199W        W34862  44.993  27.943  10.566
73200W        W34863  17.636  41.452   1.742
73201W        W34864  41.854  38.834   2.335
73202W        W34865  10.847  21.614   3.289
73203W        W34866  16.703  23.188  14.369
73204W        W34867  11.794  37.378   4.748
73205W        W34868  21.740  14.184   2.198
73206W        W34869  10.824  43.487  12.855
73207W        W34870  17.732  36.400  11.958
73208W        W34871  29.112  27.152  10.975
73209W        W34872  20.711  13.727  10.971
73210W        W34873   1.284  35.969   2.673
73211W        W34874  15.113  17.680  14.812
73212W        W34875  36.482  32.522  13.026
73213W        W34876  26.588  12.304   2.188
73214W        W34877  30.493  38.908   5.290
73215W        W34878  20.249  22.236  13.489
73216W        W34879  10.202  35.864  10.616
73217W        W34880  24.222  20.607   3.726
73218W        W34881  13.734  32.080  12.064
73219W        W34882  29.924  10.650  12.859
73220W        W34883   0.254  31.989   2.846
73221W        W34884  43.496  12.822   2.835
73222W        W34885  17.295  22.054  14.403
73223W        W34886  19.630   4.903  10.134
73224W        W34887  14.312  30.083  13.948
73225W        W34888  34.018  37.042   2.273
73226W        W34889  33.954  20.042  12.949
73227W        W34890  32.930   3.347   1.798
73228W        W34891   2.930  32.115  11.037
73229W        W34892  12.643  20.593   2.749
73230W        W34893   3.913  29.928  14.329
73231W        W34894   2.381  30.974  14.837
73232W        W34895   6.865  17.785  14.375
73233W        W34896   3.215  19.220   4.268
73234W        W34897  36.483  12.289   3.193
73235W        W34898  25.611   9.846   0.728
73236W        W34899   0.901  21.589  14.023
73237W        W34900  38.904  18.052  14.839
73238W        W34901  10.808  31.404  10.993
73239W        W34902  17.084  33.484   2.282
73240W        W34903  25.150   8.792   1.825
73241W        W34904   3.221  36.444  12.341
73242W        W34905   8.317  34.984   1.376
73243W        W34906  28.444  19.167  13.970
73244W        W34907  39.399  36.580   0.345
73245W        W34908   9.174   6.426   1.786
73246W        W34909  43.855  16.282   2.704
73247W        W34910  24.026  25.587  12.374
73248W        W34911  32.449  42.008  12.420
73249W        W34912  14.303  25.676  11.074
73250W        W34913   6.808  27.482   0.447
73251W        W34914  28.166  15.794   0.420
73252W        W34915  28.962  14.263  12.936
73253W        W34916  38.830  44.343  11.024
73254W        W34917  31.068  34.062   1.708
73255W        W34918  14.596   7.672  13.063
73256W        W34919  43.457  15.155   3.784
73257W        W34920  19.653  22.679  11.512
73258W        W34921  18.754  19.725   4.289
73259W        W34922   6.789   5.223   3.667
73260W        W34923  12.768  30.091   0.940
73261W        W34924  31.465  13.795   4.612
73262W        W34925  34.474  19.068  14.868
73263W        W34926  38.888  35.387   3.279
73264W        W34927  19.198  37.916   4.793
73265W        W34928   4.718  11.137   1.303
73266W        W34929  38.417  10.859   2.839
73267W        W34930   7.172  18.585  14.332
73268W        W34931  18.224  40.412  11.467
73269W        W34932  35.595  31.097   3.865
73270W        W34933   9.212  26.041   0.318
73271W        W34934  26.180  29.517   0.730
73272W        W34935  33.443  22.507  13.462
73273W        W34936  44.882  37.969  13.897
73274W        W34937  28.602  35.036   1.856
73275W        W34938   0.864  13.181   1.831
73276W        W34939  36.481  31.506  14.966
73277W        W34940  11.795  10.273   4.231
73278W        W34941  11.297  23.539   2.291
73279W        W34942  38.554  28.652  12.367
73280W        W34943   1.878   4.322   4.346
73281W        W34944  26.191   0.305  13.056
73282W        W34945  23.025  11.648   3.327
73283W        W34946   0.874   2.403  11.444
73284W        W34947  43.926  28.080   3.222
73285W        W34948  17.098  35.380  14.383
73286W        W34949  23.115  21.261   3.200
73287W        W34950  32.529   6.716   2.198
73288W        W34951  20.604  29.103   1.292
73289W        W34952  21.520  43.458  13.399
73290W        W34953  35.459  30.918  14.329
73291W        W34954  42.282   8.896  14.965
73292W        W34955   5.807   9.752   3.348
73293W        W34956  18.588  38.030  14.440
73294W        W34957  18.211   2.340   1.754
73295W        W34958  19.166  11.697   1.909
73296W        W34959   0.772  42.508   0.300
73297W        W34960  16.090  15.593   5.192
73298W        W34961  16.622   2.348   1.926
73299W        W34962   9.750  31.452   3.219
73300W        W34963  30.637  34.480   1.877
73301W        W34964   2.891   5.253   4.834
73302W        W34965  24.052   7.226   2.804
73303W        W34966  17.194  40.312   1.798
73304W        W34967  39.907  29.122   1.339
73305W        W34968  23.191   2.330   0.796
73306W        W34969   8.787  10.661   0.454
73307W        W34970  23.147  37.999  10.927
73308W        W34971  13.338  13.666   0.729
73309W        W34972  19.145  20.720  12.849
73310W        W34973   3.781  39.957   4.304
73311W        W34974  19.273  36.908   1.229
73312W        W34975  41.477  31.012  12.987
73313W        W34976  12.360  30.503   4.165
73314W        W34977  19.233  24.084  10.537
73315W        W34978  22.735  14.284   5.181
73316W        W34979  18.147  16.605  14.012
73317W        W34980  39.813  38.965  11.044
73318W        W34981  16.698  11.720   0.405
73319W        W34982  14.172  44.406  13.385
73320W        W34983  14.132  24.110  14.363
73321W        W34984  44.978  22.044  13.310
73322W        W34985  17.289   0.757  13.880
73323W        W34986   7.370  17.214   0.362
73324W        W34987  39.494  25.154  12.872
73325W        W34988  14.729  22.998  13.338
73326W        W34989  34.096  30.576   3.769
73327W        W34990   5.199  25.477  13.965
73328W        W34991  33.614  20.586  12.367
73329W        W34992  40.529   8.690   0.292
73330W        W34993  15.735  28.013  11.572
73331W        W34994   4.269  12.153  12.045
73332W        W34995   5.206   2.891   4.727
73333W        W34996  33.920  26.629   3.735
73334W        W34997  37.839   4.737   4.272
73335W        W34998  42.816   6.276   3.370
73336W        W34999  39.023   2.421   5.262
73337W        W35000  40.880  35.979   0.384
73338W        W35001   3.381  31.527   2.740
73339W        W35002  25.191   2.362  11.079
73340W        W35003  29.162  30.020   4.811
73341W        W35004  36.429   8.831   2.730
73342W        W35005  16.789  19.641   3.654
73343W        W35006  39.398  25.107   0.449
73344W        W35007   6.388   0.971   3.650
73345W        W35008   5.357   0.343   0.304
73346W        W35009  26.976  12.166  13.321
73347W        W35010  30.966  35.975   1.706
73348W        W35011  18.566  28.066  14.377
73349W        W35012  40.832  23.677   2.232
73350W        W35013   2.347   9.697  12.882
73351W        W35014  31.921  27.588  11.584
73352W        W35015  26.638  34.605  14.447
73353W        W35016  14.608  15.822   5.234
73354W        W35017  22.233  38.870   0.466
73355W        W35018  30.599  26.103  11.889
73356W        W35019   9.388   2.394  13.051
73357W        W35020  43.470  39.833   1.224
73358W        W35021  16.761  38.543   0.272
73359W        W35022  37.515   5.701  12.009
73360W        W35023  12.335  36.568   2.728
73361W        W35024  23.036  38.434   0.860
73362W        W35025  23.207  10.220   2.413
73363W        W35026  13.793  14.696  11.476
73364W        W35027  10.285   6.905   5.616
73365W        W35028  24.672  36.996  12.028
73366W        W35029  43.445   6.340   4.797
73367W        W35030  13.317  30.942  14.008
73368W        W35031  20.691   5.761  11.866
73369W        W35032  44.354  22.623   1.758
73370W        W35033   3.712   8.202  12.838
73371W        W35034  20.049  24.124   1.381
73372W        W35035  41.790   1.402  14.376
73373W        W35036  37.369  28.966  14.956
73374W        W35037  42.392  15.219   3.373
73375W        W35038  41.955  17.754  14.472
73376W        W35039  12.317  26.115   0.290
73377W        W35040  29.516   6.252  14.006
73378W        W35041  44.773  35.478  11.410
73379W        W35042  10.875  16.176   0.345
73380W        W35043  26.644  12.214  11.064
73381W        W35044  27.178  31.403  11.962
73382W        W35045  38.355  11.355  12.892
73383W        W35046  44.994  20.145   1.701
73384W        W35047  19.773   8.285  10.970
73385W        W35048  42.463  16.315   1.300
73386W        W35049  36.567   3.719  14.988
73387W        W35050  15.650  11.360   0.432
73388W        W35051   6.691  36.993   0.904
73389W        W35052  12.267  26.485   1.811
73390W        W35053  22.022  35.867  10.974
73391W        W35054  42.442   6.720  12.453
73392W        W35055  31.115  34.382  10.969
73393W        W35056  22.058   7.732   3.377
73394W        W35057  33.610  18.064   4.132
73395W        W35058  37.449   4.867   5.123
73396W        W35059  23.202  14.718   2.192
73397W        W35060  26.619  26.612   0.757
73398W        W35061  13.642   3.756  13.440
73399W        W35062   3.728  14.127   1.421
73400W        W35063  20.229  21.594  11.496
73401W        W35064  44.348  24.154   4.829
73402W        W35065  35.081   8.399   3.634
73403W        W35066   5.340   7.174  13.332
73404W        W35067   1.309  44.835   0.324
73405W        W35068  25.502  39.002   4.690
73406W        W35069  10.270   2.833   3.863
73407W        W35070  37.053   2.891   3.642
73408W        W35071   4.799  10.699   3.861
73409W        W35072   4.250  31.632   4.636
73410W        W35073   1.859  27.039   3.358
73411W        W35074  36.538  15.805  14.453
73412W        W35075  42.909  15.590   3.706
73413W        W35076  31.142   3.351   3.808
73414W        W35077  39.880  41.325  10.604
73415W        W35078   3.948  18.183  13.829
73416W        W35079  40.932   2.895  11.029
73417W        W35080  28.968  39.463  12.428
73418W        W35081  41.490  31.992   1.275
73419W        W35082  44.830   3.455  12.448
73420W        W35083  39.497  23.495  10.989
73421W        W35084  14.637   1.351  13.468
73422W        W35085  32.605  30.450  11.521
73423W        W35086   9.151  42.331  12.074
73424W        W35087  10.757  34.096  10.572
73425W        W35088  30.008  23.514  11.978
73426W        W35089  30.436  30.154  14.846
73427W        W35090  13.742  11.135  12.480
73428W        W35091  40.949  16.314  13.018
73429W        W35092  12.219   2.931  13.911
73430W        W35093  34.540  29.991   2.842
73431W        W35094  40.042  23.024  12.089
73432W        W35095  24.725  28.002   2.675
73433W        W35096  35.497  44.262   1.794
73434W        W35097  35.460  37.959   4.240
73435W        W35098  38.399  23.536   1.323
73436W        W35099  27.642  30.952  13.471
73437W        W35100   8.378  33.982   3.701
73438W        W35101   6.233   9.225  14.456
73439W        W35102  18.774  27.017  14.960
73440W        W35103  20.672   7.412  11.866
73441W        W35104  15.291   5.690  14.468
73442W        W35105  22.044   2.267  14.431
73443W        W35106  25.117  31.976   1.870
73444W        W35107   9.170  23.159   4.198
73445W        W35108  16.082  29.432   1.751
73446W        W35109  23.145  40.051  14.954
73447W        W35110  41.007  43.861   1.325
73448W        W35111  27.570  13.725   4.150
73449W        W35112  28.966   8.747  14.779
73450W        W35113  10.172   7.281   0.404
73451W        W35114  41.447  12.126   2.356
73452W        W35115  17.266   1.260  13.811
73453W        W35116  32.468  27.187  11.862
73454W        W35117  26.542  31.639   4.631
73455W        W35118  28.939  21.059   5.244
73456W        W35119  36.453   3.840  10.559
73457W        W35120  36.507  11.705  13.524
73458W        W35121  33.041  35.361   3.326
73459W        W35122   0.279   2.758   4.119
73460W        W35123  29.495  41.393   0.832
73461W        W35124  34.922  18.622   3.234
73462W        W35125  28.960   0.341   0.306
73463W        W35126  41.834  37.019  11.080
73464W        W35127  40.453  15.786  13.015
73465W        W35128  14.125   2.441   0.771
73466W        W35129  24.127  32.577  10.975
73467W        W35130   8.866  40.020  14.909
73468W        W35131  42.854  39.339   2.248
73469W        W35132  22.675  16.110  12.999
73470W        W35133  23.631  35.396  10.443
73471W        W35134  30.539   5.756   2.840
73472W        W35135  17.061  30.589  14.453
73473W        W35136   6.678  43.929   2.808
73474W        W35137  27.137  24.010   3.167
73475W        W35138   2.275  33.996  13.430
73476W        W35139   1.794  26.463  11.507
73477W        W35140  24.558  31.907  13.533
73478W        W35141  36.975  23.525  11.511
73479W        W35142  25.138  10.267   1.828
73480W        W35143  41.875  25.690   4.209
73481W        W35144  25.624   1.871   5.126
73482W        W35145   6.871  33.970  14.340
73483W        W35146  13.136  17.659   1.753
73484W        W35147   4.312   9.361  11.490
73485W        W35148  41.295  20.132   3.722
73486W        W35149  20.716   7.250  10.589
73487W        W35150  29.144  43.458   0.753
73488W        W35151  23.030  11.823   1.919
73489W        W35152  36.583  28.967  11.569
73490W        W35153  22.036  31.033  12.344
73491W        W35154  34.381  11.171   4.318
73492W        W35155  22.073  17.772  10.912
73493W        W35156  18.699  38.986  14.816
73494W        W35157  19.117  26.172  14.276
73495W        W35158  22.190  37.408   2.306
73496W        W35159  10.692   3.370   3.756
73497W        W35160  22.032  35.547  14.932
73498W        W35161   4.270  25.607  12.901
73499W        W35162  41.896   1.317  13.960
73500W        W35163   7.811  31.611  13.010
73501W        W35164   9.344  28.542  10.410
73502W        W35165  29.007  25.539   3.256
73503W        W35166  10.779  36.074  11.016
73504W        W35167  22.174   9.667   2.684
73505W        W35168  10.336  19.120   0.894
73506W        W35169   2.858  20.207   4.731
73507W        W35170  40.491  29.656  12.566
73508W        W35171  21.526  12.630  11.979
73509W        W35172  21.169   7.864  10.953
73510W        W35173   4.884  42.359  10.967
73511W        W35174  28.114  13.843   3.197
73512W        W35175  12.231  17.663  12.854
73513W        W35176  32.617   0.824   3.332
73514W        W35177  44.480  35.867  11.926
73515W        W35178   6.694  18.781   0.355
73516W        W35179  40.955  39.842   2.207
73517W        W35180   0.939   0.318  13.431
73518W        W35181   6.323  37.008   3.159
73519W        W35182  18.586  22.683  12.482
73520W        W35183  22.651  10.206   4.666
73521W        W35184  31.152  23.164   1.226
73522W        W35185  32.972   3.260   3.310
73523W        W35186  17.259  41.889   4.184
73524W        W35187   7.314  17.608  13.847
73525W        W35188  38.505  43.453  13.445
73526W        W35189  29.557  27.692  13.342
73527W        W35190  13.673   2.424   0.782
73528W        W35191  28.992  42.501  11.888
73529W        W35192  22.083   4.903   1.289
73530W        W35193  24.184  31.135  14.815
73531W        W35194  41.308  42.799  14.838
73532W        W35195  30.061  22.039   1.761
73533W        W35196   6.251  37.986   2.784
73534W        W35197  12.664   2.265   1.254
73535W        W35198  25.015  41.799  10.424
73536W        W35199  23.565  20.716  13.896
73537W        W35200  30.004  41.957  13.413
73538W        W35201  17.096   8.769  11.581
73539W        W35202  17.247  44.849  12.917
73540W        W35203  17.096   0.789  10.890
73541W        W35204  43.815  23.093  14.449
73542W        W35205  43.919  36.357   0.810
73543W        W35206  22.575  13.349  13.439
73544W        W35207  14.338  14.135   4.649
73545W        W35208   9.660  44.847   4.297
73546W        W35209  13.730  14.696  10.590
73547W        W35210  32.044  27.583  12.058
73548W        W35211  15.130  17.213   3.379
73549W        W35212  39.052   5.803  12.920
73550W        W35213   4.354  13.679   4.761
73551W        W35214   6.791   8.327   0.839
73552W        W35215  36.497  43.897   0.376
73553W        W35216  10.272   3.362  11.398
73554W        W35217  10.275  16.132  10.454
73555W        W35218  26.643   3.855   0.429
73556W        W35219  41.843   4.360  11.468
73557W        W35220   6.400  40.868   4.659
73558W        W35221  29.932  36.842   3.166
73559W        W35222  19.272  14.599   0.323
73560W        W35223  31.950  41.323   1.694
73561W        W35224  11.639  26.661  11.127
73562W        W35225  28.109   4.221   0.354
73563W        W35226   8.753  26.494  11.393
73564W        W35227  16.197  23.006   3.151
73565W        W35228  24.698   0.932  12.447
73566W        W35229  33.953   2.943   1.250
73567W        W35230  25.001  44.268   4.655
73568W        W35231  40.462  13.187  14.387
73569W        W35232  40.351  11.795   3.272
73570W        W35233  29.559   1.956  12.855
73571W        W35234  38.511  16.567   1.376
73572W        W35235  34.007  18.262  12.086
73573W        W35236  19.751  36.001  11.126
73574W        W35237  37.449   1.945  12.965
73575W        W35238  18.100  33.043   4.754
73576W        W35239  28.672   4.389  12.436
73577W        W35240   3.761   9.785  14.766
73578W        W35241  40.965  10.733  13.791
73579W        W35242  27.100  25.009  11.421
73580W        W35243  13.338   4.298  12.509
73581W        W35244  22.105  38.514   2.703
73582W        W35245   9.246   1.859   0.763
73583W        W35246  13.211  42.523  12.888
73584W        W35247  16.146  17.195   3.243
73585W        W35248  40.997  20.578   3.346
73586W        W35249  19.600  36.580   0.882
73587W        W35250  38.449  15.105  11.391
73588W        W35251   3.217  42.909  13.314
73589W        W35252  14.781  19.044  11.510
73590W        W35253  18.757  10.272   0.911
73591W        W35254  21.653   8.165  13.003
73592W        W35255   7.781   1.891   3.330
73593W        W35256  22.151  16.718   2.244
73594W        W35257  30.494   3.842   4.723
73595W        W35258  24.990  16.162   4.757
73596W        W35259  15.245   8.668   0.279
73597W        W35260   8.183   0.479  11.521
73598W        W35261   5.845  18.750   1.843
73599W        W35262  14.264  16.665  10.526
73600W        W35263   5.785  15.820   0.319
73601W        W35264  16.599  41.850   3.632
73602W        W35265  34.515  12.328  10.511
73603W        W35266  28.678  21.115   4.229
73604W        W35267   0.860  30.544   0.450
73605W        W35268  32.489  19.765  12.374
73606W        W35269  34.602  32.607  14.892
73607W        W35270   8.703  15.605   3.770
73608W        W35271  29.098  33.040  11.109
73609W        W35272  40.049   6.337   2.355
73610W        W35273  38.482  20.707   1.224
73611W        W35274   9.842  31.129   3.705
73612W        W35275  38.496  13.135  11.600
73613W        W35276  24.609  27.556  11.859
73614W        W35277  11.749  35.522  10.492
73615W        W35278  28.028   1.916   4.710
73616W        W35279  43.008  44.390   3.308
73617W        W35280  15.742  25.525   2.894
73618W        W35281  20.164  26.544   3.783
73619W        W35282   2.894  28.514   0.812
73620W        W35283  25.087  23.212   1.367
73621W        W35284  18.177  23.598  11.969
73622W        W35285  32.979  26.975  14.484
73623W        W35286  40.881  28.510  12.971
73624W        W35287  28.044  11.170  11.014
73625W        W35288  21.667   8.742  12.390
73626W        W35289  33.955  37.356   4.709
73627W        W35290   3.877   9.753   3.381
73628W        W35291  22.519  19.275  14.346
73629W        W35292  38.562  34.485  11.445
73630W        W35293   9.775  35.374  11.097
73631W        W35294  22.620  33.426   3.641
73632W        W35295  43.964  38.919  13.849
73633W        W35296  34.412   8.186  12.521
73634W        W35297  28.515   5.383  13.496
73635W        W35298  34.454  20.193   1.213
73636W        W35299  13.114  32.960   4.217
73637W        W35300  40.005  31.006   0.285
73638W        W35301  38.948   2.912  10.515
73639W        W35302  36.960  41.964  11.599
73640W        W35303   7.746  12.644  12.477
73641W        W35304  36.057   9.183   4.657
73642W        W35305  28.970  21.551   0.483
73643W        W35306  38.542  35.455   1.932
73644W        W35307   5.306  14.714  13.475
73645W        W35308  22.573   3.770   4.653
73646W        W35309   7.670  26.152  12.388
73647W        W35310  32.050  12.234  13.476
73648W        W35311  15.280  23.212   0.446
73649W        W35312   7.343  29.502  13.531
73650W        W35313   7.368   5.399  12.095
73651W        W35314  16.217  27.525  14.923
73652W        W35315  21.227  11.227  13.032
73653W        W35316  20.051  33.399   4.713
73654W        W35317  14.180  29.003  13.320
73655W        W35318  11.300  42.944  12.096
73656W        W35319  43.913  28.499  12.360
73657W        W35320  35.511  11.155  10.559
73658W        W35321  38.539  34.571  10.991
73659W        W35322  41.368  42.353  14.986
73660W        W35323  29.492  23.694  12.574
73661W        W35324  32.411  27.165   0.330
73662W        W35325  23.666  18.580   4.792
73663W        W35326   2.926   2.409  10.547
73664W        W35327  41.465  18.207  13.525
73665W        W35328  20.752   9.367   4.797
73666W        W35329  12.241  40.348  10.953
73667W        W35330  11.191   4.392   2.829
73668W        W35331  26.579  29.980   3.779
73669W        W35332  42.778  25.102  13.379
73670W        W35333  25.128  26.679   0.393
73671W        W35334  29.095  15.194   3.830
73672W        W35335  34.393  28.964  13.985
73673W        W35336  25.102  34.015  10.587
73674W        W35337  38.877   7.291   4.292
73675W        W35338  22.541  21.242  14.476
73676W        W35339  19.679  35.441  10.484
73677W        W35340  38.891  18.106   2.301
73678W        W35341  16.292  31.116  12.898
73679W        W35342  30.098  41.478   2.832
73680W        W35343  40.954  17.687  11.018
73681W        W35344   9.174   3.339  11.586
73682W        W35345  40.867  30.501  10.525
73683W        W35346  42.893  30.961   4.312
73684W        W35347  14.338  17.695   3.177
73685W        W35348  35.599   0.293   0.785
73686W        W35349  33.528   1.757   4.248
73687W        W35350   7.904   6.783  12.417
73688W        W35351  10.271  44.875   1.921
73689W        W35352  19.108  21.026   1.440
73690W        W35353  28.512  15.774  10.465
73691W        W35354  25.127   5.226   3.187
73692W        W35355  28.481  40.042   9.488
73693W        W35356  15.083  33.880   0.848
73694W        W35357  20.157  19.772   0.447
73695W        W35358  25.177   6.715   4.250
73696W        W35359  16.579  44.353  10.893
73697W        W35360  34.950   9.820  10.989
73698W        W35361  22.632  28.664   4.270
73699W        W35362  13.235   1.372  14.975
73700W        W35363  35.021  12.234  10.914
73701W        W35364  37.006  14.591  12.445
73702W        W35365  31.511  42.962   0.759
73703W        W35366  32.597  19.676  13.357
73704W        W35367  19.597   5.404   0.249
73705W        W35368  42.809   4.835  13.540
73706W        W35369  30.517  30.987   2.832
73707W        W35370  20.527   4.782  10.529
73708W        W35371  26.962  21.044  12.519
73709W        W35372  38.075  17.219   4.158
73710W        W35373   0.840  14.302   2.683
73711W        W35374  43.447  43.858  11.476
73712W        W35375  41.494  19.733  11.490
73713W        W35376  24.711  30.469  11.084
73714W        W35377  13.305  28.624   3.832
73715W        W35378  32.446   1.857  13.811
73716W        W35379  15.226  31.614  12.052
73717W        W35380  14.733  39.010   4.269
73718W        W35381  14.284  12.685   0.750
73719W        W35382  36.039  37.043   1.871
73720W        W35383  13.200  23.014  11.459
73721W        W35384   7.720  41.450   9.998
73722W        W35385   0.484   0.823  12.506
73723W        W35386  38.508  26.496  10.910
73724W        W35387  34.403   9.830   2.296
73725W        W35388   6.871  32.091  12.900
73726W        W35389  26.594  33.078  14.443
73727W        W35390   6.917  36.070   1.878
73728W        W35391   5.912  21.625   1.284
73729W        W35392  11.336  32.083  11.428
73730W        W35393  32.460  14.770   3.659
73731W        W35394  29.957  12.320   1.357
73732W        W35395  19.075  35.590   0.426
73733W        W35396  41.925  44.308  12.566
73734W        W35397   8.746  19.040  14.865
73735W        W35398   4.714   3.426   4.216
73736W        W35399  44.372  16.773  11.411
73737W        W35400   4.922  33.898   0.757
73738W        W35401   6.398  15.708  13.338
73739W        W35402  14.129  35.533   1.438
73740W        W35403   7.361  21.146  11.384
73741W        W35404   6.907  36.899  14.833
73742W        W35405   9.691  12.312   0.265
73743W        W35406  11.187   2.262  13.539
73744W        W35407   4.388   6.253   4.602
73745W        W35408   0.387  16.125  11.036
73746W        W35409  12.358  22.212  13.513
73747W        W35410  23.152  20.644   2.721
73748W        W35411   7.722  31.099  13.025
73749W        W35412  42.361  23.657   1.735
73750W        W35413  16.706  32.900   3.789
73751W        W35414  30.438  19.135   0.782
73752W        W35415  22.691  26.622   2.305
73753W        W35416  40.968  41.419   4.299
73754W        W35417  43.769   9.709   5.127
73755W        W35418  33.515  32.420   4.716
73756W        W35419  17.619  13.348   0.316
73757W        W35420   7.322  26.047  13.907
73758W        W35421   4.317  30.610   1.708
73759W        W35422  32.539  22.645  13.486
73760W        W35423   2.949  30.084  11.095
73761W        W35424   1.929   8.212   2.733
73762W        W35425  20.145  41.834   4.207
73763W        W35426  40.807   8.358   9.504
73764W        W35427  35.363  10.740   4.826
73765W        W35428  33.013  26.620   0.791
73766W        W35429  27.151  34.466  10.590
73767W        W35430   7.890  13.745  13.979
73768W        W35431  33.556  38.997  13.360
73769W        W35432  32.047   5.695   0.389
73770W        W35433  44.439  14.213  12.870
73771W        W35434   0.411   5.750   2.399
73772W        W35435  18.075  37.890  14.000
73773W        W35436  29.167   3.436  10.484
73774W        W35437  30.651   3.355   0.853
73775W        W35438  17.792  27.590  11.492
73776W        W35439   5.379   3.387   2.668
73777W        W35440  32.024  19.253   3.194
73778W        W35441  17.149  28.151  13.338
73779W        W35442  43.410  24.184   1.400
73780W        W35443  36.906  38.960   2.384
73781W        W35444  44.473  36.063   4.635
73782W        W35445   1.757  21.141  13.811
73783W        W35446  12.765  28.436   4.158
73784W        W35447  13.195  26.544   3.209
73785W        W35448  25.104  23.057  11.043
73786W        W35449  30.446  44.832  14.979
73787W        W35450  19.120  10.362   3.215
73788W        W35451  41.848  31.519   4.686
73789W        W35452   2.354  29.638  12.346
73790W        W35453  38.326  23.546  10.917
73791W        W35454  38.426  40.419  12.506
73792W        W35455   3.429   8.847   3.643
73793W        W35456  21.240   0.806   2.327
73794W        W35457  38.331  17.130  12.930
73795W        W35458  15.255  32.614   3.265
73796W        W35459  34.492  17.609  12.366
73797W        W35460  41.482  42.787   0.769
73798W        W35461  27.178   8.292   0.851
73799W        W35462  28.554  41.031  13.982
73800W        W35463  24.145   7.834  11.609
73801W        W35464  12.252   1.374  13.488
73802W        W35465  21.106  30.956   0.732
73803W        W35466  32.952  15.591  13.509
73804W        W35467   4.304  40.901   3.365
73805W        W35468  38.945   6.211  10.105
73806W        W35469  34.575   4.743  11.862
73807W        W35470  31.527  42.009   2.217
73808W        W35471  37.437  39.400   3.189
73809W        W35472  35.959   1.437  11.416
73810W        W35473  17.287   8.327  14.476
73811W        W35474  43.431  33.128   0.781
73812W        W35475  41.931  41.970  13.992
73813W        W35476   0.335  43.506  11.460
73814W        W35477  13.203   4.757   0.822
73815W        W35478  31.130  11.217   1.902
73816W        W35479   4.903  29.997   4.622
73817W        W35480  26.551   5.899   4.685
73818W        W35481  29.524  25.151   0.386
73819W        W35482  14.753  27.128   0.464
73820W        W35483  34.105  37.549  11.933
73821W        W35484   1.421   0.894  11.019
73822W        W35485  30.523   8.391   3.835
73823W        W35486  25.634  13.190   5.254
73824W        W35487  26.067  18.730   1.311
73825W        W35488  12.195   3.775   2.702
73826W        W35489  37.395  12.207   4.651
73827W        W35490  15.777   1.415  13.980
73828W        W35491  31.021  36.489   1.422
73829W        W35492  12.180   2.924  10.901
73830W        W35493   7.346  31.445   1.376
73831W        W35494  14.171  37.009   1.726
73832W        W35495  24.535  13.615   0.886
73833W        W35496   0.262  25.490  12.969
73834W        W35497  31.642  21.723  11.373
73835W        W35498  29.922  38.867  12.511
73836W        W35499  18.717  40.441  13.927
73837W        W35500  24.041  39.898  13.987
73838W        W35501  11.365  32.515  10.525
73839W        W35502  31.153  29.164  10.488
73840W        W35503  14.675  33.988  13.321
73841W        W35504  12.848  31.911  10.535
73842W        W35505  21.752  27.951  12.842
73843W        W35506   9.322  15.195  11.441
73844W        W35507   2.782  25.482  14.397
73845W        W35508  38.534  43.891  11.972
73846W        W35509  36.963  25.131   2.379
73847W        W35510  17.299   1.387  13.427
73848W        W35511  40.449  40.431   2.737
73849W        W35512   2.821   4.704  11.601
73850W        W35513  26.085  32.428   4.272
73851W        W35514  19.584  40.961  13.985
73852W        W35515  11.372  32.963   3.225
73853W        W35516  24.663  28.995   5.282
73854W        W35517  43.933  14.228   0.432
73855W        W35518   6.786  39.318  12.351
73856W        W35519  30.505   4.895   1.889
73857W        W35520  38.869  29.953   2.393
73858W        W35521   1.277  28.026   2.811
73859W        W35522  40.033  39.848  11.969
73860W        W35523   2.240  26.586   9.941
73861W        W35524   2.413  19.176  12.004
73862W        W35525  22.711   0.865  12.371
73863W        W35526  42.830  26.495   9.943
73864W        W35527   2.233  11.320   4.279
73865W        W35528  26.456  39.868  14.945
73866W        W35529   9.888  33.508   4.831
73867W        W35530  39.358  25.092  10.960
73868W        W35531  19.584   0.478  14.918
73869W        W35532  28.656  33.452   2.318
73870W        W35533  15.577  34.563  10.489
73871W        W35534  20.654   9.780  13.808
73872W        W35535  20.734   1.252  14.895
73873W        W35536  26.654  17.622   0.482
73874W        W35537  15.655  27.546  10.080
73875W        W35538  34.010  34.475   4.195
73876W        W35539  31.591  25.627  10.971
73877W        W35540  12.339   7.789  13.490
73878W        W35541  34.054   4.816   5.296
73879W        W35542  15.798  39.839   9.971
73880W        W35543  16.287  27.684   1.874
73881W        W35544   4.923  15.263  13.352
73882W        W35545  20.196  16.077  13.817
73883W        W35546  11.814  38.395   2.897
73884W        W35547  17.741  41.415  11.857
73885W        W35548  39.553   0.370  10.507
73886W        W35549  40.055  18.791   4.679
73887W        W35550  18.096  31.450  10.455
73888W        W35551  43.874  25.979   3.827
73889W        W35552  38.542  37.947   4.184
73890W        W35553  19.576   7.278   3.638
73891W        W35554  30.069  23.111   0.756
73892W        W35555  34.470  36.028  13.379
73893W        W35556  42.019  10.249  11.036
73894W        W35557   8.234  22.646   3.786
73895W        W35558   7.175   6.320  11.110
73896W        W35559  21.049  17.650   4.198
73897W        W35560  13.809   7.848  13.402
73898W        W35561  30.088  13.650  12.964
73899W        W35562  41.981  25.211   5.094
73900W        W35563  11.162  28.578   4.121
73901W        W35564  26.088   3.726   5.731
73902W        W35565  13.766   4.836   1.449
73903W        W35566   5.386  41.461   4.813
73904W        W35567   9.373  35.909   2.717
73905W        W35568  41.957   4.366  13.406
73906W        W35569  38.544  27.085   2.374
73907W        W35570   8.310  34.985   3.311
73908W        W35571  18.654  13.118   0.343
73909W        W35572  28.154  31.498  14.346
73910W        W35573  36.091   7.715  12.889
73911W        W35574  27.083  42.809  13.507
73912W        W35575  30.589  42.351  12.520
73913W        W35576   4.782  19.655   0.285
73914W        W35577  41.393   0.485  13.030
73915W        W35578  43.378  29.959   0.805
73916W        W35579   5.907   2.803   1.734
73917W        W35580  20.633  21.661  14.833
73918W        W35581  14.254   4.916   2.248
73919W        W35582  30.071  19.762  10.583
73920W        W35583  24.623  29.105   3.209
73921W        W35584   5.219  15.116  14.280
73922W        W35585  10.825   5.915   2.717
73923W        W35586  19.654  14.322  12.959
73924W        W35587   0.871  44.918   2.769
73925W        W35588  18.222  42.994  11.963
73926W        W35589   6.735  33.439   4.835
73927W        W35590   2.784   8.245   3.195
73928W        W35591  29.521  14.708   3.164
73929W        W35592  41.921  16.673  12.877
73930W        W35593  37.564  16.739  14.457
73931W        W35594  15.102  17.706  11.119
73932W        W35595   6.827   5.816  13.006
73933W        W35596   1.439  40.924   1.367
73934W        W35597   6.210  32.433   2.300
73935W        W35598  10.805  43.968  12.944
73936W        W35599  42.982  13.167   0.832
73937W        W35600   9.249  21.081   3.636
73938W        W35601  17.250  18.285   1.775
73939W        W35602   6.422  28.957  14.341
73940W        W35603  29.533  10.234   0.799
73941W        W35604  34.572  26.689   3.276
73942W        W35605   8.170  36.359   4.732
73943W        W35606  32.075  29.458   0.246
73944W        W35607   0.931  41.535   3.174
73945W        W35608   8.662  44.756   3.229
73946W        W35609  25.629  24.560   0.340
73947W        W35610  15.086  22.504   3.376
73948W        W35611   6.712  33.902  14.011
73949W        W35612  39.980  22.044  14.800
73950W        W35613  11.825  44.282   4.809
73951W        W35614  32.142   0.441   0.412
73952W        W35615  37.544  20.075  14.865
73953W        W35616  29.511  28.648   4.833
73954W        W35617  30.162  30.466   3.330
73955W        W35618  34.020  13.195   2.710
73956W        W35619   6.705   5.235   1.898
73957W        W35620   8.666  34.524   9.945
73958W        W35621  23.645  40.375  13.950
73959W        W35622   7.230  28.122  13.999
73960W        W35623  30.142  16.105  11.060
73961W        W35624  20.726  29.641  14.904
73962W        W35625  42.323  31.035  10.580
73963W        W35626  44.320  13.288   9.616
73964W        W35627  21.055  24.190  12.349
73965W        W35628  44.428  10.693   1.292
73966W        W35629  13.343  35.883   2.194
73967W        W35630  40.411  29.932   2.324
73968W        W35631  12.153  20.702  10.414
73969W        W35632  20.215  36.584   3.297
73970W        W35633  33.078  44.995   3.675
73971W        W35634  44.371  19.702  13.473
73972W        W35635   6.917  20.182  13.804
73973W        W35636  13.720   0.322   3.820
73974W        W35637  28.667  41.910  12.851
73975W        W35638  34.513   3.732   3.324
73976W        W35639  42.983  14.604   0.828
73977W        W35640   1.241  19.245  13.041
73978W        W35641  29.488  13.629   4.827
73979W        W35642   7.707  21.085   5.200
73980W        W35643  32.483   0.892  13.032
73981W        W35644  34.957   5.329   4.708
73982W        W35645  36.443  40.880   4.212
73983W        W35646  28.611  23.524   1.805
73984W        W35647   0.843   8.865  11.497
73985W        W35648  28.060  28.479   2.199
73986W        W35649  14.780  10.149   2.780
73987W        W35650  18.080  42.408  14.854
73988W        W35651  26.670  24.161  13.035
73989W        W35652  23.017  41.384  14.837
73990W        W35653   2.379  19.719  11.006
73991W        W35654  35.967  11.779  12.480
73992W        W35655  16.198   3.712   2.351
73993W        W35656   0.965  38.363   3.864
73994W        W35657  43.916  23.562   0.385
73995W        W35658  43.343  29.488  10.530
73996W        W35659  20.045   5.233  13.424
73997W        W35660  20.163  37.941  10.975
73998W        W35661  21.231  25.204  13.957
73999W        W35662  21.028  39.546  12.086
74000W        W35663  32.550  33.061  14.810
74001W        W35664  16.127  19.762  13.424
74002W        W35665  39.968  28.675  12.441
74003W        W35666  16.312   1.396   4.807
74004W        W35667   6.212  17.574   1.367
74005W        W35668  26.996  41.312   2.673
74006W        W35669  23.491   9.794   1.245
74007W        W35670  32.476   8.227  12.486
74008W        W35671  10.357  11.652  14.923
74009W        W35672  16.084   1.753  14.760
74010W        W35673  22.008   3.246   2.823
74011W        W35674  13.762  44.888   2.874
74012W        W35675  34.377  33.124  14.383
74013W        W35676  24.651  11.366   3.866
74014W        W35677  15.642   1.416  10.566
74015W        W35678  11.199  24.043   1.366
74016W        W35679  22.128   8.220   1.334
74017W        W35680  23.499   3.313  14.902
74018W        W35681  40.819  30.098  11.932
74019W        W35682  14.138  20.203   3.274
74020W        W35683  17.655   7.767   0.467
74021W        W35684  38.006   3.924   4.838
74022W        W35685  44.320  42.435   3.223
74023W        W35686   1.742  44.787   3.826
74024W        W35687  40.853  24.035   0.794
74025W        W35688   6.350  17.271  10.047
74026W        W35689  35.424  35.572  14.904
74027W        W35690  34.599  25.698  11.607
74028W        W35691  19.641  27.198   4.707
74029W        W35692   6.284  19.080  11.864
74030W        W35693  14.664  32.426  10.572
74031W        W35694  29.978  30.135  13.351
74032W        W35695  32.541  10.154   4.610
74033W        W35696  38.391   5.812  11.439
74034W        W35697  12.612  29.629   4.740
74035W        W35698  17.137  21.694  14.428
74036W        W35699  21.606  25.612   3.222
74037W        W35700  27.644  36.479  11.872
74038W        W35701  40.925   6.898   2.701
74039W        W35702  43.448   8.719  11.958
74040W        W35703   1.316   2.956   2.781
74041W        W35704  17.646  15.665   2.732
74042W        W35705  14.808  21.226   3.635
74043W        W35706  30.483  20.740   3.232
74044W        W35707   4.229   4.791  13.898
74045W        W35708   1.313   3.461   2.785
74046W        W35709  37.894  27.577   1.248
74047W        W35710   4.421  43.991   1.704
74048W        W35711  32.476   9.178   2.286
74049W        W35712  43.324  29.634   0.264
74050W        W35713  31.602  36.944   4.626
74051W        W35714  16.639  20.154  14.280
74052W        W35715   6.354  17.113   4.600
74053W        W35716  19.643  24.528  10.563
74054W        W35717  14.676  32.022  13.989
74055W        W35718   3.437   6.276   2.686
74056W        W35719  30.023   3.230   2.215
74057W        W35720  33.948  25.524  14.929
74058W        W35721  11.158   1.394  14.477
74059W        W35722  25.545   0.342   0.913
74060W        W35723  39.554  23.728  14.496
74061W        W35724  38.403  19.086  14.380
74062W        W35725   0.979  12.854   4.203
74063W        W35726  14.333  12.307  12.577
74064W        W35727  33.570  36.074   2.677
74065W        W35728   0.300  20.610  10.414
74066W        W35729  29.514  38.536   1.848
74067W        W35730  25.094  27.083  14.879
74068W        W35731  15.269  29.102  13.863
74069W        W35732  32.995  13.230   2.269
74070W        W35733  31.143  18.617   3.668
74071W        W35734  34.090  24.195   3.254
74072W        W35735   3.425  36.863   2.224
74073W        W35736  29.983  28.042   4.348
74074W        W35737   1.790  17.093  14.308
74075W        W35738  29.447   2.340   0.480
74076W        W35739  26.105  42.345   4.199
74077W        W35740  19.751  38.952   4.824
74078W        W35741  18.058  11.195   4.776
74079W        W35742  18.618  11.201   1.418
74080W        W35743  44.401  19.232   3.330
74081W        W35744  20.114  23.073   4.254
74082W        W35745   5.234  41.316   3.765
74083W        W35746  17.795  22.629   1.354
74084W        W35747  42.986  19.232   2.399
74085W        W35748  31.480  15.270  11.069
74086W        W35749   8.246   8.727   1.390
74087W        W35750  40.908  44.417  14.416
74088W        W35751  35.566  21.579  12.532
74089W        W35752  35.867  41.498  14.400
74090W        W35753  40.444   3.716  10.507
74091W        W35754  22.679  39.860  12.856
74092W        W35755  17.157  42.987   0.844
74093W        W35756   1.873  17.230  11.518
74094W        W35757  20.602  30.156  13.018
74095W        W35758   0.489  23.091   2.305
74096W        W35759  19.188  39.433   2.323
74097W        W35760  35.942  42.322  14.358
74098W        W35761   4.783   9.769  14.425
74099W        W35762  35.529   5.200   4.129
74100W        W35763  39.977  18.184  14.317
74101W        W35764  31.440  35.514   4.737
74102W        W35765  26.167   8.823   3.832
74103W        W35766  19.174   6.794   1.423
74104W        W35767  16.572   6.730   0.313
74105W        W35768   7.288   1.430  13.987
74106W        W35769  21.179   8.689  11.525
74107W        W35770  42.997  10.677   1.408
74108W        W35771  22.216   4.709  13.518
74109W        W35772  18.255  35.874  10.596
74110W        W35773  21.653  26.671   0.430
74111W        W35774   3.911   3.719   4.677
74112W        W35775  10.783  19.666   0.465
74113W        W35776   9.392   2.727   2.228
74114W        W35777  33.517  20.055   3.299
74115W        W35778  11.322  10.185   1.788
74116W        W35779  44.410  27.571  11.494
74117W        W35780  19.241  25.100  13.464
74118W        W35781  13.676   9.190   4.620
74119W        W35782  25.143  15.621   0.938
74120W        W35783   1.414  22.160   1.361
74121W        W35784   8.748  44.258  11.495
74122W        W35785  11.635  14.180  12.863
74123W        W35786  10.793  23.537   1.898
74124W        W35787  28.173  23.632   3.340
74125W        W35788  27.628  20.752  13.859
74126W        W35789  41.503  27.446   0.824
74127W        W35790  26.614  41.875   3.197
74128W        W35791  36.874  12.643  14.495
74129W        W35792  30.038  36.929  13.506
74130W        W35793  23.708  43.449  11.955
74131W        W35794  17.768  38.495   4.795
74132W        W35795   8.835   6.815   4.304
74133W        W35796  42.350  35.107   4.157
74134W        W35797   1.738   8.373  13.495
74135W        W35798  32.445  34.441  13.475
74136W        W35799   5.238  10.329  13.998
74137W        W35800  35.591  32.981   2.419
74138W        W35801  34.434   9.387   5.681
74139W        W35802  12.143   2.326   1.764
74140W        W35803  41.360  43.954  13.364
74141W        W35804  13.801   0.375  13.348
74142W        W35805  15.604  37.461   0.385
74143W        W35806  37.967  32.915  14.392
74144W        W35807  42.526  18.760   4.714
74145W        W35808  10.285  11.346   4.346
74146W        W35809  24.570  21.584  14.964
74147W        W35810   4.786  15.805   4.164
74148W        W35811  30.020  11.677   0.895
74149W        W35812   1.259  14.595   2.818
74150W        W35813  33.069  21.156   2.328
74151W        W35814  27.459  33.417   2.836
74152W        W35815  35.950  32.128   5.244
74153W        W35816  29.490  35.940  13.478
74154W        W35817  29.030  31.515  12.430
74155W        W35818  15.633  35.946  11.868
74156W        W35819  33.102  39.810   2.310
74157W        W35820  17.163  44.393   3.298
74158W        W35821  41.950  38.076   3.637
74159W        W35822  34.108  28.590  12.467
74160W        W35823  33.489  19.052  10.989
74161W        W35824  19.076  17.762   1.808
74162W        W35825  32.485   1.933   4.705
74163W        W35826  28.515  10.337   0.960
74164W        W35827  30.547  13.765   2.697
74165W        W35828   2.304  28.180  13.053
74166W        W35829  18.088   0.892  10.525
74167W        W35830  27.663  41.793   0.950
74168W        W35831  27.566  34.925  11.022
74169W        W35832  16.112   4.857   3.855
74170W        W35833   3.859  11.195  12.077
74171W        W35834  14.218  41.840   2.323
74172W        W35835   5.352  31.129  14.426
74173W        W35836  16.192  27.618  13.512
74174W        W35837  43.780  41.786  13.385
74175W        W35838  24.210  36.940  12.848
74176W        W35839  21.607  15.784   0.361
74177W        W35840  14.140  14.178  10.994
74178W        W35841  44.847  31.550  12.422
74179W        W35842  22.039  33.394   1.382
74180W        W35843  14.311  17.567   4.653
74181W        W35844   7.910  24.672   2.772
74182W        W35845   5.907  23.687  14.313
74183W        W35846  10.158   0.289   0.382
74184W        W35847  24.682  15.733  12.475
74185W        W35848   1.267   0.352  11.892
74186W        W35849  28.089   7.904  13.389
74187W        W35850  41.349  34.541  10.987
74188W        W35851  13.615  30.622  14.837
74189W        W35852   7.386  11.694  14.798
74190W        W35853  18.650  21.072   3.294
74191W        W35854  39.335  32.061   4.768
74192W        W35855  42.905  29.576  11.953
74193W        W35856  36.402  24.216   1.383
74194W        W35857  34.561  33.388   4.640
74195W        W35858  31.912  35.083  14.976
74196W        W35859  17.791   3.343  12.097
74197W        W35860   7.210   5.431   0.344
74198W        W35861  13.641  39.392  11.020
74199W        W35862   3.774  44.415  10.119
74200W        W35863  29.039  20.230  12.406
74201W        W35864  26.633   3.720  10.511
74202W        W35865  42.987  11.818   4.635
74203W        W35866  25.074  37.569  14.890
74204W        W35867  33.552   1.468   4.746
74205W        W35868   6.230   4.708   2.681
74206W        W35869  31.961  24.618  13.931
74207W        W35870  14.693  42.005   1.306
74208W        W35871  18.712  33.930  12.508
74209W        W35872  38.958  32.477   0.436
74210W        W35873  22.614   8.680   0.786
74211W        W35874  16.191  11.633   0.311
74212W        W35875  19.664  23.102  12.940
74213W        W35876  11.247   6.405   0.893
74214W        W35877   3.250  38.038  14.789
74215W        W35878  26.174  32.585   0.327
74216W        W35879  11.690  10.337   2.815
74217W        W35880  22.657   1.816  12.569
74218W        W35881  38.404   8.236   2.782
74219W        W35882   8.367  22.018   3.321
74220W        W35883  35.417   5.396  11.020
74221W        W35884  25.219  13.732   2.873
74222W        W35885  26.467  40.944   2.901
74223W        W35886   9.265  29.591  11.891
74224W        W35887  25.968  42.809  13.308
74225W        W35888  20.656   8.711  14.950
74226W        W35889  44.395   6.285   2.266
74227W        W35890  40.351  15.717   0.477
74228W        W35891  39.389  22.074   3.795
74229W        W35892  36.049  11.660   3.267
74230W        W35893  29.021  41.953  14.891
74231W        W35894  42.847   5.776  14.297
74232W        W35895  44.425  35.442  10.891
74233W        W35896   3.944  26.544  11.057
74234W        W35897  31.563  13.613  12.450
74235W        W35898  34.490  37.951   0.803
74236W        W35899  42.281   4.322  11.974
74237W        W35900  14.636   9.378   1.355
74238W        W35901  33.074  20.582  11.581
74239W        W35902  19.055   6.365  14.010
74240W        W35903  21.144   0.933   4.135
74241W        W35904   9.782  26.994  13.408
74242W        W35905  10.766  18.160   1.865
74243W        W35906  27.062   3.383   2.788
74244W        W35907  42.427  29.537   2.334
74245W        W35908   4.719  21.603   0.292
74246W        W35909  30.444  44.337  11.416
74247W        W35910   0.344   3.310   4.660
74248W        W35911  36.091  41.520  11.017
74249W        W35912   6.705   6.194   0.428
74250W        W35913  19.581  26.699  12.403
74251W        W35914   7.347   1.397   3.307
74252W        W35915  10.781  44.774   0.775
74253W        W35916  15.692  17.120  13.444
74254W        W35917  35.882  29.974   1.845
74255W        W35918  44.319  26.956  13.052
74256W        W35919  42.827  13.808  11.524
74257W        W35920  27.094  25.589  13.006
74258W        W35921  39.352  18.225  12.371
74259W        W35922  15.090  33.995  10.017
74260W        W35923  30.042  36.434   1.241
74261W        W35924   8.304  40.888  14.304
74262W        W35925   5.279  42.967  10.556
74263W        W35926  39.833  37.959  14.026
74264W        W35927  32.979  40.384   4.346
74265W        W35928  39.531  26.139  10.489
74266W        W35929  23.566   5.761   4.741
74267W        W35930  38.428   9.217  12.343
74268W        W35931  28.562  29.160  12.972
74269W        W35932  17.636  41.854   0.292
74270W        W35933  26.011  38.958   0.464
74271W        W35934  16.653  16.161  14.998
74272W        W35935  26.528   4.868   2.684
74273W        W35936  21.196  22.239   3.353
74274W        W35937   4.262   2.284   1.768
74275W        W35938  26.496   5.279  11.443
74276W        W35939   2.386  43.791  14.766
74277W        W35940  42.904   8.233  13.849
74278W        W35941  28.630  22.009  12.076
74279W        W35942   2.902  35.047  13.371
74280W        W35943  39.483  38.911  13.915
74281W        W35944  21.233   4.242  12.032
74282W        W35945  10.172  24.020   1.247
74283W        W35946  25.117  29.010  13.991
74284W        W35947  42.470  44.442   3.225
74285W        W35948  31.414  19.534   3.738
74286W        W35949  19.719  23.025  10.617
74287W        W35950   6.428  34.460   4.246
74288W        W35951  31.588  35.970  10.585
74289W        W35952  32.637  41.329  11.057
74290W        W35953  28.523  21.161   2.802
74291W        W35954  16.303  23.996   4.271
74292W        W35955  40.419  34.021   2.702
74293W        W35956   0.443  20.246   0.916
74294W        W35957  38.025  13.181   1.400
74295W        W35958  15.795  26.498  14.892
74296W        W35959  30.438  23.662  14.970
74297W        W35960   8.730  28.968  12.565
74298W        W35961  22.675  38.351  12.556
74299W        W35962  11.283  11.305  14.356
74300W        W35963  14.164   0.977  14.297
74301W        W35964   7.872   3.276   1.713
74302W        W35965  23.562  29.531  13.926
74303W        W35966   0.909  44.267  11.371
74304W        W35967  13.334  23.179   4.125
74305W        W35968   8.667  35.423  12.563
74306W        W35969  42.507  30.014   1.366
74307W        W35970  18.757  18.129  10.928
74308W        W35971  10.705  15.626   2.179
74309W        W35972  40.845  36.479   1.775
74310W        W35973  12.294  12.271   2.211
74311W        W35974  32.920  33.972   1.409
74312W        W35975  11.341  12.292   1.363
74313W        W35976   7.911  20.702   4.730
74314W        W35977  20.642  29.631   1.247
74315W        W35978  11.355  36.442  10.533
74316W        W35979  41.871  39.553   0.777
74317W        W35980  35.885  13.223   1.803
74318W        W35981  25.975  14.328   3.759
74319W        W35982  37.415  14.210   4.666
74320W        W35983  40.979   9.297   4.683
74321W        W35984  19.616  29.024  10.058
74322W        W35985  24.179  43.448   0.862
74323W        W35986  33.875  38.522  11.537
74324W        W35987  28.054  18.110   3.742
74325W        W35988  17.305   7.699  14.414
74326W        W35989  13.173  10.301   2.885
74327W        W35990  43.895  28.493  14.839
74328W        W35991   8.387  34.936   4.221
74329W        W35992  13.615  40.368   2.716
74330W        W35993  29.173  16.287  13.327
74331W        W35994  31.631  38.862  11.396
74332W        W35995  13.285  40.415  11.956
74333W        W35996  40.002   5.897   1.336
74334W        W35997  40.353   4.371  14.312
74335W        W35998  15.707  31.066  10.622
74336W        W35999  13.792  23.999   2.673
74337W        W36000  13.172   0.428  12.938
74338W        W36001  38.867   8.784  14.965
74339W        W36002  11.269  43.841   2.738
74340W        W36003  26.208  37.553  13.437
74341W        W36004  26.074  15.313   4.232
74342W        W36005  13.281  30.028  12.043
74343W        W36006  38.848   6.844   3.670
74344W        W36007  10.265   1.290   4.288
74345W        W36008   1.921  16.665   1.259
74346W        W36009  32.980  22.518  13.445
74347W        W36010  43.382  37.984   4.661
74348W        W36011  11.748  22.075   0.932
74349W        W36012  30.080  18.295  13.935
74350W        W36013  29.431  26.630   4.351
74351W        W36014  24.480  31.100  13.336
74352W        W36015  44.809   5.319  14.408
74353W        W36016   9.370  10.697  13.813
74354W        W36017  39.877  20.585   4.759
74355W        W36018   6.758  44.313   2.857
74356W        W36019  17.791  12.694   0.916
74357W        W36020  28.103  17.145   3.664
74358W        W36021  42.786  22.570   3.211
74359W        W36022   7.737  12.766   1.813
74360W        W36023   1.920  36.583  10.434
74361W        W36024   1.362  28.612  13.350
74362W        W36025   0.942   9.868  12.361
74363W        W36026  11.200  34.936  11.903
74364W        W36027  11.181  37.975   1.387
74365W        W36028  42.408  32.605  13.547
74366W        W36029  24.211  40.970   3.810
74367W        W36030  41.811   5.833  13.873
74368W        W36031  39.007  21.638  14.793
74369W        W36032  20.118  34.955   1.867
74370W        W36033  25.120   8.375  14.301
74371W        W36034  42.980  38.889   0.356
74372W        W36035  30.484  22.615  12.023
74373W        W36036   3.336  27.139   4.807
74374W        W36037  15.196  36.944  11.391
74375W        W36038  40.329   9.188  14.451
74376W        W36039  36.359  43.457  12.527
74377W        W36040  15.606  37.851   2.749
74378W        W36041   5.206   0.863  10.057
74379W        W36042   7.881   4.370   1.726
74380W        W36043   5.716  15.140  10.594
74381W        W36044   3.428  18.763   2.719
74382W        W36045  17.753  19.777  10.904
74383W        W36046  42.867  19.271   3.155
74384W        W36047  37.528  24.660   1.377
74385W        W36048  35.962  33.052  10.486
74386W        W36049  38.018  31.941  13.013
74387W        W36050  24.674  15.734   2.821
74388W        W36051  34.551  40.995   0.352
74389W        W36052  29.002  32.110   5.258
74390W        W36053   0.961  15.739   0.810
74391W        W36054  15.196  30.921  11.437
74392W        W36055  10.741   9.210  11.882
74393W        W36056  39.372   8.282   0.849
74394W        W36057  33.449  29.653  13.497
74395W        W36058  23.238  22.735  12.464
74396W        W36059   1.916  25.510  12.854
74397W        W36060   1.238  42.979   4.210
74398W        W36061  16.304  17.759   2.417
74399W        W36062  11.188  40.942   3.370
74400W        W36063  27.181  20.540  12.049
74401W        W36064  36.457  41.996  13.432
74402W        W36065  37.938  18.189  11.922
74403W        W36066  29.504  40.866  11.400
74404W        W36067   0.941  37.566  10.972
74405W        W36068  35.942  10.344  11.599
74406W        W36069  41.961  41.302  10.643
74407W        W36070  10.874  33.380   3.298
74408W        W36071  39.471  37.475  14.291
74409W        W36072   4.898   8.374  10.539
74410W        W36073  29.103  31.447  14.327
74411W        W36074  16.131  16.700  11.046
74412W        W36075  33.529  38.043   4.703
74413W        W36076  14.278   0.978   1.378
74414W        W36077  32.479  13.152  10.437
74415W        W36078  44.377  13.134   1.379
74416W        W36079   5.909  26.978  13.457
74417W        W36080  16.282   8.677   2.213
74418W        W36081  12.352  18.100   3.848
74419W        W36082  14.719  27.085   1.730
74420W        W36083   8.178  39.943   0.441
74421W        W36084  26.479  14.227   4.824
74422W        W36085   6.729  15.639   1.904
74423W        W36086  39.048  17.288  11.094
74424W        W36087  18.241  10.728   2.725
74425W        W36088  24.708  39.883   3.181
74426W        W36089  28.657  14.276   4.178
74427W        W36090  41.325  30.522  14.011
74428W        W36091  27.495  41.331   1.867
74429W        W36092  42.946  36.507  12.970
74430W        W36093  38.984   7.281  11.441
74431W        W36094  36.940   9.300  13.859
74432W        W36095  39.426  16.810  10.951
74433W        W36096  25.071  19.251   3.803
74434W        W36097  32.910   0.972  12.848
74435W        W36098  11.668  32.022  14.391
74436W        W36099  28.133  29.443  14.877
74437W        W36100   5.369  35.473  12.466
74438W        W36101   4.838  23.669  11.519
74439W        W36102  40.857  22.646  14.292
74440W        W36103  10.701  27.688   4.186
74441W        W36104  23.599  39.861  10.412
74442W        W36105  21.682   7.221  13.909
74443W        W36106  41.788  32.558   2.797
74444W        W36107  10.155  40.514   3.249
74445W        W36108  22.533  26.631   2.881
74446W        W36109  27.561  13.236   1.376
74447W        W36110  31.521  24.122  12.467
74448W        W36111   4.777   7.893  12.355
74449W        W36112  37.528   7.807  14.419
74450W        W36113  40.408  35.872  10.505
74451W        W36114   2.720   4.863  14.405
74452W        W36115  40.356  13.662  13.499
74453W        W36116  26.188  42.878   4.791
74454W        W36117   1.344  30.518   1.347
74455W        W36118  14.820  39.015   1.449
74456W        W36119  12.311  32.528  10.518
74457W        W36120  28.644  43.274   4.631
74458W        W36121   3.418   9.857   2.362
74459W        W36122   8.819   0.907  11.858
74460W        W36123   2.941  29.569   2.896
74461W        W36124  44.333  31.146   5.245
74462W        W36125  23.047  25.996   0.367
74463W        W36126   5.231  31.066  11.078
74464W        W36127  19.617   1.342   2.240
74465W        W36128  22.157  41.341  11.400
74466W        W36129  43.784   9.819  11.511
74467W        W36130  18.580  39.409  10.459
74468W        W36131  18.160  30.644  13.438
74469W        W36132  37.066  33.436  11.891
74470W        W36133   5.205  26.511   0.410
74471W        W36134  43.778   6.825   1.917
74472W        W36135  23.223   9.750  12.012
74473W        W36136  17.194  41.486   0.281
74474W        W36137   6.330  11.728   4.240
74475W        W36138   3.309  42.465   1.903
74476W        W36139  21.662  23.723   2.883
74477W        W36140  27.536   3.287  13.442
74478W        W36141  39.974  33.926   3.321
74479W        W36142  15.088  37.870  11.596
74480W        W36143  10.219   6.737  13.347
74481W        W36144  16.150  12.310  11.078
74482W        W36145  44.346  22.656  14.798
74483W        W36146  25.108  41.474  14.490
74484W        W36147  18.280   3.943  12.023
74485W        W36148  22.747  15.806   4.705
74486W        W36149  12.814  37.882  12.033
74487W        W36150  29.996  29.634   2.683
74488W        W36151  12.274  17.169  13.339
74489W        W36152  34.446  23.497  14.816
74490W        W36153   8.714  32.101   2.670
74491W        W36154  26.130  26.699   5.274
74492W        W36155  32.399  43.311  14.855
74493W        W36156   9.241  13.681  14.892
74494W        W36157   2.768  38.062  10.892
74495W        W36158  35.991  15.659  14.439
74496W        W36159   5.269  22.032   1.249
74497W        W36160   3.318  18.706  12.953
74498W        W36161  17.217  12.727   2.665
74499W        W36162  41.829  40.435  13.391
74500W        W36163   1.358   0.818  12.867
74501W        W36164  36.381   2.306  13.322
74502W        W36165  11.313  42.944   3.354
74503W        W36166  29.642  21.072   1.742
74504W        W36167  25.709  35.573   4.299
74505W        W36168  34.009  27.948   4.292
74506W        W36169  28.090  38.831  13.968
74507W        W36170   4.315  16.086   0.757
74508W        W36171  35.514  14.306   2.866
74509W        W36172   9.326   1.751   2.857
74510W        W36173  18.052  28.443  13.335
74511W        W36174  20.688  18.249  11.446
74512W        W36175  22.526   5.737   3.324
74513W        W36176  26.062  25.997  11.056
74514W        W36177   2.283  43.818  13.542
74515W        W36178   1.887  25.661   3.810
74516W        W36179  35.859  37.398  13.794
74517W        W36180  44.867   1.741   1.724
74518W        W36181  36.979  36.383  10.470
74519W        W36182   1.959  39.432   1.286
74520W        W36183  39.314  40.842   1.231
74521W        W36184   3.838  20.687  11.865
74522W        W36185  19.251  26.580   1.853
74523W        W36186   3.778  14.257   2.327
74524W        W36187  20.723  22.729   0.316
74525W        W36188  15.323  33.518   2.829
74526W        W36189  19.600   6.824  12.939
74527W        W36190  35.001  26.179  14.996
74528W        W36191  30.635  39.428   4.212
74529W        W36192  36.419   8.260   0.419
74530W        W36193   6.897  41.847   1.389
74531W        W36194  32.391  23.124  12.353
74532W        W36195  14.109  37.832  12.511
74533W        W36196  37.082  38.006  10.469
74534W        W36197  32.615   4.731  10.525
74535W        W36198  44.764  13.730  12.483
74536W        W36199   4.311   7.887   3.674
74537W        W36200  18.245  21.119  11.529
74538W        W36201  27.550   5.222  13.371
74539W        W36202   3.825   7.381  12.346
74540W        W36203  36.066  41.907  13.531
74541W        W36204   5.351  24.041   4.715
74542W        W36205  18.235  22.743  11.095
74543W        W36206  18.141  14.117   4.281
74544W        W36207  42.298  15.711   5.103
74545W        W36208   3.299  26.548  11.548
74546W        W36209  13.641  34.565   5.288
74547W        W36210  29.590   8.771   1.915
74548W        W36211  27.171  38.501  13.340
74549W        W36212  10.231   0.319  14.504
74550W        W36213   6.347  31.507   1.790
74551W        W36214  13.604  39.051  12.450
74552W        W36215  17.801  10.191  14.934
74553W        W36216  11.651  23.989  10.410
74554W        W36217  23.551   2.769   2.398
74555W        W36218  34.070   5.318   5.759
74556W        W36219   2.958  24.155   0.784
74557W        W36220  37.899  26.977  12.500
74558W        W36221   4.401  10.653  11.978
74559W        W36222  35.088  15.775  10.575
74560W        W36223   1.369  29.667  10.582
74561W        W36224   3.292  17.242   4.769
74562W        W36225  27.953   5.873   2.842
74563W        W36226  37.457  29.946  11.908
74564W        W36227  18.646  37.882   0.258
74565W        W36228  30.633  16.642  10.602
74566W        W36229  33.879   5.234  10.456
74567W        W36230  15.810  21.531   4.215
74568W        W36231  20.723   6.691   3.660
74569W        W36232  30.523  11.297   0.399
74570W        W36233  11.711  23.734  11.971
74571W        W36234  32.431  25.023   4.620
74572W        W36235  41.491   9.226  11.506
74573W        W36236   9.234   1.424   0.864
74574W        W36237  13.288   2.336   4.826
74575W        W36238  27.018  42.888   2.852
74576W        W36239  26.494   1.858  12.549
74577W        W36240  37.451  18.131   4.831
74578W        W36241  10.696  30.589  13.919
74579W        W36242  30.654  12.629   0.362
74580W        W36243  35.065  36.916  11.402
74581W        W36244  44.294  13.212   3.763
74582W        W36245   5.424  14.331   0.350
74583W        W36246  10.820  20.081  14.789
74584W        W36247  32.056  37.944   2.892
74585W        W36248  43.511  21.113  12.960
74586W        W36249  34.384  36.040   2.697
74587W        W36250  20.076  42.372  10.593
74588W        W36251  27.499   7.345   1.293
74589W        W36252  14.662  29.495   1.328
74590W        W36253  34.474  24.068  13.061
74591W        W36254  16.081  23.583  12.540
74592W        W36255   2.807  21.063  14.431
74593W        W36256  26.141  27.062  14.018
74594W        W36257  13.310  33.494  10.640
74595W        W36258  22.077  13.182  12.556
74596W        W36259  11.326  32.408  13.435
74597W        W36260   8.738  19.535   3.301
74598W        W36261  33.069   1.792   3.323
74599W        W36262  22.627  23.232   1.825
74600W        W36263  29.166  19.771  13.455
74601W        W36264  40.962   4.831   0.426
74602W        W36265  33.497  22.634   4.678
74603W        W36266  40.927   6.341  10.084
74604W        W36267  43.369   0.448  10.577
74605W        W36268  42.293  32.970   2.339
74606W        W36269  14.675  40.473   2.178
74607W        W36270  17.591  40.892  11.946
74608W        W36271  37.413  30.546  10.044
74609W        W36272  20.178  38.838  12.468
74610W        W36273  12.807   8.837  10.478
74611W        W36274  12.339  32.635  12.412
74612W        W36275   3.432  14.101  14.510
74613W        W36276  32.398  32.089  13.010
74614W        W36277   2.323  20.562  12.854
74615W        W36278  20.167  13.257  10.486
74616W        W36279  13.689  35.447   9.593
74617W        W36280  26.625  16.196  11.483
74618W        W36281  36.858  20.068   2.398
74619W        W36282  35.862   7.385   3.851
74620W        W36283  37.504  36.515  14.423
74621W        W36284  28.180   4.402  13.477
74622W        W36285  40.537  37.901   4.674
74623W        W36286  35.521  14.620   3.207
74624W        W36287   8.230  27.673  14.402
74625W        W36288  15.787  42.342   4.206
74626W        W36289  23.117  18.155  12.091
74627W        W36290   2.455  35.876   5.194
74628W        W36291  22.630  22.659   2.408
74629W        W36292   0.366  21.527  12.995
74630W        W36293   8.763  39.884  13.894
74631W        W36294  28.131  11.322   0.932
74632W        W36295   6.828   5.845  14.843
74633W        W36296  13.107   3.460   0.907
74634W        W36297  39.041  10.141  11.387
74635W        W36298   4.868  17.120   3.322
74636W        W36299   8.367  27.158  10.992
74637W        W36300  12.174  42.524  11.446
74638W        W36301  36.034  19.584   1.861
74639W        W36302   6.685  20.587   3.692
74640W        W36303  38.069  42.388   4.248
74641W        W36304  14.305  19.281   4.115
74642W        W36305   0.920  13.239  13.534
74643W        W36306  41.365   5.897   0.400
74644W        W36307   7.324  15.204  10.570
74645W        W36308  40.997  16.089   3.772
74646W        W36309  34.373   3.842   4.266
74647W        W36310  43.788   9.822   2.783
74648W        W36311  40.932  24.224   2.747
74649W        W36312  29.488  28.142  13.541
74650W        W36313  28.951  44.405  11.119
74651W        W36314  28.651  13.710   1.839
74652W        W36315  42.963  10.348   2.249
74653W        W36316  19.595  22.999  13.955
74654W        W36317  25.033   7.276  10.492
74655W        W36318  17.135   2.407   2.841
74656W        W36319   2.906  42.928   1.372
74657W        W36320  38.343  18.273  12.078
74658W        W36321  20.068   8.238   2.769
74659W        W36322   5.389  28.635  13.325
74660W        W36323  40.505  21.191   3.342
74661W        W36324  39.026  29.504   5.097
74662W        W36325  27.471  21.567  10.933
74663W        W36326  22.705  42.974  12.926
74664W        W36327  38.820  26.541   0.336
74665W        W36328   0.320  21.168  12.390
74666W        W36329   3.733  36.488  10.512
74667W        W36330  31.067  33.421  12.056
74668W        W36331  25.481  42.286  11.475
74669W        W36332   2.823   6.334   2.871
74670W        W36333  40.868  16.216   0.281
74671W        W36334   5.785  44.317   2.270
74672W        W36335  18.707  34.882   0.439
74673W        W36336   5.915  14.725   4.605
74674W        W36337  41.796  40.308  12.572
74675W        W36338  32.059   2.384   0.388
74676W        W36339   7.330   5.216  13.930
74677W        W36340  33.468  18.118   1.225
74678W        W36341   3.766  27.659   0.397
74679W        W36342  10.653  26.695  14.444
74680W        W36343   7.356  39.859  11.099
74681W        W36344  36.023  23.142   0.948
74682W        W36345  14.307  38.333  12.078
74683W        W36346   0.481  42.983  14.302
74684W        W36347  40.837   6.917  10.953
74685W        W36348  34.605   5.215   9.920
74686W        W36349   0.748  42.851  10.622
74687W        W36350  40.519  18.271   2.683
74688W        W36351  29.437  37.891   0.428
74689W        W36352  18.676  39.342  12.437
74690W        W36353  36.352  38.566  12.907
74691W        W36354  28.475  27.601   4.806
74692W        W36355  32.500  36.967  13.454
74693W        W36356  28.645  27.940   0.400
74694W        W36357  26.478   6.402   4.662
74695W        W36358  11.218   5.925   4.205
74696W        W36359   8.816  35.393  10.558
74697W        W36360  27.524  36.993  10.470
74698W        W36361   1.376  26.648  13.332
74699W        W36362  13.192   5.893  12.557
74700W        W36363  29.427   4.433  14.849
74701W        W36364  12.724  32.631   3.639
74702W        W36365  42.367   4.257   4.823
74703W        W36366   5.704  19.766  12.459
74704W        W36367  41.335  11.781   4.341
74705W        W36368  35.470  12.651   2.275
74706W        W36369  38.896  21.679   0.299
74707W        W36370  31.626  36.945  14.772
74708W        W36371  41.028  31.455  12.363
74709W        W36372  27.464   9.648  14.972
74710W        W36373  18.055  41.434  12.522
74711W        W36374  13.316  19.686   5.170
74712W        W36375  25.488   0.277   2.770
74713W        W36376  37.488  31.046   4.167
74714W        W36377  27.046  27.563  10.481
74715W        W36378   7.246   7.263  14.835
74716W        W36379  24.156  13.729  11.564
74717W        W36380  14.226   7.241  11.059
74718W        W36381  40.447  13.211   2.236
74719W        W36382  15.097   1.312  11.587
74720W        W36383  24.550  26.645  14.278
74721W        W36384  37.869  13.326  14.839
74722W        W36385  40.549  36.945  11.020
74723W        W36386  42.895  40.862  11.032
74724W        W36387  42.852   5.389  14.394
74725W        W36388   5.868  16.762   0.946
74726W        W36389   4.364  21.248  11.973
74727W        W36390   2.351  30.524   3.213
74728W        W36391  17.655  24.973  12.441
74729W        W36392  34.965   6.862  12.051
74730W        W36393  44.002  36.853  12.060
74731W        W36394  22.724  42.877  14.472
74732W        W36395  18.096  41.313  12.942
74733W        W36396  14.216   9.842   4.744
74734W        W36397  11.236  20.531  12.870
74735W        W36398  41.994  26.056  12.526
74736W        W36399  30.043  44.366   0.907
74737W        W36400  34.423   5.754   2.301
74738W        W36401   0.883  43.453  10.620
74739W        W36402  42.442  33.078   0.809
74740W        W36403  14.314  39.053   1.412
74741W        W36404  18.273  15.266  13.423
74742W        W36405  43.797   6.733   3.226
74743W        W36406  25.587  29.159  10.079
74744W        W36407  32.081  39.856  12.973
74745W        W36408  24.158  37.919  12.007
74746W        W36409  12.307  17.658   0.885
74747W        W36410  28.120  20.734   2.810
74748W        W36411  38.984  27.019  13.519
74749W        W36412  35.030  44.853   3.204
74750W        W36413  26.008  16.084  14.809
74751W        W36414  35.472  43.801   1.806
74752W        W36415  22.564  41.969   2.870
74753W        W36416  31.500  41.454  11.891
74754W        W36417  21.735   9.693   0.456
74755W        W36418  29.132  31.971   0.483
74756W        W36419  36.426  18.226   4.339
74757W        W36420  39.035   2.959   2.236
74758W        W36421   3.892   4.943  12.362
74759W        W36422  30.555  26.665  14.359
74760W        W36423  18.580  14.154  14.336
74761W        W36424   4.815   0.285   2.294
74762W        W36425   8.297  33.472  11.970
74763W        W36426  18.722  42.987   3.745
74764W        W36427  26.139  35.372   1.355
74765W        W36428  37.919  32.102   4.701
74766W        W36429  23.090  21.224  12.878
74767W        W36430  25.694  17.567  11.114
74768W        W36431  34.972  11.847  14.864
74769W        W36432  38.564   5.344   1.903
74770W        W36433  28.455  23.106   3.689
74771W        W36434  34.105  26.638   1.712
74772W        W36435  12.667  17.304   1.826
74773W        W36436  35.531  21.053  12.409
74774W        W36437  42.902  21.077  14.473
74775W        W36438  31.986  26.629   3.835
74776W        W36439  14.806  34.533   5.256
74777W        W36440  32.088  16.276   3.190
74778W        W36441  28.020  27.535   0.449
74779W        W36442   0.370  18.765  13.371
74780W        W36443   0.974  21.686   2.330
74781W        W36444  17.297  39.947  10.550
74782W        W36445  20.576  36.868   1.285
74783W        W36446  10.872  11.259  12.342
74784W        W36447   0.281  41.939   1.245
74785W        W36448  17.260   9.235  10.547
74786W        W36449   4.944   9.779   0.950
74787W        W36450   6.791  18.773  14.009
74788W        W36451  40.389  10.664  10.435
74789W        W36452   2.381  33.594  11.000
74790W        W36453  31.591  32.462  11.900
74791W        W36454  21.029  37.053  14.815
74792W        W36455  42.374  27.545   0.774
74793W        W36456  19.117   5.435   3.642
74794W        W36457  33.877  41.379   2.677
74795W        W36458   8.301  35.387   2.418
74796W        W36459  21.113  16.200   2.867
74797W        W36460  33.037  32.066   1.758
74798W        W36461  24.175   0.405   0.279
74799W        W36462  25.997   3.364   3.697
74800W        W36463  37.021   7.406  11.522
74801W        W36464  41.323   8.671   0.884
74802W        W36465  13.832  36.558  12.975
74803W        W36466  43.767  37.930   3.870
74804W        W36467  23.638  18.694  13.950
74805W        W36468  31.416  20.131  12.405
74806W        W36469  31.588  11.848   0.805
74807W        W36470  37.562  11.272  11.062
74808W        W36471  16.572  44.420   0.426
74809W        W36472   6.373   6.363   3.863
74810W        W36473  37.875  24.992   1.290
74811W        W36474  30.527  44.312   3.271
74812W        W36475  37.507  17.123  14.353
74813W        W36476   9.759  14.161   3.352
74814W        W36477  11.287   7.277  14.282
74815W        W36478  31.090  15.320  14.323
74816W        W36479  14.661   7.843   1.292
74817W        W36480   2.817  16.125   3.704
74818W        W36481  20.048  42.808  11.373
74819W        W36482  23.998  15.312   1.784
74820W        W36483  38.476   6.738   4.658
74821W        W36484  16.601  17.133   3.256
74822W        W36485  21.589   6.685   2.827
74823W        W36486  32.914  14.272  11.484
74824W        W36487  31.099  14.603  12.019
74825W        W36488   4.256  23.165  10.619
74826W        W36489   9.722   8.183   0.298
74827W        W36490  21.263  17.625   0.911
74828W        W36491   1.454   4.392   0.247
74829W        W36492  20.525  25.152   3.797
74830W        W36493  28.642  34.397   3.642
74831W        W36494  12.851  37.856   3.154
74832W        W36495  44.787  43.986   0.412
74833W        W36496   6.289   1.458   0.366
74834W        W36497  40.919  43.804  13.875
74835W        W36498   8.402  35.542   4.751
74836W        W36499  42.494   7.843   2.670
74837W        W36500  36.016  24.500   3.637
74838W        W36501  22.577  15.711  11.090
74839W        W36502   8.320  42.879   2.684
74840W        W36503   7.791  26.089  13.351
74841W        W36504  30.957  18.119  11.861
74842W        W36505  38.429  15.617  14.390
74843W        W36506  34.944   7.865   1.797
74844W        W36507  34.918  35.865  12.915
74845W        W36508  34.392  19.229   2.786
74846W        W36509  29.656  22.543  11.894
74847W        W36510  44.329  38.396   4.113
74848W        W36511   5.700  41.862  10.549
74849W        W36512  19.725  16.681   4.160
74850W        W36513   8.238  32.027  13.512
74851W        W36514  17.635  44.340   0.865
74852W        W36515  27.556   8.380   1.758
74853W        W36516  42.031  26.080  12.856
74854W        W36517  15.192  10.269   2.187
74855W        W36518  15.687  20.619   2.669
74856W        W36519  30.941  11.636   1.898
74857W        W36520   6.392  18.571  10.514
74858W        W36521  39.044   4.849  12.395
74859W        W36522  25.069  44.316  14.441
74860W        W36523  41.800  33.086   1.722
74861W        W36524  39.887  38.950  13.043
74862W        W36525  28.037  20.677  11.100
74863W        W36526  10.280  14.715   2.249
74864W        W36527   2.422  24.064  11.062
74865W        W36528   0.975  10.742   2.180
74866W        W36529  14.806  41.403   5.297
74867W        W36530  37.391   5.262   2.749
74868W        W36531  19.743   2.460  13.790
74869W        W36532  19.611  33.103   0.285
74870W        W36533   6.840   3.430  13.916
74871W        W36534  12.326  43.979   3.263
74872W        W36535  36.013  36.376  13.351
74873W        W36536  27.581  26.959   2.266
74874W        W36537  43.014  39.826  13.519
74875W        W36538  22.619  30.440  11.423
74876W        W36539  17.719  25.561   4.148
74877W        W36540   9.355   7.203  14.845
74878W        W36541  29.478  28.135   3.356
74879W        W36542   1.965  24.555  13.814
74880W        W36543  40.459  39.458   1.904
74881W        W36544  38.419   0.289  13.333
74882W        W36545   6.221  12.145  12.545
74883W        W36546  26.547  35.522  12.527
74884W        W36547  44.460  34.072  14.286
74885W        W36548  22.200  32.901   3.308
74886W        W36549  43.009  17.722   5.691
74887W        W36550  35.862  34.375   0.339
74888W        W36551   0.257  17.182   5.315
74889W        W36552  44.985  41.000   0.474
74890W        W36553   0.847  13.628   1.338
74891W        W36554  33.948  34.110  12.094
74892W        W36555  28.601  39.530   2.740
74893W        W36556  36.923   1.252   2.704
74894W        W36557  14.721  24.992   3.217
74895W        W36558   1.371   8.323  11.465
74896W        W36559  31.472   8.235   0.890
74897W        W36560  39.851  36.071  12.434
74898W        W36561   2.319  24.084   3.305
74899W        W36562   3.272  30.067  13.500
74900W        W36563  30.983  43.994   0.446
74901W        W36564  35.399  41.002   3.281
74902W        W36565  12.137  42.333   4.763
74903W        W36566  20.639  16.318  12.024
74904W        W36567  42.470   8.768  11.961
74905W        W36568  37.448  43.421   0.339
74906W        W36569  32.484  38.005   0.822
74907W        W36570   2.470  13.770   2.338
74908W        W36571   6.328  29.462  10.535
74909W        W36572  27.675  25.129   4.310
74910W        W36573   6.907  14.254   5.212
74911W        W36574  19.086  23.503   0.883
74912W        W36575   1.416  27.968   1.451
74913W        W36576   9.376  44.888  14.446
74914W        W36577   9.383   1.792  11.405
74915W        W36578  39.814  21.592   1.928
74916W        W36579  30.090  19.677  11.109
74917W        W36580  29.514  40.902   1.404
74918W        W36581  32.568  39.832  14.849
74919W        W36582  43.270  30.561  12.867
74920W        W36583  32.463  38.072  11.965
74921W        W36584   6.853  10.746  13.468
74922W        W36585  20.561  44.815   1.450
74923W        W36586  25.133  42.792  10.913
74924W        W36587  13.186  43.839   2.884
74925W        W36588   5.809   6.244  12.878
74926W        W36589  11.767   6.223  12.066
74927W        W36590  38.536  43.854   3.208
74928W        W36591  17.673  10.167  13.428
74929W        W36592  12.147  26.039  14.302
74930W        W36593  10.793   5.853  13.539
74931W        W36594  23.507  30.533   3.311
74932W        W36595   9.331  14.214  12.878
74933W        W36596  23.518  14.662   2.868
74934W        W36597  11.230  44.949  13.445
74935W        W36598  18.238  23.563  13.803
74936W        W36599  37.996  33.457   0.766
74937W        W36600  39.911   4.865  14.995
74938W        W36601  42.807  29.120  13.404
74939W        W36602   5.384  39.939   0.426
74940W        W36603  35.064   4.204   4.332
74941W        W36604  29.631  22.643  13.936
74942W        W36605  21.634  20.682  13.332
74943W        W36606  17.298   9.367   2.661
74944W        W36607  16.248   6.288  14.935
74945W        W36608  41.344  34.879   4.748
74946W        W36609  25.035   5.855   0.474
74947W        W36610  30.531   5.394  14.970
74948W        W36611   9.833  18.652  14.976
74949W        W36612  32.635   0.917  10.602
74950W        W36613  17.619  21.639  14.913
74951W        W36614  36.526  11.818  10.537
74952W        W36615  16.668  20.628   3.633
74953W        W36616  13.726  31.105   2.841
74954W        W36617  29.034  10.688   3.644
74955W        W36618  13.638  38.928   1.318
74956W        W36619  19.078  43.291  11.523
74957W        W36620  17.588   4.716  10.478
74958W        W36621  22.065  13.831  11.426
74959W        W36622  39.413  25.061   4.171
74960W        W36623  34.551  13.636   2.304
74961W        W36624  37.577  32.499   4.658
74962W        W36625  31.963  37.455  11.006
74963W        W36626  35.976  25.653   2.333
74964W        W36627  22.193   5.301  10.599
74965W        W36628  43.329  24.142   2.294
74966W        W36629   5.356  38.879  13.009
74967W        W36630  11.650  30.533  10.147
74968W        W36631  12.261   7.873  14.486
74969W        W36632   8.900  40.469  12.053
74970W        W36633  15.271  36.547   2.212
74971W        W36634  38.453  17.199  14.413
74972W        W36635  33.444  12.780  12.901
74973W        W36636  10.675   6.361   3.802
74974W        W36637   3.796  20.174  11.955
74975W        W36638  14.219  18.601   2.267
74976W        W36639  21.199  24.058   2.370
74977W        W36640  44.990  14.763  11.872
74978W        W36641   6.217  20.104   4.814
74979W        W36642  12.337  19.210  14.394
74980W        W36643  22.639  14.142   0.743
74981W        W36644  32.117  15.580  12.438
74982W        W36645  44.001  33.995  13.052
74983W        W36646  24.682  37.381  12.077
74984W        W36647   0.757  14.810   1.324
74985W        W36648  34.392  28.945  10.904
74986W        W36649  38.029  32.050   1.919
74987W        W36650  33.041  16.263  11.046
74988W        W36651  23.714  31.984  14.466
74989W        W36652  16.275  22.545  13.865
74990W        W36653  36.569  35.435   2.697
74991W        W36654  32.126  33.619   1.274
74992W        W36655  39.426  44.286   1.725
74993W        W36656  30.129  31.549  14.985
74994W        W36657  10.730  41.846  13.808
74995W        W36658  28.974  29.102   3.371
74996W        W36659  16.154  21.205  12.973
74997W        W36660  31.594  11.157  10.902
74998W        W36661  34.515  35.982   4.632
74999W        W36662  12.727  25.522   2.303
75000W        W36663  25.493  11.163   2.381
75001W        W36664  18.119  18.567   2.210
75002W        W36665  18.677  23.670   3.736
75003W        W36666  20.168  42.906   3.846
75004W        W36667  12.349  15.096   3.743
75005W        W36668  22.550   1.270  10.059
75006W        W36669  13.107  13.834   4.167
75007W        W36670  10.758  16.171  13.501
75008W        W36671  15.780  31.078  11.452
75009W        W36672  20.608   7.698   4.211
75010W        W36673  17.098   6.824  12.341
75011W        W36674  40.912  18.064   4.661
75012W        W36675  35.016  24.660  14.515
75013W        W36676   0.474  39.368   4.823
75014W        W36677  21.595   0.852   1.707
75015W        W36678   2.468  38.543  11.914
75016W        W36679   4.304  44.892  11.452
75017W        W36680  37.434  20.627  11.009
75018W        W36681  10.862  28.168   9.945
75019W        W36682  35.920  20.673   0.914
75020W        W36683  10.748  23.696   1.408
75021W        W36684  34.407  19.064   0.927
75022W        W36685  28.130  18.577   0.882
75023W        W36686  10.314   7.767  14.403
75024W        W36687   9.806   4.895  10.894
75025W        W36688  37.965  42.430   0.768
75026W        W36689   8.669  19.688  12.875
75027W        W36690   0.929  14.190   9.984
75028W        W36691   4.431  12.752  12.853
75029W        W36692  26.146  32.894  12.886
75030W        W36693  35.456   2.778  11.431
75031W        W36694  15.159  25.094  10.481
75032W        W36695   3.944   3.847   2.844
75033W        W36696   2.318  34.371   2.226
75034W        W36697  27.646  11.721   3.734
75035W        W36698  20.161  44.462  13.818
75036W        W36699  38.861  40.389   3.870
75037W        W36700   3.952  17.767  11.462
75038W        W36701  17.139  18.588  13.518
75039W        W36702  30.532  29.919  13.506
75040W        W36703  29.050   6.368  10.422
75041W        W36704  13.727  35.903   5.124
75042W        W36705  28.113  24.161   3.216
75043W        W36706   8.356  42.985   4.720
75044W        W36707  19.055  30.519  14.470
75045W        W36708   6.889   9.809  14.917
75046W        W36709   8.270   4.402   1.899
75047W        W36710   2.409  31.421  13.799
75048W        W36711  40.015   8.737  12.942
75049W        W36712   9.288   2.362   1.345
75050W        W36713  31.974  37.005  11.015
75051W        W36714   7.390   4.762  10.593
75052W        W36715  37.084  41.961  14.331
75053W        W36716  34.016  31.963  12.927
75054W        W36717   0.258  44.832   0.248
75055W        W36718  35.861  17.598  12.016
75056W        W36719  39.490  15.679  14.473
75057W        W36720  42.418  12.164  12.929
75058W        W36721  35.394  39.895  12.891
75059W        W36722   2.840   4.346   3.849
75060W        W36723   6.330  32.944   2.196
75061W        W36724  16.206  33.117   3.683
75062W        W36725  28.472  12.362   3.811
75063W        W36726  32.100  24.662   4.814
75064W        W36727  30.993   7.758  10.926
75065W        W36728  10.675  14.189   0.330
75066W        W36729   8.715  30.161   4.355
75067W        W36730  15.646  28.547  13.927
75068W        W36731  19.060  39.904   3.690
75069W        W36732   8.894  27.004  13.919
75070W        W36733  27.507  44.342  12.913
75071W        W36734  33.033  20.563  11.985
75072W        W36735   5.391  35.057   1.706
75073W        W36736   9.759   3.414   4.315
75074W        W36737  44.321   4.795   3.378
75075W        W36738   1.783  19.636  11.537
75076W        W36739   3.249  32.409   4.758
75077W        W36740  21.598  15.254  10.636
75078W        W36741  33.982   9.676  13.835
75079W        W36742  27.511  29.454   2.799
75080W        W36743  38.461  41.829   3.665
75081W        W36744  20.115  20.136   0.931
75082W        W36745  21.723  25.532   2.850
75083W        W36746  14.098   4.942  13.801
75084W        W36747  25.617  11.173  12.496
75085W        W36748  34.380  41.353   1.440
75086W        W36749  24.524  32.010   9.992
75087W        W36750  39.522  18.250  13.433
75088W        W36751  43.863   7.314  12.919
75089W        W36752  20.114   1.455   3.239
75090W        W36753  32.086   9.846  14.495
75091W        W36754   3.374  35.104   2.818
75092W        W36755  20.263  19.630   4.146
75093W        W36756  32.900  41.959  13.064
75094W        W36757  28.091  15.097  12.469
75095W        W36758  20.119  21.259   2.197
75096W        W36759  18.740  15.120   1.393
75097W        W36760   1.318  29.579  11.881
75098W        W36761  11.336  12.295   4.809
75099W        W36762  23.070  17.799   1.742
75100W        W36763   1.326  24.542   0.935
75101W        W36764  13.816   2.267  12.551
75102W        W36765  24.165   1.386   2.808
75103W        W36766  11.692   3.346   5.266
75104W        W36767   0.452  14.803   2.822
75105W        W36768  29.131  11.745   1.723
75106W        W36769  24.146   8.395  10.519
75107W        W36770   6.903  40.901   2.783
75108W        W36771  17.798  40.936   0.785
75109W        W36772  18.199   5.764  13.954
75110W        W36773  43.896  37.561   0.370
75111W        W36774  42.393  33.391   3.234
75112W        W36775   1.422  42.478   3.366
75113W        W36776  33.503  20.122  12.831
75114W        W36777   6.687  35.898  10.413
75115W        W36778  42.385  18.087  10.510
75116W        W36779   3.399  42.391   3.173
75117W        W36780  25.671  32.977   0.278
75118W        W36781  18.187   1.320  10.452
75119W        W36782  11.824  24.624   4.330
75120W        W36783  18.714  36.532   4.192
75121W        W36784  24.579   9.663   2.231
75122W        W36785  23.239  43.387  10.534
75123W        W36786  14.129  17.234   3.651
75124W        W36787  13.246  15.275   3.244
75125W        W36788   9.677  13.763  13.991
75126W        W36789   9.677  12.622  11.021
75127W        W36790  39.484  39.855   0.328
75128W        W36791  24.046   6.224  12.841
75129W        W36792  33.012  36.553   1.792
75130W        W36793  11.201  44.784   1.931
75131W        W36794  14.788  17.258  13.309
75132W        W36795  23.506  23.497   4.231
75133W        W36796  21.255  44.453  14.886
75134W        W36797   5.353   4.784   3.801
75135W        W36798  29.053  20.097  12.928
75136W        W36799  38.524  25.196   2.196
75137W        W36800  33.418   0.302   0.423
75138W        W36801   2.391  27.046   4.242
75139W        W36802  39.994  27.159   0.821
75140W        W36803  12.230   7.246   5.255
75141W        W36804  25.007  38.443   1.729
75142W        W36805   2.347  33.444  12.009
75143W        W36806  34.995  25.545  14.766
75144W        W36807  19.703  19.266  12.528
75145W        W36808  13.122   6.343  11.121
75146W        W36809  33.457   0.799   2.357
75147W        W36810   1.923   9.378  10.422
75148W        W36811   7.324  15.183  14.800
75149W        W36812  18.682  24.636  13.946
75150W        W36813  28.521  40.403   1.802
75151W        W36814  38.538  34.977   4.790
75152W        W36815  28.027   4.228   4.130
75153W        W36816  22.210  34.548  12.836
75154W        W36817   7.675   8.292   2.713
75155W        W36818   2.233   0.955  12.967
75156W        W36819  29.459   5.350   1.447
75157W        W36820  25.484  30.429  10.526
75158W        W36821  18.092   9.368   1.417
75159W        W36822  34.871  40.478  11.398
75160W        W36823   5.869  18.278   4.663
75161W        W36824   7.728  16.568  11.472
75162W        W36825   1.477  33.537  11.887
75163W        W36826  14.787   9.354  13.373
75164W        W36827  23.687   0.443  12.355
75165W        W36828  32.587  18.559   0.873
75166W        W36829  20.163   5.300   4.205
75167W        W36830  41.976  36.436   1.233
75168W        W36831  34.435  19.659  10.120
75169W        W36832  36.512  17.111  12.492
75170W        W36833  30.446  32.966  14.838
75171W        W36834  13.221   9.296   2.358
75172W        W36835  25.122   1.944  12.998
75173W        W36836  16.169  11.330  14.886
75174W        W36837  41.945  19.112  14.818
75175W        W36838  28.553  12.128  13.531
75176W        W36839   1.365  16.640   0.924
75177W        W36840  10.810  24.103  11.546
75178W        W36841  39.445  29.055  14.955
75179W        W36842  23.162  10.327  13.889
75180W        W36843   8.355  24.002  13.834
75181W        W36844  18.252  25.607  11.523
75182W        W36845  24.152  29.478   0.306
75183W        W36846  43.993   0.770   0.782
75184W        W36847   8.891  29.515   5.248
75185W        W36848   6.700  40.398   4.279
75186W        W36849  30.027  12.808  12.918
75187W        W36850  23.004  21.532  12.876
75188W        W36851  42.020   0.894  10.487
75189W        W36852  21.137  12.312  13.388
75190W        W36853  33.985   5.804   1.851
75191W        W36854  32.112  16.089  11.073
75192W        W36855  37.991  24.479  13.546
75193W        W36856  14.289  15.765  13.335
75194W        W36857  30.424  12.272  11.038
75195W        W36858   2.760   1.807   0.885
75196W        W36859  37.906  13.159   1.866
75197W        W36860  29.967   3.740  11.542
75198W        W36861  27.583  37.339  13.537
75199W        W36862  36.489  40.946   4.816
75200W        W36863  17.671   9.782  11.394
75201W        W36864   2.750  13.778  11.571
75202W        W36865  42.821  20.177   3.377
75203W        W36866  21.607  10.644   2.711
75204W        W36867  32.108  16.664   0.315
75205W        W36868  35.425  25.993   2.723
75206W        W36869  18.214  26.464   0.868
75207W        W36870  18.266  32.496  13.805
75208W        W36871  37.074  31.570  12.850
75209W        W36872  19.724  19.160   4.292
75210W        W36873  32.597  34.897  13.952
75211W        W36874  17.654  25.978  10.541
75212W        W36875  14.591  21.645   2.903
75213W        W36876   8.398  32.486   3.640
75214W        W36877   4.820  14.733   1.274
75215W        W36878  10.158  42.829  11.065
75216W        W36879   3.215  43.347   2.269
75217W        W36880  16.724  40.896   0.449
75218W        W36881   1.335   7.197   5.307
75219W        W36882   0.275  41.903  11.063
75220W        W36883  22.084  30.029  13.340
75221W        W36884  13.704  42.948  13.008
75222W        W36885  30.470  41.905   2.414
75223W        W36886  37.906   8.691   0.250
75224W        W36887  13.314  32.105   4.243
75225W        W36888   1.287  22.594  12.081
75226W        W36889  29.983  39.364   3.357
75227W        W36890  41.928   9.655  13.864
75228W        W36891  38.850  18.778  11.528
75229W        W36892  21.250   8.268  12.887
75230W        W36893   7.767  36.088  11.591
75231W        W36894   9.824  26.576  10.997
75232W        W36895  33.386  40.336  14.321
75233W        W36896   9.856   1.315   0.275
75234W        W36897  42.851  12.729  13.895
75235W        W36898   6.391  43.870  14.761
75236W        W36899   5.247  24.980  11.557
75237W        W36900  33.069  33.876  12.345
75238W        W36901   8.364  44.804  10.613
75239W        W36902  33.402   0.314   2.188
75240W        W36903  25.532  42.846  10.465
75241W        W36904  10.341  18.065  13.836
75242W        W36905  13.350  18.657   0.856
75243W        W36906  20.630  27.152  13.001
75244W        W36907  38.403  36.894  11.101
75245W        W36908  13.727  28.658  12.350
75246W        W36909   6.276  23.692   0.405
75247W        W36910  35.403   7.779   0.398
75248W        W36911  27.652  42.790  13.027
75249W        W36912  29.028  24.044   1.220
75250W        W36913  24.684   2.773  12.459
75251W        W36914  39.053  41.472  14.405
75252W        W36915  11.327   8.400  12.474
75253W        W36916   7.278  12.330   4.257
75254W        W36917  20.224  29.171  11.914
75255W        W36918  12.242   1.836   4.669
75256W        W36919  19.735  11.146  11.435
75257W        W36920   0.805  12.311  10.452
75258W        W36921  33.911  18.183   4.258
75259W        W36922  34.548  29.645   1.694
75260W        W36923  31.551  18.610   4.321
75261W        W36924   8.267  13.671   0.798
75262W        W36925  32.055   0.809  13.913
75263W        W36926  39.054  10.178   2.826
75264W        W36927  20.693  28.087   3.807
75265W        W36928  24.216  17.116   0.358
75266W        W36929  36.002  44.440   3.828
75267W        W36930   4.906   3.938   1.335
75268W        W36931   8.296  42.915   0.967
75269W        W36932  17.275  17.085  14.026
75270W        W36933  24.514  18.243  11.890
75271W        W36934   6.347  31.587   4.123
75272W        W36935  35.450  12.636  11.101
75273W        W36936  24.159   0.820  12.430
75274W        W36937  23.216  18.556   1.804
75275W        W36938  36.006  36.945   2.857
75276W        W36939  21.184  41.981  13.983
75277W        W36940  39.930  40.951   3.243
75278W        W36941  37.912   3.906   0.791
75279W        W36942  16.741   3.924  13.430
75280W        W36943  15.145  11.191  11.100
75281W        W36944  42.784   5.224   1.420
75282W        W36945   3.852  36.577   4.712
75283W        W36946  43.331  18.264  11.578
75284W        W36947  16.304  38.539   1.750
75285W        W36948   3.783  13.281   1.809
75286W        W36949  15.083  13.723   4.831
75287W        W36950  39.393  18.143   2.670
75288W        W36951  29.033  44.935  14.351
75289W        W36952  42.855  12.656  14.828
75290W        W36953  24.516   9.178   4.167
75291W        W36954  19.768  26.513  11.371
75292W        W36955   2.804  20.092  14.901
75293W        W36956  31.042   5.784   4.834
75294W        W36957  40.828  31.138  11.027
75295W        W36958  37.505  35.006  13.489
75296W        W36959  43.445  29.121   3.825
75297W        W36960   0.268   0.268   3.685
75298W        W36961   3.872  13.818   3.801
75299W        W36962  35.092  25.146  14.349
75300W        W36963  32.961  23.019  14.401
75301W        W36964  38.916  21.074   1.334
75302W        W36965   4.219  41.411   1.279
75303W        W36966  34.917  32.626   4.607
75304W        W36967  27.098   5.366  13.010
75305W        W36968  26.515  22.245  11.493
75306W        W36969  20.054  26.642   4.724
75307W        W36970  14.300   9.226  14.398
75308W        W36971  23.567  13.187  13.361
75309W        W36972  23.116  40.942  11.987
75310W        W36973  39.064   5.312  12.346
75311W        W36974   0.280  31.527  14.858
75312W        W36975  24.065  36.388   1.699
75313W        W36976  10.322  34.404   0.935
75314W        W36977  12.193   0.933  12.442
75315W        W36978  30.460  37.427  12.055
75316W        W36979  32.082   7.837   4.795
75317W        W36980  20.241  16.802  13.460
75318W        W36981  15.715  19.262  14.772
75319W        W36982   6.694  12.776  10.488
75320W        W36983  34.014  23.080   2.280
75321W        W36984  35.476   2.336  14.508
75322W        W36985  19.617  42.925   5.162
75323W        W36986  31.562  27.173  12.555
75324W        W36987  30.966  33.534   3.352
75325W        W36988  40.850  27.121  11.034
75326W        W36989  44.337   5.257   1.868
75327W        W36990  19.171   0.862  10.896
75328W        W36991  35.554   5.693  12.908
75329W        W36992  43.441  27.007  12.549
75330W        W36993  26.616  44.784  13.492
75331W        W36994   0.871  42.006  11.529
75332W        W36995  38.829  14.751   9.994
75333W        W36996   2.931   3.370   0.444
75334W        W36997  18.062  30.654  14.436
75335W        W36998  10.645  44.316   0.346
75336W        W36999  19.076  27.577  11.606
75337W        W37000  10.733  20.565   3.293
75338W        W37001  20.123   6.300   1.753
75339W        W37002   6.397  30.471   9.976
75340W        W37003  12.727  14.115  12.353
75341W        W37004   3.832  38.028  11.886
75342W        W37005  15.125  39.988   4.764
75343W        W37006  38.561  32.405  13.950
75344W        W37007   8.717  30.553   3.848
75345W        W37008  21.185  25.989   2.780
75346W        W37009  13.724  41.838  11.400
75347W        W37010  15.704  33.383  13.504
75348W        W37011  31.020  20.766   5.097
75349W        W37012  43.425  13.107   3.187
75350W        W37013  27.527   6.185  10.954
75351W        W37014   2.937  41.486  12.459
75352W        W37015  44.762  22.626  11.525
75353W        W37016  31.030  43.448   0.780
75354W        W37017  44.897  14.186  11.927
75355W        W37018   6.878  34.599  10.963
75356W        W37019  42.343   9.314   5.231
75357W        W37020  41.493   3.860  13.019
75358W        W37021  30.070  35.926  11.106
75359W        W37022  41.334  38.070  13.818
75360W        W37023  31.615  26.160   2.267
75361W        W37024  27.687  26.194  13.826
75362W        W37025   2.431  18.275  11.987
75363W        W37026  16.148   1.737   5.275
75364W        W37027  10.240   9.352   3.779
75365W        W37028  30.640  30.932  10.992
75366W        W37029  23.611  35.950  12.457
75367W        W37030  27.542  34.556   2.255
75368W        W37031  23.055  42.868  12.568
75369W        W37032  11.225  43.465  12.065
75370W        W37033  27.013   0.359   3.734
75371W        W37034  44.388   7.908  14.469
75372W        W37035  44.996  16.773   0.915
75373W        W37036  42.881  29.995  11.428
75374W        W37037  42.812   0.775  13.899
75375W        W37038  40.821   1.882   4.213
75376W        W37039   2.242   9.826   0.394
75377W        W37040  36.528  40.336   0.323
75378W        W37041  12.161  40.816   4.738
75379W        W37042  32.941  10.165  11.020
75380W        W37043  40.548  20.227  12.390
75381W        W37044  17.670  34.461  11.036
75382W        W37045  33.496  37.002   1.929
75383W        W37046  32.018   7.702   0.873
75384W        W37047  44.472  16.740   3.264
75385W        W37048   6.335  25.085   1.228
75386W        W37049   8.843  40.429   3.268
75387W        W37050  27.946   0.391  10.086
75388W        W37051  34.491  10.824  13.997
75389W        W37052  26.600   5.268  11.053
75390W        W37053   4.257  30.519  11.559
75391W        W37054  42.930  37.903   2.360
75392W        W37055  14.669  17.699  11.499
75393W        W37056  36.377  44.364   3.290
75394W        W37057   9.265   3.796  12.972
75395W        W37058  35.376  28.630   4.182
75396W        W37059  17.769  33.088  11.517
75397W        W37060  24.082  29.505   2.804
75398W        W37061  24.541  11.129  12.903
75399W        W37062   0.449  35.504   0.380
75400W        W37063   3.398  15.798   0.246
75401W        W37064  14.825  33.615  12.080
75402W        W37065  28.522  26.550  14.487
75403W        W37066   7.182  12.719  11.022
75404W        W37067  30.024  34.494  12.845
75405W        W37068  43.812   3.777  14.955
75406W        W37069  12.216  13.655  14.278
75407W        W37070  15.204   1.850   1.394
75408W        W37071  24.170  32.003  11.126
75409W        W37072  13.787  14.618   3.268
75410W        W37073  13.688  14.315  14.006
75411W        W37074   1.740  37.846  14.988
75412W        W37075   1.915  31.640  14.514
75413W        W37076  14.313  34.868   3.684
75414W        W37077  27.453  13.182  14.981
75415W        W37078  27.060  18.753   4.746
75416W        W37079   8.840  16.708  10.455
75417W        W37080  37.929  25.607   2.775
75418W        W37081  29.656  41.962   0.455
75419W        W37082  44.959  39.362   4.626
75420W        W37083  22.681  25.143   9.664
75421W        W37084  41.527  35.059  11.121
75422W        W37085  28.054  37.892  12.863
75423W        W37086  18.702  29.451   0.829
75424W        W37087  17.120  44.359   0.312
75425W        W37088   3.857  21.657   1.420
75426W        W37089   5.687  21.178  10.448
75427W        W37090  36.988  26.602   0.267
75428W        W37091  37.469  44.826  13.022
75429W        W37092   1.291  41.433   1.360
75430W        W37093  22.103  30.652  14.997
75431W        W37094  28.972  40.981  11.952
75432W        W37095  44.369  23.164   2.789
75433W        W37096   0.322  43.859  11.410
75434W        W37097  44.877   1.294  11.102
75435W        W37098  35.580   6.807  14.992
75436W        W37099   8.182   9.238  11.088
75437W        W37100  44.437  28.618  10.583
75438W        W37101  36.389  31.499   2.322
75439W        W37102  17.620  41.984   1.257
75440W        W37103  13.740  39.475   0.811
75441W        W37104  24.639  31.515  10.477
75442W        W37105   8.714  22.039   4.244
75443W        W37106   4.424   0.853  14.442
75444W        W37107   5.424   3.892   0.886
75445W        W37108  37.978  21.089  10.923
75446W        W37109   7.289  11.723  13.340
75447W        W37110  42.987  18.690  11.014
75448W        W37111  44.896   1.940   1.308
75449W        W37112  21.563   0.339  14.908
75450W        W37113  19.120  26.685  10.550
75451W        W37114  34.866  10.665  12.831
75452W        W37115  10.157  17.251  12.044
75453W        W37116  31.608  12.784  13.379
75454W        W37117  21.137  31.079  12.960
75455W        W37118   7.822  30.945   1.447
75456W        W37119   5.790  38.036   4.230
75457W        W37120  23.218  37.991   4.181
75458W        W37121  17.273  36.989   2.882
75459W        W37122  33.065  39.966   4.231
75460W        W37123  15.181  15.246  13.959
75461W        W37124  34.606  19.252   1.390
75462W        W37125   1.756   2.903  14.975
75463W        W37126   1.842  28.935   4.685
75464W        W37127  18.216  37.033  12.383
75465W        W37128  40.022  19.566   2.728
75466W        W37129   6.863  37.500   3.187
75467W        W37130  14.751  34.000   3.279
75468W        W37131  15.224  29.591   1.366
75469W        W37132  21.045   9.370   0.872
75470W        W37133   7.235  43.813   4.715
75471W        W37134  15.747  11.728   2.766
75472W        W37135  15.176   7.396   1.285
75473W        W37136  22.204   3.361   3.647
75474W        W37137  26.116  35.500   2.215
75475W        W37138  24.507  34.899  11.432
75476W        W37139  23.550  31.523   2.353
75477W        W37140  14.711   7.347  10.084
75478W        W37141  16.280  23.099  10.509
75479W        W37142  15.172   7.810  14.317
75480W        W37143  29.491  39.382   1.892
75481W        W37144  16.181  35.862   3.344
75482W        W37145  18.105   7.400  14.347
75483W        W37146  41.344  42.885   3.192
75484W        W37147  14.275  36.375  11.000
75485W        W37148  41.477  13.730   3.266
75486W        W37149  43.017  10.143   1.232
75487W        W37150  20.602  28.580   3.295
75488W        W37151  38.416  36.581  10.475
75489W        W37152  16.653  27.511   0.966
75490W        W37153  34.426  18.063   0.401
75491W        W37154   5.710  30.498   1.383
75492W        W37155  25.584  39.475  11.438
75493W        W37156  31.943   0.933   1.245
75494W        W37157  21.701  37.409  12.858
75495W        W37158  40.849  37.077  13.047
75496W        W37159  12.308  39.836  10.534
75497W        W37160  13.612  26.611  12.381
75498W        W37161  32.135  25.023   4.249
75499W        W37162  24.073   1.317  14.887
75500W        W37163  37.531  12.217  11.920
75501W        W37164  11.849  40.955  11.591
75502W        W37165  40.406  31.146   3.858
75503W        W37166  44.933   3.281   3.762
75504W        W37167  24.219  37.553   1.903
75505W        W37168   3.374  33.489   1.433
75506W        W37169  18.108  11.773   0.356
75507W        W37170  38.846  20.706  13.033
75508W        W37171  26.961  23.734   2.680
75509W        W37172   1.457  43.777  14.808
75510W        W37173  43.963  40.914  10.962
75511W        W37174  39.013   1.434   0.289
75512W        W37175  17.772  18.784   2.318
75513W        W37176  17.134  12.666  10.121
75514W        W37177  16.112  32.970   1.217
75515W        W37178  13.300  42.031   3.282
75516W        W37179  24.556   5.435   0.426
75517W        W37180  31.038  17.631  13.021
75518W        W37181  28.671  14.784  12.001
75519W        W37182   4.259  33.913   0.253
75520W        W37183  39.042  37.062   1.751
75521W        W37184  19.566  38.832   3.715
75522W        W37185  14.597  26.651  13.375
75523W        W37186  31.962  11.151  14.994
75524W        W37187   6.223  43.886  13.002
75525W        W37188  40.820   1.303  12.552
75526W        W37189  22.080  41.895  10.423
75527W        W37190  38.866  26.013  13.037
75528W        W37191   5.425  27.035   1.324
75529W        W37192  19.045  22.111   3.181
75530W        W37193  16.641  29.097  11.577
75531W        W37194  37.954  32.016  11.462
75532W        W37195  12.298  38.533  11.423
75533W        W37196  43.404  19.675  10.903
75534W        W37197  38.917   5.439  11.494
75535W        W37198  15.235  33.464   1.266
75536W        W37199   5.696  11.222   1.888
75537W        W37200   2.772  12.787   1.694
75538W        W37201  39.488  30.581   0.427
75539W        W37202  30.092  22.145   3.675
75540W        W37203   0.786  16.237   1.447
75541W        W37204  31.929  10.636   3.326
75542W        W37205  22.115  11.705   1.857
75543W        W37206  28.516  20.660   3.278
75544W        W37207  36.512   1.942   4.309
75545W        W37208  36.352  41.304  12.500
75546W        W37209  41.481  19.230   0.933
75547W        W37210   8.720  31.101  13.986
75548W        W37211  10.280  29.553   1.747
75549W        W37212  24.625  18.609   1.274
75550W        W37213   7.728  18.183   4.304
75551W        W37214  25.690  40.888  14.876
75552W        W37215   5.928  35.506  10.436
75553W        W37216  32.580  25.517  14.813
75554W        W37217   3.241  23.225   2.193
75555W        W37218  25.984  36.351  10.411
75556W        W37219  22.577  32.965   3.653
75557W        W37220  29.536   5.798  10.578
75558W        W37221  17.713  37.500   0.801
75559W        W37222   2.809  14.181   3.774
75560W        W37223  38.020  36.082   5.287
75561W        W37224  16.123  14.779   4.787
75562W        W37225  37.577  18.217   4.336
75563W        W37226  11.686  36.018   4.312
75564W        W37227  24.019  41.970  13.323
75565W        W37228  27.553  10.233   0.274
75566W        W37229   8.202  40.314   4.645
75567W        W37230  24.143  30.647  10.576
75568W        W37231  23.129   8.739   2.229
75569W        W37232   3.822   8.310   3.359
75570W        W37233   9.362   4.747  12.938
75571W        W37234   3.342  38.328  11.520
75572W        W37235  41.934  28.990  13.522
75573W        W37236  14.210   8.270  13.862
75574W        W37237  35.511  40.864  11.556
75575W        W37238  25.052   5.401  10.409
75576W        W37239   9.277  12.221   2.690
75577W        W37240   0.793  18.784  13.798
75578W        W37241   9.662  40.352  14.011
75579W        W37242  14.681  17.688   3.207
75580W        W37243  31.578  32.921  10.417
75581W        W37244  22.674  27.113  14.409
75582W        W37245  16.103  11.149   4.189
75583W        W37246  16.608  41.398   3.265
75584W        W37247   1.421  44.276  12.984
75585W        W37248  25.566  35.517   1.778
75586W        W37249  33.027  22.747   0.957
75587W        W37250  32.077  12.268   1.772
75588W        W37251   5.707  15.628  13.460
75589W        W37252  12.723  28.648   4.726
75590W        W37253   6.354   4.308   0.426
75591W        W37254  19.778  44.992  11.449
75592W        W37255  23.142  41.294  11.570
75593W        W37256  36.028   6.805  13.791
75594W        W37257  32.097  24.155  11.444
75595W        W37258  36.936  31.991  11.086
75596W        W37259   6.806  21.691  12.855
75597W        W37260  41.895  10.270   0.291
75598W        W37261  15.128   8.174   4.312
75599W        W37262  25.200  39.321   2.670
75600W        W37263  20.086   5.748  12.908
75601W        W37264  10.689  33.078   0.881
75602W        W37265  21.148  14.314  10.531
75603W        W37266  29.653  21.115  12.014
75604W        W37267  24.501  19.555   0.816
75605W        W37268   5.285  10.703   4.230
75606W        W37269  41.292  13.705  13.803
75607W        W37270  13.845  21.604  14.029
75608W        W37271  10.378  25.989   1.757
75609W        W37272  26.557   3.291   2.819
75610W        W37273  38.011  30.950  11.929
75611W        W37274   5.793  14.229   3.841
75612W        W37275  30.125  23.060  10.007
75613W        W37276  13.601  12.267   3.146
75614W        W37277  26.104  32.010  13.496
75615W        W37278  44.476  21.111  10.532
75616W        W37279  14.773  41.969  10.620
75617W        W37280  19.269   7.712   3.383
75618W        W37281   7.672  33.112  11.004
75619W        W37282  40.406  10.855   3.206
75620W        W37283  19.655  38.884   1.327
75621W        W37284  29.936   8.228  11.092
75622W        W37285  22.219  43.343   0.261
75623W        W37286  21.040  19.050  12.904
75624W        W37287  34.902   3.438   2.803
75625W        W37288  11.740  23.589  13.958
75626W        W37289  21.564   9.700   0.768
75627W        W37290  24.695   7.710   0.257
75628W        W37291  28.031  14.229  11.422
75629W        W37292  30.041   1.260  11.073
75630W        W37293  32.027  20.082  13.529
75631W        W37294   8.341  15.646  14.957
75632W        W37295   5.780  32.066   5.267
75633W        W37296  12.311   8.351   3.803
75634W        W37297  37.348  18.676   1.806
75635W        W37298  26.655  19.244  10.581
75636W        W37299   6.403  20.178  12.844
75637W        W37300   5.268  34.947  13.997
75638W        W37301  35.853   5.819   4.279
75639W        W37302  33.508  36.012   2.363
75640W        W37303  24.044  35.005   4.801
75641W        W37304  32.413  41.377  13.939
75642W        W37305  32.469  42.802   3.747
75643W        W37306  25.100  14.300   4.661
75644W        W37307  32.436  25.027   2.415
75645W        W37308  39.998   9.754  11.536
75646W        W37309  19.580  40.933   4.675
75647W        W37310  40.517  21.519  11.893
75648W        W37311  26.137  37.363   3.761
75649W        W37312  17.741  40.882   3.713
75650W        W37313  30.108  42.416  13.476
75651W        W37314  33.053  41.982   0.909
75652W        W37315   6.404  23.715   2.748
75653W        W37316  32.437  18.135  14.293
75654W        W37317   6.363  34.979  12.881
75655W        W37318  21.609  31.438   2.391
75656W        W37319  40.529  14.609   2.256
75657W        W37320  39.834  19.605   0.294
75658W        W37321  40.867  14.185   3.166
75659W        W37322  35.059  41.401  11.996
75660W        W37323  14.819   5.357   2.722
75661W        W37324  31.897  39.810   0.256
75662W        W37325  38.452  41.865   1.421
75663W        W37326   4.418   3.312  11.865
75664W        W37327  35.933   3.800  13.973
75665W        W37328  40.798  17.277   3.258
75666W        W37329   9.735  28.083   2.299
75667W        W37330  25.148   2.419   4.632
75668W        W37331  27.620  21.684   3.766
75669W        W37332   9.702  40.471   4.315
75670W        W37333  34.591   7.880  11.481
75671W        W37334  44.287  33.937  11.507
75672W        W37335  32.589  30.156   0.905
75673W        W37336  16.219  24.489  11.576
75674W        W37337  11.863  33.422  12.570
75675W        W37338  29.123  37.925   1.257
75676W        W37339  36.021  32.034  14.798
75677W        W37340   5.715   8.677   3.264
75678W        W37341  42.463  23.726   2.318
75679W        W37342   8.720  11.246  14.782
75680W        W37343  37.952  37.349   2.889
75681W        W37344  23.130  27.545  12.975
75682W        W37345  28.010  32.962  11.057
75683W        W37346   0.883  21.685   0.398
75684W        W37347  32.074  28.558   1.247
75685W        W37348   0.846  11.277  12.504
75686W        W37349   1.793  20.099   3.159
75687W        W37350  15.710  34.890   1.249
75688W        W37351  32.420  40.849  14.295
75689W        W37352   6.413   5.885  14.386
75690W        W37353  34.991   8.369  13.484
75691W        W37354  42.366  26.593  10.967
75692W        W37355  32.607  20.564   2.872
75693W        W37356  29.070  36.973  13.373
75694W        W37357  39.481  12.835  11.956
75695W        W37358   3.734  15.110   4.349
75696W        W37359  32.535   7.869   4.721
75697W        W37360   8.377  31.922   3.176
75698W        W37361   5.306  35.537  12.958
75699W        W37362   7.416  44.294  12.844
75700W        W37363   4.930  29.580  11.428
75701W        W37364  12.311  19.746   2.273
75702W        W37365   6.301  23.044   0.269
75703W        W37366  44.819  12.361  14.933
75704W        W37367   0.754  36.457   1.707
75705W        W37368   2.889  23.224   1.839
75706W        W37369  35.441  34.093   4.633
75707W        W37370  37.525  42.287  11.556
75708W        W37371  38.397  10.215   1.292
75709W        W37372  15.652  41.320  14.930
75710W        W37373  24.652  20.726  11.531
75711W        W37374  31.998  15.661  14.812
75712W        W37375  11.174  30.062  14.816
75713W        W37376  36.364   7.908  14.337
75714W        W37377  41.299  11.847   3.811
75715W        W37378  10.155  43.833   4.273
75716W        W37379  44.500  31.144  11.016
75717W        W37380  26.043  35.016   3.245
75718W        W37381  25.082   4.317   2.835
75719W        W37382  43.911  26.003  11.399
75720W        W37383   2.794   7.219  14.022
75721W        W37384  13.825  22.013  10.930
75722W        W37385  16.145   6.363  11.969
75723W        W37386  41.384  26.041   1.270
75724W        W37387  10.855   4.790   4.249
75725W        W37388  39.523  42.381  12.897
75726W        W37389  33.040  26.997  12.994
75727W        W37390  38.351  25.119  13.328
75728W        W37391  13.668   1.935   1.296
75729W        W37392  10.267  14.276  10.067
75730W        W37393  36.467  18.788  10.617
75731W        W37394  39.020  16.086  12.981
75732W        W37395  25.132  26.470   3.270
75733W        W37396  14.620  35.368  11.509
75734W        W37397  26.013  24.127   3.206
75735W        W37398  23.538  37.845  13.928
75736W        W37399  31.540  39.900  10.920
75737W        W37400  14.701  10.219  12.549
75738W        W37401  25.619  33.129  14.416
75739W        W37402  21.565  28.530   1.696
75740W        W37403   2.235  25.680  14.025
75741W        W37404  44.350  29.635  13.876
75742W        W37405  24.513   1.369  10.419
75743W        W37406  37.994   4.227  10.630
75744W        W37407   0.874  21.180  14.401
75745W        W37408  24.090  39.844   3.762
75746W        W37409  31.570  42.433  11.987
75747W        W37410  23.613  37.031   3.207
75748W        W37411  20.181   2.839   1.773
75749W        W37412  18.189  38.986  10.907
75750W        W37413  11.683  18.783   0.313
75751W        W37414   1.291  27.148   1.715
75752W        W37415  12.734   3.909   0.375
75753W        W37416  40.366  14.815  11.941
75754W        W37417   6.321  11.311  11.010
75755W        W37418  22.136  32.101   0.787
75756W        W37419  13.124  39.826   4.826
75757W        W37420  30.656  43.305   3.161
75758W        W37421  25.085  38.381  11.937
75759W        W37422  28.117  15.087  11.582
75760W        W37423  35.588   7.328  11.492
75761W        W37424  27.690  30.089   0.471
75762W        W37425  24.645   4.407   4.312
75763W        W37426   4.210  40.509   4.292
75764W        W37427  35.535  18.594  12.928
75765W        W37428  14.677  17.244  12.028
75766W        W37429  18.718  10.721   2.363
75767W        W37430   1.813  10.795  13.431
75768W        W37431   0.780  38.987  14.990
75769W        W37432  26.092  11.205  12.003
75770W        W37433  28.149  25.689  10.519
75771W        W37434  43.012  35.000   0.937
75772W        W37435  19.607   4.825  11.886
75773W        W37436  17.658   9.394  11.004
75774W        W37437  25.056  12.171   0.791
75775W        W37438  33.085  24.481   1.828
75776W        W37439   4.402  12.311   0.456
75777W        W37440  40.427  21.212   4.267
75778W        W37441  34.925  43.859   1.436
75779W        W37442  26.202  38.833  13.985
75780W        W37443  37.516  44.322   4.810
75781W        W37444   5.873  44.345  10.982
75782W        W37445   2.875   6.764  13.019
75783W        W37446  37.364  10.660   2.319
75784W        W37447  19.621   2.792   1.285
75785W        W37448  44.980   8.661   5.178
75786W        W37449  27.005   0.876   0.252
75787W        W37450  29.513  31.043  12.388
75788W        W37451  19.545  28.112   3.797
75789W        W37452  35.074  31.131   2.665
75790W        W37453  24.558  34.107  13.531
75791W        W37454  12.190  15.821   4.156
75792W        W37455  30.040  19.098  13.901
75793W        W37456  35.533  29.029  12.524
75794W        W37457  31.030  19.282  13.509
75795W        W37458   6.869  32.978  13.546
75796W        W37459   7.677  26.978  11.450
75797W        W37460  34.990  15.736  13.864
75798W        W37461  18.781   1.399   4.605
75799W        W37462   6.736   0.453  13.815
75800W        W37463   4.308  29.934  10.893
75801W        W37464  34.086  10.252   3.354
75802W        W37465  30.941   8.839   1.443
75803W        W37466  41.507  31.510  12.558
75804W        W37467  32.997  18.086  12.343
75805W        W37468  30.148  36.072   1.896
75806W        W37469  38.984  10.685   1.396
75807W        W37470  18.596   3.301  10.917
75808W        W37471  19.089  23.615   1.804
75809W        W37472  16.234   0.437   3.156
75810W        W37473  35.424  41.341   4.132
75811W        W37474  20.194  42.885  14.813
75812W        W37475  19.168   2.345   4.642
75813W        W37476  33.399  21.754  11.068
75814W        W37477  25.999   9.166   4.791
75815W        W37478  29.092  42.921  13.045
75816W        W37479  20.718  28.557  14.833
75817W        W37480  32.630   4.813   1.370
75818W        W37481  28.069  39.417  12.490
75819W        W37482  22.238  32.947   0.284
75820W        W37483   9.164  37.873   2.725
75821W        W37484   7.715  15.676   2.800
75822W        W37485  38.904   6.868  12.956
75823W        W37486  24.638   0.325  12.912
75824W        W37487  25.700  19.640   9.962
75825W        W37488  35.022  30.649   0.295
75826W        W37489  11.660  15.600  10.600
75827W        W37490  12.140  44.349   4.626
75828W        W37491  21.139  40.439   3.835
75829W        W37492  41.812  16.673  11.551
75830W        W37493  29.129  37.447   3.752
75831W        W37494  14.148  24.608  10.942
75832W        W37495   1.275  20.584  10.933
75833W        W37496  20.685  44.980   0.379
75834W        W37497  33.069  16.306  13.930
75835W        W37498  44.975  20.107  12.437
75836W        W37499   5.884  43.953   4.187
75837W        W37500  15.288  44.338  14.972
75838W        W37501   2.343   7.353   0.429
75839W        W37502  22.122  20.667  13.455
75840W        W37503  28.588  16.142   3.342
75841W        W37504  17.274  19.164  14.339
75842W        W37505  22.047  37.969  14.380
75843W        W37506  14.250  14.104   4.279
75844W        W37507  14.725  35.076   1.326
75845W        W37508   0.823  12.248  13.999
75846W        W37509  27.518  39.897   3.225
75847W        W37510  35.394   7.285   0.833
75848W        W37511  10.208  38.827  14.327
75849W        W37512  36.373  31.120   0.460
75850W        W37513  29.112   9.798  11.056
75851W        W37514  24.116  18.088  14.889
75852W        W37515  11.751  28.514   1.327
75853W        W37516   3.434  15.089  11.120
75854W        W37517   5.267  36.487   0.955
75855W        W37518  19.621  44.399  11.881
75856W        W37519   8.870   4.728  14.363
75857W        W37520   1.472  14.213  11.488
75858W        W37521  31.104  10.814   2.732
75859W        W37522  24.079  39.447  12.541
75860W        W37523   6.742   7.276   2.800
75861W        W37524  44.428  24.504   0.484
75862W        W37525  40.829   2.957   2.687
75863W        W37526  37.995   5.323  13.381
75864W        W37527  24.184  37.510  11.114
75865W        W37528  28.073  24.513  14.971
75866W        W37529  19.772  14.811  13.377
75867W        W37530  31.996  11.837   1.285
75868W        W37531  24.203  17.088  14.290
75869W        W37532   9.292  43.372  12.418
75870W        W37533  22.104  35.465  13.958
75871W        W37534  16.199  39.816   2.791
75872W        W37535  27.139  24.043   2.881
75873W        W37536  27.996  10.144  13.310
75874W        W37537  21.598  24.663   0.413
75875W        W37538  31.945   9.254  14.780
75876W        W37539  36.946  19.104   3.180
75877W        W37540   4.330  28.506   4.805
75878W        W37541   3.215  17.771  12.058
75879W        W37542  27.190  33.893   3.639
75880W        W37543  37.894  41.825   0.455
75881W        W37544  18.145  40.338   2.826
75882W        W37545  40.987  21.680  11.054
75883W        W37546   0.847  10.319   1.933
75884W        W37547  25.123  29.075   5.091
75885W        W37548  28.520  38.417   2.408
75886W        W37549  25.057  23.212  13.425
75887W        W37550  37.087   3.814   1.276
75888W        W37551  28.070  13.666   4.835
75889W        W37552  22.514  21.250   0.756
75890W        W37553   7.815  15.119   3.869
75891W        W37554   3.861  26.200   2.701
75892W        W37555  40.311  29.063   4.200
75893W        W37556   2.335   0.254  13.055
75894W        W37557  20.675  40.848  11.937
75895W        W37558  23.581  43.810  14.826
75896W        W37559   1.733  31.017  12.959
75897W        W37560  35.459  30.090   4.780
75898W        W37561  19.047   0.912  14.846
75899W        W37562  31.638   6.236   2.312
75900W        W37563  30.918  36.858   1.847
75901W        W37564  14.249  37.052  14.787
75902W        W37565  42.792  24.049  14.292
75903W        W37566  26.505   4.910   3.355
75904W        W37567   9.811  26.133   0.426
75905W        W37568  28.514  38.996   2.793
75906W        W37569  26.001  41.537   1.295
75907W        W37570  13.788  34.876  12.462
75908W        W37571  35.934  31.453  12.853
75909W        W37572  19.764  41.909   2.182
75910W        W37573  31.149  18.711   9.556
75911W        W37574  39.380  30.559  14.436
75912W        W37575  13.288  12.797  11.089
75913W        W37576  35.986  32.949   4.241
75914W        W37577  35.959  28.128   4.203
75915W        W37578  18.654  30.582   0.266
75916W        W37579   8.329   2.781  11.539
75917W        W37580  13.635  25.989  10.504
75918W        W37581  22.632   0.354   3.669
75919W        W37582  12.697  25.111  11.431
75920W        W37583   9.207  31.115  12.956
75921W        W37584  40.841  41.395  13.452
75922W        W37585  40.021  19.169  13.902
75923W        W37586  34.033   4.834   0.328
75924W        W37587  17.720  40.411   0.802
75925W        W37588   7.715  10.709  13.791
75926W        W37589   6.207  41.801   0.299
75927W        W37590  19.651  41.521   1.710
75928W        W37591  20.626  36.038   3.258
75929W        W37592   3.908   0.314  10.016
75930W        W37593  30.032   6.304   2.224
75931W        W37594  27.619  31.538   2.832
75932W        W37595  20.268  36.072   1.826
75933W        W37596  12.249   2.790   4.272
75934W        W37597  31.918  10.244   1.816
75935W        W37598  23.095  13.737  14.419
75936W        W37599  33.586   1.429   4.273
75937W        W37600  27.177  12.277   4.290
75938W        W37601  27.033  11.317  13.325
75939W        W37602  31.414  35.576   0.877
75940W        W37603  23.131  35.427  11.097
75941W        W37604  21.197  30.035   1.853
75942W        W37605  39.016  33.552   0.308
75943W        W37606  28.060  13.140  13.541
75944W        W37607   0.889  17.251   4.788
75945W        W37608   0.307  43.776   4.218
75946W        W37609  26.188  35.859  12.018
75947W        W37610  17.612  28.137   2.715
75948W        W37611  21.060  25.040  11.576
75949W        W37612  30.449  36.922   2.379
75950W        W37613  31.008  30.009  11.509
75951W        W37614  35.431  26.569   0.823
75952W        W37615  15.641  44.394  10.040
75953W        W37616  34.991  40.930   0.473
75954W        W37617  30.520  32.124   1.866
75955W        W37618   4.793  24.126   5.302
75956W        W37619  23.057  40.873   0.478
75957W        W37620  10.321  41.374  10.428
75958W        W37621  41.425  25.106   0.880
75959W        W37622  14.799  39.832   1.221
75960W        W37623  36.576   9.383   0.242
75961W        W37624  28.159   9.260  13.810
75962W        W37625  12.340  23.614  10.597
75963W        W37626   9.221  33.103   2.213
75964W        W37627  40.529  36.439  14.927
75965W        W37628  12.182   2.398   4.259
75966W        W37629  15.632   8.309   0.762
75967W        W37630   2.272   4.726   1.860
75968W        W37631  26.085  38.324  13.859
75969W        W37632   1.757  43.448   4.698
75970W        W37633  37.013  11.696   2.765
75971W        W37634  44.487  32.482  14.028
75972W        W37635  27.662  32.050   0.926
75973W        W37636  27.986  25.982   2.691
75974W        W37637   2.791  41.862  12.359
75975W        W37638   0.430  34.910  12.074
75976W        W37639  39.505   2.888  12.923
75977W        W37640  24.646  21.167   2.347
75978W        W37641   2.363  16.241  11.395
75979W        W37642  22.091  42.959  10.998
75980W        W37643  44.267  37.495  11.480
75981W        W37644  36.435  13.210  10.445
75982W        W37645   9.819   1.750  13.857
75983W        W37646  39.939   7.395   0.455
75984W        W37647  18.129  26.658   1.746
75985W        W37648  29.008  12.182   3.694
75986W        W37649  27.560  37.979   0.247
75987W        W37650   2.767  44.007   1.798
75988W        W37651  18.685  39.976   0.922
75989W        W37652  31.480  12.621   4.789
75990W        W37653  35.411  16.244  12.479
75991W        W37654   0.340  20.073   3.856
75992W        W37655  42.029  17.721   4.830
75993W        W37656  10.350  26.143  10.069
75994W        W37657  36.977  33.397   4.685
75995W        W37658  14.673   4.391  10.412
75996W        W37659  29.002  26.639  14.832
75997W        W37660  34.091  40.806   3.681
75998W        W37661  31.426   6.269  12.833
75999W        W37662  38.508  32.109   4.685
76000W        W37663  33.514   8.842  12.345
76001W        W37664  20.689  20.692   0.728
76002W        W37665   7.799   0.886   0.753
76003W        W37666  18.148  20.169   1.309
76004W        W37667   3.820  24.492  11.906
76005W        W37668  29.530  27.133   2.796
76006W        W37669   0.357  20.536   0.253
76007W        W37670  14.604   6.297   4.740
76008W        W37671   4.378  40.517  12.872
76009W        W37672  29.173  39.441   3.322
76010W        W37673  22.236  35.377  13.033
76011W        W37674   3.805   1.869  13.327
76012W        W37675   2.871   5.934  12.454
76013W        W37676  29.128  21.641  14.350
76014W        W37677  23.051   6.802  12.442
76015W        W37678  15.175   7.409   4.267
76016W        W37679  12.676  16.670   1.883
76017W        W37680   6.799  23.657   2.317
76018W        W37681   3.895  38.496   1.217
76019W        W37682  44.277  33.508  11.532
76020W        W37683  20.179  19.652  13.339
76021W        W37684  34.514  27.536   4.769
76022W        W37685  40.947  29.162   4.671
76023W        W37686  24.554  24.174   5.269
76024W        W37687  29.959  40.813  12.015
76025W        W37688  26.473   3.317  12.994
76026W        W37689  31.914  13.643   4.720
76027W        W37690  27.585  35.958  10.513
76028W        W37691  40.376  12.691   3.702
76029W        W37692  18.702  32.887   1.743
76030W        W37693  24.148  17.131   4.217
76031W        W37694   3.229  44.337   2.316
76032W        W37695  25.695  12.721   4.727
76033W        W37696   5.219  20.081  12.899
76034W        W37697  33.486  15.750   4.838
76035W        W37698  31.139  27.170   4.117
76036W        W37699   0.868  21.547  12.441
76037W        W37700   9.813  15.326  11.886
76038W        W37701  33.944  41.936  13.310
76039W        W37702  36.410   3.239  13.494
76040W        W37703  30.130  30.979  14.003
76041W        W37704  29.971   7.768  10.506
76042W        W37705  17.669   0.440   1.846
76043W        W37706  32.128  17.680  11.061
76044W        W37707  15.797  31.541  11.930
76045W        W37708  33.504  25.165  13.382
76046W        W37709  25.507   8.893   3.705
76047W        W37710   9.655   5.281  12.979
76048W        W37711  31.989  42.849  10.587
76049W        W37712  10.225  25.690  13.453
76050W        W37713   6.734  29.559   3.772
76051W        W37714  31.148  30.090   2.203
76052W        W37715  32.914  26.556   0.308
76053W        W37716  20.534  23.560  12.459
76054W        W37717  33.504  40.530   1.808
76055W        W37718  40.348  24.522   4.340
76056W        W37719  34.081  25.153  11.541
76057W        W37720  28.580  32.624  13.063
76058W        W37721  25.541  18.278   3.670
76059W        W37722  26.953   4.895  14.770
76060W        W37723  22.092   5.928   3.333
76061W        W37724  25.574  35.931   1.875
76062W        W37725  43.290   7.911  14.350
76063W        W37726  38.995  34.955  11.415
76064W        W37727   0.487  11.844   0.306
76065W        W37728   0.804  21.587   1.711
76066W        W37729  36.887  35.520  11.936
76067W        W37730  34.985   5.388  12.348
76068W        W37731   2.923  25.178  14.862
76069W        W37732  28.498  38.454  11.894
76070W        W37733   1.754   9.207  12.478
76071W        W37734  17.647  30.573  14.291
76072W        W37735  41.901  10.844  13.493
76073W        W37736   3.928  31.139   3.206
76074W        W37737  27.050  42.423  13.978
76075W        W37738  22.147  25.028   9.993
76076W        W37739  22.666  10.263  13.802
76077W        W37740   3.865  13.608   1.211
76078W        W37741   5.696  26.952   3.191
76079W        W37742   9.698  12.768  11.422
76080W        W37743   0.316  11.128   0.370
76081W        W37744  30.492   1.478   1.883
76082W        W37745   6.817  25.527  12.422
76083W        W37746  12.640  35.893   3.185
76084W        W37747  18.711  15.123   0.464
76085W        W37748  25.561  26.195  13.401
76086W        W37749  21.232  21.164   0.961
76087W        W37750  33.454  20.679  11.061
76088W        W37751   4.909  21.633  13.442
76089W        W37752  32.547  33.013  10.478
76090W        W37753  10.234  18.618   0.253
76091W        W37754  42.798   9.187   3.689
76092W        W37755   1.355  27.669   1.281
76093W        W37756  20.072  29.956  12.834
76094W        W37757  25.986  13.766   3.329
76095W        W37758   3.871  21.144  13.904
76096W        W37759  32.143  29.938   0.483
76097W        W37760  38.867   9.153  13.416
76098W        W37761  44.468  11.285  10.097
76099W        W37762  23.157  15.281   0.957
76100W        W37763  26.127  28.034   2.191
76101W        W37764  24.558  42.937  12.544
76102W        W37765  25.088  36.490   2.222
76103W        W37766   1.912  35.413  10.581
76104W        W37767  19.609  19.224  11.478
76105W        W37768  26.152  18.571  12.896
76106W        W37769  28.963  26.620  14.455
76107W        W37770  23.572   8.829   3.756
76108W        W37771   2.434   6.364  12.886
76109W        W37772   2.792   5.212  10.612
76110W        W37773  11.833  25.692   3.741
76111W        W37774   8.760   2.262   4.681
76112W        W37775  16.713  38.982  13.501
76113W        W37776   4.810  44.346  13.404
76114W        W37777   4.721  39.459   4.698
76115W        W37778   0.796  42.951  12.087
76116W        W37779  27.958   8.336   2.893
76117W        W37780  12.318  43.403  14.994
76118W        W37781  16.772   1.259   0.771
76119W        W37782  38.554   3.885   4.727
76120W        W37783  27.992   3.716  12.954
76121W        W37784  39.005   6.311  13.407
76122W        W37785  39.989  33.525   3.278
76123W        W37786  15.699  32.997   1.371
76124W        W37787  31.595  43.433  12.428
76125W        W37788  35.447  26.463   3.320
76126W        W37789  41.017  28.074  14.389
76127W        W37790  32.088  22.167   4.698
76128W        W37791  43.860  38.072  12.529
76129W        W37792  14.289  31.535  10.547
76130W        W37793  37.375  13.178   1.723
76131W        W37794  24.621  24.220   3.723
76132W        W37795  14.790  30.502  14.434
76133W        W37796  35.582  41.525  12.560
76134W        W37797   1.403  31.049  13.539
76135W        W37798   3.327  15.279  11.485
76136W        W37799  26.640   9.290  12.853
76137W        W37800  31.006  12.710   0.770
76138W        W37801  25.093   3.295   1.336
76139W        W37802  35.102  23.490  13.359
76140W        W37803  18.139  23.136   3.208
76141W        W37804  27.571  36.059   1.884
76142W        W37805  20.693  44.495  13.475
76143W        W37806  42.781   0.897   0.954
76144W        W37807  22.212   4.284  13.950
76145W        W37808  18.614  42.367  14.963
76146W        W37809  29.007   1.370  11.069
76147W        W37810  44.285  19.673  11.057
76148W        W37811  11.155  13.239  11.997
76149W        W37812   5.894  17.244  12.366
76150W        W37813  32.054  29.938  12.999
76151W        W37814  40.488  42.336   0.870
76152W        W37815  24.087  34.463   0.883
76153W        W37816  43.909   3.248   0.878
76154W        W37817   5.341  39.482  14.015
76155W        W37818  17.215  31.083   3.706
76156W        W37819   0.892  34.375  12.961
76157W        W37820  20.190  36.842   1.270
76158W        W37821   4.312   1.921  12.940
76159W        W37822  21.569  24.203  13.536
76160W        W37823  16.759  34.012   3.645
76161W        W37824  26.997  37.030  12.079
76162W        W37825  23.537  30.936   2.240
76163W        W37826  29.986  42.839   3.198
76164W        W37827   1.430  19.654  11.011
76165W        W37828  41.856  30.920   0.311
76166W        W37829  17.098  15.636   0.355
76167W        W37830  22.102  30.473  11.448
76168W        W37831   8.174   3.803   0.792
76169W        W37832   2.436   3.816  11.126
76170W        W37833  28.568  14.739   2.838
76171W        W37834  21.598  44.261   4.697
76172W        W37835  33.443  30.507   0.742
76173W        W37836  36.405  10.849  10.549
76174W        W37837  33.591  36.076   0.958
76175W        W37838   1.779  29.533   2.251
76176W        W37839  17.115  37.503  14.839
76177W        W37840  15.120   3.335   4.138
76178W        W37841  22.177   5.401   3.676
76179W        W37842  38.930  22.018   5.305
76180W        W37843  32.122  27.046   2.316
76181W        W37844  38.993   2.292   0.321
76182W        W37845   2.876  31.437   0.258
76183W        W37846  43.988  14.738   4.223
76184W        W37847   2.819  14.686   4.634
76185W        W37848  18.609  18.133  12.851
76186W        W37849  44.503  27.981  12.038
76187W        W37850  44.922  12.785   1.416
76188W        W37851  19.248  31.060  11.121
76189W        W37852  27.462  23.075  12.541
76190W        W37853   6.780  37.878  11.111
76191W        W37854  21.684   7.294   2.693
76192W        W37855  19.147  35.100  13.995
76193W        W37856   5.909  26.036   4.748
76194W        W37857  13.176  27.018  12.946
76195W        W37858  25.538  40.821   2.769
76196W        W37859   9.721   1.446   3.776
76197W        W37860   9.153  43.884  10.898
76198W        W37861  41.388  35.090  13.997
76199W        W37862  43.874  21.633   0.251
76200W        W37863  31.490  23.657   0.893
76201W        W37864  16.252  39.360  13.852
76202W        W37865  29.104  11.863  12.014
76203W        W37866  33.121  20.218  12.073
76204W        W37867  44.007  31.124  13.858
76205W        W37868  10.344  42.004   0.430
76206W        W37869  42.906   1.441   2.891
76207W        W37870  41.336   2.381  11.965
76208W        W37871  34.497  14.744  14.388
76209W        W37872  33.982   0.471  12.565
76210W        W37873   4.922  18.621   0.823
76211W        W37874  21.102  39.430   0.802
76212W        W37875  32.980  43.319  13.805
76213W        W37876   0.381  43.959  14.301
76214W        W37877  31.946  10.767  11.456
76215W        W37878  39.504  18.719  12.018
76216W        W37879  21.731  21.540  10.958
76217W        W37880  37.080   3.264   0.255
76218W        W37881  37.961  35.025   2.249
76219W        W37882  40.375  30.019   3.683
76220W        W37883  24.578  22.127   4.709
76221W        W37884  34.050  35.404   2.194
76222W        W37885  30.947  34.491   0.761
76223W        W37886  43.459   6.426  10.410
76224W        W37887  18.291  14.668  14.497
76225W        W37888  23.706  32.516   0.807
76226W        W37889  24.013  27.069   0.812
76227W        W37890  26.582  11.182   2.233
76228W        W37891  20.702  34.532   0.809
76229W        W37892  22.178   3.274   0.753
76230W        W37893   2.904  39.498   4.701
76231W        W37894  25.193  35.599   0.418
76232W        W37895   7.763   4.763  11.047
76233W        W37896  12.766  40.023  12.437
76234W        W37897  16.793  30.568  13.911
76235W        W37898   7.260  34.543   1.834
76236W        W37899   8.861  26.578   4.777
76237W        W37900  17.269  39.434  14.416
76238W        W37901  14.653  43.788   1.398
76239W        W37902  17.714   7.286   4.258
76240W        W37903  34.894  43.417   0.383
76241W        W37904   5.311  10.276   3.153
76242W        W37905   7.228  12.803   2.755
76243W        W37906   0.436  29.498   1.400
76244W        W37907  38.372  24.107  12.396
76245W        W37908   7.687  27.050   2.788
76246W        W37909   8.355  12.274   0.757
76247W        W37910  26.140  34.592   2.822
76248W        W37911   3.381   1.746  10.449
76249W        W37912  31.576  27.999  13.806
76250W        W37913  26.978  36.929  13.409
76251W        W37914  19.172  13.614   1.449
76252W        W37915  13.831  29.953   2.306
76253W        W37916  26.573  37.912   3.735
76254W        W37917  38.044   9.204   1.729
76255W        W37918  28.136  23.010  14.004
76256W        W37919  31.535   2.443   0.362
76257W        W37920  37.484  44.870  10.485
76258W        W37921  14.190  12.271   0.417
76259W        W37922  26.036  22.579  11.954
76260W        W37923  15.240  35.431  12.016
76261W        W37924  18.098   3.906   2.869
76262W        W37925   2.752  33.076   4.354
76263W        W37926  27.558  22.722   3.747
76264W        W37927  12.682  21.233  14.010
76265W        W37928  41.907  38.429  14.775
76266W        W37929  18.637  36.051  10.107
76267W        W37930   7.282   3.311  14.340
76268W        W37931  39.437  39.346  14.286
76269W        W37932   7.832  11.313  13.502
76270W        W37933  12.234  17.120   4.799
76271W        W37934   8.397  10.759   0.287
76272W        W37935  34.572  33.578  10.995
76273W        W37936  39.493  21.186   4.189
76274W        W37937  31.052  17.091  11.485
76275W        W37938   6.840  14.142   4.791
76276W        W37939  20.038  19.099   4.783
76277W        W37940  16.220  16.225  12.371
76278W        W37941  30.129  26.193   3.779
76279W        W37942  24.533  18.631   2.341
76280W        W37943  44.293  40.967  11.899
76281W        W37944  19.140   8.285   3.797
76282W        W37945   5.884  10.207  11.590
76283W        W37946  23.081  13.616   4.816
76284W        W37947   6.904  43.392   2.672
76285W        W37948  41.914  32.397   1.769
76286W        W37949  38.848  14.255  12.976
76287W        W37950  42.980  30.023  14.385
76288W        W37951  29.158  30.638  14.820
76289W        W37952  31.421  24.598   3.834
76290W        W37953  42.504  21.213   3.367
76291W        W37954  34.435  32.032   1.707
76292W        W37955  35.963   3.901  14.351
76293W        W37956   6.242  10.722   2.798
76294W        W37957  24.519  34.942   2.791
76295W        W37958  23.191  26.971  10.500
76296W        W37959  13.665  40.899   9.600
76297W        W37960  15.759  27.145  14.916
76298W        W37961  20.623  21.566   4.792
76299W        W37962  22.251  19.076   0.830
76300W        W37963   3.233  40.971  12.485
76301W        W37964  23.159  32.597  14.877
76302W        W37965  33.030  18.672   5.245
76303W        W37966  35.527  13.112   3.283
76304W        W37967  24.191  38.842   4.254
76305W        W37968  33.998  11.163   0.255
76306W        W37969  11.647   6.852   2.410
76307W        W37970  42.316  41.370  10.608
76308W        W37971  18.638   4.761  12.044
76309W        W37972  41.982  11.325  12.574
76310W        W37973   4.826   0.305  14.847
76311W        W37974  22.550  28.022   3.694
76312W        W37975  33.966  27.448   1.380
76313W        W37976  37.537  43.464   2.270
76314W        W37977  14.589  22.126   4.796
76315W        W37978  15.288  14.267  13.335
76316W        W37979   2.890   8.824  14.490
76317W        W37980  42.024  11.359  12.005
76318W        W37981  22.032   0.454  14.395
76319W        W37982  16.280  22.631  14.881
76320W        W37983  11.731  25.098  14.347
76321W        W37984  41.886  18.769   2.764
76322W        W37985  21.102  44.361   0.352
76323W        W37986  23.501  34.579  12.025
76324W        W37987  32.479  43.358  13.912
76325W        W37988  34.421  13.298   1.889
76326W        W37989  12.341  22.011  13.861
76327W        W37990  21.675  31.495  13.794
76328W        W37991  17.129  11.283  11.611
76329W        W37992  26.499  35.359   0.270
76330W        W37993   7.692  33.938   4.218
76331W        W37994  39.989  42.522  13.028
76332W        W37995  19.048  35.106   2.722
76333W        W37996  12.156   6.722  13.857
76334W        W37997   3.440  24.104  10.566
76335W        W37998   2.245  34.878  10.977
76336W        W37999  27.197  37.958   2.833
76337W        W38000  28.129  20.632  14.789
76338W        W38001  16.285   1.396   1.756
76339W        W38002   0.314  40.931   2.188
76340W        W38003   2.967   9.760   2.730
76341W        W38004  39.547  15.117   4.614
76342W        W38005  26.093  44.798   4.204
76343W        W38006  24.073  37.999  13.846
76344W        W38007   9.862  10.168   0.411
76345W        W38008   2.234  16.306  14.480
76346W        W38009  27.957  23.503   0.317
76347W        W38010  12.227   2.811  11.537
76348W        W38011  43.508  36.483   0.773
76349W        W38012  32.964   2.829  14.492
76350W        W38013   7.278  43.859  10.511
76351W        W38014  31.125  10.306  12.924
76352W        W38015   9.199  24.191   1.366
76353W        W38016  14.758   4.790  14.884
76354W        W38017  43.866   4.219   2.713
76355W        W38018   9.389  41.336   0.966
76356W        W38019  34.976  38.324  10.981
76357W        W38020  27.608  44.299   2.740
76358W        W38021  13.806   4.771  13.981
76359W        W38022   3.233  32.511  14.877
76360W        W38023  32.915  29.105   1.268
76361W        W38024  22.027  15.683  13.525
76362W        W38025  32.030   5.811   4.740
76363W        W38026   7.360  39.060   2.723
76364W        W38027  36.413  17.601  14.446
76365W        W38028  35.585   1.810   0.745
76366W        W38029  19.237  34.408   3.660
76367W        W38030  18.708  13.177  13.508
76368W        W38031  23.032  28.538   0.469
76369W        W38032  25.693  12.834   0.952
76370W        W38033   1.756  41.527   0.774
76371W        W38034  12.649  44.946  14.998
76372W        W38035   9.271  32.090  11.031
76373W        W38036  44.326  43.321  13.935
76374W        W38037  27.107   4.739  14.293
76375W        W38038  34.956  11.678   2.292
76376W        W38039  17.180   4.923   2.707
76377W        W38040  38.515   4.352   2.871
76378W        W38041  11.803   5.266   1.869
76379W        W38042  18.191  34.009  11.977
76380W        W38043  24.048   1.846   4.344
76381W        W38044   1.480  29.015  12.970
76382W        W38045  40.468  39.010  11.603
76383W        W38046   6.757   5.379   0.247
76384W        W38047   8.360   7.788  11.102
76385W        W38048  29.616  18.188   2.231
76386W        W38049  42.514  22.517  11.543
76387W        W38050  32.477  28.000  10.442
76388W        W38051  30.625  27.070  12.473
76389W        W38052  25.707  36.060  11.991
76390W        W38053   2.929   5.309  13.972
76391W        W38054  26.013  25.999   5.797
76392W        W38055   7.252  43.410   1.744
76393W        W38056  42.996  11.228  12.392
76394W        W38057   5.776  19.129  12.405
76395W        W38058  36.449  12.631  13.424
76396W        W38059  31.103  11.736  12.983
76397W        W38060  10.867   1.444  11.869
76398W        W38061  33.022  22.252   0.328
76399W        W38062  39.876  17.641  12.844
76400W        W38063   6.681  41.032  10.951
76401W        W38064   2.887  23.556  11.452
76402W        W38065  35.995  42.032  11.515
76403W        W38066  16.156  16.075  11.910
76404W        W38067  16.139  35.449   1.820
76405W        W38068  32.017   8.344   1.855
76406W        W38069  31.078  26.074   1.272
76407W        W38070  14.834   1.753   2.889
76408W        W38071  10.647  41.520   3.373
76409W        W38072  19.771   9.295   2.375
76410W        W38073  27.163  17.126  12.356
76411W        W38074  29.964  29.667  11.408
76412W        W38075  31.037  29.062  14.498
76413W        W38076  43.809   6.388   2.246
76414W        W38077   6.346   9.242   3.213
76415W        W38078  20.628   7.300  11.012
76416W        W38079  22.245  44.838   5.566
76417W        W38080  34.397  41.314  13.001
76418W        W38081  17.732  29.560  10.902
76419W        W38082  17.715   1.432   1.325
76420W        W38083  39.913  14.785  13.850
76421W        W38084  16.746   8.240  11.033
76422W        W38085  37.393  26.466   0.929
76423W        W38086  22.548  20.168   2.903
76424W        W38087   9.770  26.565   4.275
76425W        W38088  34.385   7.299   2.326
76426W        W38089  13.264  28.177   3.311
76427W        W38090   7.774   7.326   4.699
76428W        W38091  18.085  36.589   0.418
76429W        W38092  25.627  42.416  14.943
76430W        W38093  11.261  20.751  14.367
76431W        W38094  15.141   1.846   0.451
76432W        W38095  28.627  12.177   3.307
76433W        W38096   0.801  24.512   1.839
76434W        W38097  39.867  44.297   0.444
76435W        W38098  37.344  27.966  12.846
76436W        W38099  27.113  19.636   1.892
76437W        W38100  30.123  22.746   0.770
76438W        W38101  32.609  32.025   0.437
76439W        W38102   8.283  23.227   0.932
76440W        W38103  32.012  26.135   0.731
76441W        W38104  20.580  41.535   2.843
76442W        W38105  37.843  12.729  11.091
76443W        W38106  22.661  44.902   3.825
76444W        W38107  44.442  37.993   3.287
76445W        W38108  30.510  44.772  12.008
76446W        W38109   5.831  33.127   3.829
76447W        W38110  38.832   9.794  12.416
76448W        W38111  38.515  30.571   3.798
76449W        W38112  40.831  39.010   4.342
76450W        W38113  11.329  12.714  13.318
76451W        W38114   5.233  35.439  14.858
76452W        W38115   9.782  15.793   3.737
76453W        W38116  14.636  26.702   0.255
76454W        W38117   5.340  13.725   0.452
76455W        W38118  21.194  38.440   4.220
76456W        W38119   1.965  29.577   0.311
76457W        W38120  42.333   3.409   3.767
76458W        W38121   1.419  26.481  13.792
76459W        W38122  27.562  38.401   3.352
76460W        W38123   2.813  43.810   2.316
76461W        W38124  19.615  19.633  14.990
76462W        W38125   9.881  20.047  10.981
76463W        W38126  37.359   7.378   2.698
76464W        W38127  36.350  26.054  11.861
76465W        W38128  33.477  38.073  14.464
76466W        W38129   3.416  10.277   1.328
76467W        W38130  16.181  42.818   1.707
76468W        W38131   3.305   7.179  12.954
76469W        W38132  43.805  13.765  12.545
76470W        W38133   8.656  43.825   0.302
76471W        W38134  10.380  28.034   0.481
76472W        W38135  29.957  21.686  13.517
76473W        W38136  23.024  42.424   1.259
76474W        W38137   6.279  33.879   1.442
76475W        W38138   1.378  19.107  11.923
76476W        W38139  34.549  31.150   0.341
76477W        W38140  39.994  43.966   1.694
76478W        W38141  38.843  44.878  10.955
76479W        W38142  35.934  14.220  14.501
76480W        W38143   7.402  26.564   3.169
76481W        W38144  27.454  12.808  14.011
76482W        W38145  25.026  26.700  11.885
76483W        W38146  24.131  13.148   1.736
76484W        W38147  19.258  31.447  12.061
76485W        W38148  17.695  19.101   0.431
76486W        W38149  27.034  24.593   0.362
76487W        W38150  26.552  20.582   3.354
76488W        W38151  27.588  41.944   2.840
76489W        W38152  19.596   0.906   0.313
76490W        W38153  15.144  42.808  11.420
76491W        W38154  27.490  28.123  13.467
76492W        W38155  16.661  24.229  11.890
76493W        W38156  28.116  10.730  13.895
76494W        W38157  41.001   3.266   2.394
76495W        W38158  27.997  42.797   4.206
76496W        W38159   1.312  11.790  11.905
76497W        W38160  29.009   6.382   0.770
76498W        W38161   6.314  19.277  10.595
76499W        W38162  15.133  44.877  14.967
76500W        W38163  22.048   4.415  11.434
76501W        W38164  38.021   6.804   2.679
76502W        W38165   5.690  12.258  12.505
76503W        W38166  43.479  36.928  14.854
76504W        W38167   3.242  42.462  12.574
76505W        W38168  35.039   5.240  14.887
76506W        W38169  31.079   4.701   1.397
76507W        W38170   9.695  28.084   4.772
76508W        W38171  32.078   9.862  14.028
76509W        W38172  31.958  18.276   2.299
76510W        W38173  25.524  28.632  13.471
76511W        W38174  40.410  10.693  11.455
76512W        W38175  20.561  34.510   3.776
76513W        W38176  39.880   7.300  14.957
76514W        W38177  39.996  43.829   2.247
76515W        W38178  33.488   8.321   0.433
76516W        W38179  10.157  14.098  12.870
76517W        W38180  15.814  14.246   1.384
76518W        W38181  42.993  35.371  14.990
76519W        W38182  10.822   2.796   3.183
76520W        W38183  26.054  10.340  12.847
76521W        W38184  22.124  26.205   2.760
76522W        W38185  10.308  29.470   0.898
76523W        W38186   5.908   6.915   3.199
76524W        W38187   5.933  29.578  13.548
76525W        W38188  29.039  18.137   1.216
76526W        W38189  36.095  19.115  12.346
76527W        W38190  24.215  44.872  12.058
76528W        W38191  17.078  12.739  12.054
76529W        W38192  44.461  39.810   0.358
76530W        W38193  40.881  12.616   3.356
76531W        W38194  15.112  11.723  13.427
76532W        W38195   9.723  16.171  13.791
76533W        W38196  33.091   7.250  14.324
76534W        W38197  38.447  16.272   0.460
76535W        W38198  22.013  41.524  14.027
76536W        W38199  39.938  44.489   0.798
76537W        W38200  13.783   1.891  11.573
76538W        W38201  34.953  24.224   3.806
76539W        W38202  24.178   5.700  12.523
76540W        W38203  33.904  16.643   4.649
76541W        W38204  40.458   5.344  12.944
76542W        W38205  13.116   1.264   0.795
76543W        W38206  34.432  26.530   1.440
76544W        W38207   4.934  40.420   0.333
76545W        W38208   6.776  36.573   3.173
76546W        W38209  24.222  18.689  12.466
76547W        W38210  36.062   1.481  14.452
76548W        W38211  17.794  36.544  14.467
76549W        W38212  42.910   0.801   1.908
76550W        W38213   7.414  39.818   1.794
76551W        W38214  19.578  31.628  11.383
76552W        W38215  42.342  19.164   2.701
76553W        W38216  19.599   6.775   2.367
76554W        W38217  23.526  32.435   0.307
76555W        W38218  12.704  35.487  13.017
76556W        W38219  20.038  17.736   1.371
76557W        W38220   4.788  19.693   2.268
76558W        W38221   5.324  28.049  11.914
76559W        W38222  44.861  18.738  12.340
76560W        W38223  11.819  25.628  13.850
76561W        W38224  35.557   0.446  14.800
76562W        W38225  38.512   9.770   4.350
76563W        W38226  41.380  25.552   0.471
76564W        W38227   7.790   1.293   1.250
76565W        W38228  23.580  15.167   4.329
76566W        W38229  15.660  30.421   2.840
76567W        W38230  20.581  13.177   3.844
76568W        W38231  12.663  28.074   2.741
76569W        W38232  10.762  17.698  11.600
76570W        W38233  44.903  27.997   1.213
76571W        W38234  24.508  22.615   4.690
76572W        W38235  11.258  23.985  14.465
76573W        W38236  16.671  44.262   1.245
76574W        W38237   6.191  44.867  13.861
76575W        W38238  27.685  32.548  12.923
76576W        W38239   5.307  14.105  14.381
76577W        W38240  35.969  26.159  12.922
76578W        W38241  25.509   2.884  11.096
76579W        W38242  22.044  34.606  12.372
76580W        W38243  20.238  19.577   2.248
76581W        W38244  18.768  43.923   1.807
76582W        W38245  31.975  19.614   0.924
76583W        W38246  12.288  11.198  11.409
76584W        W38247  18.203  11.798   1.885
76585W        W38248  38.345  21.626   0.282
76586W        W38249  30.062  22.689  14.874
76587W        W38250  35.039  11.372  11.404
76588W        W38251  15.820  21.722  13.058
76589W        W38252  32.522  16.622  11.062
76590W        W38253  41.891  16.186   4.353
76591W        W38254  28.577  30.067  14.882
76592W        W38255  28.602  42.299   0.812
76593W        W38256  35.923  31.038   4.647
76594W        W38257  39.479  39.352  12.831
76595W        W38258   3.445  37.064  12.954
76596W        W38259  31.969  37.472  14.776
76597W        W38260  14.224  35.389   2.847
76598W        W38261  17.670   4.222   4.262
76599W        W38262   8.339  20.261   4.834
76600W        W38263  44.845  22.063   3.680
76601W        W38264  44.856   0.953   1.345
76602W        W38265  14.175  35.923   2.720
76603W        W38266  13.164   8.294  13.844
76604W        W38267  26.977  19.742   3.173
76605W        W38268  29.165  41.872   1.859
76606W        W38269  18.281  26.532   3.355
76607W        W38270  28.478  27.100   2.868
76608W        W38271  39.364  23.044  10.454
76609W        W38272  26.166  39.381  12.483
76610W        W38273   0.469   7.699   3.369
76611W        W38274  11.236  39.928   2.715
76612W        W38275  38.351  12.831   3.154
76613W        W38276  35.935  34.979   4.344
76614W        W38277  31.938  39.865   9.963
76615W        W38278   0.862  36.351   2.760
76616W        W38279  21.562  30.991  14.761
76617W        W38280  23.673  44.968  10.895
76618W        W38281  42.383   5.761   0.301
76619W        W38282  38.478  30.485   2.855
76620W        W38283  39.368  12.308  10.416
76621W        W38284  43.841  32.552   0.292
76622W        W38285   1.928  11.157  14.850
76623W        W38286  37.533  41.793   2.372
76624W        W38287   5.274  37.973  13.890
76625W        W38288  12.713   4.291  13.512
76626W        W38289  32.420  18.682   1.716
76627W        W38290  36.563  31.514   0.331
76628W        W38291  36.992  26.495   1.770
76629W        W38292  17.090  40.361  14.421
76630W        W38293  26.547  29.430  10.961
76631W        W38294   4.855  21.619  10.924
76632W        W38295  18.254  36.088  14.820
76633W        W38296  14.720  31.444   3.156
76634W        W38297  43.873  37.545   3.165
76635W        W38298  16.651  26.095  10.538
76636W        W38299  35.046  24.157   1.742
76637W        W38300   3.242  19.742   1.227
76638W        W38301  41.966   1.859   4.600
76639W        W38302  15.197  25.667  14.904
76640W        W38303   9.253  24.976  14.356
76641W        W38304   0.845  12.835  13.458
76642W        W38305  16.786  43.389  12.967
76643W        W38306   8.716  17.687   4.639
76644W        W38307  32.606   2.424   3.304
76645W        W38308  32.461  44.298   3.159
76646W        W38309   3.764  24.653   3.307
76647W        W38310  37.024  44.963   1.406
76648W        W38311  35.490  12.339  11.558
76649W        W38312   0.344  40.305   1.852
76650W        W38313  32.496  33.912  11.933
76651W        W38314  19.628   4.376  13.459
76652W        W38315  24.715  39.060  13.372
76653W        W38316  14.291  39.358   0.310
76654W        W38317  39.931   2.428   0.883
76655W        W38318  19.741   5.208  13.544
76656W        W38319  24.160  23.080   0.474
76657W        W38320  37.400  34.409  14.844
76658W        W38321  29.088  11.862   4.196
76659W        W38322  14.318  28.999   3.145
76660W        W38323   5.195  38.437  13.421
76661W        W38324   2.272   7.830   1.393
76662W        W38325   7.237  14.747   1.348
76663W        W38326  33.563  28.957   4.137
76664W        W38327  31.031   2.764  12.955
76665W        W38328  19.198  22.670   4.327
76666W        W38329  11.135  42.283  12.429
76667W        W38330   5.777  38.003   0.394
76668W        W38331  23.590  39.034   1.385
76669W        W38332  40.024  41.879  13.483
76670W        W38333  28.107  27.145   4.756
76671W        W38334  26.683  21.074   1.378
76672W        W38335  35.461  10.354   1.426
76673W        W38336  15.271   0.745  11.903
76674W        W38337  10.214   5.709   3.731
76675W        W38338   4.937  31.084   0.851
76676W        W38339  40.342   5.392  12.526
76677W        W38340  36.582  39.550   4.793
76678W        W38341  14.096  16.659  12.936
76679W        W38342   3.436  26.019  13.842
76680W        W38343   7.886  11.780  14.026
76681W        W38344  22.132  44.779   2.212
76682W        W38345  38.876  36.846  12.053
76683W        W38346  40.800  40.479   1.267
76684W        W38347  13.717  23.733   1.850
76685W        W38348  38.379  32.927  10.955
76686W        W38349  39.944   8.798   2.306
76687W        W38350  27.116   2.792   3.776
76688W        W38351  43.771   9.864   4.667
76689W        W38352  27.681  11.652   1.311
76690W        W38353  37.939  16.807  13.512
76691W        W38354  21.259  14.200   1.231
76692W        W38355  20.545  36.894   2.839
76693W        W38356   0.473  26.544  13.479
76694W        W38357  17.174  38.420  12.960
76695W        W38358   9.827   7.407   0.851
76696W        W38359  21.026  37.485  11.928
76697W        W38360  13.710  18.731  13.397
76698W        W38361  14.237  32.136   3.270
76699W        W38362  39.856  24.721  13.513
76700W        W38363   3.346  29.461  11.127
76701W        W38364  17.133  11.326   1.438
76702W        W38365   5.910  25.964  11.983
76703W        W38366   4.789  34.048   3.632
76704W        W38367  24.196  26.626  14.508
76705W        W38368  37.379  22.514  14.017
76706W        W38369  28.453  34.023  13.525
76707W        W38370  35.510  31.932   2.674
76708W        W38371  25.680  11.725   4.132
76709W        W38372  25.677  23.541  13.834
76710W        W38373  22.041  10.865  11.395
76711W        W38374  23.984  38.519  11.569
76712W        W38375  44.975  10.874  10.635
76713W        W38376  44.451  21.038   2.820
76714W        W38377  12.747  40.409   0.334
76715W        W38378  10.277  27.119  12.843
76716W        W38379  25.666   2.330  10.001
76717W        W38380  19.596  20.166   2.215
76718W        W38381  18.279  40.936  13.527
76719W        W38382  10.861  41.892   4.761
76720W        W38383  26.171   2.245  10.955
76721W        W38384  20.540  16.228  14.412
76722W        W38385  23.569  24.715   9.576
76723W        W38386  24.685  16.134   2.274
76724W        W38387  27.032  36.947  14.020
76725W        W38388  40.439  41.888  12.868
76726W        W38389  11.276  12.833  14.345
76727W        W38390   3.919  18.621  10.535
76728W        W38391   4.322  17.631   4.273
76729W        W38392  43.921  43.362  10.944
76730W        W38393  39.830  18.070   2.663
76731W        W38394  32.503   9.319  12.881
76732W        W38395   5.852  15.298   2.236
76733W        W38396  38.930   7.816  10.469
76734W        W38397  23.670  15.273   2.328
76735W        W38398  36.372   3.286   2.768
76736W        W38399  42.320  27.119   2.205
76737W        W38400  18.556   9.826   0.768
76738W        W38401   3.439  32.505   1.847
76739W        W38402  33.445  33.574  11.926
76740W        W38403   7.381  18.087  13.879
76741W        W38404   7.755  41.831   0.806
76742W        W38405   4.337   8.313  12.027
76743W        W38406  32.942  36.480   4.196
76744W        W38407  15.738  19.156  13.025
76745W        W38408  34.453  30.441  13.424
76746W        W38409   3.390   7.310   1.930
76747W        W38410  43.359  36.497   3.195
76748W        W38411  20.154  36.563  12.426
76749W        W38412  44.809   9.657   3.374
76750W        W38413  34.571  10.716   1.442
76751W        W38414  32.585   6.264   4.666
76752W        W38415  43.909  11.864  11.451
76753W        W38416  22.678  34.523  12.902
76754W        W38417   8.719  33.587  14.968
76755W        W38418  14.253  44.991  13.978
76756W        W38419  24.987  23.667  11.540
76757W        W38420   1.884  40.537   2.309
76758W        W38421   5.264  26.988   0.758
76759W        W38422  32.449  11.191   4.255
76760W        W38423  37.470  31.453   1.918
76761W        W38424  24.990  25.694   4.288
76762W        W38425  38.407  21.606   4.289
76763W        W38426  14.764  35.064  11.064
76764W        W38427  36.448  15.788  13.003
76765W        W38428  36.435  40.026   4.803
76766W        W38429  27.973  19.231  12.967
76767W        W38430   9.176  34.969  14.840
76768W        W38431   8.273  16.128   4.786
76769W        W38432  14.619  20.162  14.946
76770W        W38433  35.510  42.865   3.272
76771W        W38434  34.117   9.798  12.507
76772W        W38435  32.509  11.771   4.291
76773W        W38436  31.117   5.790   2.819
76774W        W38437   3.918  16.210  12.524
76775W        W38438  22.997  30.023   2.206
76776W        W38439  30.638  43.845   2.826
76777W        W38440  43.363  25.143   0.262
76778W        W38441  36.083  35.502   4.311
76779W        W38442  38.850  34.389  13.315
76780W        W38443   6.815   4.876  13.341
76781W        W38444  38.400   3.889   2.825
76782W        W38445  37.880  17.064   3.817
76783W        W38446  38.844  20.065   4.823
76784W        W38447   5.339  15.686  11.565
76785W        W38448   8.736  24.066  14.831
76786W        W38449  23.492  14.125   3.685
76787W        W38450  19.577  19.114   0.426
76788W        W38451  39.871  17.272  13.938
76789W        W38452  27.497  20.119  14.383
76790W        W38453   7.249  28.991   4.346
76791W        W38454  31.520  37.463  13.855
76792W        W38455   3.437  12.816  12.975
76793W        W38456  31.059  42.283  11.405
76794W        W38457   3.915   2.758  12.827
76795W        W38458  17.262  31.452   3.718
76796W        W38459  39.872  13.619   5.228
76797W        W38460  35.565  31.958  12.003
76798W        W38461  20.658  27.076  13.339
76799W        W38462  15.122  39.326  12.883
76800W        W38463   6.833  37.929   3.782
76801W        W38464  40.912  41.461   2.297
76802W        W38465  38.511  28.093  13.063
76803W        W38466   6.764  29.129   4.191
76804W        W38467   0.809  15.811  10.445
76805W        W38468   1.363   3.357  14.372
76806W        W38469  44.344   2.290   1.809
76807W        W38470  21.707  13.612  10.638
76808W        W38471  11.290  13.291   3.762
76809W        W38472  28.571   2.284   1.220
76810W        W38473   1.953  15.774   5.314
76811W        W38474  10.194   3.868   3.645
76812W        W38475   6.740  22.695   3.806
76813W        W38476  33.890  19.272  14.352
76814W        W38477  20.672  21.749   1.804
76815W        W38478  15.285  35.375   4.235
76816W        W38479  19.673  26.205   1.400
76817W        W38480  12.840  22.620   1.871
76818W        W38481  30.134   1.385  14.925
76819W        W38482  38.061  21.522   0.831
76820W        W38483  25.202  16.580  14.960
76821W        W38484  28.549  18.231  12.839
76822W        W38485  25.489  44.269   2.282
76823W        W38486  38.523   2.326  14.781
76824W        W38487  41.847   6.693  11.009
76825W        W38488   0.467  23.581   0.772
76826W        W38489  15.240  24.226  12.529
76827W        W38490  30.006   1.447  13.894
76828W        W38491  16.633   5.912   0.849
76829W        W38492  20.659  32.470  11.034
76830W        W38493  30.643   5.322   0.905
76831W        W38494  38.571  41.866   3.190
76832W        W38495  29.132  25.480  14.974
76833W        W38496  19.269  34.453   4.679
76834W        W38497   3.779   4.856  11.021
76835W        W38498  11.292   5.913  12.045
76836W        W38499   1.769  15.140  11.956
76837W        W38500  21.261  28.660   1.221
76838W        W38501  25.163  34.096   2.750
76839W        W38502  30.972  34.512  12.549
76840W        W38503   5.790  41.857   4.175
76841W        W38504  25.072  24.602  12.408
76842W        W38505   5.803  40.052   1.833
76843W        W38506   7.697  25.986  11.514
76844W        W38507   8.849   2.369   0.467
76845W        W38508  18.115   6.333   4.245
76846W        W38509  15.212  13.822   3.308
76847W        W38510   3.771   0.977  12.040
76848W        W38511  38.477  25.555  12.094
76849W        W38512  19.533  24.128   4.159
76850W        W38513  16.665  19.039  10.445
76851W        W38514  19.767   3.219   1.395
76852W        W38515  13.691  15.643  14.341
76853W        W38516   5.428  20.604  14.761
76854W        W38517  43.018   9.686  10.593
76855W        W38518  36.028   1.737   1.243
76856W        W38519  27.075  24.679  12.926
76857W        W38520  36.865  34.486  12.360
76858W        W38521  39.536  24.607   1.321
76859W        W38522  26.120   0.351   1.713
76860W        W38523  22.211   5.840   1.320
76861W        W38524  15.756  21.564  14.496
76862W        W38525  23.062   7.174   2.235
76863W        W38526  28.987  37.336  11.502
76864W        W38527  25.632  43.452  10.458
76865W        W38528  23.543  13.144   0.261
76866W        W38529   0.826  13.286  14.418
76867W        W38530  14.744  43.822  11.538
76868W        W38531  18.132  26.135  11.951
76869W        W38532  40.326  25.504   4.271
76870W        W38533   5.848  19.732  10.638
76871W        W38534  19.570  27.665   3.326
76872W        W38535   6.211  39.811  13.943
76873W        W38536  35.004   5.233  10.038
76874W        W38537  10.358  22.127   4.265
76875W        W38538  41.341  29.127  11.008
76876W        W38539   1.316   7.373  11.054
76877W        W38540  33.053  31.424  12.554
76878W        W38541   1.878  36.048   3.222
76879W        W38542   2.726  18.165  13.839
76880W        W38543  36.987  38.378   3.212
76881W        W38544  14.655  44.909  13.319
76882W        W38545  22.205   7.815   0.417
76883W        W38546  21.667  27.097  12.367
76884W        W38547  43.837  43.392   1.221
76885W        W38548  15.606  38.500   0.875
76886W        W38549  12.203   4.354  13.864
76887W        W38550  29.500  16.231   3.203
76888W        W38551  16.133   3.294  11.963
76889W        W38552  41.955  22.612  10.965
76890W        W38553   3.436  25.617   1.837
76891W        W38554  27.019  43.440   2.328
76892W        W38555  24.097  28.056   4.289
76893W        W38556  12.117  39.020  13.898
76894W        W38557   5.843  31.609  10.963
76895W        W38558  16.131   2.825   4.797
76896W        W38559   5.805  27.152   1.389
76897W        W38560  44.922  14.666   1.315
76898W        W38561   1.277  34.436  11.073
76899W        W38562  26.958  43.283  13.522
76900W        W38563  34.021   7.726  14.913
76901W        W38564  41.820  41.383  13.444
76902W        W38565  44.291  41.967  13.460
76903W        W38566   5.849  24.083   3.188
76904W        W38567   0.366  20.545  12.966
76905W        W38568  23.688  23.136   9.575
76906W        W38569  22.209   1.407   1.740
76907W        W38570  17.788  12.817  13.390
76908W        W38571  32.987  15.680   3.762
76909W        W38572   3.713  36.062   3.261
76910W        W38573  16.203   9.296   1.417
76911W        W38574  31.036  32.496  12.036
76912W        W38575  32.585  21.175  12.054
76913W        W38576  27.945  35.081   5.162
76914W        W38577  17.160  13.285   1.872
76915W        W38578  10.293  17.699  10.419
76916W        W38579  36.941   0.248  13.839
76917W        W38580  30.987   2.453   4.127
76918W        W38581   2.800  16.090  11.858
76919W        W38582  12.181  38.047  13.404
76920W        W38583   0.754  43.930   4.220
76921W        W38584   5.860  36.372  13.018
76922W        W38585  13.673  38.396   4.226
76923W        W38586   3.401  41.357   9.932
76924W        W38587   4.384  31.103   0.776
76925W        W38588  25.154  37.343   9.946
76926W        W38589  16.271  30.440  13.903
76927W        W38590  19.233  12.293   0.896
76928W        W38591  39.024  28.588  11.567
76929W        W38592  11.850  30.089  11.124
76930W        W38593  37.541  18.714  11.580
76931W        W38594  31.640  39.391  11.954
76932W        W38595  40.317   5.773  12.992
76933W        W38596  13.711  13.268  10.485
76934W        W38597  28.583  16.760   0.854
76935W        W38598  32.957  21.254  11.405
76936W        W38599   5.335  29.028  14.015
76937W        W38600  42.434  13.203  14.786
76938W        W38601  10.375  20.143   4.747
76939W        W38602  44.815   7.218   0.734
76940W        W38603   9.236  26.535   2.872
76941W        W38604  38.946  12.285   0.966
76942W        W38605  33.560  37.476  12.017
76943W        W38606  19.183  35.539  14.903
76944W        W38607  42.290  36.534  13.340
76945W        W38608  30.967  42.350  14.844
76946W        W38609   9.175  39.019  13.801
76947W        W38610  35.072  12.784  12.425
76948W        W38611   5.891   0.803  14.832
76949W        W38612  40.841  38.346   3.814
76950W        W38613  41.421   2.797   2.778
76951W        W38614  28.513  22.016   0.334
76952W        W38615  26.195  34.437  12.843
76953W        W38616  44.464  21.254   5.081
76954W        W38617  33.423   2.731   3.645
76955W        W38618   9.811  15.693   1.935
76956W        W38619  28.052  32.106  13.922
76957W        W38620  40.388  38.835  14.446
76958W        W38621  16.686  34.002   0.258
76959W        W38622  34.394  17.774   4.835
76960W        W38623  27.485  30.970   4.810
76961W        W38624  12.659  22.552   4.819
76962W        W38625   0.419  29.004   2.364
76963W        W38626   8.348   1.261  11.537
76964W        W38627  26.079  15.284   1.409
76965W        W38628  27.947  24.060   2.285
76966W        W38629   7.247  14.338  11.484
76967W        W38630  37.858  22.507  12.922
76968W        W38631  28.523  14.828   0.796
76969W        W38632  23.535  35.382   2.308
76970W        W38633  39.394   2.920  13.892
76971W        W38634  37.503  28.537  12.053
76972W        W38635  37.345   7.387   0.807
76973W        W38636  15.323  18.160  12.859
76974W        W38637  43.350  13.630   1.929
76975W        W38638  15.671  12.320   4.637
76976W        W38639  14.602  16.156  13.831
76977W        W38640  31.546  31.481   1.414
76978W        W38641   6.217   6.790   4.783
76979W        W38642   0.937  27.133  10.592
76980W        W38643  43.465  23.638  12.413
76981W        W38644  33.383  15.131   3.218
76982W        W38645  19.271  14.735  14.803
76983W        W38646  19.219  18.276   1.751
76984W        W38647   6.707  36.428  13.848
76985W        W38648  21.584  26.628   4.286
76986W        W38649  44.424  31.429   2.743
76987W        W38650  33.089  30.464  14.983
76988W        W38651  24.175  38.504  12.939
76989W        W38652  43.900   8.871   1.839
76990W        W38653  19.112  17.193   1.859
76991W        W38654   3.794  24.121  14.820
76992W        W38655   3.400  18.760   0.483
76993W        W38656  42.802  31.595   1.808
76994W        W38657  17.571  40.540   3.234
76995W        W38658  40.893   8.743  14.978
76996W        W38659   7.709  28.007   4.622
76997W        W38660  20.212  25.587   0.850
76998W        W38661  29.610  13.130   0.878
76999W        W38662   1.455  42.896   2.240
77000W        W38663  11.831  38.968  14.898
77001W        W38664  36.897  27.024  11.956
77002W        W38665  33.049   1.778   0.856
77003W        W38666  21.212  29.085  13.542
77004W        W38667  37.337   4.827  12.968
77005W        W38668  12.271  39.955   2.283
77006W        W38669   3.736  38.878  14.971
77007W        W38670   8.835  41.815  13.536
77008W        W38671  27.964  11.184  13.357
77009W        W38672  33.511  24.040   3.240
77010W        W38673  36.487  30.153   3.349
77011W        W38674   0.908  15.739  14.441
77012W        W38675  30.659  39.834   1.439
77013W        W38676  31.935  42.891   3.706
77014W        W38677   1.341  43.789  13.363
77015W        W38678  12.675   9.685   0.748
77016W        W38679  23.071  22.504  11.958
77017W        W38680  13.623   9.287  12.361
77018W        W38681   4.770  35.856  14.951
77019W        W38682  20.533  44.448   4.617
77020W        W38683  25.095  11.138  12.862
77021W        W38684  17.063  38.375  11.884
77022W        W38685  11.170  34.493  14.512
77023W        W38686   6.821  30.449   1.284
77024W        W38687  44.861  28.600  14.912
77025W        W38688   2.471  14.683  14.768
77026W        W38689  29.172  43.472  13.891
77027W        W38690  32.525  35.070   3.820
77028W        W38691  39.833  15.271  11.588
77029W        W38692  15.324  34.608  12.967
77030W        W38693  38.405  19.160   1.438
77031W        W38694  39.552  21.713  12.903
77032W        W38695  43.834  42.984  14.831
77033W        W38696  34.974  31.149   4.217
77034W        W38697  28.561   2.249   3.817
77035W        W38698  13.272  18.736  14.284
77036W        W38699  18.256  19.278  11.008
77037W        W38700  40.886  13.340   9.503
77038W        W38701  15.591  42.376   1.279
77039W        W38702  34.077  24.520   1.353
77040W        W38703  34.895  18.690   3.732
77041W        W38704  23.590   1.899  13.912
77042W        W38705  17.593  15.762  13.432
77043W        W38706   2.264   3.717  11.877
77044W        W38707  33.033  37.384  13.004
77045W        W38708  11.331  18.782  11.471
77046W        W38709  20.531  34.880  13.440
77047W        W38710  42.017  11.639  14.338
77048W        W38711  10.720  35.485  13.387
77049W        W38712  43.897  26.681   4.791
77050W        W38713  39.527  31.459  10.428
77051W        W38714  24.033  15.639   1.917
77052W        W38715  41.458  36.854   3.152
77053W        W38716   3.390  31.468   1.763
77054W        W38717   6.238  40.320   3.206
77055W        W38718  12.356  15.176   0.883
77056W        W38719  13.335  22.714   1.407
77057W        W38720  43.370   4.818  12.832
77058W        W38721  39.330  41.973  12.533
77059W        W38722   1.454  32.982   0.748
77060W        W38723  11.830   4.270   0.901
77061W        W38724  17.112  34.098   4.609
77062W        W38725   8.660   2.835   0.746
77063W        W38726  44.465  40.955   2.721
77064W        W38727   3.348  17.209  14.420
77065W        W38728  23.134   7.816   1.310
77066W        W38729   4.259  29.628   4.134
77067W        W38730  20.707  42.014   4.823
77068W        W38731  35.106   6.909  11.479
77069W        W38732  23.020  44.915   5.229
77070W        W38733  37.868  32.896   0.837
77071W        W38734  27.641  27.090  12.400
77072W        W38735  23.720  41.407  14.510
77073W        W38736  20.764  31.506  13.344
77074W        W38737  38.827  26.097  14.801
77075W        W38738  10.732  19.635  12.058
77076W        W38739  26.160  12.660   2.262
77077W        W38740  27.981  15.820   3.370
77078W        W38741  43.001  33.404   4.256
77079W        W38742  10.214   0.818  14.849
77080W        W38743  39.032  42.463   3.200
77081W        W38744   3.777   2.251   0.469
77082W        W38745  39.414  21.724   1.838
77083W        W38746  10.328  25.152  10.088
77084W        W38747  31.576  22.534   2.410
77085W        W38748   7.785  21.716   0.409
77086W        W38749  32.543  27.595  11.904
77087W        W38750  19.143  14.312  14.993
77088W        W38751  34.377   8.806  11.097
77089W        W38752  31.603   3.757   2.819
77090W        W38753  19.640  41.899  10.447
77091W        W38754  25.681  15.138  12.576
77092W        W38755  30.943  42.385  10.404
77093W        W38756  25.132   6.212   4.691
77094W        W38757  38.852  30.456   3.366
77095W        W38758  15.110  12.335   1.762
77096W        W38759   9.334  14.793  10.929
77097W        W38760  25.085  26.591   1.328
77098W        W38761  39.512  33.418   4.784
77099W        W38762   7.824   7.248   2.712
77100W        W38763  10.282  17.563  11.889
77101W        W38764   3.917   6.313   2.731
77102W        W38765  15.785   4.797   3.796
77103W        W38766  32.135  42.408  10.970
77104W        W38767  29.127  17.187   0.750
77105W        W38768  23.090  11.272   3.830
77106W        W38769  33.984  40.352   4.298
77107W        W38770   9.646  11.814   1.900
77108W        W38771  19.742  17.286  13.036
77109W        W38772   3.939  33.400  14.028
77110W        W38773  40.995  30.648  13.337
77111W        W38774  19.068  30.014  12.554
77112W        W38775  33.399  33.419  13.031
77113W        W38776  12.354  20.604  11.496
77114W        W38777  26.194  14.733   0.468
77115W        W38778  24.978   5.740   0.946
77116W        W38779  40.538  33.494   3.151
77117W        W38780  42.847  16.103   3.216
77118W        W38781  34.964   3.938  13.338
77119W        W38782  22.543  35.965  13.478
77120W        W38783  31.538  27.105  12.951
77121W        W38784  26.095   9.784   1.905
77122W        W38785  10.768  24.598  11.608
77123W        W38786  32.019  13.162   0.458
77124W        W38787  44.941  11.866   2.697
77125W        W38788  44.324  38.842  12.437
77126W        W38789  42.340  21.053   0.756
77127W        W38790  30.493   3.398  14.768
77128W        W38791   8.668  40.819  13.971
77129W        W38792  38.948  22.614  13.866
77130W        W38793  13.783   3.347   1.926
77131W        W38794  40.486  36.456   4.212
77132W        W38795  36.450  43.446  13.984
77133W        W38796  31.009  16.745  14.507
77134W        W38797  19.127   9.828  10.957
77135W        W38798  32.566  12.792  13.893
77136W        W38799   7.355  21.121   3.657
77137W        W38800  26.576  17.097   1.818
77138W        W38801  40.968  12.331  13.547
77139W        W38802   2.386  21.206  10.503
77140W        W38803  33.113  39.884  13.336
77141W        W38804   6.803   7.696   3.285
77142W        W38805  44.469  34.396   3.181
77143W        W38806  15.579  18.644  14.454
77144W        W38807  24.979  19.230  11.886
77145W        W38808  23.200  24.505   9.981
77146W        W38809  17.072   8.799  12.875
77147W        W38810  31.599  23.993   2.759
77148W        W38811  18.268  19.043   4.289
77149W        W38812   6.383  32.011  12.385
77150W        W38813  41.525   6.286  10.423
77151W        W38814   0.937  22.700   0.302
77152W        W38815  42.814  23.658  13.542
77153W        W38816   0.359  35.473   3.789
77154W        W38817  40.804  25.051   1.710
77155W        W38818   1.273  44.260   2.808
77156W        W38819  16.756  14.644  10.938
77157W        W38820  16.101  28.067  11.910
77158W        W38821  29.472   4.790   4.616
77159W        W38822  37.371   9.789  11.082
77160W        W38823  25.004  24.988  14.464
77161W        W38824   1.773  23.052   0.411
77162W        W38825  27.103  15.327  13.338
77163W        W38826   8.767  29.552  14.852
77164W        W38827  34.868   9.194  11.577
77165W        W38828  44.313  27.174  11.923
77166W        W38829  14.151  42.885   2.731
77167W        W38830  31.142  38.462  12.993
77168W        W38831   6.692  18.245   2.276
77169W        W38832  30.962  12.670   4.683
77170W        W38833   3.461  18.544  12.467
77171W        W38834  26.132  14.244   4.169
77172W        W38835  28.482  16.303  10.644
77173W        W38836  36.523  43.419  13.405
77174W        W38837  34.912  30.140   1.894
77175W        W38838  35.508  43.006   2.405
77176W        W38839   8.175  33.495   0.753
77177W        W38840  12.772  22.998  10.523
77178W        W38841  27.472   7.716   2.399
77179W        W38842  40.423  10.336   0.949
77180W        W38843  28.957  33.988   4.642
77181W        W38844  20.530  14.209   3.741
77182W        W38845   0.475  22.091  12.447
77183W        W38846  39.556  32.426   2.243
77184W        W38847  13.269  17.765  11.467
77185W        W38848  10.180   3.867   4.620
77186W        W38849  28.465  17.064  12.559
77187W        W38850  33.985  29.939   1.307
77188W        W38851  41.358   8.193  11.873
77189W        W38852  22.693  23.652  11.025
77190W        W38853   2.768   7.195   3.180
77191W        W38854  23.014  44.981  12.391
77192W        W38855  41.973   3.902  14.946
77193W        W38856   7.895   4.782   2.765
77194W        W38857   9.793   5.791  12.460
77195W        W38858  22.724  34.597   3.335
77196W        W38859   7.309  38.828   4.637
77197W        W38860  43.288  19.694  14.477
77198W        W38861  20.150   9.394  13.018
77199W        W38862   8.290  23.136   4.727
77200W        W38863  37.405  40.869   2.315
77201W        W38864  19.653   6.291  12.069
77202W        W38865  35.399  34.591   4.740
77203W        W38866  17.134  30.572  10.635
77204W        W38867  21.735  27.457  12.095
77205W        W38868   8.861  37.526   2.724
77206W        W38869  21.022   4.725   4.119
77207W        W38870  13.248  17.247   0.775
77208W        W38871  15.138   3.429   2.839
77209W        W38872  28.009  31.488   1.396
77210W        W38873  34.013   1.929  11.494
77211W        W38874  35.975  38.427   4.269
77212W        W38875  37.552  29.057   3.715
77213W        W38876  24.532  39.888  12.384
77214W        W38877  18.591  14.211  12.402
77215W        W38878  40.421  36.581   0.935
77216W        W38879   3.429  20.700   0.958
77217W        W38880  38.518  34.484  14.874
77218W        W38881  29.471  27.526   1.896
77219W        W38882  27.556  32.406   4.623
77220W        W38883  17.769  12.752   5.183
77221W        W38884  19.537  33.007   3.362
77222W        W38885  44.375  25.096   1.419
77223W        W38886  11.326  28.011   0.251
77224W        W38887   5.274  34.524   0.259
77225W        W38888  29.155  19.705   4.254
77226W        W38889   5.407  16.131   2.366
77227W        W38890  26.094  20.769   4.206
77228W        W38891  11.290  16.660   3.630
77229W        W38892  37.393  25.045  13.046
77230W        W38893  12.842   8.738   2.809
77231W        W38894   3.823  36.047  13.492
77232W        W38895  44.299  18.291  11.102
77233W        W38896  10.378  30.422   1.390
77234W        W38897  19.694   9.234   3.639
77235W        W38898   7.748   0.391  13.389
77236W        W38899  14.691  41.537  11.534
77237W        W38900   6.731   6.857  11.539
77238W        W38901  28.068   7.269  13.516
77239W        W38902  10.339  40.836  12.878
77240W        W38903  28.515  43.356   3.760
77241W        W38904   9.712  28.587  11.895
77242W        W38905  31.559   7.878  11.959
77243W        W38906   6.240  34.998  10.938
77244W        W38907  39.849  16.696   4.745
77245W        W38908  16.272  15.733  14.963
77246W        W38909  27.662  31.634   2.419
77247W        W38910   6.425  32.138   0.743
77248W        W38911  31.057   5.405  10.932
77249W        W38912  35.510   4.912  14.367
77250W        W38913   4.775  30.085  11.905
77251W        W38914   9.857  21.216   3.148
77252W        W38915  44.916  30.659  10.507
77253W        W38916   5.352  36.964   4.237
77254W        W38917  42.420  12.241  11.029
77255W        W38918   5.816  12.307   3.323
77256W        W38919  22.638  15.090  14.442
77257W        W38920  15.141   1.363   3.855
77258W        W38921  29.941   5.760  10.965
77259W        W38922  34.114   5.208  13.873
77260W        W38923  19.124   3.303  12.056
77261W        W38924  31.106  32.447   4.703
77262W        W38925  41.301  42.416   2.261
77263W        W38926  15.085  32.511  13.406
77264W        W38927  26.651  18.120  14.314
77265W        W38928  22.576  35.968  14.483
77266W        W38929  36.444   1.829  10.567
77267W        W38930   0.416  30.646   3.804
77268W        W38931  36.441  32.587   0.938
77269W        W38932   8.849  22.689  14.460
77270W        W38933   7.365   7.816  11.031
77271W        W38934  27.046   3.289   4.836
77272W        W38935  12.717   9.274  10.977
77273W        W38936   2.397   1.291   1.854
77274W        W38937  15.763  35.360  12.529
77275W        W38938  40.369  28.118  13.993
77276W        W38939  44.397  24.574   2.663
77277W        W38940  31.460  18.223  11.883
77278W        W38941   3.405  27.561  14.958
77279W        W38942  33.044   8.724   3.655
77280W        W38943  23.638  42.484   0.789
77281W        W38944   0.364   4.908   2.220
77282W        W38945  44.802  40.334  11.128
77283W        W38946  39.424  37.363  10.922
77284W        W38947  26.975  35.978   1.906
77285W        W38948  24.611  37.967  14.349
77286W        W38949  19.101  13.714  14.284
77287W        W38950  11.672  22.584  11.410
77288W        W38951  16.229   4.278   1.746
77289W        W38952  22.075  39.957   0.841
77290W        W38953  16.703  10.711   2.695
77291W        W38954  18.106  29.169  14.792
77292W        W38955  13.304  16.747  13.979
77293W        W38956  27.942   0.449  13.797
77294W        W38957  12.121  13.136   3.680
77295W        W38958  25.535  31.522   1.887
77296W        W38959  24.500  30.425  11.586
77297W        W38960   4.790  40.494  13.948
77298W        W38961  25.633   4.359  14.813
77299W        W38962  38.843  42.981  13.849
77300W        W38963  15.084   9.881  11.060
77301W        W38964  25.668  22.208   0.896
77302W        W38965  17.117   5.707  13.848
77303W        W38966  41.335  15.721  12.049
77304W        W38967  31.940  37.015  12.478
77305W        W38968  18.284  41.803  13.937
77306W        W38969  23.151  26.475   2.178
77307W        W38970  23.671  22.705   0.244
77308W        W38971   7.738  30.985   3.325
77309W        W38972  28.138   3.718   1.700
77310W        W38973   1.904  26.172   2.823
77311W        W38974  37.467  36.882   1.745
77312W        W38975  36.579  39.474   0.470
77313W        W38976  24.063  18.791   3.175
77314W        W38977  18.095  11.234  14.787
77315W        W38978  33.022  24.150  13.932
77316W        W38979  16.161   4.371  12.005
77317W        W38980  19.587   5.866  12.997
77318W        W38981  20.759  39.932   3.714
77319W        W38982   1.461  24.518  11.051
77320W        W38983  38.974  30.996  10.596
77321W        W38984  33.955   8.771   0.411
77322W        W38985  42.416  22.213   0.735
77323W        W38986   7.303  38.959   4.232
77324W        W38987  44.353  11.692   4.731
77325W        W38988  34.962  42.374   0.305
77326W        W38989  39.396  34.598   2.229
77327W        W38990  13.272   3.875   3.202
77328W        W38991  34.018   1.822   2.330
77329W        W38992  31.151  37.907  10.556
77330W        W38993  12.219  19.104   0.303
77331W        W38994  15.202  29.936  13.427
77332W        W38995  15.790  13.677  14.355
77333W        W38996  28.657  35.468   1.894
77334W        W38997  19.710  28.522  13.061
77335W        W38998  33.604  29.058   0.379
77336W        W38999   1.925  15.283   3.712
77337W        W39000  16.095   2.784  12.547
77338W        W39001  34.985  13.346  12.943
77339W        W39002  24.204   6.413   1.233
77340W        W39003  17.777  37.004   3.367
77341W        W39004  14.667  33.625  10.507
77342W        W39005  35.529   3.951   1.732
77343W        W39006  21.135   9.864   0.389
77344W        W39007  14.296  18.726  13.888
77345W        W39008  38.437  19.243  11.934
77346W        W39009  25.179  38.883   4.190
77347W        W39010  32.899  18.593   0.914
77348W        W39011  11.708  28.984   0.738
77349W        W39012   0.340  15.768  10.645
77350W        W39013  38.874  22.203   0.899
77351W        W39014  23.063  32.075   0.777
77352W        W39015  26.138  39.961   4.315
77353W        W39016  15.590  40.032   1.432
77354W        W39017  22.521  25.193   1.411
77355W        W39018   1.295   8.723  12.866
77356W        W39019   6.294  21.620  14.420
77357W        W39020   8.323  27.670  10.634
77358W        W39021  33.900  33.561  14.821
77359W        W39022   7.737  39.410   2.201
77360W        W39023  32.957  24.597   3.870
77361W        W39024  10.155  30.589   1.929
77362W        W39025  22.242   0.937   4.161
77363W        W39026   1.383  14.227  11.982
77364W        W39027   0.922  33.597   1.707
77365W        W39028  41.927  24.992  13.411
77366W        W39029  40.943  12.615   4.197
77367W        W39030  10.215  12.301   0.255
77368W        W39031  25.103   8.850   4.202
77369W        W39032   6.907  42.794   3.665
77370W        W39033  32.552   5.815  13.362
77371W        W39034  42.485  31.558   4.158
77372W        W39035  21.534  13.725  14.885
77373W        W39036  11.718  21.089  12.472
77374W        W39037  18.223  38.517   3.672
77375W        W39038  11.164   3.353  10.933
77376W        W39039  11.671  42.298  14.851
77377W        W39040   0.454  35.367  12.868
77378W        W39041  29.038  12.137   1.310
77379W        W39042  20.700  39.022   4.288
77380W        W39043   1.806  33.426  11.608
77381W        W39044  11.797  27.000   1.881
77382W        W39045  34.030  34.867   0.868
77383W        W39046  11.160   3.872   4.759
77384W        W39047  24.674  19.742   5.216
77385W        W39048  19.630  29.529   3.315
77386W        W39049   3.354  24.548   1.866
77387W        W39050  10.770   2.808   0.259
77388W        W39051  12.785  21.617  13.517
77389W        W39052  13.185   8.287  12.535
77390W        W39053  31.906  39.324  14.962
77391W        W39054  35.397   4.388  11.497
77392W        W39055  19.236  38.836   3.354
77393W        W39056  37.937  41.820  14.923
77394W        W39057   4.702  24.114  10.424
77395W        W39058  11.343  38.386   2.877
77396W        W39059  43.379  42.829  11.964
77397W        W39060  13.145  28.475  14.986
77398W        W39061  15.277   1.796   3.735
77399W        W39062   1.773  15.124   0.371
77400W        W39063  22.706  26.495  12.854
77401W        W39064  16.228  27.142   4.317
77402W        W39065  11.661  36.962  11.088
77403W        W39066   8.243   0.986  10.642
77404W        W39067  15.581  22.727  14.007
77405W        W39068  23.592  39.839  12.405
77406W        W39069  15.776  26.527   2.875
77407W        W39070  30.422  31.138   5.146
77408W        W39071  15.123  24.171   1.753
77409W        W39072  36.435  23.207   9.615
77410W        W39073  16.696  19.704  14.871
77411W        W39074  38.973  42.497   2.853
77412W        W39075  11.654   7.361  14.444
77413W        W39076  12.124  35.556   2.726
77414W        W39077  25.617   3.297   3.337
77415W        W39078   9.337  12.232  14.300
77416W        W39079  18.160  16.167   0.959
77417W        W39080  28.167  34.511   2.867
77418W        W39081  17.298  36.975  14.941
77419W        W39082  34.468  30.596  12.070
77420W        W39083  10.715  43.960   2.234
77421W        W39084  35.526   3.363  13.451
77422W        W39085  32.448   4.317  13.060
77423W        W39086  25.216   1.354   4.739
77424W        W39087  24.542  24.725   5.311
77425W        W39088  19.125   5.269  13.444
77426W        W39089  44.426  27.456   2.874
77427W        W39090  15.716  22.606   0.912
77428W        W39091  34.090  39.836  11.112
77429W        W39092  13.811  17.666  10.947
77430W        W39093  37.374  10.351  13.349
77431W        W39094  42.376  43.277  14.791
77432W        W39095  29.438  26.594  13.030
77433W        W39096  30.561  22.706   4.319
77434W        W39097  12.705  21.168  11.496
77435W        W39098  15.084  21.556   0.383
77436W        W39099  11.288  37.061   5.628
77437W        W39100  14.791  23.208   2.329
77438W        W39101  35.052  14.656   4.601
77439W        W39102  34.046  11.746  14.861
77440W        W39103   5.255  28.583   4.326
77441W        W39104   6.862  36.440   2.895
77442W        W39105  42.474  18.630  14.000
77443W        W39106  35.919  29.090   0.376
77444W        W39107  40.484  25.009   9.996
77445W        W39108  40.352  43.336   0.821
77446W        W39109  13.791  25.525   0.900
77447W        W39110  10.241  15.259   4.637
77448W        W39111  21.587  36.935  11.973
77449W        W39112  21.655  11.720   0.393
77450W        W39113  18.547  30.990  14.990
77451W        W39114  34.580   2.412   1.327
77452W        W39115  36.544  31.469   1.800
77453W        W39116   0.494  12.263  14.450
77454W        W39117  36.863  30.062   2.352
77455W        W39118  41.977  11.339  12.857
77456W        W39119  38.336  37.340  14.964
77457W        W39120  10.655  10.745   2.775
77458W        W39121  18.772  44.316   2.307
77459W        W39122  33.594  43.884   1.925
77460W        W39123   4.786  15.789  10.486
77461W        W39124  10.149  30.535   0.779
77462W        W39125  32.425  29.594   1.840
77463W        W39126  33.903  29.434  12.387
77464W        W39127  39.940  10.310  12.914
77465W        W39128  38.026  35.568   4.211
77466W        W39129  44.956  24.037  11.556
77467W        W39130  10.369  29.606   3.784
77468W        W39131   5.839  14.764  12.346
77469W        W39132  12.310  10.288   4.760
77470W        W39133   5.355  13.116   1.412
77471W        W39134  27.686  20.040  14.991
77472W        W39135  14.691  11.716  11.400
77473W        W39136   8.305  18.203  13.004
77474W        W39137   4.448  13.312   1.805
77475W        W39138   5.352   4.205  13.938
77476W        W39139   8.254  13.270   0.283
77477W        W39140  42.977  36.436  13.872
77478W        W39141  17.614  35.396  11.108
77479W        W39142  31.955  30.937   3.342
77480W        W39143  36.515  22.049  13.481
77481W        W39144  31.558  29.984   0.758
77482W        W39145  29.469   6.281  14.916
77483W        W39146  17.235  13.762  11.924
77484W        W39147  16.622   1.403  13.518
77485W        W39148  12.704  26.577   3.750
77486W        W39149  25.151  33.060  14.407
77487W        W39150  20.624  20.140  12.985
77488W        W39151   6.796   5.702   1.414
77489W        W39152   0.367  25.130   2.836
77490W        W39153  25.708   0.906   1.865
77491W        W39154   8.166  20.674   1.325
77492W        W39155  43.318  16.225  14.332
77493W        W39156  20.646  10.301  12.093
77494W        W39157  14.765   5.356  13.460
77495W        W39158  36.959  36.018   1.745
77496W        W39159  39.473  33.106  12.394
77497W        W39160  16.783   8.339   4.611
77498W        W39161  33.388  40.540   2.284
77499W        W39162  43.948   8.799  12.942
77500W        W39163  15.740  35.443  13.051
77501W        W39164  35.559   4.277   4.170
77502W        W39165  28.937  11.247  10.509
77503W        W39166   0.831  36.524  10.054
77504W        W39167  30.540  37.978   4.795
77505W        W39168  37.444   7.312  14.478
77506W        W39169  21.116  15.258   2.246
77507W        W39170  29.447  29.650   3.279
77508W        W39171  27.983   1.452  13.393
77509W        W39172  36.862  40.327  10.623
77510W        W39173  27.063  11.727   3.310
77511W        W39174  12.731  35.477  11.047
77512W        W39175  22.652  41.344   2.379
77513W        W39176   9.278  19.113   3.637
77514W        W39177  13.239   6.361  14.398
77515W        W39178  28.505  18.746  10.455
77516W        W39179   9.302  16.300   3.718
77517W        W39180  43.491  23.496  13.959
77518W        W39181   9.288  31.535   0.752
77519W        W39182   4.744   7.181  13.027
77520W        W39183  26.632  25.612   3.776
77521W        W39184  44.984  41.518   0.873
77522W        W39185   2.272  25.981   0.416
77523W        W39186  15.646  12.667  14.924
77524W        W39187  29.626  35.366   3.180
77525W        W39188  12.721  20.741   1.341
77526W        W39189  13.736  29.060  10.511
77527W        W39190  18.757  42.431  10.453
77528W        W39191  18.709  36.356  14.348
77529W        W39192  21.168  42.983   0.854
77530W        W39193  36.386  29.569  11.375
77531W        W39194   4.342  44.947   4.308
77532W        W39195   0.904   1.962  11.399
77533W        W39196   1.325  15.194   0.313
77534W        W39197  40.335   8.203   0.772
77535W        W39198  31.122   7.774   3.270
77536W        W39199  16.623  35.088   3.277
77537W        W39200  23.206   2.285   0.346
77538W        W39201  42.827  23.555  14.317
77539W        W39202  41.408  34.884   0.819
77540W        W39203  35.089   4.722   0.415
77541W        W39204  17.569   1.930   1.836
77542W        W39205  39.020   3.724   4.639
77543W        W39206  36.445   3.261   5.313
77544W        W39207  35.006  16.218  14.511
77545W        W39208  25.084   1.843  11.476
77546W        W39209  18.636   7.287   3.198
77547W        W39210  14.319  35.876  13.048
77548W        W39211  16.651   5.823  12.949
77549W        W39212   2.464  22.102  14.943
77550W        W39213  42.369  44.313   1.382
77551W        W39214  33.402   8.309   0.909
77552W        W39215  37.426   5.301   1.222
77553W        W39216   4.384  25.983  11.115
77554W        W39217  12.754  37.529  12.550
77555W        W39218   8.395  38.830   2.330
77556W        W39219   0.856   7.255   2.305
77557W        W39220  18.545  39.379  11.589
77558W        W39221   6.863  19.224   2.402
77559W        W39222  25.703  43.447   4.718
77560W        W39223   4.725   8.792  13.312
77561W        W39224  34.427  27.067  13.934
77562W        W39225  42.780   7.341   5.195
77563W        W39226  30.601  36.965  13.908
77564W        W39227  31.106   5.374   4.117
77565W        W39228  30.943  18.122  12.346
77566W        W39229  31.564  15.811  12.522
77567W        W39230  16.262  21.249  10.924
77568W        W39231  24.168  29.643  13.826
77569W        W39232   5.752  26.689  11.125
77570W        W39233  36.439   8.784  13.989
77571W        W39234  36.863  42.786  10.972
77572W        W39235  35.968  40.889  14.313
77573W        W39236  44.421   7.379  13.016
77574W        W39237  31.055  41.514  11.397
77575W        W39238  11.818  35.515   0.463
77576W        W39239   9.736  39.452   0.948
77577W        W39240  14.107   7.700  10.147
77578W        W39241  31.404  25.504   2.861
77579W        W39242  26.042  23.240  13.036
77580W        W39243  43.881  34.904   1.884
77581W        W39244  17.120  39.830   3.206
77582W        W39245  17.714  44.503  10.930
77583W        W39246   5.427  37.363   1.372
77584W        W39247  32.555   9.738  11.087
77585W        W39248  22.541  16.787  11.042
77586W        W39249   0.897  31.540  12.068
77587W        W39250  21.682   2.331   0.280
77588W        W39251  20.736  41.032   3.148
77589W        W39252   4.942  16.715  12.823
77590W        W39253  38.972   0.841   0.347
77591W        W39254  38.030  40.887  13.464
77592W        W39255  20.530  28.076  12.848
77593W        W39256  25.473  30.541  12.339
77594W        W39257   4.400  28.656   3.329
77595W        W39258  35.536   0.965   1.281
77596W        W39259  16.717  40.468  10.452
77597W        W39260  24.629   7.792  10.439
77598W        W39261  41.941  32.045   1.272
77599W        W39262  32.012  16.206   4.723
77600W        W39263  33.071  13.226   3.659
77601W        W39264   5.212  12.359   3.796
77602W        W39265  11.223  42.952   1.863
77603W        W39266  27.521   4.358  12.836
77604W        W39267  30.059  18.151   0.415
77605W        W39268  14.188   8.726  13.852
77606W        W39269  17.605  40.826  12.844
77607W        W39270  21.719  27.481   9.640
77608W        W39271  44.364  23.503   2.854
77609W        W39272   2.863   7.834  14.948
77610W        W39273  26.520  36.347   0.480
77611W        W39274   8.785  17.278   5.302
77612W        W39275   2.230  42.908  11.493
77613W        W39276  22.184  22.517   1.826
77614W        W39277   6.280  10.811   3.208
77615W        W39278  22.093   7.256  14.851
77616W        W39279  16.813  31.443  10.601
77617W        W39280   0.394   7.743  14.805
77618W        W39281  14.647  43.807   2.267
77619W        W39282  24.527  37.502   3.330
77620W        W39283  40.364  16.802  10.428
77621W        W39284  29.076  43.923  11.383
77622W        W39285  37.936  33.402  10.070
77623W        W39286  32.924  36.956  11.047
77624W        W39287  28.541  16.572  13.307
77625W        W39288  28.656  30.009  10.492
77626W        W39289  12.326  39.003  13.403
77627W        W39290  34.930   5.724   4.171
77628W        W39291  37.892  30.957   3.303
77629W        W39292  30.953  28.586  11.475
77630W        W39293   8.819  23.107   4.150
77631W        W39294  37.379  32.482  14.309
77632W        W39295  20.656  11.291  12.444
77633W        W39296  38.372  20.079   1.777
77634W        W39297  38.009  42.349  11.878
77635W        W39298  26.572  37.553   2.850
77636W        W39299   4.770  14.308   5.175
77637W        W39300   4.388  23.110   0.442
77638W        W39301  25.116  21.578   1.214
77639W        W39302  18.278   8.742  13.441
77640W        W39303  35.409  30.433   0.819
77641W        W39304  14.680  42.864  12.900
77642W        W39305   8.242  15.317  11.986
77643W        W39306  42.881   0.843   2.351
77644W        W39307  22.199  31.463   0.379
77645W        W39308  28.136  19.058   3.752
77646W        W39309  22.053  40.033  12.888
77647W        W39310  10.820  18.262  13.797
77648W        W39311  11.197  14.774   3.222
77649W        W39312  25.038   4.298  12.893
77650W        W39313  39.475  10.252   2.213
77651W        W39314   1.247  12.715  13.797
77652W        W39315   8.883  28.142  14.971
77653W        W39316  13.656  17.141   4.248
77654W        W39317  37.389  16.751   1.333
77655W        W39318  16.582   4.233   4.353
77656W        W39319  13.667   6.415   0.957
77657W        W39320   5.855  22.728  10.506
77658W        W39321   7.861   9.815  14.507
77659W        W39322  34.369  34.491  11.535
77660W        W39323  17.705  39.963  14.964
77661W        W39324   3.326  31.447   1.402
77662W        W39325  30.140   4.338  14.497
77663W        W39326   9.775  15.663  12.824
77664W        W39327   9.229  43.503   3.822
77665W        W39328   7.796  20.173  12.405
77666W        W39329  26.015  13.651  13.857
77667W        W39330  35.100  13.667   1.804
77668W        W39331  25.561   7.369  14.010
77669W        W39332  42.527  34.064  12.994
77670W        W39333  26.100  24.197  10.600
77671W        W39334  25.470  28.099  10.976
77672W        W39335  16.692  21.019  12.008
77673W        W39336  40.435  44.349   9.945
77674W        W39337   3.760  35.946  11.377
77675W        W39338  39.526  13.344   0.803
77676W        W39339  12.846  30.603  10.966
77677W        W39340   6.196  12.815  12.383
77678W        W39341  15.189  39.983  13.052
77679W        W39342  12.280  24.196   2.877
77680W        W39343  31.431  15.659  10.047
77681W        W39344  22.533  16.151  12.573
77682W        W39345  12.770  35.990  14.956
77683W        W39346   4.364   3.419   1.389
77684W        W39347   5.687  30.008   4.693
77685W        W39348  38.569   4.405  11.985
77686W        W39349  14.799  30.117  13.897
77687W        W39350  44.266  31.907   5.241
77688W        W39351  32.010  29.964   4.616
77689W        W39352  23.624  35.094   4.632
77690W        W39353  17.222  28.141  14.426
77691W        W39354  44.316   1.761  11.597
77692W        W39355   5.345   2.753   2.261
77693W        W39356  29.498  22.157   4.817
77694W        W39357  15.685  10.340  13.806
77695W        W39358  22.501  20.095   4.202
77696W        W39359  13.826  12.198   0.392
77697W        W39360  37.406  17.764  11.516
77698W        W39361  22.532   5.837  10.014
77699W        W39362  41.004  41.947   4.800
77700W        W39363  11.162  34.589   1.932
77701W        W39364  32.935   5.915  12.508
77702W        W39365  17.256  21.076   2.238
77703W        W39366  27.656   1.883  14.982
77704W        W39367  36.056  20.245  11.870
77705W        W39368  30.046  11.692   2.376
77706W        W39369  18.721  36.969  14.324
77707W        W39370  15.684  33.564  12.353
77708W        W39371  42.424  23.175   2.850
77709W        W39372  14.654  31.924  12.053
77710W        W39373   5.837   4.837   0.296
77711W        W39374  37.036  42.333   4.664
77712W        W39375   0.804  11.366   1.365
77713W        W39376  22.549  13.112  12.478
77714W        W39377  14.098   1.379  13.935
77715W        W39378  32.526  21.527  10.072
77716W        W39379  30.008  10.176  12.480
77717W        W39380  28.513  32.495   3.321
77718W        W39381  27.456  36.033  11.553
77719W        W39382  43.885  20.215   1.751
77720W        W39383  35.892  20.087   0.281
77721W        W39384  37.954  18.075   3.258
77722W        W39385   5.338  40.851   2.193
77723W        W39386  24.722  42.426  14.510
77724W        W39387  17.748   1.768   0.303
77725W        W39388  37.853  25.652   3.385
77726W        W39389  38.511   0.377   0.738
77727W        W39390   4.896  18.228   5.206
77728W        W39391  29.638  21.548   0.412
77729W        W39392  23.502  41.953  11.945
77730W        W39393  27.612  27.964   1.894
77731W        W39394  20.228  37.545   3.249
77732W        W39395   6.738  43.958   4.296
77733W        W39396   9.283   2.905   4.322
77734W        W39397  15.628   2.883  13.920
77735W        W39398  38.014  23.999   3.638
77736W        W39399  42.942  19.082   1.902
77737W        W39400  36.933  13.280   3.631
77738W        W39401  36.526  36.037  10.931
77739W        W39402  42.999  30.160   4.752
77740W        W39403  22.525  11.177  13.339
77741W        W39404  33.602  11.762   1.868
77742W        W39405   6.300  10.195   2.672
77743W        W39406  35.868   6.837   0.777
77744W        W39407  16.213  44.810   1.365
77745W        W39408   8.282  21.655  12.409
77746W        W39409  11.778  18.215   2.895
77747W        W39410  10.169  40.379  13.312
77748W        W39411  25.512  32.512  11.513
77749W        W39412   9.222   1.869  12.097
77750W        W39413   5.432  34.058  12.974
77751W        W39414  27.474  44.926  11.443
77752W        W39415  20.164  31.570   2.752
77753W        W39416  25.540  44.472  13.950
77754W        W39417  39.413  19.225  13.916
77755W        W39418   2.791  17.154  11.088
77756W        W39419  37.841  34.402  12.827
77757W        W39420  30.065  15.819  14.810
77758W        W39421  14.638  30.516   4.194
77759W        W39422  41.391  12.688  12.079
77760W        W39423   7.735  33.451   2.797
77761W        W39424  44.371  40.453  10.621
77762W        W39425  34.008  37.388   0.962
77763W        W39426  21.090   0.823   0.868
77764W        W39427  44.262  12.627   2.741
77765W        W39428   8.714  13.266   2.693
77766W        W39429   9.242  28.942   0.368
77767W        W39430  30.006  19.234  10.430
77768W        W39431  20.039  37.002  12.876
77769W        W39432  12.813  11.307  12.384
77770W        W39433  17.681  21.083  11.878
77771W        W39434  43.494  35.600   3.833
77772W        W39435  42.348  32.501   0.253
77773W        W39436  11.177  28.672   2.891
77774W        W39437  43.819   8.874   0.377
77775W        W39438  33.598   1.334  14.996
77776W        W39439  23.092  39.988   9.490
77777W        W39440   5.234  26.162  12.983
77778W        W39441  31.949  16.657  12.935
77779W        W39442  20.583  11.322   4.636
77780W        W39443  40.443  14.697  13.390
77781W        W39444  15.320  36.062   2.685
77782W        W39445  28.608  12.695   1.930
77783W        W39446  37.429   4.266   3.816
77784W        W39447  27.680  39.945   5.121
77785W        W39448  42.818  14.239  11.933
77786W        W39449   8.703  16.303  10.432
77787W        W39450  40.527   5.848  13.421
77788W        W39451  11.634  30.936   4.257
77789W        W39452   8.318   8.819  14.870
77790W        W39453  39.005  16.158   4.222
77791W        W39454  33.892  32.396  12.506
77792W        W39455  21.696  19.693   0.773
77793W        W39456  36.880  35.086  10.411
77794W        W39457  18.149   3.325   3.203
77795W        W39458  41.359  31.898   2.181
77796W        W39459  21.088  20.609   3.212
77797W        W39460   9.385  36.918  13.341
77798W        W39461  18.752  12.181  14.510
77799W        W39462   5.776  26.047  12.862
77800W        W39463  40.539  32.462  12.986
77801W        W39464  12.245  31.628  11.468
77802W        W39465  22.551  23.625   3.343
77803W        W39466   6.833  17.277  14.396
77804W        W39467  40.307  44.382  12.842
77805W        W39468  13.682   1.870  14.760
77806W        W39469  10.313   1.289   0.254
77807W        W39470  42.483  26.524  14.817
77808W        W39471  33.561  28.128   5.093
77809W        W39472  33.074  36.910  12.067
77810W        W39473   1.886  16.246  14.356
77811W        W39474  24.084  26.121  14.965
77812W        W39475  28.531  20.084   1.356
77813W        W39476  24.688   4.395   1.698
77814W        W39477  24.495   7.264  10.510
77815W        W39478  16.076   4.710   4.803
77816W        W39479  21.122  23.590   1.270
77817W        W39480  25.124   2.841  12.951
77818W        W39481  27.621   1.403  12.402
77819W        W39482  17.180  38.331   4.252
77820W        W39483   6.262  15.585   3.737
77821W        W39484  30.111  32.415   1.404
77822W        W39485  32.630  14.202   3.291
77823W        W39486  37.511  37.888  13.336
77824W        W39487  43.810  27.041   4.170
77825W        W39488   2.777  12.817  11.590
77826W        W39489  33.910  17.298  12.571
77827W        W39490  22.621  20.571   2.755
77828W        W39491  23.637   9.701   3.353
77829W        W39492  24.604  29.518  13.052
77830W        W39493   9.732  26.522  14.007
77831W        W39494  12.660  16.265  12.878
77832W        W39495  29.970   8.258  12.392
77833W        W39496  24.206  10.672   3.336
77834W        W39497  39.010   1.828  10.514
77835W        W39498  17.160  18.278   2.763
77836W        W39499   2.934   1.787   4.217
77837W        W39500   8.802   6.310  14.862
77838W        W39501  15.668  27.095  11.388
77839W        W39502  23.605  35.904  14.418
77840W        W39503  19.599  42.348   0.425
77841W        W39504  42.031  14.662   4.217
77842W        W39505  44.950  28.021   3.332
77843W        W39506  32.427   7.241   1.282
77844W        W39507  20.533  32.455  11.589
77845W        W39508  36.583  11.711  11.944
77846W        W39509   8.170   6.275  12.917
77847W        W39510  35.559  44.823   0.476
77848W        W39511  19.545  36.377   3.309
77849W        W39512  32.073  23.564  13.514
77850W        W39513  35.011  32.937   4.623
77851W        W39514  42.852  44.283  14.946
77852W        W39515  18.085  15.088  10.612
77853W        W39516  25.091  33.953   1.728
77854W        W39517  13.600  34.497  10.416
77855W        W39518  24.988  33.625   2.382
77856W        W39519  27.516   1.365   1.916
77857W        W39520   0.450  26.464  12.990
77858W        W39521  31.949  12.772  11.982
77859W        W39522  29.039   3.336  13.008
77860W        W39523  17.193  14.737   3.795
77861W        W39524   4.802  31.532   1.371
77862W        W39525  30.922  42.864  14.928
77863W        W39526  31.080  15.653   3.316
77864W        W39527  18.211   8.713   4.141
77865W        W39528  11.802  28.061   2.812
77866W        W39529  16.125   4.725   0.444
77867W        W39530  34.572  13.818  13.951
77868W        W39531  11.201  24.637   2.414
77869W        W39532   2.934  17.696  13.333
77870W        W39533   2.826  13.288  11.051
77871W        W39534   1.267  18.706  12.360
77872W        W39535   4.213  30.917   2.230
77873W        W39536  41.526  29.555   3.703
77874W        W39537   9.358  21.205  11.390
77875W        W39538  31.998  34.868  11.424
77876W        W39539  39.827  33.066   4.125
77877W        W39540   4.881  25.999   3.834
77878W        W39541  15.176  35.948   9.948
77879W        W39542  15.123  25.695   2.713
77880W        W39543  28.994   4.336  11.390
77881W        W39544   2.923  20.219   0.378
77882W        W39545   9.219  22.227  10.586
77883W        W39546  34.865  44.359   3.211
77884W        W39547  10.218  41.376   2.662
77885W        W39548  11.834  35.059   1.767
77886W        W39549  28.680  15.175  13.030
77887W        W39550  23.041   5.206   1.436
77888W        W39551  29.947  34.951   0.896
77889W        W39552  26.574  24.603   4.193
77890W        W39553  37.472   6.754   0.309
77891W        W39554  20.267  31.128   1.879
77892W        W39555  37.869  31.514   3.147
77893W        W39556  30.605  34.422   2.410
77894W        W39557  39.362  24.534   3.366
77895W        W39558  16.118   6.717   2.863
77896W        W39559  36.930  32.440   4.276
77897W        W39560   1.926  15.590  12.410
77898W        W39561  34.963   3.738   1.930
77899W        W39562  44.929  12.637   2.214
77900W        W39563  14.616  15.644  10.596
77901W        W39564  31.577  42.400   1.408
77902W        W39565  30.470  13.793   4.132
77903W        W39566  33.039  38.525   2.846
77904W        W39567  31.498  26.534  12.936
77905W        W39568  33.006  35.080   4.306
77906W        W39569  14.605  16.136   2.694
77907W        W39570  13.799  33.988  14.005
77908W        W39571  16.285  30.094   1.311
77909W        W39572  34.876  25.044   1.251
77910W        W39573   4.926  28.950   3.226
77911W        W39574  43.468  38.559   1.773
77912W        W39575  21.723  43.874  12.833
77913W        W39576  28.069  10.318   3.780
77914W        W39577  23.659  41.387   4.241
77915W        W39578  26.010  34.077  13.402
77916W        W39579  10.226  26.037  13.966
77917W        W39580   4.211  24.673  11.076
77918W        W39581   7.900  41.328  11.567
77919W        W39582   4.882  28.055   2.877
77920W        W39583  41.963  30.110   4.778
77921W        W39584  19.668  11.301   2.254
77922W        W39585  20.621  27.169  12.349
77923W        W39586  13.842  15.157  14.913
77924W        W39587  13.296  30.601   1.363
77925W        W39588  35.382  21.742   2.688
77926W        W39589  40.459  42.438  10.412
77927W        W39590  28.090  24.143   2.877
77928W        W39591  36.898  12.769   3.306
77929W        W39592  25.075  28.615   2.818
77930W        W39593  23.992  12.788  10.096
77931W        W39594  18.129  30.158   4.642
77932W        W39595  32.391  18.074   3.694
77933W        W39596   4.336  14.231  11.389
77934W        W39597   9.682  34.543   3.318
77935W        W39598  42.989  26.459  13.373
77936W        W39599  39.417  16.590  12.897
77937W        W39600  44.477   5.203   0.753
77938W        W39601  21.691   7.218  12.003
77939W        W39602  41.448  39.983  12.340
77940W        W39603  24.050  24.129   4.774
77941W        W39604  44.900  37.343  12.434
77942W        W39605  35.080  39.416  13.390
77943W        W39606   5.896   2.257  10.473
77944W        W39607  40.825  29.542  13.980
77945W        W39608  40.880  24.006  14.320
77946W        W39609   1.314  42.836  10.964
77947W        W39610  35.596   3.395   5.240
77948W        W39611  24.541  28.175  12.881
77949W        W39612   2.950  43.922  14.487
77950W        W39613   8.326  23.010  14.357
77951W        W39614   0.414  34.912   2.272
77952W        W39615  21.251  38.547   0.839
77953W        W39616  28.434  26.072  14.012
77954W        W39617  19.095  16.282   1.359
77955W        W39618  17.212  23.660   3.723
77956W        W39619  30.650   4.449  14.890
77957W        W39620  37.572  31.570   4.810
77958W        W39621   2.356  42.306  11.594
77959W        W39622  34.600  42.974   4.689
77960W        W39623   6.680  26.528   2.309
77961W        W39624  12.139  30.006  13.419
77962W        W39625  34.577  29.974   1.820
77963W        W39626  40.967  35.595  12.832
77964W        W39627   9.768  16.768   2.303
77965W        W39628  43.501   2.445  11.899
77966W        W39629  22.573  44.795   0.406
77967W        W39630  38.397  44.469   3.266
77968W        W39631  24.197  26.122  13.864
77969W        W39632   8.200  36.048  14.443
77970W        W39633  15.248  10.146  10.476
77971W        W39634  38.329  19.199  10.967
77972W        W39635  37.995   8.375   3.777
77973W        W39636   7.726  35.399   1.736
77974W        W39637  21.221   6.295  11.974
77975W        W39638  44.780  14.831   4.224
77976W        W39639   2.425   0.886   1.354
77977W        W39640  34.575  27.976  14.811
77978W        W39641  35.458  10.679  13.959
77979W        W39642   9.843  19.697   4.303
77980W        W39643  28.161  44.758   1.745
77981W        W39644   4.833  13.118  12.036
77982W        W39645  44.446  22.199  10.952
77983W        W39646  31.061  40.848   0.858
77984W        W39647   5.337   4.406   1.378
77985W        W39648  37.466  21.035   1.285
77986W        W39649  25.100  28.513   0.279
77987W        W39650  21.245  40.913   2.187
77988W        W39651  15.647  11.803  13.372
77989W        W39652  24.689   0.748   1.405
77990W        W39653  39.558   8.253   1.750
77991W        W39654  18.222  36.586  12.415
77992W        W39655  20.140  31.994  10.583
77993W        W39656  18.621   1.923  13.960
77994W        W39657   0.401  40.352  11.025
77995W        W39658   4.380  38.981  13.383
77996W        W39659  28.981   5.256   1.214
77997W        W39660  25.549   7.183   1.747
77998W        W39661  16.637  37.965  10.057
77999W        W39662   2.896   8.272  14.294
78000W        W39663  29.171  28.604  11.601
78001W        W39664  16.207  40.458  11.099
78002W        W39665  31.426  25.604   3.770
78003W        W39666   9.172   3.842   2.829
78004W        W39667  10.761   4.807  13.367
78005W        W39668  44.864  21.604  14.407
78006W        W39669   3.319  19.129  13.816
78007W        W39670  26.188   8.654   4.123
78008W        W39671  13.782   7.754   5.669
78009W        W39672   7.712  31.126  13.350
78010W        W39673  33.036  26.504   1.404
78011W        W39674  17.589  29.000  11.992
78012W        W39675  31.960   1.937  13.921
78013W        W39676  31.635   1.810  10.491
78014W        W39677  33.084   2.412  10.485
78015W        W39678  44.799  40.336  13.060
78016W        W39679  16.189  36.375   2.752
78017W        W39680   6.409   7.375   0.439
78018W        W39681  28.109  44.427   4.773
78019W        W39682  14.117  15.802  12.855
78020W        W39683  32.463  19.551  14.376
78021W        W39684   3.874  30.605   1.697
78022W        W39685  25.056  14.835  12.346
78023W        W39686   8.811  29.934   2.206
78024W        W39687  37.859  27.043  11.076
78025W        W39688  34.900  13.135   2.302
78026W        W39689  10.247  29.559   3.344
78027W        W39690  31.462  17.610   1.876
78028W        W39691  38.564  39.834   3.172
78029W        W39692  37.366  10.666  11.482
78030W        W39693  25.051  31.905  14.923
78031W        W39694  36.857  18.089  10.921
78032W        W39695  31.896  19.277  14.805
78033W        W39696  15.800  28.022  13.988
78034W        W39697  34.892   5.267   2.854
78035W        W39698  39.453  27.573   2.259
78036W        W39699  31.901   1.326   1.355
78037W        W39700   2.289  22.501   4.697
78038W        W39701  18.140  37.960   3.335
78039W        W39702   6.904  18.551   0.885
78040W        W39703   2.434  38.488   4.223
78041W        W39704   8.350   2.357  13.326
78042W        W39705  40.048  41.898  14.899
78043W        W39706  26.072  39.423   0.421
78044W        W39707  31.119  37.966   2.322
78045W        W39708  13.176   3.291   3.273
78046W        W39709  18.708  40.439   4.199
78047W        W39710  11.332  21.665   1.844
78048W        W39711  15.248  18.686  11.399
78049W        W39712  27.529  29.039   2.296
78050W        W39713  20.768  33.615   4.620
78051W        W39714  23.116  29.971  11.944
78052W        W39715  23.189   5.817   3.829
78053W        W39716   4.208   6.745  10.444
78054W        W39717  18.163  21.550  11.465
78055W        W39718  27.029  21.264   0.476
78056W        W39719   3.818  33.429   3.685
78057W        W39720  42.831  15.209   5.144
78058W        W39721  11.298   6.715   9.587
78059W        W39722  35.902  13.677   2.699
78060W        W39723  34.548  18.121   4.242
78061W        W39724  44.292  30.491  12.942
78062W        W39725  27.495   7.876  11.479
78063W        W39726  23.164   1.254   3.788
78064W        W39727  16.219   6.868  10.589
78065W        W39728   7.378  29.622  12.899
78066W        W39729  17.169   9.804  13.892
78067W        W39730  41.337  33.626   0.852
78068W        W39731  39.318   1.873  10.485
78069W        W39732  32.628   8.812  10.903
78070W        W39733  13.323   7.863  11.986
78071W        W39734   0.978  31.626   1.720
78072W        W39735  31.153  29.075  12.058
78073W        W39736  21.255  20.567  14.762
78074W        W39737  20.604  27.993   4.146
78075W        W39738  21.733   9.672   3.376
78076W        W39739  34.474  30.562   0.730
78077W        W39740   7.384  31.032  13.822
78078W        W39741  18.552  43.833   3.268
78079W        W39742  28.450  28.968   2.381
78080W        W39743  38.844  36.440   4.605
78081W        W39744   5.736  23.003   0.829
78082W        W39745  21.680   7.367  11.569
78083W        W39746  38.488  24.011   2.721
78084W        W39747  28.979  29.025  14.284
78085W        W39748  16.180  31.094  11.908
78086W        W39749  14.710  44.771  12.457
78087W        W39750   8.781  30.973   4.779
78088W        W39751  26.170  11.270   3.206
78089W        W39752  10.732  16.770   1.799
78090W        W39753  32.592  41.812   4.276
78091W        W39754   5.268  26.171  12.413
78092W        W39755   4.932  21.625  14.759
78093W        W39756  20.039  14.115   9.944
78094W        W39757  11.314  18.712   2.708
78095W        W39758  44.006  16.200  11.440
78096W        W39759  12.729  24.068  14.951
78097W        W39760  37.870  34.998   0.309
78098W        W39761  36.046   4.819  11.057
78099W        W39762  17.258   7.359   1.270
78100W        W39763  33.440  38.054  10.133
78101W        W39764  36.407   8.350   3.865
78102W        W39765  41.797  22.535  14.796
78103W        W39766  12.249  22.250   0.913
78104W        W39767  31.053   5.269   4.690
78105W        W39768   0.784  24.488  14.503
78106W        W39769  27.460   5.405  11.446
78107W        W39770  37.400  29.506   1.430
78108W        W39771  29.570  11.837  12.085
78109W        W39772  10.247  23.169   3.765
78110W        W39773  25.643  35.544  14.431
78111W        W39774  30.633  22.141   3.386
78112W        W39775  25.491  19.149  13.363
78113W        W39776  40.527  11.129   0.812
78114W        W39777   6.283  29.124   3.845
78115W        W39778  12.178  15.327   1.868
78116W        W39779  37.538  28.120  10.633
78117W        W39780  14.676   1.804  12.015
78118W        W39781  42.375   5.730   1.843
78119W        W39782  42.882  12.724  10.436
78120W        W39783  21.160  25.974   0.863
78121W        W39784  11.194  13.674  13.824
78122W        W39785   8.827  36.485  11.033
78123W        W39786  15.293  19.122  11.100
78124W        W39787  44.296  26.489   2.770
78125W        W39788  44.259  43.359  11.023
78126W        W39789  31.988  10.310   3.377
78127W        W39790   5.796  12.150  11.583
78128W        W39791  39.538  27.149  10.903
78129W        W39792  11.183   8.772  13.052
78130W        W39793   8.827  43.981  12.400
78131W        W39794   0.947  37.536   0.470
78132W        W39795  12.677  35.936  12.429
78133W        W39796  25.674  22.116  10.057
78134W        W39797  34.901  35.412   1.792
78135W        W39798   3.305   0.779   4.288
78136W        W39799   2.463   0.323  14.307
78137W        W39800  36.374  11.833  12.390
78138W        W39801  40.043   3.728  13.352
78139W        W39802  33.426  16.214  13.505
78140W        W39803  19.600  20.267  13.311
78141W        W39804  14.194   2.296   1.361
78142W        W39805  25.165  18.058  14.394
78143W        W39806  22.151  22.138   1.894
78144W        W39807  22.061   5.363   0.394
78145W        W39808  43.886  13.336  12.421
78146W        W39809  12.725   9.372   5.161
78147W        W39810  44.805   9.188   4.154
78148W        W39811  39.000  23.599   4.162
78149W        W39812  22.526  28.658  14.938
78150W        W39813  22.602  34.023  11.557
78151W        W39814  10.823  29.546  13.456
78152W        W39815   0.300  12.805   1.889
78153W        W39816  36.553   1.919  11.875
78154W        W39817  41.004   8.685   5.767
78155W        W39818   7.710  27.034   4.248
78156W        W39819   7.235   3.381   0.460
78157W        W39820  39.436   7.721  10.996
78158W        W39821  35.469   5.258  12.454
78159W        W39822  40.346  10.797  12.092
78160W        W39823  44.807  38.929   1.825
78161W        W39824   6.685  32.981   1.357
78162W        W39825  43.514  42.785   2.842
78163W        W39826   0.449   5.773   1.262
78164W        W39827  23.546   2.801   2.687
78165W        W39828  38.044  12.637   0.288
78166W        W39829  33.433  38.990  13.879
78167W        W39830  35.538   2.321   3.675
78168W        W39831   0.358  17.228  10.951
78169W        W39832  41.435  40.922   2.893
78170W        W39833  40.839   1.751  12.510
78171W        W39834  21.568  24.006  11.478
78172W        W39835  17.134  41.919  11.453
78173W        W39836  25.690  37.907   0.894
78174W        W39837  37.062  44.930  11.855
78175W        W39838  39.460  16.099   0.738
78176W        W39839  34.080  41.978  11.431
78177W        W39840  33.915  37.837   1.835
78178W        W39841   9.219  18.682  13.483
78179W        W39842  19.679   2.855  14.818
78180W        W39843  28.103   0.803   1.438
78181W        W39844  29.928  38.888   1.384
78182W        W39845   5.267  33.993   4.676
78183W        W39846  31.628  18.683  10.450
78184W        W39847  26.114  26.607  12.391
78185W        W39848  38.970   4.709  11.098
78186W        W39849   7.902  32.427  14.375
78187W        W39850  21.065  41.399  11.864
78188W        W39851  31.647  13.315   0.410
78189W        W39852  39.999   7.691   4.199
78190W        W39853  41.430   2.298   0.897
78191W        W39854  11.818  22.668  10.569
78192W        W39855  34.092  24.976   4.786
78193W        W39856   6.905  10.665  11.520
78194W        W39857  24.186  40.485   0.820
78195W        W39858  16.774  30.524  11.028
78196W        W39859  13.639   7.807   1.239
78197W        W39860   1.462  39.533  11.610
78198W        W39861  28.633  10.808   1.797
78199W        W39862  36.974  31.138   2.863
78200W        W39863  17.623   1.419   1.740
78201W        W39864  27.148  24.214  14.978
78202W        W39865  34.512  40.446  12.904
78203W        W39866  17.143  24.681   4.820
78204W        W39867  23.113  18.694  14.837
78205W        W39868  36.014  33.028   2.294
78206W        W39869  20.634   5.327   4.697
78207W        W39870  34.897  42.315   4.620
78208W        W39871  26.118  13.271   2.824
78209W        W39872  16.805  28.115  12.893
78210W        W39873  34.903  17.618  14.765
78211W        W39874   3.356  18.147   9.952
78212W        W39875  24.192  16.635   4.265
78213W        W39876  42.443  15.291   5.265
78214W        W39877   0.458  39.532   0.396
78215W        W39878  31.955  14.209   4.799
78216W        W39879  36.418  35.435   0.316
78217W        W39880  44.922  36.582   0.442
78218W        W39881  17.559  16.087   0.732
78219W        W39882  30.646   4.912   4.707
78220W        W39883  33.964  12.816  12.482
78221W        W39884  39.860  32.935  10.953
78222W        W39885  41.493  11.699   1.753
78223W        W39886  10.160  33.506  14.407
78224W        W39887  21.244  31.568  14.491
78225W        W39888   7.307  17.742   4.202
78226W        W39889  36.359  15.243   1.365
78227W        W39890  20.225  33.516  13.327
78228W        W39891   0.272  15.241   5.178
78229W        W39892  43.339   7.731   2.391
78230W        W39893   7.199  24.037   4.260
78231W        W39894  19.704  33.952  13.955
78232W        W39895  28.665  44.492   1.840
78233W        W39896  12.274  39.840   0.405
78234W        W39897   1.337   1.358  13.009
78235W        W39898  27.052   0.959  13.064
78236W        W39899  36.568  11.218  11.558
78237W        W39900  37.368  38.830   3.235
78238W        W39901  15.595  11.726  14.818
78239W        W39902  15.170  14.823   3.631
78240W        W39903  34.893  18.595   2.253
78241W        W39904  36.469  25.091   9.992
78242W        W39905  19.624   6.392   0.927
78243W        W39906  13.652  29.500  10.628
78244W        W39907  17.791  25.981   4.669
78245W        W39908  29.957   6.363   0.330
78246W        W39909  12.720  11.370  12.964
78247W        W39910  36.093  14.279   1.923
78248W        W39911  31.504   8.760  13.321
78249W        W39912  22.630  38.349   2.289
78250W        W39913  17.302  35.017  13.799
78251W        W39914   4.443  13.172   2.414
78252W        W39915   3.733  43.387   1.717
78253W        W39916  30.120  37.053  10.976
78254W        W39917   1.822  40.886  10.992
78255W        W39918  43.449  19.256   4.731
78256W        W39919   9.866  24.491   0.318
78257W        W39920  12.359  43.282  14.429
78258W        W39921  31.542  33.388  14.300
78259W        W39922  20.695  24.005  14.305
78260W        W39923  41.494  24.548  12.826
78261W        W39924  26.602   4.880  10.420
78262W        W39925  40.849  22.710  12.495
78263W        W39926   9.675  39.950  11.050
78264W        W39927   7.217  17.065  11.524
78265W        W39928  19.653  17.742  14.790
78266W        W39929  15.195  10.287   3.862
78267W        W39930  29.536   4.376  12.348
78268W        W39931  23.627   2.288   0.456
78269W        W39932   3.429  18.698  13.342
78270W        W39933  31.957   8.343  11.510
78271W        W39934  11.667  12.837   4.326
78272W        W39935  42.811  18.714  13.969
78273W        W39936  29.079  17.119   3.824
78274W        W39937  24.021  39.469  13.840
78275W        W39938  44.966  40.007  11.969
78276W        W39939  32.888  14.266  10.628
78277W        W39940   6.301  41.973   1.792
78278W        W39941  23.555  10.349   2.357
78279W        W39942  37.847  44.474  11.062
78280W        W39943  31.470  25.082  14.299
78281W        W39944  17.654  32.535  12.367
78282W        W39945  16.799   4.709   4.257
78283W        W39946  42.384  24.679  12.469
78284W        W39947  40.447  44.367  14.381
78285W        W39948   3.709  15.659  11.102
78286W        W39949  17.105  31.637   4.271
78287W        W39950  11.730  11.837   5.288
78288W        W39951  43.813  16.075  13.383
78289W        W39952  41.402  16.293   1.928
78290W        W39953  33.983  44.976  14.922
78291W        W39954  42.331   1.388   3.172
78292W        W39955   8.381  41.475  11.591
78293W        W39956  18.289  33.548   2.263
78294W        W39957  13.246  40.355   0.354
78295W        W39958  20.529   7.765  12.566
78296W        W39959  43.807  36.846  10.630
78297W        W39960  38.991  31.046  12.833
78298W        W39961  35.996  38.383  14.506
78299W        W39962  25.516   6.734   2.861
78300W        W39963  22.155   0.866  12.942
78301W        W39964  30.506  22.557   4.611
78302W        W39965  18.754  24.989  10.928
78303W        W39966   1.412  30.016   2.350
78304W        W39967  18.054  35.010   1.376
78305W        W39968  29.667  16.086   0.784
78306W        W39969  29.589   4.835  12.463
78307W        W39970  30.541  43.939  14.767
78308W        W39971  25.018  22.610   1.861
78309W        W39972  40.933   5.214   3.707
78310W        W39973  12.259  36.516  13.829
78311W        W39974   0.871  21.029  14.859
78312W        W39975  33.961  13.605  10.510
78313W        W39976  29.032   2.271  11.517
78314W        W39977  11.161  14.641   3.642
78315W        W39978   7.738   9.683  12.988
78316W        W39979  36.003  19.180   2.740
78317W        W39980  31.950  11.837  11.401
78318W        W39981  20.748  26.613   1.846
78319W        W39982   3.952  21.199   4.261
78320W        W39983  19.280  42.405   4.304
78321W        W39984  29.618  15.112  13.940
78322W        W39985  40.909  26.514  14.018
78323W        W39986  21.683  23.002  14.875
78324W        W39987   5.221   5.248   4.797
78325W        W39988  43.958   4.746  14.420
78326W        W39989  33.907   2.365   2.392
78327W        W39990  19.141  38.043  13.882
78328W        W39991   6.735  27.503  14.817
78329W        W39992  12.826  36.990  11.863
78330W        W39993  22.743   3.353   2.781
78331W        W39994  21.651  29.482  11.064
78332W        W39995  21.542  24.045   2.200
78333W        W39996  14.195  43.874   1.389
78334W        W39997  24.693   8.895   2.857
78335W        W39998  37.088  43.354  11.036
78336W        W39999  33.024  34.492   4.166
78337W        W40000  28.536  18.182   4.729
78338W        W40001   2.823  26.998  11.926
78339W        W40002  44.946  44.363   1.330
78340W        W40003  17.073  41.360  11.985
78341W        W40004  40.330   7.319  11.935
78342W        W40005  34.071  16.212   0.899
78343W        W40006  16.282   8.798   3.815
78344W        W40007  31.953  42.395   4.745
78345W        W40008  22.688  14.211  12.842
78346W        W40009  27.629  28.133  11.911
78347W        W40010  32.632  27.658  14.868
78348W        W40011  14.103  40.544   4.317
78349W        W40012  33.111   1.316  14.483
78350W        W40013  43.793  13.201  11.592
78351W        W40014  29.467  10.340  10.437
78352W        W40015  25.605  20.692   0.244
78353W        W40016   5.234   6.776   4.705
78354W        W40017  18.099  32.603  11.408
78355W        W40018   8.882   6.807  14.827
78356W        W40019  41.385  37.405   4.270
78357W        W40020  42.412  31.483   2.857
78358W        W40021  19.090   2.965   4.332
78359W        W40022  30.531  34.526  11.997
78360W        W40023   1.317  19.047  14.918
78361W        W40024   1.452  21.524   3.824
78362W        W40025   3.374  12.616  11.583
78363W        W40026  26.068  36.406   1.887
78364W        W40027   2.467  12.721   1.885
78365W        W40028   2.249  29.599   5.149
78366W        W40029   3.833  31.102   1.744
78367W        W40030  17.693  27.498  12.986
78368W        W40031  23.596  16.216   2.353
78369W        W40032  28.585  21.024  12.011
78370W        W40033  35.956  38.403   1.922
78371W        W40034   1.417  36.480   0.881
78372W        W40035  18.643  38.935   3.340
78373W        W40036  33.100   3.386  13.461
78374W        W40037  44.320   7.391   1.337
78375W        W40038  43.777  37.471  10.996
78376W        W40039  30.425  34.419   1.364
78377W        W40040  28.967  44.899   0.429
78378W        W40041  31.529  19.583   1.344
78379W        W40042  39.380  44.937  10.975
78380W        W40043  28.623  23.644  10.893
78381W        W40044  41.439   5.918  13.942
78382W        W40045  16.169  15.109   1.827
78383W        W40046  40.968  15.701   1.256
78384W        W40047  38.003   6.315   2.700
78385W        W40048   6.250  17.300  12.541
78386W        W40049  28.459  14.287   1.230
78387W        W40050  17.637  39.052   4.211
78388W        W40051  12.282   7.880  12.838
78389W        W40052  17.209  10.181  12.408
78390W        W40053  14.311  32.425   4.764
78391W        W40054  41.895  39.345   2.733
78392W        W40055  39.524  44.455  11.875
78393W        W40056  34.474  18.621  14.014
78394W        W40057   6.361  10.735   2.336
78395W        W40058  44.259  13.115   0.377
78396W        W40059   1.335  11.177  12.850
78397W        W40060  19.215  29.157  13.932
78398W        W40061  18.707   8.390  12.083
78399W        W40062  22.520   2.342   3.799
78400W        W40063  26.003  23.569  12.506
78401W        W40064   1.752   0.871  10.892
78402W        W40065  43.771  26.476   3.643
78403W        W40066  18.690   7.884  11.036
78404W        W40067  44.494  38.494   1.259
78405W        W40068   9.338   2.762   0.465
78406W        W40069  41.950  29.025   4.805
78407W        W40070  37.855  14.338   3.738
78408W        W40071  21.597  35.865   5.259
78409W        W40072  21.534  32.031   2.885
78410W        W40073   8.240  34.908   1.887
78411W        W40074  33.546  24.009   2.826
78412W        W40075  20.121  13.219   3.361
78413W        W40076   1.444  44.270  13.998
78414W        W40077  26.610   3.313  14.004
78415W        W40078  23.701  24.601   1.873
78416W        W40079  39.337   0.842  14.334
78417W        W40080   8.215  44.004   1.400
78418W        W40081  22.075  30.129   1.324
78419W        W40082   5.701  42.449   2.897
78420W        W40083   9.194  27.590   1.329
78421W        W40084  13.246  11.739   0.283
78422W        W40085  44.505  12.299  11.427
78423W        W40086  15.785  20.575  13.000
78424W        W40087  31.476  21.239   3.670
78425W        W40088  40.958  10.255  11.571
78426W        W40089  16.296   2.323  12.403
78427W        W40090  36.017  41.974   1.358
78428W        W40091  39.503  10.693   2.737
78429W        W40092  37.565  29.534  12.491
78430W        W40093  18.609  18.589  12.567
78431W        W40094  38.989  16.266   1.405
78432W        W40095   5.195  17.189  11.071
78433W        W40096  11.812  22.044  14.420
78434W        W40097  28.944  14.799  12.022
78435W        W40098  44.761  26.522  13.329
78436W        W40099   4.287   5.209  10.556
78437W        W40100  24.687  27.970  11.126
78438W        W40101  29.018  17.614  12.508
78439W        W40102  19.076  33.950  14.852
78440W        W40103  26.068  37.947  13.845
78441W        W40104   1.369   9.369  14.384
78442W        W40105  32.589  19.112   5.701
78443W        W40106  25.148  29.035  11.107
78444W        W40107  35.395   7.875  12.915
78445W        W40108  11.673  40.821  11.977
78446W        W40109   1.805  44.824   2.826
78447W        W40110  40.884   8.358  11.063
78448W        W40111  38.951  20.216   1.447
78449W        W40112  41.991  28.993  14.340
78450W        W40113  21.230  43.283   4.220
78451W        W40114   9.887   6.698  11.117
78452W        W40115  40.444   5.241   3.671
78453W        W40116  27.943  12.668  13.389
78454W        W40117  15.769  25.482   4.244
78455W        W40118  27.511  40.964   0.248
78456W        W40119   0.802  19.156  10.942
78457W        W40120   0.425  10.705  14.332
78458W        W40121  21.666  40.455   3.302
78459W        W40122  22.569   9.709   4.819
78460W        W40123  37.022  26.990   2.716
78461W        W40124  22.746   6.685   4.671
78462W        W40125  12.747  21.521  11.373
78463W        W40126  12.172  20.081   3.156
78464W        W40127  26.531   5.394   2.831
78465W        W40128   4.843  24.711  13.373
78466W        W40129  15.776  10.705   4.256
78467W        W40130  11.225  10.171  11.598
78468W        W40131  36.966  14.191  12.468
78469W        W40132   9.152   7.375   1.793
78470W        W40133  12.673   1.412  10.643
78471W        W40134  36.949   5.360   1.433
78472W        W40135  16.628  44.967   4.127
78473W        W40136   0.365  41.447  11.526
78474W        W40137  18.788   7.851  10.583
78475W        W40138  40.545   9.367   3.172
78476W        W40139  20.256  40.004  10.541
78477W        W40140  24.992  17.706   2.227
78478W        W40141  39.970  10.688  11.074
78479W        W40142  38.962  41.923  12.368
78480W        W40143  37.412  22.170  11.596
78481W        W40144  29.137  31.445  13.502
78482W        W40145  14.712   0.921  14.789
78483W        W40146   3.441   1.458  12.857
78484W        W40147  21.080   4.790  11.386
78485W        W40148  33.952  39.959   3.197
78486W        W40149  27.460   1.792   0.828
78487W        W40150  15.673  26.207   0.283
78488W        W40151  41.498  16.577   2.800
78489W        W40152  34.418  42.454  12.958
78490W        W40153  43.296   9.738   5.230
78491W        W40154  30.134   0.763   0.459
78492W        W40155  11.671  19.144  13.346
78493W        W40156  34.945   3.342   5.090
78494W        W40157  11.771   3.943   1.290
78495W        W40158  15.252  39.346  13.490
78496W        W40159  44.767  41.403   1.435
78497W        W40160  43.392  29.525  12.547
78498W        W40161  21.162  27.512  11.970
78499W        W40162  23.188  39.366   0.831
78500W        W40163  26.972  39.431   2.197
78501W        W40164  36.522  20.690  12.366
78502W        W40165  29.428  14.262  14.844
78503W        W40166  15.157   0.988   2.324
78504W        W40167  36.388  36.042  14.908
78505W        W40168   1.908  21.568   1.220
78506W        W40169  16.691  32.512   0.758
78507W        W40170  38.518  28.638   3.739
78508W        W40171   7.671  21.034   0.301
78509W        W40172  28.187   1.946   9.963
78510W        W40173   2.296  16.634  10.925
78511W        W40174  39.036  24.200   3.279
78512W        W40175  32.922   9.192   2.405
78513W        W40176  34.042  14.642  10.951
78514W        W40177   2.280   1.376   2.202
78515W        W40178  31.937  32.890  14.854
78516W        W40179  23.080  22.039   3.202
78517W        W40180  42.342  29.001   2.220
78518W        W40181  33.095  29.603   1.270
78519W        W40182  25.087  43.332  11.035
78520W        W40183   5.432  34.394  12.449
78521W        W40184   2.264  34.032  11.493
78522W        W40185  33.586  28.488  11.531
78523W        W40186  22.598  41.981  10.587
78524W        W40187  23.648  23.506  12.060
78525W        W40188  42.374  41.042  13.936
78526W        W40189  13.607  34.107  14.376
78527W        W40190  37.850  15.595  11.076
78528W        W40191  15.325  28.005  14.453
78529W        W40192  25.028  33.986   3.324
78530W        W40193   2.372  13.173  14.922
78531W        W40194  41.372  15.289  11.502
78532W        W40195  41.836  26.961  12.066
78533W        W40196  25.026  11.791   0.894
78534W        W40197   3.415  16.215  14.770
78535W        W40198  19.248  35.967   0.793
78536W        W40199  30.418   5.324  13.009
78537W        W40200  23.224   8.195   4.685
78538W        W40201   2.276  44.310  10.974
78539W        W40202  44.465  30.475  13.960
78540W        W40203  18.083  14.166  12.056
78541W        W40204  26.634  42.814   2.763
78542W        W40205  23.097  24.172  13.009
78543W        W40206  23.713  40.044   4.838
78544W        W40207  24.158  36.061   5.235
78545W        W40208  26.575  25.161   3.703
78546W        W40209   3.766  29.064   1.797
78547W        W40210  30.024  42.846   0.342
78548W        W40211  12.651  14.321   1.925
78549W        W40212  44.801  37.500   2.264
78550W        W40213   8.733  36.850   2.276
78551W        W40214  17.594  26.687   4.651
78552W        W40215  37.545   8.750   1.895
78553W        W40216  40.471  44.459   1.709
78554W        W40217  13.716  29.486   3.376
78555W        W40218  14.817  25.562  14.337
78556W        W40219  14.279  20.604   4.335
78557W        W40220   9.750  14.105   4.613
78558W        W40221  28.037   7.788   4.717
78559W        W40222   9.735  12.659   0.409
78560W        W40223   6.756  29.965  14.867
78561W        W40224  26.540  33.481  10.611
78562W        W40225  27.616   3.225  10.994
78563W        W40226  30.114  34.025   4.774
78564W        W40227  29.637  40.930   2.894
78565W        W40228  17.586   6.285  11.101
78566W        W40229  21.723   5.709   4.645
78567W        W40230  42.010  13.651  10.418
78568W        W40231  39.977  26.067   2.204
78569W        W40232  44.925  38.857   4.347
78570W        W40233  37.013   1.298  14.396
78571W        W40234  12.776  31.042   4.821
78572W        W40235  13.342  27.582  10.512
78573W        W40236  21.738  44.772   2.793
78574W        W40237  21.126   2.754  12.900
78575W        W40238   8.294  19.719  11.563
78576W        W40239  43.437  21.517   0.242
78577W        W40240  37.476  25.018   3.643
78578W        W40241  10.366  27.146   2.333
78579W        W40242  31.465  26.495  12.378
78580W        W40243  18.615  38.922   4.672
78581W        W40244  42.857  37.069  10.529
78582W        W40245  38.491  18.623  14.857
78583W        W40246  12.212   7.172  14.324
78584W        W40247   8.886  23.547   2.684
78585W        W40248   8.802  33.934  12.085
78586W        W40249  32.954   1.278   2.683
78587W        W40250  24.037  31.481  13.457
78588W        W40251  24.027  36.356  14.922
78589W        W40252  22.042  10.815   1.221
78590W        W40253  24.069  26.555  11.431
78591W        W40254  38.564  18.219   4.677
78592W        W40255   3.231  13.724   4.724
78593W        W40256  25.003  27.111  11.924
78594W        W40257  13.703   8.733  11.005
78595W        W40258  25.130   6.370   3.168
78596W        W40259  27.460   2.251   2.846
78597W        W40260  42.481  26.105   2.696
78598W        W40261  30.041  10.324  12.955
78599W        W40262  18.195   8.798   2.291
78600W        W40263  38.043   8.744   1.779
78601W        W40264  23.566  27.984   1.432
78602W        W40265  43.797  22.598  12.042
78603W        W40266  21.601  23.174   2.755
78604W        W40267  35.573   8.660  14.979
78605W        W40268  40.890  37.939   2.675
78606W        W40269  13.132  13.721  14.777
78607W        W40270  28.495  13.306   1.402
78608W        W40271  24.644  33.621  14.009
78609W        W40272  30.587  12.720   3.371
78610W        W40273  24.549  25.039  14.916
78611W        W40274  37.440   3.944  14.837
78612W        W40275   4.722   8.263   0.767
78613W        W40276  33.074   2.249   3.346
78614W        W40277  30.108  20.030   2.759
78615W        W40278  36.995  37.983   4.781
78616W        W40279  43.767  16.800  13.431
78617W        W40280   8.168  31.604  14.921
78618W        W40281  12.645  16.761   1.309
78619W        W40282   7.862  43.455  13.409
78620W        W40283   2.290  41.844  12.404
78621W        W40284  35.554  23.188  12.481
78622W        W40285  39.428  32.978  11.034
78623W        W40286  41.362  38.569  10.622
78624W        W40287  22.126  16.279  14.298
78625W        W40288  14.110  37.860  10.012
78626W        W40289   0.867  41.846   4.189
78627W        W40290  18.080   8.689  10.474
78628W        W40291  39.540  35.865  14.774
78629W        W40292  16.725  26.064   4.270
78630W        W40293   7.759  24.062  14.397
78631W        W40294   4.886   3.942   4.715
78632W        W40295  27.196  37.532   1.306
78633W        W40296  18.072   7.392  11.442
78634W        W40297  12.687  10.878  13.909
78635W        W40298  10.773  11.178   3.840
78636W        W40299   5.228  11.794   0.787
78637W        W40300  29.143  10.150   3.785
78638W        W40301  18.614  21.549  11.096
78639W        W40302  40.886   0.768  11.407
78640W        W40303  36.991  29.533   0.815
78641W        W40304  12.727   8.797  14.289
78642W        W40305  18.139  28.158   4.666
78643W        W40306   0.867   5.828   3.751
78644W        W40307  23.572  25.697   3.353
78645W        W40308   5.703  36.852   0.364
78646W        W40309  23.222  41.790   0.781
78647W        W40310  16.230  28.673   1.306
78648W        W40311  26.592  28.072   0.848
78649W        W40312  29.047  25.003   4.234
78650W        W40313  38.471   5.348   2.303
78651W        W40314   2.305  39.497   4.768
78652W        W40315  21.517  14.717   3.732
78653W        W40316  26.013   9.314   2.682
78654W        W40317  24.715  12.255  13.888
78655W        W40318  30.541  37.421   3.811
78656W        W40319  32.509   7.211   2.739
78657W        W40320  14.823  20.645  10.598
78658W        W40321  24.231   7.856   3.651
78659W        W40322  12.735  36.562  14.846
78660W        W40323   2.281  35.103  12.061
78661W        W40324  17.250  27.497   2.899
78662W        W40325  27.490  30.150  11.541
78663W        W40326  38.513  29.951   4.793
78664W        W40327  41.829  30.466   2.839
78665W        W40328   7.298  19.194   0.740
78666W        W40329  30.079   5.895  13.510
78667W        W40330  15.622  16.768   3.685
78668W        W40331   7.280  40.303   3.652
78669W        W40332   5.815  20.528  13.813
78670W        W40333  33.512  38.558   1.441
78671W        W40334  42.359  24.065   1.330
78672W        W40335  11.139  28.446   3.867
78673W        W40336  29.451  30.505   4.172
78674W        W40337  32.042  44.852  11.458
78675W        W40338  29.471  37.031  11.046
78676W        W40339  38.439  22.229   3.186
78677W        W40340  37.892  34.061  14.479
78678W        W40341  18.161  13.657  11.064
78679W        W40342  17.100  20.028   3.376
78680W        W40343  16.241  32.508   4.790
78681W        W40344   6.847  10.199  13.854
78682W        W40345  19.100   9.304   0.814
78683W        W40346  13.245   7.226   0.819
78684W        W40347   3.769  23.104  12.391
78685W        W40348  43.392  17.096  12.871
78686W        W40349  20.187  11.358   0.243
78687W        W40350   7.768  27.554  13.825
78688W        W40351   4.434   5.829  13.364
78689W        W40352  33.912  34.450  14.012
78690W        W40353  43.947  44.988  12.430
78691W        W40354  30.102  19.171  12.881
78692W        W40355  12.767  25.558   0.258
78693W        W40356  29.927  40.925  11.551
78694W        W40357  32.564  44.817  13.382
78695W        W40358  34.084   5.763  13.404
78696W        W40359  35.096  26.956   2.740
78697W        W40360   2.735  32.128   4.120
78698W        W40361  20.555  33.988   2.688
78699W        W40362  28.065  11.175   1.729
78700W        W40363  22.232  29.174   4.239
78701W        W40364  32.959  12.357  12.551
78702W        W40365  21.260   1.862   4.802
78703W        W40366  41.382   4.730  10.437
78704W        W40367  28.573   6.337  13.545
78705W        W40368   6.355  27.477  12.555
78706W        W40369  10.306  29.148   4.201
78707W        W40370  18.098   7.175  13.509
78708W        W40371  10.670  36.013  11.958
78709W        W40372  37.081  13.762  14.846
78710W        W40373  16.262  17.291   0.483
78711W        W40374  23.233  21.054  12.061
78712W        W40375  22.169  26.147  13.887
78713W        W40376  32.111  24.661  10.549
78714W        W40377  38.387   4.758   2.753
78715W        W40378   1.351  30.581   2.696
78716W        W40379  35.091  23.076   1.428
78717W        W40380  37.019  27.685  13.428
78718W        W40381  40.901  42.403   0.245
78719W        W40382   4.861  34.887  14.949
78720W        W40383   1.317  38.032   3.786
78721W        W40384  26.562  32.568  10.478
78722W        W40385  25.588  11.218  14.017
78723W        W40386   6.233  26.688  10.015
78724W        W40387  42.943  29.519   4.183
78725W        W40388  14.189  25.671   3.634
78726W        W40389   5.747  23.605   0.871
78727W        W40390  38.360  24.713  11.504
78728W        W40391  21.023  41.008  11.967
78729W        W40392  17.800   9.370   4.236
78730W        W40393  12.850  36.960   1.694
78731W        W40394   5.343   1.809  11.423
78732W        W40395  43.930   5.353  12.436
78733W        W40396  41.936  39.359  11.127
78734W        W40397   8.791   6.189  10.919
78735W        W40398   4.324  35.388  14.411
78736W        W40399  38.974  11.811  10.947
78737W        W40400  41.949  33.035   3.363
78738W        W40401  12.719   5.438   0.965
78739W        W40402  25.045  35.518  13.878
78740W        W40403   0.860  25.482   0.843
78741W        W40404  34.119  43.403   4.632
78742W        W40405   9.885  31.107  11.999
78743W        W40406  10.166  17.762   1.254
78744W        W40407  43.888  42.511  14.758
78745W        W40408  10.341  30.024  11.569
78746W        W40409  40.305  21.709   1.809
78747W        W40410  31.996   4.373  14.416
78748W        W40411  35.096  24.515   3.717
78749W        W40412  29.628  37.408   1.236
78750W        W40413  12.244  31.587   1.425
78751W        W40414   2.266  38.021   2.841
78752W        W40415  28.957  42.514  13.999
78753W        W40416  39.883   9.857   5.168
78754W        W40417  26.545  15.086   3.794
78755W        W40418  37.084  26.614  12.478
78756W        W40419   6.813  39.932  10.958
78757W        W40420   7.328  19.062  14.991
78758W        W40421  26.480   5.738   9.922
78759W        W40422   9.265  35.965  12.356
78760W        W40423  13.349  23.611  10.543
78761W        W40424  14.710  42.785   9.948
78762W        W40425  31.032  32.948  13.482
78763W        W40426   9.259  21.626   1.294
78764W        W40427  35.033  30.476  14.001
78765W        W40428  19.193  21.697  12.342
78766W        W40429  16.207  17.189   1.291
78767W        W40430  21.522  22.742  14.281
78768W        W40431  36.856  20.568   3.190
78769W        W40432  18.672  27.636   4.167
78770W        W40433  44.409  43.935  12.901
78771W        W40434  13.683   5.736  12.518
78772W        W40435   5.813  34.508   3.691
78773W        W40436  24.542  30.019   2.388
78774W        W40437  27.128  42.873   9.503
78775W        W40438   3.253  14.226   5.231
78776W        W40439  17.173  38.876   0.429
78777W        W40440  39.952  38.356  13.475
78778W        W40441  35.483  40.980   4.284
78779W        W40442  28.599  10.380   3.218
78780W        W40443  41.393  18.109   1.268
78781W        W40444   0.451  26.058   1.237
78782W        W40445   9.264   0.465   1.355
78783W        W40446  16.727   1.308   4.715
78784W        W40447  14.123  28.021   0.267
78785W        W40448   4.353  38.898   0.727
78786W        W40449  11.300   4.444  14.493
78787W        W40450  37.449  37.037  11.855
78788W        W40451  11.128  23.009   0.324
78789W        W40452   4.702  41.411  14.901
78790W        W40453  17.748   4.369   1.757
78791W        W40454  34.411   5.907  11.992
78792W        W40455  40.462  28.143   3.182
78793W        W40456   2.966  11.683   1.356
78794W        W40457  24.164  44.501   4.181
78795W        W40458  42.324  40.302  13.050
78796W        W40459  34.589  13.218  12.546
78797W        W40460   3.718  32.046  12.353
78798W        W40461  24.006  40.007  14.455
78799W        W40462  41.497   9.195   1.731
78800W        W40463  39.560   1.459   1.826
78801W        W40464   5.784  34.415  12.066
78802W        W40465  32.465  28.037  14.489
78803W        W40466   8.317   3.240   1.372
78804W        W40467  17.300  22.230  12.508
78805W        W40468  38.373  36.849  13.887
78806W        W40469   7.678   4.238  11.126
78807W        W40470  27.580   8.334  13.457
78808W        W40471  21.741  16.084  14.360
78809W        W40472  13.266  21.075  11.497
78810W        W40473   9.720   2.908  10.924
78811W        W40474  33.502  38.414  10.105
78812W        W40475  15.162   8.832   1.277
78813W        W40476  32.092  19.203  12.864
78814W        W40477  33.122  18.109  12.952
78815W        W40478  31.498   5.420   1.226
78816W        W40479  43.954  20.105   1.261
78817W        W40480  29.100  31.526   0.846
78818W        W40481  28.979  23.657  11.104
78819W        W40482  15.269  27.474   3.179
78820W        W40483   3.785  35.910  12.363
78821W        W40484   0.457  32.459   0.362
78822W        W40485   1.421  29.022   4.327
78823W        W40486   2.313  23.562  12.439
78824W        W40487   1.978  29.607  14.419
78825W        W40488  34.545  18.220  13.432
78826W        W40489  29.018  26.551   0.385
78827W        W40490  25.102  31.576  11.919
78828W        W40491   0.272  16.702   0.885
78829W        W40492   2.966  21.125  13.315
78830W        W40493  17.762  18.584   0.954
78831W        W40494   9.719   3.332  11.397
78832W        W40495  32.951   3.863   4.751
78833W        W40496  36.552  23.190   4.798
78834W        W40497  35.418  24.697  13.509
78835W        W40498  24.538   7.797   3.170
78836W        W40499  25.571   9.803   0.365
78837W        W40500  40.807  15.775   4.291
78838W        W40501   9.876  25.077  10.907
78839W        W40502  43.777  31.573   1.917
78840W        W40503  29.114  29.007  11.953
78841W        W40504  24.595  19.077   0.886
78842W        W40505  13.610   8.236  10.056
78843W        W40506  40.936   2.442  10.463
78844W        W40507   2.777   3.424  13.051
78845W        W40508  18.075  37.918  13.314
78846W        W40509  41.357  29.476  13.888
78847W        W40510  36.919  21.694  13.813
78848W        W40511   5.735  10.339   1.370
78849W        W40512  41.998  26.565  12.840
78850W        W40513   2.418  26.672   3.335
78851W        W40514   6.316  42.869   0.470
78852W        W40515  25.074  31.597   2.888
78853W        W40516  40.895  16.282   0.925
78854W        W40517  27.448   4.944  11.935
78855W        W40518  37.079  29.428  14.464
78856W        W40519   4.380  16.264   4.272
78857W        W40520  37.457  32.590   1.866
78858W        W40521  36.526  44.340   4.285
78859W        W40522   9.380   4.350   3.649
78860W        W40523  43.477  27.987  14.807
78861W        W40524  15.194  20.537  14.975
78862W        W40525   4.747  40.376  10.433
78863W        W40526  17.613  42.941  12.938
78864W        W40527   9.275  33.085   0.954
78865W        W40528   8.213   7.761   3.734
78866W        W40529  16.627  28.126  14.407
78867W        W40530   4.708  11.338   2.283
78868W        W40531  10.637  20.724   4.772
78869W        W40532  38.992  33.927  14.938
78870W        W40533  39.912  16.114   1.219
78871W        W40534  36.456   9.307   3.167
78872W        W40535   4.755  32.946   0.918
78873W        W40536  19.769  29.062   2.306
78874W        W40537  23.505   3.323   2.316
78875W        W40538  31.421  41.437  12.921
78876W        W40539  41.519  23.091  12.005
78877W        W40540   4.712  12.752   3.273
78878W        W40541  14.676   9.208   9.548
78879W        W40542  35.071   7.869   5.684
78880W        W40543   4.871  35.074   0.820
78881W        W40544  43.415  13.337  13.317
78882W        W40545  13.349  39.436   1.407
78883W        W40546   9.685  14.140  12.576
78884W        W40547   7.353  20.544   1.807
78885W        W40548  17.748   9.186  14.818
78886W        W40549  37.963  38.870  12.047
78887W        W40550  28.068   8.279  11.461
78888W        W40551  41.518  11.179   3.822
78889W        W40552  18.613  16.108   2.851
78890W        W40553  38.870  37.476  10.018
78891W        W40554  23.172  12.856   0.451
78892W        W40555  29.641  22.046   4.285
78893W        W40556  40.524  10.294  14.465
78894W        W40557  13.138  16.196   3.354
78895W        W40558  20.682   8.353  12.013
78896W        W40559  15.181  21.168   2.185
78897W        W40560  23.022  42.363  11.984
78898W        W40561  32.430  27.976  14.836
78899W        W40562  28.475  37.065  11.437
78900W        W40563   4.753  12.132   0.441
78901W        W40564  42.002   0.980   3.365
78902W        W40565   4.782   0.783  12.023
78903W        W40566   8.728  19.070   3.697
78904W        W40567  14.666  15.225  13.534
78905W        W40568  21.546  26.982   0.925
78906W        W40569  19.767   7.717  13.016
78907W        W40570  32.021  25.696   1.834
78908W        W40571  35.945   3.317   1.227
78909W        W40572   3.253  44.002   4.616
78910W        W40573  15.785  22.019   2.671
78911W        W40574  24.095   3.417   0.805
78912W        W40575  24.164  36.999  12.431
78913W        W40576  18.083  40.510  10.434
78914W        W40577  42.783  41.871  13.861
78915W        W40578  25.650  20.615  10.908
78916W        W40579  32.440  35.455   0.763
78917W        W40580  38.381  19.041  12.975
78918W        W40581  35.557  39.023  10.984
78919W        W40582  42.403   3.389   4.306
78920W        W40583  34.928  26.153  12.836
78921W        W40584  41.796  36.031  12.545
78922W        W40585   7.802  17.581   1.433
78923W        W40586  38.345  28.609  12.041
78924W        W40587   4.863  22.239  10.563
78925W        W40588  35.096  24.570   2.691
78926W        W40589  23.083  15.769   3.797
78927W        W40590  35.980  23.544   1.832
78928W        W40591   4.283  11.760   4.232
78929W        W40592  29.429  24.227  11.460
78930W        W40593  16.648  20.642  14.275
78931W        W40594  42.937  12.232   0.255
78932W        W40595  44.869  21.748   3.266
78933W        W40596  16.092  44.374  14.873
78934W        W40597  24.127  36.911   4.668
78935W        W40598  40.808  43.006  10.472
78936W        W40599   5.923   5.752   0.379
78937W        W40600  27.583   4.329   4.734
78938W        W40601  29.435  39.966   5.172
78939W        W40602  37.485  22.091   1.318
78940W        W40603   3.785  20.701  10.596
78941W        W40604  22.027  11.793   0.451
78942W        W40605  22.696  27.956  10.503
78943W        W40606  19.635  39.911   2.385
78944W        W40607  21.598   6.195   4.316
78945W        W40608  23.624  32.411  13.921
78946W        W40609  20.195  32.632  14.910
78947W        W40610  10.652  33.461  12.969
78948W        W40611  32.110   8.727  14.920
78949W        W40612  30.583  34.926  14.973
78950W        W40613   5.771  28.126   4.137
78951W        W40614  40.908  15.174  14.358
78952W        W40615  34.372  25.995   3.324
78953W        W40616  20.135   8.280  11.109
78954W        W40617  32.049  17.681   1.812
78955W        W40618  23.033  40.899   4.749
78956W        W40619  43.448  14.193  14.787
78957W        W40620  22.515  22.645   5.269
78958W        W40621  28.572  13.213  11.602
78959W        W40622  13.634   9.809  11.571
78960W        W40623  39.457  44.796  10.609
78961W        W40624  42.846  13.144   3.372
78962W        W40625  17.078  23.210   4.724
78963W        W40626  29.478  33.474  10.962
78964W        W40627   1.831  14.340  13.813
78965W        W40628  31.607  10.834  14.959
78966W        W40629   0.408   0.292   4.246
78967W        W40630  35.908  17.299  14.910
78968W        W40631  36.370  12.277  12.988
78969W        W40632  40.346  38.500  14.466
78970W        W40633  13.708  36.040   4.817
78971W        W40634  33.025   1.921  14.453
78972W        W40635  38.384  14.728  14.363
78973W        W40636  27.982  10.668  12.425
78974W        W40637  16.635   1.925  11.946
78975W        W40638   4.223  43.279   2.195
78976W        W40639  16.095  10.188  10.582
78977W        W40640  39.954   8.332  13.322
78978W        W40641   1.895  12.717   1.266
78979W        W40642  25.645   3.820  10.415
78980W        W40643   0.451  12.811   9.990
78981W        W40644   3.899  35.000  12.978
78982W        W40645  12.799   0.791  12.375
78983W        W40646  10.292  35.416  13.492
78984W        W40647   9.751  32.420   3.772
78985W        W40648   1.919  36.550   1.703
78986W        W40649  34.023  32.081   5.086
78987W        W40650  12.126   5.794  12.949
78988W        W40651  28.008  20.686  10.532
78989W        W40652  33.597  40.413   3.264
78990W        W40653  42.388  23.159  14.359
78991W        W40654  38.388  12.120   0.896
78992W        W40655  27.032  20.616  13.992
78993W        W40656  20.115  43.414   1.408
78994W        W40657  10.227  32.917   2.740
78995W        W40658  14.690  10.303  11.900
78996W        W40659   5.868   2.958  11.523
78997W        W40660  31.584  37.423   0.922
78998W        W40661  25.676  32.512   1.865
78999W        W40662  22.670   1.241   5.734
79000W        W40663  22.653  21.247  12.565
79001W        W40664   6.200  41.892   5.257
79002W        W40665  42.012  27.948   2.900
79003W        W40666  31.958  11.814  13.941
79004W        W40667  17.727  22.565  10.465
79005W        W40668  13.721  11.353   4.693
79006W        W40669  31.109  42.007  12.563
79007W        W40670  15.645  32.982  11.996
79008W        W40671  23.239  13.222   1.744
79009W        W40672  39.347  25.566   1.444
79010W        W40673  26.569  38.459   0.827
79011W        W40674  13.324  40.968   1.806
79012W        W40675  41.914  43.896  13.990
79013W        W40676  12.656   8.334   3.748
79014W        W40677  42.899  32.946   1.326
79015W        W40678  28.953  12.184  14.288
79016W        W40679  44.460  15.229   0.454
79017W        W40680   6.802  24.046  11.372
79018W        W40681  31.602  44.870  13.488
79019W        W40682  34.550  40.864   2.812
79020W        W40683  41.821  31.598   3.382
79021W        W40684  23.226  23.527   0.850
79022W        W40685  22.550  12.331   1.789
79023W        W40686  37.338  44.773  11.067
79024W        W40687  21.145  37.988   3.294
79025W        W40688  43.351  20.616   0.770
79026W        W40689   8.254  16.587   2.697
79027W        W40690  44.475  18.156  12.957
79028W        W40691  22.195  28.647   1.260
79029W        W40692  20.196  30.964  13.058
79030W        W40693  13.834  20.615   1.919
79031W        W40694  22.126  41.029   3.306
79032W        W40695  38.530  15.093  11.075
79033W        W40696  42.420  43.812  11.939
79034W        W40697   0.323  29.175   4.195
79035W        W40698  36.432  28.646  12.856
79036W        W40699  16.155  42.307  12.926
79037W        W40700  18.613  14.792   0.732
79038W        W40701   0.381   6.874  13.349
79039W        W40702  27.556   1.910  12.087
79040W        W40703  29.612  23.185  13.310
79041W        W40704  32.074  24.713   4.305
79042W        W40705   0.454  19.690   2.806
79043W        W40706  24.977  20.765  10.433
79044W        W40707  20.080  35.544   3.799
79045W        W40708  40.030   0.877  11.074
79046W        W40709   7.315  29.121  11.421
79047W        W40710  13.139  38.831  14.848
79048W        W40711  39.956  21.623   2.198
79049W        W40712  36.351  41.011  12.968
79050W        W40713   4.251  14.833   0.459
79051W        W40714  29.013  42.388  11.436
79052W        W40715  18.679  17.721   1.287
79053W        W40716   2.454  25.687  11.445
79054W        W40717  18.788   3.886   1.846
79055W        W40718   7.400  16.697   0.377
79056W        W40719  39.389  12.612  12.414
79057W        W40720  35.051  20.551  11.488
79058W        W40721  38.527  40.907   4.647
79059W        W40722  13.208  24.667   3.281
79060W        W40723  35.475  44.993  13.457
79061W        W40724  35.854  28.172   3.801
79062W        W40725   7.274  28.003   0.363
79063W        W40726  28.558  44.857  12.873
79064W        W40727  21.121   8.185  10.632
79065W        W40728  29.607   0.414  10.478
79066W        W40729  19.754   3.940  12.504
79067W        W40730   3.383   9.300   1.926
79068W        W40731  22.043  44.366   3.680
79069W        W40732  38.022   7.415   0.741
79070W        W40733   2.900  24.104  11.018
79071W        W40734   8.886  30.018   3.712
79072W        W40735   9.314   4.284  14.299
79073W        W40736  30.082  29.499   0.855
79074W        W40737  31.500  24.023   5.267
79075W        W40738  41.397  23.235   0.278
79076W        W40739  34.978  23.226  13.476
79077W        W40740  16.706  31.559   1.374
79078W        W40741  44.332  37.038  11.583
79079W        W40742  11.347   8.744   4.254
79080W        W40743  10.750  33.007   1.243
79081W        W40744  37.952   2.838   0.321
79082W        W40745  19.584   5.781   4.176
79083W        W40746  16.316  29.015   2.248
79084W        W40747   6.300  18.790   0.247
79085W        W40748  25.674  34.520  13.512
79086W        W40749  33.039  21.735   1.395
79087W        W40750  25.512  19.625   1.717
79088W        W40751  43.417  24.641   4.604
79089W        W40752   1.385  14.153  13.882
79090W        W40753  36.369  44.391   2.793
79091W        W40754  42.930   6.394   1.244
79092W        W40755  35.508  35.879  10.933
79093W        W40756  12.209   3.327   2.300
79094W        W40757  41.419   6.210   4.778
79095W        W40758   8.352  29.593  12.361
79096W        W40759  14.306  35.390  10.640
79097W        W40760  41.976  29.516  14.976
79098W        W40761  10.285  40.820   0.846
79099W        W40762  21.604  12.234   1.744
79100W        W40763  21.689   7.254   0.906
79101W        W40764  21.055  32.958  12.563
79102W        W40765  18.703  37.430   0.343
79103W        W40766  22.198  27.662  13.455
79104W        W40767   6.370  28.958   2.667
79105W        W40768  31.471  32.421   2.776
79106W        W40769  33.976   1.275   0.256
79107W        W40770  29.009  15.212   0.347
79108W        W40771  19.146  38.928   1.379
79109W        W40772  16.581  13.230   0.817
79110W        W40773  28.166   9.705   0.783
79111W        W40774   8.864  14.126  13.542
79112W        W40775  33.552  37.881   0.851
79113W        W40776  44.380  14.832   0.303
79114W        W40777  23.224  21.125   4.340
79115W        W40778   8.321  26.086   4.203
79116W        W40779  33.077  21.515  14.807
79117W        W40780  41.519  10.371  12.085
79118W        W40781  38.015   2.928  13.013
79119W        W40782  11.865   6.281  11.567
79120W        W40783   1.295  39.465   0.440
79121W        W40784  15.100   0.962  13.409
79122W        W40785  39.372  38.025   3.369
79123W        W40786  29.581   1.369  12.070
79124W        W40787  35.462  10.707  10.914
79125W        W40788  17.609  29.159   1.748
79126W        W40789  38.052   6.237   4.734
79127W        W40790  35.962  12.829   3.818
79128W        W40791  28.034  31.115  12.900
79129W        W40792  39.947  34.011  13.466
79130W        W40793  18.094   9.664  11.864
79131W        W40794   6.869  24.021  13.807
79132W        W40795  13.252  34.986  14.767
79133W        W40796  36.545  39.018   1.434
79134W        W40797   1.800  41.393   4.327
79135W        W40798   8.668  12.305  11.959
79136W        W40799  16.186  44.381   1.376
79137W        W40800  34.950  22.062   3.168
79138W        W40801  34.387  44.392   2.262
79139W        W40802  14.298  41.044   3.223
79140W        W40803  17.233  41.820   0.292
79141W        W40804  37.335  28.034   1.905
79142W        W40805  11.196  19.711   4.792
79143W        W40806  33.100  18.645  10.473
79144W        W40807  41.381  26.984   2.200
79145W        W40808  36.033  39.049   1.807
79146W        W40809  18.193  43.780  13.839
79147W        W40810   9.383  34.539  13.523
79148W        W40811  38.535  44.756   2.411
79149W        W40812   8.231  16.281  10.626
79150W        W40813  29.932  24.209  11.449
79151W        W40814  18.561  44.460   2.876
79152W        W40815  27.182  15.276  14.029
79153W        W40816  22.504  43.351   0.394
79154W        W40817   9.779  29.025   4.639
79155W        W40818  31.024  41.999  13.975
79156W        W40819  22.513   8.296   3.223
79157W        W40820  16.097  39.438  11.387
79158W        W40821  30.127  38.990  13.425
79159W        W40822  32.945  26.526   2.800
79160W        W40823  24.541  34.017  11.497
79161W        W40824  25.967   2.807   0.278
79162W        W40825  23.141  11.350  10.927
79163W        W40826   4.786  41.432   0.907
79164W        W40827  36.872  30.528  12.007
79165W        W40828  29.949   7.760   0.296
79166W        W40829   5.849  23.647  10.956
79167W        W40830  37.576  21.258   3.151
79168W        W40831  28.611  35.100  14.955
79169W        W40832   6.910   7.263  10.497
79170W        W40833  44.948  21.599   3.858
79171W        W40834  16.295  31.469   0.884
79172W        W40835  38.822  39.848  12.090
79173W        W40836  16.717  33.577  13.882
79174W        W40837   4.792  19.088  13.336
79175W        W40838  32.437  19.039  12.495
79176W        W40839   8.677  21.575  13.922
79177W        W40840   2.841  25.540   4.224
79178W        W40841  23.985   5.373  14.922
79179W        W40842  27.638  28.578  12.978
79180W        W40843  13.331  26.609   1.256
79181W        W40844   2.740  33.127   1.234
79182W        W40845  17.787  22.577   2.860
79183W        W40846  20.543   1.785  13.062
79184W        W40847  42.778  12.656   0.815
79185W        W40848  40.872  20.261  14.382
79186W        W40849  36.468  17.244   0.918
79187W        W40850  29.476  13.692  14.894
79188W        W40851  37.993  30.563  11.026
79189W        W40852   3.393  34.543  14.910
79190W        W40853   9.277  11.787   0.758
79191W        W40854  39.967  33.026   4.657
79192W        W40855  35.486  30.599  12.452
79193W        W40856  26.099  18.069  11.914
79194W        W40857   7.823   2.298  14.022
79195W        W40858  35.859  32.947  13.906
79196W        W40859  32.428  43.901  10.493
79197W        W40860   9.841   9.213   2.250
79198W        W40861  22.658   3.334   0.781
79199W        W40862   8.871  14.741  13.038
79200W        W40863  36.429  39.009  12.906
79201W        W40864  12.250  13.796   0.421
79202W        W40865  23.714   0.877   2.695
79203W        W40866   4.254   7.849  14.398
79204W        W40867   9.757  20.677   0.753
79205W        W40868  13.799  17.756   4.637
79206W        W40869  36.539   6.259  10.153
79207W        W40870  39.990  14.787  10.569
79208W        W40871   1.248  30.483  10.535
79209W        W40872  31.468  34.036   1.709
79210W        W40873  33.915  42.360  12.434
79211W        W40874  10.811   9.758   3.856
79212W        W40875   3.276  39.389   2.676
79213W        W40876  12.213  10.739  11.432
79214W        W40877  30.632   9.744  11.535
79215W        W40878  23.066   9.200  11.937
79216W        W40879  17.245  37.526   1.815
79217W        W40880  18.612  40.828  12.911
79218W        W40881  15.687  35.382  14.012
79219W        W40882  15.200  36.040  12.533
79220W        W40883   8.897  21.642   3.684
79221W        W40884  12.758  28.991   1.766
79222W        W40885  12.841  20.742   2.391
79223W        W40886  41.345  43.959   1.262
79224W        W40887  17.258  23.701   2.894
79225W        W40888  18.574  28.930  12.872
79226W        W40889  34.503  43.993   2.826
79227W        W40890  35.515  25.978   4.781
79228W        W40891  26.013  26.570   1.242
79229W        W40892  12.295  23.676   2.315
79230W        W40893  43.382  10.722  13.504
79231W        W40894  36.042   2.896  12.532
79232W        W40895  17.247   7.263   3.180
79233W        W40896  42.526  23.089   1.935
79234W        W40897  39.052   5.909  12.421
79235W        W40898   5.414  31.040   1.279
79236W        W40899  12.266   4.344   2.767
79237W        W40900   3.953  15.641   2.233
79238W        W40901  31.957  26.645   2.748
79239W        W40902  39.324   2.896  10.511
79240W        W40903   3.448  19.552   3.712
79241W        W40904  28.561  16.780   0.376
79242W        W40905  37.437  25.472  12.905
79243W        W40906  38.559  37.531  12.013
79244W        W40907   8.222   4.717   1.917
79245W        W40908  26.089  41.885   9.968
79246W        W40909  43.859   1.307   0.866
79247W        W40910   6.848  23.659  14.850
79248W        W40911   2.312  43.289  12.902
79249W        W40912  33.534  33.473  10.900
79250W        W40913  32.904   5.894   4.668
79251W        W40914  15.243   2.310   2.842
79252W        W40915  25.131   5.869  11.420
79253W        W40916   6.376  25.195  11.597
79254W        W40917  13.181  17.285   4.143
79255W        W40918   1.732   1.283  13.048
79256W        W40919  38.870  26.686   9.927
79257W        W40920  20.072  29.972   3.284
79258W        W40921  39.413  43.453   4.704
79259W        W40922  34.400  22.228   2.724
79260W        W40923  26.982   3.711   0.250
79261W        W40924  29.605  40.473   5.100
79262W        W40925  35.931  21.072  12.549
79263W        W40926  24.544   0.793   3.297
79264W        W40927   7.346  36.457   1.429
79265W        W40928  38.376  22.616  10.487
79266W        W40929  30.936  41.880   0.784
79267W        W40930  32.034  42.326  11.914
79268W        W40931  26.622  10.229   5.174
79269W        W40932  12.712  31.123   2.809
79270W        W40933  11.772  24.178  14.347
79271W        W40934  30.952  23.140   0.466
79272W        W40935  36.940  42.284  13.325
79273W        W40936  25.617  35.384  10.895
79274W        W40937  19.144  44.987   2.417
79275W        W40938  38.047  11.172  10.413
79276W        W40939  14.280  10.260  14.949
79277W        W40940   6.726  37.988  12.390
79278W        W40941   2.330   3.796  13.925
79279W        W40942  10.160  11.217  12.077
79280W        W40943  43.372  10.729  12.047
79281W        W40944   9.711  30.430   3.272
79282W        W40945  24.056  44.453   0.246
79283W        W40946  17.705  27.036  14.476
79284W        W40947   0.262  44.359   3.359
79285W        W40948  36.471  37.879   4.184
79286W        W40949  31.946  32.445   2.408
79287W        W40950   1.826  26.572   4.734
79288W        W40951   9.844  38.437  14.284
79289W        W40952  40.005  36.553   0.761
79290W        W40953  13.691  37.876  11.978
79291W        W40954  24.487   4.756   0.381
79292W        W40955  34.895  42.933   1.360
79293W        W40956  34.525  21.669   5.307
79294W        W40957  22.033   4.858  11.468
79295W        W40958  32.580   9.212   1.324
79296W        W40959   4.342  27.447   2.326
79297W        W40960  14.176   8.351  14.791
79298W        W40961  11.703  23.202  14.872
79299W        W40962  31.434  30.039  10.540
79300W        W40963  20.057  36.537   0.317
79301W        W40964   9.839  10.879  13.428
79302W        W40965  24.564  43.778   3.161
79303W        W40966  21.755  10.831  11.023
79304W        W40967   1.866  24.113   2.699
79305W        W40968  11.732  27.565  14.297
79306W        W40969   4.270   6.739   2.824
79307W        W40970  15.778  29.982  11.595
79308W        W40971   3.415  40.910  11.032
79309W        W40972  10.281  15.279   2.672
79310W        W40973  38.923  23.242  11.077
79311W        W40974  15.250   1.824   4.711
79312W        W40975   9.756   3.447  14.355
79313W        W40976   3.842  27.943  11.466
79314W        W40977  44.303  11.140   2.359
79315W        W40978   8.161   0.486   4.807
79316W        W40979  39.425   9.278  12.016
79317W        W40980  26.601  31.937   0.877
79318W        W40981  41.532  34.982  14.493
79319W        W40982  40.983  38.870  13.906
79320W        W40983  27.506  34.118   0.735
79321W        W40984  40.450  21.045   1.743
79322W        W40985  15.209  36.905  13.037
79323W        W40986  38.448   8.762  14.996
79324W        W40987  33.439   3.725   3.680
79325W        W40988  29.148   2.906   0.454
79326W        W40989   3.247  43.403   3.146
79327W        W40990  42.852   7.773  14.899
79328W        W40991  25.205  34.458  12.469
79329W        W40992  26.966  28.987  14.447
79330W        W40993  17.736  37.077  14.358
79331W        W40994   1.919  19.180   3.728
79332W        W40995  12.270  31.432   2.824
79333W        W40996   0.415   2.385  14.024
79334W        W40997  34.579  19.676  13.899
79335W        W40998   1.402  37.493  12.867
79336W        W40999  43.385   9.711  11.043
79337W        W41000  39.972  41.350   4.124
79338W        W41001  35.982  14.218   4.636
79339W        W41002  41.528   9.219   1.428
79340W        W41003  11.650  38.407  11.372
79341W        W41004  28.135  38.821   2.814
79342W        W41005   5.355  41.532   0.271
79343W        W41006  23.080  30.529  12.976
79344W        W41007   9.799  31.632   0.464
79345W        W41008  31.426   8.338  12.984
79346W        W41009  26.650  30.611   3.691
79347W        W41010  29.636   7.311   3.792
79348W        W41011  18.613  11.726  14.021
79349W        W41012  23.195  30.413  10.888
79350W        W41013  31.590  21.562   3.693
79351W        W41014   0.866  33.447  11.426
79352W        W41015  15.137  25.647  14.315
79353W        W41016   2.877   1.865   2.694
79354W        W41017  38.328  35.463  10.996
79355W        W41018  33.879  19.611  14.366
79356W        W41019  19.255   6.766   3.693
79357W        W41020   2.773  35.088   2.178
79358W        W41021  31.972  42.832   2.686
79359W        W41022  36.380  17.741   3.780
79360W        W41023   6.705  30.639  14.905
79361W        W41024  38.362  30.075   1.416
79362W        W41025  13.334  42.996   3.775
79363W        W41026  10.773  31.074  12.354
79364W        W41027  30.626   3.403  13.019
79365W        W41028  16.756   2.893  13.484
79366W        W41029  18.774  16.717  12.096
79367W        W41030   0.439   8.720  12.372
79368W        W41031   6.306  41.883   0.738
79369W        W41032  37.958  32.447   3.363
79370W        W41033  33.487  42.025  11.439
79371W        W41034  32.491   3.374  14.442
79372W        W41035   1.951   6.916  10.643
79373W        W41036  13.125  36.857   2.191
79374W        W41037  41.306  25.556  12.499
79375W        W41038  34.951  18.766  14.911
79376W        W41039  27.984   6.198  14.884
79377W        W41040   0.770   9.880   2.848
79378W        W41041  31.141  10.303   4.618
79379W        W41042  39.859   1.356   0.830
79380W        W41043  36.493  10.185  12.449
79381W        W41044   7.808  44.899  14.436
79382W        W41045   9.866  31.480   1.426
79383W        W41046  31.950  36.924   0.428
79384W        W41047   6.316  19.535  13.064
79385W        W41048  28.508  39.892  14.948
79386W        W41049  19.129  19.677   0.267
79387W        W41050   8.745   8.329   5.151
79388W        W41051   2.813   5.826   0.894
79389W        W41052  40.397  13.609  14.507
79390W        W41053  21.662  31.101   4.173
79391W        W41054   9.393   7.232   3.277
79392W        W41055   3.336  34.444  10.535
79393W        W41056  15.257  42.348   4.754
79394W        W41057  42.995   6.721  10.404
79395W        W41058  19.242  43.276   1.224
79396W        W41059  41.321   7.683  14.514
79397W        W41060  41.900  35.361  11.990
79398W        W41061  28.159  26.621   4.315
79399W        W41062   3.334  30.416  10.414
79400W        W41063  29.617  21.096  10.492
79401W        W41064  14.833  19.651   4.304
79402W        W41065  44.790   6.317  14.769
79403W        W41066  25.072  44.337   3.302
79404W        W41067   0.905   5.309  13.992
79405W        W41068  40.513  37.517   2.854
79406W        W41069  35.579  31.555   2.272
79407W        W41070  44.307  24.160   2.857
79408W        W41071   0.426  33.888  14.824
79409W        W41072  18.752  20.031   3.649
79410W        W41073  15.717  21.147   5.167
79411W        W41074   6.793  19.214   1.291
79412W        W41075  17.265  15.823   2.333
79413W        W41076  29.097  20.221   4.270
79414W        W41077  29.166  16.749   1.422
79415W        W41078  37.549  14.324   0.795
79416W        W41079  26.483  18.263   4.125
79417W        W41080  34.394  11.350  12.067
79418W        W41081  30.564  34.588  11.401
79419W        W41082  27.624   2.781  12.443
79420W        W41083  37.973   7.289  10.153
79421W        W41084  44.433  35.913  10.488
79422W        W41085  30.033  20.178   3.829
79423W        W41086  41.423   9.648   0.332
79424W        W41087  35.926  27.501   1.222
79425W        W41088  35.413   2.766   0.728
79426W        W41089  30.027  44.003  12.872
79427W        W41090  17.242  37.949   4.333
79428W        W41091  39.013  23.075   4.239
79429W        W41092  27.025  43.297  14.353
79430W        W41093   5.367  16.207  14.429
79431W        W41094  24.226  34.515   2.741
79432W        W41095  25.547  22.714   3.344
79433W        W41096   9.778  30.073   3.216
79434W        W41097  16.688  42.830   3.332
79435W        W41098  20.170  33.429   2.215
79436W        W41099  24.624  23.149   4.124
79437W        W41100  18.548   5.258  14.360
79438W        W41101  24.988  16.083  14.875
79439W        W41102  34.553  16.785  13.827
79440W        W41103  40.912   7.823   2.363
79441W        W41104  29.078   2.875  13.542
79442W        W41105  43.411  31.043   3.321
79443W        W41106  12.809  42.861  14.858
79444W        W41107  41.926  44.810   0.952
79445W        W41108  33.478  28.004  10.118
79446W        W41109  10.875  21.534  11.401
79447W        W41110   4.704  23.088  14.414
79448W        W41111   6.808  36.409   0.874
79449W        W41112  31.997  12.183  12.063
79450W        W41113  33.470  29.033   1.265
79451W        W41114  19.634  26.050  14.826
79452W        W41115  41.982  25.123   3.789
79453W        W41116  18.290   0.814   2.880
79454W        W41117  15.821  30.489   1.764
79455W        W41118  21.604  34.897  11.918
79456W        W41119  43.494  43.516  11.951
79457W        W41120  25.167  34.112  12.453
79458W        W41121  26.694  25.529   0.890
79459W        W41122   2.254   4.428  13.390
79460W        W41123  15.133  39.391   3.761
79461W        W41124  34.583   1.339  14.991
79462W        W41125  43.850  17.213   0.244
79463W        W41126  13.762  10.317   2.810
79464W        W41127  41.960  27.500   4.126
79465W        W41128   6.813  27.106   4.713
79466W        W41129  17.218  40.828   4.236
79467W        W41130   6.760  18.663  11.978
79468W        W41131  13.788  33.513   4.159
79469W        W41132  30.615  16.758   3.212
79470W        W41133  10.303  11.290   0.874
79471W        W41134  11.691  29.166  14.346
79472W        W41135   3.276  44.849   1.358
79473W        W41136   3.338  29.483   0.456
79474W        W41137  29.643  26.531  12.510
79475W        W41138   7.403  18.610  13.034
79476W        W41139  41.422  21.055   3.723
79477W        W41140   2.444  20.697   2.285
79478W        W41141  19.598  10.722  12.444
79479W        W41142  29.435  35.464   4.144
79480W        W41143  25.116  43.844  13.351
79481W        W41144   5.367  14.644  13.923
79482W        W41145  13.215  38.350   1.772
79483W        W41146  25.620  25.214   1.323
79484W        W41147  38.963  35.375   4.830
79485W        W41148  10.336  31.618   2.771
79486W        W41149  38.882  14.823  14.799
79487W        W41150  42.526  20.553  11.393
79488W        W41151  15.174  35.369  11.040
79489W        W41152  10.851  33.066  13.049
79490W        W41153  20.563   2.460   1.234
79491W        W41154  16.224   0.371  12.352
79492W        W41155  25.073  27.048   0.750
79493W        W41156  11.787  24.554   3.379
79494W        W41157  38.383  33.554  11.896
79495W        W41158  23.565  41.850  13.799
79496W        W41159  33.467  11.137  13.401
79497W        W41160  26.592  42.784   3.234
79498W        W41161   2.880  20.184   3.370
79499W        W41162  43.282  15.201   4.762
79500W        W41163  14.235   6.227  11.074
79501W        W41164  14.273  42.842   3.719
79502W        W41165   5.373   5.703   4.234
79503W        W41166   2.735  43.455  12.417
79504W        W41167  34.431  32.418  11.078
79505W        W41168  25.539  24.116  13.030
79506W        W41169  15.807   1.367   1.843
79507W        W41170  10.347  32.519   3.364
79508W        W41171  16.598  29.014   0.320
79509W        W41172   9.880  27.648   2.311
79510W        W41173  43.310  27.609   3.254
79511W        W41174  27.532  19.101  10.519
79512W        W41175  31.991  32.107  11.561
79513W        W41176  24.557  14.714   0.910
79514W        W41177  32.436  38.984   3.715
79515W        W41178  41.933  18.570   3.298
79516W        W41179  28.527  15.144   1.920
79517W        W41180  34.399  25.113  11.910
79518W        W41181  37.439  37.348   4.605
79519W        W41182  35.919  23.551   0.301
79520W        W41183   4.799  35.434   2.283
79521W        W41184  43.925  31.454   0.925
79522W        W41185   0.969  31.969   0.858
79523W        W41186  42.380  22.541  12.899
79524W        W41187   8.171  39.977   4.775
79525W        W41188  39.017  15.103  10.971
79526W        W41189   7.312  29.655  11.581
79527W        W41190   8.846  21.651  13.350
79528W        W41191  10.733  44.782   3.785
79529W        W41192  15.302  25.556  12.034
79530W        W41193  20.698  23.199  10.580
79531W        W41194  11.790  30.038  11.958
79532W        W41195  33.436  27.022   1.440
79533W        W41196  24.647  26.168  12.393
79534W        W41197  43.368  31.411   4.782
79535W        W41198  31.953  17.622   4.189
79536W        W41199  21.607  39.867  12.520
79537W        W41200  35.436  14.177   1.303
79538W        W41201  29.577  12.739   3.800
79539W        W41202  41.367  31.596   2.350
79540W        W41203  15.114  43.914  12.827
79541W        W41204  30.439  23.057   2.413
79542W        W41205  34.582   3.730  12.529
79543W        W41206  35.496  26.587   4.785
79544W        W41207   6.776  19.765   2.410
79545W        W41208  37.391   5.367   0.285
79546W        W41209  28.518  13.278   3.255
79547W        W41210  30.574  19.539  10.568
79548W        W41211   7.390  25.082  10.489
79549W        W41212  17.584   8.334  11.550
79550W        W41213   7.296  35.862   2.747
79551W        W41214  35.099  13.802  13.353
79552W        W41215  17.743   2.961   1.264
79553W        W41216  42.437  40.490   2.208
79554W        W41217  42.943   3.230   4.193
79555W        W41218  37.915   5.211  12.578
79556W        W41219  19.263  11.828   4.341
79557W        W41220  13.799  27.107  13.538
79558W        W41221   9.766   9.343   5.316
79559W        W41222  27.126   6.806  11.098
79560W        W41223  27.470  16.224  12.396
79561W        W41224  41.967  11.672  10.052
79562W        W41225  32.130   0.845   2.746
79563W        W41226  24.208  24.635   1.323
79564W        W41227   8.705  16.598   2.223
79565W        W41228  36.407  22.084  11.917
79566W        W41229  34.934  37.395  12.562
79567W        W41230  12.834  18.164   2.781
79568W        W41231  28.607  40.845   1.242
79569W        W41232   4.929   8.308   3.780
79570W        W41233  10.285   4.230   9.942
79571W        W41234  18.089   4.428   0.802
79572W        W41235  44.413   5.201   1.247
79573W        W41236   1.964  39.971   0.310
79574W        W41237  33.914  33.979   1.860
79575W        W41238  32.462  11.307  10.936
79576W        W41239  10.368   2.432   2.324
79577W        W41240  41.836  12.648   2.193
79578W        W41241  18.737   2.787   1.782
79579W        W41242  14.629  40.971   4.337
79580W        W41243  32.536   3.386  10.935
79581W        W41244  36.424   5.249   1.248
79582W        W41245  25.154  36.036  11.585
79583W        W41246  30.552   7.840   4.293
79584W        W41247  41.882  38.429   4.679
79585W        W41248  29.437  43.990   2.714
79586W        W41249  14.698   5.260  12.423
79587W        W41250  27.467  29.110  12.947
79588W        W41251  37.077  19.206   1.866
79589W        W41252  13.249   3.229   0.245
79590W        W41253  39.852  20.752  11.996
79591W        W41254  13.240  35.506   1.321
79592W        W41255  32.622   8.348  14.994
79593W        W41256  23.680  12.671  10.905
79594W        W41257  17.145  31.613  13.011
79595W        W41258   5.752  31.984   2.198
79596W        W41259  25.165  21.112   4.680
79597W        W41260  34.066   0.298  10.584
79598W        W41261  25.623  19.069   0.306
79599W        W41262  29.932  37.968  10.421
79600W        W41263  26.087  27.048   2.768
79601W        W41264  30.533   0.925   1.334
79602W        W41265  24.120   0.465  14.440
79603W        W41266  30.525  28.016   2.301
79604W        W41267  42.459  29.521   3.833
79605W        W41268  25.061  33.555   1.352
79606W        W41269  24.192  42.506   3.724
79607W        W41270  11.361   5.263   3.820
79608W        W41271   6.414  20.715  13.374
79609W        W41272  36.915  31.595  11.070
79610W        W41273  12.166   4.732  11.912
79611W        W41274  40.448   1.373   4.222
79612W        W41275  39.320  12.274   1.228
79613W        W41276  31.001  19.761   2.702
79614W        W41277  37.930  24.117  13.380
79615W        W41278  35.467  11.645  13.904
79616W        W41279  33.400  10.178   2.221
79617W        W41280  34.046  41.827   3.271
79618W        W41281  41.028  10.797   1.228
79619W        W41282  38.974  27.684  12.957
79620W        W41283   0.761  22.140  13.043
79621W        W41284  43.458  33.996  11.982
79622W        W41285  37.500   8.844   3.367
79623W        W41286   6.903  20.137   4.263
79624W        W41287  39.419  18.787   0.849
79625W        W41288   3.850  27.580  12.000
79626W        W41289  25.202   6.691  10.956
79627W        W41290   2.242  31.956  10.019
79628W        W41291  18.221  43.894  11.987
79629W        W41292  41.414  33.433  14.780
79630W        W41293   5.752   8.704  14.461
79631W        W41294   2.334   5.332  10.614
79632W        W41295  29.455   2.751  12.993
79633W        W41296  11.306  36.855   4.147
79634W        W41297  34.036  24.199   4.793
79635W        W41298  34.487  15.667   3.283
79636W        W41299  30.618  30.159  11.977
79637W        W41300  13.686  25.218  12.083
79638W        W41301  28.181  11.331   4.334
79639W        W41302  41.295  35.065   2.715
79640W        W41303  22.210  21.671   2.392
79641W        W41304   3.911   3.349  11.102
79642W        W41305  21.689   1.246   4.183
79643W        W41306  27.941  11.693   0.437
79644W        W41307   6.374   3.456   3.146
79645W        W41308  20.100  44.418   4.149
79646W        W41309  38.947  13.321  10.628
79647W        W41310   3.914  25.968   3.224
79648W        W41311  33.926  44.902  13.945
79649W        W41312  36.925   4.365   4.742
79650W        W41313  22.218  41.858   4.339
79651W        W41314  24.662  24.601   4.343
79652W        W41315  25.033  11.866  10.418
79653W        W41316   6.261   5.398  14.950
79654W        W41317   1.348  15.750  12.870
79655W        W41318  32.942  18.151  14.431
79656W        W41319  14.154   9.239   5.243
79657W        W41320  42.311  33.410  10.637
79658W        W41321   3.331  18.556  13.882
79659W        W41322   8.741  17.733  10.457
79660W        W41323  27.952  20.109  12.930
79661W        W41324  34.378   6.366   3.822
79662W        W41325   7.266  39.042  10.550
79663W        W41326  40.857  39.843  13.489
79664W        W41327  19.736  25.694  13.504
79665W        W41328  15.241  41.524  11.918
79666W        W41329  20.553  23.214  12.923
79667W        W41330  24.556  20.645  13.428
79668W        W41331  17.280  30.015   4.172
79669W        W41332  42.950  24.012   1.695
79670W        W41333  15.100  26.124  14.303
79671W        W41334   6.803  34.377   1.906
79672W        W41335  22.226   0.776   5.109
79673W        W41336  21.566  35.898  14.986
79674W        W41337   9.796   4.901  11.576
79675W        W41338  28.016  14.623   0.359
79676W        W41339  16.709  36.992   0.449
79677W        W41340  15.138  40.441  13.883
79678W        W41341  37.930  15.792   2.736
79679W        W41342   7.748   7.267  13.844
79680W        W41343   9.655  33.609  14.472
79681W        W41344  28.153   1.431   2.838
79682W        W41345  43.317  24.146  13.805
79683W        W41346  25.516   2.770   1.244
79684W        W41347   9.760  38.003  14.826
79685W        W41348   8.306   7.412   5.103
79686W        W41349   8.861  43.346   3.674
79687W        W41350  33.035  41.511   3.292
79688W        W41351   8.833  30.566   0.372
79689W        W41352  18.275   7.384   1.831
79690W        W41353  23.718  43.844   1.718
79691W        W41354   3.354  24.204   1.238
79692W        W41355  23.205  36.036  14.908
79693W        W41356  41.361  14.674  13.369
79694W        W41357   2.359  20.702  11.917
79695W        W41358   7.389   7.752   3.176
79696W        W41359  16.299  14.692  10.974
79697W        W41360  44.856  13.608   4.777
79698W        W41361  40.907   3.393  13.526
79699W        W41362  39.502   7.740   0.913
79700W        W41363  41.039  37.902  13.459
79701W        W41364  30.932  26.091  13.927
79702W        W41365  14.281  13.704   4.150
79703W        W41366   3.736  44.314   4.745
79704W        W41367  28.561  39.418  11.547
79705W        W41368  27.135  33.610   3.369
79706W        W41369  11.222   8.763   3.256
79707W        W41370  29.570   6.218   0.452
79708W        W41371  28.621  38.382  13.454
79709W        W41372   8.812   7.279  14.300
79710W        W41373  26.516  14.179  11.439
79711W        W41374  21.552   2.320   0.806
79712W        W41375  26.535  28.616  13.009
79713W        W41376   4.708  16.296   4.789
79714W        W41377  19.070   4.925  12.372
79715W        W41378  16.779  23.100  12.414
79716W        W41379  38.945  18.614  12.864
79717W        W41380  36.540  29.659  11.069
79718W        W41381  10.802  21.133   2.727
79719W        W41382  12.203  40.879   4.235
79720W        W41383  35.855  23.636  11.453
79721W        W41384  21.727  18.564   2.826
79722W        W41385  25.060  34.394  12.087
79723W        W41386   8.844   0.363  13.010
79724W        W41387  40.401  31.442   4.276
79725W        W41388  24.681   2.306  10.108
79726W        W41389   5.855   3.843   1.793
79727W        W41390  30.035  25.066   2.893
79728W        W41391  43.378  27.166  10.473
79729W        W41392  13.213  36.878   3.152
79730W        W41393  40.914   1.383  11.402
79731W        W41394  29.500  21.595   4.120
79732W        W41395  36.534  24.124   3.344
79733W        W41396   2.773  30.575   2.263
79734W        W41397   8.367  27.691   1.392
79735W        W41398  17.247  15.645   0.964
79736W        W41399  10.249  33.405   4.754
79737W        W41400  22.036  41.972   0.329
79738W        W41401  36.448  13.671   1.330
79739W        W41402  36.569  38.560   2.686
79740W        W41403  19.565  37.830   0.867
79741W        W41404   2.734  27.630   3.181
79742W        W41405  23.996  40.352   2.342
79743W        W41406  11.767  24.139  11.541
79744W        W41407  35.554  44.919  10.511
79745W        W41408   9.744  17.095  13.375
79746W        W41409  26.563  32.566   0.764
79747W        W41410  22.610  27.541  10.453
79748W        W41411   8.302  18.545   1.318
79749W        W41412  42.934   9.737   2.210
79750W        W41413  21.093  11.265   4.727
79751W        W41414  43.434  38.825  13.041
79752W        W41415  11.174  43.808  13.023
79753W        W41416   3.335  42.851  13.923
79754W        W41417  30.038  21.716   0.786
79755W        W41418  31.138  24.990  11.095
79756W        W41419  29.971   7.181   0.351
79757W        W41420  38.989  26.692  11.515
79758W        W41421  31.459  43.423   0.441
79759W        W41422  10.355   3.325  14.275
79760W        W41423  25.032  10.153  11.453
79761W        W41424  30.502   2.305   1.361
79762W        W41425  13.292   1.337  10.540
79763W        W41426  40.403   3.754  14.394
79764W        W41427  13.842  29.140   1.354
79765W        W41428  39.973   9.299  14.425
79766W        W41429  35.477  19.285   4.663
79767W        W41430  13.281  36.886  12.945
79768W        W41431  44.341  29.439  11.872
79769W        W41432   9.256  28.156  10.002
79770W        W41433  33.456  25.125   3.669
79771W        W41434  11.228  33.987  14.478
79772W        W41435  28.592   1.921   1.778
79773W        W41436   9.225  29.105   2.369
79774W        W41437  29.647  40.340   2.747
79775W        W41438  31.455  12.627  12.867
79776W        W41439   4.215  41.850  12.065
79777W        W41440  34.872  13.159  14.409
79778W        W41441  28.641  26.519  13.799
79779W        W41442  31.957  14.240  12.903
79780W        W41443  37.412   2.792   3.779
79781W        W41444   4.764   6.260  11.002
79782W        W41445  44.483  11.316  13.015
79783W        W41446  38.545   7.267   2.692
79784W        W41447  37.981  24.561   3.760
79785W        W41448  41.499  31.611   1.412
79786W        W41449  21.178  34.034   3.189
79787W        W41450  31.518  12.260  11.469
79788W        W41451   8.854  42.911   4.298
79789W        W41452  21.112  37.543   2.367
79790W        W41453   3.799   1.475  10.576
79791W        W41454   5.866  11.182  13.383
79792W        W41455  32.570   3.460   0.802
79793W        W41456  27.492  26.688   3.829
79794W        W41457  36.911   6.774  13.541
79795W        W41458   0.966  27.648   3.662
79796W        W41459   6.720  14.221   3.154
79797W        W41460  28.592  26.589  10.138
79798W        W41461   4.820  43.891  10.535
79799W        W41462  37.466  31.421  11.445
79800W        W41463  40.033  14.734   0.258
79801W        W41464  29.498  12.291  12.456
79802W        W41465   9.353  11.354   4.771
79803W        W41466  37.339  19.774   0.905
79804W        W41467   3.450  14.292  14.886
79805W        W41468   5.906  19.265   3.256
79806W        W41469  21.029  25.094   1.446
79807W        W41470  10.820   2.463  13.831
79808W        W41471  30.136  24.223  13.920
79809W        W41472  10.336  14.174   3.707
79810W        W41473  33.379  31.573  12.055
79811W        W41474  30.587   1.883   0.440
79812W        W41475  30.085  43.409  13.470
79813W        W41476  38.395  10.689   3.857
79814W        W41477   3.944  34.396  13.499
79815W        W41478  24.144  25.514  11.983
79816W        W41479  11.226  23.551   0.347
79817W        W41480  34.886  36.878  12.549
79818W        W41481   1.951   7.413   3.360
79819W        W41482   8.827   8.245  12.007
79820W        W41483   0.488  31.469  11.934
79821W        W41484   6.842  16.262   0.874
79822W        W41485  42.314  27.581  13.512
79823W        W41486   5.279   1.867  11.009
79824W        W41487  38.368  44.429   0.409
79825W        W41488  24.129   1.471   1.888
79826W        W41489  34.940  42.868  11.542
79827W        W41490  40.547  36.040  11.963
79828W        W41491  32.951  11.754   1.843
79829W        W41492  22.189  11.787  14.854
79830W        W41493  18.234  28.554   3.863
79831W        W41494  24.532  14.315  14.288
79832W        W41495   9.156  41.341   5.112
79833W        W41496  29.535  33.514   5.198
79834W        W41497  31.636  43.387   3.366
79835W        W41498  32.976   1.242  13.507
79836W        W41499  42.491  43.314   2.238
79837W        W41500   3.928  32.565  10.466
79838W        W41501  11.697  11.318   0.374
79839W        W41502  31.413   0.284   1.911
79840W        W41503   0.911   5.194   2.352
79841W        W41504  20.646   8.881  12.039
79842W        W41505  13.116   1.238  12.427
79843W        W41506   7.870   7.413  14.809
79844W        W41507   6.809  40.306  14.394
79845W        W41508   2.956  35.962  11.379
79846W        W41509  23.163  29.580   3.172
79847W        W41510   1.451  29.485   2.343
79848W        W41511  11.329  34.062   0.938
79849W        W41512  38.535   2.720   0.887
79850W        W41513   0.463   0.349   0.928
79851W        W41514   1.270   3.821  11.387
79852W        W41515  33.934  28.637   4.160
79853W        W41516   4.848  23.520   2.247
79854W        W41517  22.510  12.290   2.225
79855W        W41518  41.864  15.793  14.401
79856W        W41519   6.917  32.605  14.287
79857W        W41520  15.263  44.416   0.377
79858W        W41521  41.395  12.140   5.631
79859W        W41522  12.795  33.972   3.851
79860W        W41523   3.259   2.753  14.891
79861W        W41524   6.202  43.364   2.294
79862W        W41525  26.658  41.403  13.002
79863W        W41526  27.593  34.950   0.937
79864W        W41527  26.506   8.745  12.047
79865W        W41528  20.752  22.121   2.791
79866W        W41529  10.233  21.514   4.212
79867W        W41530   6.864  24.173  12.468
79868W        W41531  19.557  31.533   1.754
79869W        W41532  14.179   7.355   4.794
79870W        W41533  21.258  11.301  14.457
79871W        W41534   5.353  25.199   2.397
79872W        W41535  42.930  18.696   0.804
79873W        W41536   7.886   6.368   3.315
79874W        W41537   5.815   4.378   4.227
79875W        W41538  41.883  43.916   3.686
79876W        W41539  15.259  30.128   2.299
79877W        W41540  43.447  38.868  14.870
79878W        W41541  16.227  26.644   5.150
79879W        W41542   6.894  13.162   4.274
79880W        W41543  24.031  23.541  10.495
79881W        W41544  29.951   3.828  12.880
79882W        W41545  12.829  41.925   3.781
79883W        W41546  44.460  10.776  12.872
79884W        W41547  24.516  14.281   4.753
79885W        W41548  41.448  41.800  13.460
79886W        W41549  20.147  31.590  11.871
79887W        W41550  44.446  42.449  13.522
79888W        W41551  37.523   9.838  14.765
79889W        W41552   9.851  32.992  12.497
79890W        W41553  12.170  30.099   1.744
79891W        W41554   1.825  16.254   4.277
79892W        W41555  19.691   2.348   0.728
79893W        W41556  27.095  26.695   4.633
79894W        W41557  12.351  12.628   0.321
79895W        W41558   6.343  18.601  11.409
79896W        W41559  33.101  38.396  10.613
79897W        W41560  26.624  32.029  12.887
79898W        W41561  34.465  16.722   3.288
79899W        W41562  11.270  24.667  12.385
79900W        W41563   8.229  35.069   3.857
79901W        W41564  14.610   1.409  14.286
79902W        W41565  27.951  21.168  12.416
79903W        W41566   5.707  31.099   4.195
79904W        W41567  24.043  25.530  13.451
79905W        W41568   4.393   1.476  13.977
79906W        W41569  44.977   8.770  14.368
79907W        W41570  32.451  36.843  10.443
79908W        W41571  37.024  14.821   4.714
79909W        W41572   1.762  21.196   3.668
79910W        W41573  21.714  35.469   2.713
79911W        W41574  14.593  32.111  11.070
79912W        W41575  33.019   3.917   0.358
79913W        W41576  22.556  40.810   4.300
79914W        W41577  37.516  18.109   1.851
79915W        W41578  28.452  26.038   3.712
79916W        W41579  25.022  44.982  12.921
79917W        W41580  10.811  40.009  11.896
79918W        W41581  43.308  12.128  13.529
79919W        W41582  37.856   5.835  13.796
79920W        W41583  10.189  15.133   3.338
79921W        W41584  14.110  13.272   4.708
79922W        W41585   3.791  37.353   3.240
79923W        W41586  18.565  39.059   1.400
79924W        W41587  25.638  14.234   4.309
79925W        W41588  13.344  30.440  14.425
79926W        W41589  22.736  33.505  14.981
79927W        W41590   2.404  20.213   0.961
79928W        W41591  20.744  21.230  12.092
79929W        W41592  14.212  19.226  11.115
79930W        W41593  18.582  43.780  13.965
79931W        W41594  28.990  25.474   0.794
79932W        W41595  30.998  23.620  11.984
79933W        W41596  18.611  28.089  14.816
79934W        W41597  23.540  11.805   3.707
79935W        W41598  11.695   6.295  14.891
79936W        W41599  23.205  30.491  14.501
79937W        W41600  26.675  32.995   3.734
79938W        W41601  36.446   8.182   5.176
79939W        W41602  13.712  18.657   0.911
79940W        W41603   2.760  37.989  10.501
79941W        W41604  11.672   5.712   5.245
79942W        W41605  44.456  23.505  13.061
79943W        W41606  36.368  26.000  11.520
79944W        W41607   6.873  28.947  12.520
79945W        W41608  17.733  36.034   2.826
79946W        W41609  42.524  35.490   2.744
79947W        W41610   3.730  33.099   0.427
79948W        W41611   9.840  33.555   2.391
79949W        W41612   0.832  32.425  14.357
79950W        W41613  17.792  18.635   3.759
79951W        W41614  17.714  29.170   1.377
79952W        W41615   8.213  28.181  13.338
79953W        W41616  17.283   3.421   1.387
79954W        W41617  27.529  36.360  12.870
79955W        W41618  15.276  18.243   2.764
79956W        W41619  17.124  28.105   4.260
79957W        W41620   9.315  16.723   0.735
79958W        W41621  27.155   0.301  14.424
79959W        W41622   9.333  13.239  11.481
79960W        W41623   8.340  23.078  13.459
79961W        W41624  12.800  44.504   2.900
79962W        W41625  13.775  26.676   0.360
79963W        W41626  17.207   5.703   2.842
79964W        W41627   2.862  40.872   3.798
79965W        W41628  33.892  33.922   3.784
79966W        W41629  38.054  18.611  12.505
79967W        W41630  43.377  11.787   4.193
79968W        W41631   9.692  34.024   1.913
79969W        W41632   2.308   6.717   4.184
79970W        W41633   5.343  13.171  14.325
79971W        W41634  24.687  27.573  14.346
79972W        W41635  40.505  21.581   3.828
79973W        W41636  11.354  32.631   1.803
79974W        W41637   3.754  41.920  13.055
79975W        W41638  28.982  26.663   3.710
79976W        W41639  33.890   9.228  13.391
79977W        W41640  24.992  15.257   2.378
79978W        W41641  31.590  26.546   2.715
79979W        W41642  20.528  26.681   4.810
79980W        W41643  38.070  40.502  12.897
79981W        W41644  27.026  13.107   2.808
79982W        W41645  41.470  16.625   0.757
79983W        W41646  18.642  20.198   2.720
79984W        W41647  12.811  21.569   2.811
79985W        W41648  37.478  43.300  11.907
79986W        W41649  20.656  40.029  13.524
79987W        W41650  37.581   7.363  13.032
79988W        W41651   8.772  15.718   1.217
79989W        W41652  10.760  30.139   4.293
79990W        W41653  38.397  36.394   1.444
79991W        W41654  27.135  14.122  14.887
79992W        W41655   3.880  18.639  11.523
79993W        W41656  16.771   5.263   0.879
79994W        W41657  37.463  26.608   3.379
79995W        W41658   1.240  39.055  12.073
79996W        W41659  21.088  31.951   2.771
79997W        W41660  20.203  22.095  10.547
79998W        W41661  19.678  23.108  11.384
79999W        W41662  24.089  19.148   2.383
80000W        W41663  42.510   5.219   5.239
80001W        W41664  41.035  34.987   3.179
80002W        W41665  43.898  40.816  11.494
80003W        W41666  10.315  18.076   1.881
80004W        W41667  38.860   7.255   5.172
80005W        W41668  22.571  13.779  13.407
80006W        W41669   7.727  34.029  10.987
80007W        W41670  33.541  22.634   0.419
80008W        W41671  22.025  14.793   4.684
80009W        W41672  32.139  16.613   2.325
80010W        W41673  35.087  32.035  11.428
80011W        W41674  39.373  10.163   1.852
80012W        W41675  14.808  44.305   2.299
80013W        W41676   3.247  39.404  13.332
80014W        W41677  25.139  19.724  14.934
80015W        W41678  23.659  12.855   3.687
80016W        W41679  36.409   8.261   4.250
80017W        W41680  42.918  29.995   1.357
80018W        W41681   8.839  16.209  11.047
80019W        W41682  27.119   2.325   0.779
80020W        W41683  28.053  16.115   3.725
80021W        W41684  39.419  22.659   0.825
80022W        W41685  23.616  19.193  10.450
80023W        W41686  33.052  10.824  10.981
80024W        W41687  37.380   8.833   4.341
80025W        W41688  42.366  19.183   4.122
80026W        W41689  41.408  38.855  14.882
80027W        W41690  16.198  41.014  11.045
80028W        W41691  23.544  29.647  12.412
80029W        W41692  26.175  31.962   4.774
80030W        W41693  19.203   7.292  13.827
80031W        W41694  21.062   9.364  14.281
80032W        W41695  22.573   3.715  14.932
80033W        W41696  20.266   8.831   4.201
80034W        W41697  24.079  25.089   2.190
80035W        W41698  32.008  19.555   2.292
80036W        W41699   2.416  12.325  11.944
80037W        W41700  35.895  10.296  13.846
80038W        W41701  42.775   9.360   2.777
80039W        W41702  11.622  40.384  14.840
80040W        W41703  22.140  15.674  11.423
80041W        W41704  33.561  12.278   2.183
80042W        W41705   9.809  21.063  10.563
80043W        W41706   7.669   8.227   4.184
80044W        W41707  44.435  41.335   0.283
80045W        W41708  17.646  15.741   1.242
80046W        W41709  28.662  10.241  10.952
80047W        W41710   1.897  26.555   0.327
80048W        W41711  26.691  31.505  14.322
80049W        W41712   2.814   2.790  13.384
80050W        W41713   0.466  19.161   4.696
80051W        W41714  27.160  35.874   4.308
80052W        W41715  44.419  12.774   1.785
80053W        W41716  17.141  14.297  14.485
80054W        W41717   2.248   6.855   3.825
80055W        W41718  30.110  15.326   3.837
80056W        W41719   1.838  23.658   2.805
80057W        W41720  29.599  22.601  13.061
80058W        W41721  22.012   2.232  14.870
80059W        W41722  24.580  34.100  12.462
80060W        W41723   2.943  42.416  12.924
80061W        W41724  25.979  26.680  13.892
80062W        W41725  36.923   8.329   3.771
80063W        W41726  27.514  10.828   1.896
80064W        W41727  27.668  17.768   2.375
80065W        W41728  34.025  37.403   1.239
80066W        W41729  34.612   1.424   1.212
80067W        W41730  32.047  40.367   0.318
80068W        W41731   2.401   7.319   9.998
80069W        W41732  42.832  23.600   2.346
80070W        W41733  28.952  15.632  13.435
80071W        W41734   0.970   0.873   5.300
80072W        W41735  11.828  10.294  12.906
80073W        W41736  21.606  11.276  13.038
80074W        W41737  24.090  37.373   4.128
80075W        W41738  31.576  11.647   3.178
80076W        W41739  27.617  20.613  13.354
80077W        W41740  37.848  10.849  13.427
80078W        W41741  29.539  42.300  10.430
80079W        W41742  25.127  33.080   0.430
80080W        W41743   6.256  12.280  11.040
80081W        W41744  26.100  29.105   1.332
80082W        W41745  29.655  34.013  14.769
80083W        W41746  37.001  14.657  11.551
80084W        W41747  43.867   5.720  14.286
80085W        W41748  23.678   6.324   3.791
80086W        W41749  36.005  38.963   1.389
80087W        W41750  36.983  28.090   2.788
80088W        W41751  20.214  39.825   5.155
80089W        W41752  41.958  13.136  12.958
80090W        W41753  10.332  44.458  13.534
80091W        W41754   8.886  43.962  11.096
80092W        W41755  43.891  20.660   1.782
80093W        W41756   2.891  12.343   0.779
80094W        W41757   2.404  18.095  13.357
80095W        W41758   8.181  36.561  11.128
80096W        W41759  27.609   3.939   4.317
80097W        W41760   3.352  18.216   1.343
80098W        W41761  17.593  13.777   2.377
80099W        W41762   5.932   0.872  10.420
80100W        W41763  21.723  32.058   3.841
80101W        W41764  14.211  22.014  12.030
80102W        W41765  37.338  29.594   4.805
80103W        W41766  26.163  23.724  12.875
80104W        W41767   1.442  30.980   2.816
80105W        W41768   1.781  20.075   1.241
80106W        W41769  35.508  19.537   0.811
80107W        W41770  28.102  14.621   2.709
80108W        W41771  29.648   7.299   1.352
80109W        W41772  18.586  15.265  12.932
80110W        W41773  40.516  42.317   3.799
80111W        W41774  42.798  33.084   2.689
80112W        W41775  43.920  36.857   4.749
80113W        W41776  16.205  42.457   0.729
80114W        W41777  11.648   1.731   0.847
80115W        W41778  30.931  31.018  12.000
80116W        W41779  14.137  17.601   2.386
80117W        W41780  19.763   9.224  14.950
80118W        W41781   1.261  13.643  14.362
80119W        W41782  40.329  18.050  10.940
80120W        W41783  26.686  18.606   4.672
80121W        W41784  38.890   3.365  10.103
80122W        W41785  26.990  41.377   3.346
80123W        W41786   7.849  19.151   0.300
80124W        W41787   1.456  41.452  10.981
80125W        W41788  14.614  42.504  12.838
80126W        W41789  10.842  24.483   2.796
80127W        W41790  43.513  22.127  10.930
80128W        W41791  34.473  37.410   3.288
80129W        W41792  21.634  16.573   3.755
80130W        W41793  34.562  34.023   0.761
80131W        W41794  19.156  30.088   3.275
80132W        W41795  30.931  26.963   0.447
80133W        W41796  44.287   9.693   3.665
80134W        W41797  35.467   3.919  11.440
80135W        W41798   1.458  35.489   2.830
80136W        W41799   6.877  10.282   2.405
80137W        W41800  24.680   4.412   2.241
80138W        W41801   6.735  42.320  11.085
80139W        W41802  35.386   5.892   3.822
80140W        W41803  15.146   2.887   3.799
80141W        W41804  23.110  36.952  13.442
80142W        W41805  41.848   4.215  13.995
80143W        W41806   1.432   5.886   1.710
80144W        W41807  40.899  26.617   3.180
80145W        W41808  28.075  23.624  14.994
80146W        W41809   5.277  33.060   3.849
80147W        W41810  35.863   9.240  11.964
80148W        W41811   2.800  21.137   0.824
80149W        W41812  25.671  40.833  13.813
80150W        W41813  28.561  16.708  14.394
80151W        W41814  44.864  11.856   3.740
80152W        W41815  18.178  39.456  14.892
80153W        W41816  31.637  17.701   0.748
80154W        W41817   2.438  10.197  10.529
80155W        W41818  24.089  14.796  10.972
80156W        W41819  24.985  11.285  13.497
80157W        W41820  44.960  34.889  14.887
80158W        W41821  35.487  23.711   4.332
80159W        W41822   5.781  17.243  12.829
80160W        W41823  38.931  16.220  10.440
80161W        W41824  24.573  28.026   0.306
80162W        W41825   8.804   4.865   2.759
80163W        W41826  18.167   2.798  14.322
80164W        W41827  38.921  34.924  10.441
80165W        W41828  35.574  36.554   0.894
80166W        W41829  11.653  14.253  10.641
80167W        W41830   5.690   5.380  14.385
80168W        W41831  32.532  24.529  11.040
80169W        W41832  25.982   3.401   1.411
80170W        W41833   8.736  25.050   2.217
80171W        W41834  26.488  39.999   3.714
80172W        W41835  26.530   3.342  13.447
80173W        W41836  35.092  12.694   3.705
80174W        W41837  26.141   3.802  10.633
80175W        W41838  41.958  25.146  14.815
80176W        W41839  35.549  29.589  13.962
80177W        W41840  26.600  14.262   2.321
80178W        W41841  32.057  28.480  14.773
80179W        W41842  24.689  10.375  13.819
80180W        W41843  32.128  43.326   0.751
80181W        W41844   3.949  44.318  11.061
80182W        W41845  36.966   2.935   2.756
80183W        W41846  42.316   8.322  14.335
80184W        W41847  30.533  24.612  11.598
80185W        W41848  19.717  42.411   2.249
80186W        W41849  39.894  34.976  13.824
80187W        W41850  43.910  29.666   2.351
80188W        W41851  43.809  26.015   2.787
80189W        W41852  44.463  36.485   1.366
80190W        W41853  17.584   6.310  12.051
80191W        W41854  22.504  18.175   2.713
80192W        W41855  28.020  39.822   0.430
80193W        W41856   9.393  16.589  14.441
80194W        W41857  22.146   3.831   2.247
80195W        W41858  11.709   6.872   4.743
80196W        W41859  11.261  20.052  13.367
80197W        W41860   9.285  19.242   4.201
80198W        W41861  32.067  36.479  10.922
80199W        W41862  12.803  31.002  13.375
80200W        W41863   8.835  25.010   1.354
80201W        W41864   8.179  40.815  13.361
80202W        W41865  15.199  31.116  13.353
80203W        W41866  25.074  29.057   1.435
80204W        W41867  27.493  30.953   3.372
80205W        W41868  11.133  18.752  10.961
80206W        W41869  16.085  42.017   4.144
80207W        W41870  31.101   7.379   3.224
80208W        W41871  28.439  24.085   0.433
80209W        W41872   1.423   5.280   4.213
80210W        W41873  39.418   7.792  12.347
80211W        W41874   5.791  13.773  11.917
80212W        W41875  42.012  16.256   0.762
80213W        W41876  12.266  36.854  11.949
80214W        W41877  35.030  35.576  13.890
80215W        W41878  44.811  29.169  13.339
80216W        W41879  15.813  24.562   3.763
80217W        W41880  41.352  16.255   0.446
80218W        W41881  36.534  28.573  14.975
80219W        W41882  40.318  44.885  10.971
80220W        W41883  42.381   2.451   0.326
80221W        W41884   3.733  38.071   1.911
80222W        W41885  36.386  33.887  12.042
80223W        W41886  43.328  30.654  11.932
80224W        W41887  19.219  32.116  12.827
80225W        W41888  38.446  41.014  11.948
80226W        W41889   8.838  40.909   1.339
80227W        W41890  37.424  22.554  14.327
80228W        W41891  22.696   7.851   1.787
80229W        W41892  16.235  24.574   1.892
80230W        W41893  14.308  29.920   1.262
80231W        W41894  19.178  40.956  12.390
80232W        W41895  26.038  25.016  12.567
80233W        W41896  36.502  36.560   2.351
80234W        W41897  36.428  31.437  12.495
80235W        W41898   0.816   1.253  13.367
80236W        W41899  44.753  36.843   3.870
80237W        W41900  13.191   4.291   0.258
80238W        W41901  38.001   1.732   4.673
80239W        W41902   1.850  43.449  10.588
80240W        W41903   5.215  12.843   5.113
80241W        W41904  39.555   0.954  11.959
80242W        W41905  23.006  12.140   4.156
80243W        W41906   3.243  23.652  13.349
80244W        W41907  16.782  36.056   1.909
80245W        W41908  22.608  32.066   0.936
80246W        W41909  41.376   8.268  12.343
80247W        W41910  36.381  39.322  13.537
80248W        W41911  23.576  43.324   1.230
80249W        W41912  14.821  42.415  13.418
80250W        W41913  34.532   3.802  13.798
80251W        W41914  26.060  33.625   4.273
80252W        W41915  32.452  23.673  11.895
80253W        W41916   3.946  20.161  13.370
80254W        W41917   1.482  33.960   4.823
80255W        W41918  44.922  26.986   2.722
80256W        W41919   3.758  20.673   3.683
80257W        W41920   9.788   1.769   4.761
80258W        W41921   5.758  34.578   3.360
80259W        W41922  41.470  11.838  11.558
80260W        W41923   9.837   7.709  12.488
80261W        W41924   4.797  15.193  12.998
80262W        W41925  29.476  39.867   2.313
80263W        W41926   2.891  28.455   3.180
80264W        W41927   6.305   6.258   4.777
80265W        W41928  12.270  24.051  12.975
80266W        W41929  17.783  24.166   3.193
80267W        W41930  20.094  14.250   1.313
80268W        W41931  27.125  39.811  13.047
80269W        W41932  41.423  21.182  11.457
80270W        W41933  42.801  12.704  10.029
80271W        W41934  11.648  13.127   3.797
80272W        W41935  14.622   3.861   1.221
80273W        W41936  17.095  15.594  10.100
80274W        W41937  12.196  17.759  10.495
80275W        W41938   9.850  13.295  13.436
80276W        W41939  10.740  20.753  10.643
80277W        W41940   3.262  36.399   2.715
80278W        W41941  21.157  42.424   3.332
80279W        W41942  29.069   9.241  10.949
80280W        W41943   5.323  27.056  13.042
80281W        W41944   1.947  35.070   0.339
80282W        W41945   4.336  35.431  10.404
80283W        W41946  23.526   8.168  12.934
80284W        W41947  43.003  19.161   4.170
80285W        W41948  17.269  27.015  13.028
80286W        W41949   3.320  27.973   0.430
80287W        W41950  22.553  17.095   0.918
80288W        W41951  27.019  14.162  11.989
80289W        W41952  34.001  11.836  10.558
80290W        W41953  29.081  32.977   4.247
80291W        W41954   4.294  10.812   0.416
80292W        W41955  25.582  10.193  12.871
80293W        W41956  42.389  31.122  13.939
80294W        W41957  36.989  10.783  12.487
80295W        W41958   5.206   9.877  11.591
80296W        W41959  41.799  30.592  11.494
80297W        W41960  42.396  11.257   1.437
80298W        W41961  36.049  36.517  14.992
80299W        W41962  23.163  19.082  13.979
80300W        W41963  13.303  39.484   0.400
80301W        W41964  12.213  17.142  11.117
80302W        W41965  10.256  24.570   5.283
80303W        W41966  37.996   9.321  13.943
80304W        W41967  41.793  40.383   1.882
80305W        W41968  27.969   1.331  13.802
80306W        W41969  11.755  31.028   1.226
80307W        W41970  12.839  44.962  13.406
80308W        W41971   3.782  16.585   3.636
80309W        W41972   7.806  37.338  11.105
80310W        W41973  36.912  31.123  14.369
80311W        W41974  21.691   9.732   2.258
80312W        W41975  26.505  20.733  12.484
80313W        W41976  43.327  34.401   3.760
80314W        W41977  37.904  20.689   2.741
80315W        W41978  34.516  15.653   0.295
80316W        W41979  23.603  39.388  10.527
80317W        W41980  25.510  15.582  13.945
80318W        W41981  36.007  20.624   0.443
80319W        W41982  22.575  18.709   1.287
80320W        W41983  35.059  21.034  13.521
80321W        W41984  17.791  23.048  14.823
80322W        W41985  31.604   2.931  13.345
80323W        W41986   2.724  38.367  12.340
80324W        W41987  29.981  21.602   4.664
80325W        W41988  33.591  24.643   0.863
80326W        W41989  44.878  23.660  13.824
80327W        W41990  22.682  23.024  13.826
80328W        W41991  18.661  30.598   1.398
80329W        W41992   4.402  27.114  12.358
80330W        W41993  41.367  36.951   2.183
80331W        W41994   5.714  14.197  14.334
80332W        W41995  44.468  14.667   1.355
80333W        W41996  18.642  44.438   3.810
80334W        W41997  39.471  11.747   0.770
80335W        W41998  29.964  11.272   3.169
80336W        W41999   2.437  34.522  11.609
80337W        W42000  42.281  28.471  12.445
80338W        W42001  33.931   8.893  10.414
80339W        W42002  14.742  35.006  12.953
80340W        W42003  40.338  29.556   3.350
80341W        W42004   2.759  41.495  10.511
80342W        W42005  41.886  22.149  11.576
80343W        W42006  12.256  31.039  13.437
80344W        W42007  22.603  37.012   0.886
80345W        W42008  14.606  42.803  11.025
80346W        W42009  32.019  41.959   0.331
80347W        W42010  30.039   4.932  12.341
80348W        W42011  15.273   3.795   0.277
80349W        W42012  26.476  24.225  10.490
80350W        W42013  39.341  18.712  10.957
80351W        W42014   7.173  22.021   3.340
80352W        W42015  17.200   0.380  13.818
80353W        W42016  32.027  18.626   1.394
80354W        W42017  20.708  36.371   3.700
80355W        W42018  20.540  24.228   2.774
80356W        W42019  30.466   3.785  14.985
80357W        W42020  44.861  33.384  13.030
80358W        W42021  44.891   0.895  11.121
80359W        W42022  20.556  29.972  10.597
80360W        W42023  39.980  16.146   3.317
80361W        W42024  41.956  14.305   0.435
80362W        W42025  10.657  41.035   1.237
80363W        W42026  25.087  24.553  12.071
80364W        W42027  11.667  34.067  13.930
80365W        W42028  17.679   1.833   3.217
80366W        W42029  37.026  44.479  13.998
80367W        W42030  36.068  41.011  12.970
80368W        W42031  16.619  18.282  13.919
80369W        W42032  17.067   9.696  14.886
80370W        W42033  12.159  18.066   1.297
80371W        W42034  39.926  21.562  14.893
80372W        W42035  40.842  32.914  11.090
80373W        W42036  16.078  42.950  14.882
80374W        W42037  13.605  35.985  11.107
80375W        W42038  18.621  13.247  10.020
80376W        W42039   1.951   4.380  14.357
80377W        W42040  41.933   1.434   2.727
80378W        W42041  42.390   2.779   0.812
80379W        W42042  14.784  44.761   3.316
80380W        W42043   4.312   0.808  11.612
80381W        W42044  19.567   9.363  14.323
80382W        W42045  11.140  35.036  10.424
80383W        W42046  31.127  13.344  12.912
80384W        W42047  24.070   7.396   4.746
80385W        W42048   5.360  37.544  11.494
80386W        W42049   2.266  11.700   4.168
80387W        W42050   3.296  19.253   2.730
80388W        W42051  14.689  40.967  11.439
80389W        W42052   4.741  15.646   0.837
80390W        W42053  41.427  40.932  11.982
80391W        W42054  33.506  36.925  13.361
80392W        W42055  13.798  29.655   3.715
80393W        W42056   9.311   7.397   4.825
80394W        W42057  19.720  43.349   3.796
80395W        W42058   5.389   0.793  13.464
80396W        W42059  13.345  39.880   1.845
80397W        W42060  26.622  44.360   4.610
80398W        W42061  22.523  14.219  11.931
80399W        W42062   5.932   1.758  12.063
80400W        W42063   8.297   8.224  12.369
80401W        W42064  10.241  27.084   3.319
80402W        W42065  30.944  39.467   3.704
80403W        W42066   7.389  24.134  12.960
80404W        W42067  12.137   5.387  14.929
80405W        W42068  11.649  23.042  10.982
80406W        W42069   0.456  33.905  10.639
80407W        W42070  41.472  40.891  14.781
80408W        W42071  13.248  20.649  11.448
80409W        W42072  41.971  27.132  14.416
80410W        W42073  19.108   5.422   0.734
80411W        W42074  40.475  18.596   1.867
80412W        W42075  34.959  25.003  12.418
80413W        W42076  31.027  28.542   0.837
80414W        W42077  12.350  17.557  11.539
80415W        W42078  40.903   9.350   3.805
80416W        W42079  10.229  44.438   4.143
80417W        W42080  42.526  30.485  14.877
80418W        W42081  10.755  17.562  14.023
80419W        W42082  39.482  33.595   0.916
80420W        W42083  33.541   0.909  11.116
80421W        W42084  17.758  24.591   4.204
80422W        W42085  40.456  26.126  12.091
80423W        W42086   7.779  13.608  14.962
80424W        W42087  11.268  22.607  14.367
80425W        W42088  11.261  31.556   1.760
80426W        W42089  43.808   4.826   4.279
80427W        W42090  15.137  32.483  11.386
80428W        W42091   2.284  10.769  12.563
80429W        W42092  10.331  10.838   3.257
80430W        W42093  23.685   5.823  14.449
80431W        W42094   8.731  15.700  12.894
80432W        W42095  42.847  27.681  14.873
80433W        W42096   0.920  15.733   5.246
80434W        W42097  26.679   8.806  14.979
80435W        W42098   1.285  10.784  11.416
80436W        W42099  36.525  36.974   4.609
80437W        W42100  24.702   8.696   1.912
80438W        W42101  29.618  17.585  13.538
80439W        W42102  36.376  16.272   0.276
80440W        W42103  28.180  33.085   5.212
80441W        W42104  31.077  15.745   3.668
80442W        W42105  24.057   1.894  11.467
80443W        W42106  31.078  39.906  12.434
80444W        W42107  41.328  11.321  14.364
80445W        W42108  11.775   1.436   4.598
80446W        W42109   2.365  42.866   3.368
80447W        W42110  43.949   8.237   3.689
80448W        W42111  22.158  39.529   0.759
80449W        W42112  26.006  38.892  12.442
80450W        W42113   8.690  39.413   2.843
80451W        W42114   4.883   7.824  14.030
80452W        W42115  18.092   1.475  13.920
80453W        W42116  35.466  30.500  11.994
80454W        W42117  33.558  35.398   0.244
80455W        W42118  24.557  28.444  11.036
80456W        W42119  24.997  32.107   2.308
80457W        W42120  31.416  24.991  11.479
80458W        W42121  15.265  25.981   1.278
80459W        W42122   6.758  34.932   4.203
80460W        W42123  15.166  44.811   1.867
80461W        W42124  37.422  35.066  11.600
80462W        W42125  23.618  21.250  12.848
80463W        W42126  41.924  28.032  14.366
80464W        W42127  24.137  31.549   4.134
80465W        W42128  32.402   2.261   1.734
80466W        W42129  14.275  14.171   2.806
80467W        W42130  42.420  35.880   0.921
80468W        W42131  28.162  17.767   1.241
80469W        W42132  19.085  20.694   1.233
80470W        W42133  14.160  43.921   1.785
80471W        W42134  23.637  37.417   2.788
80472W        W42135  13.170  18.558   1.236
80473W        W42136   5.882  24.122  11.087
80474W        W42137   6.352   4.777   1.895
80475W        W42138  15.709   3.295  13.492
80476W        W42139   7.764  34.468  12.000
80477W        W42140   4.364  11.729  14.781
80478W        W42141  19.103  13.268  12.021
80479W        W42142  27.574   4.782   0.432
80480W        W42143  36.891  12.244  12.515
80481W        W42144  15.301  34.887  14.389
80482W        W42145  32.025   2.930   1.294
80483W        W42146  37.926  30.128  11.027
80484W        W42147  29.007   7.838  14.309
80485W        W42148  21.096  20.628  11.893
80486W        W42149  30.093  28.523   1.306
80487W        W42150  25.140  33.950  13.901
80488W        W42151  23.657  11.205   1.361
80489W        W42152  10.382  33.067   1.366
80490W        W42153  16.272  43.411   0.743
80491W        W42154  33.431  30.045   4.663
80492W        W42155  10.735  14.246   0.878
80493W        W42156   1.293  43.425   4.252
80494W        W42157  42.501  17.745   1.790
80495W        W42158  25.984   5.385  13.994
80496W        W42159  26.200   7.822  11.110
80497W        W42160  33.932  41.867   1.754
80498W        W42161  43.283   9.658  11.894
80499W        W42162  17.175   7.184   2.903
80500W        W42163  34.397  18.124   3.810
80501W        W42164   5.404  36.881  12.502
80502W        W42165  11.299  22.620   0.270
80503W        W42166  36.904  33.478  12.410
80504W        W42167  17.718   3.956  10.510
80505W        W42168  19.225   4.705   3.291
80506W        W42169  30.032  27.510   3.225
80507W        W42170  18.135  27.089  10.890
80508W        W42171   8.298  30.562   1.799
80509W        W42172  41.846  17.565   2.712
80510W        W42173  22.208  44.470  14.393
80511W        W42174  26.100  27.065   1.395
80512W        W42175  29.069  29.668  11.462
80513W        W42176  23.015  35.604   2.869
80514W        W42177   3.255   2.391   2.822
80515W        W42178   4.365  29.508  13.053
80516W        W42179  28.081  41.511  14.783
80517W        W42180  30.027  34.026  14.300
80518W        W42181   1.410   7.233   1.761
80519W        W42182  16.638  17.142  13.366
80520W        W42183  19.678  35.523  13.547
80521W        W42184  44.272  33.124   3.821
80522W        W42185  40.894   2.242   4.216
80523W        W42186  15.779  32.048  10.115
80524W        W42187   3.294  19.624   4.281
80525W        W42188  13.650  13.830  10.412
80526W        W42189  17.108  35.099  12.985
80527W        W42190  15.283  38.911  11.419
80528W        W42191  28.439   1.326   4.165
80529W        W42192  15.731  28.120  14.457
80530W        W42193   9.305  14.768   4.314
80531W        W42194  22.599  24.039  14.889
80532W        W42195  24.110  24.572   3.154
80533W        W42196  26.143  17.118   2.294
80534W        W42197  26.562  42.443   1.219
80535W        W42198  34.411  37.379   1.868
80536W        W42199  25.096  39.529  12.055
80537W        W42200  15.620  10.265   3.162
80538W        W42201  34.571  24.134   0.900
80539W        W42202  32.541   5.232  12.034
80540W        W42203   2.380   6.219  14.452
80541W        W42204  17.637  20.545  13.848
80542W        W42205  20.686  39.867   0.328
80543W        W42206  17.306  39.390   3.653
80544W        W42207  11.795   1.887  13.908
80545W        W42208  37.021  31.571  12.510
80546W        W42209  10.340  29.102   0.286
80547W        W42210   7.230  18.160  11.054
80548W        W42211  23.110  23.612   4.614
80549W        W42212  18.602  14.626   2.298
80550W        W42213  43.998  13.640  12.938
80551W        W42214   6.373  14.241   1.832
80552W        W42215   4.265   7.223   0.272
80553W        W42216   8.730   0.931   1.915
80554W        W42217  17.221  13.661  14.345
80555W        W42218  24.502  12.134  11.019
80556W        W42219  17.644  31.950   0.835
80557W        W42220   5.811  35.048  13.922
80558W        W42221  34.430  30.433  12.980
80559W        W42222  41.831  41.990  11.999
80560W        W42223  28.107  13.294   3.312
80561W        W42224  18.075  35.497  13.051
80562W        W42225  37.426  18.696  10.520
80563W        W42226  30.982  32.936  11.089
80564W        W42227  35.945  33.980   0.323
80565W        W42228  20.616   0.933   1.373
80566W        W42229  19.551  10.693  10.473
80567W        W42230  41.867   9.234   5.147
80568W        W42231  30.481  28.110   3.290
80569W        W42232  17.578   3.331  14.428
80570W        W42233  17.220  35.048   4.146
80571W        W42234  18.777  23.506  10.406
80572W        W42235  37.506  34.043   2.865
80573W        W42236   2.229   0.489  11.564
80574W        W42237   9.187  35.856   0.469
80575W        W42238  27.572  30.628   1.811
80576W        W42239  38.931  36.469  13.395
80577W        W42240  24.168   7.215  11.443
80578W        W42241  42.799  33.967   4.123
80579W        W42242  30.430   1.822   2.734
80580W        W42243  38.529  42.021  11.093
80581W        W42244  30.030  31.105  13.412
80582W        W42245   3.392   5.861   4.174
80583W        W42246   3.298  37.945  11.931
80584W        W42247   4.912  22.672   4.805
80585W        W42248  23.695  14.776  14.504
80586W        W42249  27.486  27.975   3.343
80587W        W42250  27.078  21.583   3.636
80588W        W42251   6.326  42.414  14.317
80589W        W42252   1.953  22.545  13.500
80590W        W42253   7.237  28.936  12.403
80591W        W42254  19.150  10.781  10.617
80592W        W42255  11.780  29.657   1.409
80593W        W42256  24.480  27.034  12.351
80594W        W42257  41.512  17.223  13.396
80595W        W42258   8.837  16.119  11.941
80596W        W42259  24.643   6.817   2.867
80597W        W42260  20.168  40.038   0.938
80598W        W42261  22.737  40.919  10.440
80599W        W42262   2.868  34.065  11.544
80600W        W42263   4.214   9.216   2.767
80601W        W42264  26.054   0.363   0.372
80602W        W42265   7.847   1.301  11.928
80603W        W42266  22.540  16.787   4.227
80604W        W42267  38.883  10.357   4.628
80605W        W42268  35.909  19.102   2.293
80606W        W42269  38.377  34.375  10.557
80607W        W42270  29.662  33.595   3.246
80608W        W42271  41.948  26.066  10.611
80609W        W42272  15.652   4.406   3.168
80610W        W42273  15.789  40.051  12.089
80611W        W42274  12.254  23.613  11.048
80612W        W42275   8.230  29.456  11.003
80613W        W42276  24.066   6.261  11.983
80614W        W42277  23.064  32.427  13.886
80615W        W42278  10.856   5.771   5.311
80616W        W42279  37.834  35.580   3.282
80617W        W42280  17.147  34.417   3.779
80618W        W42281  28.930  32.959   2.846
80619W        W42282  43.435  35.090  13.803
80620W        W42283   5.737  23.030   3.758
80621W        W42284   1.393  39.000  13.813
80622W        W42285  25.055   5.891   4.277
80623W        W42286  27.644  26.093   2.704
80624W        W42287  44.383  11.295   2.774
80625W        W42288  25.170  32.555   4.673
80626W        W42289   8.282  14.705  11.555
80627W        W42290  10.169  22.145   3.285
80628W        W42291  25.140  20.162   1.893
80629W        W42292  42.412  26.511  13.311
80630W        W42293   2.380  23.067   4.639
80631W        W42294   5.362  25.500   0.379
80632W        W42295  27.543  19.164  12.562
80633W        W42296  19.540  18.695  11.972
80634W        W42297  15.131  27.570   0.419
80635W        W42298  38.957  10.764  13.873
80636W        W42299  16.744  44.431   2.696
80637W        W42300   2.457  39.343  10.915
80638W        W42301  39.035  21.090  11.976
80639W        W42302  11.781  43.815   4.266
80640W        W42303   9.325  27.605   2.821
80641W        W42304  16.264  19.626   4.702
80642W        W42305   4.882  10.700  10.631
80643W        W42306   8.205  25.674  13.835
80644W        W42307  12.303  21.237   4.694
80645W        W42308  17.702  31.535  10.453
80646W        W42309  38.046  43.856  12.996
80647W        W42310  16.128  27.004  12.997
80648W        W42311  25.106   1.258  11.938
80649W        W42312  11.211  13.806   1.268
80650W        W42313  36.437  36.585  11.962
80651W        W42314  25.664  19.237   1.239
80652W        W42315  19.108  14.703  13.540
80653W        W42316  23.494  41.470  13.929
80654W        W42317  41.874  25.481   4.619
80655W        W42318  30.964  30.457  14.779
80656W        W42319  12.716  28.942  13.013
80657W        W42320  23.005   4.436  13.949
80658W        W42321   8.293  27.625   4.158
80659W        W42322  36.504  39.350  12.357
80660W        W42323   9.195  24.067  13.516
80661W        W42324  17.667   4.890  14.760
80662W        W42325  26.982  21.593   4.169
80663W        W42326  12.724  19.278  13.836
80664W        W42327  34.369  32.956   3.682
80665W        W42328   6.319  40.415  13.060
80666W        W42329  27.120   3.886  12.855
80667W        W42330  27.590  32.999   4.207
80668W        W42331  12.307   2.864  13.014
80669W        W42332  21.533  27.093   1.701
80670W        W42333  42.818  29.466   2.261
80671W        W42334   5.325   9.708   2.731
80672W        W42335  25.062  33.128  13.966
80673W        W42336  12.706  29.451   3.150
80674W        W42337   9.747  33.990   2.297
80675W        W42338   9.342   4.874  10.523
80676W        W42339   0.373  36.076  10.997
80677W        W42340   0.333  23.553   0.406
80678W        W42341  16.688  31.081  11.600
80679W        W42342  37.459   7.389  10.636
80680W        W42343  39.459  20.171   2.788
80681W        W42344  13.147  34.881  12.944
80682W        W42345  28.666  41.992   4.137
80683W        W42346  42.454  10.754  10.581
80684W        W42347   6.812  21.058  10.628
80685W        W42348  39.453  42.309   2.333
80686W        W42349  22.526  17.625  14.916
80687W        W42350  36.931  39.065  11.994
80688W        W42351  40.481  41.323   1.712
80689W        W42352  20.115   2.410  14.280
80690W        W42353  30.473  38.461   3.674
80691W        W42354  26.700  30.919  12.932
80692W        W42355  32.611  19.604  14.886
80693W        W42356   0.364  12.283  10.507
80694W        W42357  36.500  25.196  11.479
80695W        W42358  17.761  14.654   2.378
80696W        W42359  19.271  30.496   0.415
80697W        W42360   0.874  38.848  12.941
80698W        W42361   4.932  35.940  10.149
80699W        W42362   0.912  40.321  14.763
80700W        W42363   3.303  17.714   3.697
80701W        W42364   2.862   1.885  13.935
80702W        W42365  16.115  30.645  14.799
80703W        W42366  22.646  37.416   1.716
80704W        W42367  23.210   7.787   3.794
80705W        W42368  33.001  25.115   2.877
80706W        W42369  13.801  19.049   2.719
80707W        W42370  16.720  23.094  14.895
80708W        W42371  42.362  39.436  14.335
80709W        W42372   3.950  20.642  13.921
80710W        W42373  18.753  42.493   0.356
80711W        W42374  27.953  38.550   2.899
80712W        W42375  28.571   1.774  12.467
80713W        W42376  13.294  25.679  11.944
80714W        W42377  37.897  10.804   0.921
80715W        W42378  16.773  35.900  12.904
80716W        W42379  19.059  40.517  12.504
80717W        W42380   9.738  10.684   0.452
80718W        W42381  14.785  16.210  11.388
80719W        W42382  10.819  19.221  14.964
80720W        W42383   7.263  35.104   3.268
80721W        W42384  39.932  41.797   4.336
80722W        W42385  44.991  20.556  10.501
80723W        W42386  34.082  33.071  10.606
80724W        W42387  32.473  32.637   1.226
80725W        W42388  29.017  26.516  12.531
80726W        W42389   4.757  26.050  13.836
80727W        W42390  23.660   1.367  14.780
80728W        W42391  36.441   0.283  10.985
80729W        W42392  14.289  33.077   1.898
80730W        W42393  11.254  26.040   4.293
80731W        W42394   6.410  38.452   0.448
80732W        W42395  38.425   7.252   2.297
80733W        W42396  40.351  33.534  12.089
80734W        W42397  31.502  15.596  13.839
80735W        W42398   8.746  34.429   1.720
80736W        W42399   4.217  33.556  10.611
80737W        W42400  21.099   4.755  10.409
80738W        W42401  20.606  22.207   1.327
80739W        W42402  13.305  43.004  13.513
80740W        W42403  38.951  36.062  11.113
80741W        W42404  42.298  30.609   0.860
80742W        W42405  19.060  34.400   1.320
80743W        W42406  33.874  28.173  12.474
80744W        W42407   6.818  35.951  13.033
80745W        W42408  26.626  19.576   3.380
80746W        W42409  27.056   7.831   4.835
80747W        W42410   4.907  16.311   2.666
80748W        W42411  21.076  43.816   3.236
80749W        W42412  35.406  29.162  11.996
80750W        W42413  11.700  33.548  14.886
80751W        W42414   4.770  10.350   0.303
80752W        W42415  18.703  35.492  12.088
80753W        W42416  16.214  28.023  12.382
80754W        W42417  22.592  41.370   4.780
80755W        W42418  34.514  33.462  12.969
80756W        W42419   3.261   1.911  13.364
80757W        W42420  42.941  21.546  11.433
80758W        W42421  21.540  14.191  11.028
80759W        W42422   8.275  31.572   1.748
80760W        W42423  11.268  38.987   2.395
80761W        W42424  32.980  15.600   4.287
80762W        W42425  18.190  19.551  13.395
80763W        W42426   0.817  20.741   1.711
80764W        W42427  10.770  26.573  12.090
80765W        W42428  27.010  32.606  11.981
80766W        W42429  19.753  11.816  10.411
80767W        W42430   7.196  16.099   0.845
80768W        W42431  37.974  35.929  10.490
80769W        W42432  20.527  38.363  10.942
80770W        W42433  20.641  15.745   5.791
80771W        W42434  23.084   2.847   2.874
80772W        W42435   9.235   0.818   1.373
80773W        W42436  19.166  10.840   4.282
80774W        W42437  27.956   3.421   2.258
80775W        W42438  39.939  23.521   4.787
80776W        W42439  34.399  22.673  11.016
80777W        W42440  33.532   8.850   3.362
80778W        W42441   7.910  18.281  14.926
80779W        W42442   7.771  11.174  12.432
80780W        W42443  12.765  17.160  13.929
80781W        W42444  16.148   4.750  14.882
80782W        W42445   3.862  31.612   1.229
80783W        W42446  19.546   7.360  12.073
80784W        W42447  25.162  17.278   0.291
80785W        W42448  14.748   9.677  11.504
80786W        W42449  30.633   4.930  14.323
80787W        W42450  21.732   3.291   2.272
80788W        W42451  18.176  39.934  12.030
80789W        W42452  36.452   4.341  14.023
80790W        W42453  15.313  18.784  10.460
80791W        W42454  21.740  20.551   2.865
80792W        W42455   7.808  40.983  13.023
80793W        W42456  43.471  16.717   1.878
80794W        W42457  40.853  20.102   4.812
80795W        W42458  33.035  41.810   1.323
80796W        W42459  36.000  33.892  12.388
80797W        W42460  30.160  15.240   0.417
80798W        W42461  29.470  40.993  14.411
80799W        W42462   7.799  15.261  10.576
80800W        W42463  43.873  13.680   3.809
80801W        W42464  35.006  17.800   1.817
80802W        W42465  34.999   0.784   0.928
80803W        W42466  34.446  38.335   0.263
80804W        W42467  27.630  26.161  14.766
80805W        W42468  20.147  15.718  14.823
80806W        W42469  25.092  10.785   4.838
80807W        W42470  22.212  41.985   4.740
80808W        W42471  42.522   5.796   1.442
80809W        W42472  31.413  31.106   2.674
80810W        W42473  17.202  25.669   4.657
80811W        W42474  33.034  36.070  14.859
80812W        W42475  34.031  34.380   3.682
80813W        W42476  12.795  13.309   0.398
80814W        W42477  39.415  42.443  10.525
80815W        W42478   9.218  28.008   3.784
80816W        W42479  17.668   5.887  10.436
80817W        W42480  40.824  30.041   1.425
80818W        W42481   6.239  30.916   3.322
80819W        W42482  21.665   7.297  14.488
80820W        W42483  31.446  18.586   4.650
80821W        W42484  12.613  14.138  13.329
80822W        W42485  42.799  27.115  14.988
80823W        W42486  13.707   7.793   0.912
80824W        W42487  38.984  24.977   0.288
80825W        W42488  34.044   6.856   2.898
80826W        W42489  22.203  19.650  14.914
80827W        W42490  23.011   4.769  10.045
80828W        W42491   2.227  44.867   0.473
80829W        W42492  33.921  19.185   1.714
80830W        W42493  40.948  24.538   4.289
80831W        W42494   9.821  36.384   4.673
80832W        W42495  29.625   9.371  13.928
80833W        W42496  39.444  27.993   3.357
80834W        W42497  21.047  26.602  12.037
80835W        W42498   8.278  24.207   4.768
80836W        W42499  24.140   9.703   2.319
80837W        W42500  42.000  27.992  13.322
80838W        W42501  26.069  36.014   1.422
80839W        W42502   1.744  31.474   3.200
80840W        W42503  44.965   6.726   1.283
80841W        W42504  30.431  30.493  11.955
80842W        W42505  32.055  26.136  13.872
80843W        W42506   5.921  13.714  11.503
80844W        W42507  35.501  15.590   2.295
80845W        W42508  16.725  39.997   2.219
80846W        W42509   8.244  24.685   1.765
80847W        W42510  11.296  42.963  10.956
80848W        W42511   9.371   0.888  11.066
80849W        W42512  34.374  13.258  14.779
80850W        W42513   1.442  39.516  13.397
80851W        W42514  22.125   3.829  10.081
80852W        W42515   4.816  13.609   0.749
80853W        W42516   5.756  24.518   3.663
80854W        W42517  18.662  24.161  11.530
80855W        W42518  19.654  35.392  11.479
80856W        W42519  29.963  25.159  12.476
80857W        W42520   6.854  38.844   0.424
80858W        W42521  20.542  35.575  12.834
80859W        W42522  13.330   3.786   4.228
80860W        W42523  35.930   7.686  11.869
80861W        W42524  23.000  17.290   1.384
80862W        W42525  39.494  16.729   3.261
80863W        W42526  44.978  26.104   2.209
80864W        W42527   6.203  34.869  12.384
80865W        W42528  14.180  43.902   2.729
80866W        W42529   8.201  29.175  10.975
80867W        W42530  10.146   5.408   3.285
80868W        W42531  36.441   8.841   3.644
80869W        W42532  38.360  15.241  10.479
80870W        W42533   2.361   1.944  13.987
80871W        W42534   4.838   6.681  14.797
80872W        W42535  44.808  28.140  11.039
80873W        W42536  44.272  13.773   3.741
80874W        W42537   2.747  24.599   3.739
80875W        W42538  34.585  19.641  10.590
80876W        W42539  33.987   4.323  12.830
80877W        W42540  30.567  27.173   3.770
80878W        W42541  43.773  10.793  10.422
80879W        W42542  18.160  25.963  10.631
80880W        W42543  29.610  38.346  13.407
80881W        W42544  16.789  11.219   4.183
80882W        W42545   4.336  36.569  12.558
80883W        W42546  26.529   3.342  14.422
80884W        W42547  29.568  27.534   2.707
80885W        W42548  42.512   8.258  12.351
80886W        W42549  42.315  42.886   9.973
80887W        W42550  19.207  16.779  12.003
80888W        W42551   9.673   4.271  11.055
80889W        W42552  23.530  20.168  12.896
80890W        W42553  18.588   9.801  13.980
80891W        W42554   6.254  34.575   1.932
80892W        W42555  28.955  14.174  14.853
80893W        W42556  31.461  39.550  12.989
80894W        W42557  34.377  28.048  12.090
80895W        W42558  24.161  18.153  10.642
80896W        W42559  38.389   8.315  10.489
80897W        W42560   3.278  37.084  13.447
80898W        W42561  40.511  26.534   4.140
80899W        W42562  34.866   3.946   0.303
80900W        W42563  29.465   4.788  11.488
80901W        W42564  31.119   4.943   2.407
80902W        W42565   0.415  20.249   4.354
80903W        W42566  42.824  22.616  12.958
80904W        W42567  24.191  17.623  11.412
80905W        W42568   5.348  11.841  10.946
80906W        W42569  17.780  28.044   1.856
80907W        W42570  23.596   5.269   1.259
80908W        W42571  26.105   6.343   0.905
80909W        W42572  25.991   2.255   4.692
80910W        W42573  44.357  18.260  13.487
80911W        W42574  11.854  28.451   4.825
80912W        W42575  21.106  15.698  12.975
80913W        W42576  37.868  23.222   1.786
80914W        W42577  17.655  16.794   4.622
80915W        W42578   4.809  24.705   1.800
80916W        W42579  12.272  14.263  11.021
80917W        W42580  16.174  35.013  12.998
80918W        W42581  13.313  37.417  14.400
80919W        W42582  34.970  33.458   3.319
80920W        W42583   3.829  33.435   1.317
80921W        W42584  38.503  33.052  12.953
80922W        W42585  35.922   0.935  13.820
80923W        W42586   5.210  21.084   2.832
80924W        W42587  44.844  24.530   4.151
80925W        W42588  21.691  44.884   2.243
80926W        W42589  30.648  25.571  12.010
80927W        W42590   2.334   5.824  12.866
80928W        W42591   2.430  28.992  12.085
80929W        W42592  17.072  21.143   3.166
80930W        W42593  29.579  44.465  10.952
80931W        W42594  28.171  13.628  11.381
80932W        W42595  16.145  24.990  12.369
80933W        W42596  44.400  28.672   0.412
80934W        W42597   1.815   9.658  10.988
80935W        W42598   0.897  33.518  13.414
80936W        W42599  27.516  29.074  11.940
80937W        W42600   7.271   0.362   4.276
80938W        W42601  11.716  39.985   2.708
80939W        W42602  38.889   1.299  12.893
80940W        W42603  32.511  21.231   2.674
80941W        W42604  23.730  14.712  13.893
80942W        W42605   1.747   0.743  12.942
80943W        W42606  12.749   7.349  12.567
80944W        W42607  31.072   6.199  11.592
80945W        W42608  21.703   6.211   2.890
80946W        W42609  42.410  16.796  10.609
80947W        W42610  11.749  16.256   3.867
80948W        W42611  38.418  11.251  13.975
80949W        W42612   8.655  32.401  10.487
80950W        W42613  30.062   0.424   2.669
80951W        W42614  10.234  31.983  14.016
80952W        W42615  29.989  30.573   1.723
80953W        W42616  19.721   9.838  13.529
80954W        W42617  39.006   1.824   3.309
80955W        W42618  33.951  36.860  14.407
80956W        W42619  39.853  44.809   1.340
80957W        W42620  13.636   1.352  11.972
80958W        W42621   0.371   6.687  13.951
80959W        W42622  13.183  19.235   3.269
80960W        W42623  40.974   5.862   9.614
80961W        W42624  11.246   8.336   1.929
80962W        W42625  19.646  26.530  13.359
80963W        W42626  26.670   1.297   4.328
80964W        W42627  30.152  11.340  13.932
80965W        W42628  42.818  11.323   0.458
80966W        W42629  25.151  43.945  10.019
80967W        W42630  13.624  35.997   9.461
80968W        W42631  26.063  40.457  12.520
80969W        W42632  40.376  28.466   0.396
80970W        W42633   2.370  29.586  14.393
80971W        W42634   5.248  39.038  13.418
80972W        W42635  27.594  11.212  13.538
80973W        W42636  10.733  27.021  10.905
80974W        W42637  22.015   9.681   4.168
80975W        W42638  11.182   3.316   2.901
80976W        W42639  26.688  43.372   1.873
80977W        W42640  32.582  24.121   0.253
80978W        W42641  11.154  24.022  12.485
80979W        W42642   4.377  20.585   3.697
80980W        W42643  17.614  25.130   1.890
80981W        W42644  15.765  15.608   1.737
80982W        W42645  20.061   2.411   0.483
80983W        W42646  19.636  39.870   3.303
80984W        W42647  24.481   8.241  10.497
80985W        W42648   3.429  21.588  10.466
80986W        W42649  28.133  10.815   3.742
80987W        W42650  14.248   1.350  11.017
80988W        W42651  21.745  13.693   2.829
80989W        W42652  19.121  35.403   1.228
80990W        W42653  22.598  21.225   0.268
80991W        W42654  11.772  13.191  14.903
80992W        W42655  21.124  42.867   2.357
80993W        W42656  31.129  39.010  14.888
80994W        W42657  10.731  12.121  14.475
80995W        W42658  13.601  33.882   1.445
80996W        W42659   2.458  27.081   3.764
80997W        W42660  42.931  16.793  12.914
80998W        W42661   1.772  37.067   3.638
80999W        W42662  25.596  14.242  13.411
81000W        W42663   7.310  38.376  14.499
81001W        W42664  28.464   2.262  10.608
81002W        W42665  11.651  12.163  14.884
81003W        W42666  19.669  16.793   2.345
81004W        W42667   4.793  34.379   5.155
81005W        W42668  33.561  22.224  13.512
81006W        W42669  39.485   5.698   2.696
81007W        W42670  13.632   2.291  12.860
81008W        W42671  17.115   9.192   4.691
81009W        W42672  24.045  21.065  14.918
81010W        W42673  31.902  16.776  11.887
81011W        W42674  42.318  29.079   4.344
81012W        W42675  22.008   1.368  11.116
81013W        W42676   0.329  13.202   2.707
81014W        W42677  13.691  32.005   4.320
81015W        W42678  14.198  31.062   4.260
81016W        W42679   8.190  27.054   2.313
81017W        W42680  18.272  23.686   1.929
81018W        W42681  40.549   9.298  10.628
81019W        W42682  22.513  36.347  14.986
81020W        W42683  37.389  37.467  14.794
81021W        W42684  43.961   6.727   4.241
81022W        W42685  32.970  25.479   4.230
81023W        W42686  11.373  41.389   2.690
81024W        W42687  23.713  34.979   0.938
81025W        W42688  39.013   5.432  12.890
81026W        W42689  21.075  43.013  14.398
81027W        W42690   4.359  27.451   4.126
81028W        W42691  34.510  17.231  10.497
81029W        W42692  34.471  27.625  12.080
81030W        W42693  43.996  26.571  13.520
81031W        W42694  36.396  25.510  14.810
81032W        W42695  32.625  31.469   3.255
81033W        W42696  19.112   9.184   4.781
81034W        W42697  19.700  12.728  12.495
81035W        W42698   8.393  26.014  14.282
81036W        W42699  33.584   9.837   3.212
81037W        W42700  14.612  15.175   1.719
81038W        W42701  29.945  44.281   3.707
81039W        W42702  38.823  14.792  13.366
81040W        W42703  24.583  32.602   3.299
81041W        W42704  13.207  33.423   4.297
81042W        W42705  32.631   4.944  14.015
81043W        W42706  27.497  30.131   1.803
81044W        W42707  34.116   9.180  14.346
81045W        W42708  11.759  41.526   9.941
81046W        W42709  40.359  19.057  12.861
81047W        W42710   4.364  25.591  13.807
81048W        W42711  18.102  39.952  11.408
81049W        W42712  16.076  42.027  11.420
81050W        W42713   7.362   5.738  10.451
81051W        W42714  10.309  10.847   0.336
81052W        W42715  27.513  24.548   5.290
81053W        W42716   4.888   0.789  10.613
81054W        W42717   1.361  16.146   3.150
81055W        W42718  37.894  42.371   0.250
81056W        W42719  40.823  18.245   2.197
81057W        W42720   2.401  10.338  14.385
81058W        W42721  23.019  23.182  13.951
81059W        W42722  37.884   0.287   4.323
81060W        W42723   6.323   3.437  12.514
81061W        W42724  41.830   2.419  14.351
81062W        W42725  16.267  14.810  13.868
81063W        W42726  24.089  25.051  14.314
81064W        W42727  33.450  39.855  13.312
81065W        W42728  35.495   2.936   4.646
81066W        W42729  21.564  27.975   0.884
81067W        W42730  14.736  36.549  10.985
81068W        W42731  24.181   8.758   2.198
81069W        W42732  43.895  24.094   2.804
81070W        W42733  36.048   0.837  14.793
81071W        W42734   0.393  21.548  14.761
81072W        W42735  18.727  18.642  10.977
81073W        W42736  27.097  38.473   1.296
81074W        W42737   0.332  23.548   1.370
81075W        W42738  41.388  42.836  14.018
81076W        W42739   3.284   8.263   0.449
81077W        W42740   0.374  24.622  14.977
81078W        W42741  41.334  13.702  14.865
81079W        W42742  42.986   0.387  10.625
81080W        W42743  27.585   9.714  13.544
81081W        W42744  43.840  28.182   3.710
81082W        W42745  39.872  17.134   1.789
81083W        W42746  43.931   3.266  13.974
81084W        W42747  32.629   1.812  13.330
81085W        W42748  37.935  15.698  11.884
81086W        W42749  32.436  14.734   0.828
81087W        W42750   3.249  24.070  11.444
81088W        W42751  34.490  37.444  14.014
81089W        W42752  27.487  29.974  10.492
81090W        W42753   0.833   6.243   1.303
81091W        W42754   8.767   6.381  11.606
81092W        W42755   2.399  27.179   2.768
81093W        W42756  20.701  39.912  10.960
81094W        W42757  21.258  14.626   4.149
81095W        W42758  36.438   9.822   1.379
81096W        W42759   2.745  22.139   2.383
81097W        W42760  11.653  38.445   3.372
81098W        W42761  44.794  29.117  11.414
81099W        W42762  23.208   7.823  12.846
81100W        W42763  16.077  42.930  13.855
81101W        W42764  42.986  26.081  12.054
81102W        W42765   9.333  35.902  10.463
81103W        W42766  13.720  31.022   3.234
81104W        W42767  25.095   8.387   1.366
81105W        W42768  16.175   0.414   2.734
81106W        W42769  19.135  36.081   3.867
81107W        W42770  26.097  30.923  14.831
81108W        W42771  19.666   4.846  13.033
81109W        W42772   7.908  17.219  13.877
81110W        W42773  17.624  30.959  14.928
81111W        W42774  16.736  21.159   1.444
81112W        W42775  12.259  37.070  14.878
81113W        W42776  17.585   7.254   0.325
81114W        W42777   4.758  23.727  14.030
81115W        W42778  34.887  39.994   0.862
81116W        W42779  20.113   7.412  14.430
81117W        W42780  22.731  41.438  11.473
81118W        W42781  18.277  13.281   3.197
81119W        W42782  30.160  42.840   0.744
81120W        W42783  18.153  32.942  12.004
81121W        W42784  22.721  10.677   1.853
81122W        W42785  16.150   6.239   3.168
81123W        W42786  27.448   6.702   0.841
81124W        W42787  40.494  12.214   0.947
81125W        W42788  40.485  14.740  12.841
81126W        W42789  25.078  31.989   0.812
81127W        W42790  14.680  22.555  14.371
81128W        W42791  17.236  26.140  11.092
81129W        W42792   9.262  21.084   2.331
81130W        W42793   1.243   0.271  12.382
81131W        W42794  25.657  43.950  10.588
81132W        W42795  18.251  10.320   2.201
81133W        W42796  11.332   1.906  13.504
81134W        W42797  15.136  11.309  10.585
81135W        W42798  20.636  27.459   2.275
81136W        W42799  29.029  15.327   1.879
81137W        W42800   3.317  12.212  14.985
81138W        W42801  14.639   6.764  14.363
81139W        W42802  11.648   7.680  13.464
81140W        W42803  43.310  39.420  11.048
81141W        W42804  33.488  21.200  13.960
81142W        W42805  15.284  24.118   3.347
81143W        W42806  35.025  16.695  12.048
81144W        W42807  43.004  27.147   3.684
81145W        W42808  12.361   6.292  11.582
81146W        W42809   7.892   1.238  10.510
81147W        W42810  37.504  22.614  10.420
81148W        W42811  39.879  33.482   1.229
81149W        W42812  43.774  40.051  11.920
81150W        W42813  21.569  29.463  12.973
81151W        W42814  30.504   1.912  13.475
81152W        W42815  26.975  39.556   0.940
81153W        W42816  19.189  32.393   3.331
81154W        W42817  21.680  18.132  14.470
81155W        W42818  19.209  35.002  14.826
81156W        W42819   5.872  28.107   1.303
81157W        W42820   3.933  32.493   1.781
81158W        W42821  13.638   8.880   1.745
81159W        W42822  10.382   0.332   4.325
81160W        W42823  32.637  10.846  12.430
81161W        W42824  34.409  29.511  11.437
81162W        W42825   9.837  22.248  13.839
81163W        W42826  15.308  24.210  11.499
81164W        W42827  35.051  17.260   3.361
81165W        W42828  17.629  44.928  11.002
81166W        W42829   6.257  39.980   2.252
81167W        W42830   3.914  31.040   0.935
81168W        W42831  11.785  43.344   2.722
81169W        W42832  18.260   9.864   3.181
81170W        W42833  29.628  40.908  12.015
81171W        W42834  17.761  40.049  14.497
81172W        W42835   2.909  26.118   3.733
81173W        W42836  35.031  22.606  14.492
81174W        W42837  30.552   2.289  13.005
81175W        W42838  22.675  27.655   2.395
81176W        W42839  42.290   5.376  11.530
81177W        W42840  12.829   1.336  14.970
81178W        W42841  36.451   0.826  10.158
81179W        W42842  34.422   9.283  13.490
81180W        W42843  33.621  14.708   0.752
81181W        W42844  18.113  38.005   4.783
81182W        W42845  44.948  40.910   4.142
81183W        W42846   7.826   0.445   3.219
81184W        W42847  11.355  38.397   9.651
81185W        W42848  44.849  11.678   9.962
81186W        W42849  10.679   4.289   2.847
81187W        W42850  21.635  28.933  10.609
81188W        W42851   1.749   3.217   5.219
81189W        W42852   1.942   9.779   2.838
81190W        W42853  30.468  35.502   0.351
81191W        W42854   3.389  44.414   0.861
81192W        W42855  37.936  43.410  13.480
81193W        W42856  29.640  32.534  12.033
81194W        W42857  23.579   4.929   5.186
81195W        W42858  33.011  24.106  14.801
81196W        W42859  42.486  40.996   1.924
81197W        W42860  28.448  18.063  12.529
81198W        W42861  31.961  18.131   4.298
81199W        W42862  14.780  16.774  10.519
81200W        W42863  39.928  27.564   1.835
81201W        W42864  34.391  20.757  12.468
81202W        W42865  23.501   1.338   1.911
81203W        W42866  17.687  11.722   4.675
81204W        W42867  16.146  39.013  13.836
81205W        W42868  24.644  36.457   3.685
81206W        W42869  27.189  21.655  12.888
81207W        W42870  29.634  19.043   0.801
81208W        W42871   1.776  18.247   1.821
81209W        W42872  20.159  21.720   2.330
81210W        W42873  23.729  37.922  11.404
81211W        W42874  19.215  28.126  13.847
81212W        W42875  18.218  27.586   4.818
81213W        W42876   1.302   1.310  10.470
81214W        W42877  27.570  18.597  11.972
81215W        W42878  19.631  15.805  10.645
81216W        W42879  33.453  17.065  10.593
81217W        W42880  26.082  22.043  11.053
81218W        W42881  20.694  10.375  13.479
81219W        W42882  38.878  14.121  11.373
81220W        W42883  24.555  43.413  13.960
81221W        W42884  21.633  18.710  10.135
81222W        W42885  17.721  32.934   3.827
81223W        W42886  32.617  22.100   1.814
81224W        W42887  24.701   0.433   5.587
81225W        W42888  12.843  44.447  10.503
81226W        W42889   6.355   9.263   2.793
81227W        W42890  32.982  20.668  14.762
81228W        W42891   5.763  17.731  11.122
81229W        W42892   7.302  10.322   2.419
81230W        W42893  38.403  39.467  14.290
81231W        W42894   0.379   0.910  13.487
81232W        W42895   4.923  20.555   2.231
81233W        W42896  36.898   2.444  14.297
81234W        W42897  36.062  14.646  13.332
81235W        W42898   1.367  37.397  14.420
81236W        W42899  15.581  14.181   4.208
81237W        W42900   6.868  19.573   0.785
81238W        W42901  13.777  44.789   1.747
81239W        W42902  19.234  36.504  12.388
81240W        W42903  43.985  30.112   1.835
81241W        W42904  41.025  39.025  12.430
81242W        W42905   9.808  35.442  12.496
81243W        W42906  10.726  19.240  14.350
81244W        W42907   8.887  36.936   0.390
81245W        W42908  41.984   6.278   1.856
81246W        W42909  38.532  39.976  11.608
81247W        W42910   0.462  18.182   3.648
81248W        W42911  41.878   5.408  14.992
81249W        W42912  15.783  35.497  12.010
81250W        W42913  10.790  16.794  13.393
81251W        W42914  39.456   4.879  12.433
81252W        W42915  12.300  16.088   4.226
81253W        W42916  30.447  28.520   1.292
81254W        W42917  27.634   3.459   4.827
81255W        W42918  29.648  39.945   1.785
81256W        W42919  25.040   7.285   0.903
81257W        W42920  39.359   6.237  11.512
81258W        W42921  33.401  10.861  13.394
81259W        W42922  40.816  41.984  11.384
81260W        W42923   7.733  33.621   9.968
81261W        W42924  18.619  32.124  14.802
81262W        W42925   7.783  44.877   0.325
81263W        W42926   3.247  24.019  14.015
81264W        W42927  26.071  35.432  14.470
81265W        W42928   3.832  30.446  14.976
81266W        W42929  30.477  25.468   4.770
81267W        W42930  22.712  37.539  12.006
81268W        W42931  31.543  24.604   3.335
81269W        W42932  12.177  38.011   2.297
81270W        W42933  44.456   0.776  13.933
81271W        W42934  33.090  23.714  12.487
81272W        W42935  32.428   1.310   2.693
81273W        W42936  15.754  39.459   2.287
81274W        W42937  25.693  42.965   3.329
81275W        W42938  33.030  42.916  14.971
81276W        W42939  26.463   7.229  14.321
81277W        W42940   9.310  27.179   1.337
81278W        W42941   3.314  29.132  13.479
81279W        W42942  33.479  38.819  14.809
81280W        W42943  10.661  28.109  11.591
81281W        W42944   6.732   2.354  11.891
81282W        W42945  20.692  14.684  12.481
81283W        W42946  12.192  33.036  14.439
81284W        W42947   2.419   4.315  12.543
81285W        W42948  33.106   3.887   1.728
81286W        W42949  16.145  39.892   4.774
81287W        W42950  27.450  10.361  13.417
81288W        W42951  14.182  22.535   0.784
81289W        W42952  16.302  33.497  13.804
81290W        W42953  33.454  11.319  11.126
81291W        W42954  12.198  10.347   1.274
81292W        W42955  14.594  19.715  13.822
81293W        W42956  13.223  12.755   0.429
81294W        W42957  38.849  24.984   3.638
81295W        W42958  24.561   3.880  12.944
81296W        W42959   0.457  41.441   1.805
81297W        W42960  10.200  34.908   0.446
81298W        W42961   0.464  28.121  10.469
81299W        W42962  17.613  13.786  11.856
81300W        W42963  43.904  25.708  14.431
81301W        W42964  13.224   5.417   1.861
81302W        W42965  36.045  17.167   3.236
81303W        W42966  36.359   8.322  10.604
81304W        W42967  37.574  10.840  12.027
81305W        W42968   8.757  12.680  13.397
81306W        W42969  15.810  10.233  14.988
81307W        W42970   4.305   0.350  10.621
81308W        W42971  17.210  43.288   1.234
81309W        W42972  18.637  16.077  13.042
81310W        W42973   5.269  39.823  12.576
81311W        W42974  34.612  12.749   4.668
81312W        W42975  41.847  14.766  14.873
81313W        W42976  28.460   6.884  10.562
81314W        W42977  37.946   9.711  10.461
81315W        W42978  12.131  14.121  11.978
81316W        W42979  29.509  26.523  11.949
81317W        W42980  11.744  26.067  13.433
81318W        W42981   2.775  43.799  13.804
81319W        W42982  36.478  36.883   2.764
81320W        W42983  10.333  20.240  12.409
81321W        W42984  39.932  18.547  13.505
81322W        W42985  23.006   9.878  14.372
81323W        W42986  36.875  27.020   1.895
81324W        W42987  39.511  23.548   2.253
81325W        W42988  30.576  10.654  13.506
81326W        W42989   1.394  22.678  11.030
81327W        W42990   0.920  13.338   1.414
81328W        W42991   1.321  43.296  10.468
81329W        W42992  13.773  39.336  12.011
81330W        W42993  28.955   5.262   1.889
81331W        W42994  11.170  25.156   2.902
81332W        W42995  17.558  16.662  14.335
81333W        W42996  34.445  17.770  11.924
81334W        W42997   6.869   9.244  11.557
81335W        W42998   4.920  16.658   0.463
81336W        W42999  30.947   6.300   0.875
81337W        W43000  34.499  25.636   0.448
81338W        W43001  25.516  35.036   5.239
81339W        W43002  19.542  28.564   0.439
81340W        W43003  11.703  33.587   2.380
81341W        W43004   5.856  30.441  11.957
81342W        W43005  17.730  23.694  13.456
81343W        W43006  21.207  32.092  11.572
81344W        W43007  24.612  28.611   1.831
81345W        W43008  14.749  31.596   3.736
81346W        W43009  20.637  14.678   9.973
81347W        W43010  13.248  20.267   4.631
81348W        W43011  22.070  44.272  12.408
81349W        W43012  32.887  16.715   0.869
81350W        W43013  32.607  18.685   3.286
81351W        W43014  33.881  43.479   1.332
81352W        W43015  32.993  39.993   0.387
81353W        W43016   1.237   7.672   2.788
81354W        W43017  12.634  23.537  11.452
81355W        W43018  18.614  23.719   4.785
81356W        W43019  37.945  30.626   3.237
81357W        W43020   2.826   7.180   3.870
81358W        W43021  17.716  31.904   1.835
81359W        W43022  23.182  18.749   1.253
81360W        W43023   3.390  16.116   0.284
81361W        W43024  14.754  42.991  14.469
81362W        W43025  40.975  10.769  10.063
81363W        W43026  40.393  44.448   5.120
81364W        W43027  22.718   5.803  12.415
81365W        W43028  11.331  19.130   4.222
81366W        W43029   0.402  16.750  11.431
81367W        W43030   7.350  15.722   4.833
81368W        W43031  17.085  23.998  11.500
81369W        W43032   9.690   6.689   1.783
81370W        W43033  40.493  14.765   4.671
81371W        W43034  13.184  14.781  14.275
81372W        W43035  35.876  37.897  13.376
81373W        W43036  38.363  24.718   1.722
81374W        W43037  14.669  34.916   5.149
81375W        W43038   4.204  10.309  10.893
81376W        W43039  40.904   3.759  14.789
81377W        W43040  10.167  33.422  13.380
81378W        W43041  44.990  25.966  12.908
81379W        W43042  34.867   4.902   0.843
81380W        W43043  37.506   0.828   2.401
81381W        W43044  14.646  24.684   0.404
81382W        W43045  27.504   1.738   2.703
81383W        W43046  39.937  37.368  13.531
81384W        W43047  41.795   6.899   0.483
81385W        W43048   0.867  23.210   3.297
81386W        W43049  17.272  19.620  13.497
81387W        W43050  11.287  11.137   2.773
81388W        W43051  22.233  25.120  14.311
81389W        W43052  26.047  30.064   4.663
81390W        W43053  14.317   6.801  14.020
81391W        W43054  15.200  16.212  14.002
81392W        W43055  16.303  20.033   4.751
81393W        W43056  35.456  23.122   2.699
81394W        W43057  29.947   4.934   3.261
81395W        W43058  42.865   2.871  12.018
81396W        W43059   8.306  17.649   1.429
81397W        W43060  37.376  44.803   0.254
81398W        W43061  14.250  16.300  12.868
81399W        W43062  14.800  29.081  12.010
81400W        W43063   0.780  33.551  14.370
81401W        W43064  14.335   4.355  13.412
81402W        W43065  27.560  26.694  11.544
81403W        W43066  41.896  24.013   2.389
81404W        W43067  12.642  13.242  13.941
81405W        W43068  33.383  29.430  10.477
81406W        W43069  22.576  34.997   4.283
81407W        W43070   0.820  42.872   0.791
81408W        W43071  30.614  21.559  11.470
81409W        W43072   0.910  21.724  10.502
81410W        W43073  13.796   5.932   4.212
81411W        W43074  22.145  28.998   4.668
81412W        W43075   3.925   3.816   4.272
81413W        W43076   7.841  15.147  13.448
81414W        W43077  22.029  30.913  12.992
81415W        W43078  23.617  27.623   4.132
81416W        W43079   5.274  36.586  12.493
81417W        W43080  18.569  43.386  10.547
81418W        W43081   5.842   9.702  14.941
81419W        W43082  36.500  30.005  10.964
81420W        W43083  40.526  29.152   0.363
81421W        W43084  44.995  36.454  12.425
81422W        W43085  12.335  29.920   3.301
81423W        W43086  33.053   5.893   0.338
81424W        W43087  12.315  16.765   1.442
81425W        W43088  15.782   1.799   4.629
81426W        W43089   1.323  31.411  11.900
81427W        W43090  21.734  12.214  11.985
81428W        W43091  20.088  34.609   3.302
81429W        W43092   8.334   6.345  11.404
81430W        W43093  23.064  39.850   3.746
81431W        W43094  27.061  32.529   2.346
81432W        W43095   2.326   6.729  12.827
81433W        W43096  42.342   6.906  14.870
81434W        W43097   6.680  31.609   0.453
81435W        W43098  29.510  20.719   2.664
81436W        W43099  20.243  16.227  10.015
81437W        W43100   4.278  25.471  14.778
81438W        W43101  10.762  10.275  14.306
81439W        W43102  14.811  22.122  11.977
81440W        W43103   8.745  37.997   3.808
81441W        W43104  32.006   1.263  11.013
81442W        W43105  43.785  22.624  11.095
81443W        W43106   3.783  30.923  10.571
81444W        W43107  29.465  35.010   2.178
81445W        W43108   5.283   7.909   2.353
81446W        W43109  26.627  29.142  12.417
81447W        W43110  19.765   3.804   4.801
81448W        W43111  39.932  36.986  13.441
81449W        W43112  43.385   1.385   3.376
81450W        W43113   4.909  33.892   0.287
81451W        W43114  15.759  22.572   2.698
81452W        W43115  19.707  34.989  11.475
81453W        W43116   2.931  43.491  13.956
81454W        W43117  39.386  37.575   3.204
81455W        W43118   4.236  10.652   4.247
81456W        W43119   8.867   1.926  14.510
81457W        W43120  31.574  25.064   3.643
81458W        W43121  40.042  23.116  10.986
81459W        W43122  19.047   7.291  10.509
81460W        W43123  36.879   8.780   0.872
81461W        W43124  14.185  41.376   0.804
81462W        W43125  17.676  41.318  14.904
81463W        W43126  11.323  27.565  11.601
81464W        W43127  16.673  28.132  12.063
81465W        W43128  16.307  44.954  14.014
81466W        W43129   2.790  22.041  12.868
81467W        W43130  14.672   0.316   1.763
81468W        W43131   0.332  16.081   2.735
81469W        W43132   8.870  20.615   0.396
81470W        W43133   0.287   7.332  14.769
81471W        W43134   0.919  30.967  14.998
81472W        W43135  36.877  29.442  10.460
81473W        W43136  32.965  25.108  10.505
81474W        W43137  21.713   8.690   1.379
81475W        W43138  16.636  41.817   3.217
81476W        W43139   2.385  17.589   2.246
81477W        W43140  26.571   0.284  13.314
81478W        W43141  32.963  23.230   4.651
81479W        W43142  23.037   8.836  11.090
81480W        W43143  33.947  20.036  13.393
81481W        W43144  22.631   9.887  10.433
81482W        W43145  23.517  27.955   0.915
81483W        W43146  12.323  35.556  11.883
81484W        W43147   6.875  36.453  12.998
81485W        W43148   1.952  38.020  13.347
81486W        W43149  39.920   6.836   9.455
81487W        W43150  40.899  42.959   3.711
81488W        W43151  35.496  41.865   3.359
81489W        W43152  17.162   6.682  11.106
81490W        W43153  15.666  12.707   0.413
81491W        W43154   1.878   4.815   0.403
81492W        W43155  12.279  40.398   3.382
81493W        W43156  36.401  19.607   5.300
81494W        W43157  13.661  42.782   2.392
81495W        W43158   5.873  26.011  14.307
81496W        W43159  26.695   2.233   1.885
81497W        W43160  12.849  23.233  14.296
81498W        W43161  18.600  37.537   4.728
81499W        W43162  37.953  22.655   3.287
81500W        W43163  17.770  12.126  13.016
81501W        W43164  37.857  12.334   3.357
81502W        W43165  39.930  23.573   4.194
81503W        W43166   8.314  19.188   1.434
81504W        W43167  21.226  22.181   9.978
81505W        W43168   8.700  42.440   0.895
81506W        W43169   4.819  38.509   1.278
81507W        W43170  22.194  20.198  13.992
81508W        W43171   4.403   8.306  14.814
81509W        W43172  15.255  13.755  14.331
81510W        W43173  22.737  42.497  13.825
81511W        W43174  20.132   9.644  14.417
81512W        W43175  33.009  26.055  12.375
81513W        W43176  27.649   1.950  11.010
81514W        W43177   1.394  19.724   1.367
81515W        W43178  10.196   0.889  10.601
81516W        W43179  43.828  36.488   1.246
81517W        W43180  36.368   7.839  13.882
81518W        W43181  13.759   0.341   1.711
81519W        W43182  12.689  24.567  12.993
81520W        W43183   5.818   2.949   4.252
81521W        W43184  31.929   5.763   4.348
81522W        W43185  31.116  14.611  13.951
81523W        W43186  17.160  33.042  11.866
81524W        W43187  39.369  32.524   1.773
81525W        W43188  33.624  16.157  13.058
81526W        W43189  22.501  31.934  11.989
81527W        W43190  44.299   3.845  11.423
81528W        W43191  18.119   7.255   2.217
81529W        W43192   3.421  25.579   2.235
81530W        W43193  44.465  44.326  12.403
81531W        W43194  18.580   7.258   1.387
81532W        W43195  11.642   6.261   0.921
81533W        W43196   1.898  42.398   4.240
81534W        W43197  27.965  28.520   3.242
81535W        W43198  44.490  14.720  12.406
81536W        W43199  20.691   4.795   4.292
81537W        W43200  13.629   1.363  12.420
81538W        W43201  24.056  35.909   0.421
81539W        W43202  18.065   6.792   0.446
81540W        W43203  24.545   4.898  14.370
81541W        W43204  26.602  25.536  12.404
81542W        W43205  33.006  13.183  13.910
81543W        W43206  21.220   7.215  11.500
81544W        W43207  32.563  18.592   9.574
81545W        W43208  11.235  16.581   4.610
81546W        W43209  35.000   7.807   3.278
81547W        W43210  20.560   7.701  12.936
81548W        W43211  16.739   4.936   3.674
81549W        W43212   6.360  10.330  12.019
81550W        W43213  35.085  13.266  11.100
81551W        W43214  25.066  17.091   2.808
81552W        W43215  38.424   0.899  13.989
81553W        W43216  34.121  36.370  11.937
81554W        W43217   6.301  19.223  14.443
81555W        W43218   1.415  30.025  13.868
81556W        W43219  17.661  10.361   2.405
81557W        W43220   5.301  34.035  14.515
81558W        W43221  36.354  33.450  10.125
81559W        W43222  19.169  30.508  12.871
81560W        W43223  35.088   9.351  14.006
81561W        W43224  17.244  30.980  13.957
81562W        W43225  27.098  40.407   3.377
81563W        W43226  14.721  22.026  13.413
81564W        W43227   7.179   2.463   3.810
81565W        W43228  27.470  33.601   4.225
81566W        W43229  21.248  25.662   4.282
81567W        W43230  33.402  41.795  11.055
81568W        W43231   2.289  41.804  14.301
81569W        W43232   2.326  12.167  14.973
81570W        W43233  20.549   3.415   0.414
81571W        W43234  24.011   4.247  12.383
81572W        W43235  34.083  37.858   3.765
81573W        W43236  30.990  27.495  10.575
81574W        W43237  12.789   3.920  14.995
81575W        W43238   4.888  43.470  12.868
81576W        W43239   1.262  17.652   3.338
81577W        W43240  39.037   9.352  13.899
81578W        W43241  22.736  25.539  14.826
81579W        W43242  43.302  14.722  14.411
81580W        W43243  29.632  22.032   2.844
81581W        W43244  26.594  32.562   2.749
81582W        W43245  30.613  39.006  14.808
81583W        W43246   7.250  14.739  11.065
81584W        W43247  17.631  27.124  13.353
81585W        W43248   3.256  30.981   4.296
81586W        W43249  11.216  21.207   4.781
81587W        W43250  27.975  25.513   0.261
81588W        W43251  26.075  22.114  13.382
81589W        W43252   9.274  29.545   2.257
81590W        W43253  24.700  15.577   4.764
81591W        W43254  41.344  39.369   1.912
81592W        W43255  23.711  21.166   1.325
81593W        W43256  33.539  24.521  14.796
81594W        W43257   6.326  10.172  13.890
81595W        W43258  41.012  44.275   4.713
81596W        W43259  41.337  25.162  13.013
81597W        W43260  19.665  19.052   2.290
81598W        W43261  35.541  37.028  10.495
81599W        W43262  19.277   7.730  12.483
81600W        W43263   9.381  31.138   3.731
81601W        W43264  13.626   8.263   3.173
81602W        W43265   9.732  17.727  13.994
81603W        W43266  42.775  15.301  12.577
81604W        W43267  10.804  36.960  10.581
81605W        W43268  34.981   6.273   0.932
81606W        W43269  41.851  42.318  12.465
81607W        W43270  31.528   8.766  11.903
81608W        W43271  29.645  15.279   0.865
81609W        W43272  29.165  36.041  12.922
81610W        W43273  25.009   0.887   2.286
81611W        W43274  22.622  32.503   1.265
81612W        W43275  14.749  19.726   3.774
81613W        W43276  38.482  18.780  13.511
81614W        W43277  13.797  44.763   2.408
81615W        W43278  20.127  21.572  10.453
81616W        W43279  39.478  39.348  11.890
81617W        W43280  31.968   3.300   1.854
81618W        W43281  37.350   9.390   4.611
81619W        W43282  14.234  34.433  10.594
81620W        W43283  16.164  22.657   4.602
81621W        W43284  20.709  28.158   1.908
81622W        W43285  13.681  23.678   2.813
81623W        W43286  44.394  33.012   0.355
81624W        W43287   2.253  36.934  11.453
81625W        W43288   6.251  41.499  14.477
81626W        W43289  19.594   2.370  10.110
81627W        W43290   2.945  35.009  14.784
81628W        W43291  22.516  33.412  13.954
81629W        W43292  39.520  16.306  11.958
81630W        W43293  15.603  24.126   0.363
81631W        W43294   1.291  29.117  13.392
81632W        W43295  43.877  40.897  12.498
81633W        W43296  15.285  37.394  12.033
81634W        W43297  22.019   0.422   1.275
81635W        W43298  32.091  44.388   3.800
81636W        W43299  20.185   6.835   4.693
81637W        W43300  44.799  16.577   4.247
81638W        W43301   1.906   3.270   0.780
81639W        W43302  13.673   5.236   3.838
81640W        W43303  33.953  40.358   3.226
81641W        W43304  24.531  34.016  13.888
81642W        W43305  30.543   1.833  11.588
81643W        W43306  11.174  29.125   4.800
81644W        W43307  24.562  24.132   2.883
81645W        W43308   2.255  21.218   2.668
81646W        W43309   4.222  21.683  13.520
81647W        W43310  33.129  43.932  14.822
81648W        W43311  28.100   8.354   4.133
81649W        W43312  14.610  29.995  14.290
81650W        W43313  15.143  33.554  14.308
81651W        W43314  26.051   8.891  13.028
81652W        W43315  29.612  18.786  12.441
81653W        W43316  43.805  40.358   0.456
81654W        W43317  17.214  12.759   5.303
81655W        W43318   0.839  27.096   1.935
81656W        W43319  41.955   9.384   3.171
81657W        W43320  15.776   4.223   1.812
81658W        W43321  11.741  29.075  13.008
81659W        W43322  24.600  44.755  11.375
81660W        W43323   8.196  38.924  14.875
81661W        W43324  16.618  37.894  13.798
81662W        W43325   1.975  15.707   0.395
81663W        W43326  11.350  27.549  11.861
81664W        W43327  44.969   5.327   3.231
81665W        W43328  21.536  21.547   1.906
81666W        W43329  25.157  22.221   4.296
81667W        W43330   4.239   1.783   0.761
81668W        W43331   7.742  11.238   1.332
81669W        W43332   4.936  19.092   2.762
81670W        W43333  11.788   6.290   3.723
81671W        W43334  29.958  20.522   3.383
81672W        W43335   4.807  13.679  10.571
81673W        W43336  14.105  40.870   4.635
81674W        W43337  17.237   3.835   2.224
81675W        W43338  22.229  20.611  11.870
81676W        W43339   8.211  22.608  12.872
81677W        W43340  38.889   0.304   1.757
81678W        W43341  38.914  18.649  12.433
81679W        W43342  18.554  41.873   2.399
81680W        W43343  12.281   8.698  13.391
81681W        W43344  24.513  44.497  10.917
81682W        W43345   1.478  11.835   1.887
81683W        W43346  13.740  38.028   1.741
81684W        W43347  12.321  15.633  12.077
81685W        W43348  36.965  44.317  14.406
81686W        W43349  26.985   6.356   1.408
81687W        W43350  43.419  31.434  14.832
81688W        W43351  19.664  31.005   4.636
81689W        W43352  42.312  18.696  13.540
81690W        W43353   5.693  29.571  11.612
81691W        W43354  26.572  16.704  10.115
81692W        W43355  23.501   7.346  13.382
81693W        W43356  21.061   7.336  14.767
81694W        W43357  26.176  31.946   3.149
81695W        W43358  19.747  33.503   4.247
81696W        W43359  25.508  23.593   2.182
81697W        W43360  27.068  35.527   4.724
81698W        W43361  12.270  19.580  12.484
81699W        W43362   8.290  30.017  11.611
81700W        W43363  37.576  23.733   1.747
81701W        W43364  36.492  14.107   0.803
81702W        W43365  30.033  25.671  13.325
81703W        W43366  30.546  10.363  12.917
81704W        W43367  34.919  42.998   3.820
81705W        W43368   8.197  15.804  10.557
81706W        W43369  25.196  33.521  13.795
81707W        W43370   8.172  12.226   4.327
81708W        W43371  28.625  31.143  11.968
81709W        W43372  17.163  37.840   3.319
81710W        W43373   1.780  16.211  10.404
81711W        W43374   0.367  36.555   0.798
81712W        W43375  42.008  12.195  12.402
81713W        W43376  37.579  15.205   4.661
81714W        W43377  22.072   5.422   1.358
81715W        W43378  15.259   6.758  11.520
81716W        W43379  24.721  43.938  12.037
81717W        W43380  16.685  23.986  14.511
81718W        W43381  34.474  29.061   4.836
81719W        W43382  13.322  31.506   4.247
81720W        W43383  34.467  13.844  14.349
81721W        W43384  15.235   1.479   1.249
81722W        W43385  33.105   4.798  12.029
81723W        W43386  23.082  19.714   4.335
81724W        W43387  10.662   6.182   0.477
81725W        W43388  42.792  28.628  14.923
81726W        W43389  42.506  35.561  12.874
81727W        W43390  16.576  22.501  12.433
81728W        W43391  28.662  36.466   3.258
81729W        W43392  37.882  35.921  11.061
81730W        W43393   8.382  39.447  11.917
81731W        W43394  34.021  11.742   0.459
81732W        W43395  23.520  23.187   0.293
81733W        W43396  34.883  27.583   0.284
81734W        W43397  34.905  21.565  12.840
81735W        W43398  18.186  21.048   0.892
81736W        W43399   4.891  16.074  14.863
81737W        W43400  27.016  44.345  10.454
81738W        W43401  22.664  41.527  10.007
81739W        W43402  27.972  16.288  11.571
81740W        W43403   8.832  31.627   0.864
81741W        W43404  43.389  21.654  11.985
81742W        W43405  27.040  28.932  12.936
81743W        W43406  30.652  11.345  11.126
81744W        W43407  10.796  36.545  14.436
81745W        W43408   2.839   9.762  13.523
81746W        W43409  10.762  10.815  10.897
81747W        W43410  42.499  17.181   0.839
81748W        W43411   8.346  31.995   2.887
81749W        W43412  31.114  37.579   5.186
81750W        W43413  34.961  18.611  14.350
81751W        W43414  18.249  30.943   1.733
81752W        W43415  31.642  35.360  14.462
81753W        W43416  11.334  10.680  12.501
81754W        W43417  39.393  30.520   4.142
81755W        W43418  17.612  15.136   2.374
81756W        W43419  13.683  34.959  11.017
81757W        W43420  13.120  16.227   3.661
81758W        W43421  13.350  22.677   4.809
81759W        W43422   6.284  37.877   3.326
81760W        W43423   8.391  28.079  14.809
81761W        W43424  17.082   9.210   4.327
81762W        W43425  37.374  20.534  14.285
81763W        W43426   6.740  34.446   3.160
81764W        W43427  30.521   2.472  10.443
81765W        W43428  17.590   4.211   4.814
81766W        W43429  11.785  21.694  12.551
81767W        W43430   4.764  35.022   0.467
81768W        W43431  10.349   2.284  12.868
81769W        W43432  15.173  25.706   4.828
81770W        W43433  29.530  19.738   3.266
81771W        W43434   5.853   9.669  11.537
81772W        W43435  10.199  20.055   0.355
81773W        W43436  12.359  37.043   3.340
81774W        W43437  36.936  15.163  11.571
81775W        W43438  38.390  35.419   4.327
81776W        W43439  23.736  39.531  11.014
81777W        W43440  32.024  11.228  13.410
81778W        W43441  40.475   3.291   1.803
81779W        W43442  13.837  24.059  10.534
81780W        W43443  12.236  34.469   5.585
81781W        W43444  14.275  20.246  12.466
81782W        W43445  16.739  33.599  11.593
81783W        W43446   8.334  10.291  14.025
81784W        W43447  32.898  17.222   2.716
81785W        W43448  26.015  23.147   4.328
81786W        W43449  28.087  26.014   3.314
81787W        W43450  38.926  14.124   1.893
81788W        W43451  35.867   4.239   1.813
81789W        W43452  32.139  10.818   0.376
81790W        W43453   3.773  15.150   3.362
81791W        W43454   7.784  11.746   3.323
81792W        W43455   1.899  14.159  10.993
81793W        W43456   5.732  11.149   0.848
81794W        W43457  15.226  37.348   2.746
81795W        W43458  27.031   9.226   3.322
81796W        W43459   0.468  40.042   2.723
81797W        W43460  20.598   1.973   4.671
81798W        W43461  18.070  36.580  12.845
81799W        W43462  17.283  14.279   3.241
81800W        W43463  35.946  15.629  12.028
81801W        W43464  33.580  26.593   9.924
81802W        W43465   1.441  37.406   0.863
81803W        W43466  10.773  23.720   2.252
81804W        W43467   6.865   5.821  14.354
81805W        W43468  26.514  28.626   1.375
81806W        W43469  25.575  31.044  14.407
81807W        W43470   2.967  40.839   1.228
81808W        W43471  22.530   4.369   4.279
81809W        W43472  35.459  39.428  13.373
81810W        W43473   1.887  23.615   1.381
81811W        W43474  40.837  12.811  13.974
81812W        W43475  43.408  17.676   5.682
81813W        W43476  14.625  37.570  13.886
81814W        W43477  22.089  21.657   1.417
81815W        W43478  24.539  30.004   1.757
81816W        W43479  33.399  30.634   9.947
81817W        W43480  13.776   1.884   2.731
81818W        W43481  19.232  41.982  13.431
81819W        W43482  33.100  24.556   2.400
81820W        W43483  15.270  14.754   2.745
81821W        W43484  42.841  42.869   1.797
81822W        W43485  43.818   0.418   4.810
81823W        W43486  29.447  36.865  12.953
81824W        W43487  32.478  23.033  10.903
81825W        W43488   8.850  29.464   1.282
81826W        W43489  20.686  36.581  10.908
81827W        W43490  25.519  18.711   2.897
81828W        W43491   0.325   7.702   3.862
81829W        W43492  23.574  37.950  10.905
81830W        W43493   8.318  29.431   3.310
81831W        W43494  40.507  34.978   5.194
81832W        W43495  24.564  38.053   4.135
81833W        W43496  28.014  15.235   1.911
81834W        W43497  16.135  41.957  14.825
81835W        W43498  43.283   6.280  10.977
81836W        W43499  42.788  38.938   1.877
81837W        W43500  19.254  44.304  12.893
81838W        W43501  12.771  29.547  12.084
81839W        W43502  43.990  13.749   3.343
81840W        W43503   0.368  41.996   2.193
81841W        W43504  15.242  36.472   0.839
81842W        W43505   3.413   1.355   1.792
81843W        W43506   0.388  19.240  11.972
81844W        W43507  17.194  20.108   1.353
81845W        W43508   3.427  42.906   0.868
81846W        W43509  26.614  29.019   4.253
81847W        W43510  25.190  39.981  12.342
81848W        W43511  44.330  41.416   3.193
81849W        W43512  12.739  29.955   4.781
81850W        W43513  10.376  27.996  11.503
81851W        W43514  29.987  17.281   0.477
81852W        W43515  31.028  12.139   1.883
81853W        W43516   3.377  21.181   2.414
81854W        W43517   5.734  26.148  13.950
81855W        W43518  30.497  45.000   3.167
81856W        W43519  33.082  28.520  12.036
81857W        W43520  39.874   0.462  13.500
81858W        W43521  10.159  38.522  13.450
81859W        W43522  10.189  16.127  13.337
81860W        W43523  22.585  30.592   0.405
81861W        W43524  27.060   4.274   4.128
81862W        W43525  30.455   9.880   4.662
81863W        W43526  11.689   3.768   4.630
81864W        W43527  36.541  13.635  13.386
81865W        W43528   2.297   5.269   3.670
81866W        W43529  42.020  34.119  12.876
81867W        W43530  21.586  22.206   4.217
81868W        W43531  21.586  32.424  12.578
81869W        W43532   2.796  14.626   1.861
81870W        W43533   7.349   9.183  11.982
81871W        W43534  27.060   2.860  13.331
81872W        W43535  24.604   8.719   0.930
81873W        W43536   8.305  31.411   2.680
81874W        W43537  20.626  21.097  14.809
81875W        W43538   2.855  32.563   3.319
81876W        W43539  38.068  13.221   0.803
81877W        W43540  20.584  40.338   2.391
81878W        W43541  44.818  27.512  10.419
81879W        W43542  10.746   0.423   1.700
81880W        W43543  26.151   9.729   0.253
81881W        W43544   3.892  39.932  10.983
81882W        W43545  21.530   3.249  14.917
81883W        W43546   9.274  44.333  12.537
81884W        W43547  29.126  39.522   1.344
81885W        W43548  33.434  44.929  10.453
81886W        W43549  42.928  30.618   1.696
81887W        W43550  42.390  26.145  10.586
81888W        W43551  32.917  27.625  12.518
81889W        W43552  27.173   4.244  13.428
81890W        W43553   4.906  43.407   0.464
81891W        W43554  30.969  10.140  12.481
81892W        W43555  28.643  26.173   1.397
81893W        W43556  15.712   5.886  10.446
81894W        W43557   8.745  18.067  12.446
81895W        W43558  17.169   1.459  12.452
81896W        W43559   4.376  13.146   4.328
81897W        W43560  28.489  37.406   1.775
81898W        W43561  39.441  19.722  10.625
81899W        W43562  36.002  10.173   2.759
81900W        W43563  25.467  21.033  13.472
81901W        W43564   2.952  10.826  10.519
81902W        W43565   3.263  26.496   4.803
81903W        W43566  36.576  20.060  13.451
81904W        W43567  39.560  38.030  11.089
81905W        W43568  26.621  24.228  13.510
81906W        W43569  39.529  27.179  13.325
81907W        W43570  38.924  25.493  10.610
81908W        W43571   4.234  23.177  11.396
81909W        W43572  41.517  25.970  11.590
81910W        W43573  21.251  35.389  13.519
81911W        W43574  28.653  23.068   4.215
81912W        W43575  29.918   1.371   0.408
81913W        W43576  23.197  19.589   2.724
81914W        W43577  14.687  12.637  14.316
81915W        W43578  18.625  38.390   0.759
81916W        W43579  21.216  33.991  11.461
81917W        W43580   1.839  21.067  13.028
81918W        W43581  32.535  38.046  14.784
81919W        W43582  22.732  15.709   4.239
81920W        W43583  10.727  18.687  11.944
81921W        W43584  39.380  41.927   3.260
81922W        W43585  41.998  29.980  13.407
81923W        W43586  12.831  15.643   3.824
81924W        W43587  13.327  38.423   5.217
81925W        W43588  34.986  33.956  13.793
81926W        W43589  27.644  36.445   3.858
81927W        W43590  16.580  10.205  14.846
81928W        W43591   5.332   3.722  14.992
81929W        W43592  44.316  28.615   2.814
81930W        W43593  24.708   3.422   1.427
81931W        W43594  18.209  17.579   4.137
81932W        W43595  28.016  31.101   2.253
81933W        W43596   7.683  27.073  11.114
81934W        W43597  44.438  13.253   1.837
81935W        W43598  44.375   5.850   2.281
81936W        W43599  30.422  21.700  12.381
81937W        W43600  18.157   9.332  14.813
81938W        W43601  23.621  16.651  13.344
81939W        W43602  37.454  20.081  10.594
81940W        W43603  18.257  21.527   0.818
81941W        W43604   9.219  30.082  13.845
81942W        W43605  12.136   2.945  10.576
81943W        W43606  25.487  36.092   5.103
81944W        W43607   6.336  21.068  14.484
81945W        W43608   2.838  40.549  10.977
81946W        W43609  39.928   8.666   3.152
81947W        W43610   5.337  31.496   2.333
81948W        W43611   8.356   1.788  14.803
81949W        W43612  16.229  33.961   3.654
81950W        W43613  44.765  41.834   2.381
81951W        W43614  23.062   4.801   4.277
81952W        W43615  29.550  44.884  14.395
81953W        W43616  23.551  38.403  10.951
81954W        W43617  28.967   9.207   2.794
81955W        W43618  10.211   2.319  14.457
81956W        W43619  40.849  15.681   3.682
81957W        W43620  30.078  37.000   1.380
81958W        W43621  39.389  16.117  14.323
81959W        W43622   9.273   1.830  12.392
81960W        W43623  10.359  34.017   3.660
81961W        W43624  30.573  24.689   1.216
81962W        W43625  15.709   6.309   4.737
81963W        W43626  18.185  17.678   0.332
81964W        W43627   1.312  24.553  14.924
81965W        W43628  12.289   6.749   4.667
81966W        W43629  34.902  37.840   1.875
81967W        W43630  12.846  23.071   1.816
81968W        W43631  18.649  38.372  11.937
81969W        W43632   8.733  31.643   0.443
81970W        W43633  35.049  16.222   4.261
81971W        W43634   3.827  20.660   2.300
81972W        W43635   7.240   7.303  14.298
81973W        W43636  24.658  18.236  14.797
81974W        W43637  23.634  24.590   2.671
81975W        W43638  44.299  40.308   5.296
81976W        W43639   6.221   6.894   3.675
81977W        W43640  10.874  41.363  13.949
81978W        W43641  16.710  25.523   2.351
81979W        W43642   9.272  38.469   4.741
81980W        W43643   7.409  40.498  13.881
81981W        W43644  22.741  28.930  13.891
81982W        W43645   9.189  11.269  13.914
81983W        W43646  19.694  36.844  14.326
81984W        W43647   0.271  19.556  11.412
81985W        W43648  37.471  40.436  14.480
81986W        W43649  28.183  26.611   1.755
81987W        W43650  23.997  35.085  11.925
81988W        W43651   1.359   4.220  10.450
81989W        W43652   2.308   2.232  14.812
81990W        W43653   5.278  33.947   0.462
81991W        W43654  13.150  19.049   4.237
81992W        W43655  32.958   6.738   3.371
81993W        W43656  27.499   5.348  10.471
81994W        W43657  21.194  31.577  13.827
81995W        W43658  30.155  36.522  12.079
81996W        W43659  12.682  11.174   0.440
81997W        W43660  39.460  33.993   0.925
81998W        W43661  12.727  39.503   0.810
81999W        W43662  22.112  15.218  12.979
82000W        W43663   4.375  15.735  11.089
82001W        W43664  17.134   4.699  13.883
82002W        W43665  38.960  44.318   0.414
82003W        W43666  39.442  12.764   2.297
82004W        W43667  24.639   5.925  14.851
82005W        W43668  20.238  23.217  14.952
82006W        W43669  28.068  25.042  12.886
82007W        W43670   7.707  40.513  11.974
82008W        W43671   4.406  27.119   4.258
82009W        W43672  28.036   1.338   3.792
82010W        W43673  41.366   3.748  13.797
82011W        W43674   8.685  13.140   3.352
82012W        W43675  43.000  11.194   5.159
82013W        W43676  43.924  25.188   4.187
82014W        W43677   7.667   6.854   4.343
82015W        W43678  18.572   1.382   3.837
82016W        W43679  32.929   8.705  13.322
82017W        W43680  11.303  33.449  12.393
82018W        W43681  24.100  10.215  10.987
82019W        W43682  21.156   9.345   3.708
82020W        W43683   1.752   7.733  11.930
82021W        W43684   5.349  13.614  11.894
82022W        W43685  36.042  35.427  12.911
82023W        W43686   7.804   9.191  11.093
82024W        W43687  40.373  24.037  14.475
82025W        W43688  40.811  33.509   2.197
82026W        W43689  22.022  35.948   4.234
82027W        W43690  37.876  15.763   0.381
82028W        W43691   8.373  28.644  12.438
82029W        W43692  37.500  16.085   2.333
82030W        W43693   8.671  24.611  10.455
82031W        W43694  15.285  13.782  10.049
82032W        W43695   6.369  11.362   2.225
82033W        W43696  41.797  21.196  11.068
82034W        W43697  10.342  35.916  13.528
82035W        W43698   0.836  37.573  12.433
82036W        W43699  22.630  42.281  13.423
82037W        W43700  35.953  22.100  14.759
82038W        W43701   1.896  20.074   0.915
82039W        W43702  32.910  24.495   2.879
82040W        W43703   2.818  27.626  12.487
82041W        W43704  29.483   4.217  13.425
82042W        W43705   4.223   1.454   1.286
82043W        W43706  26.025  22.190   1.293
82044W        W43707  22.647   4.237   3.198
82045W        W43708  21.692  40.004   3.357
82046W        W43709  24.680  19.578   4.154
82047W        W43710  25.506  23.098  13.327
82048W        W43711  15.143  38.996   1.850
82049W        W43712   8.287   3.334  12.838
82050W        W43713   8.899  43.799   4.213
82051W        W43714   8.682  24.222   0.448
82052W        W43715  17.721  28.524   3.166
82053W        W43716  43.277  15.245   3.240
82054W        W43717  20.695  10.156   1.449
82055W        W43718   3.846  43.776  14.030
82056W        W43719  20.186  34.052  14.367
82057W        W43720  29.618  27.683   0.849
82058W        W43721   0.782  10.216  10.614
82059W        W43722  23.644   2.356   3.205
82060W        W43723  17.688  27.630  12.525
82061W        W43724  13.105  36.079   9.958
82062W        W43725  33.050  22.689   5.265
82063W        W43726   4.254  23.565   0.908
82064W        W43727  43.294  31.539  11.927
82065W        W43728  27.590  24.127  14.461
82066W        W43729  18.746  36.032  14.028
82067W        W43730  16.078  18.254  12.836
82068W        W43731  39.406  30.596  13.989
82069W        W43732  26.080   3.853   3.317
82070W        W43733  44.259   2.919   1.716
82071W        W43734  27.450  17.149   0.352
82072W        W43735  27.518   4.784   2.776
82073W        W43736   2.418   7.758  12.984
82074W        W43737  20.259  21.215  11.576
82075W        W43738  25.586   5.904  11.092
82076W        W43739  36.058   2.897  13.961
82077W        W43740  14.109   1.419   3.176
82078W        W43741  16.210  44.810  14.510
82079W        W43742  10.230   8.227  14.885
82080W        W43743  23.009   0.282   2.822
82081W        W43744  17.719  39.022   1.262
82082W        W43745  22.546  15.633   1.786
82083W        W43746  32.452  33.927   1.421
82084W        W43747   5.726  12.290  13.883
82085W        W43748  22.692  18.143  14.461
82086W        W43749  29.962   2.446  12.056
82087W        W43750  42.364  21.150   1.314
82088W        W43751  27.128   7.799   1.412
82089W        W43752  11.636  19.633  10.963
82090W        W43753   6.394  44.420   2.240
82091W        W43754  39.875  21.545   0.435
82092W        W43755  16.310  23.699   4.608
82093W        W43756  14.735   3.278  11.943
82094W        W43757  19.151   2.733   1.867
82095W        W43758  21.170  39.843  12.530
82096W        W43759  15.257  24.147  14.022
82097W        W43760  30.102  44.780   4.147
82098W        W43761  22.711  12.765  12.412
82099W        W43762  12.328  43.895   1.695
82100W        W43763  15.614   1.830  13.916
82101W        W43764  39.323  26.029  12.057
82102W        W43765  25.001  40.305  11.467
82103W        W43766   8.308   5.840  12.083
82104W        W43767  15.808   1.429   3.386
82105W        W43768  23.653   6.730  10.524
82106W        W43769  13.242  19.256   2.377
82107W        W43770  38.951   0.743  14.967
82108W        W43771   9.374   1.821   4.763
82109W        W43772  11.195  36.010  11.085
82110W        W43773  18.718  39.956   1.212
82111W        W43774  21.103  34.983   2.278
82112W        W43775  29.967   7.813   4.227
82113W        W43776  20.265  22.060   1.790
82114W        W43777  17.074  25.579  12.399
82115W        W43778  36.503  42.404  14.842
82116W        W43779  10.639  10.667  13.378
82117W        W43780  22.701   6.913   3.699
82118W        W43781   6.242  35.497  14.349
82119W        W43782  31.049  44.451  10.537
82120W        W43783  33.106  12.627   2.302
82121W        W43784  37.529  10.744   4.240
82122W        W43785  10.318  33.061   4.693
82123W        W43786  11.228   6.677  11.543
82124W        W43787  26.484   9.235   2.798
82125W        W43788  27.597   9.801   1.771
82126W        W43789  25.018   7.826  14.451
82127W        W43790  42.870  17.679  12.834
82128W        W43791   9.151  36.053  11.538
82129W        W43792  31.107  37.918   4.119
82130W        W43793  29.044  43.784  14.927
82131W        W43794  31.071  40.410   3.635
82132W        W43795  33.620   8.722   1.277
82133W        W43796   5.357  26.629   1.328
82134W        W43797  15.584   5.298  12.447
82135W        W43798   6.420  25.147  12.042
82136W        W43799  23.672   6.241   2.311
82137W        W43800  38.820  42.397  13.800
82138W        W43801  27.103  16.302  12.405
82139W        W43802  43.945  33.886   1.225
82140W        W43803  16.686   0.874  12.524
82141W        W43804  43.824  35.596   0.940
82142W        W43805  27.018   8.859  10.594
82143W        W43806  31.449  14.311   2.273
82144W        W43807   9.733  19.556  10.895
82145W        W43808  44.763  16.124  14.810
82146W        W43809  43.308  31.089  13.529
82147W        W43810  33.058  20.621  14.315
82148W        W43811  27.525  27.597   2.819
82149W        W43812  16.781   2.724  11.535
82150W        W43813  43.472  41.386  10.901
82151W        W43814  28.091  38.559   3.304
82152W        W43815  27.159  41.431   0.266
82153W        W43816   0.965  24.057   5.299
82154W        W43817  26.094   3.412  11.993
82155W        W43818  15.129  20.068  12.368
82156W        W43819  41.939   2.308   0.411
82157W        W43820  39.458  33.017  11.591
82158W        W43821   1.295  38.866  10.435
82159W        W43822  13.753  10.354  14.293
82160W        W43823  40.853  28.126   1.358
82161W        W43824  11.813   6.707   0.310
82162W        W43825   2.439  18.125   3.642
82163W        W43826  43.341   7.190  11.924
82164W        W43827   7.396  21.228  12.562
82165W        W43828   5.258  17.225   4.221
82166W        W43829  39.558  21.062   3.676
82167W        W43830  23.700  14.222   0.897
82168W        W43831  36.515  20.610   1.327
82169W        W43832  25.691  22.219   4.730
82170W        W43833   7.342  42.832   2.352
82171W        W43834  21.143  42.908   3.311
82172W        W43835  11.245   7.863  14.317
82173W        W43836  29.459  25.206   4.140
82174W        W43837   4.386  35.025   1.341
82175W        W43838   4.919  18.096   3.181
82176W        W43839   2.344  27.954   2.829
82177W        W43840  37.359  21.652  11.928
82178W        W43841  34.935  36.977   3.355
82179W        W43842  32.123  34.492  13.874
82180W        W43843  31.146  13.153  12.052
82181W        W43844   7.821  16.127  13.903
82182W        W43845  25.175  29.631  14.391
82183W        W43846  17.274  41.319  12.452
82184W        W43847  15.722  41.001  13.974
82185W        W43848  37.505  11.867  12.965
82186W        W43849  27.007  25.095   2.882
82187W        W43850  20.709  22.082   3.819
82188W        W43851  26.052  39.539  11.377
82189W        W43852  22.601   4.336  13.440
82190W        W43853  32.067  30.939  12.456
82191W        W43854  31.952   4.877   0.386
82192W        W43855   2.307   5.786  12.502
82193W        W43856  15.597  23.554   0.328
82194W        W43857  40.944  19.537   1.339
82195W        W43858   3.866  33.944   3.149
82196W        W43859   1.926  33.052   0.883
82197W        W43860  38.901  35.030   5.106
82198W        W43861   1.896  27.965  11.390
82199W        W43862  31.078  44.265  13.980
82200W        W43863  17.126   6.718   0.312
82201W        W43864   9.809  25.101   0.419
82202W        W43865  31.529  38.910   3.190
82203W        W43866   2.340   7.303   0.733
82204W        W43867  26.107   8.697  10.457
82205W        W43868  42.442  33.107   3.648
82206W        W43869  25.027  36.553   4.354
82207W        W43870  16.675  36.074   2.366
82208W        W43871  19.259  12.214  11.021
82209W        W43872   4.862  16.283  11.961
82210W        W43873  13.813  13.612  14.459
82211W        W43874   3.768  32.578  12.021
82212W        W43875  30.031  40.470  11.915
82213W        W43876  27.143  43.833   4.771
82214W        W43877  11.635   6.188  12.519
82215W        W43878  37.940   1.421   0.463
82216W        W43879   7.806  32.032  11.012
82217W        W43880  10.675  36.474   4.769
82218W        W43881  43.463   4.274  10.951
82219W        W43882  10.246   0.795   3.722
82220W        W43883  17.108   9.884   4.782
82221W        W43884  39.865  15.193   1.858
82222W        W43885  34.560  10.855   3.768
82223W        W43886  31.919  13.809   4.339
82224W        W43887  10.841  15.641  10.993
82225W        W43888  44.358  32.058   4.183
82226W        W43889  27.631  34.510   4.253
82227W        W43890   2.381  30.599   0.467
82228W        W43891  20.653  32.553   3.730
82229W        W43892  44.261   0.744  14.501
82230W        W43893   1.884  31.958   1.811
82231W        W43894  23.731  11.641  11.608
82232W        W43895  26.587  14.238   0.845
82233W        W43896   1.278  14.245   4.328
82234W        W43897   0.290  21.617  13.398
82235W        W43898  30.981  43.903  14.868
82236W        W43899  34.982   8.264   5.104
82237W        W43900  23.119  27.994   2.695
82238W        W43901  28.043  33.426  13.539
82239W        W43902  37.533  30.516  12.539
82240W        W43903  35.031   8.697   5.655
82241W        W43904  17.755  23.241   0.751
82242W        W43905  35.106   6.414  10.978
82243W        W43906  30.907  20.706   1.340
82244W        W43907   6.728   4.749  14.782
82245W        W43908   4.781   0.316  14.331
82246W        W43909  14.766  27.011  11.862
82247W        W43910  25.203   8.828  11.113
82248W        W43911   0.742  36.962  12.579
82249W        W43912  32.602   6.825  13.379
82250W        W43913  19.646   5.910   2.787
82251W        W43914  17.275   0.875  11.572
82252W        W43915  31.052   1.843   3.710
82253W        W43916  11.734  29.176  11.039
82254W        W43917  34.958   6.328   3.849
82255W        W43918  16.760  30.124  14.382
82256W        W43919  11.642  34.555   4.622
82257W        W43920  30.947   9.264   1.811
82258W        W43921  11.314  32.959   4.195
82259W        W43922  41.459  32.038  12.016
82260W        W43923  24.007  21.692  11.963
82261W        W43924  17.186  11.773   4.160
82262W        W43925  19.112  13.798   0.306
82263W        W43926   0.816  23.527  13.960
82264W        W43927  10.246  22.056   4.606
82265W        W43928   7.682  37.902   2.879
82266W        W43929  38.043   3.918  12.925
82267W        W43930  19.648  28.137   4.186
82268W        W43931  26.566   6.736  11.576
82269W        W43932  24.557  44.380  14.924
82270W        W43933  44.426  34.909   1.926
82271W        W43934  40.519   5.351   1.814
82272W        W43935   2.885  35.603   1.797
82273W        W43936  10.214  18.769   4.765
82274W        W43937  44.383  31.467  11.451
82275W        W43938  25.470  16.733  10.559
82276W        W43939  21.673   8.378  13.483
82277W        W43940  41.804  24.703   0.371
82278W        W43941  27.587   8.684  12.387
82279W        W43942  16.298   2.885  14.470
82280W        W43943  10.713   9.751  13.465
82281W        W43944   4.269  18.719  14.911
82282W        W43945  28.062  28.953  12.357
82283W        W43946  17.256  29.647  13.495
82284W        W43947  13.114  22.093  13.008
82285W        W43948  19.746   6.849  12.018
82286W        W43949  40.520  11.838   1.353
82287W        W43950   3.876  18.080  12.838
82288W        W43951  18.279  29.533  13.312
82289W        W43952   6.916   0.340   4.198
82290W        W43953   3.406  28.159   1.252
82291W        W43954  34.888   1.874  10.620
82292W        W43955  44.273  25.675  13.324
82293W        W43956  31.956  35.014   1.770
82294W        W43957  31.529  40.898  14.930
82295W        W43958  22.053  11.296   4.200
82296W        W43959  20.532  20.105   1.860
82297W        W43960  14.611  39.397   3.866
82298W        W43961  42.790  36.910   2.366
82299W        W43962  30.460   5.810  13.052
82300W        W43963  23.643   1.860  12.891
82301W        W43964  20.112   8.259  14.279
82302W        W43965  34.368  26.629   5.204
82303W        W43966   8.311  16.127   1.923
82304W        W43967  11.200  21.626   2.398
82305W        W43968  37.474  41.416   1.845
82306W        W43969  37.365   2.734  14.784
82307W        W43970  23.176  19.565  14.314
82308W        W43971  27.954  24.988   3.736
82309W        W43972  34.539  11.192  13.805
82310W        W43973  19.564  37.548   3.341
82311W        W43974  13.617  39.843  11.554
82312W        W43975  33.576   4.335   2.873
82313W        W43976  10.294  16.152   3.740
82314W        W43977  30.640  42.526   4.274
82315W        W43978   6.715  34.596  13.546
82316W        W43979  33.115  21.215  12.577
82317W        W43980  24.048  22.232  11.559
82318W        W43981  32.074  28.462   4.209
82319W        W43982  13.768  25.523  10.501
82320W        W43983  33.032  34.104   4.782
82321W        W43984   4.826  30.497   3.361
82322W        W43985   2.323  19.095   1.327
82323W        W43986   7.866  32.099   5.160
82324W        W43987  31.150   5.912  14.400
82325W        W43988   0.288   5.796  10.985
82326W        W43989  30.041  23.073  10.405
82327W        W43990  18.080  18.064   2.352
82328W        W43991  26.960  32.985   1.224
82329W        W43992  41.533  30.538  13.462
82330W        W43993  16.198  28.979  11.447
82331W        W43994  19.184  26.567   2.748
82332W        W43995  27.076  31.599  11.523
82333W        W43996   5.763   5.347   4.739
82334W        W43997   8.883  20.733   3.377
82335W        W43998  24.519  21.748   3.780
82336W        W43999   0.275  26.983  10.472
82337W        W44000  34.456  19.648  12.002
82338W        W44001  44.288   3.924  12.830
82339W        W44002  14.725  44.398  13.023
82340W        W44003  30.138  41.004   0.345
82341W        W44004  19.759   9.686  12.451
82342W        W44005  28.049  40.347  11.988
82343W        W44006  27.668  15.123   0.791
82344W        W44007  34.114  35.523  12.464
82345W        W44008  16.155  29.119   3.217
82346W        W44009   1.909  27.529  13.838
82347W        W44010  15.146  35.017   1.866
82348W        W44011  27.944  27.480   1.270
82349W        W44012  40.942  17.178   2.668
82350W        W44013  31.940  34.112  11.500
82351W        W44014  28.563  39.371  14.783
82352W        W44015   0.947   3.276  14.483
82353W        W44016  39.936  14.720   0.755
82354W        W44017  41.817  28.583   0.384
82355W        W44018   3.937   2.237  11.054
82356W        W44019  30.075  28.036   2.311
82357W        W44020   8.325  38.524  13.874
82358W        W44021  11.630  14.676   1.786
82359W        W44022  37.878  37.982   1.917
82360W        W44023  33.541  44.838   1.804
82361W        W44024  29.176  35.061  12.439
82362W        W44025  28.639  11.282   2.267
82363W        W44026  21.179   9.814   2.685
82364W        W44027  20.095  13.809   4.317
82365W        W44028  44.924  23.590   0.460
82366W        W44029  12.195  26.639  10.486
82367W        W44030  32.527  20.675   0.918
82368W        W44031  20.605  37.024  14.420
82369W        W44032  40.338  36.414   2.862
82370W        W44033  41.434  13.171  14.323
82371W        W44034  23.015  17.295  12.570
82372W        W44035   7.278  22.640   2.372
82373W        W44036  29.982  28.599  10.625
82374W        W44037  36.023  23.711  10.552
82375W        W44038   8.250  23.609   0.862
82376W        W44039  34.111  44.353  13.017
82377W        W44040  11.190  22.203   4.715
82378W        W44041  21.597   9.717  14.765
82379W        W44042  43.841  28.639   3.856
82380W        W44043  22.210  33.543  13.874
82381W        W44044   3.865  38.475   0.393
82382W        W44045  23.003  29.505  10.466
82383W        W44046  17.187  18.644   3.648
82384W        W44047  26.478  19.060   1.777
82385W        W44048  30.484  13.662  11.933
82386W        W44049  34.947  15.178  14.407
82387W        W44050  32.024  19.617   2.772
82388W        W44051  32.912  12.831  14.849
82389W        W44052  31.648  32.897   2.876
82390W        W44053  37.921   6.915   0.286
82391W        W44054  35.379  10.190  10.146
82392W        W44055   4.813  42.341   4.762
82393W        W44056  17.800  22.249   3.686
82394W        W44057  18.279  43.938   3.272
82395W        W44058  40.872  26.985   0.829
82396W        W44059  27.163  18.648  13.853
82397W        W44060  11.774  17.661  13.517
82398W        W44061  18.552  11.775  11.066
82399W        W44062  35.392   7.386   0.257
82400W        W44063  25.676  16.288   1.875
82401W        W44064  15.605  43.822  10.453
82402W        W44065  35.404  14.771  11.055
82403W        W44066   5.411  20.205   4.128
82404W        W44067  33.515   6.237  10.037
82405W        W44068  41.957  22.084   1.699
82406W        W44069   4.893  40.021   3.344
82407W        W44070  20.598  13.214   4.604
82408W        W44071  43.430  12.358   4.228
82409W        W44072   7.739   1.450  14.825
82410W        W44073  24.009  40.960  11.068
82411W        W44074  11.216   9.702   1.252
82412W        W44075  28.970  30.487   0.957
82413W        W44076  18.627  30.080   1.853
82414W        W44077  32.924  13.600  10.913
82415W        W44078  11.233  37.375   1.265
82416W        W44079  22.233   6.796   5.607
82417W        W44080  27.545  43.908   3.249
82418W        W44081   1.255  33.005  12.471
82419W        W44082  20.741  28.141  14.786
82420W        W44083  26.677  38.054   0.813
82421W        W44084  44.865  13.820   3.646
82422W        W44085   1.264  33.520  10.026
82423W        W44086  33.584   5.338  10.490
82424W        W44087   3.762  32.887   4.214
82425W        W44088  11.131  16.211  13.955
82426W        W44089  33.519  26.991  13.809
82427W        W44090  23.016   8.255   2.304
82428W        W44091  42.492  37.367   4.291
82429W        W44092  26.520  23.634  10.585
82430W        W44093  29.957  36.437  13.350
82431W        W44094   9.347  43.482  12.084
82432W        W44095  44.445  11.290  13.984
82433W        W44096  40.464   1.249   0.951
82434W        W44097  27.004  21.725   3.356
82435W        W44098  30.075  30.617  11.980
82436W        W44099  10.728  27.451   3.211
82437W        W44100  21.701  14.763  12.973
82438W        W44101   0.966  43.010   2.716
82439W        W44102  36.969   1.415   2.323
82440W        W44103  42.841  27.532   3.364
82441W        W44104  24.026   1.393  14.285
82442W        W44105  24.716  33.515  11.122
82443W        W44106  22.152  42.932  10.409
82444W        W44107  37.501  39.341   2.833
82445W        W44108  35.984  25.167   2.811
82446W        W44109  27.161  30.154  10.498
82447W        W44110  34.534   7.231  11.121
82448W        W44111  21.528  43.902  14.890
82449W        W44112  44.806  20.759  13.845
82450W        W44113  26.018   4.914   1.439
82451W        W44114  37.488   5.853  14.444
82452W        W44115  35.871  26.966  13.420
82453W        W44116   4.206  11.260  12.466
82454W        W44117  17.160  24.124  13.945
82455W        W44118  15.823  19.259   4.243
82456W        W44119  43.015   9.797  14.922
82457W        W44120  18.750  37.863   2.358
82458W        W44121  35.474  32.427   3.327
82459W        W44122  21.145  10.223   5.285
82460W        W44123  19.120  25.688   4.791
82461W        W44124  18.581  33.576   4.777
82462W        W44125  10.223  18.686  10.405
82463W        W44126  31.487  23.107   1.353
82464W        W44127   8.362  30.923   1.769
82465W        W44128  22.187  30.130  11.996
82466W        W44129  27.600  24.224  10.564
82467W        W44130  17.304  43.338  13.500
82468W        W44131  40.946  20.116   0.260
82469W        W44132  25.579  31.617  13.548
82470W        W44133  19.549  25.994   0.915
82471W        W44134  16.647   0.759  12.886
82472W        W44135  31.052  42.891   0.417
82473W        W44136   3.243  37.550   5.264
82474W        W44137  32.520  30.992   1.728
82475W        W44138  40.043  30.569   2.366
82476W        W44139  21.721   9.279   0.432
82477W        W44140  41.349  26.474   0.469
82478W        W44141  22.186  17.205  12.536
82479W        W44142  28.939   6.910   3.216
82480W        W44143  18.125  13.650  14.994
82481W        W44144  37.985  29.494   4.750
82482W        W44145  21.722  10.836  12.869
82483W        W44146  15.191  40.043   4.146
82484W        W44147  40.382  34.959   1.250
82485W        W44148  28.615   8.843   1.271
82486W        W44149  30.002   0.367   1.410
82487W        W44150  23.517  35.983  10.543
82488W        W44151  41.970  35.897   1.876
82489W        W44152   4.371   3.776   4.829
82490W        W44153  14.830   6.404  14.410
82491W        W44154  42.843   7.907   3.635
82492W        W44155  12.847  35.917   4.228
82493W        W44156   0.852  36.399  13.466
82494W        W44157  25.604  26.586  11.460
82495W        W44158  22.187   4.420   4.705
82496W        W44159  21.633   5.361   0.310
82497W        W44160   2.375  40.861   3.261
82498W        W44161  22.061   0.394  12.351
82499W        W44162   6.701   7.671  12.824
82500W        W44163  23.092  37.559  14.990
82501W        W44164  11.209  13.658  11.061
82502W        W44165  24.975  35.467   4.178
82503W        W44166  37.873  31.900   3.704
82504W        W44167  17.145  34.394  13.480
82505W        W44168  10.214  22.219  10.962
82506W        W44169   6.842   3.298  11.609
82507W        W44170  40.981  20.633   4.181
82508W        W44171  39.367   5.804   4.782
82509W        W44172  20.597  27.113  10.442
82510W        W44173   6.923  15.759   1.220
82511W        W44174  29.143   9.373   3.704
82512W        W44175   1.767   9.850  13.389
82513W        W44176  31.919  24.692   2.766
82514W        W44177  39.840  37.872   3.675
82515W        W44178  17.670   7.910  14.814
82516W        W44179  41.840   5.231   4.187
82517W        W44180  18.192  16.244  13.993
82518W        W44181  36.878  33.623   2.417
82519W        W44182  27.517  40.474   1.369
82520W        W44183  40.872  36.379  13.027
82521W        W44184  14.640   7.837   4.839
82522W        W44185  15.326   3.889  14.945
82523W        W44186  23.523  24.637  14.998
82524W        W44187   7.710  24.708  12.357
82525W        W44188  29.996  24.637   1.372
82526W        W44189  37.449  37.066  14.304
82527W        W44190  33.052  36.438  14.861
82528W        W44191   3.301  36.383   3.338
82529W        W44192  39.393  19.075   0.820
82530W        W44193  32.968  38.483  13.809
82531W        W44194  21.197  27.539   1.785
82532W        W44195  24.721   8.694  12.904
82533W        W44196  12.191  38.943   4.671
82534W        W44197  21.085  10.207  14.332
82535W        W44198  35.541  15.613  14.339
82536W        W44199  35.989   4.835  12.937
82537W        W44200   1.902  32.405   2.336
82538W        W44201  28.095  18.235   2.276
82539W        W44202  13.669  27.629  11.967
82540W        W44203   0.428   3.259  14.882
82541W        W44204  24.979  10.835   3.252
82542W        W44205  42.371  31.454  14.329
82543W        W44206  10.698  27.050   2.249
82544W        W44207  36.527  35.069  14.761
82545W        W44208   4.795   0.901   2.752
82546W        W44209  15.190  10.794   0.417
82547W        W44210   7.373  30.513   4.723
82548W        W44211   4.746  24.723  11.513
82549W        W44212  29.472  27.578  10.575
82550W        W44213  13.694   2.471  11.530
82551W        W44214  13.630  22.067  12.009
82552W        W44215   5.750   1.476  11.544
82553W        W44216   0.414  13.153  11.582
82554W        W44217  31.918  29.133   1.768
82555W        W44218  43.772  30.597  13.054
82556W        W44219  14.231   3.908  14.376
82557W        W44220   9.322  20.672  11.866
82558W        W44221   1.930  32.402   1.799
82559W        W44222  17.278  37.931   1.418
82560W        W44223  37.888  39.000  14.012
82561W        W44224  29.632  40.376  14.450
82562W        W44225  33.620  22.677  11.396
82563W        W44226  27.587  12.134   1.702
82564W        W44227   6.833  10.140  11.432
82565W        W44228   5.740  44.880  11.007
82566W        W44229  30.641  15.328  12.470
82567W        W44230   2.270   5.707   1.839
82568W        W44231  42.419  42.862   0.480
82569W        W44232  23.623  11.696   3.183
82570W        W44233  34.988  18.264  10.937
82571W        W44234  10.176  21.111   5.283
82572W        W44235   2.255   2.284   4.172
82573W        W44236  39.924  39.419   4.148
82574W        W44237  38.017  39.988  12.847
82575W        W44238  40.904  44.893   3.811
82576W        W44239   7.173  20.077   1.388
82577W        W44240  12.250  13.760   4.787
82578W        W44241  25.649  15.750   0.477
82579W        W44242  24.502  35.954  13.965
82580W        W44243  21.255  23.535  13.985
82581W        W44244   0.258  21.515   4.304
82582W        W44245  12.203  43.513   1.282
82583W        W44246  19.713  38.936   0.393
82584W        W44247  39.496  44.422   0.318
82585W        W44248  41.828  39.396   4.260
82586W        W44249  12.119   2.433  14.292
82587W        W44250   7.393   6.851  12.009
82588W        W44251  33.490  31.130   1.930
82589W        W44252  14.311  26.696   3.709
82590W        W44253   0.312  42.421  13.463
82591W        W44254  28.545  28.069   4.655
82592W        W44255  18.132   8.229   3.342
82593W        W44256   4.280  16.752  12.077
82594W        W44257  38.026  28.496  14.404
82595W        W44258   6.261  33.388  10.544
82596W        W44259   5.691   1.806   1.393
82597W        W44260  43.325  10.245  11.568
82598W        W44261   4.901  18.578  14.284
82599W        W44262  44.480  33.969  11.044
82600W        W44263   0.914  38.059   2.745
82601W        W44264  44.449  16.643  14.446
82602W        W44265   5.346  24.042  11.373
82603W        W44266  23.121  19.085   0.735
82604W        W44267  18.220  27.998   0.413
82605W        W44268  13.686   2.425  13.326
82606W        W44269   5.714  35.990   4.762
82607W        W44270   6.418  34.432  13.019
82608W        W44271  34.499  13.642   4.698
82609W        W44272  31.494  44.880  12.381
82610W        W44273   1.413  12.211  14.917
82611W        W44274  28.072  16.125  12.364
82612W        W44275  17.192  27.970   2.680
82613W        W44276  21.078  40.883   3.705
82614W        W44277  17.164   0.472   1.430
82615W        W44278  17.582  37.050   2.384
82616W        W44279   2.417  35.909   4.659
82617W        W44280  19.553  19.705  11.027
82618W        W44281  22.017  19.722  14.291
82619W        W44282  31.508  30.435   1.887
82620W        W44283  38.491  29.625  11.000
82621W        W44284   2.399  11.778   9.920
82622W        W44285   3.442   9.324  13.893
82623W        W44286  16.074  15.106   3.235
82624W        W44287  22.613   8.301   4.665
82625W        W44288   9.198  15.147   0.955
82626W        W44289   0.754  16.581   0.814
82627W        W44290   6.357  27.119  12.880
82628W        W44291   2.246  17.070   1.399
82629W        W44292  27.572  37.045   2.396
82630W        W44293  23.589  30.096  14.357
82631W        W44294  32.450   2.379  14.853
82632W        W44295  33.420  15.743  11.020
82633W        W44296  19.068  23.719  13.886
82634W        W44297   5.243  16.108  12.352
82635W        W44298  31.507  34.562  13.424
82636W        W44299  19.195  37.532   2.370
82637W        W44300  22.625  32.411  10.477
82638W        W44301  36.092  44.875  12.440
82639W        W44302  15.732  20.708  11.595
82640W        W44303  42.446  16.230  11.125
82641W        W44304  21.061  17.189  14.500
82642W        W44305  40.984  27.133  10.607
82643W        W44306  38.948  18.190   2.667
82644W        W44307  13.232  24.023   0.299
82645W        W44308  16.633   8.770  10.433
82646W        W44309  21.128  28.497  14.923
82647W        W44310   2.891  36.569  10.448
82648W        W44311  28.546  39.936  12.092
82649W        W44312  41.909  11.661  11.487
82650W        W44313  19.637  27.533  10.963
82651W        W44314   6.804   1.250   2.310
82652W        W44315   4.933   5.808   0.286
82653W        W44316   5.927   5.220   3.209
82654W        W44317  40.046  38.834  13.797
82655W        W44318  24.497  14.766   2.282
82656W        W44319  31.964  16.691  13.924
82657W        W44320  19.772  23.240   4.119
82658W        W44321  13.751  34.541  13.398
82659W        W44322  36.374   9.759   3.357
82660W        W44323  30.993  40.334   3.318
82661W        W44324  41.294  39.875  12.017
82662W        W44325  31.076  40.806   1.343
82663W        W44326  36.421  16.149   4.297
82664W        W44327  34.613  12.120   4.295
82665W        W44328  16.690  17.619   2.667
82666W        W44329  43.970  40.810   3.808
82667W        W44330  16.740   3.947  10.933
82668W        W44331   2.906  36.037   1.388
82669W        W44332  12.754  18.589   4.603
82670W        W44333  13.819  10.349   1.702
82671W        W44334  32.951  36.977  13.944
82672W        W44335  31.093  29.484  13.937
82673W        W44336  21.140  33.544   3.189
82674W        W44337  31.073  36.883  11.402
82675W        W44338  10.263  24.635  14.805
82676W        W44339  11.801  16.671  10.944
82677W        W44340  18.185  30.634   1.268
82678W        W44341  28.551   5.249  12.895
82679W        W44342  12.687  29.026  14.440
82680W        W44343  37.901  20.720  13.859
82681W        W44344  26.655   2.410  12.911
82682W        W44345  41.825  21.755  14.372
82683W        W44346  41.007  23.631  13.940
82684W        W44347  10.644  36.485  10.893
82685W        W44348  41.903  13.248  10.540
82686W        W44349  16.773   6.257   1.719
82687W        W44350   6.373   1.971   0.785
82688W        W44351   2.767  14.635   2.412
82689W        W44352  33.974  30.065  12.376
82690W        W44353  28.569  19.732   1.414
82691W        W44354  27.962  43.278   4.749
82692W        W44355  17.726  31.001   1.781
82693W        W44356   1.322  24.991  10.493
82694W        W44357  39.036  26.476   0.811
82695W        W44358  33.596   0.386  11.115
82696W        W44359  14.814  42.290   0.950
82697W        W44360  26.151   6.699   4.801
82698W        W44361  30.968   2.269  12.858
82699W        W44362  15.624  10.682   0.789
82700W        W44363   6.328   0.351  13.504
82701W        W44364  41.792  12.704   9.957
82702W        W44365  26.157  18.275   3.751
82703W        W44366  25.132  23.489  10.411
82704W        W44367  20.188  18.068   2.313
82705W        W44368  17.586  10.650   0.335
82706W        W44369  30.619  44.419   1.215
82707W        W44370  19.256   9.383   1.788
82708W        W44371  23.730  37.340  13.003
82709W        W44372  20.131  39.817   2.202
82710W        W44373  39.386  26.181   4.147
82711W        W44374  11.190   6.766  13.375
82712W        W44375  41.388   4.220  11.425
82713W        W44376   4.319   5.838   3.226
82714W        W44377  41.912  21.061   3.781
82715W        W44378   2.761  19.096  14.779
82716W        W44379  30.095  22.043   1.260
82717W        W44380  36.972  11.354   3.312
82718W        W44381   6.747  24.576   0.758
82719W        W44382  20.649  10.836   1.396
82720W        W44383  27.160   9.859  10.897
82721W        W44384  40.968  44.852   0.861
82722W        W44385  36.042  11.671   0.354
82723W        W44386  10.787  40.396   2.347
82724W        W44387  17.652  44.982   2.810
82725W        W44388  17.068  12.850  12.935
82726W        W44389  10.637  13.192   3.248
82727W        W44390  20.562  17.641  10.017
82728W        W44391  24.599  41.016  12.841
82729W        W44392  45.000  15.304  13.013
82730W        W44393  22.634  10.713   4.748
82731W        W44394  40.387  17.256   3.330
82732W        W44395  26.495   1.238  12.043
82733W        W44396  23.056   6.905  14.837
82734W        W44397  44.878  19.582  11.528
82735W        W44398  15.215  24.065   3.747
82736W        W44399   8.305  29.991  13.347
82737W        W44400  35.900  22.072  14.313
82738W        W44401  31.084  28.117   4.175
82739W        W44402   3.889   1.939   0.292
82740W        W44403  41.309  22.156   1.739
82741W        W44404   9.227   9.729  11.570
82742W        W44405   7.286  24.171  10.406
82743W        W44406  28.144  27.051  11.916
82744W        W44407  30.967  14.728  11.419
82745W        W44408   7.805  40.953  13.797
82746W        W44409  11.627  39.029  10.920
82747W        W44410  30.501  17.649  12.348
82748W        W44411  41.911  14.715   3.634
82749W        W44412   5.759   9.655  13.316
82750W        W44413   5.396  27.654   3.303
82751W        W44414  42.484  16.764  11.964
82752W        W44415  15.689   8.348  10.001
82753W        W44416  27.169  29.456  13.528
82754W        W44417   4.327   2.919  12.448
82755W        W44418  25.161  29.141   2.879
82756W        W44419  34.421  42.377  12.073
82757W        W44420  35.053   2.442   4.285
82758W        W44421  24.634   0.941  11.444
82759W        W44422   3.876  25.194   1.263
82760W        W44423   6.745  35.970   4.805
82761W        W44424  32.608  34.872  12.522
82762W        W44425  22.057   6.204  10.964
82763W        W44426  43.890   4.220   3.351
82764W        W44427   5.261  10.243   0.787
82765W        W44428  33.581   8.322  10.062
82766W        W44429  22.523   2.787  12.916
82767W        W44430  34.034  41.826  13.975
82768W        W44431  35.083  10.654  11.558
82769W        W44432   2.442  14.254  12.067
82770W        W44433  23.145   8.239   3.633
82771W        W44434  43.949  25.142  11.530
82772W        W44435  36.431  23.572  14.346
82773W        W44436  10.349  34.968   2.667
82774W        W44437   9.787  19.724  11.505
82775W        W44438  20.535  42.894   4.755
82776W        W44439  31.147   6.716  10.993
82777W        W44440  17.741  18.284  13.999
82778W        W44441  20.092  24.524   0.878
82779W        W44442  13.123  19.537   4.159
82780W        W44443   2.829  17.167  14.318
82781W        W44444   3.874  15.581   1.697
82782W        W44445  28.502  19.147  12.357
82783W        W44446  18.596  28.515  10.592
82784W        W44447   4.943  29.074   2.694
82785W        W44448  25.030  15.737   3.362
82786W        W44449  30.574   5.706  11.994
82787W        W44450   0.854  30.977   4.732
82788W        W44451  13.727  35.412   0.916
82789W        W44452  40.528  29.524   4.670
82790W        W44453  43.982   1.261  14.952
82791W        W44454   8.827  26.184   4.338
82792W        W44455  40.482  14.662   4.119
82793W        W44456  11.337   2.405  12.407
82794W        W44457  20.625   4.770   0.272
82795W        W44458   5.910  21.216  13.958
82796W        W44459   2.811  43.933   2.816
82797W        W44460  39.516  42.514   4.293
82798W        W44461  32.615  37.020  14.841
82799W        W44462  40.423  39.403  12.365
82800W        W44463  41.897  43.975  11.415
82801W        W44464  40.449  29.005  14.368
82802W        W44465  39.871  20.207   3.169
82803W        W44466  36.936  33.026  11.384
82804W        W44467   7.704  19.679   2.324
82805W        W44468  10.774  42.804   0.903
82806W        W44469  12.128  31.922  14.514
82807W        W44470  33.617  14.810  11.467
82808W        W44471  14.324  33.455  14.446
82809W        W44472  30.161  12.851  10.458
82810W        W44473   6.807  38.495   3.722
82811W        W44474  23.200  15.731  13.918
82812W        W44475  42.283   6.397  13.521
82813W        W44476  44.872  24.139   2.701
82814W        W44477   7.381  16.574  12.836
82815W        W44478  29.124  24.637  12.080
82816W        W44479  37.362  26.564  11.593
82817W        W44480  26.501  32.048  11.949
82818W        W44481  26.057   6.402   1.287
82819W        W44482  36.028  28.452  14.788
82820W        W44483  17.630   4.728   3.717
82821W        W44484  22.208   3.235  12.430
82822W        W44485  41.915  14.226  13.544
82823W        W44486  14.234   2.324   3.771
82824W        W44487  30.943  25.171   5.280
82825W        W44488  11.271  32.026  10.604
82826W        W44489  23.610   9.697  13.405
82827W        W44490  38.464  30.998  11.024
82828W        W44491   2.309  20.127   3.319
82829W        W44492  12.128  33.430  12.949
82830W        W44493  37.535  39.415   2.256
82831W        W44494   7.197  19.197  13.440
82832W        W44495  20.726  14.655  13.868
82833W        W44496  32.128  30.014  12.576
82834W        W44497  12.299  41.890   1.241
82835W        W44498  20.543  17.172  13.474
82836W        W44499  19.748  26.480  14.802
82837W        W44500  11.316   9.743  14.451
82838W        W44501  16.601  13.309  13.545
82839W        W44502   7.825  22.586   0.397
82840W        W44503  26.996  32.048   4.796
82841W        W44504  28.046  29.962  11.982
82842W        W44505  36.898  35.571   0.927
82843W        W44506  35.107  27.026  13.938
82844W        W44507  34.554  33.605   0.301
82845W        W44508   9.205  44.821   1.840
82846W        W44509  40.365  14.826  14.870
82847W        W44510   4.893  38.413   5.238
82848W        W44511  14.738   4.937   0.859
82849W        W44512  28.155  41.979  10.948
82850W        W44513  17.086  32.892  12.980
82851W        W44514  14.802  16.653   2.858
82852W        W44515   4.403  24.195  10.995
82853W        W44516  26.135   1.249  14.017
82854W        W44517   2.356  39.433  14.480
82855W        W44518  42.291  30.534   2.868
82856W        W44519  35.418  39.538  14.430
82857W        W44520  33.491   5.832  10.019
82858W        W44521  44.290   3.928  12.498
82859W        W44522  16.641   7.192   3.829
82860W        W44523  41.417  33.017   4.223
82861W        W44524  37.390  11.328  11.522
82862W        W44525  19.659  25.688  13.967
82863W        W44526   3.397  35.973  12.511
82864W        W44527   6.299   3.324   9.981
82865W        W44528  40.340  31.515   2.349
82866W        W44529  23.234  22.249   2.183
82867W        W44530  20.585  29.174   4.772
82868W        W44531  44.840   7.180  14.026
82869W        W44532  27.584  35.048  13.994
82870W        W44533  32.138  24.508   0.926
82871W        W44534  25.071  43.797  11.429
82872W        W44535  43.484   6.339  14.317
82873W        W44536  29.076  20.588  14.497
82874W        W44537  25.110  31.582  14.817
82875W        W44538  36.033   4.745  10.533
82876W        W44539  10.367  11.770  10.458
82877W        W44540  17.572   1.858  11.980
82878W        W44541  16.641  27.549  11.097
82879W        W44542  34.392  16.785  14.892
82880W        W44543  33.073  44.503  11.939
82881W        W44544   4.420  29.507  10.561
82882W        W44545  23.057  39.004   2.340
82883W        W44546  42.827  27.487   2.371
82884W        W44547  44.960  10.741  11.961
82885W        W44548  44.481  10.234  13.848
82886W        W44549   2.943  36.395  11.016
82887W        W44550  33.073  16.603  14.928
82888W        W44551  25.568  28.438   4.733
82889W        W44552  23.711  10.363  11.570
82890W        W44553  21.138  19.689   4.806
82891W        W44554  14.773  38.922  14.511
82892W        W44555  31.025   2.466   2.296
82893W        W44556   0.391  37.411  14.378
82894W        W44557  17.599  42.332  10.931
82895W        W44558   2.890   3.834   0.384
82896W        W44559  27.141  13.166   3.319
82897W        W44560  42.456  12.738  12.843
82898W        W44561  40.801   6.346   3.774
82899W        W44562  12.154  34.560   1.424
82900W        W44563  34.052  16.807   4.136
82901W        W44564   2.822  43.849   3.833
82902W        W44565  41.319  12.329   1.921
82903W        W44566  40.042   2.770   3.173
82904W        W44567   4.359  12.311  14.289
82905W        W44568  33.518  33.495   1.274
82906W        W44569   2.330   1.394   4.287
82907W        W44570  40.994  21.190  10.586
82908W        W44571  14.138  17.269  12.090
82909W        W44572  16.771   4.301  10.643
82910W        W44573   1.923  31.497   3.848
82911W        W44574   4.439   1.264  10.932
82912W        W44575  20.659  42.009  13.924
82913W        W44576  39.338   2.228   3.225
82914W        W44577  22.726  14.287   4.316
82915W        W44578  29.635  10.191   9.980
82916W        W44579  33.537  33.090   2.193
82917W        W44580  42.880   2.913   3.857
82918W        W44581  32.904  14.631  13.525
82919W        W44582  32.889  31.126   0.735
82920W        W44583  12.286  34.418   4.817
82921W        W44584  27.619  38.527   0.862
82922W        W44585  38.890  17.768  14.342
82923W        W44586  17.249   1.430   2.838
82924W        W44587  35.934  20.586  10.943
82925W        W44588  35.064  28.181  12.434
82926W        W44589  13.331  15.803  12.425
82927W        W44590  35.002  25.031  13.041
82928W        W44591   6.307  29.106   1.835
82929W        W44592  43.427  21.607  14.022
82930W        W44593  11.214  13.734   2.283
82931W        W44594  37.557  11.739   4.208
82932W        W44595  20.123  16.778   4.277
82933W        W44596  29.124  40.974  14.783
82934W        W44597  27.060  32.962   0.270
82935W        W44598  14.653   5.323   0.438
82936W        W44599   8.283  14.240  12.908
82937W        W44600  25.514  41.953   4.246
82938W        W44601  36.370  27.034   3.353
82939W        W44602  11.720  32.055  12.925
82940W        W44603  28.122  21.131  11.454
82941W        W44604  25.517  28.671   1.397
82942W        W44605  24.181  20.748  11.935
82943W        W44606   4.716  42.003   2.837
82944W        W44607  35.008  13.146  14.851
82945W        W44608   9.694   3.872  11.608
82946W        W44609  39.950  18.629   1.835
82947W        W44610  20.266  36.363  13.884
82948W        W44611   3.739  13.602  14.397
82949W        W44612  29.512  15.095  11.516
82950W        W44613  26.056  13.707  13.511
82951W        W44614  28.005  26.553  11.927
82952W        W44615  20.186  30.016  10.562
82953W        W44616  42.444   6.827  12.897
82954W        W44617  32.413  14.616   4.630
82955W        W44618  42.796  42.867  12.028
82956W        W44619  31.572  43.013  12.905
82957W        W44620   4.916  25.575   0.253
82958W        W44621   1.277  11.711   0.467
82959W        W44622  24.636  38.327   3.693
82960W        W44623  40.995  40.833   0.811
82961W        W44624  21.727   1.914  13.429
82962W        W44625  43.277  41.888  11.866
82963W        W44626  10.281  13.753   0.278
82964W        W44627  32.936  34.407  12.095
82965W        W44628   0.861  12.139   0.934
82966W        W44629  24.218  38.410   0.743
82967W        W44630   6.731  36.530   1.846
82968W        W44631  17.237   7.205  12.457
82969W        W44632  44.996  27.684   0.473
82970W        W44633  37.998  41.847  12.901
82971W        W44634  34.391  31.535  10.453
82972W        W44635  33.492  39.440  12.982
82973W        W44636  30.545  42.892  14.422
82974W        W44637   0.348  38.898   2.218
82975W        W44638  16.573  22.182  13.503
82976W        W44639  22.547  31.968   3.737
82977W        W44640  20.629   8.197   0.963
82978W        W44641   3.399  13.139   5.123
82979W        W44642  32.582  16.209   0.449
82980W        W44643  23.496  17.279  10.912
82981W        W44644  12.345  27.083   4.837
82982W        W44645  34.957   3.363   3.211
82983W        W44646  28.676  27.451  10.446
82984W        W44647  17.713  12.698   9.600
82985W        W44648  34.900   7.310  13.400
82986W        W44649  33.472   5.916   2.190
82987W        W44650  18.158  35.448  11.877
82988W        W44651  39.436  19.213   4.225
82989W        W44652  31.423  39.327   3.184
82990W        W44653  31.544  42.820  12.074
82991W        W44654   8.787   7.665   0.370
82992W        W44655  15.584   0.916   0.393
82993W        W44656  36.457  22.086   3.326
82994W        W44657  10.291  38.443   4.611
82995W        W44658  17.283   6.733   3.737
82996W        W44659   6.749  34.070   3.740
82997W        W44660  30.067  14.791   3.744
82998W        W44661  12.754  34.100   2.727
82999W        W44662   0.888  20.065  11.594
83000W        W44663  25.708  10.350   0.884
83001W        W44664  40.817  36.578  11.972
83002W        W44665  28.004  43.776  11.860
83003W        W44666  10.188   1.895   1.322
83004W        W44667   1.272  31.493  13.357
83005W        W44668  33.592   8.896   1.756
83006W        W44669  19.636  37.556  12.898
83007W        W44670  20.231  41.440  14.905
83008W        W44671  26.033   3.727   5.225
83009W        W44672  27.023  19.077  10.530
83010W        W44673  37.509  20.525   0.925
83011W        W44674   0.419  25.548   2.728
83012W        W44675   0.750  11.737  13.898
83013W        W44676  39.814  24.058  10.904
83014W        W44677   0.376   9.368  13.916
83015W        W44678   3.446   0.815   0.856
83016W        W44679  26.128   8.840  13.382
83017W        W44680  39.844   7.317   2.208
83018W        W44681  37.525  24.155   3.222
83019W        W44682  14.272  20.081  10.610
83020W        W44683   8.845  30.025  12.967
83021W        W44684  19.560  35.397   2.392
83022W        W44685  17.726  13.826   2.819
83023W        W44686  43.842  36.023  11.074
83024W        W44687  16.762  21.117  14.376
83025W        W44688  26.676  18.138   3.648
83026W        W44689  32.562  23.180   3.158
83027W        W44690  35.539  44.009  11.981
83028W        W44691  26.627  18.124   2.213
83029W        W44692  28.533  37.932  13.025
83030W        W44693  21.088  39.946  13.531
83031W        W44694  33.552  43.284   3.190
83032W        W44695  12.292  34.974   3.675
83033W        W44696   9.273  12.727   1.386
83034W        W44697  19.163   2.348  12.886
83035W        W44698  16.793  19.169   0.854
83036W        W44699  35.581  40.469   4.331
83037W        W44700  16.228  17.207  12.845
83038W        W44701  25.538  11.318   3.647
83039W        W44702  11.751  41.827   4.755
83040W        W44703  34.586   4.792  13.462
83041W        W44704  41.461  13.326   3.226
83042W        W44705  34.091  29.609   2.701
83043W        W44706  32.133  18.189   0.727
83044W        W44707  36.561  34.956   3.296
83045W        W44708   4.716  36.968   0.453
83046W        W44709  34.466   1.419  13.879
83047W        W44710  36.964   6.816  13.794
83048W        W44711  18.656  16.690   5.752
83049W        W44712  12.232  33.490   2.766
83050W        W44713  17.166  16.693  12.473
83051W        W44714  17.710  19.277  11.888
83052W        W44715  41.473  25.132  11.059
83053W        W44716  35.562  39.044  12.467
83054W        W44717   2.730  10.287   4.230
83055W        W44718  32.901  36.454  11.958
83056W        W44719  11.667   0.811  13.050
83057W        W44720   1.955  44.789   1.826
83058W        W44721  26.157  42.286  13.501
83059W        W44722  37.405  24.538   4.121
83060W        W44723  27.515  28.970  13.461
83061W        W44724  26.091  26.701   0.844
83062W        W44725  22.538  28.932   1.890
83063W        W44726  22.609  38.341   1.890
83064W        W44727   9.172  44.290   0.849
83065W        W44728  43.503  19.733  12.938
83066W        W44729  25.532   4.280  14.311
83067W        W44730  26.016  31.974   2.813
83068W        W44731  24.135  33.538   4.748
83069W        W44732  22.164  14.221  14.006
83070W        W44733  29.918   5.225   3.344
83071W        W44734   3.949  37.981  11.445
83072W        W44735  34.464  33.994  10.889
83073W        W44736   1.299  18.770   4.247
83074W        W44737   1.795  21.675  10.978
83075W        W44738   3.873   1.861   5.110
83076W        W44739  31.963  38.389  13.053
83077W        W44740  35.009  30.147  13.473
83078W        W44741  16.224  21.226  13.505
83079W        W44742  10.704  37.942   3.313
83080W        W44743  32.570  17.581   9.580
83081W        W44744  36.440  16.317   3.314
83082W        W44745   1.782   0.358  13.953
83083W        W44746  20.133  41.985   1.932
83084W        W44747  20.204  25.555  12.019
83085W        W44748  24.655  31.442  12.565
83086W        W44749  36.485  34.553  11.420
83087W        W44750  10.869  39.440   0.830
83088W        W44751  39.055  40.304  13.490
83089W        W44752   9.253   5.290  14.496
83090W        W44753   0.850   4.700   3.268
83091W        W44754  43.281  20.186   3.688
83092W        W44755  44.482  34.557  12.941
83093W        W44756  16.657  19.703  13.901
83094W        W44757  27.606  38.494   3.726
83095W        W44758  32.637  37.519  13.945
83096W        W44759  30.941  11.372   4.675
83097W        W44760  36.090  44.472  13.511
83098W        W44761  38.522  13.284  12.008
83099W        W44762  21.724  19.278  10.896
83100W        W44763   6.909  26.142  12.443
83101W        W44764  42.307  36.395  13.921
83102W        W44765  13.331   9.263  12.496
83103W        W44766  27.159  10.167   2.881
83104W        W44767   8.660  10.697   0.929
83105W        W44768  31.020  20.246  14.970
83106W        W44769   9.313  35.861   4.349
83107W        W44770   6.822  25.077  12.906
83108W        W44771  39.012  31.142  11.609
83109W        W44772  34.928  41.466   2.801
83110W        W44773  44.005  33.601   2.298
83111W        W44774  13.725  28.943  12.935
83112W        W44775   3.246  30.521  11.079
83113W        W44776  28.978  24.132  13.007
83114W        W44777   4.437  21.684  11.081
83115W        W44778  24.138  12.338  14.906
83116W        W44779  30.529  17.302   2.305
83117W        W44780  39.984  32.958  11.430
83118W        W44781  41.419  41.401  14.821
83119W        W44782  39.901  24.706   3.214
83120W        W44783  38.447  26.123  13.830
83121W        W44784   9.368  37.452  12.063
83122W        W44785   3.392  17.556  13.446
83123W        W44786  15.236  10.720  10.512
83124W        W44787  19.261  33.039  11.933
83125W        W44788  20.090  38.009   2.414
83126W        W44789  18.622  26.594   9.920
83127W        W44790  23.991  33.419  12.074
83128W        W44791  10.246  17.242   0.371
83129W        W44792  19.203  44.402   1.822
83130W        W44793  26.491  30.618  11.129
83131W        W44794   5.237  39.363  11.095
83132W        W44795   1.309  20.228  13.965
83133W        W44796   1.789   1.893  10.993
83134W        W44797   0.334  24.003  10.486
83135W        W44798  27.956   3.390   2.881
83136W        W44799   9.173  24.676  12.410
83137W        W44800  10.859  32.108   3.314
83138W        W44801   3.831  39.496  12.555
83139W        W44802  20.650  39.853  14.828
83140W        W44803  15.816  20.182  10.983
83141W        W44804   3.849  31.080   3.854
83142W        W44805  27.544  34.590  12.852
83143W        W44806  35.419  22.108  12.413
83144W        W44807  26.007  39.419  10.643
83145W        W44808   9.308  37.057  12.876
83146W        W44809  42.871  33.398  10.627
83147W        W44810  19.130  18.575   3.284
83148W        W44811  17.720  37.452  11.400
83149W        W44812  35.934   5.798   2.288
83150W        W44813   3.880  23.116  11.515
83151W        W44814  22.557  35.924  12.007
83152W        W44815  23.093  21.714   0.396
83153W        W44816  23.545  21.248  13.417
83154W        W44817  30.975  34.908   3.649
83155W        W44818  24.618   1.262   4.731
83156W        W44819   5.772   0.980   0.835
83157W        W44820  42.313  15.802  13.882
83158W        W44821  32.410  15.650  11.002
83159W        W44822  34.416  36.846  14.402
83160W        W44823  24.007   9.701   3.712
83161W        W44824  41.530  31.979   3.629
83162W        W44825  11.208  24.485  13.858
83163W        W44826  28.929  39.440  11.442
83164W        W44827  38.068  43.272  11.071
83165W        W44828   8.338  41.420   4.193
83166W        W44829  26.697  38.036  11.540
83167W        W44830  20.533  37.859   2.848
83168W        W44831  18.552  25.155   0.404
83169W        W44832  10.876  34.489   0.279
83170W        W44833  36.390   2.913  14.866
83171W        W44834   0.415  20.122   2.856
83172W        W44835   2.942  38.529  13.458
83173W        W44836  24.520   5.893  11.518
83174W        W44837   2.786   0.791  13.881
83175W        W44838  19.270  44.413   1.406
83176W        W44839   1.238  10.771   2.870
83177W        W44840  40.364  10.842   3.869
83178W        W44841  32.523  39.420  11.577
83179W        W44842   1.334  20.077  12.377
83180W        W44843  22.102  21.180  10.577
83181W        W44844  16.079  37.886   3.772
83182W        W44845  42.321   2.414   1.439
83183W        W44846  31.953  14.328   3.318
83184W        W44847   5.705  42.953   3.839
83185W        W44848  30.996  33.572   1.320
83186W        W44849  22.636  37.982  10.600
83187W        W44850  29.665  28.448   0.940
83188W        W44851   4.365  10.731  14.907
83189W        W44852  43.512  42.027   3.361
83190W        W44853  10.174  34.530  10.419
83191W        W44854  10.804   5.811   0.818
83192W        W44855  13.808  15.741  13.986
83193W        W44856  40.013  12.827  14.372
83194W        W44857  42.453  24.523   4.201
83195W        W44858   2.272  11.726  11.462
83196W        W44859  19.640  36.948  11.041
83197W        W44860   0.492   1.931  10.891
83198W        W44861  35.404  25.702   1.225
83199W        W44862  13.817   8.172  13.479
83200W        W44863  25.567  44.313   1.262
83201W        W44864   7.732  22.571   1.867
83202W        W44865   5.394   6.404   9.999
83203W        W44866  25.984   7.798   0.752
83204W        W44867  34.099  10.869   4.336
83205W        W44868  15.215   3.351  11.872
83206W        W44869  28.506  24.524  11.506
83207W        W44870  26.050  32.582   3.755
83208W        W44871  39.491  32.012   9.923
83209W        W44872  40.003  18.137  13.037
83210W        W44873  41.952  36.571  11.943
83211W        W44874   8.277  19.260  13.977
83212W        W44875   0.864  17.143  12.911
83213W        W44876  26.972  10.807   0.268
83214W        W44877  14.826  16.144  12.856
83215W        W44878   7.342   7.410  10.548
83216W        W44879  12.319  17.296  14.385
83217W        W44880  21.518  40.986  14.488
83218W        W44881   1.279  30.147   2.671
83219W        W44882  31.016   8.717  12.910
83220W        W44883   5.877  38.492   3.728
83221W        W44884  15.739   8.239  12.861
83222W        W44885  18.268   0.776   3.250
83223W        W44886  25.137  31.104   4.713
83224W        W44887  27.027  43.989   4.168
83225W        W44888  30.506  25.179   4.166
83226W        W44889  26.467  22.602  12.491
83227W        W44890  31.481  36.582   2.680
83228W        W44891  33.979  28.465   2.379
83229W        W44892  32.931   2.818  13.463
83230W        W44893  36.948  30.127  12.428
83231W        W44894  24.589  17.106  12.008
83232W        W44895  39.520  26.142   3.698
83233W        W44896   7.369  20.717   4.205
83234W        W44897   9.721  39.540  10.515
83235W        W44898  37.881   1.880   2.819
83236W        W44899  33.951  14.681  14.792
83237W        W44900   6.729  16.629   3.630
83238W        W44901  28.477  43.000  10.480
83239W        W44902  26.111   3.359  12.379
83240W        W44903   2.236   0.343  11.977
83241W        W44904   1.882  19.537  12.852
83242W        W44905  40.342  34.007   3.213
83243W        W44906  29.601  27.194   0.781
83244W        W44907  39.428  34.110   2.358
83245W        W44908  30.484  43.336  11.485
83246W        W44909  11.734  39.006  13.885
83247W        W44910  34.610  20.731   0.467
83248W        W44911   0.802  17.271   3.157
83249W        W44912  26.143  22.152   3.296
83250W        W44913  36.940  15.294   4.274
83251W        W44914  12.793  41.038   4.126
83252W        W44915  15.133  15.590   2.773
83253W        W44916  31.025  41.297   5.106
83254W        W44917  15.240  33.084  14.829
83255W        W44918  33.917   0.319   1.882
83256W        W44919  30.438  39.054  14.427
83257W        W44920  13.293  38.571  11.418
83258W        W44921  14.147   7.306   3.734
83259W        W44922   7.856  25.659   1.733
83260W        W44923   0.852  20.221   2.750
83261W        W44924   1.331  21.618   4.185
83262W        W44925   4.890  29.473  12.904
83263W        W44926  34.379   2.956  11.512
83264W        W44927  17.690  22.669   0.456
83265W        W44928  31.017  40.390  14.344
83266W        W44929  32.555  19.088   1.363
83267W        W44930  21.530  20.148  13.854
83268W        W44931  42.936  12.270  12.088
83269W        W44932   0.945  16.737   2.243
83270W        W44933  42.313   3.312   2.183
83271W        W44934  30.482   4.727  13.538
83272W        W44935  12.688  10.153   2.886
83273W        W44936   0.923  26.007  12.009
83274W        W44937  29.614  39.997   4.673
83275W        W44938  25.592  42.444   4.319
83276W        W44939  17.202  24.552  14.857
83277W        W44940  34.440  15.755  14.462
83278W        W44941  28.941  25.128  13.842
83279W        W44942  19.536  42.323  11.005
83280W        W44943  30.550  18.202   4.808
83281W        W44944  18.183  31.021   4.183
83282W        W44945   8.899  15.189  13.026
83283W        W44946  23.162  27.473  12.014
83284W        W44947  10.242  29.027   1.301
83285W        W44948  40.332  42.906   0.894
83286W        W44949  30.039  36.456   2.380
83287W        W44950  13.117   3.396  13.878
83288W        W44951  11.181  20.251  11.575
83289W        W44952  26.002  29.072   0.794
83290W        W44953  36.461  41.987   4.317
83291W        W44954   5.403  16.775   3.193
83292W        W44955  20.535  22.112  10.473
83293W        W44956  23.038   4.323  11.408
83294W        W44957  39.465  19.724  12.449
83295W        W44958  42.938  37.876   3.239
83296W        W44959  31.005  16.782   4.209
83297W        W44960  14.192  14.276   2.392
83298W        W44961  40.873  24.028   0.268
83299W        W44962   7.771  38.424  14.285
83300W        W44963  35.484  11.329   4.215
83301W        W44964   7.887  23.241   2.895
83302W        W44965  20.746   0.828   4.289
83303W        W44966  19.602  41.880  11.996
83304W        W44967   4.425  19.780  14.275
83305W        W44968  44.455  19.677   3.649
83306W        W44969  30.617  43.371  14.360
83307W        W44970   4.379  43.394  10.957
83308W        W44971   9.677  18.634   4.318
83309W        W44972  14.331   0.896  14.760
83310W        W44973  34.434  16.310  10.910
83311W        W44974   6.827  34.567  12.479
83312W        W44975  38.009  18.696  10.125
83313W        W44976  14.270   4.923  11.935
83314W        W44977  32.931  41.313   4.598
83315W        W44978  23.123   0.480  13.808
83316W        W44979  44.271  27.109  14.887
83317W        W44980  39.439  44.347  13.929
83318W        W44981  21.218   8.758  13.907
83319W        W44982  36.891  14.706  10.934
83320W        W44983   6.256  25.486   2.223
83321W        W44984  41.006  23.491   0.778
83322W        W44985   7.370  15.233  11.390
83323W        W44986  24.147  42.024  10.619
83324W        W44987  24.595   6.313   2.370
83325W        W44988  42.916  38.022   4.249
83326W        W44989  11.788   4.761  11.975
83327W        W44990  19.717  27.991  10.918
83328W        W44991   9.360  42.373   3.865
83329W        W44992   6.254  41.367   2.362
83330W        W44993   9.343  27.988   0.916
83331W        W44994   6.694   6.324   2.762
83332W        W44995  11.716  31.037  11.010
83333W        W44996  41.524  29.584   3.315
83334W        W44997   3.353  44.286  13.832
83335W        W44998  41.031  22.201  11.588
83336W        W44999  17.618  34.427  12.430
83337W        W45000  40.857  42.523   1.405
83338W        W45001  32.098  43.302   2.686
83339W        W45002  26.686   7.283   1.269
83340W        W45003  17.738  10.283   4.714
83341W        W45004   5.334  17.076  10.130
83342W        W45005  32.629  44.380   3.765
83343W        W45006   6.915  42.806  12.375
83344W        W45007   5.211  31.452   0.787
83345W        W45008  30.073  42.958  10.508
83346W        W45009  44.476  17.606  14.379
83347W        W45010  17.219   7.381   4.825
83348W        W45011  43.382  32.392  14.856
83349W        W45012  34.923  28.993   2.383
83350W        W45013   9.725  30.055  11.548
83351W        W45014  42.012  11.717   1.915
83352W        W45015  20.742  16.306   1.371
83353W        W45016  14.182  33.402   0.788
83354W        W45017  34.590  12.855   3.298
83355W        W45018  42.841   1.442   0.757
83356W        W45019  25.635  19.231  12.001
83357W        W45020  19.147   7.691   4.693
83358W        W45021  30.618   1.330   2.196
83359W        W45022  43.955  30.152   4.718
83360W        W45023  39.901  11.226   1.805
83361W        W45024  26.658   7.245  10.902
83362W        W45025   5.927  14.787   2.218
83363W        W45026  31.144   4.845  14.445
83364W        W45027  20.274  32.918   2.328
83365W        W45028  14.801   0.849  12.997
83366W        W45029  41.830  23.686   1.917
83367W        W45030  10.216  11.682   3.201
83368W        W45031  30.067  40.527  13.502
83369W        W45032  19.155  25.058  11.402
83370W        W45033  19.279  16.080  13.437
83371W        W45034  36.012  29.152  13.801
83372W        W45035  21.685  34.041   0.362
83373W        W45036   7.870  13.313  10.562
83374W        W45037   1.906  17.694  14.847
83375W        W45038  11.674  35.432   2.261
83376W        W45039   5.931  24.989   3.202
83377W        W45040   4.220  14.307   0.923
83378W        W45041  12.786  25.137   1.400
83379W        W45042  19.779   2.301   2.282
83380W        W45043  13.208  20.067   2.199
83381W        W45044  27.046  40.953  14.786
83382W        W45045  22.144   1.924  13.973
83383W        W45046   4.212  43.016   3.673
83384W        W45047   9.325  25.580   4.765
83385W        W45048  24.099   6.367  12.366
83386W        W45049  37.876  16.646  11.545
83387W        W45050  28.008  22.591  13.416
83388W        W45051  32.952  11.335  11.913
83389W        W45052  12.823   3.779   2.824
83390W        W45053  42.891  32.566  12.397
83391W        W45054  24.497  39.474   1.720
83392W        W45055  36.010  44.886   2.664
83393W        W45056  31.532  44.904  14.348
83394W        W45057  13.283  12.836  13.478
83395W        W45058  12.192  39.838  12.003
83396W        W45059  11.673  23.201   3.699
83397W        W45060  44.952  23.231   3.360
83398W        W45061  25.521  29.534   4.780
83399W        W45062  24.534  22.175  13.324
83400W        W45063  16.184  15.181   5.270
83401W        W45064  41.851  29.000  12.828
83402W        W45065  41.041  18.272  11.412
83403W        W45066  43.289  25.543   4.153
83404W        W45067  43.815   1.251   3.668
83405W        W45068   1.961  23.039  10.426
83406W        W45069   8.333  22.529   1.771
83407W        W45070  35.438  39.480   0.299
83408W        W45071  25.513  10.272  10.982
83409W        W45072  15.154   7.233  13.354
83410W        W45073  25.047  25.691  13.521
83411W        W45074  42.370  38.453   3.186
83412W        W45075  32.027  10.719   2.896
83413W        W45076  10.360  35.927  14.895
83414W        W45077  27.102  16.146   1.261
83415W        W45078   0.456  22.689   4.612
83416W        W45079  23.522   3.954   2.753
83417W        W45080  39.865   8.676  11.055
83418W        W45081  22.502  23.227  11.100
83419W        W45082  24.056  30.129  13.415
83420W        W45083  13.152  22.652  11.920
83421W        W45084  18.549  25.051   5.084
83422W        W45085  36.433   9.274   2.221
83423W        W45086  44.447  34.388   0.799
83424W        W45087  36.909  11.239   4.757
83425W        W45088  40.452   9.375  13.939
83426W        W45089  34.006  26.967  14.932
83427W        W45090  18.588  35.452  12.963
83428W        W45091  33.090  33.897   1.928
83429W        W45092  27.591  34.543   1.739
83430W        W45093  24.525  12.631  14.794
83431W        W45094   9.320   5.354   4.816
83432W        W45095  21.063  22.714   3.708
83433W        W45096  26.481   4.361   0.951
83434W        W45097   7.405   8.390  14.336
83435W        W45098  36.587  12.705   1.434
83436W        W45099  35.527  33.510  13.470
83437W        W45100   5.691   5.789   3.805
83438W        W45101   2.227  44.471  14.445
83439W        W45102  15.805  37.350  10.590
83440W        W45103  29.471  31.420   2.807
83441W        W45104  24.562  14.153  11.012
83442W        W45105  44.819  22.519  10.145
83443W        W45106   9.759  34.946   0.962
83444W        W45107  44.292  35.407   3.751
83445W        W45108   5.318  11.737   4.253
83446W        W45109  11.324  17.660   1.757
83447W        W45110  24.979  18.660  11.005
83448W        W45111  25.521  37.402  13.951
83449W        W45112  16.680  36.534  14.012
83450W        W45113  30.584   9.874   3.717
83451W        W45114  44.951  14.105   1.808
83452W        W45115  33.946   1.274  11.875
83453W        W45116  24.016  22.178   1.280
83454W        W45117   0.803  19.690   2.847
83455W        W45118  29.660  44.344  14.824
83456W        W45119   9.813  31.563  14.027
83457W        W45120  10.634  33.407   4.778
83458W        W45121   9.345  43.771   2.771
83459W        W45122  43.451  11.284   3.672
83460W        W45123   5.288  18.556  12.052
83461W        W45124  22.172  24.715   1.243
83462W        W45125  44.898   2.881  11.969
83463W        W45126  20.029  36.416   4.186
83464W        W45127  31.917   0.308   3.646
83465W        W45128  20.534   1.959   3.698
83466W        W45129   2.784  37.880   3.245
83467W        W45130   9.802   6.712  12.890
83468W        W45131  19.775   7.848   4.233
83469W        W45132  22.511  20.230   4.653
83470W        W45133  26.665  24.581   2.844
83471W        W45134  19.240  20.132  14.373
83472W        W45135  31.612  19.203   0.291
83473W        W45136   8.169  23.050   2.307
83474W        W45137  34.523  33.086   0.759
83475W        W45138  30.470   2.311   0.772
83476W        W45139  14.636  23.207  10.937
83477W        W45140  33.590  38.933  14.284
83478W        W45141  31.946  36.448   0.921
83479W        W45142  10.667  22.596   3.176
83480W        W45143  27.069  41.043   2.362
83481W        W45144  21.577   9.313   1.883
83482W        W45145  40.884   7.670   4.237
83483W        W45146  34.483  33.103   1.792
83484W        W45147  18.564  15.615   4.255
83485W        W45148   7.768  12.708  13.951
83486W        W45149  43.424   9.806  13.367
83487W        W45150  24.002  31.477  11.977
83488W        W45151  10.710  18.252   1.276
83489W        W45152  40.358  40.542  14.500
83490W        W45153  10.800   2.741  12.899
83491W        W45154   3.955  42.477   1.425
83492W        W45155  44.284  43.403   2.356
83493W        W45156   7.730  14.196   3.674
83494W        W45157  12.767  27.034   1.811
83495W        W45158  24.685  12.282  12.951
83496W        W45159  16.593   5.746   3.209
83497W        W45160   7.335   3.262   1.932
83498W        W45161  27.532  31.426  10.476
83499W        W45162  11.275  27.947  13.808
83500W        W45163  18.739  17.597  13.992
83501W        W45164  27.596  19.130   3.731
83502W        W45165  26.547   4.420  13.484
83503W        W45166  18.638  38.542  11.570
83504W        W45167  18.085  42.029  14.849
83505W        W45168  34.486   3.319   2.288
83506W        W45169  34.592  17.654   4.197
83507W        W45170  24.168  34.045   4.202
83508W        W45171  27.053   6.293   1.786
83509W        W45172  10.179  43.886   4.786
83510W        W45173  40.025  34.960   2.840
83511W        W45174  41.009  38.374   0.733
83512W        W45175  41.516  15.224   3.179
83513W        W45176  42.775  39.894   4.315
83514W        W45177  38.557   9.773   1.398
83515W        W45178  38.333  20.043  11.397
83516W        W45179   4.425  16.567  12.400
83517W        W45180  37.412  28.150  13.915
83518W        W45181   2.284  19.634  11.882
83519W        W45182  29.046  18.247   1.877
83520W        W45183  41.984  27.498  10.973
83521W        W45184  39.390  27.685  11.371
83522W        W45185   4.220  37.975  11.924
83523W        W45186   0.878  27.553  12.022
83524W        W45187  16.636  30.907   4.827
83525W        W45188  36.879  17.593  13.468
83526W        W45189  41.457  25.599  12.895
83527W        W45190  42.840  19.059  10.442
83528W        W45191  11.158   1.965   2.388
83529W        W45192  19.756  40.014  11.934
83530W        W45193  43.403  33.514  10.419
83531W        W45194   4.877   2.955  14.919
83532W        W45195  44.433  22.737   5.121
83533W        W45196  23.146  32.629  14.424
83534W        W45197   0.746  16.145  11.972
83535W        W45198  12.848   5.386  11.506
83536W        W45199  40.970  33.449   0.952
83537W        W45200  36.043  12.237   2.280
83538W        W45201  25.103  20.704   4.257
83539W        W45202  25.504  15.648   1.780
83540W        W45203  28.495  31.025  10.560
83541W        W45204  22.626  22.163  14.368
83542W        W45205  13.198  38.365  12.864
83543W        W45206  21.145  35.998  10.607
83544W        W45207  11.141  28.037   1.279
83545W        W45208  35.065  17.559  11.540
83546W        W45209  36.051  40.802  11.477
83547W        W45210  30.586  35.395   3.321
83548W        W45211   9.328   9.738  12.425
83549W        W45212  43.808  12.643   3.775
83550W        W45213   8.274  30.953   4.135
83551W        W45214  36.878  12.766   1.773
83552W        W45215  22.622  10.653   3.303
83553W        W45216  37.348  21.680   1.332
83554W        W45217  19.055  29.568   3.356
83555W        W45218  21.718  37.911  13.832
83556W        W45219  15.243  27.469  14.928
83557W        W45220  24.990  22.729   2.296
83558W        W45221  31.477  44.439  14.927
83559W        W45222  28.099  40.006   4.142
83560W        W45223  12.198  34.004  10.976
83561W        W45224  21.748   0.837  11.874
83562W        W45225  42.507   8.369  13.054
83563W        W45226   8.326  44.894   2.353
83564W        W45227  17.296  31.631  10.634
83565W        W45228  15.308  40.441   4.651
83566W        W45229  21.213  15.635   3.305
83567W        W45230  36.865   1.243  12.563
83568W        W45231  29.475  11.306   2.715
83569W        W45232   2.901  23.605   0.875
83570W        W45233  10.852   6.805   0.372
83571W        W45234  29.493   3.318   2.200
83572W        W45235   1.846  38.385  11.891
83573W        W45236  27.560  19.266   0.258
83574W        W45237   0.293  21.121   9.997
83575W        W45238  21.712  39.370  13.390
83576W        W45239  24.135  10.746   2.297
83577W        W45240  40.867  37.060   2.791
83578W        W45241  36.995  39.321   1.337
83579W        W45242  24.568  42.900   3.690
83580W        W45243  36.448  28.936   4.698
83581W        W45244  32.130   6.276   9.597
83582W        W45245  41.806   4.769   1.882
83583W        W45246  16.265  28.590  10.635
83584W        W45247  11.705  36.965  14.487
83585W        W45248  30.535  13.252  13.858
83586W        W45249  15.625  16.174  12.026
83587W        W45250  41.319  22.662  14.013
83588W        W45251  36.485  18.285   0.279
83589W        W45252  41.043  33.558  10.894
83590W        W45253  14.231  29.520  14.792
83591W        W45254  24.601  21.154  13.312
83592W        W45255  39.491  38.390  14.337
83593W        W45256  15.612  26.962   4.825
83594W        W45257   2.352  13.689  14.387
83595W        W45258  34.570  26.468   2.417
83596W        W45259  11.158  27.680   2.836
83597W        W45260  18.088  11.211  10.587
83598W        W45261   5.736  26.603   3.858
83599W        W45262  12.667   6.683  10.526
83600W        W45263  41.885  31.402  11.043
83601W        W45264  31.589  16.233   4.135
83602W        W45265   3.331  16.135  13.347
83603W        W45266  32.115  17.666   1.342
83604W        W45267  29.642  14.236   2.408
83605W        W45268  42.376   5.211   2.803
83606W        W45269  12.210  30.587   1.327
83607W        W45270   7.868  18.561  14.907
83608W        W45271   6.407  38.343  13.030
83609W        W45272  32.975   5.914  14.843
83610W        W45273   5.281   6.413   1.309
83611W        W45274  11.191  43.916   1.230
83612W        W45275  12.834  35.899  10.081
83613W        W45276  38.418  12.165  13.425
83614W        W45277   4.905  29.956   0.362
83615W        W45278  44.322  40.315  12.008
83616W        W45279  23.034   4.322   2.209
83617W        W45280  23.993  17.093  13.814
83618W        W45281  10.251  31.103   1.326
83619W        W45282  43.841  20.212  11.436
83620W        W45283   2.754  26.631  14.492
83621W        W45284  26.052  31.642  11.533
83622W        W45285   2.370  35.892  14.917
83623W        W45286  31.139  14.330  12.507
83624W        W45287  44.267  21.149  10.954
83625W        W45288  17.129  24.127   1.861
83626W        W45289  21.596  44.757  14.966
83627W        W45290  21.514   0.336  13.913
83628W        W45291  40.523  33.505  14.955
83629W        W45292  34.062  23.196   1.331
83630W        W45293   3.319  11.359   2.844
83631W        W45294  32.023  40.907   1.398
83632W        W45295  18.593  26.999  11.968
83633W        W45296   0.978  32.421   2.332
83634W        W45297  33.112   5.416   2.677
83635W        W45298  27.515  15.709  10.483
83636W        W45299   3.381  43.962   2.354
83637W        W45300  24.490  14.612   4.782
83638W        W45301  23.617   1.789   4.203
83639W        W45302  38.513  39.361   1.808
83640W        W45303  31.951  15.763   1.214
83641W        W45304   8.756   2.768   2.808
83642W        W45305   2.390  22.144   2.210
83643W        W45306  32.459  32.504  14.880
83644W        W45307  29.592   0.879   4.627
83645W        W45308   6.881   1.271   1.890
83646W        W45309  12.738  15.254  14.856
83647W        W45310  41.006  25.585  14.029
83648W        W45311   3.448  38.344  14.821
83649W        W45312  43.504  16.305   0.935
83650W        W45313  32.098   4.207  13.037
83651W        W45314  10.856   5.903   4.674
83652W        W45315   9.183   2.781  11.083
83653W        W45316  36.389  37.962  13.395
83654W        W45317  24.685  10.197   4.158
83655W        W45318   4.216  33.451   1.915
83656W        W45319  10.146   1.937   2.879
83657W        W45320  34.604  42.436  14.789
83658W        W45321  35.937  36.874  14.796
83659W        W45322  31.936  30.578   2.896
83660W        W45323  25.030  21.254  14.895
83661W        W45324  28.526  10.844  10.509
83662W        W45325  17.293  44.273  14.360
83663W        W45326   6.793  33.959  10.911
83664W        W45327   8.274  17.187  11.929
83665W        W45328  16.180  44.945  13.506
83666W        W45329  43.859  37.919  13.965
83667W        W45330  31.437   8.378  14.438
83668W        W45331  23.012   4.726   0.816
83669W        W45332  23.064  40.846   0.829
83670W        W45333  33.537  10.274   0.944
83671W        W45334  26.091  13.783   4.689
83672W        W45335  24.170  14.259   3.194
83673W        W45336  44.925  36.528  10.425
83674W        W45337  24.980  37.970  12.568
83675W        W45338  38.568  42.889   4.646
83676W        W45339  18.247  44.836   4.757
83677W        W45340  11.255  36.080   9.661
83678W        W45341   3.916  20.616  12.531
83679W        W45342  16.108  31.964  13.401
83680W        W45343   5.834   9.156   3.809
83681W        W45344  10.141  19.671  11.608
83682W        W45345  21.086  24.700  14.822
83683W        W45346  20.756  40.841  11.435
83684W        W45347   0.810   3.234   3.665
83685W        W45348  29.568  43.327   4.766
83686W        W45349  20.127  28.541   4.142
83687W        W45350  33.595   1.859  13.828
83688W        W45351   2.453   0.477   2.722
83689W        W45352  42.281  31.013  11.077
83690W        W45353   6.357  12.642  11.108
83691W        W45354  12.663  36.035   0.941
83692W        W45355  19.576  31.019   1.301
83693W        W45356   2.379   3.374   2.743
83694W        W45357  13.309   1.884  11.939
83695W        W45358  25.490   5.707   3.210
83696W        W45359   8.743  38.979   1.238
83697W        W45360   6.911   1.806  13.796
83698W        W45361   8.685  33.589   1.316
83699W        W45362  18.625  31.914   0.752
83700W        W45363   2.296   4.432   1.718
83701W        W45364  42.316   2.287  11.021
83702W        W45365  19.768  38.359   3.285
83703W        W45366  22.538  26.490  10.548
83704W        W45367  24.189  42.000  12.465
83705W        W45368   1.237  10.717   2.303
83706W        W45369   6.818  29.055   2.704
83707W        W45370  18.146  44.874   3.714
83708W        W45371  29.942  17.129   2.883
83709W        W45372  26.662  24.583  12.936
83710W        W45373  20.583  31.584   4.336
83711W        W45374   8.258   4.210   3.191
83712W        W45375  26.167  11.679   3.864
83713W        W45376  36.866  12.785   4.327
83714W        W45377   5.210  36.537  14.416
83715W        W45378  12.659  33.062   4.624
83716W        W45379  12.696  42.354  14.900
83717W        W45380  44.758  21.261  12.342
83718W        W45381  33.917  30.138   4.269
83719W        W45382  14.720  28.661   4.205
83720W        W45383  10.709   8.869   3.859
83721W        W45384   6.806  36.393  11.072
83722W        W45385  23.035  13.333   2.254
83723W        W45386  24.507  37.549   5.303
83724W        W45387  31.935  42.489   2.387
83725W        W45388  23.240  24.509  11.406
83726W        W45389  19.049   0.441  11.039
83727W        W45390  31.033  14.210  14.342
83728W        W45391  22.061   4.356   4.169
83729W        W45392   7.681  12.190   2.760
83730W        W45393  37.389   8.676   0.874
83731W        W45394  35.956  20.071  13.486
83732W        W45395  43.917  18.670   2.853
83733W        W45396   0.923  23.167   3.768
83734W        W45397  41.009  12.819   3.824
83735W        W45398  21.169   5.421  12.897
83736W        W45399  22.997  25.048  14.925
83737W        W45400   8.716  20.572  10.425
83738W        W45401  36.076  23.997  11.499
83739W        W45402  13.345  40.033   3.309
83740W        W45403  32.107  31.077  12.840
83741W        W45404  41.874   3.779   1.723
83742W        W45405   3.411  12.160  11.475
83743W        W45406  24.043   1.860  13.950
83744W        W45407  13.129  43.425  11.507
83745W        W45408  11.206  30.994   2.716
83746W        W45409  29.564   5.348  11.996
83747W        W45410  15.653   2.293  13.349
83748W        W45411  43.948  14.649  13.346
83749W        W45412  10.355  27.570  13.899
83750W        W45413   3.262  22.600  12.004
83751W        W45414  42.870  14.815   0.267
83752W        W45415  42.445  38.839  10.994
83753W        W45416  28.168  37.436   5.195
83754W        W45417   3.778  44.880  13.447
83755W        W45418  16.706   5.875   4.115
83756W        W45419  27.109  16.619   0.314
83757W        W45420  36.014   5.717  13.858
83758W        W45421  30.607  29.545  14.762
83759W        W45422  36.009  27.168   4.280
83760W        W45423  41.375  19.221   4.668
83761W        W45424  20.633  11.245   0.336
83762W        W45425  19.277  10.192  11.100
83763W        W45426  19.569   9.820  11.919
83764W        W45427   6.346  27.995  12.428
83765W        W45428  17.237   3.711   3.181
83766W        W45429  35.562   5.210  11.443
83767W        W45430  16.731  37.022   3.263
83768W        W45431  18.198  13.210   0.245
83769W        W45432   1.840   7.865   0.927
83770W        W45433  19.780   3.932   0.927
83771W        W45434  10.161  10.701   0.884
83772W        W45435  18.232  14.696   0.281
83773W        W45436  25.174  15.757  13.904
83774W        W45437  11.751  22.055   1.796
83775W        W45438  40.963   7.283   0.956
83776W        W45439   0.764   7.195   0.366
83777W        W45440  28.116  41.483   1.305
83778W        W45441  19.557  14.741  12.921
83779W        W45442  41.976  16.790  10.898
83780W        W45443  25.570  41.814  14.476
83781W        W45444  40.996  31.607   1.374
83782W        W45445   8.678  25.170  14.341
83783W        W45446  11.719  18.590  12.395
83784W        W45447  14.116   2.360  12.004
83785W        W45448  42.365  29.116   0.828
83786W        W45449  42.778  39.541   0.797
83787W        W45450  12.195  10.220  14.967
83788W        W45451   9.156  23.495   2.371
83789W        W45452  37.039  32.010   0.763
83790W        W45453   8.364  16.194   2.682
83791W        W45454  15.612  23.592   2.179
83792W        W45455  29.969   5.893   3.289
83793W        W45456   3.944  19.710   1.720
83794W        W45457   8.381  34.047   1.364
83795W        W45458  23.137  39.480  12.881
83796W        W45459  35.101  34.577   0.314
83797W        W45460  13.728  17.669  12.360
83798W        W45461  20.715  41.299   1.882
83799W        W45462  16.140  19.721   0.308
83800W        W45463  31.613   3.900  11.514
83801W        W45464   2.938  22.691   3.316
83802W        W45465  30.159  36.082   2.871
83803W        W45466  33.579  35.105   4.279
83804W        W45467   5.909  12.793  10.994
83805W        W45468  22.603  39.869  12.445
83806W        W45469   7.263  36.586   0.965
83807W        W45470  23.578   9.855   4.710
83808W        W45471  10.691  28.022  10.407
83809W        W45472  28.180   0.437  13.019
83810W        W45473  33.575   2.737  10.555
83811W        W45474  32.417  31.446  13.931
83812W        W45475  13.615  20.240  14.409
83813W        W45476  39.385  24.052   3.345
83814W        W45477  34.562  23.210   4.259
83815W        W45478  10.712  36.468   4.273
83816W        W45479  42.469  18.599   1.728
83817W        W45480  26.610  15.801   2.237
83818W        W45481  30.103   2.281   1.834
83819W        W45482  29.114  44.435   4.617
83820W        W45483  37.848   6.275   0.391
83821W        W45484  26.046  29.077  12.020
83822W        W45485  32.026  23.103  12.940
83823W        W45486  17.758  36.952  12.916
83824W        W45487   7.766  35.047   3.678
83825W        W45488  24.160   3.926  12.347
83826W        W45489  28.170  28.007   2.383
83827W        W45490  12.158  14.269   0.901
83828W        W45491  38.861   6.358   2.874
83829W        W45492  35.552  15.098   0.306
83830W        W45493  37.463  23.240  10.499
83831W        W45494  43.490  38.371   3.718
83832W        W45495   9.757  21.167   0.362
83833W        W45496  17.139  37.344   4.693
83834W        W45497  34.488  37.520  12.507
83835W        W45498   7.852  41.534   5.299
83836W        W45499   2.345   0.898   2.214
83837W        W45500  42.783  25.469   0.481
83838W        W45501  40.516  41.958  12.387
83839W        W45502  40.871  31.590   3.670
83840W        W45503  38.489   4.445   4.785
83841W        W45504   1.242  18.735   1.891
83842W        W45505  15.281  36.088  11.988
83843W        W45506  38.957   2.782  13.426
83844W        W45507  13.144  34.599  11.867
83845W        W45508  13.127  42.927   4.173
83846W        W45509  27.117   7.417   4.268
83847W        W45510  12.273  26.479  13.464
83848W        W45511  26.979   8.726  11.867
83849W        W45512  30.517   1.749   4.778
83850W        W45513  19.569  43.977   3.712
83851W        W45514  14.250   9.760   3.366
83852W        W45515   8.747  17.091   1.303
83853W        W45516  16.257  21.676   1.442
83854W        W45517   0.288  40.850  11.918
83855W        W45518  29.430  29.928   3.844
83856W        W45519  40.430  39.367   3.858
83857W        W45520  28.135  30.460   4.217
83858W        W45521  23.148   3.718   0.930
83859W        W45522  18.646  20.095   1.334
83860W        W45523  39.548  24.076   0.410
83861W        W45524  18.554   4.284   2.769
83862W        W45525   9.749  22.680  12.576
83863W        W45526  41.322  16.806  14.887
83864W        W45527  12.211  36.348  10.549
83865W        W45528  24.670  21.084   3.808
83866W        W45529  41.447  14.667   3.249
83867W        W45530   9.379   4.355   0.318
83868W        W45531   1.425  12.617   4.205
83869W        W45532  43.459  38.964  13.966
83870W        W45533  13.197  29.011  11.956
83871W        W45534  40.840  34.047  14.419
83872W        W45535  42.929  34.967  13.312
83873W        W45536  42.309  42.966   1.758
83874W        W45537  40.857   7.208   4.661
83875W        W45538  18.087  23.627   2.327
83876W        W45539  18.113  44.358  14.347
83877W        W45540  40.525  42.405  11.897
83878W        W45541  27.106  18.111  10.637
83879W        W45542  28.599  30.050   3.260
83880W        W45543   0.355  12.717  14.336
83881W        W45544  29.016  15.305  12.437
83882W        W45545  35.571  42.896  13.062
83883W        W45546   3.856  31.411  11.562
83884W        W45547   8.732  27.169  14.889
83885W        W45548  37.408  11.628  14.011
83886W        W45549  42.352  12.751   5.659
83887W        W45550  42.441  14.281  13.374
83888W        W45551   3.814  34.104   3.698
83889W        W45552   7.302  31.430  11.856
83890W        W45553  20.046  12.775   1.756
83891W        W45554  40.415  31.544  12.340
83892W        W45555   6.276   3.757   3.787
83893W        W45556   1.911   7.324   2.718
83894W        W45557  13.322   2.317   3.286
83895W        W45558  34.031   1.956  11.014
83896W        W45559  26.002  28.626   4.282
83897W        W45560  21.222  24.047  14.405
83898W        W45561  35.383   2.284   1.235
83899W        W45562  10.318   0.388   1.877
83900W        W45563  19.579   2.891  12.537
83901W        W45564   8.219  38.937   4.174
83902W        W45565   1.338  21.057   4.739
83903W        W45566   4.858  13.331  13.496
83904W        W45567  27.131  12.128   3.312
83905W        W45568  42.891   7.224   0.758
83906W        W45569  36.401  17.151  15.000
83907W        W45570  43.901  32.904  12.388
83908W        W45571  13.163   8.368   1.785
83909W        W45572   4.368  40.530   2.875
83910W        W45573  21.570  23.510  10.643
83911W        W45574   4.917  36.394   1.839
83912W        W45575  44.939  33.505  13.843
83913W        W45576  35.018  38.012   3.826
83914W        W45577  37.991  36.577  12.068
83915W        W45578  26.647   9.732   4.815
83916W        W45579   9.365  21.675   0.822
83917W        W45580  35.973   3.822   4.733
83918W        W45581  13.200  38.993   3.361
83919W        W45582   7.854  11.315   0.780
83920W        W45583   0.458   5.731   0.744
83921W        W45584  16.610  22.611  13.354
83922W        W45585  19.699  34.416  12.021
83923W        W45586  26.504  31.578   1.878
83924W        W45587  15.624  21.622  13.975
83925W        W45588  41.433   3.372  14.775
83926W        W45589   2.319  21.206   0.856
83927W        W45590  39.956  36.032   0.389
83928W        W45591  36.841  31.454   1.400
83929W        W45592  20.159  33.077   1.845
83930W        W45593  39.866  44.851  11.561
83931W        W45594  14.644  38.481   5.742
83932W        W45595  22.507   2.938   2.863
83933W        W45596  34.025  13.774  13.444
83934W        W45597  25.475  40.019   3.746
83935W        W45598  24.203  12.328  11.394
83936W        W45599  21.218   0.271  11.902
83937W        W45600  35.408  36.010  12.011
83938W        W45601  13.686  26.498  10.909
83939W        W45602  42.862  23.557   1.223
83940W        W45603  11.174  12.684  12.087
83941W        W45604  15.252  28.082  12.867
83942W        W45605  17.649  36.420   2.400
83943W        W45606  28.505   3.771   2.700
83944W        W45607  38.493  27.687  12.483
83945W        W45608   2.814  43.843  12.502
83946W        W45609  20.526  41.526  11.443
83947W        W45610  10.778   9.197  12.494
83948W        W45611  41.837  38.953   3.709
83949W        W45612  11.633   5.721  10.517
83950W        W45613  33.529   0.366  11.417
83951W        W45614   2.379   4.372  11.037
83952W        W45615   5.716  26.664  10.120
83953W        W45616  42.019   5.853  14.983
83954W        W45617  34.102  35.028   2.760
83955W        W45618   7.743  30.499  13.810
83956W        W45619  19.717  26.172   2.403
83957W        W45620  19.128  40.976  13.431
83958W        W45621  16.254   5.931   3.721
83959W        W45622  33.998  22.610  14.881
83960W        W45623  21.658  35.547   0.759
83961W        W45624  17.754  27.610   3.739
83962W        W45625  42.876  21.596  13.993
83963W        W45626   3.237  35.955  14.849
83964W        W45627  12.816  31.536   1.281
83965W        W45628  35.007  41.426   4.669
83966W        W45629  11.175  16.718  14.759
83967W        W45630  24.488  26.093   0.896
83968W        W45631  40.321  21.153   0.808
83969W        W45632  12.729  38.040  13.911
83970W        W45633  20.690  12.824  14.768
83971W        W45634  26.018  40.917   3.339
83972W        W45635   8.183  10.239  10.556
83973W        W45636  36.470  39.469  11.951
83974W        W45637  35.903  28.932  12.841
83975W        W45638  38.863  15.299  14.335
83976W        W45639  23.023   6.815  11.112
83977W        W45640  15.087  16.584  12.527
83978W        W45641  16.611  29.156  10.959
83979W        W45642  20.763   6.863  10.451
83980W        W45643   1.917  27.944  11.982
83981W        W45644  17.134  18.566   1.795
83982W        W45645  31.509  38.964   4.804
83983W        W45646   3.727  34.942  14.968
83984W        W45647   1.776  16.204   2.747
83985W        W45648  12.117  35.535  11.113
83986W        W45649  40.958  30.485  14.945
83987W        W45650   9.322  17.176   2.406
83988W        W45651   3.946  29.579  10.469
83989W        W45652  39.860  27.125  11.534
83990W        W45653  14.219  32.533  14.969
83991W        W45654  38.365   0.860   0.862
83992W        W45655  11.216  34.101   2.764
83993W        W45656  19.718  43.397   4.240
83994W        W45657  20.567  15.816  14.887
83995W        W45658  35.027  28.072   9.958
83996W        W45659   8.855  10.692  14.020
83997W        W45660  12.695   9.292   2.664
83998W        W45661  14.799  22.076  13.996
83999W        W45662  14.137   3.842  10.504
84000W        W45663   5.228   3.227   3.264
84001W        W45664  39.423  34.412   4.314
84002W        W45665  14.615  33.618  12.349
84003W        W45666  27.106  27.533   4.826
84004W        W45667  15.176  21.709  12.026
84005W        W45668  24.017  44.972  13.061
84006W        W45669  17.571  13.285   9.550
84007W        W45670   5.430  24.666   4.679
84008W        W45671   1.314  14.618  13.047
84009W        W45672  12.286  42.459   0.479
84010W        W45673  35.439  42.327   3.202
84011W        W45674  15.686  26.590   1.315
84012W        W45675  12.628  31.975  11.408
84013W        W45676  15.805   7.750  12.494
84014W        W45677   6.264  34.412  13.354
84015W        W45678  19.741  15.660   0.780
84016W        W45679  25.559  17.094   3.667
84017W        W45680  27.485  12.682   0.860
84018W        W45681  11.322  36.536  13.854
84019W        W45682  35.038   0.313  14.427
84020W        W45683  34.903  20.531  11.886
84021W        W45684   5.413   4.402   3.862
84022W        W45685  12.761  10.772   3.822
84023W        W45686  10.869  41.818  11.519
84024W        W45687  30.937  35.971   4.611
84025W        W45688  13.629   4.425   2.837
84026W        W45689   9.395  37.508   0.249
84027W        W45690  29.080  16.101  14.841
84028W        W45691  14.107   9.705   0.832
84029W        W45692  29.926  40.921  10.472
84030W        W45693  23.699  44.765  13.429
84031W        W45694  17.294  42.986  11.602
84032W        W45695   2.927  11.747  13.340
84033W        W45696  19.541  25.108   1.726
84034W        W45697  44.288  21.040  13.493
84035W        W45698   3.747  35.063  14.308
84036W        W45699  31.910   3.264  13.836
84037W        W45700  25.012  41.986  14.300
84038W        W45701  37.382  21.109   5.101
84039W        W45702   0.474  25.132  14.763
84040W        W45703  26.954   2.782   3.197
84041W        W45704   4.275  35.001   4.159
84042W        W45705  29.629  11.286  12.398
84043W        W45706   8.251   3.355   5.194
84044W        W45707   0.324  25.660  14.909
84045W        W45708  10.679  30.520   4.737
84046W        W45709  37.878  10.265  14.021
84047W        W45710  39.425   9.230  11.553
84048W        W45711  40.841  42.388   2.409
84049W        W45712  18.206   3.295   1.785
84050W        W45713  35.919  25.710  13.492
84051W        W45714  10.349  36.848  13.546
84052W        W45715   9.760  27.582  12.025
84053W        W45716  39.532  36.924   4.782
84054W        W45717   4.212  29.112   3.642
84055W        W45718  40.011  19.671   2.238
84056W        W45719  35.459  12.351   3.684
84057W        W45720  37.884  36.849   1.240
84058W        W45721  13.319   1.894   5.179
84059W        W45722  32.021  31.016   4.721
84060W        W45723  39.973  15.250   2.785
84061W        W45724  37.552  42.919  10.895
84062W        W45725   4.227  36.092  11.530
84063W        W45726  42.018   6.340   4.162
84064W        W45727   4.859   4.791   2.685
84065W        W45728  10.185  17.257  14.869
84066W        W45729  14.116  13.183   5.292
84067W        W45730  26.073  21.018   0.413
84068W        W45731  26.990  14.310   1.738
84069W        W45732  11.242  23.538  14.380
84070W        W45733  30.623  17.296  10.907
84071W        W45734  36.090   5.834   0.456
84072W        W45735  40.958  14.336  12.032
84073W        W45736  33.875  23.162   0.317
84074W        W45737   4.354  23.564  11.502
84075W        W45738   2.367  32.418   1.218
84076W        W45739  22.670   6.322   1.306
84077W        W45740  22.253  34.029  11.483
84078W        W45741  23.099  14.115   2.828
84079W        W45742  24.231  10.277   2.419
84080W        W45743  25.181  31.636   3.148
84081W        W45744  20.561  35.481  11.104
84082W        W45745  33.387   2.838   0.265
84083W        W45746  43.476  25.641   1.320
84084W        W45747  35.953  25.082   0.378
84085W        W45748  34.561  41.006   3.667
84086W        W45749  35.967  18.194   0.810
84087W        W45750  12.314  30.655  12.411
84088W        W45751  23.987  16.160   2.827
84089W        W45752  21.053  44.354   1.431
84090W        W45753  14.764   1.482  11.564
84091W        W45754  22.650   4.934  11.418
84092W        W45755   7.326   0.846  13.475
84093W        W45756  29.574  14.326   4.181
84094W        W45757  44.940  10.317  12.827
84095W        W45758   1.957  18.188   4.354
84096W        W45759  28.015  24.589   0.790
84097W        W45760  10.150  19.191  12.829
84098W        W45761  30.084  14.309   3.748
84099W        W45762  44.416  36.863   3.632
84100W        W45763   8.810  14.133   9.981
84101W        W45764  39.319   4.743   0.770
84102W        W45765   4.423  16.130  10.481
84103W        W45766  16.648  25.668   2.834
84104W        W45767   2.459  15.121  11.444
84105W        W45768  32.924  42.349   0.417
84106W        W45769  26.138  43.800  13.058
84107W        W45770  28.545  17.793  13.835
84108W        W45771  43.866  21.206  10.487
84109W        W45772  24.076   4.930   3.313
84110W        W45773   4.784  28.181  11.087
84111W        W45774  12.670   6.307  12.475
84112W        W45775  13.303   4.896   1.813
84113W        W45776  42.374  34.476   2.352
84114W        W45777  43.805  25.031   1.318
84115W        W45778  18.603   1.801   5.161
84116W        W45779  29.996  10.700   1.341
84117W        W45780  28.100  19.618   4.267
84118W        W45781  13.653  35.104   2.205
84119W        W45782  43.498  22.682   4.280
84120W        W45783  11.301  38.003   2.663
84121W        W45784  41.526  42.526  12.889
84122W        W45785   3.329  11.296  14.012
84123W        W45786  21.514  14.334   1.285
84124W        W45787  38.822  28.483   2.362
84125W        W45788  29.447  20.601  10.924
84126W        W45789  14.590  19.545  11.924
84127W        W45790  14.184  35.963  11.097
84128W        W45791  12.185  26.678   0.415
84129W        W45792  16.640  13.157   2.361
84130W        W45793  39.854   2.450  11.859
84131W        W45794  20.660  38.499  12.839
84132W        W45795  42.921  14.761   1.265
84133W        W45796  24.194  15.306  14.847
84134W        W45797   5.292  39.026   2.860
84135W        W45798  30.454  26.491  11.981
84136W        W45799  43.801  26.107   3.281
84137W        W45800   1.891   0.416   2.220
84138W        W45801  41.915  36.471  14.329
84139W        W45802  32.553  17.666  12.484
84140W        W45803  12.641  13.694   4.669
84141W        W45804  25.618  18.772   3.791
84142W        W45805   4.336  18.657   4.831
84143W        W45806  16.301  13.273  11.478
84144W        W45807  17.624  32.531   4.650
84145W        W45808  22.185  42.518   1.713
84146W        W45809   9.217  43.877   0.461
84147W        W45810  19.712  44.504  12.566
84148W        W45811  21.582  33.084   4.768
84149W        W45812   0.821  21.751  11.041
84150W        W45813   5.794  42.797  12.466
84151W        W45814   0.952  39.846   1.275
84152W        W45815  37.030  29.014   2.380
84153W        W45816  24.587  19.745   1.801
84154W        W45817   3.219  29.546  12.084
84155W        W45818  29.446  28.448  13.410
84156W        W45819  15.622  17.795  11.418
84157W        W45820  14.598  18.064  14.008
84158W        W45821  44.348   5.349  14.766
84159W        W45822  44.481  10.343  14.370
84160W        W45823  36.439   9.750   2.365
84161W        W45824  28.999  41.518   0.448
84162W        W45825  36.417  29.020  12.001
84163W        W45826   0.257  29.527   4.776
84164W        W45827  27.014  19.598   3.650
84165W        W45828  34.391  12.122  14.893
84166W        W45829  26.475  28.640   3.239
84167W        W45830  29.598  11.132   4.125
84168W        W45831  10.634  34.951   2.901
84169W        W45832  23.524  43.863   0.769
84170W        W45833   7.276  13.807  14.339
84171W        W45834   7.817  13.611  11.457
84172W        W45835   1.945  18.051   2.776
84173W        W45836   6.273  25.633  14.409
84174W        W45837  20.076   7.346   4.286
84175W        W45838  23.018  29.441  12.090
84176W        W45839  41.474  13.277  12.427
84177W        W45840  27.141   7.278  11.094
84178W        W45841   2.315  16.717  14.957
84179W        W45842  35.465  19.178  14.359
84180W        W45843  38.034  39.049  13.061
84181W        W45844  41.793  18.629   0.767
84182W        W45845  22.525   7.322  14.346
84183W        W45846   4.793  33.975  11.888
84184W        W45847  26.562   2.384   3.387
84185W        W45848   9.369  40.542  12.509
84186W        W45849  29.564   3.379  11.004
84187W        W45850  27.101  15.749  14.825
84188W        W45851   5.857  22.243   3.774
84189W        W45852  31.906  31.068  11.902
84190W        W45853  30.587  42.428   0.872
84191W        W45854  26.570   3.237  11.018
84192W        W45855  42.507  18.685  12.017
84193W        W45856  31.015  15.108  12.340
84194W        W45857  37.387   5.822   3.291
84195W        W45858  38.876  40.342  12.432
84196W        W45859   3.729   8.752  11.412
84197W        W45860  36.093  13.271   1.383
84198W        W45861  40.306  30.425   5.082
84199W        W45862   4.710   8.317   3.299
84200W        W45863  23.999  37.461  11.517
84201W        W45864  34.911  42.997   3.336
84202W        W45865   4.246  10.270  13.832
84203W        W45866  11.191  16.773   4.236
84204W        W45867  37.998   4.774   2.256
84205W        W45868  26.517  10.729  10.619
84206W        W45869  20.230   5.268   3.663
84207W        W45870  11.150  40.907  13.506
84208W        W45871   8.267  15.666   3.275
84209W        W45872  34.373  26.619  13.853
84210W        W45873  12.642  18.782  11.436
84211W        W45874  35.016   4.723   1.845
84212W        W45875  27.572  16.182  14.466
84213W        W45876  18.275  41.985  10.573
84214W        W45877  27.194  44.383   4.163
84215W        W45878  22.048  31.912  14.479
84216W        W45879   1.383  35.020  12.047
84217W        W45880   9.750   7.189   0.343
84218W        W45881  11.132  44.914   2.783
84219W        W45882   3.354  44.469   3.381
84220W        W45883  38.013  15.284  13.004
84221W        W45884   7.704   8.286  13.444
84222W        W45885   5.363   6.697  11.080
84223W        W45886  24.122  26.493  14.018
84224W        W45887  29.138  13.314  12.573
84225W        W45888   4.259   9.155   3.665
84226W        W45889  29.616  34.906   1.385
84227W        W45890  29.954   2.228   3.243
84228W        W45891   6.743   9.263   3.282
84229W        W45892  19.151  26.143   1.850
84230W        W45893   3.373  20.742  11.125
84231W        W45894  26.461  40.474   1.889
84232W        W45895  11.713  26.579  11.399
84233W        W45896   7.273  36.398   3.234
84234W        W45897   0.834  33.618   2.343
84235W        W45898  24.122   0.254  13.868
84236W        W45899  36.574  31.117  13.008
84237W        W45900   0.344  36.404  10.937
84238W        W45901  38.950  42.850  12.540
84239W        W45902  28.454   9.184   0.935
84240W        W45903  19.647  30.594   4.698
84241W        W45904  32.593  32.980   1.736
84242W        W45905  14.262  27.952   3.853
84243W        W45906  29.543   3.285  11.912
84244W        W45907   2.274  36.408   0.352
84245W        W45908  26.502   1.271   3.865
84246W        W45909   8.789  18.066  14.316
84247W        W45910  28.671  18.119  12.088
84248W        W45911  36.467  34.977  10.591
84249W        W45912  14.683  12.144   2.387
84250W        W45913  38.496  36.962   2.262
84251W        W45914   9.208  27.966  11.432
84252W        W45915  30.467  33.979  12.916
84253W        W45916  27.075  10.653  11.567
84254W        W45917   3.282   0.400   3.702
84255W        W45918  28.633  39.809   1.914
84256W        W45919   1.293  26.054   2.872
84257W        W45920   8.838  43.845  14.833
84258W        W45921  31.645  10.193  13.412
84259W        W45922   2.384   1.784   0.896
84260W        W45923   8.296  33.079   2.330
84261W        W45924  27.116   6.268   4.702
84262W        W45925   3.886   4.220  12.566
84263W        W45926   1.731   2.948   3.266
84264W        W45927  13.827   8.787  14.819
84265W        W45928  18.784  29.620  12.091
84266W        W45929   1.388  33.394  13.371
84267W        W45930  22.566  36.370   1.286
84268W        W45931  42.400  17.240  11.945
84269W        W45932  41.929  37.935   1.288
84270W        W45933  21.133  18.070  10.626
84271W        W45934   4.944  44.950   1.321
84272W        W45935  23.138   7.778   3.273
84273W        W45936   9.858  25.216  12.983
84274W        W45937  16.735  34.394   4.784
84275W        W45938  20.252  23.011   1.840
84276W        W45939  30.612  33.543  14.924
84277W        W45940  41.942  12.848  10.461
84278W        W45941   2.946  36.578  14.382
84279W        W45942  28.487   8.862  14.845
84280W        W45943  33.024   3.219  10.408
84281W        W45944  18.107  41.421   3.306
84282W        W45945  34.074  29.492  14.878
84283W        W45946   8.734  16.209   4.204
84284W        W45947  17.302   1.449   0.844
84285W        W45948  17.672  28.175   1.422
84286W        W45949   3.777   1.370  11.571
84287W        W45950  19.752   9.857   4.166
84288W        W45951  10.288  15.756   5.256
84289W        W45952  43.470  14.713  12.565
84290W        W45953   1.247   5.233   0.810
84291W        W45954  17.294  40.859  14.386
84292W        W45955  35.472  21.222   3.767
84293W        W45956  38.973  15.731   2.764
84294W        W45957  19.740  43.320  10.515
84295W        W45958  24.192  41.361  14.971
84296W        W45959  10.195   0.284  10.528
84297W        W45960  21.574  25.587   1.258
84298W        W45961  12.361  18.735   0.840
84299W        W45962  15.689  40.428  11.557
84300W        W45963  25.664  36.495  14.967
84301W        W45964  32.944  16.291   2.771
84302W        W45965  44.939  27.674   1.289
84303W        W45966  37.995  40.384  11.934
84304W        W45967  14.106   1.839  13.839
84305W        W45968  22.727   0.310   0.772
84306W        W45969   7.682  21.648  10.460
84307W        W45970  39.376  36.044   0.835
84308W        W45971  21.549  27.069   3.721
84309W        W45972  28.117   0.455  14.923
84310W        W45973  25.132   0.417   0.413
84311W        W45974  25.705  11.281   0.264
84312W        W45975  19.114   6.713  10.468
84313W        W45976  39.509  40.485   1.766
84314W        W45977   0.291  35.568  14.973
84315W        W45978  28.150  27.510  10.451
84316W        W45979   6.398  20.578  14.290
84317W        W45980  11.273  13.266  12.423
84318W        W45981   4.827   7.381  13.365
84319W        W45982   5.351   6.914   1.858
84320W        W45983  24.165  36.090  11.894
84321W        W45984  14.688  44.488   1.868
84322W        W45985  31.921  40.923  11.869
84323W        W45986  40.026  21.025  10.143
84324W        W45987   2.366  43.466   1.264
84325W        W45988  17.087  38.832  13.409
84326W        W45989  27.171  13.686   1.325
84327W        W45990  19.732  44.442  11.493
84328W        W45991   5.210  39.813  14.508
84329W        W45992  34.583  26.645  10.605
84330W        W45993  13.130  29.935  12.865
84331W        W45994  13.808  26.149   4.323
84332W        W45995   9.884  13.284  13.997
84333W        W45996  25.704  16.147  12.562
84334W        W45997  43.019  39.389  10.407
84335W        W45998  17.564  18.175   4.269
84336W        W45999  22.566  22.161   3.280
84337W        W46000  13.252  18.279  12.833
84338W        W46001  40.478   6.253   5.296
84339W        W46002  23.631  11.171   1.697
84340W        W46003  22.632  36.937   2.279
84341W        W46004  24.631  26.207   4.739
84342W        W46005  35.599  36.002  12.559
84343W        W46006   0.988  10.702   0.298
84344W        W46007   3.390  29.519  12.566
84345W        W46008  20.583   2.309  10.427
84346W        W46009  19.651  29.491  12.357
84347W        W46010  10.711  17.722  12.033
84348W        W46011  31.944  20.063   1.802
84349W        W46012   8.166   4.890   1.426
84350W        W46013  42.476  35.039  12.408
84351W        W46014  18.203  33.060   3.164
84352W        W46015  34.478  18.617   1.299
84353W        W46016  35.359  25.468   4.702
84354W        W46017   7.799  43.423  13.970
84355W        W46018  38.412  30.960   0.895
84356W        W46019  26.542  44.493  10.464
84357W        W46020  40.375  10.185   9.573
84358W        W46021  13.805  23.694  13.950
84359W        W46022  14.171  37.894   3.810
84360W        W46023  10.203  44.492  11.531
84361W        W46024  30.458  38.377  12.086
84362W        W46025  18.790  23.494   0.440
84363W        W46026   0.836  18.081   2.844
84364W        W46027  35.989  24.695   4.242
84365W        W46028   2.947  11.347  12.426
84366W        W46029  25.999   3.901   3.707
84367W        W46030  41.041  10.777   2.863
84368W        W46031  39.375  18.204   0.797
84369W        W46032   5.425  32.997   1.424
84370W        W46033  28.986   2.942   3.835
84371W        W46034  14.670   9.370   4.247
84372W        W46035  23.149  24.167  12.552
84373W        W46036  12.121  17.188   3.209
84374W        W46037   4.265  39.998   0.830
84375W        W46038   9.693  30.039   1.924
84376W        W46039  15.184  31.085   4.348
84377W        W46040  39.397  24.174   3.721
84378W        W46041  19.060  11.847   0.943
84379W        W46042   9.365  26.672  11.504
84380W        W46043  44.323   1.352  11.464
84381W        W46044   8.178  28.619   1.417
84382W        W46045  26.680  33.102   0.335
84383W        W46046   4.939  19.141   4.623
84384W        W46047  21.104  24.585   1.926
84385W        W46048   2.421   1.400  13.350
84386W        W46049  28.115  15.791   0.954
84387W        W46050  16.241  44.989  10.934
84388W        W46051  23.644  15.715   1.227
84389W        W46052  38.519  37.568   1.708
84390W        W46053  19.285  19.773  13.019
84391W        W46054  43.278  36.971  13.351
84392W        W46055  24.670   3.878  11.453
84393W        W46056  39.042  40.326  13.856
84394W        W46057  30.101  17.773  12.961
84395W        W46058   7.319  38.332  12.343
84396W        W46059  44.865  24.097  14.311
84397W        W46060  39.972   1.908  13.427
84398W        W46061  37.928  28.443   4.276
84399W        W46062  34.607   6.341  13.906
84400W        W46063  34.100  40.903   3.285
84401W        W46064  23.533   7.216   2.324
84402W        W46065  15.208   0.898  12.577
84403W        W46066  24.698  21.756   4.718
84404W        W46067   0.885  22.249  11.065
84405W        W46068  10.853  17.301  13.450
84406W        W46069   7.183  43.380   2.833
84407W        W46070   2.336   9.311   1.780
84408W        W46071  37.926  13.271   2.680
84409W        W46072  29.663   9.648  10.571
84410W        W46073  14.296   5.836   4.702
84411W        W46074  12.830  44.480  14.403
84412W        W46075   9.874   9.729  14.385
84413W        W46076  31.606  22.006   4.320
84414W        W46077  16.199  35.540  12.856
84415W        W46078  34.370  19.044  11.094
84416W        W46079  42.394   0.770  13.383
84417W        W46080  24.198  35.462  12.516
84418W        W46081  13.798  19.260   2.179
84419W        W46082  17.671  36.393  13.369
84420W        W46083  34.400  16.157  10.484
84421W        W46084  22.175  37.346  10.962
84422W        W46085  37.541  38.071   0.939
84423W        W46086   0.366  23.176  14.385
84424W        W46087  25.521  42.903  13.359
84425W        W46088  39.871  10.218   4.713
84426W        W46089  23.157  27.027   1.256
84427W        W46090  15.297   9.798  10.536
84428W        W46091   3.328  10.327  11.884
84429W        W46092  13.319   9.698  12.972
84430W        W46093  41.926  39.876  13.946
84431W        W46094  13.190  23.190  12.859
84432W        W46095  29.984  33.457   4.199
84433W        W46096  14.690   9.332  12.056
84434W        W46097  34.509  27.690   1.296
84435W        W46098  40.002   7.233  12.498
84436W        W46099  21.223   7.900   4.153
84437W        W46100  27.632  44.890  13.899
84438W        W46101   6.827  12.282   1.740
84439W        W46102  29.055  22.105   2.247
84440W        W46103  27.682  15.183  11.905
84441W        W46104  28.160  43.962   2.670
84442W        W46105  11.832  18.066   0.367
84443W        W46106  16.765   3.352  11.412
84444W        W46107   7.677  32.601  11.517
84445W        W46108  11.861  38.336   2.224
84446W        W46109  15.701  20.263   3.723
84447W        W46110  33.050  10.758  14.789
84448W        W46111  33.908  20.615  13.792
84449W        W46112   5.265   9.674  11.971
84450W        W46113   6.362  38.518   1.308
84451W        W46114  44.958  12.142  14.297
84452W        W46115  14.216  39.557  10.461
84453W        W46116  22.020  32.947   0.880
84454W        W46117   7.241  42.787  13.931
84455W        W46118   1.424  26.612  12.085
84456W        W46119  35.473  28.437   2.369
84457W        W46120   3.427  28.137  13.874
84458W        W46121  36.453  19.111  14.282
84459W        W46122  44.473   5.867   1.696
84460W        W46123  24.988  11.763  11.471
84461W        W46124  24.500  29.036   0.829
84462W        W46125  44.394   0.493  12.444
84463W        W46126  14.324   0.918   3.669
84464W        W46127  32.410  34.419   0.363
84465W        W46128  40.460  14.328   0.768
84466W        W46129  28.135   5.707  13.941
84467W        W46130  44.988  30.437  13.825
84468W        W46131   4.856  10.639   2.352
84469W        W46132  37.408  25.552   4.707
84470W        W46133   7.293  14.235   4.732
84471W        W46134  37.956  16.793   3.258
84472W        W46135  28.443  32.126  11.392
84473W        W46136   8.659   3.808  13.844
84474W        W46137   2.265  24.503  14.924
84475W        W46138  22.042   4.821   2.307
84476W        W46139   8.703  22.073  13.334
84477W        W46140  13.338  17.199   9.965
84478W        W46141   0.295  26.014   4.114
84479W        W46142  35.566  32.139  13.344
84480W        W46143  31.405  43.382  11.035
84481W        W46144  32.409  42.869  12.365
84482W        W46145  33.967  12.326  10.960
84483W        W46146  36.085   1.807  12.370
84484W        W46147   6.275  11.207   1.370
84485W        W46148  10.338  14.813  14.946
84486W        W46149   2.379  26.022  13.323
84487W        W46150  26.548  26.133  14.503
84488W        W46151  35.994  17.610  12.466
84489W        W46152  10.280   6.700  11.497
84490W        W46153  19.181  30.080   4.717
84491W        W46154  33.475   3.763  13.326
84492W        W46155   3.954  11.824  12.339
84493W        W46156  10.719   3.237  14.497
84494W        W46157  21.098   1.378  10.937
84495W        W46158   9.643  29.545   4.209
84496W        W46159  13.667   0.965   2.761
84497W        W46160   3.770  15.274   3.630
84498W        W46161   2.796  22.076  10.576
84499W        W46162  25.569  28.567   4.228
84500W        W46163   5.289   5.427   3.657
84501W        W46164  44.949  34.943  14.441
84502W        W46165  25.669  35.593   0.767
84503W        W46166  44.834  32.473   1.814
84504W        W46167  27.174  19.079   1.721
84505W        W46168  41.337  32.926   3.675
84506W        W46169  35.931  19.573  11.386
84507W        W46170  22.698  32.939  14.832
84508W        W46171  38.965  37.452   2.245
84509W        W46172  14.150  41.936   0.460
84510W        W46173   2.327  39.869  11.098
84511W        W46174  13.290   7.693  13.859
84512W        W46175  27.451  28.594  14.495
84513W        W46176   1.964  29.999   3.742
84514W        W46177  31.143  38.900   1.355
84515W        W46178  21.638  18.710  11.602
84516W        W46179  44.909  17.161   0.930
84517W        W46180  28.543  39.941  10.422
84518W        W46181   0.252  25.111   1.327
84519W        W46182  21.038  19.686   9.976
84520W        W46183  41.921  34.473  14.482
84521W        W46184  40.348  17.176  14.903
84522W        W46185  12.777  33.042   2.286
84523W        W46186  19.040  41.835  14.315
84524W        W46187  40.004  39.974  13.816
84525W        W46188  14.710  37.858  14.845
84526W        W46189  26.153  10.659  12.061
84527W        W46190  27.671  27.978  12.559
84528W        W46191  42.361   5.325  14.452
84529W        W46192  41.971  34.083   0.749
84530W        W46193  23.085  37.021   2.254
84531W        W46194   5.801  25.530   2.685
84532W        W46195   4.873   6.274   0.730
84533W        W46196  15.169  14.296  12.997
84534W        W46197  39.921   6.209  13.048
84535W        W46198   2.470   7.801   4.341
84536W        W46199  20.692  36.960  11.964
84537W        W46200  33.129   4.902   3.853
84538W        W46201  42.810  30.127  12.510
84539W        W46202  27.089  38.479   0.339
84540W        W46203  17.707  39.918  12.908
84541W        W46204  44.486  35.597   2.406
84542W        W46205  38.481  33.419   1.710
84543W        W46206  28.578  41.479   4.802
84544W        W46207  14.659  27.453  11.000
84545W        W46208  15.133  26.053  12.976
84546W        W46209   7.218  33.035   0.471
84547W        W46210  19.174   9.188   0.271
84548W        W46211  39.980  22.126   4.135
84549W        W46212  39.042  21.729  11.546
84550W        W46213   1.371  35.384  12.976
84551W        W46214  42.980   2.816   2.272
84552W        W46215   3.918  40.843   3.650
84553W        W46216  23.193  16.769  12.382
84554W        W46217  36.414  34.482   0.753
84555W        W46218  19.601  28.080  10.468
84556W        W46219  31.409   4.351  11.603
84557W        W46220   4.788  17.571  14.893
84558W        W46221  41.293  39.489   4.130
84559W        W46222   2.854   0.877   0.729
84560W        W46223  42.520  43.967   1.771
84561W        W46224  21.572   3.348  13.469
84562W        W46225   1.899  38.412  11.041
84563W        W46226  31.566  16.246  14.759
84564W        W46227  30.646  27.115  11.860
84565W        W46228  33.411  14.829   4.286
84566W        W46229  39.472  30.008   3.801
84567W        W46230   3.724   0.762  14.781
84568W        W46231  41.450  35.099   2.224
84569W        W46232  11.780  14.327  14.329
84570W        W46233   1.482   4.889  12.461
84571W        W46234  29.025  43.949   2.666
84572W        W46235   7.801  14.730  13.427
84573W        W46236  24.999   2.352  14.853
84574W        W46237   0.926  26.679   3.151
84575W        W46238  17.755  41.952   2.325
84576W        W46239  31.600   7.705  13.951
84577W        W46240  20.056  41.485   0.251
84578W        W46241   8.821  31.538  13.063
84579W        W46242  29.960  11.152   4.699
84580W        W46243  30.942  32.539   4.117
84581W        W46244  40.452  36.474  12.520
84582W        W46245   2.229  32.906  14.994
84583W        W46246   6.765  41.397   0.424
84584W        W46247  44.849  26.197  11.081
84585W        W46248   0.903  16.652  10.459
84586W        W46249   5.230   8.374  11.944
84587W        W46250  38.993  19.267   0.847
84588W        W46251   3.937  34.997   1.863
84589W        W46252   4.817   1.921  10.441
84590W        W46253   1.963  27.608   0.366
84591W        W46254  18.618   1.931   2.350
84592W        W46255  26.517  42.445  11.025
84593W        W46256   4.262   9.864  12.062
84594W        W46257  41.928  25.019   2.800
84595W        W46258  37.392  13.792   4.231
84596W        W46259  33.973  13.351  14.951
84597W        W46260   4.765  11.153   2.868
84598W        W46261  35.073  33.625  12.025
84599W        W46262   4.320   0.860   1.393
84600W        W46263  41.020   3.849  12.827
84601W        W46264  21.180  10.362   0.734
84602W        W46265  18.641  24.229   4.139
84603W        W46266  14.322  39.028  13.529
84604W        W46267  44.950  12.188   0.915
84605W        W46268  40.847  38.484  14.481
84606W        W46269  18.691  36.864   1.819
84607W        W46270   2.857   8.661  11.110
84608W        W46271  33.913  17.287   0.260
84609W        W46272   1.912  39.880   4.290
84610W        W46273  13.625   1.370  14.901
84611W        W46274  27.523   8.749  14.818
84612W        W46275   3.900  27.594  10.478
84613W        W46276  15.679  22.746  11.990
84614W        W46277  34.104  11.353   2.856
84615W        W46278  39.030   4.749  11.968
84616W        W46279  11.836  22.608  13.980
84617W        W46280  33.493  36.988   3.734
84618W        W46281  28.971  33.123  14.317
84619W        W46282   6.896   2.753  10.929
84620W        W46283  44.352  21.248   0.267
84621W        W46284  18.279  12.686  10.439
84622W        W46285  36.076  31.648   0.874
84623W        W46286  36.930  16.075   0.947
84624W        W46287  13.111  44.388   1.261
84625W        W46288  17.082  44.259  12.427
84626W        W46289  15.206  20.692   4.234
84627W        W46290  40.343  25.555   3.759
84628W        W46291  27.533  38.557   1.766
84629W        W46292  38.822   7.854   3.358
84630W        W46293  13.641   8.363  14.507
84631W        W46294   8.901  25.096   2.725
84632W        W46295  34.998   3.918  11.973
84633W        W46296  37.937  12.357  13.478
84634W        W46297  15.578  32.038  13.352
84635W        W46298  20.555  33.990   0.815
84636W        W46299   3.230   2.306  13.339
84637W        W46300  34.421  43.855   0.462
84638W        W46301   2.324  37.891  11.913
84639W        W46302  28.592  11.701  13.062
84640W        W46303  27.493   3.829  14.794
84641W        W46304  28.491  43.500   0.849
84642W        W46305   2.352  38.859   2.701
84643W        W46306   8.224  16.636   4.769
84644W        W46307  11.651   3.794  14.502
84645W        W46308   6.911   0.394   4.704
84646W        W46309  19.690  13.260  13.858
84647W        W46310  38.448  37.033   1.417
84648W        W46311  25.542   8.758  10.520
84649W        W46312  18.734  15.600   1.804
84650W        W46313  28.102  30.019  14.469
84651W        W46314  26.698  35.543   1.427
84652W        W46315  35.992  18.170   2.890
84653W        W46316  36.063  22.596   2.277
84654W        W46317  42.431   8.859  12.454
84655W        W46318  20.206  11.691   3.820
84656W        W46319  42.320   1.447  12.350
84657W        W46320  33.905  36.469  14.391
84658W        W46321   4.398  27.113  10.953
84659W        W46322  39.869  39.314  10.889
84660W        W46323  44.347  31.538   1.241
84661W        W46324  13.200  13.707  14.383
84662W        W46325  22.074   0.296   5.285
84663W        W46326  31.082  32.930  12.547
84664W        W46327   5.297  22.210   3.253
84665W        W46328  22.187   1.946   3.717
84666W        W46329  35.934  37.008  13.814
84667W        W46330  11.866   2.863  10.584
84668W        W46331  34.943  10.192   1.868
84669W        W46332  36.578   1.833  10.938
84670W        W46333  33.409  39.519  11.023
84671W        W46334   7.256   7.719   2.382
84672W        W46335   3.854  17.782  12.523
84673W        W46336   1.955  41.896   3.748
84674W        W46337  18.190  37.458   2.215
84675W        W46338   8.248  26.053   2.244
84676W        W46339  32.083  33.927   4.634
84677W        W46340   5.755   8.372  11.987
84678W        W46341  31.584   9.718  11.547
84679W        W46342  37.026  28.552   3.720
84680W        W46343  16.170  41.944  13.479
84681W        W46344  20.048  39.996   3.722
84682W        W46345  30.413  43.816  12.086
84683W        W46346  18.676  30.557   0.762
84684W        W46347  30.038  44.375   4.682
84685W        W46348   1.300  16.668   0.443
84686W        W46349   2.924  20.657   0.380
84687W        W46350  13.641  29.450  11.103
84688W        W46351  35.429  43.341  13.352
84689W        W46352   5.223   6.903  14.331
84690W        W46353  44.786  30.975  11.953
84691W        W46354   9.325  39.464  14.501
84692W        W46355  34.904  39.347  13.925
84693W        W46356  11.204  36.999  13.329
84694W        W46357  40.438  22.250   4.788
84695W        W46358  43.924  24.037   2.291
84696W        W46359   7.356  42.825  11.069
84697W        W46360  25.525  27.125  14.990
84698W        W46361  13.777  19.162  14.943
84699W        W46362  36.355   3.370   2.203
84700W        W46363  14.680  34.486  14.016
84701W        W46364  21.674  25.209  11.909
84702W        W46365  41.803  35.517   4.688
84703W        W46366  33.886  40.002   0.772
84704W        W46367  13.195  42.995   4.782
84705W        W46368  16.235   6.829   4.795
84706W        W46369  41.360  41.944  11.949
84707W        W46370  42.961   5.896   1.705
84708W        W46371  13.195  27.192   0.248
84709W        W46372  44.327  17.238  10.133
84710W        W46373  31.907  14.656  11.506
84711W        W46374  15.159  12.135   1.321
84712W        W46375  18.603  26.464  10.464
84713W        W46376  35.978   1.463   1.755
84714W        W46377  36.098  43.495   4.293
84715W        W46378  19.618   2.765  13.020
84716W        W46379  21.224  40.051   0.833
84717W        W46380  33.553  23.102  13.340
84718W        W46381  19.700  31.554   3.286
84719W        W46382  20.157  41.448   0.945
84720W        W46383  32.532   5.929   1.884
84721W        W46384   5.272  28.086   2.734
84722W        W46385  13.332   0.883   1.364
84723W        W46386  24.725  17.572   2.263
84724W        W46387   1.896  44.933  13.401
84725W        W46388   7.733  28.091  13.824
84726W        W46389   9.354  11.159   2.321
84727W        W46390   1.243  14.749  11.067
84728W        W46391  12.249  30.134  10.482
84729W        W46392   8.356  12.275  13.843
84730W        W46393  35.855  23.594   3.757
84731W        W46394  33.021   0.782   4.837
84732W        W46395  20.176   8.371  14.833
84733W        W46396   7.207   2.736  10.458
84734W        W46397  21.119   4.763   1.783
84735W        W46398  13.613  39.393  12.910
84736W        W46399   8.829  44.402   4.706
84737W        W46400  12.776   7.214   4.289
84738W        W46401  31.507   4.298   4.320
84739W        W46402   2.884   8.249  12.355
84740W        W46403  43.359  30.054  14.335
84741W        W46404  25.190  26.627   1.932
84742W        W46405   5.246  38.065  11.569
84743W        W46406   2.879  26.094   0.336
84744W        W46407  15.224  16.798  13.481
84745W        W46408  39.378  41.533  13.843
84746W        W46409  20.029  18.629  11.114
84747W        W46410  25.049  13.735   1.424
84748W        W46411  38.896  29.112   1.836
84749W        W46412  17.719  30.642   2.273
84750W        W46413  35.446  12.629   2.707
84751W        W46414  35.865  14.184   0.421
84752W        W46415  14.121  19.621   1.313
84753W        W46416   2.270   6.711  11.411
84754W        W46417  32.455  24.506   3.642
84755W        W46418  25.553  37.036  10.583
84756W        W46419  16.621  29.492   2.773
84757W        W46420  34.610   0.969  14.295
84758W        W46421  28.435  33.492  13.507
84759W        W46422  13.119  13.802  12.928
84760W        W46423  36.926   3.378  12.377
84761W        W46424  12.792  13.729  11.096
84762W        W46425  12.353   5.294  14.459
84763W        W46426  15.109   7.686  12.437
84764W        W46427  12.712   3.882  13.844
84765W        W46428  37.354  39.377   0.408
84766W        W46429   1.868  38.963  10.463
84767W        W46430  15.244  17.632  12.564
84768W        W46431  32.473  17.145  14.463
84769W        W46432  32.400  19.245   9.948
84770W        W46433  12.646  44.864  10.512
84771W        W46434  32.997  37.443   0.386
84772W        W46435  13.240  12.713  13.047
84773W        W46436  40.487  10.686   0.391
84774W        W46437  42.801   6.293   5.112
84775W        W46438  28.471  28.444   1.732
84776W        W46439  15.245  15.180   3.343
84777W        W46440  30.577  18.648  14.957
84778W        W46441  38.840  43.850   0.278
84779W        W46442  28.972   3.866   2.836
84780W        W46443  22.100  34.562   0.836
84781W        W46444  42.901  36.397   1.358
84782W        W46445  44.794  11.680   2.330
84783W        W46446  26.699  23.028   3.777
84784W        W46447   5.213  37.081  12.046
84785W        W46448   8.397  11.777  13.347
84786W        W46449  12.763  12.268   2.827
84787W        W46450  16.079   8.655   0.856
84788W        W46451  11.303  36.525   2.718
84789W        W46452  31.513  43.808   4.282
84790W        W46453  41.485  12.837   1.252
84791W        W46454  14.245  30.939  14.018
84792W        W46455  25.506  29.443  12.880
84793W        W46456  25.593  35.885  10.936
84794W        W46457  37.877   6.407   1.867
84795W        W46458   5.921  25.018   4.148
84796W        W46459  37.554  24.513   0.846
84797W        W46460  42.464  16.724  12.530
84798W        W46461  25.511  36.928   3.282
84799W        W46462  25.104   8.189   4.240
84800W        W46463  42.965  20.698   3.253
84801W        W46464  28.632  22.556   2.258
84802W        W46465  37.548  39.416  11.926
84803W        W46466  44.813   3.732   1.398
84804W        W46467  37.912  36.915  12.870
84805W        W46468  26.621  18.141  10.158
84806W        W46469  40.420  20.189   0.790
84807W        W46470   8.752   4.367  13.037
84808W        W46471  24.670   9.791  10.994
84809W        W46472  37.950  29.049  13.529
84810W        W46473  24.149  24.554  12.902
84811W        W46474  19.588  32.008  14.516
84812W        W46475   3.376   6.902  12.884
84813W        W46476  15.322  22.059  12.056
84814W        W46477  39.040  18.081   0.467
84815W        W46478  15.313  29.025  10.409
84816W        W46479   9.654  43.393   2.308
84817W        W46480   4.814   7.788   4.691
84818W        W46481   5.401  20.046   1.894
84819W        W46482   9.370  13.330  11.908
84820W        W46483  17.124  12.128  14.795
84821W        W46484   6.913   4.899   2.795
84822W        W46485  40.485   9.242   3.712
84823W        W46486   0.451  18.739   4.281
84824W        W46487  17.166  18.187   5.268
84825W        W46488  39.919  18.725  13.861
84826W        W46489  24.168  14.297  12.451
84827W        W46490   9.225  34.592  10.418
84828W        W46491  32.966  13.334   1.715
84829W        W46492  17.797  11.202  12.047
84830W        W46493  29.067   6.920   0.958
84831W        W46494   7.308  10.306  14.385
84832W        W46495  27.615  37.076  12.058
84833W        W46496   7.753  30.549  11.518
84834W        W46497  18.220  39.400  14.328
84835W        W46498  33.505  44.454  11.415
84836W        W46499   6.815  19.159  13.538
84837W        W46500  31.609  14.120   3.195
84838W        W46501   0.958  27.575   2.352
84839W        W46502  43.424  25.570   2.724
84840W        W46503   6.852  21.153   1.877
84841W        W46504   0.987   8.353   3.652
84842W        W46505  34.601  30.643  14.011
84843W        W46506  20.694  33.895  12.914
84844W        W46507  40.926  39.431   4.227
84845W        W46508  10.677  43.014   3.291
84846W        W46509  38.963  28.642   4.820
84847W        W46510  24.697  20.577   1.758
84848W        W46511   1.392   6.334   0.449
84849W        W46512  10.634  30.031  13.000
84850W        W46513   6.750  20.632  14.487
84851W        W46514  44.870  30.990  10.599
84852W        W46515  19.083  23.527  12.855
84853W        W46516  29.444  12.173  12.993
84854W        W46517  12.611  17.065  14.940
84855W        W46518  19.565  34.505   4.608
84856W        W46519  12.171  12.118  10.521
84857W        W46520  37.568  23.213   4.698
84858W        W46521  16.615   0.908  12.095
84859W        W46522   5.696  19.117  12.982
84860W        W46523  38.931   6.877  14.013
84861W        W46524   7.405  22.640  14.399
84862W        W46525  19.086  39.048  14.378
84863W        W46526   7.739  31.039  10.593
84864W        W46527  36.442  12.659   3.736
84865W        W46528  25.532  25.165  13.479
84866W        W46529  34.039  19.212  13.021
84867W        W46530  23.057   7.879  12.445
84868W        W46531   2.448   4.798  11.560
84869W        W46532  14.221   3.865   3.833
84870W        W46533  33.626  18.160  14.434
84871W        W46534  36.449  40.836  11.570
84872W        W46535  30.001  41.477   5.147
84873W        W46536  39.919  37.905   2.274
84874W        W46537  12.121  29.167  12.920
84875W        W46538  44.430  40.377   4.217
84876W        W46539  15.738  40.501  12.362
84877W        W46540  22.711  39.396   1.382
84878W        W46541   6.363   8.259  14.445
84879W        W46542  35.464  37.056  11.443
84880W        W46543  24.688  25.157  10.484
84881W        W46544  15.238   5.837   1.284
84882W        W46545  36.022  40.919  13.445
84883W        W46546  22.558  20.104  14.309
84884W        W46547  21.727   0.360  12.498
84885W        W46548  18.173  31.981   4.646
84886W        W46549  15.135  29.077   0.823
84887W        W46550  39.316  20.675  14.426
84888W        W46551  13.689  11.221   3.276
84889W        W46552  16.796   9.862  11.418
84890W        W46553  29.954   4.230  13.017
84891W        W46554  43.849   5.328   9.501
84892W        W46555   8.392  11.167  14.438
84893W        W46556  13.284   5.889  13.041
84894W        W46557  29.063  41.336   4.121
84895W        W46558  27.017  17.087  10.537
84896W        W46559  35.972  32.558  14.505
84897W        W46560   0.362  24.636  12.990
84898W        W46561  22.513  42.442  10.582
84899W        W46562  17.254  26.508   4.292
84900W        W46563  38.523  32.435  10.430
84901W        W46564  13.627  15.109  12.481
84902W        W46565  27.566  12.660   1.888
84903W        W46566   4.787  41.524   3.740
84904W        W46567  21.576  31.107   3.636
84905W        W46568  36.440  31.473   1.362
84906W        W46569   9.213  42.513  10.488
84907W        W46570   3.788  38.563   3.642
84908W        W46571  21.629  22.066  11.098
84909W        W46572  31.913  27.536  14.947
84910W        W46573  30.570  35.429   2.233
84911W        W46574   2.896  24.494   0.322
84912W        W46575  17.188   4.919  10.934
84913W        W46576  39.536  16.778  11.502
84914W        W46577  11.743  11.152  12.444
84915W        W46578  22.505  16.165  11.919
84916W        W46579  34.409  37.879  14.327
84917W        W46580  25.041  43.346  12.035
84918W        W46581  19.607  23.075  13.475
84919W        W46582  44.487  12.835  11.983
84920W        W46583   9.303  30.135   3.269
84921W        W46584  31.607  42.803  14.416
84922W        W46585  30.511  20.064   4.173
84923W        W46586  35.587  21.573  13.973
84924W        W46587   6.198  40.331  13.924
84925W        W46588  15.747  29.505   4.255
84926W        W46589   8.251   8.823  11.020
84927W        W46590   1.934   5.328   0.963
84928W        W46591  19.588   5.713  11.077
84929W        W46592  12.709  13.127   2.701
84930W        W46593  15.094  23.548  11.603
84931W        W46594  22.745  31.017   2.192
84932W        W46595  24.485   2.870   0.303
84933W        W46596  11.626   5.824   1.906
84934W        W46597  21.649  18.123   0.351
84935W        W46598   1.373  13.329   3.771
84936W        W46599  16.288  16.104   4.777
84937W        W46600  38.522  38.445   2.901
84938W        W46601  32.621  26.511  12.484
84939W        W46602  12.634  17.797   3.645
84940W        W46603  29.962   8.896  13.525
84941W        W46604  28.941  17.063   1.812
84942W        W46605   3.391  24.550  11.916
84943W        W46606  23.568  21.159  14.377
84944W        W46607   0.918  26.543   1.833
84945W        W46608  26.063  31.956  11.437
84946W        W46609  34.562  41.423  13.795
84947W        W46610  21.739  19.547   0.268
84948W        W46611  17.145  22.698   2.841
84949W        W46612  13.698   9.375   1.860
84950W        W46613  32.566   3.772  14.027
84951W        W46614  33.964  16.264   1.257
84952W        W46615  24.060  34.478   2.258
84953W        W46616  25.107  14.690   1.929
84954W        W46617   9.170   5.421  13.797
84955W        W46618  27.137  36.005   2.730
84956W        W46619   5.872   0.774  13.955
84957W        W46620  21.258   2.906   2.736
84958W        W46621  28.136  13.772   0.781
84959W        W46622  13.620  17.136   1.747
84960W        W46623  17.628  18.090   0.900
84961W        W46624  41.864  17.110  14.882
84962W        W46625  21.135  32.577   2.776
84963W        W46626  30.596  20.225  11.550
84964W        W46627  30.590   7.365  11.095
84965W        W46628  33.116  43.354  12.429
84966W        W46629   2.853  24.512   2.367
84967W        W46630   6.412  40.823   4.236
84968W        W46631  21.738  16.310   2.179
84969W        W46632  37.992  34.915  13.975
84970W        W46633  14.186  35.948   3.799
84971W        W46634   9.651  30.459  14.932
84972W        W46635  24.121  44.326  10.950
84973W        W46636  33.030  21.079   3.849
84974W        W46637  33.955  17.599  13.455
84975W        W46638  31.064   8.375   3.336
84976W        W46639  28.615   9.851   4.714
84977W        W46640  15.590   7.675  11.559
84978W        W46641  44.389  35.951   2.762
84979W        W46642  37.034   5.276   0.939
84980W        W46643   4.906  30.916   0.286
84981W        W46644  10.333  32.080   4.625
84982W        W46645  15.114  34.494   4.805
84983W        W46646  33.610  42.920  13.922
84984W        W46647  36.453  30.525   5.304
84985W        W46648  40.036   9.205  13.326
84986W        W46649  24.594  32.940   0.316
84987W        W46650  28.058  35.015   2.286
84988W        W46651  28.980   3.234   4.658
84989W        W46652  38.365  19.591   1.719
84990W        W46653   8.282  14.338  10.564
84991W        W46654  35.917  11.649   3.833
84992W        W46655   9.726  28.966   3.674
84993W        W46656   5.855   3.879  11.007
84994W        W46657  14.332   9.308   1.296
84995W        W46658  34.936  43.404  13.378
84996W        W46659  33.984  41.004  11.573
84997W        W46660  31.549  22.740   0.458
84998W        W46661  22.514  21.613   2.391
84999W        W46662  18.058   7.705   3.211
85000W        W46663  27.065   0.382  10.954
85001W        W46664  44.327  37.947   1.860
85002W        W46665  25.502  20.601   3.364
85003W        W46666  40.446  41.528  10.021
85004W        W46667  27.626  36.384  12.458
85005W        W46668  23.078  22.201  12.482
85006W        W46669  23.558   0.978  14.419
85007W        W46670  22.100  43.405   0.899
85008W        W46671  23.151   3.390  14.326
85009W        W46672  16.591  44.808   3.175
85010W        W46673  27.134  19.714   4.649
85011W        W46674  26.522  29.134  11.032
85012W        W46675  24.585  20.599   2.741
85013W        W46676  18.250  16.163   1.387
85014W        W46677  32.050  33.124   9.942
85015W        W46678  23.547  40.963   1.892
85016W        W46679   0.438  17.181  14.323
85017W        W46680  39.826  35.382   1.915
85018W        W46681  13.623   3.405   4.132
85019W        W46682  21.694  28.174  14.932
85020W        W46683  15.209  34.564   3.661
85021W        W46684   9.750   8.255  13.504
85022W        W46685  32.567  21.055  14.903
85023W        W46686  28.076  28.627  12.903
85024W        W46687  25.045  24.165   4.821
85025W        W46688  15.230   1.371  13.979
85026W        W46689  26.692  20.666   2.664
85027W        W46690  12.827  28.463   0.866
85028W        W46691   3.718  37.864  13.367
85029W        W46692   4.208   9.345   2.385
85030W        W46693  24.177  34.925   1.727
85031W        W46694  33.129  44.485  13.405
85032W        W46695  32.955  19.085   2.207
85033W        W46696  39.925  30.150   4.743
85034W        W46697  12.809  41.519  10.553
85035W        W46698  12.267  19.201   1.804
85036W        W46699  24.128  28.562  13.038
85037W        W46700  43.873  14.769  11.461
85038W        W46701  22.024  23.186   4.788
85039W        W46702  38.536  38.883   2.687
85040W        W46703  13.108   4.359   3.349
85041W        W46704  26.582  13.324   1.333
85042W        W46705  22.607  36.862  12.565
85043W        W46706  33.995  43.422  14.871
85044W        W46707  35.379  14.192  12.030
85045W        W46708   9.313  14.143   5.130
85046W        W46709  36.526  43.985  10.542
85047W        W46710  13.781  12.345   4.756
85048W        W46711  18.752  38.520  14.491
85049W        W46712   5.313  10.676  13.529
85050W        W46713  10.712  22.189   3.183
85051W        W46714  15.701  16.092  13.865
85052W        W46715  17.106  38.356   3.178
85053W        W46716  34.088   4.445   1.741
85054W        W46717  11.249  38.957   5.205
85055W        W46718   8.778  19.100   0.943
85056W        W46719  29.510   0.928  14.507
85057W        W46720  22.216  19.053  13.820
85058W        W46721  25.548   9.788  13.917
85059W        W46722  16.653   5.709  12.035
85060W        W46723  27.145  13.190  13.911
85061W        W46724   4.407  15.261   4.293
85062W        W46725  13.260  16.704  10.535
85063W        W46726  10.847  39.924  10.482
85064W        W46727   0.318  42.335  10.624
85065W        W46728  42.779  15.100  11.981
85066W        W46729  37.402  42.021   4.821
85067W        W46730  18.583   6.308  11.040
85068W        W46731  24.114   9.693  14.343
85069W        W46732  12.149  34.982   1.753
85070W        W46733   0.884   4.352  12.440
85071W        W46734  27.526   8.708  11.011
85072W        W46735  17.219  28.085  11.522
85073W        W46736  43.871  42.829  11.902
85074W        W46737  42.401  31.965   1.246
85075W        W46738  11.186   5.864   9.534
85076W        W46739  15.215   0.788   4.768
85077W        W46740  36.533  14.166  14.793
85078W        W46741  37.059  12.764  14.924
85079W        W46742  33.390  44.808  13.017
85080W        W46743   0.354  10.856  13.858
85081W        W46744  21.602  42.398   2.218
85082W        W46745  35.528   7.857   2.707
85083W        W46746  33.421   7.751   9.979
85084W        W46747  35.872  23.724  13.370
85085W        W46748   5.883   6.378  12.081
85086W        W46749  14.178  35.540  13.487
85087W        W46750  35.448  26.111  13.843
85088W        W46751  15.715  13.335   1.282
85089W        W46752  37.981  38.949  12.466
85090W        W46753  31.473  29.131   3.288
85091W        W46754  40.881  19.261   3.219
85092W        W46755   1.258  35.418   2.301
85093W        W46756  33.003  10.202  12.529
85094W        W46757   7.769  23.218  10.925
85095W        W46758  20.671  38.348   1.281
85096W        W46759   7.224  41.786   1.711
85097W        W46760  26.478  39.858  13.538
85098W        W46761  25.194   4.407   1.296
85099W        W46762   5.700  25.570  10.571
85100W        W46763  22.740  11.150   3.748
85101W        W46764  17.191  35.005  14.961
85102W        W46765  44.809  40.880  14.375
85103W        W46766  10.364  26.598   3.341
85104W        W46767  18.745  33.597   2.667
85105W        W46768  28.142  42.978   0.738
85106W        W46769   5.841   0.460   3.742
85107W        W46770  31.906   3.269  13.351
85108W        W46771   7.793  34.590   0.967
85109W        W46772  30.117  25.470   4.334
85110W        W46773  28.957  39.940   5.299
85111W        W46774   3.741   4.749  14.398
85112W        W46775  40.375  15.729  13.367
85113W        W46776   8.662  17.762  12.457
85114W        W46777  32.418  14.313  13.804
85115W        W46778  37.408  35.449  11.420
85116W        W46779  19.638  37.389  12.513
85117W        W46780  40.541  24.526   4.603
85118W        W46781  31.573  36.913  12.467
85119W        W46782   3.363  25.198   4.838
85120W        W46783  13.310  15.167  11.975
85121W        W46784  20.724  26.641  12.960
85122W        W46785  26.093  20.167   0.893
85123W        W46786   1.425  26.549   3.249
85124W        W46787  15.631  28.444  12.496
85125W        W46788  12.281  42.346   1.721
85126W        W46789  20.756  15.165   5.682
85127W        W46790  25.611   3.406   1.727
85128W        W46791  43.983  32.103  12.067
85129W        W46792   2.855  42.903  13.015
85130W        W46793  35.543  44.819  11.578
85131W        W46794  19.082  26.618   1.411
85132W        W46795  27.612  14.738   1.317
85133W        W46796   1.239  37.371   1.709
85134W        W46797  40.975  18.716  11.562
85135W        W46798  32.630  40.970  11.055
85136W        W46799   8.798  39.011  14.799
85137W        W46800   5.928  20.166   2.849
85138W        W46801  20.723  15.600   1.450
85139W        W46802  10.673  22.233  10.554
85140W        W46803   5.424  33.089  11.460
85141W        W46804   6.692  21.180  13.443
85142W        W46805   1.772   7.866   2.211
85143W        W46806   1.820  27.062  11.919
85144W        W46807  36.096  21.081   1.770
85145W        W46808  26.110  36.575  12.841
85146W        W46809  11.142  35.516  12.512
85147W        W46810   7.817  42.025  10.918
85148W        W46811  42.459  41.501   0.839
85149W        W46812   4.265  32.128  12.015
85150W        W46813  26.064  15.094  12.939
85151W        W46814  23.545  38.860  14.787
85152W        W46815   5.412   2.802   3.724
85153W        W46816  15.746  32.507   2.806
85154W        W46817  44.446  44.978   0.396
85155W        W46818  36.005  40.458   2.187
85156W        W46819  17.103  12.308   2.274
85157W        W46820   1.906  44.311  10.543
85158W        W46821   6.401   0.888   5.212
85159W        W46822  42.306  41.497   1.705
85160W        W46823   1.305  11.175   4.779
85161W        W46824  21.726  16.259   4.700
85162W        W46825  44.927  26.151   2.675
85163W        W46826  12.337  29.445  14.333
85164W        W46827  31.445  33.414  11.545
85165W        W46828  25.164  18.079   0.294
85166W        W46829  35.366  37.351  13.940
85167W        W46830  30.426  36.028   2.245
85168W        W46831  14.776  14.657   2.285
85169W        W46832  36.414   9.177  14.279
85170W        W46833  30.466  29.462   0.387
85171W        W46834  14.685  21.167   1.742
85172W        W46835  36.484  23.198   1.807
85173W        W46836  39.899  12.764  10.927
85174W        W46837  32.081  12.648  11.075
85175W        W46838  35.416   0.774   3.702
85176W        W46839  14.650  40.052  11.085
85177W        W46840   4.417  25.557  13.385
85178W        W46841   5.235  34.966   0.887
85179W        W46842  25.713  35.038   2.314
85180W        W46843   5.787  35.073   0.365
85181W        W46844  26.525   5.759  12.989
85182W        W46845   6.709   8.752  11.913
85183W        W46846   6.812   9.355  13.440
85184W        W46847  26.977  17.656  10.442
85185W        W46848  33.957   7.219  12.917
85186W        W46849  37.554  22.084  13.390
85187W        W46850  35.380   8.775  10.487
85188W        W46851  43.481  33.413  14.904
85189W        W46852  20.107  44.902   0.339
85190W        W46853  25.638   8.283   3.191
85191W        W46854  26.115  22.174   3.818
85192W        W46855  37.541  10.823  14.891
85193W        W46856  13.121  21.056  14.839
85194W        W46857  25.682  33.562   1.792
85195W        W46858  21.207  26.665   1.306
85196W        W46859  38.018  12.145   0.467
85197W        W46860  17.587  38.838  13.405
85198W        W46861  14.751  34.969   3.773
85199W        W46862  18.113  40.489  14.939
85200W        W46863  19.565  43.315  14.317
85201W        W46864  37.463  41.976   1.397
85202W        W46865   2.445  15.709  11.068
85203W        W46866  37.842  23.689  12.910
85204W        W46867  41.329  39.486  11.927
85205W        W46868  42.384  36.964  10.548
85206W        W46869  35.441  26.963   0.368
85207W        W46870  29.137  10.239   4.708
85208W        W46871  35.889  34.923   4.709
85209W        W46872  24.189  11.654  12.969
85210W        W46873  42.452  40.930   0.323
85211W        W46874  13.832   9.732   0.851
85212W        W46875   0.347  24.550  12.092
85213W        W46876  31.139  22.203   3.816
85214W        W46877  29.498  39.502   0.753
85215W        W46878  19.593  27.524   4.641
85216W        W46879  10.776  35.522   2.893
85217W        W46880  24.650  30.526  14.287
85218W        W46881   6.852  36.376  14.975
85219W        W46882   8.882  20.149   1.272
85220W        W46883   9.884  42.909   2.841
85221W        W46884  28.465   9.243   3.633
85222W        W46885  43.785   2.447   2.801
85223W        W46886   0.483  23.174   0.802
85224W        W46887  30.569  31.568  10.567
85225W        W46888  27.985   1.968  11.068
85226W        W46889  10.699  44.830  11.528
85227W        W46890  28.012   3.345   0.737
85228W        W46891  43.388  33.418   3.357
85229W        W46892   4.859   3.729   0.727
85230W        W46893  15.658   5.736  14.378
85231W        W46894  13.240  24.181   3.824
85232W        W46895  20.759  32.414  14.838
85233W        W46896  22.533   9.175   2.262
85234W        W46897  15.172  14.775  10.579
85235W        W46898  44.816  22.747  11.122
85236W        W46899  22.598   2.392  13.916
85237W        W46900  14.260  15.243  14.808
85238W        W46901   3.312   2.328   1.759
85239W        W46902  38.828  12.730   1.400
85240W        W46903  37.574  26.019   0.827
85241W        W46904   9.850  28.647  13.379
85242W        W46905   9.207  12.691   4.685
85243W        W46906   9.199  37.468  10.623
85244W        W46907   2.275  18.732   0.316
85245W        W46908  28.676  22.668   0.420
85246W        W46909  13.822  12.289  14.315
85247W        W46910  31.943  40.396   4.340
85248W        W46911  27.983  21.225   2.668
85249W        W46912  15.664   9.837  14.499
85250W        W46913  16.143  16.142   1.271
85251W        W46914   7.263  42.992  10.468
85252W        W46915  13.139  38.868  13.496
85253W        W46916  21.237  10.661  14.305
85254W        W46917  15.308  24.525  12.474
85255W        W46918  22.032   6.825  11.378
85256W        W46919  15.320   6.372   2.812
85257W        W46920  27.033  15.611   4.266
85258W        W46921   4.431  25.186  14.390
85259W        W46922   5.915  15.261   0.431
85260W        W46923  22.523  14.214   3.279
85261W        W46924  35.381  25.582  11.486
85262W        W46925  16.703  15.615   3.718
85263W        W46926  18.748  39.524   0.449
85264W        W46927  44.901  38.046  10.969
85265W        W46928  21.167  20.621   2.680
85266W        W46929  39.938  12.236  11.987
85267W        W46930  28.093  30.571  11.571
85268W        W46931  24.007  33.066   3.366
85269W        W46932  21.702  34.573   2.858
85270W        W46933  20.097  27.483   4.667
85271W        W46934  44.400  43.399   2.694
85272W        W46935   8.886   6.418  10.635
85273W        W46936   3.254  20.171  14.321
85274W        W46937  12.761   8.282   0.842
85275W        W46938   8.755  43.020  11.932
85276W        W46939  31.495  12.649  14.777
85277W        W46940   1.368  39.544  12.893
85278W        W46941  39.511  28.061   1.279
85279W        W46942  43.929  12.178   3.177
85280W        W46943  14.208   0.987   0.394
85281W        W46944  27.524  41.995  13.392
85282W        W46945  20.657  27.161   2.744
85283W        W46946  42.890  18.189  11.890
85284W        W46947  38.426  31.021  11.911
85285W        W46948  34.038  36.079   1.787
85286W        W46949   0.971  40.905  10.586
85287W        W46950  29.140   0.396  13.904
85288W        W46951  24.178   5.302  13.502
85289W        W46952  33.385  25.209   4.196
85290W        W46953  30.506   9.380  14.877
85291W        W46954   2.839  31.584  13.991
85292W        W46955  29.075  33.007  11.447
85293W        W46956  38.423  11.146   1.823
85294W        W46957  24.160  23.171   2.686
85295W        W46958  25.542   2.294  12.081
85296W        W46959  13.743  26.483  13.060
85297W        W46960  21.077   9.215   4.730
85298W        W46961  28.975  32.396  12.447
85299W        W46962   1.412   3.774  14.785
85300W        W46963  30.158  23.512  13.827
85301W        W46964  14.646  43.458  12.885
85302W        W46965  44.900   5.690  12.920
85303W        W46966  38.938  35.870   3.250
85304W        W46967   5.713  22.643   3.844
85305W        W46968   3.297  24.044   5.139
85306W        W46969  37.366  18.735  13.476
85307W        W46970  19.720  11.250   2.845
85308W        W46971   2.780  17.647   2.796
85309W        W46972  13.203  30.959   3.353
85310W        W46973  22.217  17.754   4.252
85311W        W46974   5.858   8.320   3.290
85312W        W46975  24.602  30.087   4.252
85313W        W46976  25.630  32.514   4.347
85314W        W46977  14.118   4.366   0.940
85315W        W46978  38.398  43.399   3.696
85316W        W46979  24.080  39.438  12.902
85317W        W46980   4.221  14.819   4.653
85318W        W46981  41.870   4.900   1.294
85319W        W46982  13.319   5.364   4.296
85320W        W46983  40.024  24.996  14.359
85321W        W46984  26.990  31.903   1.771
85322W        W46985  39.821  17.770   4.752
85323W        W46986  17.668  35.562  13.862
85324W        W46987   4.322  27.114   1.740
85325W        W46988   0.273   7.172   1.429
85326W        W46989  18.566  38.872  10.480
85327W        W46990  23.191   0.485  10.581
85328W        W46991  29.661  14.591  13.364
85329W        W46992  36.844  18.220  12.887
85330W        W46993  11.858  16.162   0.763
85331W        W46994  17.104  20.164   1.714
85332W        W46995   1.976   3.421   3.648
85333W        W46996  17.675  14.280   1.302
85334W        W46997   5.313  40.002  14.993
85335W        W46998  17.748  18.675   3.184
85336W        W46999  10.243   3.264   4.643
85337W        W47000  44.942  23.022  13.403
85338W        W47001  16.808  39.005   0.770
85339W        W47002   0.841   8.688  11.984
85340W        W47003   7.382   7.369  12.489
85341W        W47004  40.865   1.949   3.797
85342W        W47005  22.737   4.905  14.293
85343W        W47006  20.540  30.482   3.356
85344W        W47007   5.348   2.393  12.082
85345W        W47008  22.219  15.090   4.343
85346W        W47009  28.018  12.771   3.801
85347W        W47010  20.615  19.281   4.129
85348W        W47011  43.403  13.167  14.985
85349W        W47012  23.074   5.855  11.093
85350W        W47013  19.710  33.528   0.446
85351W        W47014  25.614  15.602  10.905
85352W        W47015  13.231  15.197   1.851
85353W        W47016  39.388  36.511   1.368
85354W        W47017  22.208  20.577   1.288
85355W        W47018  25.607   0.381   1.403
85356W        W47019  16.790  41.000  11.591
85357W        W47020  14.596  32.992   0.791
85358W        W47021   7.341  36.582  10.897
85359W        W47022  42.959  31.528  13.968
85360W        W47023  33.544  23.203   1.211
85361W        W47024  42.851   8.790   0.784
85362W        W47025   8.209   3.401   3.785
85363W        W47026   0.863   2.734  11.484
85364W        W47027  34.404  43.448  12.351
85365W        W47028  34.016  43.955   0.885
85366W        W47029  11.155  10.689  10.107
85367W        W47030  21.093  39.929   1.798
85368W        W47031  43.370  35.891   4.629
85369W        W47032  42.915  37.380   1.431
85370W        W47033  11.772  28.108  14.859
85371W        W47034  39.545  34.441  13.346
85372W        W47035  12.718  34.518   0.458
85373W        W47036  12.642  19.232  14.393
85374W        W47037   3.742  17.062  13.536
85375W        W47038  27.102  22.683  14.958
85376W        W47039   3.869  14.248  11.486
85377W        W47040  11.349  14.245  14.871
85378W        W47041  14.313  37.927   4.733
85379W        W47042   3.934  39.046  12.540
85380W        W47043  12.117  32.914  11.443
85381W        W47044  12.666  18.277  10.418
85382W        W47045   5.329  26.101  11.895
85383W        W47046  40.818  25.219   0.440
85384W        W47047  21.736  27.106  11.895
85385W        W47048  33.075  32.044   0.871
85386W        W47049  27.049   2.907  11.036
85387W        W47050  10.850  11.780  14.306
85388W        W47051  31.624   5.316  12.984
85389W        W47052  25.578  32.398  14.823
85390W        W47053   4.430  29.094   4.335
85391W        W47054   5.808   4.298  13.515
85392W        W47055  44.000   9.163  11.484
85393W        W47056  42.826  28.522  12.346
85394W        W47057  41.534  17.683   0.350
85395W        W47058   4.766  12.161   2.902
85396W        W47059  16.594  20.681   1.770
85397W        W47060  20.702  23.636   1.824
85398W        W47061  16.257  10.806  14.999
85399W        W47062   3.254  28.174  14.880
85400W        W47063  42.333  11.127   1.816
85401W        W47064  20.216  38.359   0.926
85402W        W47065  14.293  18.056  13.447
85403W        W47066  33.884  14.696  11.574
85404W        W47067  44.259  14.185   5.619
85405W        W47068   9.666  44.394   1.347
85406W        W47069  41.039   4.384   3.681
85407W        W47070  44.949  33.412   4.260
85408W        W47071   3.867  34.022   4.636
85409W        W47072  15.678  33.112  14.884
85410W        W47073   9.289   5.881   0.377
85411W        W47074  21.083  41.850  10.463
85412W        W47075  31.092  29.549   3.185
85413W        W47076  30.415  18.763   2.190
85414W        W47077  37.569  38.954  11.900
85415W        W47078  38.884   3.953  11.984
85416W        W47079  22.141  11.362   3.289
85417W        W47080  38.886  39.953   3.816
85418W        W47081  39.950   4.723  11.937
85419W        W47082  32.082  43.806  14.412
85420W        W47083  42.780  16.813  12.035
85421W        W47084  22.671  37.406   0.299
85422W        W47085  19.245  37.069   2.313
85423W        W47086  29.923  31.549  11.909
85424W        W47087   1.340  34.990   1.916
85425W        W47088  42.921   2.372   2.247
85426W        W47089  38.991  32.550  13.433
85427W        W47090  27.151  40.523  13.354
85428W        W47091  12.258  42.816   2.289
85429W        W47092   7.687   7.786   0.803
85430W        W47093   1.293  41.859   4.313
85431W        W47094   1.447  37.011  10.417
85432W        W47095  44.367  13.793   1.323
85433W        W47096  38.536  39.362   4.663
85434W        W47097  40.050   0.293  13.800
85435W        W47098  41.447  36.389   3.361
85436W        W47099  24.562  44.796  13.013
85437W        W47100  20.075  32.962   3.768
85438W        W47101  42.370  33.451  13.420
85439W        W47102   3.277   5.890   0.808
85440W        W47103   0.823   7.378   0.767
85441W        W47104   9.264  14.208  11.926
85442W        W47105   3.329   2.391   1.262
85443W        W47106  40.890  28.632  14.921
85444W        W47107  21.531  12.340  14.800
85445W        W47108   2.463  21.716   0.432
85446W        W47109  34.098  41.311   1.865
85447W        W47110  16.184  20.715   3.243
85448W        W47111  12.730  11.691   4.288
85449W        W47112  36.397   9.657   0.400
85450W        W47113   8.361  15.792   1.254
85451W        W47114  28.572  16.120   0.790
85452W        W47115  25.095  16.210   0.343
85453W        W47116   4.427   0.906   0.479
85454W        W47117  29.062   3.731   1.764
85455W        W47118   1.247  13.165  14.367
85456W        W47119   2.300   8.282   3.820
85457W        W47120  17.622  10.861   4.151
85458W        W47121  14.300  36.991  12.423
85459W        W47122  31.553  35.526   1.359
85460W        W47123  30.621   5.209   2.760
85461W        W47124  42.854  34.493   4.686
85462W        W47125  20.200   1.302  11.875
85463W        W47126  32.531  34.580  12.370
85464W        W47127   2.375  15.734  14.806
85465W        W47128  12.694  42.890   0.382
85466W        W47129  15.325  11.201  12.461
85467W        W47130  11.665  28.641   3.656
85468W        W47131  25.593  18.744   2.363
85469W        W47132  28.989   8.795   1.331
85470W        W47133   4.833  39.375   4.334
85471W        W47134  34.029  32.401  11.378
85472W        W47135  14.218  35.904   2.231
85473W        W47136   9.352  16.632  13.978
85474W        W47137  19.233   8.267  13.530
85475W        W47138   8.245   0.922   2.687
85476W        W47139  20.129  27.194   3.661
85477W        W47140   0.817   5.899   1.390
85478W        W47141  44.905  31.620  12.965
85479W        W47142  41.325  32.418   1.885
85480W        W47143  36.983  11.260   1.387
85481W        W47144  20.071  44.260  12.841
85482W        W47145  10.846  12.262  11.012
85483W        W47146  42.810   4.298   0.381
85484W        W47147  25.122  15.109   1.824
85485W        W47148  19.121   8.901  11.517
85486W        W47149  14.791  25.588  11.044
85487W        W47150  20.545  36.097  14.766
85488W        W47151  44.762  37.485   2.754
85489W        W47152  25.027  13.132   1.309
85490W        W47153   4.861  20.750  14.946
85491W        W47154  33.475   1.380   1.214
85492W        W47155  44.997   0.275   2.732
85493W        W47156  18.075  16.792  11.443
85494W        W47157  34.976  21.719  14.353
85495W        W47158  12.703   1.798   3.721
85496W        W47159  18.213  18.784   1.854
85497W        W47160  29.503  29.992  14.365
85498W        W47161  27.530  39.423  10.590
85499W        W47162  14.163  27.648   4.129
85500W        W47163  32.524   8.314  11.482
85501W        W47164  23.687  28.165   4.667
85502W        W47165  36.439  10.197  13.916
85503W        W47166  28.585   6.260  14.416
85504W        W47167  23.200  37.398  13.482
85505W        W47168  44.334   5.771   4.783
85506W        W47169  12.230  10.823  10.554
85507W        W47170  39.338  29.035   3.290
85508W        W47171  40.323  36.010   5.150
85509W        W47172   1.271  21.681  14.300
85510W        W47173  31.408  26.026   3.374
85511W        W47174   1.285  12.663   1.361
85512W        W47175  33.433  14.096   4.678
85513W        W47176  26.623   2.370  10.600
85514W        W47177   7.703  43.800  13.436
85515W        W47178   2.309  28.091   4.234
85516W        W47179   4.860  36.916  12.457
85517W        W47180  24.507  16.775   3.674
85518W        W47181  24.096  29.157   3.270
85519W        W47182  31.437  18.744  14.782
85520W        W47183   5.360  24.603   2.292
85521W        W47184   6.253  19.711   3.258
85522W        W47185  31.639  40.024  11.606
85523W        W47186  16.101  33.551  14.933
85524W        W47187  39.349  27.074   3.354
85525W        W47188  31.565   1.395   4.288
85526W        W47189  33.039  32.478   0.376
85527W        W47190  32.887  24.201   5.255
85528W        W47191  15.762  15.635  10.952
85529W        W47192  43.770  11.141   2.285
85530W        W47193   8.366  39.515   4.836
85531W        W47194  30.046  37.483   0.357
85532W        W47195  26.055  16.286  11.581
85533W        W47196  10.380  23.633   4.793
85534W        W47197  34.091  28.481  10.953
85535W        W47198  23.505  34.975  14.438
85536W        W47199  43.790  35.486  10.914
85537W        W47200   6.416  26.491   2.873
85538W        W47201   2.236  30.135   1.217
85539W        W47202  14.173  22.124  14.000
85540W        W47203   7.256  18.729  12.554
85541W        W47204  38.503  43.854  11.086
85542W        W47205  18.579   0.326  11.997
85543W        W47206  34.607  15.309   4.761
85544W        W47207  25.991  19.151   2.875
85545W        W47208  36.581  30.597   3.170
85546W        W47209   9.192  25.216  13.892
85547W        W47210  20.690  24.611  12.995
85548W        W47211  43.307  31.072  14.950
85549W        W47212  19.541  44.301   0.953
85550W        W47213  17.157  28.510  12.030
85551W        W47214   1.298   4.270   1.414
85552W        W47215   5.391  21.593  12.533
85553W        W47216   6.354   6.771  10.639
85554W        W47217  14.098   7.296   3.168
85555W        W47218  19.224   9.736   0.346
85556W        W47219  25.644  41.839  12.429
85557W        W47220  17.233  20.095   4.152
85558W        W47221  23.718  32.027   3.787
85559W        W47222  12.756  22.999  12.506
85560W        W47223  28.060  18.782  13.982
85561W        W47224  30.021  42.325  14.844
85562W        W47225  43.857  12.151   1.771
85563W        W47226  32.079  31.031   2.717
85564W        W47227  20.028  27.143   2.390
85565W        W47228   7.791   5.833  14.842
85566W        W47229  11.235  41.490   1.757
85567W        W47230   0.859   2.344   3.183
85568W        W47231  32.467  39.426  11.967
85569W        W47232  32.434  17.095  10.407
85570W        W47233  32.606  42.883   0.280
85571W        W47234  44.354  29.566   4.809
85572W        W47235  40.382  18.607   2.322
85573W        W47236  14.744  13.682  13.016
85574W        W47237   6.406  43.354   4.228
85575W        W47238  14.137   4.940  13.413
85576W        W47239  31.444  12.766  11.979
85577W        W47240  13.234  30.523   1.765
85578W        W47241  36.513  43.375  14.798
85579W        W47242  19.695  35.556  14.377
85580W        W47243  31.031  44.370   4.613
85581W        W47244   2.261   4.827   3.641
85582W        W47245  16.161  28.449  11.904
85583W        W47246  11.359  11.197   3.377
85584W        W47247  38.983  23.560  14.283
85585W        W47248  20.175   2.325  10.508
85586W        W47249  26.467  32.936  10.014
85587W        W47250  21.234   7.671  10.411
85588W        W47251  32.598   1.364   3.164
85589W        W47252   5.395   8.177  12.856
85590W        W47253   6.862   7.719  11.478
85591W        W47254  33.507  36.011  10.914
85592W        W47255  35.893  38.828   4.620
85593W        W47256   0.417   9.644   4.183
85594W        W47257  29.173  28.157   4.789
85595W        W47258  10.384  13.313  10.943
85596W        W47259  36.918  42.375   4.338
85597W        W47260  39.922   6.887  11.089
85598W        W47261  27.662  31.492   3.740
85599W        W47262   9.750  22.612   3.269
85600W        W47263  34.412  20.629  13.506
85601W        W47264  26.577   0.272   1.874
85602W        W47265   4.424  38.329   2.406
85603W        W47266  29.066  40.549  11.571
85604W        W47267  20.761  20.629   4.339
85605W        W47268  42.897  16.689   4.284
85606W        W47269  25.196  31.054   1.917
85607W        W47270  36.034  34.891  12.414
85608W        W47271  31.004  18.785  10.139
85609W        W47272  39.901  30.931  11.964
85610W        W47273  10.874  44.483   2.329
85611W        W47274  20.081  41.935  13.015
85612W        W47275  29.651  37.911  12.535
85613W        W47276  19.696  42.862  12.432
85614W        W47277  37.012  21.260   2.242
85615W        W47278  20.109   4.898  11.938
85616W        W47279   0.317  24.581  11.514
85617W        W47280  30.445   2.272  12.354
85618W        W47281   8.304  12.805  14.004
85619W        W47282   4.252  44.291  12.406
85620W        W47283  33.934   9.205  10.529
85621W        W47284  41.966  37.556   1.913
85622W        W47285   6.339   5.420  11.865
85623W        W47286  37.985  15.270  14.972
85624W        W47287   6.233  17.223   0.318
85625W        W47288  28.113  25.579  11.432
85626W        W47289  34.576   8.663   0.968
85627W        W47290  44.822  16.575  14.953
85628W        W47291  30.023  11.804  10.948
85629W        W47292  34.894  22.647   1.733
85630W        W47293  44.388   6.676  13.992
85631W        W47294  37.503  23.661   0.955
85632W        W47295   8.685  44.984  14.011
85633W        W47296  16.272  20.678   1.330
85634W        W47297  11.728  42.392  11.464
85635W        W47298   2.793  43.870  11.494
85636W        W47299   0.752  36.080  11.549
85637W        W47300  28.571  26.951   1.306
85638W        W47301  31.034  26.190   3.849
85639W        W47302   3.911  40.867   1.223
85640W        W47303  40.870  42.902   1.805
85641W        W47304  24.097  37.855   1.706
85642W        W47305  20.620  26.145  12.504
85643W        W47306  27.467   4.818  13.454
85644W        W47307   2.339   5.422  13.038
85645W        W47308   5.212  15.126  11.386
85646W        W47309  42.412  30.478  13.984
85647W        W47310  41.392  15.744   3.788
85648W        W47311  40.407  37.867  11.543
85649W        W47312  12.232  35.502   4.719
85650W        W47313  35.049  35.523   3.363
85651W        W47314  40.452   6.823  11.492
85652W        W47315  38.504  34.919   3.333
85653W        W47316  33.915  11.271  11.378
85654W        W47317  31.425   6.342   4.819
85655W        W47318  39.371  16.574  12.444
85656W        W47319  35.485  24.983   0.353
85657W        W47320  38.954   4.447   2.285
85658W        W47321  15.760  28.591  14.391
85659W        W47322  39.952   4.797   2.754
85660W        W47323  13.691  34.511  12.020
85661W        W47324  36.581  37.907   0.447
85662W        W47325  34.035  14.682   2.789
85663W        W47326  40.539  24.112   1.709
85664W        W47327  26.131  41.303  14.929
85665W        W47328  13.218  26.564   3.861
85666W        W47329   3.416  14.242  11.471
85667W        W47330  31.469  36.593   4.638
85668W        W47331  29.149  20.172  11.572
85669W        W47332  36.449   6.362  12.075
85670W        W47333  19.171  13.138   2.278
85671W        W47334  25.112  36.418   0.450
85672W        W47335   8.768  37.830   4.713
85673W        W47336  34.376  41.355   1.925
85674W        W47337  35.592  22.205   4.787
85675W        W47338   9.265  19.547  13.481
85676W        W47339  25.091  38.019  11.046
85677W        W47340  12.828   7.890   0.902
85678W        W47341  39.054  10.220   3.686
85679W        W47342  15.142  38.397  11.580
85680W        W47343  40.475  37.541  13.837
85681W        W47344  23.701  24.037   2.786
85682W        W47345  16.691  44.292  12.461
85683W        W47346  26.589  23.705   0.960
85684W        W47347  41.960  39.889  10.968
85685W        W47348  13.325  29.108   3.684
85686W        W47349  22.141  20.720   3.753
85687W        W47350  18.708  13.759   2.860
85688W        W47351  23.160  32.004   2.780
85689W        W47352  25.475  39.532   2.382
85690W        W47353  36.050   3.787  12.535
85691W        W47354  26.967   3.816   4.703
85692W        W47355   0.778  34.443  13.452
85693W        W47356  14.243  17.263  10.976
85694W        W47357  24.672   2.253  14.904
85695W        W47358  12.675  22.657   0.439
85696W        W47359  29.520   2.353   1.230
85697W        W47360  28.056  19.198  14.792
85698W        W47361  24.205   1.967  12.938
85699W        W47362   9.752  17.200   0.761
85700W        W47363  33.466  20.131  11.951
85701W        W47364  33.429  20.149   2.404
85702W        W47365  27.979  23.055  11.063
85703W        W47366  26.490  35.996   0.837
85704W        W47367  22.687  19.071  11.465
85705W        W47368   0.779  14.265   0.910
85706W        W47369  17.292  30.474  12.823
85707W        W47370   6.312  42.857   3.147
85708W        W47371   4.343  33.018  14.389
85709W        W47372  26.055  19.743   3.851
85710W        W47373  31.541  18.566   1.291
85711W        W47374  42.833  20.082   1.895
85712W        W47375  23.627   8.898   4.779
85713W        W47376   2.396  11.717  10.942
85714W        W47377  23.072  40.419   2.403
85715W        W47378  21.670  35.042   2.309
85716W        W47379   5.928  40.020  11.868
85717W        W47380  12.674  10.260  12.442
85718W        W47381  26.962  36.545   0.866
85719W        W47382   4.406   0.403   1.315
85720W        W47383  30.926   3.905  10.941
85721W        W47384  34.931  22.033   0.874
85722W        W47385  25.545  20.182   0.480
85723W        W47386  16.736  40.356  13.856
85724W        W47387  44.959   3.356  14.496
85725W        W47388  25.637  28.477  10.558
85726W        W47389  38.945  12.784   0.743
85727W        W47390   3.777   6.861   3.814
85728W        W47391  42.890   2.378   3.775
85729W        W47392  12.309  20.584  11.980
85730W        W47393  42.003   1.287  13.413
85731W        W47394  29.165  25.129  10.971
85732W        W47395  28.137  26.610  13.023
85733W        W47396  44.286  13.138  12.085
85734W        W47397  37.962  21.140   0.364
85735W        W47398  39.370  16.228  11.098
85736W        W47399  23.536  24.536   3.771
85737W        W47400   6.770   9.768   2.296
85738W        W47401   7.312  33.541   4.608
85739W        W47402  21.535  27.483  10.591
85740W        W47403   8.169  36.482  14.439
85741W        W47404   3.269   8.782  13.866
85742W        W47405  12.180   0.451  14.335
85743W        W47406   3.460  16.758  11.464
85744W        W47407  24.514  29.176  11.389
85745W        W47408  29.092  33.569  11.390
85746W        W47409  16.260  35.879  13.790
85747W        W47410  31.444  44.371   1.386
85748W        W47411  42.472  44.766   2.809
85749W        W47412  21.580  20.203  13.317
85750W        W47413  29.495  25.212  11.505
85751W        W47414  43.002   6.797  12.052
85752W        W47415  43.400  43.457   0.846
85753W        W47416  23.707  40.310   3.850
85754W        W47417   4.902  32.045  11.448
85755W        W47418  38.921  27.598   4.306
85756W        W47419   1.271  23.662  10.931
85757W        W47420  43.414  44.842  12.955
85758W        W47421  20.742  43.492  13.990
85759W        W47422  24.541  11.683   2.666
85760W        W47423   2.278  28.619  11.374
85761W        W47424   2.433  42.322   1.410
85762W        W47425  30.945  44.812   4.185
85763W        W47426   6.692  35.545   1.779
85764W        W47427  42.494  39.843  14.871
85765W        W47428  23.682  30.567   1.744
85766W        W47429  41.847   5.379  13.333
85767W        W47430   1.811  23.041   4.695
85768W        W47431  25.523  24.974  13.063
85769W        W47432   9.190  42.964  11.398
85770W        W47433  12.272  10.356  12.505
85771W        W47434  24.553  15.776   1.790
85772W        W47435   1.806  35.413  14.412
85773W        W47436   1.244  37.358   3.781
85774W        W47437  30.076   1.834  10.472
85775W        W47438  36.881  15.679   1.861
85776W        W47439   3.244   4.909  13.502
85777W        W47440  26.003  36.895  10.951
85778W        W47441  10.192  27.640  13.435
85779W        W47442  25.163   8.885  12.013
85780W        W47443   8.656  18.086   4.149
85781W        W47444  20.136  27.559   1.731
85782W        W47445  25.698  37.420   0.470
85783W        W47446  44.300  38.414  10.104
85784W        W47447  31.053   0.319  13.939
85785W        W47448  28.590  40.399  14.917
85786W        W47449  17.695   3.928  14.377
85787W        W47450   2.913   2.389  12.978
85788W        W47451  37.059  23.718   1.776
85789W        W47452   6.213  15.663   4.837
85790W        W47453  37.582  22.037  14.904
85791W        W47454  30.575  23.645   3.269
85792W        W47455  14.674  43.981  13.309
85793W        W47456  39.543  19.611  11.003
85794W        W47457  25.098  40.362  12.417
85795W        W47458  34.962  10.784  14.836
85796W        W47459  40.926  24.682  11.524
85797W        W47460  39.545   5.758   3.228
85798W        W47461   7.871   7.404   4.331
85799W        W47462  17.084  36.510  10.601
85800W        W47463   6.921   4.225   3.665
85801W        W47464   4.918  27.676   0.863
85802W        W47465  10.803  31.028  10.440
85803W        W47466  37.459  35.906  10.527
85804W        W47467  34.399   8.202  11.600
85805W        W47468  10.341  37.377  11.432
85806W        W47469  35.061   2.317   0.955
85807W        W47470  14.771  41.819   0.960
85808W        W47471   1.758  37.895  12.857
85809W        W47472  40.834   0.985  10.901
85810W        W47473  10.732  17.092  14.897
85811W        W47474  22.639  40.437   3.335
85812W        W47475  34.925  13.295   1.734
85813W        W47476  19.733  40.464   3.720
85814W        W47477  43.482  38.334   2.367
85815W        W47478  18.106   2.382  14.767
85816W        W47479  17.077   5.710   0.413
85817W        W47480  44.779  13.668   3.163
85818W        W47481  19.774  44.783   0.376
85819W        W47482  25.545  34.111   1.356
85820W        W47483  15.611   3.318  14.414
85821W        W47484  16.110   4.327  11.424
85822W        W47485  26.686  41.859  12.518
85823W        W47486  20.681  19.671  12.035
85824W        W47487  30.051  28.677  14.513
85825W        W47488  41.922  35.917  13.396
85826W        W47489   9.173  22.225  12.962
85827W        W47490  31.505  28.929  13.414
85828W        W47491   2.741  24.590  11.035
85829W        W47492  36.421  15.299  13.921
85830W        W47493  22.013  29.084   1.909
85831W        W47494   7.293  20.606  13.001
85832W        W47495  35.859  22.075   2.371
85833W        W47496   0.879  31.615   2.792
85834W        W47497  35.066  25.535  11.449
85835W        W47498  22.240  18.245   0.785
85836W        W47499  25.002  14.239  11.034
85837W        W47500  25.969  17.792  12.473
85838W        W47501  18.603  44.300   5.137
85839W        W47502  28.552  10.216  13.048
85840W        W47503  35.458  12.764  11.396
85841W        W47504  12.354  26.184   4.608
85842W        W47505  43.846   5.933  10.482
85843W        W47506  38.964   8.693  10.577
85844W        W47507  20.563  31.050  12.999
85845W        W47508  19.081  43.774  12.364
85846W        W47509  30.562  10.222  11.964
85847W        W47510  38.430  27.115   0.785
85848W        W47511  21.649  10.749  13.405
85849W        W47512  21.116  13.606  14.358
85850W        W47513  18.754   0.447  12.365
85851W        W47514  19.209  14.154   3.813
85852W        W47515  29.645  40.870  14.826
85853W        W47516  31.106  10.670  11.976
85854W        W47517  29.165  27.949   0.925
85855W        W47518  17.133  38.029   1.830
85856W        W47519  34.885  32.909  12.873
85857W        W47520  24.643  29.918  10.439
85858W        W47521  25.508  27.522  11.398
85859W        W47522   2.954   0.919  11.031
85860W        W47523  43.906  33.091  11.869
85861W        W47524   3.435   8.343   4.252
85862W        W47525  25.015  42.822  12.937
85863W        W47526  11.824  16.083   2.226
85864W        W47527  43.284  30.546   3.238
85865W        W47528  35.537   1.840   1.347
85866W        W47529  34.430  33.073   4.614
85867W        W47530  18.055  22.245   0.465
85868W        W47531  32.089  37.412   0.249
85869W        W47532  14.158   5.919  12.896
85870W        W47533   1.904  42.915   1.844
85871W        W47534  38.554   1.851  11.930
85872W        W47535  11.829  13.275  11.111
85873W        W47536   8.289   9.231   4.328
85874W        W47537  18.168  30.605   2.412
85875W        W47538  25.605   7.398  10.063
85876W        W47539  23.597  14.593   4.204
85877W        W47540  18.591  24.609   2.860
85878W        W47541  16.291  43.892  14.288
85879W        W47542  36.389  15.264   3.359
85880W        W47543  14.112  30.413   2.728
85881W        W47544   2.919  21.679   4.604
85882W        W47545  15.244  40.371   0.399
85883W        W47546  37.940   2.257  10.534
85884W        W47547  35.453  18.232   9.976
85885W        W47548  39.919   4.924   2.381
85886W        W47549  30.501  11.333   3.660
85887W        W47550   9.257   3.745  10.584
85888W        W47551  11.817  10.286   3.711
85889W        W47552   0.844   3.398   4.330
85890W        W47553   6.370  44.494  12.484
85891W        W47554  11.342  21.215  12.090
85892W        W47555  40.313  11.860  11.996
85893W        W47556  29.148   5.902  11.538
85894W        W47557  35.869  31.058  14.968
85895W        W47558  35.020   8.831   3.672
85896W        W47559  23.149  13.219   4.342
85897W        W47560  11.155  31.443   2.869
85898W        W47561  23.661   9.700   3.678
85899W        W47562  30.423   9.827  14.333
85900W        W47563  32.463   1.356   1.838
85901W        W47564  21.712  18.680   1.444
85902W        W47565  22.532  29.066  11.869
85903W        W47566  19.241  10.350   1.875
85904W        W47567   8.829   7.331   1.390
85905W        W47568  20.233  17.679   3.182
85906W        W47569  35.855  18.568  10.984
85907W        W47570   9.366  17.085  11.522
85908W        W47571  14.808   5.415   2.204
85909W        W47572  34.923  20.681   2.755
85910W        W47573  20.698  16.257   0.467
85911W        W47574  11.315  12.268  11.606
85912W        W47575   0.802  17.741  13.328
85913W        W47576  31.554  28.955   2.771
85914W        W47577   6.300  21.162  13.959
85915W        W47578  42.513   6.428   3.245
85916W        W47579   7.840  15.307   4.781
85917W        W47580  12.710  24.212  13.002
85918W        W47581  11.830  36.028   3.156
85919W        W47582  33.581   1.922   1.451
85920W        W47583  43.458  22.521  11.515
85921W        W47584  43.328   5.696  11.874
85922W        W47585  12.293  17.304  10.496
85923W        W47586  40.904   2.285  14.967
85924W        W47587  40.958  44.429  12.535
85925W        W47588  29.982  20.601  14.494
85926W        W47589  12.656   1.307  14.018
85927W        W47590  30.127   0.798   1.219
85928W        W47591   8.849   1.912   0.467
85929W        W47592  24.543   0.378   3.184
85930W        W47593  36.569  14.655   1.422
85931W        W47594  37.864  37.570  10.573
85932W        W47595  17.778   7.745  10.977
85933W        W47596   2.259  23.595  14.799
85934W        W47597  10.649  22.695  11.462
85935W        W47598  27.502  22.088   0.890
85936W        W47599  19.597  32.623  12.479
85937W        W47600  40.487  25.089   0.906
85938W        W47601  35.007   8.360   1.752
85939W        W47602  24.032  20.167  13.960
85940W        W47603  21.530  19.145  10.562
85941W        W47604  39.898  34.941  12.508
85942W        W47605  20.085  19.117  12.946
85943W        W47606  18.063  40.383  12.362
85944W        W47607  11.785  22.555   5.135
85945W        W47608  19.094  23.653   0.309
85946W        W47609  14.312   9.186  10.155
85947W        W47610  13.804  35.052   0.827
85948W        W47611   8.843   5.285  11.574
85949W        W47612   6.830  38.450   1.847
85950W        W47613  41.043  12.723   2.777
85951W        W47614  26.482  12.252  12.019
85952W        W47615   9.735  16.245  11.925
85953W        W47616  25.633  10.851   1.227
85954W        W47617  42.421  37.936   1.331
85955W        W47618   8.666  15.187  10.995
85956W        W47619   7.899  16.662  13.412
85957W        W47620  40.802   8.781   9.523
85958W        W47621  43.349  12.748  13.815
85959W        W47622  36.077   1.476   1.258
85960W        W47623   5.256  39.830   1.831
85961W        W47624  33.069  31.975  11.872
85962W        W47625  23.987  33.999   4.611
85963W        W47626  13.218  39.850  12.360
85964W        W47627   9.711  25.168  14.010
85965W        W47628   8.332  34.537  13.016
85966W        W47629  44.453  24.150   4.148
85967W        W47630  12.354  25.499   1.355
85968W        W47631   0.808   5.801   1.843
85969W        W47632  22.729  14.317   4.714
85970W        W47633  16.144  25.478  14.787
85971W        W47634  21.255  42.447   4.828
85972W        W47635   1.766  22.134  13.048
85973W        W47636  19.755   8.820  11.492
85974W        W47637   1.973  24.187  14.438
85975W        W47638   4.798  21.701  11.479
85976W        W47639  13.730  31.056  10.573
85977W        W47640  42.850   0.327  14.911
85978W        W47641  16.675  34.426   3.259
85979W        W47642  21.512   4.358   0.956
85980W        W47643   7.354  29.094   4.614
85981W        W47644  14.733  32.959  14.765
85982W        W47645  16.140  36.868   3.189
85983W        W47646  10.874  32.476   1.240
85984W        W47647  41.006  32.978   1.823
85985W        W47648  20.179  29.440   4.627
85986W        W47649  16.589  16.692   3.790
85987W        W47650  33.087  21.611   1.849
85988W        W47651  24.605   7.337  14.844
85989W        W47652  10.236  18.155   3.728
85990W        W47653  22.114   1.371   0.914
85991W        W47654  36.910  39.991   0.441
85992W        W47655   4.839   2.362   2.365
85993W        W47656  23.054  13.270   2.705
85994W        W47657  26.587  12.161  12.460
85995W        W47658  41.394  16.593  12.865
85996W        W47659  14.766  20.556   0.399
85997W        W47660  26.163  34.102   3.281
85998W        W47661  16.626  22.090  12.901
85999W        W47662  32.464  17.608   2.769
86000W        W47663  32.500  24.035   4.638
86001W        W47664  26.014  27.458  14.989
86002W        W47665  44.807  14.316   0.419
86003W        W47666  17.688   1.314   0.262
86004W        W47667   3.930   1.337  14.507
86005W        W47668  11.204  37.371  14.876
86006W        W47669  27.953  21.121  11.920
86007W        W47670   5.281  44.470   2.693
86008W        W47671  36.556  25.214  14.924
86009W        W47672   3.751  10.279  14.378
86010W        W47673   5.375  35.979   4.598
86011W        W47674  20.659   9.747   4.709
86012W        W47675   0.908   3.296   1.720
86013W        W47676  37.053   4.360  14.300
86014W        W47677  18.233  14.654   4.655
86015W        W47678  11.266  11.351   0.879
86016W        W47679   9.234  28.026   1.271
86017W        W47680  28.934   5.689  12.042
86018W        W47681  15.764  20.701  11.960
86019W        W47682  14.819  40.841   3.267
86020W        W47683  32.497  33.383   2.355
86021W        W47684  28.583  36.996  12.855
86022W        W47685  24.668  34.368  12.482
86023W        W47686  25.986  34.614  13.464
86024W        W47687   1.288  19.733   1.821
86025W        W47688  21.047  39.863   9.935
86026W        W47689  38.335  26.203   4.786
86027W        W47690  35.964  11.711   4.300
86028W        W47691  12.853   5.438  14.891
86029W        W47692   9.393  41.371  13.794
86030W        W47693  27.543  15.316   2.312
86031W        W47694  13.294  19.238  13.360
86032W        W47695   4.756  20.605   0.885
86033W        W47696   7.184  39.971  14.903
86034W        W47697  28.098   2.270  13.337
86035W        W47698  39.422  29.992  12.365
86036W        W47699  24.211  21.511  14.996
86037W        W47700  17.133  15.243  10.926
86038W        W47701  38.919  41.814   2.851
86039W        W47702  16.294  24.139   4.724
86040W        W47703  44.444  44.907   3.659
86041W        W47704   9.286  12.336   3.775
86042W        W47705   9.205  32.894   0.301
86043W        W47706   5.324   0.318  12.857
86044W        W47707  35.915  27.643   0.801
86045W        W47708  33.594  19.282   9.548
86046W        W47709  32.930  37.472  11.076
86047W        W47710  25.628   2.787   0.796
86048W        W47711  16.586  29.490   4.826
86049W        W47712  15.739   3.909  10.890
86050W        W47713  34.117  43.333   3.698
86051W        W47714  43.365  25.157  13.899
86052W        W47715  40.014  41.974  10.995
86053W        W47716  36.541  16.732  11.403
86054W        W47717  36.941   3.738  12.365
86055W        W47718  36.071  33.959   3.318
86056W        W47719   8.267  34.009  14.385
86057W        W47720  28.020   7.810  10.916
86058W        W47721   9.722   8.733  10.522
86059W        W47722  18.613  19.211  12.941
86060W        W47723   7.391  38.544   3.203
86061W        W47724  38.027  22.168  11.040
86062W        W47725  24.048  34.388  11.610
86063W        W47726  25.976   2.229   0.460
86064W        W47727  30.478  12.309   3.237
86065W        W47728   4.887  21.160  12.856
86066W        W47729   9.251  11.163  10.559
86067W        W47730  22.048  32.893   4.663
86068W        W47731   1.470  16.126   3.722
86069W        W47732  21.709   7.870  11.910
86070W        W47733   3.818  42.350  10.960
86071W        W47734  37.365  30.470  13.336
86072W        W47735  26.996  38.962  11.586
86073W        W47736  15.608  19.154   4.736
86074W        W47737  24.718   6.316   3.678
86075W        W47738   0.925  40.306  12.880
86076W        W47739  29.545  39.924  14.830
86077W        W47740   7.259   8.238   2.696
86078W        W47741  44.849  27.188  12.860
86079W        W47742  16.187  27.121  13.835
86080W        W47743  22.647  19.561   2.419
86081W        W47744   2.407  43.491  10.984
86082W        W47745  29.578  11.663   0.332
86083W        W47746  19.651  30.065   4.683
86084W        W47747  30.657  17.169  14.929
86085W        W47748  26.050  35.087   0.947
86086W        W47749  27.058  24.041   2.386
86087W        W47750  32.910  29.015  12.489
86088W        W47751   2.794  12.835   4.223
86089W        W47752  17.195  18.778   3.171
86090W        W47753  29.921   8.325   4.716
86091W        W47754  18.166  20.689   0.787
86092W        W47755  40.859  38.012   4.691
86093W        W47756  30.579  37.902  11.971
86094W        W47757  30.643  38.545   2.771
86095W        W47758  44.337   9.369   4.779
86096W        W47759   2.254  17.685   1.770
86097W        W47760  15.141  17.187   2.326
86098W        W47761  40.347  18.090  12.964
86099W        W47762  39.476  41.499   1.416
86100W        W47763  33.919  14.752   0.880
86101W        W47764  32.486  28.943   1.876
86102W        W47765   2.436  32.497  11.517
86103W        W47766  37.946  26.051   4.267
86104W        W47767  44.360  10.706   1.841
86105W        W47768   8.315  21.229   3.681
86106W        W47769  23.048  39.891   0.464
86107W        W47770   6.338  18.289   9.973
86108W        W47771   9.201  13.636   1.318
86109W        W47772  28.948  10.788  12.531
86110W        W47773   1.389  38.362   0.448
86111W        W47774  26.187  35.393   1.797
86112W        W47775  28.046  29.056   0.344
86113W        W47776  32.408  41.480  14.305
86114W        W47777  15.649  28.109   2.345
86115W        W47778  23.010   8.728  11.595
86116W        W47779  36.979  12.351  13.914
86117W        W47780  30.550  29.634  13.463
86118W        W47781  23.175  12.712   2.379
86119W        W47782  27.495   4.233  10.898
86120W        W47783   4.810  16.763   3.364
86121W        W47784  35.981  40.001  14.309
86122W        W47785  30.641  42.827   3.230
86123W        W47786  24.000  16.296   0.838
86124W        W47787  13.677   6.320   0.380
86125W        W47788  41.966  18.610   2.284
86126W        W47789  25.060   5.257  14.979
86127W        W47790  34.112   7.838   0.774
86128W        W47791   2.726  36.946  13.997
86129W        W47792  17.754   4.242   0.463
86130W        W47793  15.687  41.329   4.798
86131W        W47794   0.816  27.962   1.408
86132W        W47795  38.397   1.445   1.849
86133W        W47796  15.645   5.345   2.868
86134W        W47797  43.346   6.918  11.959
86135W        W47798  42.324  28.115   2.253
86136W        W47799  32.959  37.064   1.352
86137W        W47800  29.116   6.862  11.488
86138W        W47801  11.807  16.661  14.397
86139W        W47802  27.058   4.383  13.884
86140W        W47803  39.411  33.473  10.018
86141W        W47804  27.455  10.726   4.168
86142W        W47805   7.373  33.458   0.423
86143W        W47806  34.429  14.797  11.049
86144W        W47807  11.329   5.762   3.347
86145W        W47808  42.281   6.369   4.824
86146W        W47809  11.239  31.560  14.364
86147W        W47810  40.394   9.789  13.998
86148W        W47811   8.744  30.428   1.890
86149W        W47812  13.781   3.303  12.932
86150W        W47813  37.008  33.102  10.556
86151W        W47814  27.055   1.779  11.437
86152W        W47815  13.158  13.716  12.045
86153W        W47816  16.725  35.945   0.893
86154W        W47817  44.343  42.965   4.643
86155W        W47818  14.831  22.612  12.848
86156W        W47819  41.503  37.522  14.823
86157W        W47820   6.289  18.732  14.311
86158W        W47821  41.952  41.028   2.208
86159W        W47822   6.340   4.781   4.753
86160W        W47823  20.176  40.897   4.133
86161W        W47824  39.998  15.240   2.281
86162W        W47825  42.384  25.067  13.492
86163W        W47826  41.824  30.144  13.867
86164W        W47827  27.499  34.578  10.458
86165W        W47828  32.614   3.409  13.531
86166W        W47829  26.136  17.572  10.557
86167W        W47830   5.243  34.880  14.988
86168W        W47831  23.523   7.171  11.122
86169W        W47832  37.896  37.039   0.358
86170W        W47833  18.188  18.073  10.504
86171W        W47834   0.493   7.308  12.349
86172W        W47835  21.252   5.328   3.262
86173W        W47836  41.421  10.788   0.833
86174W        W47837  10.349  34.464   3.242
86175W        W47838  34.116  41.509  12.487
86176W        W47839  14.823  40.423  10.914
86177W        W47840  36.974  36.354   2.706
86178W        W47841  17.266   2.328  10.924
86179W        W47842  39.389  38.847  14.375
86180W        W47843  13.599  26.471   3.219
86181W        W47844  26.065  33.025  12.476
86182W        W47845  25.107  19.278   0.907
86183W        W47846  37.942  12.180   1.828
86184W        W47847  30.054   8.182   2.805
86185W        W47848  15.745  12.305  12.096
86186W        W47849  27.689   2.426   4.279
86187W        W47850   1.288  42.283   2.677
86188W        W47851  31.066  23.670   4.259
86189W        W47852  13.314  20.649   3.151
86190W        W47853  40.335   7.174  14.957
86191W        W47854  40.875  41.320   3.827
86192W        W47855  13.121  26.563   5.255
86193W        W47856  30.562  35.860   3.359
86194W        W47857   3.793  18.628   0.252
86195W        W47858  39.400  10.828   3.301
86196W        W47859  35.085  43.853  13.903
86197W        W47860  19.177  21.181  10.632
86198W        W47861  21.636  26.071   0.449
86199W        W47862  15.173  33.071   4.138
86200W        W47863   9.199  36.515   3.777
86201W        W47864  39.864  25.697   0.252
86202W        W47865  36.919   9.344   3.736
86203W        W47866   8.861  31.463   1.848
86204W        W47867  11.828  28.666   0.351
86205W        W47868  26.681   3.233   0.265
86206W        W47869   1.370  44.315  10.930
86207W        W47870  44.003  11.810   4.742
86208W        W47871  11.726  37.504  10.508
86209W        W47872   2.402  26.195   4.795
86210W        W47873  29.589  16.592  13.476
86211W        W47874  20.251   4.722  14.374
86212W        W47875  29.936  19.270   9.511
86213W        W47876   8.864   8.687  13.862
86214W        W47877  17.083   0.471  14.433
86215W        W47878   6.410  28.144   4.308
86216W        W47879  11.806  43.392  13.420
86217W        W47880  10.716  16.289   1.266
86218W        W47881  26.098  31.426   0.823
86219W        W47882  43.817  16.140  12.882
86220W        W47883   1.455  11.280  14.489
86221W        W47884  18.674   1.340  12.552
86222W        W47885  30.067   8.698   4.239
86223W        W47886   6.354  33.587   1.403
86224W        W47887  32.596  29.965   1.727
86225W        W47888   1.784  26.043  12.514
86226W        W47889   8.880  35.031  12.538
86227W        W47890  41.951  43.836  13.459
86228W        W47891  22.201  33.002  14.806
86229W        W47892  10.754  44.779   3.344
86230W        W47893   7.896   3.882  11.543
86231W        W47894  22.573  15.228  13.457
86232W        W47895  18.146  42.986  13.394
86233W        W47896  12.668  24.723   2.814
86234W        W47897  34.519  44.899   3.345
86235W        W47898  23.571  14.280  10.922
86236W        W47899  20.627  10.248  14.010
86237W        W47900  17.748   0.436   3.817
86238W        W47901  19.543  22.514  10.487
86239W        W47902  17.701  21.092   4.308
86240W        W47903   3.759  35.440   0.858
86241W        W47904  13.796   0.408   1.335
86242W        W47905  23.631  11.366  13.896
86243W        W47906   8.280   0.871  11.578
86244W        W47907   9.715   4.407  12.374
86245W        W47908   0.342   0.759   0.907
86246W        W47909  20.079  33.126   4.725
86247W        W47910  27.095  33.008  13.367
86248W        W47911  27.121   9.872   1.933
86249W        W47912   0.758  30.471  12.350
86250W        W47913  22.532  24.724   5.133
86251W        W47914  38.467   3.376  11.047
86252W        W47915  22.016  17.764   1.752
86253W        W47916  24.986  10.255   0.413
86254W        W47917  38.990   0.413  14.816
86255W        W47918  32.014   7.781  14.963
86256W        W47919  40.811  43.327   2.766
86257W        W47920  24.553  34.030   4.305
86258W        W47921  29.493   7.203  13.018
86259W        W47922  17.796   7.236  11.087
86260W        W47923  11.653  32.979   9.960
86261W        W47924  12.137  29.925   4.825
86262W        W47925  40.422  27.587   0.274
86263W        W47926   4.810  18.759  13.874
86264W        W47927  21.199  36.544  13.819
86265W        W47928  12.773  12.279  13.814
86266W        W47929  44.755  43.825  12.340
86267W        W47930  43.305   8.192  13.795
86268W        W47931  10.867  36.394  10.617
86269W        W47932  20.736  16.317  11.049
86270W        W47933  12.172   5.315   1.337
86271W        W47934  26.991   9.235   3.747
86272W        W47935   2.267  42.497   3.708
86273W        W47936  42.299   8.271  14.873
86274W        W47937  38.923  29.115  10.009
86275W        W47938  40.421  30.993  11.609
86276W        W47939   8.880  40.448  12.370
86277W        W47940  27.089  22.562  12.437
86278W        W47941  29.028  19.690   3.187
86279W        W47942  30.047  28.999  12.427
86280W        W47943  24.157  42.509  13.498
86281W        W47944  17.137   9.775  11.459
86282W        W47945   5.420   2.400  11.055
86283W        W47946  22.565   3.318   3.357
86284W        W47947   3.242  32.490   2.724
86285W        W47948  36.850   1.392   4.778
86286W        W47949  28.581   7.784  10.503
86287W        W47950  31.020   3.759   4.796
86288W        W47951   9.827  34.392   1.799
86289W        W47952  36.590  26.499   1.344
86290W        W47953  27.549  35.108   1.380
86291W        W47954  43.428  36.535   3.773
86292W        W47955  10.635  34.005   3.379
86293W        W47956  43.932   5.764  12.475
86294W        W47957  21.624  30.058  10.895
86295W        W47958  20.711  19.121   1.410
86296W        W47959   4.405  33.428   2.776
86297W        W47960   1.856   1.462   4.345
86298W        W47961  16.121  29.439  14.976
86299W        W47962  21.045  38.536   2.288
86300W        W47963   1.766  44.794  14.436
86301W        W47964   2.261  28.636  14.819
86302W        W47965   3.346  11.159   4.148
86303W        W47966  40.342   5.776   0.790
86304W        W47967  22.208  17.266   0.410
86305W        W47968   7.387  12.722   3.671
86306W        W47969  38.357   4.864  13.849
86307W        W47970  22.640   6.917  10.906
86308W        W47971  33.005  41.969   4.345
86309W        W47972  21.581   5.784   1.269
86310W        W47973   4.347  44.908   2.891
86311W        W47974  34.436  32.125   0.295
86312W        W47975  27.585  37.387  12.574
86313W        W47976  24.062  14.300   2.733
86314W        W47977  10.138  43.505   2.825
86315W        W47978  40.985  29.993   2.900
86316W        W47979  17.656   1.736   2.320
86317W        W47980   3.747  40.834  12.347
86318W        W47981   2.903  14.180  13.915
86319W        W47982  39.817  39.321   2.721
86320W        W47983  28.093  29.104   3.823
86321W        W47984  37.574  16.796   2.297
86322W        W47985  28.607  40.386  12.408
86323W        W47986   7.188   5.790  13.463
86324W        W47987  24.033   2.324  12.020
86325W        W47988  37.007   1.917  13.510
86326W        W47989  32.502   5.720  12.953
86327W        W47990  28.004  40.967  12.003
86328W        W47991  20.584  21.130   1.296
86329W        W47992  16.217  38.888   1.309
86330W        W47993  34.892  24.049   0.333
86331W        W47994  23.688  41.531   4.670
86332W        W47995  34.409  21.645   0.392
86333W        W47996  22.604  17.286  11.536
86334W        W47997  35.964  36.919  14.489
86335W        W47998  26.606   4.878  12.484
86336W        W47999   3.452  12.674   0.796
86337W        W48000  41.787  11.157   4.627
86338W        W48001  10.800   9.262   2.239
86339W        W48002  25.092   4.224  13.376
86340W        W48003  26.127  19.551   4.800
86341W        W48004   6.796  27.504   2.713
86342W        W48005  19.715  26.993  14.307
86343W        W48006  28.964  10.644   4.830
86344W        W48007  29.591  29.073   3.164
86345W        W48008  22.736  41.033  14.463
86346W        W48009  32.034  29.985   1.381
86347W        W48010  17.755   4.294  13.866
86348W        W48011  17.206  10.293   9.934
86349W        W48012   0.811  19.196  13.050
86350W        W48013  14.182   2.319  13.931
86351W        W48014  23.146  16.194   1.372
86352W        W48015  40.488  42.378  12.418
86353W        W48016  37.979  19.762  12.064
86354W        W48017   0.933  30.456   4.731
86355W        W48018  32.549  12.835   1.227
86356W        W48019  18.280  16.295   1.818
86357W        W48020  32.084  42.492  13.003
86358W        W48021  41.789   6.712  14.778
86359W        W48022  41.805   7.401   1.927
86360W        W48023  21.113  38.969  11.403
86361W        W48024  21.027  38.938  12.504
86362W        W48025  41.840  21.543  10.477
86363W        W48026   0.460  35.987   2.668
86364W        W48027  26.079  27.618  12.919
86365W        W48028  39.869  33.576  13.337
86366W        W48029  20.688  33.054  11.455
86367W        W48030  13.151  13.732  12.538
86368W        W48031  40.306   3.366  11.105
86369W        W48032  41.317  13.273   1.226
86370W        W48033  36.539   8.786   1.221
86371W        W48034  31.551  28.171  12.997
86372W        W48035  40.335  39.907   2.178
86373W        W48036   4.247  15.641   2.815
86374W        W48037  12.356  24.034   0.757
86375W        W48038  44.010   5.782   4.831
86376W        W48039  39.498  21.701   3.641
86377W        W48040  30.585  42.411  13.478
86378W        W48041  28.677   9.655  12.520
86379W        W48042   8.290  32.966  12.453
86380W        W48043  13.613  30.109  11.994
86381W        W48044  19.261  24.193  14.426
86382W        W48045  30.924  14.205   3.175
86383W        W48046  42.030  19.710  11.857
86384W        W48047   7.795  39.342   4.148
86385W        W48048  20.726  29.998   0.953
86386W        W48049  17.639  38.564  14.487
86387W        W48050  25.713  34.396  14.428
86388W        W48051  24.549  44.008   4.123
86389W        W48052  14.137  22.560  11.403
86390W        W48053  33.949  15.611   5.292
86391W        W48054   0.916  10.380   3.377
86392W        W48055  13.719  23.151   3.146
86393W        W48056  40.904  18.142  13.510
86394W        W48057  22.132   2.873  12.515
86395W        W48058  43.446  22.031  14.925
86396W        W48059   1.817  40.526  13.404
86397W        W48060   0.758  39.973   1.906
86398W        W48061   3.261  28.963  14.375
86399W        W48062  41.339  35.915  11.914
86400W        W48063  11.722  40.542   3.316
86401W        W48064  19.063  32.443  14.502
86402W        W48065  42.421   8.879   2.384
86403W        W48066  19.087  38.003  11.909
86404W        W48067   3.800  15.190   2.669
86405W        W48068  25.637  40.333  13.504
86406W        W48069  10.354  32.561   2.903
86407W        W48070  43.392  25.682  14.926
86408W        W48071  27.005  34.037   3.344
86409W        W48072   0.863  15.268  10.467
86410W        W48073  41.389  41.860   0.475
86411W        W48074  24.555  39.335  14.830
86412W        W48075  26.038  38.948   9.963
86413W        W48076  25.061  12.359   3.799
86414W        W48077   6.919  28.532  10.477
86415W        W48078  41.294  39.442   3.695
86416W        W48079  39.038   5.900  14.764
86417W        W48080  23.183  24.190   1.759
86418W        W48081   8.736   0.443  14.947
86419W        W48082  12.771  42.439   3.381
86420W        W48083  22.523  23.000   4.823
86421W        W48084   0.808  42.809   1.276
86422W        W48085   2.891   5.383   2.290
86423W        W48086   6.867  40.055  10.434
86424W        W48087  16.708  44.947  12.433
86425W        W48088  22.236  21.137  13.973
86426W        W48089   8.677  15.150  10.422
86427W        W48090  34.001   2.800  12.543
86428W        W48091  31.504  32.508   0.837
86429W        W48092  40.015  17.246   3.296
86430W        W48093   6.830  28.483  13.434
86431W        W48094  22.710  32.443  10.888
86432W        W48095  20.178  11.662  14.276
86433W        W48096  29.558  36.480  14.468
86434W        W48097   5.932  31.439  10.550
86435W        W48098   9.852  35.473  11.512
86436W        W48099   8.366  39.396  14.441
86437W        W48100  24.683  15.116  14.932
86438W        W48101   9.729  11.194   4.236
86439W        W48102   2.803  10.742   0.856
86440W        W48103  20.251  19.649  12.845
86441W        W48104  17.251  32.006   1.385
86442W        W48105  20.663   1.285  13.907
86443W        W48106  23.035  19.205   1.733
86444W        W48107  35.860  30.148  12.508
86445W        W48108  41.026  28.982  10.632
86446W        W48109  11.167  41.359   4.820
86447W        W48110   9.734   2.406   3.709
86448W        W48111  39.831  31.139  14.345
86449W        W48112  14.641   1.909   0.838
86450W        W48113  25.714  44.809   2.826
86451W        W48114   3.886  40.389   1.412
86452W        W48115  16.604   8.202   4.245
86453W        W48116  15.292  35.063   1.434
86454W        W48117  31.548  29.556   1.299
86455W        W48118  26.101   8.731  11.481
86456W        W48119  38.545  18.250  12.469
86457W        W48120  19.658  10.150  10.411
86458W        W48121   4.786  34.875   2.374
86459W        W48122   2.352  28.116  10.639
86460W        W48123  43.301   9.268  13.844
86461W        W48124  32.620  43.290   4.835
86462W        W48125   2.282   0.784  14.500
86463W        W48126  27.980  10.808   2.819
86464W        W48127  22.693  31.026  12.025
86465W        W48128  30.646  40.314   3.146
86466W        W48129  34.876  12.223  12.964
86467W        W48130  10.637   8.232   1.792
86468W        W48131  42.492  37.530  14.277
86469W        W48132  25.085  25.074  13.502
86470W        W48133  36.354   8.221   0.841
86471W        W48134  24.164   5.729   5.311
86472W        W48135  11.299  25.181   4.817
86473W        W48136  17.782  20.200   4.742
86474W        W48137  41.354   2.408  11.439
86475W        W48138  44.485  40.351  14.900
86476W        W48139  34.005   4.375   3.173
86477W        W48140  28.558  22.633   1.711
86478W        W48141  12.248  31.923  10.442
86479W        W48142   9.302  24.694  14.442
86480W        W48143  41.523  39.973  13.028
86481W        W48144  32.972   6.399   4.767
86482W        W48145  14.809  26.579   4.179
86483W        W48146  42.896  21.140   3.841
86484W        W48147  17.305   5.818  14.786
86485W        W48148  44.295  38.918  10.913
86486W        W48149  27.153   3.244  14.839
86487W        W48150  13.252  35.421  13.521
86488W        W48151   0.489   7.678   4.683
86489W        W48152  33.509  41.840  13.809
86490W        W48153   3.216  15.133  11.868
86491W        W48154  32.900  32.619   3.815
86492W        W48155  10.825  43.303  14.320
86493W        W48156  40.323  28.513   1.345
86494W        W48157   3.418  29.966  11.990
86495W        W48158  21.731  44.473  10.456
86496W        W48159  28.935   1.794  11.959
86497W        W48160  26.485  44.420  10.993
86498W        W48161   9.350  10.866   1.368
86499W        W48162  37.839  44.848   2.191
86500W        W48163  33.022  14.186   2.778
86501W        W48164  18.251  33.084   1.870
86502W        W48165  40.985  34.405   3.771
86503W        W48166  16.571  20.109  11.905
86504W        W48167  40.502  22.527   2.359
86505W        W48168  23.113   0.296  12.075
86506W        W48169  34.378  13.648   1.892
86507W        W48170  38.843  26.004   4.127
86508W        W48171   0.883  10.758   2.837
86509W        W48172  41.035  33.092   1.318
86510W        W48173  39.470   8.783  14.377
86511W        W48174  20.235  34.539   0.452
86512W        W48175   3.334   6.788   1.802
86513W        W48176  31.550  25.030  12.430
86514W        W48177   4.932  36.966  10.958
86515W        W48178   2.380  31.646  14.866
86516W        W48179  19.154  18.133  13.388
86517W        W48180  31.533  24.047  12.022
86518W        W48181  17.187  43.927   4.836
86519W        W48182   8.232  22.613   0.788
86520W        W48183  16.210   1.278  12.998
86521W        W48184  20.627  40.040   4.619
86522W        W48185   5.434   4.337  14.906
86523W        W48186  37.575  39.443   1.398
86524W        W48187  41.295  18.669   4.166
86525W        W48188  44.293  39.056   3.258
86526W        W48189  23.995  17.086   1.394
86527W        W48190  12.153  12.337  14.929
86528W        W48191  24.133   5.327  11.056
86529W        W48192  42.470  27.102  14.466
86530W        W48193  22.232  14.713   4.275
86531W        W48194   3.891  11.646  11.027
86532W        W48195  26.982  37.533  11.428
86533W        W48196  27.529  19.681   0.310
86534W        W48197  26.631  40.015   2.401
86535W        W48198  36.490   7.781   2.814
86536W        W48199  26.197   7.888  11.434
86537W        W48200  31.014  17.698   0.319
86538W        W48201  38.459  25.492   4.645
86539W        W48202  20.244  43.429  13.366
86540W        W48203   7.261  25.498   4.312
86541W        W48204  38.486  37.074  10.409
86542W        W48205  15.163  19.236   0.746
86543W        W48206  41.948  34.512   1.322
86544W        W48207  39.924  35.024   4.814
86545W        W48208  41.902   4.720   3.799
86546W        W48209   6.252  10.176  14.766
86547W        W48210  20.600  12.226  13.845
86548W        W48211  37.831  28.634   3.269
86549W        W48212  15.196  19.609  11.563
86550W        W48213  22.556  12.300   4.655
86551W        W48214  12.752   6.209   4.684
86552W        W48215  18.167  44.301   3.361
86553W        W48216  20.572  34.534   4.750
86554W        W48217  40.331  12.837  10.931
86555W        W48218  38.922  31.110  11.018
86556W        W48219  26.102  28.081  13.332
86557W        W48220  26.590   9.810   0.743
86558W        W48221  18.214   9.694  11.481
86559W        W48222   9.847   6.218  13.009
86560W        W48223  36.376  29.654  10.470
86561W        W48224  27.135  37.941   4.220
86562W        W48225  19.560  40.549  11.403
86563W        W48226  24.725   7.745  13.496
86564W        W48227  22.597  10.842  12.340
86565W        W48228  12.733  12.769  14.964
86566W        W48229  42.328  32.890  14.881
86567W        W48230  41.535  10.177   3.734
86568W        W48231  32.999  42.320  10.917
86569W        W48232  34.982  18.275  13.475
86570W        W48233  19.657  11.167  12.033
86571W        W48234  23.605   4.769  12.844
86572W        W48235  31.631   2.877   2.256
86573W        W48236  20.101   6.401  12.095
86574W        W48237  28.455  29.987   0.775
86575W        W48238  12.225  18.722   4.197
86576W        W48239   7.861  43.796  13.898
86577W        W48240  18.284  38.985   1.876
86578W        W48241  41.001  26.110  14.368
86579W        W48242  40.870  18.790  14.343
86580W        W48243  10.669  12.854  10.960
86581W        W48244  37.434  42.904  10.608
86582W        W48245  41.531   4.303  12.961
86583W        W48246  42.372  14.648   0.266
86584W        W48247  30.065  41.957   4.117
86585W        W48248  10.207  25.117   0.368
86586W        W48249  25.483  24.116  14.380
86587W        W48250  13.133  20.607   2.777
86588W        W48251  39.464  15.608   3.825
86589W        W48252  34.601  11.196  12.382
86590W        W48253  14.096  12.627  11.383
86591W        W48254   5.226  13.704  10.630
86592W        W48255  25.658  40.800   1.909
86593W        W48256  18.188  28.116  12.387
86594W        W48257  37.857   5.910   5.584
86595W        W48258  13.745  27.610   4.333
86596W        W48259  35.043  23.037   2.875
86597W        W48260   0.337  41.481  13.464
86598W        W48261  15.645  31.109  14.015
86599W        W48262  34.941  29.084  12.930
86600W        W48263  43.437  37.524   2.665
86601W        W48264  37.490   0.353  13.828
86602W        W48265  39.976  11.180  11.008
86603W        W48266   9.686  25.663   1.696
86604W        W48267   8.258  24.065  13.527
86605W        W48268  44.261  41.490   4.821
86606W        W48269   3.235   0.926   2.739
86607W        W48270  32.583  14.339   2.295
86608W        W48271   1.289   0.958   4.741
86609W        W48272  10.273  32.103   3.281
86610W        W48273  29.084  24.166  14.300
86611W        W48274  26.977  16.627   0.953
86612W        W48275  23.170   5.201  13.954
86613W        W48276   0.802  32.939  11.900
86614W        W48277  35.866  26.111  13.974
86615W        W48278  22.661  18.549   2.316
86616W        W48279  17.267  20.547   4.790
86617W        W48280  34.398  17.272   2.871
86618W        W48281   0.248  30.081  11.452
86619W        W48282   7.380   7.862  13.009
86620W        W48283  28.626  42.468   2.830
86621W        W48284  41.820  25.631  12.824
86622W        W48285   9.883   6.338   2.380
86623W        W48286  13.775   6.386   1.306
86624W        W48287  30.623  31.939   2.333
86625W        W48288  25.124  26.591   5.704
86626W        W48289  40.025  21.549  12.452
86627W        W48290  24.004   3.461  12.041
86628W        W48291  15.658  12.750   2.296
86629W        W48292   9.311  42.342   1.722
86630W        W48293  39.892  14.748  11.498
86631W        W48294   9.154  25.198  11.482
86632W        W48295  44.918  21.039   0.881
86633W        W48296  15.794  24.688   2.360
86634W        W48297  16.156   1.821   2.686
86635W        W48298  16.800  15.817  11.397
86636W        W48299  30.075  27.497  14.498
86637W        W48300  20.633  44.996   4.601
86638W        W48301  35.964  17.252  14.296
86639W        W48302  25.594  34.421  10.517
86640W        W48303  26.995  35.536  11.864
86641W        W48304  14.301   5.208   3.736
86642W        W48305  37.348   2.738   1.329
86643W        W48306  39.411  31.542   1.287
86644W        W48307  40.491  20.594  13.965
86645W        W48308  28.930  23.072  11.463
86646W        W48309   2.362  34.536   1.396
86647W        W48310  17.095   8.263   0.822
86648W        W48311  23.695  33.604   2.313
86649W        W48312   0.813  23.128   4.345
86650W        W48313  38.435   1.337   1.345
86651W        W48314  14.612  25.500   1.241
86652W        W48315   9.347  12.315  13.372
86653W        W48316  33.122   9.380  12.073
86654W        W48317  29.123  24.023  12.344
86655W        W48318  43.330  28.626  13.803
86656W        W48319  30.468  21.634  10.966
86657W        W48320  33.965  15.588  11.405
86658W        W48321   8.351   2.810  11.997
86659W        W48322   9.351   1.297   2.309
86660W        W48323  10.375  23.686  10.509
86661W        W48324  18.295  12.741  11.403
86662W        W48325   4.758  15.194   2.361
86663W        W48326   9.870  31.531   0.744
86664W        W48327  23.085  32.615   0.282
86665W        W48328  11.783  32.525   3.323
86666W        W48329   5.198  19.099  14.925
86667W        W48330  37.456  43.808   0.368
86668W        W48331  17.743   1.876  12.426
86669W        W48332  23.193  13.799   4.338
86670W        W48333   9.873  17.281  13.791
86671W        W48334  36.498  34.878   0.943
86672W        W48335  13.292   9.367   2.760
86673W        W48336   2.354   6.403   3.378
86674W        W48337  44.481  25.604  10.432
86675W        W48338  13.693  18.621   4.786
86676W        W48339  38.843  29.481   1.825
86677W        W48340  18.737   5.361  11.040
86678W        W48341  21.606  33.912   2.766
86679W        W48342  23.043  20.704  12.347
86680W        W48343  15.635  32.948  10.906
86681W        W48344  32.512  25.071   3.777
86682W        W48345  23.203  38.390  13.805
86683W        W48346   9.835  13.824  13.048
86684W        W48347  24.482  22.660   1.856
86685W        W48348  26.060  18.767   0.850
86686W        W48349   4.377  16.181  14.298
86687W        W48350   5.875  13.658   3.340
86688W        W48351   7.890  18.176  11.604
86689W        W48352   3.339  15.764  11.033
86690W        W48353   2.343   8.787  10.083
86691W        W48354  15.097  12.823   4.802
86692W        W48355  37.055  40.051   1.228
86693W        W48356  32.949  22.573   4.715
86694W        W48357  26.204  13.798  14.374
86695W        W48358  13.643  24.159  14.278
86696W        W48359  18.757  25.475  13.818
86697W        W48360  26.175   6.680   0.946
86698W        W48361  18.596   7.237  13.906
86699W        W48362   3.336   1.442  14.789
86700W        W48363  40.872  16.624  14.365
86701W        W48364  24.185   5.785  14.775
86702W        W48365  32.475  31.982   4.136
86703W        W48366  28.585  33.441  11.374
86704W        W48367  42.029  24.026  14.862
86705W        W48368  32.394  37.412  11.125
86706W        W48369  44.836   0.420   3.698
86707W        W48370   6.253  34.467   2.698
86708W        W48371   8.196   1.786  10.518
86709W        W48372  15.098   4.744   2.282
86710W        W48373  26.154  23.014  11.374
86711W        W48374  28.570  42.819   2.750
86712W        W48375  44.493   2.372  10.059
86713W        W48376  22.231  23.521   2.848
86714W        W48377  21.647   1.794  14.464
86715W        W48378  31.063  20.744   0.384
86716W        W48379  15.609  35.023   2.713
86717W        W48380   8.671   3.217  12.397
86718W        W48381  38.325  34.068   2.413
86719W        W48382   0.312  19.229  14.367
86720W        W48383  11.788  37.518   3.641
86721W        W48384  33.043   5.364   0.351
86722W        W48385  29.965  23.647   2.196
86723W        W48386   1.774   0.363   3.162
86724W        W48387  42.306  42.319   1.844
86725W        W48388  39.502  17.248   4.337
86726W        W48389  33.091  18.066  10.989
86727W        W48390  18.230   3.430   1.437
86728W        W48391  39.982  41.853   1.430
86729W        W48392  31.110  36.450   2.878
86730W        W48393  32.000  24.697  13.005
86731W        W48394   8.663  25.628  13.038
86732W        W48395  44.268  14.725   5.162
86733W        W48396  31.062   4.834  13.847
86734W        W48397  21.587   2.434  14.953
86735W        W48398  21.201  23.614  14.288
86736W        W48399  11.240  10.205   2.888
86737W        W48400   7.171  35.040   1.222
86738W        W48401  15.600   2.758   2.763
86739W        W48402  24.486  30.652  14.784
86740W        W48403  17.193  10.239   2.739
86741W        W48404  28.516  29.952  14.020
86742W        W48405  31.119  20.652  14.025
86743W        W48406  43.398  22.042  13.461
86744W        W48407  13.813  35.368   3.714
86745W        W48408  26.019  41.812   1.814
86746W        W48409  35.046   0.370  11.427
86747W        W48410   5.426   4.242  10.428
86748W        W48411  19.255  30.461   4.258
86749W        W48412   0.379  33.445  14.300
86750W        W48413  29.129   6.884   0.375
86751W        W48414  30.474  26.112   0.901
86752W        W48415  22.636  43.843  11.101
86753W        W48416  41.319  35.396   4.130
86754W        W48417   2.279  28.508   3.832
86755W        W48418  25.470  31.619  12.995
86756W        W48419  22.226  29.962   3.798
86757W        W48420  27.610  13.317   2.839
86758W        W48421  32.391  14.120  13.423
86759W        W48422  21.723   8.774   0.934
86760W        W48423   3.371   9.756  11.907
86761W        W48424  22.567  44.457   3.845
86762W        W48425  19.106  24.720   3.302
86763W        W48426   7.385  16.115  10.501
86764W        W48427  28.630  37.999   4.699
86765W        W48428  33.407   6.861   2.355
86766W        W48429  39.915  13.646   3.270
86767W        W48430  35.368  14.288  13.857
86768W        W48431  14.203   1.402   0.914
86769W        W48432  15.187  34.612   4.133
86770W        W48433  12.809  18.092  11.959
86771W        W48434   4.750   1.978   3.749
86772W        W48435  34.100  16.712  13.001
86773W        W48436  41.909  34.481  10.526
86774W        W48437  32.407   5.724  14.840
86775W        W48438  14.205  35.436  12.849
86776W        W48439   1.781  10.764  11.594
86777W        W48440  34.494  43.909  12.515
86778W        W48441  38.476  44.396   2.812
86779W        W48442  17.712  33.944  13.464
86780W        W48443  17.214  16.096   3.251
86781W        W48444   2.464  18.053   0.314
86782W        W48445   6.426  39.366   2.222
86783W        W48446  13.739  27.081   1.362
86784W        W48447  43.871  37.371  14.792
86785W        W48448  42.346   6.237  11.544
86786W        W48449   4.847  44.473  11.572
86787W        W48450   0.837  24.193   3.350
86788W        W48451  24.173   8.711   0.474
86789W        W48452  33.962  18.604  13.362
86790W        W48453  11.672  29.119   4.243
86791W        W48454  42.433  29.465   0.967
86792W        W48455  27.075  36.029  14.434
86793W        W48456  37.485  22.637   2.412
86794W        W48457  38.402  13.182   2.859
86795W        W48458   7.356  26.118  10.420
86796W        W48459   9.864  30.413   4.717
86797W        W48460   0.314  39.413   3.363
86798W        W48461  30.457  34.450  11.015
86799W        W48462  25.479   5.279   1.926
86800W        W48463  25.992  37.400  10.111
86801W        W48464  23.678  12.344  12.842
86802W        W48465  31.630  25.602  11.600
86803W        W48466   6.842   9.824   4.619
86804W        W48467  27.150  18.732   3.814
86805W        W48468  26.205  38.965  14.833
86806W        W48469  23.687   9.318  14.828
86807W        W48470  15.797  23.241  12.071
86808W        W48471  35.093  40.542  10.595
86809W        W48472  23.228  33.408  10.928
86810W        W48473  14.674  34.084   4.177
86811W        W48474  21.050  41.902   3.668
86812W        W48475  36.862  15.172  12.856
86813W        W48476   9.690   1.405  12.943
86814W        W48477   7.763  37.526  14.497
86815W        W48478  23.597  20.681   1.277
86816W        W48479  38.057   4.316  12.404
86817W        W48480  26.963  15.224   0.939
86818W        W48481  41.960  38.050  14.331
86819W        W48482  23.689  19.656  13.355
86820W        W48483  15.088  31.141  10.435
86821W        W48484  30.482  18.575   2.741
86822W        W48485  17.097   8.367   3.278
86823W        W48486  33.966   4.204  10.598
86824W        W48487  30.416  22.747  14.906
86825W        W48488  22.207  42.338  10.619
86826W        W48489  25.614  20.528   2.419
86827W        W48490  38.567  28.985  14.813
86828W        W48491   4.238   5.263   3.344
86829W        W48492  23.596  17.199   0.860
86830W        W48493  24.975  18.133   2.292
86831W        W48494   8.301   9.169  10.063
86832W        W48495  27.044  15.166  14.921
86833W        W48496  12.691   7.355   2.356
86834W        W48497  42.285  14.705  13.975
86835W        W48498  22.736  27.516   4.724
86836W        W48499  33.470  12.168  12.358
86837W        W48500  19.634  29.085   1.709
86838W        W48501  43.328   0.901   0.794
86839W        W48502  36.949   2.796   1.225
86840W        W48503   8.894  13.732   2.228
86841W        W48504  30.540  19.186  12.061
86842W        W48505  43.276  17.796   5.133
86843W        W48506  19.661  31.454   3.705
86844W        W48507  19.770  39.905   2.851
86845W        W48508  10.306  23.567   0.321
86846W        W48509   9.268  32.620  13.319
86847W        W48510  36.549   2.421  14.945
86848W        W48511  36.588  22.232  14.396
86849W        W48512  25.540   9.852  12.387
86850W        W48513   6.711  19.730   1.296
86851W        W48514  25.168  37.021   0.416
86852W        W48515  18.205   0.480   3.732
86853W        W48516  41.304  43.883  12.420
86854W        W48517  36.395  35.375  11.096
86855W        W48518  14.214  24.678   2.708
86856W        W48519  10.727   7.225   0.434
86857W        W48520  32.602   4.227  14.870
86858W        W48521  26.703  11.840   4.639
86859W        W48522  17.651   7.341  12.480
86860W        W48523  19.750  25.191  13.791
86861W        W48524  27.984  28.498   1.384
86862W        W48525  30.133  36.540   1.789
86863W        W48526  21.612  21.727   3.245
86864W        W48527   5.855   0.960   4.327
86865W        W48528   3.253   1.373   0.939
86866W        W48529  16.810  25.150   1.418
86867W        W48530  12.314  24.609   2.359
86868W        W48531  12.722  38.043  13.062
86869W        W48532  28.989  39.464   0.743
86870W        W48533   9.149  26.483   4.297
86871W        W48534  29.941  28.160   0.752
86872W        W48535   2.357  37.565  13.426
86873W        W48536  38.964  12.336   4.222
86874W        W48537  41.431  21.643  11.902
86875W        W48538  27.645  13.821  12.937
86876W        W48539  31.426  34.071   3.831
86877W        W48540   8.780  42.871   5.224
86878W        W48541  30.557  11.812   4.694
86879W        W48542   8.197  36.039   1.807
86880W        W48543  38.382  21.117  14.314
86881W        W48544   3.436   7.410  11.519
86882W        W48545  33.894  25.642  11.100
86883W        W48546  32.500  33.418   3.850
86884W        W48547  24.641  23.565  10.984
86885W        W48548   3.251  11.721  12.010
86886W        W48549  11.649  39.855  11.401
86887W        W48550  16.672  28.054  10.898
86888W        W48551  24.689  35.588   2.276
86889W        W48552  35.488  33.455   4.304
86890W        W48553   8.246  33.105   3.677
86891W        W48554  14.176  19.650  11.043
86892W        W48555  10.679  19.182   3.236
86893W        W48556   3.362   8.771   4.829
86894W        W48557  25.061  42.369   2.309
86895W        W48558  17.209  14.164   1.739
86896W        W48559  32.532  37.070  11.052
86897W        W48560  38.476  23.062  11.074
86898W        W48561  44.385   1.297   5.316
86899W        W48562  37.005   3.407  13.930
86900W        W48563  13.731  27.639  10.451
86901W        W48564  32.558  26.625   3.836
86902W        W48565  24.980  38.900  12.920
86903W        W48566  15.587  44.271   2.260
86904W        W48567  33.129  25.092   1.757
86905W        W48568  39.047   6.709  12.444
86906W        W48569  14.791   7.780  13.413
86907W        W48570  31.010   8.317  10.523
86908W        W48571  30.634  41.040   3.327
86909W        W48572  10.683  20.083  11.894
86910W        W48573  33.388  19.645  13.987
86911W        W48574   6.397  41.504  10.600
86912W        W48575   8.395   3.342   0.321
86913W        W48576  23.732   7.224  10.599
86914W        W48577  39.972  44.349  11.932
86915W        W48578  22.227  30.013  13.988
86916W        W48579   7.296   7.293   2.698
86917W        W48580  38.352  26.635   2.388
86918W        W48581  24.055  29.087   4.191
86919W        W48582  18.584  26.166   0.792
86920W        W48583  22.604  15.128  13.043
86921W        W48584  18.208  34.558   4.744
86922W        W48585  37.362  17.705   3.227
86923W        W48586  28.934  36.002   2.870
86924W        W48587  16.674  18.063  10.489
86925W        W48588  28.559  35.063  12.500
86926W        W48589  25.517  10.226  10.607
86927W        W48590  14.152  19.060   1.832
86928W        W48591  16.734  42.819  11.895
86929W        W48592  26.036  33.937  11.974
86930W        W48593  32.630  40.864   1.851
86931W        W48594  29.574  43.828  12.454
86932W        W48595  33.585  26.073   4.159
86933W        W48596  38.860   6.230   1.817
86934W        W48597  32.557  15.613  10.100
86935W        W48598  37.481   7.331   3.792
86936W        W48599   3.860  26.657  12.920
86937W        W48600  15.253  29.464   3.697
86938W        W48601  37.366  44.793   3.783
86939W        W48602  24.667  24.055   0.815
86940W        W48603  26.566   7.805  11.529
86941W        W48604  15.813  36.088   1.855
86942W        W48605  43.279  39.053   2.665
86943W        W48606   8.900   9.168   1.776
86944W        W48607  42.326  31.001  12.433
86945W        W48608  23.680  31.132   3.741
86946W        W48609  29.093  10.808   3.187
86947W        W48610  20.169  15.670   1.877
86948W        W48611  20.625  35.511   1.257
86949W        W48612  43.352  37.884   4.211
86950W        W48613  35.551  37.991  12.038
86951W        W48614  12.216  17.079  14.802
86952W        W48615  18.259  38.447   1.935
86953W        W48616  39.048  26.548  13.970
86954W        W48617  15.143  37.854   1.875
86955W        W48618  15.108  37.470   1.415
86956W        W48619  24.561   5.323  13.440
86957W        W48620  27.620  20.102  11.371
86958W        W48621  13.129  21.250   2.390
86959W        W48622  17.621   6.802   4.835
86960W        W48623  21.107  36.540   4.244
86961W        W48624  39.864  36.495   4.675
86962W        W48625  39.031  32.140  14.965
86963W        W48626  44.873  32.608  13.863
86964W        W48627  11.752  22.146   0.243
86965W        W48628  38.444   9.643  11.097
86966W        W48629  29.107  16.090   0.772
86967W        W48630  11.810  30.970   0.443
86968W        W48631   0.333  39.462   2.835
86969W        W48632   3.416  41.533   4.638
86970W        W48633  43.410  30.140  11.093
86971W        W48634  21.089  40.816  11.044
86972W        W48635  18.780  37.438  12.511
86973W        W48636  44.850  20.560   4.206
86974W        W48637  33.002  30.121   3.847
86975W        W48638   9.263   9.771   2.667
86976W        W48639   3.935  19.598  13.935
86977W        W48640  11.285  41.406   2.205
86978W        W48641  36.384  28.172  14.959
86979W        W48642   0.965  25.569  13.398
86980W        W48643   9.332  20.180   2.716
86981W        W48644   7.839  15.302  14.466
86982W        W48645  20.160  30.022  12.044
86983W        W48646  12.853  28.114   1.875
86984W        W48647  21.090  23.731  11.533
86985W        W48648  28.093   8.351  11.915
86986W        W48649   6.756  28.599   0.775
86987W        W48650  34.908  29.645  12.450
86988W        W48651  15.783  35.054   3.777
86989W        W48652  14.606  29.621  13.908
86990W        W48653  37.984  15.164   2.723
86991W        W48654  39.355  12.823   1.919
86992W        W48655  42.312   2.232   1.805
86993W        W48656  24.648  15.600   3.850
86994W        W48657  19.141  29.554   4.704
86995W        W48658  28.607  25.686   1.318
86996W        W48659  43.310  10.382   0.834
86997W        W48660  10.184  42.500  11.471
86998W        W48661  44.347   2.955   2.856
86999W        W48662  16.593  12.253   1.310
87000W        W48663  30.603  28.668   1.903
87001W        W48664  13.297  29.446  14.329
87002W        W48665  33.471  31.112   0.340
87003W        W48666   3.457  11.786  11.525
87004W        W48667  26.574  13.753   3.337
87005W        W48668   9.755  41.948  11.980
87006W        W48669  43.776  20.582  14.917
87007W        W48670  43.854  36.429  14.837
87008W        W48671  40.443  44.315   2.811
87009W        W48672  39.949  10.725   1.376
87010W        W48673  27.101   8.899   1.721
87011W        W48674  28.959  22.721   3.355
87012W        W48675   6.759  22.557   4.177
87013W        W48676  21.165  39.492   3.702
87014W        W48677  32.962   5.352  10.566
87015W        W48678  20.068  22.070   0.253
87016W        W48679   7.357   7.174  10.081
87017W        W48680  19.130  11.350   4.180
87018W        W48681  22.569   7.259  12.363
87019W        W48682  18.076  25.600   3.323
87020W        W48683  20.220  34.890   0.297
87021W        W48684  40.426  34.394   2.195
87022W        W48685  12.711  30.420   4.203
87023W        W48686  12.135  30.451  12.873
87024W        W48687   9.232  13.147   3.640
87025W        W48688   5.800  21.605  11.027
87026W        W48689  18.781  27.133  13.449
87027W        W48690  40.451  37.443   1.273
87028W        W48691   3.877  27.114   4.160
87029W        W48692  16.211  16.084  12.843
87030W        W48693  10.188   4.284  13.343
87031W        W48694  15.142  25.995  13.406
87032W        W48695   5.881  36.433  13.484
87033W        W48696  13.631  12.739   0.279
87034W        W48697  24.606   4.840   3.198
87035W        W48698   5.930  17.784   1.267
87036W        W48699  36.367  33.908  12.360
87037W        W48700  32.394  32.928  13.049
87038W        W48701  30.638   7.761   4.733
87039W        W48702   5.435   3.370   0.734
87040W        W48703  20.660  37.458   2.747
87041W        W48704  39.052  24.563   2.214
87042W        W48705  26.123  33.888  12.400
87043W        W48706  35.579  14.757  11.422
87044W        W48707  32.895  15.196  11.956
87045W        W48708  40.417  37.836   0.365
87046W        W48709  22.695   6.791   1.725
87047W        W48710  34.381  37.898   0.371
87048W        W48711  10.371  19.618  14.983
87049W        W48712  43.408  16.660  12.000
87050W        W48713  35.053  37.076   0.470
87051W        W48714  21.109   8.771   3.695
87052W        W48715  23.673  24.668  11.435
87053W        W48716  39.010  21.155  10.923
87054W        W48717  36.861   9.319   0.265
87055W        W48718  14.749  21.062   4.235
87056W        W48719  36.018  24.086   0.832
87057W        W48720  22.198  38.528   1.734
87058W        W48721  15.178  43.957   2.846
87059W        W48722  26.089  39.434  11.927
87060W        W48723  25.159  15.588  14.837
87061W        W48724  41.370  11.835   2.881
87062W        W48725  13.801  30.154   3.636
87063W        W48726  38.476   1.789  11.009
87064W        W48727  28.590  34.372  11.599
87065W        W48728   8.696  35.933   2.804
87066W        W48729  33.570  19.225   4.302
87067W        W48730  24.997  42.810   3.856
87068W        W48731  40.313  21.058  10.407
87069W        W48732  21.167  44.797  12.021
87070W        W48733  38.404   8.318  10.015
87071W        W48734  20.741   7.875   1.315
87072W        W48735  37.507  33.560  12.955
87073W        W48736  23.568  20.187   1.826
87074W        W48737  44.006  19.704   2.344
87075W        W48738  43.937   3.324  12.509
87076W        W48739  32.586   5.257   3.691
87077W        W48740  40.526  23.585  11.042
87078W        W48741  39.016   6.856  11.961
87079W        W48742  39.333  30.100  11.109
87080W        W48743  18.205  22.725   2.325
87081W        W48744  44.330  26.956  11.087
87082W        W48745  23.512  27.485  11.605
87083W        W48746  17.648  16.724  11.956
87084W        W48747  29.945   2.795   4.756
87085W        W48748  19.590  25.710   4.729
87086W        W48749  40.995  44.323   2.184
87087W        W48750  42.838   7.750  12.005
87088W        W48751  28.501   4.765   4.194
87089W        W48752   6.841   3.916   3.802
87090W        W48753  38.843  10.692  11.018
87091W        W48754   9.742  40.841  13.926
87092W        W48755  15.285  21.217  13.527
87093W        W48756  33.990  27.607  12.824
87094W        W48757   6.253   8.373  13.336
87095W        W48758  27.477  22.137  13.989
87096W        W48759  30.561   2.822   2.751
87097W        W48760  42.937  30.534  11.100
87098W        W48761  36.079   5.364  10.609
87099W        W48762  43.854  32.016  11.515
87100W        W48763  25.546   0.874  13.836
87101W        W48764  17.107  16.644  13.468
87102W        W48765  20.158  29.446  11.040
87103W        W48766  38.850  28.099  12.415
87104W        W48767  40.869  30.076   4.204
87105W        W48768  40.390  10.650   4.341
87106W        W48769  40.868  24.104  12.029
87107W        W48770  28.549  43.458  11.581
87108W        W48771  23.131  41.538  14.381
87109W        W48772  40.881  42.927   4.253
87110W        W48773  32.060  20.618  13.317
87111W        W48774  26.594  39.347  10.933
87112W        W48775  12.816  21.141  12.418
87113W        W48776  24.048  33.608   1.851
87114W        W48777   1.921  34.963   1.856
87115W        W48778  43.300  27.980  11.884
87116W        W48779  10.758   4.435   1.720
87117W        W48780  20.596   1.962  14.970
87118W        W48781  12.825  17.687   1.775
87119W        W48782  38.559  28.030   1.407
87120W        W48783   7.859  16.113  11.000
87121W        W48784  38.915   9.170   2.663
87122W        W48785  38.502  11.689   2.866
87123W        W48786  26.678  35.968   1.324
87124W        W48787  39.943  29.094  11.436
87125W        W48788  16.177  19.277   2.248
87126W        W48789  25.113  29.117  10.498
87127W        W48790   9.887  39.942   4.145
87128W        W48791  18.726  21.696   4.313
87129W        W48792  22.220   5.414  14.384
87130W        W48793  20.237  27.466  12.081
87131W        W48794  39.401  42.856  12.421
87132W        W48795  43.891  36.349  10.600
87133W        W48796   6.920  38.824  13.794
87134W        W48797  11.242   6.851  14.015
87135W        W48798  10.284  20.202   2.203
87136W        W48799  12.848   8.213  13.850
87137W        W48800  34.037  38.418   0.282
87138W        W48801  19.666   0.795  13.458
87139W        W48802  37.375  26.003  14.458
87140W        W48803  21.057  19.179   2.667
87141W        W48804  14.272  32.457  14.372
87142W        W48805  20.700  26.561   2.752
87143W        W48806  11.340   8.373  13.381
87144W        W48807   4.327  13.761  10.493
87145W        W48808  39.007  35.426  11.496
87146W        W48809   4.865  41.296  13.928
87147W        W48810  44.314  38.820  10.604
87148W        W48811  23.041  44.276   1.245
87149W        W48812  37.385  11.758   2.873
87150W        W48813  14.093  34.580  13.427
87151W        W48814  12.768  22.083  12.472
87152W        W48815  19.176  13.290  13.058
87153W        W48816  38.945  12.194  11.560
87154W        W48817  37.847  15.730   0.830
87155W        W48818  15.166  37.574   0.744
87156W        W48819  31.019  12.638   5.166
87157W        W48820  43.971   2.925  14.961
87158W        W48821  36.382  22.124  11.593
87159W        W48822  43.350  32.925  12.564
87160W        W48823  11.267   8.811   2.268
87161W        W48824  25.038  17.132   1.229
87162W        W48825   0.762  20.046   3.685
87163W        W48826   3.231   6.310   0.798
87164W        W48827  22.663  11.134   4.806
87165W        W48828  38.416  21.522  13.943
87166W        W48829   2.325  35.882   0.805
87167W        W48830  39.378  43.013   3.651
87168W        W48831  37.087   0.884  12.000
87169W        W48832  15.737  38.434  14.386
87170W        W48833  28.974  38.527  13.407
87171W        W48834  25.164  24.124  10.948
87172W        W48835  26.986   4.320   3.368
87173W        W48836  18.759  37.952  12.032
87174W        W48837   2.418  25.004   3.643
87175W        W48838  40.867  34.419   2.833
87176W        W48839  36.099  38.460   1.429
87177W        W48840   5.715  22.543   1.839
87178W        W48841  39.345  25.979   0.880
87179W        W48842  22.188  13.639  13.388
87180W        W48843  34.867  41.472   1.222
87181W        W48844  12.736  10.852   9.628
87182W        W48845  43.987  24.196   1.708
87183W        W48846  18.242  13.209  11.388
87184W        W48847  31.559  14.753  11.527
87185W        W48848  41.013  43.397  13.478
87186W        W48849   0.841   8.189   1.288
87187W        W48850  20.648  24.195  12.526
87188W        W48851   4.431  30.152  14.510
87189W        W48852  13.110  32.976  11.486
87190W        W48853  31.542  15.799   2.203
87191W        W48854  18.627   0.462   2.362
87192W        W48855  33.113  22.623   1.771
87193W        W48856  18.678  37.031  13.929
87194W        W48857  25.492  41.832   4.688
87195W        W48858  40.896  31.920  11.060
87196W        W48859  23.187   1.852   4.336
87197W        W48860   4.764   7.189   1.241
87198W        W48861  18.253  42.370   4.786
87199W        W48862  27.488  39.397   4.719
87200W        W48863  37.493   9.880   4.188
87201W        W48864   3.308  13.619  12.425
87202W        W48865   3.400  36.536   4.757
87203W        W48866  34.547  37.342   1.440
87204W        W48867  24.217   5.741  13.949
87205W        W48868  40.504   0.428  14.507
87206W        W48869  28.113   4.941   0.291
87207W        W48870   4.846  29.556  14.347
87208W        W48871  24.571   0.752  14.996
87209W        W48872   1.331  15.719  10.903
87210W        W48873  42.026  24.498   2.819
87211W        W48874  22.081   8.226  13.064
87212W        W48875   3.333  11.632  10.897
87213W        W48876  16.802  27.507  13.936
87214W        W48877  32.962  24.626  11.858
87215W        W48878  14.751  33.971  13.893
87216W        W48879   4.901  15.661  13.488
87217W        W48880  19.663  13.351   4.691
87218W        W48881  19.271   1.340   3.321
87219W        W48882  19.649  37.926  12.371
87220W        W48883  36.506  21.652  13.866
87221W        W48884   9.225  21.090  14.900
87222W        W48885  26.476   6.342  12.424
87223W        W48886  23.635  29.933   3.161
87224W        W48887  25.114  24.017   3.291
87225W        W48888  25.131  29.492  12.482
87226W        W48889  22.671  21.037   2.696
87227W        W48890  31.476  27.188  13.539
87228W        W48891   3.316  37.370  10.952
87229W        W48892  31.999  37.430   1.450
87230W        W48893  35.494  12.267  11.863
87231W        W48894  38.336  43.504  12.498
87232W        W48895   3.380  34.610   3.667
87233W        W48896  39.405  20.541   1.909
87234W        W48897  17.106  18.139   4.669
87235W        W48898   2.250   4.390  14.806
87236W        W48899  24.693  16.096   2.816
87237W        W48900   3.250  34.978   4.321
87238W        W48901   4.277  34.420  14.007
87239W        W48902  38.569  37.340   2.783
87240W        W48903  16.305  44.469  12.841
87241W        W48904   2.294  20.572   0.734
87242W        W48905  33.090  20.208  11.051
87243W        W48906  31.050  16.596  11.867
87244W        W48907   6.766  23.645   1.429
87245W        W48908  42.366  30.945   1.813
87246W        W48909   8.187   6.907   3.226
87247W        W48910  22.664   5.378   1.892
87248W        W48911  43.346  29.037   0.299
87249W        W48912   3.937  12.629   3.360
87250W        W48913   6.208  24.685   3.736
87251W        W48914  42.302   2.468  10.495
87252W        W48915   9.699  34.885   1.448
87253W        W48916  10.876  23.182   2.377
87254W        W48917  42.885  25.114   3.348
87255W        W48918   0.987  32.539  11.081
87256W        W48919  14.273   5.326  14.940
87257W        W48920   1.825  27.039   4.271
87258W        W48921  27.025  29.092   2.364
87259W        W48922   4.331  17.075  14.345
87260W        W48923  40.001   1.330  11.429
87261W        W48924  30.092   0.826   4.632
87262W        W48925  28.472  15.231  10.969
87263W        W48926  22.037   6.288   1.433
87264W        W48927   6.830   6.307   0.795
87265W        W48928  22.634  41.350   3.696
87266W        W48929   9.804   9.335  14.920
87267W        W48930  25.482  43.928  12.356
87268W        W48931   7.804  31.046   0.859
87269W        W48932  33.882  22.161  13.791
87270W        W48933   0.421   8.175  13.384
87271W        W48934  25.993  25.004  12.027
87272W        W48935  33.970  41.979  14.515
87273W        W48936   7.391  12.345  14.837
87274W        W48937  40.536  23.520  12.440
87275W        W48938  18.708  12.834   2.249
87276W        W48939  11.801  13.338   1.927
87277W        W48940  35.386  29.040   1.801
87278W        W48941  17.291  23.121  11.069
87279W        W48942  15.748  26.573  11.489
87280W        W48943  35.103  18.778   2.722
87281W        W48944  24.613   5.716   2.325
87282W        W48945  25.981  40.454  13.316
87283W        W48946  25.025  15.250   4.776
87284W        W48947  23.542  41.368  10.631
87285W        W48948  19.217  39.412   2.858
87286W        W48949  31.032  27.480  13.856
87287W        W48950  31.136   3.378   2.202
87288W        W48951  12.622   7.275  13.851
87289W        W48952  26.146  26.612   3.751
87290W        W48953  18.755  44.950  11.970
87291W        W48954  21.583  28.084  13.961
87292W        W48955  39.333   0.485  13.317
87293W        W48956  23.513  42.402   1.753
87294W        W48957  19.588  18.585   0.427
87295W        W48958  12.733  44.984  12.823
87296W        W48959   0.274  39.477   0.854
87297W        W48960  15.586  37.951  12.435
87298W        W48961  17.570  43.992  10.551
87299W        W48962   8.300  43.333  10.560
87300W        W48963  38.867  13.706   2.210
87301W        W48964  10.765  23.544  14.392
87302W        W48965  39.517  34.610   1.326
87303W        W48966  38.842   9.815   1.694
87304W        W48967  32.398  30.980  11.399
87305W        W48968  14.605   2.392   4.169
87306W        W48969  12.207   2.228   0.924
87307W        W48970  10.180  43.375  10.949
87308W        W48971  40.461   3.776  12.896
87309W        W48972   8.232   3.291  13.337
87310W        W48973  42.964  20.551   3.669
87311W        W48974  27.985  35.383   1.256
87312W        W48975  43.827  25.989   4.141
87313W        W48976  29.096  25.156  11.875
87314W        W48977  19.571  35.027   3.196
87315W        W48978  34.995  15.700   5.317
87316W        W48979  26.091  15.633  12.959
87317W        W48980  22.065  42.288  11.860
87318W        W48981  42.023   0.768   3.732
87319W        W48982  25.208   7.885  12.343
87320W        W48983  39.063  37.057   0.297
87321W        W48984  29.986  41.510   1.285
87322W        W48985   9.248  37.902   4.230
87323W        W48986  38.866  16.609   4.678
87324W        W48987   8.275  26.557   1.917
87325W        W48988  27.628  29.021  10.909
87326W        W48989  27.157  24.621   2.353
87327W        W48990  25.482   1.438   4.347
87328W        W48991  28.549  27.066  11.603
87329W        W48992  33.016  38.986   0.443
87330W        W48993  15.158  36.386  14.374
87331W        W48994   2.723  16.774   4.739
87332W        W48995  22.161  39.956  10.571
87333W        W48996   0.393  37.017   2.813
87334W        W48997  20.078  20.037  14.772
87335W        W48998   4.406   0.894  14.909
87336W        W48999   1.816  17.086  11.082
87337W        W49000  19.679  44.898   4.233
87338W        W49001   2.356  16.199  10.483
87339W        W49002  34.449  23.210   2.348
87340W        W49003  27.049  11.353   1.775
87341W        W49004  42.802  37.517  10.102
87342W        W49005  17.597  16.600   0.398
87343W        W49006  14.233  27.483   0.796
87344W        W49007  37.910   2.815  13.537
87345W        W49008   5.782  30.570   3.265
87346W        W49009  43.953  11.224  14.389
87347W        W49010   6.283  37.897  14.496
87348W        W49011  30.538  32.102   0.955
87349W        W49012   4.780  14.268  12.508
87350W        W49013  15.802   3.289   0.781
87351W        W49014   2.857  33.028   3.629
87352W        W49015  26.098   0.261   2.834
87353W        W49016   5.241  23.684   2.298
87354W        W49017  38.376  34.414  12.825
87355W        W49018  31.585  42.868   3.861
87356W        W49019  44.793  42.402  14.383
87357W        W49020  15.254  22.095   2.254
87358W        W49021  31.463  28.975  13.926
87359W        W49022  44.817  29.589   1.413
87360W        W49023  22.067  30.649  11.044
87361W        W49024  32.431   5.274   2.752
87362W        W49025  19.141  10.349  13.546
87363W        W49026  27.990  13.132   1.233
87364W        W49027  27.078  43.306  13.973
87365W        W49028  39.928  32.067  12.944
87366W        W49029  10.738   4.780  11.523
87367W        W49030  10.681  19.129  12.933
87368W        W49031   1.281  24.134   1.364
87369W        W49032  13.204  31.901   0.262
87370W        W49033  20.231  25.115   1.371
87371W        W49034  23.699  37.348  14.969
87372W        W49035  30.944  30.570   0.765
87373W        W49036  22.235  24.212  13.979
87374W        W49037  35.966  26.031  12.504
87375W        W49038  34.055  25.637   0.246
87376W        W49039  33.112  14.759  12.426
87377W        W49040  30.010  33.013   4.269
87378W        W49041  35.572  21.673   3.190
87379W        W49042  27.641  33.065   2.296
87380W        W49043  30.564  17.667   3.833
87381W        W49044  21.190  23.056  12.370
87382W        W49045  36.523   7.279   1.700
87383W        W49046  12.175  43.321   1.894
87384W        W49047  26.607  38.326  12.084
87385W        W49048  16.572   0.363  13.041
87386W        W49049  37.077  23.985  12.386
87387W        W49050   4.939  36.487  14.793
87388W        W49051   3.894  14.756  11.918
87389W        W49052  42.932   9.714  12.045
87390W        W49053  31.973  10.754   0.729
87391W        W49054  37.353  35.007  12.414
87392W        W49055  27.079  26.552  13.384
87393W        W49056  39.809  15.594  12.500
87394W        W49057  12.237   4.316   0.793
87395W        W49058  13.613   6.679   4.184
87396W        W49059  25.080  29.006   2.180
87397W        W49060  17.253  28.569  13.065
87398W        W49061  21.029  25.025   3.382
87399W        W49062  25.691   7.830   2.331
87400W        W49063   9.746  36.083   3.798
87401W        W49064  12.648  33.083  10.473
87402W        W49065  25.691   4.416   4.796
87403W        W49066  31.581  18.074  10.418
87404W        W49067  18.139  32.018   2.738
87405W        W49068  44.768  32.407  14.999
87406W        W49069   3.808  34.895  11.937
87407W        W49070   9.164  22.594   1.808
87408W        W49071  12.148   7.265   2.682
87409W        W49072  39.435   5.260   3.212
87410W        W49073  41.374  39.552   3.188
87411W        W49074  37.362   0.987  14.328
87412W        W49075  35.957  24.588   3.254
87413W        W49076  19.764   9.651   2.806
87414W        W49077  24.519   7.389   0.465
87415W        W49078  23.024  28.099   4.292
87416W        W49079  37.069  24.117   2.804
87417W        W49080   7.282  14.732  12.823
87418W        W49081  33.959   0.341   0.356
87419W        W49082   6.902  30.154   0.420
87420W        W49083  38.508  25.034  14.863
87421W        W49084   3.281  29.063   3.641
87422W        W49085   9.194   7.221   3.823
87423W        W49086   0.984  41.535  10.551
87424W        W49087  36.842  36.882   0.321
87425W        W49088  36.386   6.364  12.383
87426W        W49089   4.439  30.077   4.138
87427W        W49090   0.765  39.933  14.997
87428W        W49091  30.144  41.851   1.794
87429W        W49092  30.086  29.441   2.271
87430W        W49093  10.665   8.177  11.037
87431W        W49094  23.689  10.350  12.507
87432W        W49095  21.152   5.837  13.884
87433W        W49096  27.533  16.568  14.277
87434W        W49097   4.239  37.474   3.260
87435W        W49098  17.568  26.571   3.281
87436W        W49099   0.955  16.120   4.711
87437W        W49100  19.257  43.393  11.008
87438W        W49101  34.596  38.570  11.413
87439W        W49102   1.241  41.487   0.250
87440W        W49103  40.873   0.919   0.351
87441W        W49104  13.292  33.554   0.301
87442W        W49105  10.317   6.682  12.382
87443W        W49106  23.016  13.169   1.377
87444W        W49107  17.179  17.610  14.890
87445W        W49108  36.451  24.976  14.408
87446W        W49109  29.427  16.129  14.824
87447W        W49110  25.488  24.157  13.408
87448W        W49111  14.324  35.590   9.999
87449W        W49112  39.820  14.102   2.686
87450W        W49113  41.843  44.936  13.314
87451W        W49114  15.626  33.897  11.459
87452W        W49115  21.671  44.324  13.951
87453W        W49116  39.334  42.366   1.268
87454W        W49117   9.225  38.965   0.906
87455W        W49118  36.050  20.056  14.351
87456W        W49119  36.529   8.686  14.821
87457W        W49120  28.560   6.197  14.822
87458W        W49121  17.789   6.763   3.865
87459W        W49122  37.336  21.155   0.752
87460W        W49123  38.431  25.527   1.791
87461W        W49124   7.678   9.678   1.771
87462W        W49125  33.942  42.869   0.863
87463W        W49126   5.795  44.326   1.737
87464W        W49127  42.025  13.824   2.822
87465W        W49128  35.029  12.132  13.493
87466W        W49129  40.524  44.416  10.494
87467W        W49130  29.159  33.614   4.727
87468W        W49131  42.844  41.416   3.828
87469W        W49132  41.936  25.017   1.889
87470W        W49133  11.751  39.349   4.807
87471W        W49134  43.431  29.162  14.361
87472W        W49135  21.245  11.305   0.380
87473W        W49136   5.722  41.444   1.913
87474W        W49137  26.691  21.082  12.467
87475W        W49138  36.483  15.227  14.349
87476W        W49139  27.508  27.020  14.019
87477W        W49140  44.985  40.891  12.400
87478W        W49141  42.496   2.868  11.097
87479W        W49142  27.656  36.391  13.889
87480W        W49143  25.022  11.239   0.411
87481W        W49144  42.307   0.967   3.349
87482W        W49145   8.316  24.088  10.500
87483W        W49146  39.351  43.912   2.387
87484W        W49147  10.148  14.167  14.825
87485W        W49148  19.675   1.969  10.419
87486W        W49149  41.865  33.963  10.404
87487W        W49150  43.942  30.939   1.235
87488W        W49151  11.316   3.323  11.964
87489W        W49152  17.728  11.798   4.174
87490W        W49153  33.619   5.754   5.201
87491W        W49154  24.139  35.398  11.386
87492W        W49155   9.172  18.763  10.556
87493W        W49156  25.973  20.190   1.327
87494W        W49157   6.212   4.338  14.434
87495W        W49158  41.021  26.597   2.339
87496W        W49159  25.218  27.123   4.806
87497W        W49160  12.844  18.152  13.026
87498W        W49161  38.856  13.784  14.823
87499W        W49162  11.356  38.476   3.201
87500W        W49163  33.997  16.087  11.876
87501W        W49164  24.145  34.456   3.275
87502W        W49165  36.909   6.826   3.343
87503W        W49166  13.146   7.827   1.369
87504W        W49167   8.303  12.806   1.247
87505W        W49168   0.915   0.271   2.334
87506W        W49169  37.462  37.879  13.063
87507W        W49170  30.934  23.562  14.379
87508W        W49171  38.819  34.993  13.045
87509W        W49172  39.836  28.114  11.984
87510W        W49173  42.018  12.151  13.825
87511W        W49174  34.382  33.946   4.259
87512W        W49175   2.347  35.960   3.238
87513W        W49176  39.029  35.926  13.382
87514W        W49177   9.828  22.195   0.284
87515W        W49178   8.272  17.701  12.463
87516W        W49179  18.282  18.782  14.950
87517W        W49180  35.994  35.078  11.484
87518W        W49181  31.899   5.228  14.422
87519W        W49182  30.134  11.717  11.455
87520W        W49183  12.836   2.772  11.860
87521W        W49184  36.027  40.051   0.819
87522W        W49185  31.563  15.205   0.283
87523W        W49186  16.728  41.841  14.387
87524W        W49187  16.126  25.143   2.189
87525W        W49188   0.429  11.162   1.374
87526W        W49189   9.765  35.459   2.232
87527W        W49190  26.505  37.900  13.062
87528W        W49191  43.276   7.723  13.819
87529W        W49192  14.221  40.306  11.403
87530W        W49193  30.086  38.384   3.742
87531W        W49194  32.560  18.680   5.239
87532W        W49195  36.931  42.978   3.163
87533W        W49196  44.436  15.321   0.942
87534W        W49197   6.389  10.297   2.209
87535W        W49198  32.096  16.663   1.769
87536W        W49199  34.961  20.607   2.298
87537W        W49200  43.441  32.905   3.815
87538W        W49201  29.158  44.498  14.394
87539W        W49202  38.333  10.337  12.479
87540W        W49203  33.078  20.606   2.751
87541W        W49204   3.870   0.433  13.034
87542W        W49205  40.924   5.924   2.859
87543W        W49206  15.656  32.402  10.918
87544W        W49207  36.043  12.728   2.379
87545W        W49208  22.574  30.445   1.404
87546W        W49209   5.869  38.475  14.305
87547W        W49210  38.864  10.718  13.012
87548W        W49211  19.763  22.539   0.372
87549W        W49212  33.921  23.580  11.461
87550W        W49213   9.700  44.826  14.449
87551W        W49214   4.354  26.525  14.834
87552W        W49215  11.323  43.405  10.627
87553W        W49216   2.800  38.853  10.482
87554W        W49217   3.356  12.821   4.658
87555W        W49218  22.708  10.848  14.951
87556W        W49219  24.187  14.686  10.550
87557W        W49220  14.772  39.856   2.411
87558W        W49221  21.137  16.102   5.228
87559W        W49222  39.051  37.412  10.539
87560W        W49223  18.740  16.595   2.756
87561W        W49224  31.461  27.112   1.354
87562W        W49225  33.601  24.029   3.778
87563W        W49226   0.817  42.854  14.961
87564W        W49227  11.796  28.565  13.962
87565W        W49228  34.918  36.413   3.799
87566W        W49229   8.678  29.640   3.146
87567W        W49230  12.712   5.395  13.041
87568W        W49231  10.682   1.907  10.918
87569W        W49232  43.847  28.018  12.493
87570W        W49233  34.088  29.590   1.887
87571W        W49234  18.190  41.966  12.421
87572W        W49235   8.786   2.326  14.352
87573W        W49236  10.753  26.125  13.940
87574W        W49237   0.929  37.936   1.747
87575W        W49238  27.053  34.056  13.467
87576W        W49239  42.018  12.214   2.399
87577W        W49240  30.054  25.031   3.677
87578W        W49241  22.162   2.793  12.985
87579W        W49242   4.227  12.686   0.739
87580W        W49243  15.679  14.263  12.570
87581W        W49244   5.236  27.488   4.178
87582W        W49245  34.418  24.599   3.830
87583W        W49246  28.960   9.248   3.269
87584W        W49247   2.853  17.608   3.367
87585W        W49248  12.139  44.395  10.042
87586W        W49249   0.888  32.140   4.713
87587W        W49250  32.408  24.187  14.370
87588W        W49251   2.939  15.325   4.832
87589W        W49252  28.482  20.038  13.438
87590W        W49253  11.194   0.340  13.526
87591W        W49254  27.164  37.439   4.633
87592W        W49255  36.856  19.556  13.470
87593W        W49256  16.603  43.821  10.530
87594W        W49257  41.042  39.343  13.513
87595W        W49258   7.207  25.501  11.896
87596W        W49259  44.779   9.711  11.525
87597W        W49260  41.526   4.875  12.923
87598W        W49261   3.710   6.279   0.370
87599W        W49262  39.526  35.950   4.796
87600W        W49263  37.564  25.660   4.349
87601W        W49264  30.145  37.035   2.180
87602W        W49265  36.584  13.141   2.884
87603W        W49266  40.912  31.968   2.188
87604W        W49267  11.704  27.476  10.936
87605W        W49268   5.275   4.746   4.148
87606W        W49269  41.963  28.031   3.290
87607W        W49270   0.752  37.929   0.399
87608W        W49271  36.581   2.836  13.309
87609W        W49272   6.900   1.372   4.186
87610W        W49273   5.877  40.510   4.159
87611W        W49274  34.536  31.082  10.556
87612W        W49275  35.036  38.069  14.280
87613W        W49276  28.120   5.901  12.850
87614W        W49277  40.538   6.245   4.724
87615W        W49278  30.939  12.137   2.901
87616W        W49279  22.589  36.845   2.809
87617W        W49280  27.118  22.607   3.346
87618W        W49281   1.749  30.613  12.876
87619W        W49282   6.726  10.354   2.844
87620W        W49283  24.652   4.375  10.576
87621W        W49284   2.960  10.799  12.952
87622W        W49285  34.010  17.799   4.160
87623W        W49286  33.401  30.632  12.976
87624W        W49287  43.289  43.281   2.799
87625W        W49288  35.027  16.775  14.868
87626W        W49289  14.757  23.665   0.300
87627W        W49290   6.279  30.536   4.675
87628W        W49291  31.983  40.502   4.837
87629W        W49292  38.447  38.052  12.976
87630W        W49293  21.559   9.863   2.770
87631W        W49294  29.006  34.613  13.998
87632W        W49295   6.397  18.548  14.869
87633W        W49296   6.304  10.176   3.197
87634W        W49297   1.356  26.989   4.604
87635W        W49298  10.376  44.469   3.661
87636W        W49299  13.334   9.805  11.890
87637W        W49300  33.957   1.398   0.872
87638W        W49301   6.791  31.501  12.055
87639W        W49302  41.321  14.212   1.827
87640W        W49303  13.813  30.073  11.048
87641W        W49304  17.079  19.540  12.866
87642W        W49305  39.841  38.528  12.095
87643W        W49306  32.024  27.548  13.501
87644W        W49307  38.526  27.089  12.918
87645W        W49308  15.194  42.447   0.369
87646W        W49309   5.429  29.088  14.305
87647W        W49310  35.384  28.662  13.354
87648W        W49311  33.590  25.026   1.761
87649W        W49312   9.679   3.882   1.763
87650W        W49313  11.191   6.185   3.713
87651W        W49314   3.384   2.441  10.961
87652W        W49315  32.136  20.113  12.396
87653W        W49316  15.229  24.710  11.038
87654W        W49317  24.022  35.920  12.493
87655W        W49318  21.548  36.593  11.954
87656W        W49319  37.527  27.119  13.993
87657W        W49320  18.235  30.028  13.321
87658W        W49321  13.176  17.678  10.895
87659W        W49322  25.002  24.048  13.057
87660W        W49323  26.118  12.822  12.422
87661W        W49324  36.984  14.241  14.295
87662W        W49325  29.010  43.436   1.366
87663W        W49326  37.511  32.911  11.500
87664W        W49327   3.394  40.348   0.444
87665W        W49328  25.180  28.180  14.016
87666W        W49329  26.123  22.576   4.778
87667W        W49330  25.116  28.117   2.740
87668W        W49331   0.812  44.328   0.916
87669W        W49332  12.266  43.337   3.639
87670W        W49333  28.008  37.083   3.729
87671W        W49334  44.273  44.818  10.465
87672W        W49335  36.002  34.579  14.367
87673W        W49336  19.125  24.124  11.951
87674W        W49337  34.076  42.438   4.229
87675W        W49338  10.692  30.119   2.713
87676W        W49339  14.668  43.970   0.365
87677W        W49340  26.506  22.570   3.801
87678W        W49341  22.588  10.739   3.714
87679W        W49342  30.519  14.307   0.856
87680W        W49343  27.995  37.944   2.259
87681W        W49344  39.358  42.924  13.345
87682W        W49345  42.382  27.994   4.687
87683W        W49346  20.532  23.125   0.303
87684W        W49347  13.605  24.484  14.899
87685W        W49348  29.135  13.708   1.784
87686W        W49349  10.730  33.473   0.855
87687W        W49350   5.732   3.354  13.462
87688W        W49351  21.615   1.968  10.967
87689W        W49352   7.191   8.177   1.814
87690W        W49353  10.242   4.839  14.516
87691W        W49354  28.488  22.186  11.050
87692W        W49355  27.006  44.488  14.761
87693W        W49356  18.667  36.089   4.729
87694W        W49357  11.760  43.849  12.952
87695W        W49358  10.727   1.425  14.446
87696W        W49359  43.367   5.382  14.932
87697W        W49360  40.447   0.440   4.807
87698W        W49361   2.342  31.460   2.877
87699W        W49362  38.824   5.217   4.633
87700W        W49363  17.712   8.823   0.290
87701W        W49364  44.391  21.261  13.844
87702W        W49365  42.905  20.586   2.866
87703W        W49366  27.948  22.630   5.181
87704W        W49367  34.380  44.819  11.398
87705W        W49368  18.768  37.889   4.344
87706W        W49369  37.916  40.429   4.352
87707W        W49370   1.970  19.691  13.961
87708W        W49371   8.388  20.757  10.633
87709W        W49372  29.552  23.619   0.263
87710W        W49373   3.331  37.855  13.822
87711W        W49374   1.796  17.714   0.948
87712W        W49375  18.280  37.490  10.026
87713W        W49376  33.052  15.203  10.460
87714W        W49377  36.437  12.776  12.874
87715W        W49378  43.015  29.079  12.468
87716W        W49379  32.459  32.598  13.360
87717W        W49380  22.168  23.149  10.919
87718W        W49381   3.922  41.447  12.442
87719W        W49382  17.699  13.214   4.746
87720W        W49383  26.700  37.039   1.423
87721W        W49384  21.607  24.515  10.978
87722W        W49385  12.730  20.157  14.453
87723W        W49386  23.122  32.911  11.062
87724W        W49387  28.979  30.122  12.080
87725W        W49388  34.112  33.509  13.447
87726W        W49389  41.366  43.464   4.259
87727W        W49390  28.144  19.140   0.451
87728W        W49391   0.829  22.627  10.525
87729W        W49392  29.021   8.220  11.103
87730W        W49393  30.570  29.003   3.685
87731W        W49394  27.008  14.643  13.477
87732W        W49395   8.822  43.506  14.399
87733W        W49396  23.988   2.280  14.512
87734W        W49397   4.798   7.300   0.331
87735W        W49398  18.634  34.544  10.469
87736W        W49399  44.499  38.910  11.590
87737W        W49400  21.686  22.233  10.500
87738W        W49401  24.016   6.420   3.686
87739W        W49402  36.470  32.006   2.841
87740W        W49403  21.116  16.116  13.530
87741W        W49404  19.242  16.769  14.377
87742W        W49405  19.711  12.275   2.244
87743W        W49406   5.791  27.996  12.560
87744W        W49407  19.183   3.905   3.817
87745W        W49408   9.251  26.990   0.857
87746W        W49409  21.742  41.417   0.396
87747W        W49410  39.962  21.246  10.471
87748W        W49411  14.292   6.684   1.873
87749W        W49412  17.206   4.721   5.159
87750W        W49413  28.578   7.725   1.918
87751W        W49414   6.832   0.912   3.745
87752W        W49415  37.499   2.889  12.928
87753W        W49416  39.931   5.286  12.537
87754W        W49417  23.685   4.929   0.929
87755W        W49418   2.739  18.155  14.294
87756W        W49419  39.024  20.084   4.214
87757W        W49420  40.831  10.638   1.713
87758W        W49421  16.148   5.757  11.419
87759W        W49422  35.031   7.871  14.908
87760W        W49423  29.542  20.074  10.956
87761W        W49424  31.149  38.008   1.295
87762W        W49425  23.718  35.410  11.083
87763W        W49426  27.179  19.155   0.844
87764W        W49427  13.693   2.353  11.109
87765W        W49428  34.527   6.800   0.864
87766W        W49429  23.719  16.578   2.793
87767W        W49430  27.136  23.501   4.327
87768W        W49431  37.483   5.790   4.330
87769W        W49432   8.680  35.398   4.236
87770W        W49433   7.695  36.028   5.309
87771W        W49434   4.836   2.801   3.712
87772W        W49435  24.480   3.306  13.045
87773W        W49436   6.330  28.013  13.005
87774W        W49437  36.942  34.110  14.878
87775W        W49438   7.333  42.012  12.885
87776W        W49439   6.842  15.735  12.455
87777W        W49440  16.731   0.434  12.453
87778W        W49441   8.756  12.230   0.429
87779W        W49442  37.846   7.891   0.953
87780W        W49443  24.199  41.490   3.329
87781W        W49444  37.467   2.308  14.817
87782W        W49445   1.956   6.264  14.771
87783W        W49446  41.398  16.794  14.367
87784W        W49447  35.075  22.172  14.028
87785W        W49448  22.710   4.246   0.393
87786W        W49449  15.139  26.080   3.686
87787W        W49450  16.174   7.188  13.397
87788W        W49451  42.384  22.192  12.933
87789W        W49452   3.393  15.741  14.473
87790W        W49453  23.195   2.933   2.238
87791W        W49454  17.674  19.082   1.804
87792W        W49455  21.754  33.615   3.356
87793W        W49456   6.327  26.597   5.183
87794W        W49457  13.273  20.679  12.945
87795W        W49458  30.964  34.927   2.901
87796W        W49459  20.574  32.138   3.786
87797W        W49460  30.055  22.193  10.485
87798W        W49461  20.574   0.826  10.893
87799W        W49462  43.948  26.553  14.472
87800W        W49463  31.062  43.920   1.850
87801W        W49464  39.916  40.821   4.238
87802W        W49465  37.467  34.953   4.302
87803W        W49466  15.749  15.197   0.804
87804W        W49467  44.766   9.836  12.057
87805W        W49468  22.162   4.701   3.699
87806W        W49469  32.904  37.845   2.831
87807W        W49470  28.094  32.084  14.315
87808W        W49471  40.334  37.900  14.324
87809W        W49472   9.380   3.847  13.935
87810W        W49473  27.468  37.556  12.919
87811W        W49474  23.605  33.112  13.897
87812W        W49475  43.473  32.513  12.880
87813W        W49476  26.090  30.517   4.615
87814W        W49477  44.352  10.811  13.487
87815W        W49478  14.271  43.270  12.088
87816W        W49479  15.629   9.327  14.795
87817W        W49480  29.593  42.286  14.372
87818W        W49481  34.009  33.032  12.831
87819W        W49482  10.652   2.779  13.355
87820W        W49483  28.535  17.587   4.765
87821W        W49484  44.449  15.305   1.416
87822W        W49485  35.973  19.575   0.918
87823W        W49486  40.490  17.143   0.437
87824W        W49487  31.082   0.343   3.724
87825W        W49488  21.145  12.230  11.013
87826W        W49489   5.731  22.111  10.529
87827W        W49490  20.709  31.900  11.093
87828W        W49491  27.501   1.826  14.366
87829W        W49492  32.022   4.216   2.819
87830W        W49493   4.420   1.358  12.515
87831W        W49494   7.273  23.204  11.403
87832W        W49495  31.056   3.919   3.369
87833W        W49496  11.819   0.363   0.937
87834W        W49497  34.940  21.237  11.570
87835W        W49498  38.564   2.873   4.114
87836W        W49499   3.774  42.889   2.884
87837W        W49500  17.663  17.184   4.340
87838W        W49501  19.767  12.254  10.516
87839W        W49502  18.075  40.835  14.841
87840W        W49503   8.343  35.391  14.968
87841W        W49504  13.165  14.178  13.361
87842W        W49505  41.828  44.500   0.270
87843W        W49506  17.123  35.942  10.441
87844W        W49507   0.844  32.904  14.513
87845W        W49508  21.613   5.893  10.620
87846W        W49509  35.934   5.827   0.737
87847W        W49510  40.428  35.978  12.487
87848W        W49511  39.370  27.164   2.750
87849W        W49512   6.414   2.769   4.154
87850W        W49513   9.670   1.470  13.813
87851W        W49514  41.912  20.215  11.564
87852W        W49515  16.194   0.354   3.664
87853W        W49516  12.296  35.930   0.437
87854W        W49517  20.198  37.971  14.813
87855W        W49518  16.660  17.641   1.708
87856W        W49519   3.232  12.198   3.260
87857W        W49520  11.808  41.339  10.540
87858W        W49521  41.845  38.877   2.895
87859W        W49522  12.810  25.036   4.172
87860W        W49523  23.098  31.985   1.440
87861W        W49524  44.899  14.674  10.630
87862W        W49525  41.371  11.199   3.170
87863W        W49526  38.838  26.000  10.435
87864W        W49527   6.188  34.907  14.477
87865W        W49528   4.449  39.542  12.918
87866W        W49529  24.545  19.213  10.453
87867W        W49530   4.905  21.091   2.772
87868W        W49531  24.175  44.486   2.365
87869W        W49532   1.370  29.027   3.677
87870W        W49533  36.563  37.551   4.172
87871W        W49534   5.333  33.117  12.031
87872W        W49535  19.046  42.438   2.214
87873W        W49536  39.535   6.254   4.336
87874W        W49537   9.820  26.081   3.385
87875W        W49538  30.655  27.680   1.381
87876W        W49539  28.956  28.655   1.267
87877W        W49540  40.805  37.551   5.235
87878W        W49541  41.828  19.698   5.098
87879W        W49542  16.092  44.815   4.615
87880W        W49543  33.564  42.911  14.446
87881W        W49544  21.730  23.609  14.879
87882W        W49545  17.695  38.451   2.779
87883W        W49546  43.515  22.503  14.464
87884W        W49547  13.155  14.287   3.764
87885W        W49548  13.283  10.852  13.031
87886W        W49549  10.281  13.687   2.716
87887W        W49550   7.827  31.027   2.814
87888W        W49551   6.798  14.798  10.576
87889W        W49552  12.290   8.691   2.741
87890W        W49553  31.551  13.294   1.819
87891W        W49554  21.023   9.708   4.335
87892W        W49555  35.464  24.725  11.430
87893W        W49556  29.996  30.518  10.532
87894W        W49557  15.628   4.281   4.707
87895W        W49558  24.717  16.257   3.856
87896W        W49559  27.015  11.295  11.497
87897W        W49560  29.578  20.178   4.349
87898W        W49561  23.730  34.106  12.879
87899W        W49562   6.372   4.412  10.928
87900W        W49563  25.470  21.233  12.080
87901W        W49564  19.224  22.525   0.303
87902W        W49565  26.479  34.901  14.978
87903W        W49566  43.279  37.363  12.421
87904W        W49567  35.555  23.095   3.675
87905W        W49568   3.776   8.264   2.744
87906W        W49569  34.514  28.115   4.256
87907W        W49570  36.035  32.425   2.328
87908W        W49571  27.159  40.498   2.368
87909W        W49572  14.249  23.523   2.291
87910W        W49573  16.085  28.647  14.325
87911W        W49574  32.419  14.733  13.798
87912W        W49575  13.747  21.138   0.898
87913W        W49576  14.145  35.995   5.173
87914W        W49577  30.628   6.210   4.278
87915W        W49578   3.861  21.593  14.954
87916W        W49579   9.202  28.577   3.253
87917W        W49580  14.825  17.688   4.257
87918W        W49581  37.559   6.797  11.105
87919W        W49582   2.906  32.509  11.389
87920W        W49583   4.930   1.803  12.345
87921W        W49584  25.699  18.276  10.130
87922W        W49585  44.382  43.840  14.389
87923W        W49586   7.258  10.760   3.167
87924W        W49587   7.389  42.835   3.749
87925W        W49588   9.160  35.969   2.404
87926W        W49589  16.626  26.016   1.304
87927W        W49590  29.656  26.520   4.614
87928W        W49591  33.945  42.292  13.331
87929W        W49592  37.968  40.438   1.829
87930W        W49593   3.433   8.324   3.799
87931W        W49594  35.868  38.971   3.770
87932W        W49595  36.568  39.969   1.698
87933W        W49596  31.463  42.474  10.593
87934W        W49597  27.567  19.183  14.399
87935W        W49598  11.181  38.351  10.110
87936W        W49599  29.489  29.043   1.834
87937W        W49600  38.481  30.553  11.559
87938W        W49601  40.522   5.340   1.361
87939W        W49602  18.592  19.219   1.876
87940W        W49603  34.051  28.942   1.866
87941W        W49604  34.505   8.760  10.507
87942W        W49605  17.299  19.558   3.703
87943W        W49606   6.271   2.741  14.359
87944W        W49607   1.746  31.415  14.882
87945W        W49608   4.266  15.651  11.555
87946W        W49609  40.377  27.102  11.119
87947W        W49610  19.085  38.546  13.832
87948W        W49611   1.743  31.112  14.452
87949W        W49612  29.999  30.050   3.247
87950W        W49613   9.676  17.679  12.424
87951W        W49614  24.681  11.635  13.381
87952W        W49615  33.970  29.171   0.813
87953W        W49616  14.674  13.716  14.407
87954W        W49617  34.997  26.469  10.107
87955W        W49618  35.419  11.751   0.775
87956W        W49619  33.469  42.509   3.695
87957W        W49620  29.136  10.209  10.941
87958W        W49621  33.438   3.231  14.885
87959W        W49622  20.217  44.350  14.346
87960W        W49623  41.357   8.404  11.398
87961W        W49624  38.535  36.034   2.281
87962W        W49625  39.960  14.666  12.345
87963W        W49626   4.219  29.052   3.239
87964W        W49627   4.273  27.447  12.420
87965W        W49628  17.710   0.372   1.222
87966W        W49629  13.319  15.324   0.270
87967W        W49630   6.886  15.700  11.959
87968W        W49631  19.683  32.934  10.437
87969W        W49632   8.187  18.569  11.008
87970W        W49633  36.393  26.206  14.900
87971W        W49634   4.318  21.254   1.349
87972W        W49635   7.332  40.846  10.424
87973W        W49636   1.915  25.472   5.263
87974W        W49637  26.498  26.151   0.769
87975W        W49638  29.445  21.593  14.448
87976W        W49639  23.625  30.044   0.831
87977W        W49640   4.242   9.658  12.564
87978W        W49641  18.629  14.330  14.954
87979W        W49642  29.086  27.073  13.481
87980W        W49643  32.433  34.515  12.952
87981W        W49644  16.772  15.815   9.928
87982W        W49645  44.865  21.095  10.500
87983W        W49646   8.737  35.057   0.749
87984W        W49647  23.497  24.609   2.184
87985W        W49648  29.166  12.689  14.906
87986W        W49649   0.407  12.182   9.499
87987W        W49650  15.137  23.984  14.987
87988W        W49651  20.529   2.356  13.822
87989W        W49652  21.674  44.969  12.438
87990W        W49653   3.384  27.051   1.376
87991W        W49654  13.705  24.598   3.762
87992W        W49655  30.443  24.594  14.420
87993W        W49656   9.672  17.289  14.363
87994W        W49657  33.422  38.966   2.892
87995W        W49658  32.932   6.380   0.962
87996W        W49659  10.245  35.421  12.431
87997W        W49660   7.745  34.590  12.443
87998W        W49661   9.388  43.856  13.026
87999W        W49662  34.884  42.337   4.114
88000W        W49663   7.388  41.385  11.006
88001W        W49664  11.676  35.443  14.012
88002W        W49665  14.768   0.370   0.832
88003W        W49666  29.055  37.086  14.804
88004W        W49667   5.194  38.867   4.783
88005W        W49668  32.044  43.495  11.934
88006W        W49669  15.617  27.157  12.577
88007W        W49670  28.551   8.178   4.650
88008W        W49671  27.669  39.026  13.345
88009W        W49672  17.268  32.910   4.199
88010W        W49673  38.440  24.499   4.663
88011W        W49674  14.611  15.592   3.734
88012W        W49675  21.619  37.837   3.348
88013W        W49676  43.399   8.203   9.998
88014W        W49677   8.301  35.989   3.748
88015W        W49678  20.645  40.335  14.346
88016W        W49679   8.670  28.492   1.923
88017W        W49680   3.376  32.583   4.249
88018W        W49681  28.149   4.790  11.375
88019W        W49682   5.361  13.644   0.853
88020W        W49683  29.134  34.067   0.883
88021W        W49684   7.846  35.924  12.385
88022W        W49685  16.268  10.340  11.888
88023W        W49686  25.678   2.379  11.381
88024W        W49687  33.881  10.170  12.542
88025W        W49688  17.580   8.697   4.349
88026W        W49689  15.631  35.897   2.322
88027W        W49690  29.663  41.805  10.028
88028W        W49691  43.788  35.582  10.602
88029W        W49692  14.282   9.664  11.928
88030W        W49693  11.635  44.853   4.228
88031W        W49694  41.477  15.800  13.543
88032W        W49695  27.946  29.155  10.067
88033W        W49696  34.053   9.699   2.824
88034W        W49697  20.267   9.846   2.794
88035W        W49698  43.810  18.258   3.272
88036W        W49699  26.604  10.661   4.686
88037W        W49700   4.943  32.992  13.880
88038W        W49701  25.082  13.789  14.432
88039W        W49702   3.401   7.207  14.280
88040W        W49703  24.010  13.340   2.802
88041W        W49704  11.179   3.942  12.871
88042W        W49705  25.633  29.985  11.871
88043W        W49706  32.004  43.883   0.762
88044W        W49707  38.991  31.914  13.989
88045W        W49708  29.530  30.628  14.433
88046W        W49709  18.195  31.938  14.863
88047W        W49710  41.455  24.026   3.209
88048W        W49711  21.743  35.946   0.739
88049W        W49712  27.085  28.647   3.310
88050W        W49713  25.047  33.061   0.791
88051W        W49714   0.969  38.930   4.741
88052W        W49715  33.478   4.428  13.352
88053W        W49716  37.003  27.997   1.343
88054W        W49717  19.194  41.536  14.432
88055W        W49718  17.086  39.902   1.385
88056W        W49719  43.948  36.021  11.878
88057W        W49720  15.762  41.845  12.974
88058W        W49721  35.509   6.898   0.905
88059W        W49722  34.582   4.305  10.056
88060W        W49723  21.753   1.804  14.987
88061W        W49724  30.985  43.865  11.519
88062W        W49725  38.418  26.027   4.308
88063W        W49726  41.987  43.313   4.647
88064W        W49727  26.589  22.030   3.240
88065W        W49728  29.093  21.703   2.199
88066W        W49729   9.339  17.599  10.456
88067W        W49730  28.062   1.467   0.841
88068W        W49731  10.196  38.509  13.965
88069W        W49732  33.921  39.530  13.548
88070W        W49733  27.558  30.137   0.950
88071W        W49734  29.027  22.247  14.820
88072W        W49735  40.448  29.129  10.559
88073W        W49736  33.875  44.942   3.299
88074W        W49737  30.129  34.599   2.703
88075W        W49738  26.205  35.570  10.410
88076W        W49739  36.577  10.193  12.870
88077W        W49740  41.405  21.106  14.902
88078W        W49741  13.787  11.713  12.009
88079W        W49742  39.880  10.648  10.642
88080W        W49743  43.279  23.204   2.347
88081W        W49744   9.805  37.541  10.976
88082W        W49745  10.747   7.400  11.027
88083W        W49746  38.336   8.325   3.353
88084W        W49747  10.309  24.584  13.998
88085W        W49748   7.218  40.025  13.505
88086W        W49749  36.998  26.160   0.315
88087W        W49750   8.768  18.249  10.971
88088W        W49751  11.361   9.311  14.503
88089W        W49752  20.116   2.791  12.990
88090W        W49753  34.469  37.483  10.922
88091W        W49754  42.487  16.291   2.807
88092W        W49755  18.735   2.324  12.830
88093W        W49756   0.444  35.911  12.385
88094W        W49757  23.176  43.408   0.897
88095W        W49758  23.633  42.975  13.800
88096W        W49759   1.457  39.390   1.708
88097W        W49760   1.951  39.982   4.741
88098W        W49761   6.682  11.313  11.494
88099W        W49762  14.186  27.016  11.399
88100W        W49763  20.200  25.178   5.219
88101W        W49764  41.384  10.722  13.951
88102W        W49765  14.790   6.861  12.533
88103W        W49766  41.028  26.471  12.564
88104W        W49767  20.265  44.471   4.693
88105W        W49768  33.021  13.625  13.818
88106W        W49769  35.365  30.916  11.540
88107W        W49770   5.375  44.996  11.564
88108W        W49771  25.656  33.430   1.377
88109W        W49772   0.445  28.539  10.616
88110W        W49773  19.751  10.234   1.738
88111W        W49774  35.093  17.150  14.928
88112W        W49775  42.449   3.731   4.743
88113W        W49776  28.620  38.847   3.740
88114W        W49777   3.825  17.675  10.965
88115W        W49778  41.408   2.380  13.866
88116W        W49779  44.326  37.520   5.240
88117W        W49780  13.118  44.973   0.388
88118W        W49781  19.140   9.842   1.933
88119W        W49782  15.679  43.316  12.440
88120W        W49783  10.224  43.777  11.104
88121W        W49784   2.792  35.930  11.014
88122W        W49785  14.789   4.794   4.156
88123W        W49786  42.435  19.147  11.578
88124W        W49787  32.071  26.120   4.834
88125W        W49788  12.248   4.876   1.272
88126W        W49789  39.363   6.331  10.515
88127W        W49790   6.414  31.150  13.927
88128W        W49791  21.707   5.232   4.163
88129W        W49792  26.622   1.916  12.919
88130W        W49793  21.711  37.985   0.463
88131W        W49794  28.100   8.773   2.670
88132W        W49795  25.981  19.217   2.335
88133W        W49796  24.066  18.062   3.347
88134W        W49797  15.624  21.084  12.472
88135W        W49798  44.281  43.843   4.746
88136W        W49799   5.434  14.247   1.797
88137W        W49800  14.681  36.911  12.023
88138W        W49801  14.676  19.682  11.067
88139W        W49802  36.864  22.740   0.429
88140W        W49803   2.951  13.669   1.899
88141W        W49804  42.985  37.832   3.706
88142W        W49805  12.193  19.627  14.948
88143W        W49806  22.610  42.963  13.527
88144W        W49807   0.437  31.526   4.681
88145W        W49808   6.744  25.999   1.223
88146W        W49809  24.138  44.305  11.958
88147W        W49810  29.658   5.238   2.350
88148W        W49811  31.055  12.178  13.310
88149W        W49812  29.429  23.564   5.131
88150W        W49813  12.167  13.286  13.474
88151W        W49814  32.606  25.175  11.123
88152W        W49815  37.018   7.814  14.321
88153W        W49816  24.637  17.121   3.731
88154W        W49817  15.754   4.227   0.815
88155W        W49818  38.908  41.536  13.869
88156W        W49819   4.886  24.085  14.758
88157W        W49820  33.444   4.237   5.202
88158W        W49821  21.066  36.501  12.865
88159W        W49822  22.042  30.925  10.608
88160W        W49823  23.074   1.318   2.230
88161W        W49824   8.384  33.443   1.834
88162W        W49825  35.398  29.628  12.997
88163W        W49826  36.885  13.258  14.021
88164W        W49827  24.170  10.171  13.461
88165W        W49828  21.092  16.270  11.942
88166W        W49829  34.548  30.462  14.891
88167W        W49830  20.744  21.203   2.359
88168W        W49831  24.516  22.088  14.365
88169W        W49832  33.949   3.837  14.842
88170W        W49833  12.319  44.312   2.829
88171W        W49834  27.148   9.243  13.055
88172W        W49835  18.165  24.597   1.260
88173W        W49836  29.971   2.832  11.390
88174W        W49837  14.697  34.872   5.666
88175W        W49838  10.654  22.513  13.505
88176W        W49839   0.404  20.716   1.363
88177W        W49840  23.109   8.290  12.924
88178W        W49841  12.363  27.666  13.791
88179W        W49842  10.207  37.908  11.452
88180W        W49843  11.790  38.350   3.868
88181W        W49844  15.293  26.120  10.908
88182W        W49845  19.740  25.497  10.557
88183W        W49846  36.096  28.976  10.533
88184W        W49847  39.360  44.775   0.913
88185W        W49848  26.085  19.179   3.753
88186W        W49849  22.632  38.368  13.904
88187W        W49850  32.903   4.748  13.022
88188W        W49851  40.872  20.670  10.940
88189W        W49852   6.317  20.098  11.583
88190W        W49853  18.648  10.692   4.348
88191W        W49854  13.230  21.737  10.553
88192W        W49855  31.905  39.465   4.114
88193W        W49856  13.707  28.063  10.452
88194W        W49857  15.244  17.746   9.996
88195W        W49858  17.613   8.368  11.915
88196W        W49859  26.023  19.182  14.448
88197W        W49860  24.051  17.726   3.802
88198W        W49861  21.209  12.707   0.436
88199W        W49862  24.578  29.942   0.942
88200W        W49863  23.569  28.498   1.792
88201W        W49864  30.025   9.854  13.937
88202W        W49865  19.052  43.952  11.557
88203W        W49866  39.996  21.710  14.014
88204W        W49867  36.589  22.711   1.767
88205W        W49868  15.181   6.903  12.495
88206W        W49869   5.214  12.643   3.726
88207W        W49870  14.323  40.398   2.855
88208W        W49871  21.593  24.648   1.281
88209W        W49872   4.226  15.087  11.120
88210W        W49873   8.900  33.434  11.505
88211W        W49874  36.355  40.445   4.609
88212W        W49875  25.043  41.324   2.249
88213W        W49876  38.476  37.038  12.491
88214W        W49877   8.804  32.534   4.211
88215W        W49878  14.127  18.185   2.203
88216W        W49879  10.333  33.432   1.923
88217W        W49880  27.166  29.107  12.510
88218W        W49881  21.684  23.055  14.374
88219W        W49882  18.633  39.360   1.850
88220W        W49883  10.731  13.685   3.815
88221W        W49884  16.210  38.871   4.834
88222W        W49885  35.471   8.298   3.870
88223W        W49886  14.142  14.612  12.037
88224W        W49887  31.431  39.502  10.517
88225W        W49888   7.246  16.743  12.579
88226W        W49889   4.379  30.543   3.160
88227W        W49890  22.098  31.442  11.557
88228W        W49891  26.152   3.253   1.867
88229W        W49892  31.494  11.312  13.312
88230W        W49893   3.249  10.700   1.919
88231W        W49894   1.292   0.900   4.299
88232W        W49895  35.532  40.457  12.961
88233W        W49896  36.510  15.596  10.429
88234W        W49897   9.858   6.349  13.436
88235W        W49898  40.318  32.938  13.540
88236W        W49899  22.642   2.913  14.769
88237W        W49900  28.480   3.763   2.370
88238W        W49901  37.881  43.356   3.633
88239W        W49902   5.762   6.794  11.560
88240W        W49903  32.916  18.613  14.929
88241W        W49904   5.788   1.951  12.978
88242W        W49905  28.568  30.084   1.882
88243W        W49906  28.955  36.035  14.451
88244W        W49907   0.905  12.847  10.024
88245W        W49908  36.029  32.411   1.331
88246W        W49909  43.322   3.352   3.153
88247W        W49910  18.623  13.125   4.659
88248W        W49911   2.790  18.598   2.848
88249W        W49912  14.714   7.389  11.454
88250W        W49913  19.039  24.138   4.834
88251W        W49914   1.318  10.311   4.272
88252W        W49915  37.859  16.653  12.035
88253W        W49916  10.283  19.577  11.956
88254W        W49917  29.661  18.276  13.468
88255W        W49918  15.214  32.961  13.392
88256W        W49919   1.473  31.633  11.468
88257W        W49920   4.243  21.561   2.748
88258W        W49921  26.574  37.532  13.434
88259W        W49922   9.881  27.146  12.570
88260W        W49923  23.991  21.155  11.875
88261W        W49924  31.134   4.315   0.427
88262W        W49925  10.139  18.128   1.228
88263W        W49926  17.123  43.514   4.823
88264W        W49927  29.582   7.692   1.750
88265W        W49928   3.429  27.458   3.818
88266W        W49929  20.633  30.529   3.633
88267W        W49930  35.003   2.792  12.398
88268W        W49931  24.670  44.902   1.933
88269W        W49932  20.611  15.215   9.986
88270W        W49933  40.844   5.736   0.883
88271W        W49934   4.846  44.483  14.398
88272W        W49935  24.166  16.658   3.823
88273W        W49936   2.961   9.810   4.625
88274W        W49937   9.820  18.221   4.715
88275W        W49938  14.193   6.738  14.381
88276W        W49939  36.472   6.234  11.476
88277W        W49940   3.810  34.902   3.837
88278W        W49941  15.667  23.042  11.072
88279W        W49942  22.674  15.131  14.988
88280W        W49943  14.629  18.657   1.743
88281W        W49944  36.526  24.181  12.535
88282W        W49945   9.325  27.656   0.951
88283W        W49946  44.263   1.779  11.060
88284W        W49947  10.311   9.816   2.713
88285W        W49948  32.913  36.371  10.512
88286W        W49949  19.225  44.846   0.471
88287W        W49950   5.887  10.841   0.872
88288W        W49951  26.478  36.360  13.489
88289W        W49952  37.062   4.761  13.005
88290W        W49953  23.152  17.073  10.017
88291W        W49954  40.418  13.738  13.898
88292W        W49955  31.054   2.789  12.526
88293W        W49956  39.406  26.128  11.545
88294W        W49957  14.187  36.373   1.224
88295W        W49958  19.729  10.169   4.814
88296W        W49959  36.870   2.967   0.270
88297W        W49960  33.546  23.560  13.431
88298W        W49961   0.324  33.974  11.054
88299W        W49962  13.154   5.818  11.532
88300W        W49963  43.374  44.336  12.407
88301W        W49964  20.581  31.443  14.930
88302W        W49965  10.227   3.248   3.180
88303W        W49966  14.154   9.296  14.778
88304W        W49967  23.598  14.613   3.245
88305W        W49968   4.215  32.557   0.323
88306W        W49969  20.583  33.612  13.469
88307W        W49970   3.866  12.796  13.534
88308W        W49971  43.808   5.416  14.516
88309W        W49972  43.423   2.440   2.332
88310W        W49973  29.544  17.644   1.755
88311W        W49974  18.241  16.211  14.344
88312W        W49975  43.016  18.597   4.637
88313W        W49976  14.143  33.593   3.379
88314W        W49977  44.455  36.073   0.929
88315W        W49978  13.113   1.928   4.778
88316W        W49979  13.324   4.889  11.040
88317W        W49980  16.318  33.495  14.466
88318W        W49981  44.272  21.660   1.389
88319W        W49982  33.529  33.986   9.940
88320W        W49983  22.034   3.403   2.288
88321W        W49984  20.120  34.451  12.476
88322W        W49985   0.454  29.020  11.430
88323W        W49986  41.037  26.522   4.120
88324W        W49987  17.261   7.760   4.202
88325W        W49988  17.134  31.055  11.941
88326W        W49989  13.266  35.571   0.325
88327W        W49990  37.488   7.377  12.076
88328W        W49991   3.447  13.319   4.149
88329W        W49992   4.826  23.657  13.364
88330W        W49993   9.887  24.669   1.440
88331W        W49994  18.652  14.722   3.167
88332W        W49995  11.212  27.055   4.161
88333W        W49996  35.439  16.269   2.346
88334W        W49997  18.720  44.276   4.782
88335W        W49998  44.495  27.145   3.366
88336W        W49999  34.966  23.673  14.950
88337W        W50000  18.567  41.923  12.016
88338W        W50001   2.351  22.733   0.826
88339W        W50002  35.422   9.312   2.330
88340W        W50003  30.917   9.856  13.955
88341W        W50004  16.708  17.123   0.816
88342W        W50005  32.019  39.327  13.921
88343W        W50006  29.134  28.479   3.230
88344W        W50007  13.675  42.821   3.233
88345W        W50008  42.010  19.158  13.384
88346W        W50009   0.252  40.362   3.184
88347W        W50010   3.729  41.008   3.381
88348W        W50011  22.087   7.722  13.488
88349W        W50012  33.904   7.239  11.984
88350W        W50013  44.379  39.550  12.443
88351W        W50014  34.499   1.309  14.302
88352W        W50015  39.002  24.648  12.520
88353W        W50016   4.703   0.348   4.343
88354W        W50017  40.917  15.260   2.294
88355W        W50018  42.367  19.237  14.014
88356W        W50019  16.184  32.497  12.569
88357W        W50020   1.474  29.663  12.500
88358W        W50021  28.044  39.927  10.149
88359W        W50022  20.537  18.728   1.744
88360W        W50023  29.527  26.178   1.835
88361W        W50024   4.222   5.918   2.696
88362W        W50025   6.814  33.430  12.893
88363W        W50026   8.685  37.970  13.025
88364W        W50027  15.252  27.142  13.839
88365W        W50028  15.191  16.122   4.633
88366W        W50029  32.891  34.113  10.643
88367W        W50030  16.085  16.731  10.562
88368W        W50031  42.320  39.502  13.978
88369W        W50032   2.815  16.572   2.822
88370W        W50033  15.665  41.361   3.261
88371W        W50034   9.695   0.834  13.410
88372W        W50035  34.473   5.357  13.040
88373W        W50036  31.483  12.179  12.060
88374W        W50037   3.317  39.021   0.831
88375W        W50038  25.623   1.759  10.529
88376W        W50039   9.889  44.932   3.340
88377W        W50040  34.449   5.787   0.953
88378W        W50041  22.228  32.623  13.875
88379W        W50042  32.078  13.186   3.279
88380W        W50043  27.639   6.323   1.341
88381W        W50044  30.040  30.071   0.316
88382W        W50045  41.889   3.944   2.388
88383W        W50046  10.369   9.151  12.995
88384W        W50047  41.387  16.648  10.482
88385W        W50048  32.464  23.143   5.781
88386W        W50049  29.527  18.691   1.753
88387W        W50050  22.642  21.148   2.193
88388W        W50051  20.163   0.985  10.501
88389W        W50052  32.513  23.734  13.388
88390W        W50053  19.766  21.066  10.489
88391W        W50054  12.349  39.964   2.681
88392W        W50055  26.666   8.760   9.931
88393W        W50056  41.819  10.283  13.318
88394W        W50057  19.739  30.983  13.995
88395W        W50058  40.537  44.862   2.706
88396W        W50059   0.355  38.896  12.545
88397W        W50060  30.529  23.023   0.878
88398W        W50061  39.040   8.264  10.981
88399W        W50062  26.462  13.249   0.869
88400W        W50063  16.664  43.302   3.724
88401W        W50064  14.652   2.774  12.096
88402W        W50065  13.239   1.948  13.367
88403W        W50066  16.074  10.645  12.873
88404W        W50067  42.938  23.697  12.922
88405W        W50068  25.636   2.386   4.683
88406W        W50069  39.961  35.458   2.211
88407W        W50070  19.203  23.998  13.527
88408W        W50071  37.368  33.055  14.968
88409W        W50072  24.719   6.220   1.905
88410W        W50073  17.236  20.101   0.315
88411W        W50074   0.852  20.236  14.783
88412W        W50075  29.942  31.926  13.916
88413W        W50076  12.212   1.950   0.891
88414W        W50077   1.350   9.786  13.893
88415W        W50078  22.515  34.946  13.923
88416W        W50079  35.513  37.044  12.464
88417W        W50080  12.785  15.702  13.478
88418W        W50081  29.438  32.024  12.874
88419W        W50082  22.642  39.033  12.835
88420W        W50083  24.974  15.791   1.255
88421W        W50084  15.192  32.587  14.474
88422W        W50085  41.846  28.500  14.785
88423W        W50086  23.078  25.962  13.468
88424W        W50087  20.537  41.528  12.999
88425W        W50088   7.236   5.397  13.024
88426W        W50089  33.030  36.076   1.329
88427W        W50090  13.244  13.207  11.563
88428W        W50091  22.034  28.186  11.524
88429W        W50092  40.829  13.285   2.202
88430W        W50093  14.220  29.032   2.376
88431W        W50094  22.647  14.675  14.803
88432W        W50095  27.582  42.479  11.059
88433W        W50096  23.635  35.992   1.406
88434W        W50097  43.013  25.115  14.814
88435W        W50098  14.593  16.244   4.632
88436W        W50099  44.864  38.500  13.035
88437W        W50100  26.475  29.508  10.493
88438W        W50101  32.479   5.374   1.845
88439W        W50102  43.372   4.204  11.907
88440W        W50103  18.660  20.155   4.252
88441W        W50104  12.207  34.110  12.531
88442W        W50105  34.379  32.922  12.048
88443W        W50106   8.296   2.235   1.891
88444W        W50107  22.029  41.854   0.968
88445W        W50108  11.302  39.541  14.898
88446W        W50109  42.972  15.628   5.732
88447W        W50110  33.929  43.999  11.903
88448W        W50111  18.657  40.487   3.652
88449W        W50112  27.635  29.003   2.764
88450W        W50113  26.468  42.997  12.993
88451W        W50114  16.756  12.199   4.837
88452W        W50115  18.152  41.383  13.326
88453W        W50116  13.330  16.283  14.908
88454W        W50117   3.772  40.037  11.598
88455W        W50118  30.100  31.401  12.997
88456W        W50119  41.350  10.655   1.359
88457W        W50120  19.052  19.112   3.794
88458W        W50121  11.764  17.657   3.183
88459W        W50122  44.003  41.490   2.403
88460W        W50123  23.079   5.273   0.430
88461W        W50124   8.676  10.801  14.761
88462W        W50125   0.376   7.894   0.261
88463W        W50126  14.314   0.972  12.882
88464W        W50127   9.193  24.169  13.863
88465W        W50128   7.773  39.989  10.977
88466W        W50129  37.891  23.228  10.950
88467W        W50130  27.940  22.690   0.265
88468W        W50131  24.543  44.917   2.197
88469W        W50132  28.945  23.173   1.451
88470W        W50133  44.923  28.474   1.340
88471W        W50134  15.111  37.524  11.588
88472W        W50135  33.923  13.836  13.935
88473W        W50136  26.956  17.785   0.413
88474W        W50137  16.767  41.382  12.386
88475W        W50138  30.075  16.180  14.938
88476W        W50139  20.768  36.458   0.776
88477W        W50140   1.755   3.755  14.335
88478W        W50141  41.002  40.543  12.865
88479W        W50142  17.644  38.974   0.263
88480W        W50143  36.883   2.965   4.740
88481W        W50144   0.271  12.834   2.705
88482W        W50145  28.516  29.104   1.904
88483W        W50146  21.141   2.860  14.988
88484W        W50147  26.602  16.626   4.197
88485W        W50148   8.233  37.340  11.482
88486W        W50149   1.312   3.806  12.496
88487W        W50150  15.128  41.485  14.304
88488W        W50151  13.727  25.986   4.784
88489W        W50152   2.866  44.434   3.860
88490W        W50153   3.813  38.902  11.411
88491W        W50154  19.210  20.576   3.755
88492W        W50155  14.269   2.253   4.153
88493W        W50156  32.595  37.412   4.687
88494W        W50157  26.685  25.170  11.495
88495W        W50158   2.894  35.000  11.397
88496W        W50159  28.594  28.625  14.404
88497W        W50160  13.616  11.822  14.459
88498W        W50161   6.778  39.952   1.727
88499W        W50162   9.185  44.381   4.633
88500W        W50163  34.548   6.704   2.705
88501W        W50164  31.899   0.828   3.701
88502W        W50165  22.185  38.986  11.877
88503W        W50166   1.259   9.721   2.825
88504W        W50167  28.185  43.837   4.629
88505W        W50168  13.107   4.282  11.433
88506W        W50169  18.669  31.927   5.131
88507W        W50170  17.650  11.274   2.259
88508W        W50171   8.313  16.267  14.408
88509W        W50172  21.600  41.010  14.974
88510W        W50173  34.600  23.597  12.528
88511W        W50174  20.170   6.423  10.461
88512W        W50175  28.573  44.799  11.609
88513W        W50176  14.250  37.982  10.568
88514W        W50177  14.094   7.874  14.925
88515W        W50178  23.090  40.007   0.805
88516W        W50179   8.347  39.808  12.891
88517W        W50180  21.068  10.827   0.429
88518W        W50181  26.997  15.204   4.283
88519W        W50182  26.621   2.767  13.481
88520W        W50183  41.335  17.759   2.364
88521W        W50184  35.067  19.154   1.381
88522W        W50185  21.540  25.038   3.759
88523W        W50186  19.237  29.592  14.759
88524W        W50187  17.174  38.428   0.943
88525W        W50188  16.083  26.156  12.485
88526W        W50189  15.098   5.832   2.326
88527W        W50190  42.456   6.284   1.326
88528W        W50191  32.014  40.480  13.914
88529W        W50192  37.028  30.628   2.232
88530W        W50193  20.526   0.832   5.136
88531W        W50194  32.054  24.053   3.848
88532W        W50195  21.728  39.446  12.835
88533W        W50196  34.441  30.994  13.309
88534W        W50197  12.634  30.464   2.751
88535W        W50198  33.538   5.774   3.288
88536W        W50199  27.016  23.218   4.826
88537W        W50200   6.800  32.980  12.356
88538W        W50201  35.040  42.819   0.256
88539W        W50202  23.049  11.685  10.947
88540W        W50203   3.861   1.906  13.946
88541W        W50204  17.165  38.040   2.791
88542W        W50205  14.668  19.244  11.023
88543W        W50206  18.673  14.783  13.369
88544W        W50207  37.898   6.776   0.958
88545W        W50208   8.682  28.652   2.695
88546W        W50209  13.662  17.220  14.871
88547W        W50210  34.972   7.328   1.361
88548W        W50211  20.100  15.141   2.285
88549W        W50212   5.273  27.005  12.504
88550W        W50213  19.282  34.483   2.193
88551W        W50214  23.077  34.064   4.223
88552W        W50215  30.573   0.387   0.322
88553W        W50216  25.477  44.263  13.473
88554W        W50217  37.491  23.504  11.489
88555W        W50218   4.373  35.395  13.034
88556W        W50219  17.781  28.517  12.572
88557W        W50220  39.400  28.446   2.344
88558W        W50221  34.494  32.967  12.908
88559W        W50222  42.284  11.232   3.291
88560W        W50223  12.687  24.118  11.985
88561W        W50224  29.054  12.651   1.316
88562W        W50225  24.113   8.387  11.879
88563W        W50226  25.469  21.534   1.917
88564W        W50227  43.404   4.894   2.402
88565W        W50228  11.155  14.286   0.946
88566W        W50229   3.819  14.296  13.405
88567W        W50230  17.632  39.984   1.838
88568W        W50231   4.396  44.885   2.237
88569W        W50232  24.124  32.607   4.299
88570W        W50233   7.297  40.358   2.241
88571W        W50234  35.491   2.293   0.350
88572W        W50235  34.039  30.486  12.877
88573W        W50236   1.762  42.465  13.402
88574W        W50237  27.970   5.334  13.413
88575W        W50238   2.414  37.399   5.086
88576W        W50239  20.632  42.324   0.792
88577W        W50240  11.811   6.704   1.304
88578W        W50241  12.731  26.187  14.439
88579W        W50242   8.780   3.327   1.444
88580W        W50243   0.745  22.157  13.344
88581W        W50244  14.605  14.120   9.933
88582W        W50245   6.268  17.674   4.274
88583W        W50246   9.760  23.089  11.404
88584W        W50247   0.978  33.386  12.991
88585W        W50248  20.689  10.758   0.405
88586W        W50249  37.872  10.280   1.875
88587W        W50250  28.045   6.757  13.460
88588W        W50251  23.089  40.034   3.383
88589W        W50252  11.628  42.828  11.601
88590W        W50253  21.669  28.986  13.041
88591W        W50254  20.752  11.340  10.509
88592W        W50255   6.851   7.346   3.314
88593W        W50256  21.118  33.066  13.854
88594W        W50257  27.491  31.434  13.803
88595W        W50258  30.416  40.033   2.185
88596W        W50259   8.693  21.170   0.951
88597W        W50260  40.907   3.229  10.508
88598W        W50261  28.103  21.607   1.792
88599W        W50262   4.730  32.586   0.777
88600W        W50263   8.350  16.757  11.491
88601W        W50264  13.123  12.218   4.170
88602W        W50265  18.734  28.956  13.934
88603W        W50266   4.328  23.225   3.179
88604W        W50267  18.709  31.405  11.875
88605W        W50268  41.043   1.782   0.793
88606W        W50269  33.937  39.847   2.399
88607W        W50270  37.444  21.126  11.111
88608W        W50271  30.476  29.625  10.545
88609W        W50272   3.353  11.316  10.465
88610W        W50273  12.269  35.883  14.759
88611W        W50274   7.686  14.245  11.576
88612W        W50275  19.068  43.514  11.891
88613W        W50276  10.870  30.581   0.443
88614W        W50277  18.556  15.636   2.678
88615W        W50278  37.494  44.759   2.203
88616W        W50279  20.585  12.776  11.044
88617W        W50280  36.048  38.851  12.388
88618W        W50281  37.018  15.814  12.386
88619W        W50282  20.124  40.322   1.410
88620W        W50283  42.793  21.031  11.067
88621W        W50284   5.205  11.787  13.474
88622W        W50285  30.978  33.971   3.330
88623W        W50286  16.259  11.368   4.665
88624W        W50287  11.207  34.568   2.782
88625W        W50288  15.761  35.916   3.152
88626W        W50289  39.416   8.657  10.946
88627W        W50290  44.844   7.873   1.820
88628W        W50291  29.967  20.207   1.394
88629W        W50292  23.673  38.392   0.820
88630W        W50293   9.812   4.918   1.409
88631W        W50294  17.095  42.399  10.560
88632W        W50295   4.837  20.105   0.877
88633W        W50296  41.904   2.830   0.757
88634W        W50297  10.174  27.154  11.602
88635W        W50298  33.042  37.464  11.426
88636W        W50299   3.756  33.076  13.474
88637W        W50300  36.872  24.023   0.956
88638W        W50301  17.662   5.798   2.856
88639W        W50302  32.632   7.318  14.317
88640W        W50303  26.069  21.051   2.853
88641W        W50304  31.547  26.143   4.272
88642W        W50305  18.219  36.437   2.676
88643W        W50306  29.617  11.841  13.916
88644W        W50307  16.611  21.628  13.360
88645W        W50308   9.318  20.528  13.819
88646W        W50309  14.724  37.872  13.953
88647W        W50310   7.363  34.051  12.844
88648W        W50311  24.057  35.471   3.286
88649W        W50312   4.449  44.319  13.899
88650W        W50313  36.550  19.206  11.999
88651W        W50314  37.576  44.411  11.916
88652W        W50315  31.048  41.479  14.788
88653W        W50316  43.802  42.864   3.659
88654W        W50317  27.656   1.408  12.057
88655W        W50318  22.154   8.163   4.324
88656W        W50319  31.557  22.581  13.431
88657W        W50320  38.360   8.245   1.893
88658W        W50321   2.282  36.885   2.194
88659W        W50322  22.138  25.198   4.340
88660W        W50323   1.740  32.580  12.539
88661W        W50324  12.839  24.225  10.635
88662W        W50325   9.268  29.088   3.776
88663W        W50326  34.610  43.020   2.239
88664W        W50327  35.374  29.609   1.914
88665W        W50328  32.994  38.887   4.719
88666W        W50329   1.957   1.294   3.697
88667W        W50330  19.271  21.155   3.689
88668W        W50331   6.238  12.276   0.798
88669W        W50332  35.597  19.711   2.184
88670W        W50333  15.673  31.999  12.527
88671W        W50334  37.925  42.377  13.869
88672W        W50335   4.366  32.441  11.416
88673W        W50336  31.131  17.098  12.929
88674W        W50337  37.850   9.309   1.304
88675W        W50338  10.776  38.375  12.395
88676W        W50339   6.747  25.584   3.748
88677W        W50340   0.289  13.657  11.526
88678W        W50341  20.665  35.925  11.376
88679W        W50342  19.224  23.684   3.648
88680W        W50343  29.000   8.883   1.916
88681W        W50344  10.293   0.867   1.413
88682W        W50345  32.565   0.256   1.931
88683W        W50346   5.717  31.953  12.379
88684W        W50347  25.077  44.952  13.340
88685W        W50348  32.629   8.376   3.348
88686W        W50349  16.602  22.561  11.885
88687W        W50350   2.295   2.744  11.535
88688W        W50351  17.271  35.865   0.864
88689W        W50352  36.873  21.130   0.749
88690W        W50353   4.701  16.104   0.449
88691W        W50354  38.065  18.637   0.739
88692W        W50355  12.244  40.429  14.490
88693W        W50356  28.621  10.311  14.433
88694W        W50357  16.234  27.989   2.887
88695W        W50358  20.664  32.022  14.276
88696W        W50359  43.810  44.952  11.904
88697W        W50360  38.346  14.602   2.813
88698W        W50361  34.928   6.877  11.113
88699W        W50362  17.141   2.748   3.842
88700W        W50363   6.810  25.017   0.801
88701W        W50364  33.500  15.818  12.946
88702W        W50365  15.646  14.737   3.247
88703W        W50366   8.756   9.343   4.625
88704W        W50367  43.010  43.964  14.484
88705W        W50368   3.247   0.953  12.414
88706W        W50369  15.820  16.601  10.498
88707W        W50370   6.264  11.220  12.010
88708W        W50371   0.824  15.756  13.511
88709W        W50372   2.808  38.962   3.657
88710W        W50373  42.814  31.503  11.075
88711W        W50374  32.447  11.630  12.887
88712W        W50375   5.899   7.178  12.448
88713W        W50376  12.646   4.721  14.447
88714W        W50377  16.608  32.539   4.319
88715W        W50378  12.188  38.823  14.454
88716W        W50379  41.790  17.145   3.173
88717W        W50380  29.493  43.779  11.063
88718W        W50381  10.249  30.447  14.476
88719W        W50382  23.599  25.495  11.557
88720W        W50383  17.178  23.103  10.106
88721W        W50384   3.258  32.103  10.961
88722W        W50385   6.883  43.381  11.402
88723W        W50386  13.268  44.936   2.673
88724W        W50387  17.080   6.893   0.803
88725W        W50388  27.516  39.427  12.957
88726W        W50389  35.935  41.971  13.805
88727W        W50390  32.536  27.523   0.474
88728W        W50391  40.409  10.708  10.914
88729W        W50392  13.701  33.450   4.744
88730W        W50393  33.966  30.917   2.759
88731W        W50394  16.741  24.085   0.448
88732W        W50395  32.045   2.384   3.347
88733W        W50396  36.922  32.524   3.825
88734W        W50397  21.717  25.181   1.300
88735W        W50398  35.960  12.857   2.699
88736W        W50399  28.034   7.365  10.916
88737W        W50400  22.011  35.899  12.558
88738W        W50401  11.745   1.735   9.968
88739W        W50402   9.265  39.430   3.816
88740W        W50403  31.572   6.206   0.734
88741W        W50404  25.661  37.525   3.176
88742W        W50405  26.576  42.028  14.300
88743W        W50406  39.467   6.700  12.867
88744W        W50407   3.307  29.490  14.447
88745W        W50408  21.107  36.409   2.252
88746W        W50409  44.431  33.979  12.504
88747W        W50410  37.382  41.389   0.901
88748W        W50411   0.269   6.413  13.545
88749W        W50412  12.780  33.002  14.406
88750W        W50413   3.884  34.441  14.441
88751W        W50414  25.178  17.306  10.486
88752W        W50415  31.047  37.856  12.048
88753W        W50416   4.345  34.910   3.225
88754W        W50417  39.325  18.243   3.315
88755W        W50418  17.226  32.424   4.128
88756W        W50419  26.619  13.702   3.750
88757W        W50420  34.564  39.992   0.844
88758W        W50421   1.856  30.998   2.895
88759W        W50422  14.324  44.912  12.027
88760W        W50423  12.178  40.331   1.909
88761W        W50424  10.713   2.243  14.295
88762W        W50425  20.039  12.834   2.224
88763W        W50426  35.540  17.111   0.759
88764W        W50427  39.950  21.209   3.151
88765W        W50428   4.756   2.753  12.517
88766W        W50429  34.902   5.933   5.614
88767W        W50430  21.751  41.509   4.756
88768W        W50431  28.672  14.711  12.866
88769W        W50432  10.352   3.375  14.986
88770W        W50433  12.729  40.334   0.772
88771W        W50434  19.137  30.910  10.559
88772W        W50435  14.321  32.545  11.513
88773W        W50436  33.528   3.322   5.123
88774W        W50437  28.645  38.855  11.548
88775W        W50438  34.421  17.201  12.369
88776W        W50439  39.528  19.593  14.311
88777W        W50440  38.355  31.424   3.639
88778W        W50441  25.112  40.508   0.814
88779W        W50442  16.811   0.299  11.045
88780W        W50443   9.762   3.939   0.438
88781W        W50444  32.521  33.552   2.896
88782W        W50445  27.011   3.882  13.310
88783W        W50446  44.809   2.895   1.436
88784W        W50447  12.779  27.447   0.814
88785W        W50448  35.058   9.294  13.546
88786W        W50449  33.016  18.778  11.124
88787W        W50450  25.530  16.291  12.831
88788W        W50451  11.212  35.935  11.496
88789W        W50452  26.032  17.212   3.759
88790W        W50453  41.840  17.743  14.891
88791W        W50454  43.946  12.689   1.707
88792W        W50455  15.790  39.025  14.942
88793W        W50456  36.481   4.777   3.267
88794W        W50457  23.546  13.819   0.925
88795W        W50458  21.051  44.846   1.227
88796W        W50459  29.495  18.248  14.998
88797W        W50460  25.627  36.978  13.910
88798W        W50461  33.584  24.497  10.505
88799W        W50462  28.600  40.931   0.345
88800W        W50463  24.503  13.181  11.084
88801W        W50464   5.929  22.632  10.945
88802W        W50465  30.520   5.408   0.352
88803W        W50466   5.319  21.731  11.971
88804W        W50467  19.754  30.482   2.839
88805W        W50468  18.678  19.626  12.924
88806W        W50469   5.219   3.851   3.831
88807W        W50470  33.601   4.277  11.516
88808W        W50471  15.184   2.896   2.333
88809W        W50472  26.502   7.850   0.910
88810W        W50473   5.693  11.206   3.347
88811W        W50474  40.015  33.509  14.828
88812W        W50475   1.300  39.983   3.210
88813W        W50476  37.454   3.322  12.967
88814W        W50477   1.973  29.119  10.571
88815W        W50478  40.546  14.618  12.498
88816W        W50479   3.415   0.294   3.258
88817W        W50480  32.003   4.789   4.643
88818W        W50481  14.780  24.564   4.689
88819W        W50482   5.427  39.980   2.277
88820W        W50483  34.926   4.834   3.703
88821W        W50484  20.650  34.088  14.822
88822W        W50485   3.236  12.360  10.938
88823W        W50486  25.163  16.710   2.388
88824W        W50487  11.191   1.367   4.181
88825W        W50488  44.918  21.109  11.560
88826W        W50489   7.246  20.568  13.548
88827W        W50490   4.875  38.947   4.249
88828W        W50491  18.243   6.283   4.825
88829W        W50492  36.517   4.702  12.004
88830W        W50493   0.285  43.767   4.823
88831W        W50494  14.251  15.133  12.408
88832W        W50495  39.519  41.823   2.416
88833W        W50496  41.016  24.012   4.261
88834W        W50497   1.796  40.914  14.392
88835W        W50498  23.543  38.403   0.409
88836W        W50499   4.332   5.320   4.263
88837W        W50500  35.985  26.173   0.321
88838W        W50501  34.446   0.768  13.041
88839W        W50502  18.278  25.983  11.611
88840W        W50503  27.107  19.688  14.383
88841W        W50504   0.942  22.657   3.219
88842W        W50505  39.976  25.074  13.372
88843W        W50506  28.596  34.978  11.458
88844W        W50507  14.232  13.615  13.960
88845W        W50508  26.015  40.348  13.935
88846W        W50509   6.877  11.154   2.747
88847W        W50510  19.116   4.720  12.039
88848W        W50511  25.697  16.578  10.982
88849W        W50512   8.842  25.696   3.157
88850W        W50513  16.197  11.334  10.992
88851W        W50514  27.100  10.367   1.390
88852W        W50515  36.365   2.293   1.306
88853W        W50516   3.451  32.127  14.387
88854W        W50517  25.142   3.872   3.854
88855W        W50518  20.538   3.760  10.566
88856W        W50519   6.804   0.956   1.236
88857W        W50520  20.159  17.706  11.444
88858W        W50521  38.028  36.987   4.611
88859W        W50522   8.869  21.098   1.407
88860W        W50523  14.306  23.235  10.419
88861W        W50524  13.645  24.519   2.391
88862W        W50525  36.485  37.390  10.549
88863W        W50526  15.700  39.362   4.310
88864W        W50527  34.598  18.568   4.672
88865W        W50528  18.778  13.772  14.496
88866W        W50529   2.378  16.077  10.931
88867W        W50530  32.070  43.955   3.817
88868W        W50531  34.038  14.136  14.860
88869W        W50532  31.069  33.488  12.969
88870W        W50533  26.693  27.154   2.719
88871W        W50534  14.162  26.589   4.249
88872W        W50535  14.770  36.428   3.816
88873W        W50536   3.363  42.808  12.083
88874W        W50537   1.968   1.378   0.844
88875W        W50538  24.479  18.122   0.901
88876W        W50539  12.856  35.021  13.951
88877W        W50540  12.694  30.615  13.482
88878W        W50541  34.598  18.265   2.332
88879W        W50542  26.589  37.417  12.901
88880W        W50543  41.882  10.350  11.950
88881W        W50544  30.486  11.236  12.565
88882W        W50545  21.026  26.598   0.283
88883W        W50546  37.935  10.352  13.450
88884W        W50547  25.042   9.163   0.276
88885W        W50548  28.658  29.448   4.155
88886W        W50549  28.065  41.865   1.825
88887W        W50550  23.722  35.082  11.410
88888W        W50551  35.358   1.344  11.954
88889W        W50552   4.828  36.088  12.978
88890W        W50553   0.744  42.845  10.974
88891W        W50554  26.507  11.369   3.310
88892W        W50555  31.450   0.762  11.532
88893W        W50556  27.620  37.961   1.708
88894W        W50557  15.317  13.121   1.719
88895W        W50558  41.793  21.586   2.668
88896W        W50559  43.295  11.162  11.957
88897W        W50560  33.125  25.090  12.351
88898W        W50561  21.551  43.793  14.425
88899W        W50562  20.707  42.363   3.149
88900W        W50563  25.193  28.063   0.456
88901W        W50564  14.279   2.299  12.478
88902W        W50565  11.335  31.126  12.425
88903W        W50566  32.469  39.919  10.531
88904W        W50567  22.546  36.034   4.670
88905W        W50568  32.924  27.581   4.219
88906W        W50569   8.784  35.936   1.355
88907W        W50570   5.211  42.289   4.701
88908W        W50571  11.196  32.925   1.357
88909W        W50572  40.900   3.345   0.904
88910W        W50573  16.076   1.369  13.311
88911W        W50574  23.174  19.709   3.713
88912W        W50575  34.022  35.482  12.867
88913W        W50576  10.855  17.640   1.327
88914W        W50577  15.710  41.969   2.388
88915W        W50578  32.408  23.573   1.877
88916W        W50579  21.536  43.397   1.392
88917W        W50580  26.568  13.158  13.014
88918W        W50581   2.446  25.130   5.249
88919W        W50582  19.109  26.970  11.117
88920W        W50583  30.084   9.782   1.397
88921W        W50584  34.045  35.447   3.721
88922W        W50585   5.318  41.008  12.978
88923W        W50586  31.450   2.836   3.809
88924W        W50587  10.694  17.254  11.892
88925W        W50588   6.418  14.779  12.552
88926W        W50589   0.755  37.387   2.896
88927W        W50590  36.365  37.516  14.425
88928W        W50591  18.568   9.243  12.509
88929W        W50592  27.654   8.768   5.248
88930W        W50593  42.989   6.874   3.234
88931W        W50594   8.229  38.930   1.423
88932W        W50595  11.828  15.308   4.675
88933W        W50596   0.773  13.170  10.919
88934W        W50597  35.585   4.443  13.314
88935W        W50598   6.401  32.614  11.112
88936W        W50599  32.139  20.099  13.016
88937W        W50600   9.394  35.066   3.355
88938W        W50601  31.123  29.498   0.897
88939W        W50602  44.987  40.961  13.877
88940W        W50603  41.807  44.829   0.361
88941W        W50604  42.486   8.337  13.428
88942W        W50605  39.489  15.209   0.819
88943W        W50606  15.714  34.559   4.277
88944W        W50607  25.162   6.792  11.508
88945W        W50608  13.251  19.579  11.506
88946W        W50609  12.258   5.907  14.368
88947W        W50610  12.682   0.459  13.945
88948W        W50611  15.097  37.505   9.565
88949W        W50612  43.764  27.598  13.507
88950W        W50613  35.421   5.242  13.900
88951W        W50614  24.015  43.918  13.822
88952W        W50615  33.529  12.658  11.873
88953W        W50616  13.189  41.841   3.735
88954W        W50617  17.791   0.897  12.949
88955W        W50618  19.108  22.233   2.673
88956W        W50619  37.021  36.488   0.327
88957W        W50620  39.933  36.032   0.820
88958W        W50621  23.047  24.545   1.344
88959W        W50622  44.337  19.091   0.886
88960W        W50623  24.181  39.320  13.372
88961W        W50624  39.346  41.907  14.288
88962W        W50625  29.627  11.740  10.435
88963W        W50626  15.682  41.879  13.390
88964W        W50627  30.470  43.315  10.487
88965W        W50628  41.907  13.185   3.855
88966W        W50629  15.281  21.675  10.445
88967W        W50630  37.069  39.401  11.588
88968W        W50631  13.753  21.245   1.801
88969W        W50632   4.726  26.173  14.422
88970W        W50633  25.006  30.650   3.246
88971W        W50634  13.608   5.907   3.631
88972W        W50635  43.942  30.994   4.726
88973W        W50636  19.725  34.501   2.674
88974W        W50637  14.822   9.179   3.630
88975W        W50638   4.711  41.837  10.887
88976W        W50639  39.810  20.695  14.801
88977W        W50640  10.753   8.796  13.847
88978W        W50641  21.182   4.428  14.429
88979W        W50642  11.197  36.408   1.897
88980W        W50643  14.101  19.057   0.424
88981W        W50644  21.672  19.278   0.480
88982W        W50645  29.535  21.215   2.831
88983W        W50646  25.713  12.643  10.049
88984W        W50647  42.521  26.195   2.263
88985W        W50648  43.408  36.057   4.337
88986W        W50649   4.374  33.022   2.804
88987W        W50650  14.101   4.864  14.358
88988W        W50651  36.904  35.015   0.461
88989W        W50652  27.666   6.743  11.915
88990W        W50653  12.856  24.087   1.853
88991W        W50654   1.865  28.557  12.570
88992W        W50655  31.589  18.233  13.536
88993W        W50656   5.348   6.203  13.989
88994W        W50657  32.127  17.258   2.377
88995W        W50658  32.608  30.469   4.730
88996W        W50659  30.504  38.964   0.393
88997W        W50660   3.897   8.658   3.354
88998W        W50661  35.057  44.840  13.055
88999W        W50662  14.295  34.543   2.670
89000W        W50663  36.475  33.035   3.834
89001W        W50664  13.657  21.627   4.673
89002W        W50665   5.872  33.007  14.854
89003W        W50666  43.784   6.756   2.852
89004W        W50667  19.193  25.668   2.731
89005W        W50668   3.818   0.480  11.081
89006W        W50669  27.038  33.113  14.340
89007W        W50670   9.684  20.672   1.328
89008W        W50671  17.567  36.459  10.159
89009W        W50672  23.562  32.060  13.992
89010W        W50673  36.592  30.640  12.083
89011W        W50674  10.778   5.252  10.958
89012W        W50675  27.577   1.428   3.230
89013W        W50676  41.873  43.836  12.990
89014W        W50677  39.817  18.224   0.463
89015W        W50678   8.318  25.649  11.568
89016W        W50679  16.743  21.043   0.894
89017W        W50680  18.623   0.293   4.142
89018W        W50681  33.486   9.742  11.936
89019W        W50682  13.836  37.039   3.866
89020W        W50683  31.531  18.205  13.904
89021W        W50684   3.772  30.478  13.962
89022W        W50685  31.989   3.852   1.934
89023W        W50686  44.371  26.651  11.598
89024W        W50687  27.556  30.076   2.889
89025W        W50688  35.524   6.390   3.714
89026W        W50689  39.066  41.978   0.293
89027W        W50690  42.326  32.460  11.031
89028W        W50691  39.890  41.424  14.990
89029W        W50692  42.522  40.491  14.784
89030W        W50693  44.933  32.592   2.354
89031W        W50694   4.242  22.101   1.816
89032W        W50695  40.361  12.838   5.315
89033W        W50696  24.003  42.790  11.065
89034W        W50697  39.960  28.954   4.150
89035W        W50698  41.326  13.295   0.785
89036W        W50699  11.152  23.706  13.966
89037W        W50700  38.930  37.528  11.985
89038W        W50701  29.481  38.492  14.413
89039W        W50702  18.675   3.374   3.753
89040W        W50703  39.904  17.603  12.491
89041W        W50704  26.682  21.093  13.488
89042W        W50705  24.563  23.000  12.486
89043W        W50706  43.967   4.331   0.249
89044W        W50707  16.694  26.178  12.897
89045W        W50708   5.783  41.506   3.165
89046W        W50709  35.464   7.214  10.619
89047W        W50710   1.387  23.541  13.486
89048W        W50711  34.920  15.233   2.279
89049W        W50712  20.119   2.853   5.295
89050W        W50713   8.388  18.059   0.245
89051W        W50714  10.647  15.283  14.856
89052W        W50715  35.367  20.065   4.243
89053W        W50716  34.592   3.411   3.818
89054W        W50717  29.045   0.773   0.348
89055W        W50718   8.351  24.654  11.982
89056W        W50719  41.524   8.886  13.546
89057W        W50720   7.230  34.393   2.800
89058W        W50721  27.501  40.841  11.571
89059W        W50722  17.120  43.820  14.494
89060W        W50723  12.220  29.067  12.541
89061W        W50724  27.686  26.477  14.982
89062W        W50725  11.148  38.541   5.719
89063W        W50726   5.415  39.338   1.895
89064W        W50727  30.040   7.348  11.562
89065W        W50728  15.743  19.183  11.579
89066W        W50729  21.528  25.697   3.740
89067W        W50730  17.792  23.011   1.792
89068W        W50731  36.433  41.039  13.340
89069W        W50732  19.626  31.642   4.621
89070W        W50733  12.666  37.391   1.719
89071W        W50734   6.678  20.589   2.832
89072W        W50735  12.791  25.155   1.862
89073W        W50736  25.981   8.389   0.326
89074W        W50737  41.432  14.265   0.796
89075W        W50738  21.071  29.542   4.114
89076W        W50739  26.503  18.557  14.833
89077W        W50740  37.487  34.080  12.088
89078W        W50741   7.863   9.150  14.941
89079W        W50742  21.143  42.291  14.848
89080W        W50743  34.460  40.822  11.975
89081W        W50744  35.528  24.601   0.893
89082W        W50745  29.139  17.234  12.425
89083W        W50746  16.759  32.994   0.297
89084W        W50747   6.782   9.358  12.962
89085W        W50748  44.313  44.299   3.364
89086W        W50749  17.192  40.003   0.336
89087W        W50750  23.157  42.015   2.268
89088W        W50751  17.739  12.187  13.949
89089W        W50752  32.524  25.148  14.902
89090W        W50753  33.944  34.561  14.318
89091W        W50754  36.038  35.050   2.370
89092W        W50755   9.761  14.824   4.802
89093W        W50756  24.625   7.727  12.016
89094W        W50757  17.264  42.312  14.935
89095W        W50758  13.820  41.815   0.380
89096W        W50759  32.032  29.532   5.230
89097W        W50760  20.591  15.788   3.816
89098W        W50761  24.639  37.069   4.152
89099W        W50762   4.888  31.968   0.810
89100W        W50763  35.432  25.989   4.123
89101W        W50764  30.533  42.901   3.811
89102W        W50765  30.531   9.377  11.096
89103W        W50766  10.665  22.516   2.389
89104W        W50767  44.459  40.377  13.014
89105W        W50768   5.416   2.321  14.990
89106W        W50769  12.165  18.609  14.951
89107W        W50770  35.882  39.557  11.864
89108W        W50771  38.958  31.080  10.040
89109W        W50772  38.974  23.031   4.647
89110W        W50773  40.381   5.855  14.419
89111W        W50774  39.950  36.907   2.363
89112W        W50775   5.224  38.549  11.955
89113W        W50776  15.291  13.844  12.878
89114W        W50777  38.935  22.544   3.779
89115W        W50778  17.148  20.733   2.882
89116W        W50779  31.101   6.263   2.676
89117W        W50780  14.262  30.933  13.530
89118W        W50781  16.749  24.598   0.405
89119W        W50782  41.414  29.644  12.069
89120W        W50783  22.510   3.796   2.305
89121W        W50784  12.211  27.942   3.289
89122W        W50785  36.054  11.265  11.086
89123W        W50786  10.790  39.407  10.921
89124W        W50787  44.434  11.641  12.578
89125W        W50788   4.703  41.496  10.112
89126W        W50789   5.332  38.488   2.324
89127W        W50790   8.232  42.820  11.007
89128W        W50791  11.686  27.585   0.872
89129W        W50792  13.142  29.522   2.684
89130W        W50793  10.693  27.602  14.296
89131W        W50794  35.916   0.398   2.763
89132W        W50795  14.638   7.841  12.073
89133W        W50796   2.423  19.708  14.322
89134W        W50797  33.529  19.227  13.851
89135W        W50798  20.204  16.178  11.972
89136W        W50799  21.072  43.836   3.757
89137W        W50800  31.606  36.586  11.002
89138W        W50801  39.002  25.998   2.375
89139W        W50802  32.589  34.911   1.704
89140W        W50803   7.781  17.653  13.912
89141W        W50804  20.692  16.229   2.787
89142W        W50805  13.197  21.094   1.926
89143W        W50806  25.518   0.842  12.375
89144W        W50807  22.030  39.346   4.332
89145W        W50808  22.205  10.166  12.079
89146W        W50809  23.211   6.222   0.453
89147W        W50810  31.643  34.043   2.862
89148W        W50811  34.571  29.607   0.373
89149W        W50812   5.699  43.293  13.895
89150W        W50813  27.167  26.668  11.505
89151W        W50814  30.453  38.863   1.307
89152W        W50815  16.171  17.574  12.827
89153W        W50816  43.357  27.597  14.825
89154W        W50817  13.337   2.792   2.809
89155W        W50818   1.817  17.668  14.484
89156W        W50819  39.402  33.510   2.701
89157W        W50820   7.699  22.683   0.845
89158W        W50821  32.609  37.882  14.448
89159W        W50822  16.218  33.014   4.669
89160W        W50823  32.460  43.893  14.378
89161W        W50824  12.669  35.896  10.613
89162W        W50825  15.230  41.010   1.819
89163W        W50826  17.274  20.041  10.405
89164W        W50827  32.140  13.115  11.860
89165W        W50828   7.340  21.075  14.813
89166W        W50829  12.670  41.928  13.813
89167W        W50830   3.898  18.113  11.375
89168W        W50831  14.181  33.448  14.991
89169W        W50832   7.226  42.439   3.353
89170W        W50833  39.832  20.705  12.576
89171W        W50834  17.767  33.085  12.952
89172W        W50835   6.802  25.644  10.632
89173W        W50836  31.534  23.078   2.858
89174W        W50837  22.007  42.397   2.734
89175W        W50838   8.689  19.682  13.506
89176W        W50839  10.715  16.686  11.428
89177W        W50840  32.061   1.271   1.922
89178W        W50841   6.425   1.944  12.543
89179W        W50842  41.964   3.399   1.355
89180W        W50843  42.357  10.143  14.487
89181W        W50844   8.261  30.585  13.925
89182W        W50845  36.940  10.815   0.856
89183W        W50846  42.954  26.981   4.631
89184W        W50847  40.338  33.113   4.795
89185W        W50848   5.813  12.259   4.738
89186W        W50849  22.228   7.797   2.859
89187W        W50850  28.945  19.698  11.905
89188W        W50851  24.052   8.867   5.110
89189W        W50852   3.758  30.980   4.669
89190W        W50853  23.562  16.634   3.790
89191W        W50854  41.812   7.770   1.396
89192W        W50855  39.966  15.650   3.648
89193W        W50856   2.364  12.627   3.266
89194W        W50857  18.059   2.323   4.632
89195W        W50858  10.686  21.073   2.304
89196W        W50859  25.695  16.091  14.276
89197W        W50860  38.526   3.424  14.466
89198W        W50861  32.941  14.305  13.435
89199W        W50862  28.009  30.033   0.853
89200W        W50863  20.193  37.843  12.984
89201W        W50864  27.467  24.496  14.430
89202W        W50865   7.265  36.931  13.428
89203W        W50866  34.074  36.454  12.996
89204W        W50867  30.097  22.537   1.788
89205W        W50868   9.347  24.012   3.820
89206W        W50869   4.254  35.529   0.749
89207W        W50870  15.269  24.090  12.951
89208W        W50871  13.260  43.021  10.112
89209W        W50872  37.901  18.201   0.251
89210W        W50873  13.191  39.933  11.386
89211W        W50874  30.598  21.028  11.095
89212W        W50875  42.819   2.310   5.301
89213W        W50876  34.416  36.057   2.389
89214W        W50877  11.787  39.852   3.337
89215W        W50878  35.028  26.965   4.334
89216W        W50879   0.952  40.009  12.455
89217W        W50880   6.780  44.763  12.928
89218W        W50881  33.622  33.472   3.869
89219W        W50882  41.788   0.747  11.449
89220W        W50883  10.247  13.166  12.896
89221W        W50884  44.843  28.437  12.050
89222W        W50885   8.731  15.168  14.510
89223W        W50886  10.231  20.649  11.895
89224W        W50887  31.482  37.039   1.405
89225W        W50888   8.298  11.281  12.551
89226W        W50889   3.452  38.336  10.453
89227W        W50890  29.425   3.715   1.378
89228W        W50891  28.469  17.742  14.818
89229W        W50892   7.308  22.192  12.561
89230W        W50893  13.311  25.579  12.970
89231W        W50894   5.372  36.415   3.804
89232W        W50895  41.034  37.478   0.428
89233W        W50896   1.257  38.922  14.508
89234W        W50897   3.753   3.848  11.878
89235W        W50898  15.162  38.553   0.414
89236W        W50899  33.617  35.930  12.021
89237W        W50900  40.865  30.465   2.761
89238W        W50901  10.763   2.403  11.879
89239W        W50902  19.151  31.990   1.930
89240W        W50903  30.439  27.165  13.947
89241W        W50904  36.872  10.783  11.567
89242W        W50905  40.407   1.270   1.312
89243W        W50906   0.979  12.662  14.985
89244W        W50907  35.404  28.497   3.748
89245W        W50908  25.188  22.513  12.886
89246W        W50909   9.854  17.611  13.395
89247W        W50910  25.616  40.403  12.451
89248W        W50911  10.646   0.392  14.469
89249W        W50912  31.988  32.600   1.764
89250W        W50913  34.403  24.637   0.370
89251W        W50914  19.225  41.953   0.349
89252W        W50915  29.516  33.111   2.302
89253W        W50916   4.268  17.277   2.725
89254W        W50917  33.605  13.684  12.914
89255W        W50918  17.099  11.256   0.407
89256W        W50919  13.775  34.094   1.709
89257W        W50920  30.063  27.178   4.680
89258W        W50921  32.038  18.586   0.363
89259W        W50922  13.773  32.630   3.800
89260W        W50923  43.346   1.441  10.443
89261W        W50924   0.761   2.361  13.498
89262W        W50925  38.019  23.708   4.656
89263W        W50926  24.101  22.047   2.784
89264W        W50927  38.065  11.756  10.015
89265W        W50928  36.487  29.606   1.345
89266W        W50929  37.884   2.389  11.094
89267W        W50930   5.285  13.723   4.704
89268W        W50931   8.801  10.670  11.927
89269W        W50932   7.296  31.051  10.406
89270W        W50933   4.719  43.427   0.923
89271W        W50934  44.851  30.917   2.800
89272W        W50935  17.578  28.441  11.531
89273W        W50936  43.019  41.397  10.621
89274W        W50937  27.482  14.230   0.391
89275W        W50938  27.473   0.987  13.453
89276W        W50939   8.725  37.336  11.101
89277W        W50940  14.802  33.094   3.220
89278W        W50941  40.543  33.081   2.796
89279W        W50942  26.994  28.632   1.432
89280W        W50943   4.399  43.329  10.522
89281W        W50944  21.541   5.872  14.508
89282W        W50945  43.498   5.269   2.825
89283W        W50946  42.028   0.469   3.283
89284W        W50947  36.513   6.307   5.654
89285W        W50948  37.377  32.467  12.886
89286W        W50949  22.181   6.284   1.850
89287W        W50950  19.535  19.219   1.877
89288W        W50951  40.454   4.868  13.866
89289W        W50952  11.334  38.565   1.827
89290W        W50953   6.266  43.836  11.448
89291W        W50954   8.360  18.759  12.366
89292W        W50955  33.881  42.969   1.808
89293W        W50956  34.438  20.135  13.421
89294W        W50957  42.502  38.343   0.353
89295W        W50958  38.438  31.067   3.853
89296W        W50959   3.891  21.104   2.203
89297W        W50960  22.514   1.288   0.473
89298W        W50961   8.780  29.460   1.843
89299W        W50962  10.678  39.510  13.400
89300W        W50963  38.412  25.059  11.396
89301W        W50964  39.056  36.843  13.007
89302W        W50965  14.260  35.001   2.893
89303W        W50966  36.511  23.047   2.791
89304W        W50967  22.138   6.731   4.668
89305W        W50968  29.998  43.799  12.507
89306W        W50969  37.389  13.309   2.384
89307W        W50970  35.001  28.672   1.351
89308W        W50971  13.252  26.194   4.191
89309W        W50972  16.258  22.638  10.126
89310W        W50973  26.524  31.489  13.526
89311W        W50974  34.569   6.354   4.759
89312W        W50975  26.660  27.480   2.266
89313W        W50976   2.907  14.159  11.974
89314W        W50977  33.926  29.506   0.465
89315W        W50978  18.215  39.056   0.915
89316W        W50979  42.339  11.645  12.941
89317W        W50980  10.701  16.791  12.046
89318W        W50981  10.694  27.613  12.347
89319W        W50982  37.502  36.525   4.817
89320W        W50983  36.571   3.810  13.441
89321W        W50984  12.293  27.057   4.215
89322W        W50985  15.175   7.860  12.891
89323W        W50986  27.137  15.134  12.364
89324W        W50987   7.229   9.243  13.379
89325W        W50988  33.598  34.875  11.894
89326W        W50989  42.791  33.089   3.327
89327W        W50990   9.395  21.069  11.069
89328W        W50991  30.582  37.909   3.282
89329W        W50992  39.914  16.182   4.172
89330W        W50993  36.891  30.638  12.844
89331W        W50994   3.951  32.603  10.983
89332W        W50995  20.118  18.754   4.245
89333W        W50996  24.692  32.547   1.895
89334W        W50997  29.435  11.752   0.824
89335W        W50998   8.698   7.351  12.476
89336W        W50999  38.871  30.648   4.771
89337W        W51000   6.300  44.322  14.341
89338W        W51001  42.979   0.438   0.821
89339W        W51002   6.349  43.815   0.352
89340W        W51003   8.328  28.617  10.602
89341W        W51004  19.721  18.742   5.090
89342W        W51005  29.464  29.931   1.839
89343W        W51006  12.223  40.855  12.426
89344W        W51007  14.633  17.565   0.863
89345W        W51008  25.977  21.575   4.126
89346W        W51009  29.562  34.487  12.375
89347W        W51010  19.260  27.187   2.740
89348W        W51011  32.962   9.284  14.902
89349W        W51012   9.336  24.701  13.921
89350W        W51013   5.337   2.899  13.902
89351W        W51014   5.700  11.867   2.757
89352W        W51015  31.921  31.953   4.274
89353W        W51016  22.637  20.223  13.937
89354W        W51017  10.204  38.826  11.442
89355W        W51018  42.291  32.077   4.663
89356W        W51019  43.968   9.389  11.913
89357W        W51020  14.789  23.067   1.826
89358W        W51021  29.923   0.758   0.879
89359W        W51022   2.427  23.545   3.232
89360W        W51023  29.143   7.233   2.798
89361W        W51024  25.668  32.449  12.889
89362W        W51025   1.248   4.775  10.592
89363W        W51026  22.583   6.787  13.955
89364W        W51027  24.668  31.471  11.867
89365W        W51028  13.681  24.623   1.311
89366W        W51029  40.005  27.956  12.921
89367W        W51030  38.944  17.133  13.521
89368W        W51031   5.709  11.347   4.281
89369W        W51032   2.250  29.531  13.052
89370W        W51033  13.253  21.258  12.382
89371W        W51034   3.787   8.714  13.795
89372W        W51035  13.241  28.139   3.682
89373W        W51036  36.993  27.083  12.394
89374W        W51037  15.275  18.782   0.732
89375W        W51038   7.908  36.857  13.545
89376W        W51039   5.692  19.047   4.138
89377W        W51040  17.761   5.231   0.406
89378W        W51041   3.302  14.606  14.972
89379W        W51042  24.582   9.174   2.673
89380W        W51043   1.737  19.139   0.288
89381W        W51044   0.287  22.669   2.373
89382W        W51045  27.175  22.048  13.927
89383W        W51046  29.993  18.774   1.709
89384W        W51047  15.159  36.566   2.712
89385W        W51048  44.766  19.590  13.990
89386W        W51049  27.941  13.728  13.992
89387W        W51050   0.793   8.674  13.043
89388W        W51051   0.847   6.337  10.999
89389W        W51052   0.855   2.363  14.307
89390W        W51053  14.238   5.875  10.990
89391W        W51054  26.146  38.913  12.908
89392W        W51055   6.213  42.972   4.828
89393W        W51056  18.703  40.328  10.561
89394W        W51057  38.486  40.345   2.690
89395W        W51058  34.091  15.156   0.248
89396W        W51059  31.534  28.678   1.738
89397W        W51060  19.756  28.523   3.227
89398W        W51061   4.873  21.516   0.834
89399W        W51062   5.824   0.846  14.325
89400W        W51063  17.606   7.409  13.418
89401W        W51064  34.992  19.231  14.877
89402W        W51065  17.571   2.879  10.549
89403W        W51066  11.344  21.100   0.835
89404W        W51067  23.236  15.319   4.327
89405W        W51068  15.125  23.637  14.887
89406W        W51069   0.747  34.968  10.608
89407W        W51070  44.756  29.519   4.268
89408W        W51071  35.927  24.663   1.305
89409W        W51072  21.081  15.622  11.415
89410W        W51073  43.483  15.327  13.862
89411W        W51074  17.578   7.875  11.442
89412W        W51075  13.837  26.515   2.747
89413W        W51076  32.983  22.745  12.089
89414W        W51077  38.524  21.513  12.447
89415W        W51078  12.178  40.870  11.973
89416W        W51079   1.825  40.466  12.070
89417W        W51080  37.515  24.692  12.554
89418W        W51081  40.951  12.287   4.652
89419W        W51082   5.927  31.584  11.557
89420W        W51083  40.329   0.279   1.253
89421W        W51084   8.889  42.443   4.626
89422W        W51085  24.582   0.858  14.476
89423W        W51086  11.220  27.659   1.243
89424W        W51087  41.016  13.682  13.837
89425W        W51088  15.765   8.254  14.275
89426W        W51089  25.071  17.266  12.865
89427W        W51090  21.688  44.982  11.080
89428W        W51091  39.845  38.501  11.041
89429W        W51092  40.902  33.563   1.243
89430W        W51093  16.794  39.950   3.362
89431W        W51094  23.643  23.992  10.467
89432W        W51095  14.193  38.015  13.408
89433W        W51096  35.572  34.889   3.178
89434W        W51097  38.447  39.009   4.233
89435W        W51098  32.438  36.429  12.959
89436W        W51099  17.105  44.436  11.887
89437W        W51100   8.671  17.720  14.869
89438W        W51101  43.328  26.983  11.428
89439W        W51102  25.680  15.608  10.114
89440W        W51103   6.196  35.864  13.352
89441W        W51104  30.579  14.702  11.544
89442W        W51105  23.130  30.978  13.833
89443W        W51106  16.163  40.393   4.121
89444W        W51107  22.240   1.290  12.494
89445W        W51108  28.104  40.923   1.216
89446W        W51109  10.262  31.550   3.767
89447W        W51110  19.565  40.963   2.754
89448W        W51111  26.185  22.210   2.685
89449W        W51112  10.209  33.570   0.813
89450W        W51113   5.860   5.355  11.008
89451W        W51114  24.070  21.255  14.403
89452W        W51115  25.145  24.606  14.411
89453W        W51116  36.397  41.524  13.328
89454W        W51117  36.481  31.577  11.939
89455W        W51118  11.779  14.293  11.867
89456W        W51119  24.712  31.120   1.212
89457W        W51120  39.330  23.118  14.384
89458W        W51121  30.450   0.816  12.488
89459W        W51122  30.598  32.543  11.520
89460W        W51123  29.455  41.534  13.367
89461W        W51124   2.966  29.667  13.547
89462W        W51125  11.847  15.137  13.484
89463W        W51126   3.785  38.502  14.770
89464W        W51127   4.404  30.919  14.925
89465W        W51128   0.485  33.426   0.415
89466W        W51129   1.408   2.894   3.708
89467W        W51130  10.190  12.782  10.094
89468W        W51131  14.641  41.511   0.886
89469W        W51132  12.352  36.885  12.403
89470W        W51133  31.477  11.218  12.840
89471W        W51134  43.004  37.070  13.313
89472W        W51135  20.177  44.819   1.400
89473W        W51136  23.720  13.627   2.237
89474W        W51137  29.518   2.723  13.791
89475W        W51138  42.000  35.929   2.826
89476W        W51139  18.750  24.560  11.604
89477W        W51140  35.391   3.315   0.824
89478W        W51141  26.979  36.361  11.979
89479W        W51142  36.882  25.179   1.308
89480W        W51143  42.416  38.990  14.807
89481W        W51144  26.008   1.947  14.432
89482W        W51145   2.316  44.876  11.116
89483W        W51146  44.774  23.127  11.482
89484W        W51147  17.559   1.971   0.888
89485W        W51148  11.360   2.796   1.356
89486W        W51149   7.214  41.985   4.630
89487W        W51150  24.070  43.317   4.755
89488W        W51151  19.059  36.990  12.891
89489W        W51152   5.807  37.896  14.788
89490W        W51153  40.518  14.749   1.859
89491W        W51154  36.059  21.568  13.528
89492W        W51155  11.696  26.571  10.592
89493W        W51156  32.495   9.887  10.580
89494W        W51157  41.459  43.272  11.080
89495W        W51158  33.011  27.585   3.868
89496W        W51159  27.611  37.423   3.202
89497W        W51160   0.809  27.081   3.341
89498W        W51161  31.095  27.569   1.235
89499W        W51162  32.058  13.678   2.852
89500W        W51163   0.851  40.367   0.815
89501W        W51164  36.017   4.396   0.900
89502W        W51165  21.148  41.797   1.724
89503W        W51166  23.625  43.016   9.568
89504W        W51167  31.930  25.581  11.392
89505W        W51168   9.666   9.350   0.328
89506W        W51169  40.972  43.957   1.859
89507W        W51170   8.218  16.307   4.189
89508W        W51171  38.963  10.685  13.454
89509W        W51172  28.149  14.210  13.806
89510W        W51173  12.228  10.867  14.847
89511W        W51174  18.199  36.573  11.572
89512W        W51175  21.148  31.985   4.289
89513W        W51176  43.281  15.590  10.642
89514W        W51177   4.426  16.227   4.820
89515W        W51178   9.797  12.698  14.334
89516W        W51179  32.101   4.917  14.515
89517W        W51180  18.561  40.401  11.957
89518W        W51181  36.557  19.282   1.784
89519W        W51182  36.072  40.856   4.723
89520W        W51183  43.794   7.414  14.019
89521W        W51184  32.089  25.010  10.042
89522W        W51185  40.545   6.816   4.802
89523W        W51186  19.179  44.859  14.368
89524W        W51187  35.484  31.487  14.883
89525W        W51188  14.758  25.096  11.054
89526W        W51189  24.099  43.291   4.123
89527W        W51190  35.433  10.638  14.771
89528W        W51191  40.806   9.309  12.361
89529W        W51192  27.994  26.530   0.381
89530W        W51193  31.597  14.771   0.361
89531W        W51194   4.345  29.068   2.223
89532W        W51195  35.562   6.329  13.966
89533W        W51196  22.045  37.485   4.202
89534W        W51197  11.243  13.212  12.868
89535W        W51198   0.483  14.180   0.801
89536W        W51199  40.546  44.424   0.409
89537W        W51200  13.193  19.060  11.523
89538W        W51201  21.076  25.548   1.819
89539W        W51202  28.041  14.113   4.658
89540W        W51203   5.781  29.580  14.313
89541W        W51204  20.209  40.797  12.429
89542W        W51205  24.095  42.832   4.275
89543W        W51206  33.107   1.888   3.843
89544W        W51207  13.762  30.010   3.311
89545W        W51208  33.028  14.277   4.746
89546W        W51209   8.326  24.543   1.245
89547W        W51210  28.446  13.825   2.775
89548W        W51211  40.958   0.939   1.308
89549W        W51212   6.852   3.742  14.449
89550W        W51213  20.098  26.177   2.182
89551W        W51214   5.426  15.236  12.982
89552W        W51215  16.616  40.911   3.312
89553W        W51216  18.290  35.867  11.523
89554W        W51217  26.652  26.110  13.470
89555W        W51218  39.400  17.082  13.436
89556W        W51219  44.485  26.136  11.089
89557W        W51220  22.215  33.040  10.577
89558W        W51221  11.335  39.862  13.857
89559W        W51222  15.719   5.200  10.612
89560W        W51223  12.121  26.037   2.699
89561W        W51224   0.409  14.591   3.190
89562W        W51225  12.732  26.134   3.731
89563W        W51226  35.088   2.302   1.298
89564W        W51227  26.027  36.041  10.639
89565W        W51228  32.449  35.594   1.359
89566W        W51229  29.605  24.555   0.826
89567W        W51230  36.954  23.217  10.420
89568W        W51231  15.217   7.682   3.242
89569W        W51232  22.626  23.543   0.789
89570W        W51233  15.744  44.823   3.663
89571W        W51234   0.862  19.769   4.718
89572W        W51235  15.712  18.588   0.482
89573W        W51236  13.206  30.629  13.395
89574W        W51237  13.147  34.427   0.869
89575W        W51238  11.164   8.313   2.809
89576W        W51239  13.637  17.208   0.799
89577W        W51240  37.340  39.833   3.785
89578W        W51241  17.583  44.332  14.926
89579W        W51242   8.798  29.586  12.011
89580W        W51243  24.655  43.970  13.014
89581W        W51244  17.273  19.243  12.917
89582W        W51245  44.921  43.431   3.222
89583W        W51246  10.178  33.919   4.326
89584W        W51247  13.661  23.119   0.952
89585W        W51248  10.137   5.688  10.463
89586W        W51249  38.948  35.101   1.879
89587W        W51250  19.621  38.383  13.963
89588W        W51251  39.046  21.592   4.124
89589W        W51252  28.940  38.394  14.318
89590W        W51253  16.302  28.083  14.031
89591W        W51254   0.308  15.222   9.570
89592W        W51255  19.194  28.020  10.513
89593W        W51256  18.575  15.146  14.855
89594W        W51257  10.633  25.477   3.749
89595W        W51258  18.149   1.886   0.863
89596W        W51259  33.979  12.712  13.830
89597W        W51260  27.689  36.356  11.449
89598W        W51261  11.708   4.252   4.217
89599W        W51262   7.292   5.255   3.266
89600W        W51263   5.797  36.386  10.552
89601W        W51264  13.761   5.299  14.510
89602W        W51265  24.057  29.961  11.878
89603W        W51266   1.362  20.269  11.443
89604W        W51267  32.984  11.807  12.472
89605W        W51268  19.115  40.936  12.896
89606W        W51269  10.665  44.401  14.490
89607W        W51270  18.679  20.094  11.050
89608W        W51271  12.650  38.900  10.437
89609W        W51272  35.020  20.082   1.885
89610W        W51273   8.862  35.537   1.267
89611W        W51274   6.334  32.577   0.346
89612W        W51275  43.991  28.537  13.317
89613W        W51276  37.926  41.380   1.259
89614W        W51277  35.925  10.790  10.577
89615W        W51278  19.256  42.850  14.463
89616W        W51279  17.592  28.127  11.584
89617W        W51280  15.328  14.227   3.193
89618W        W51281  14.202  14.727  13.991
89619W        W51282   3.889  41.378   2.729
89620W        W51283  30.048  35.547   0.332
89621W        W51284  20.258  37.452   2.216
89622W        W51285  13.123  23.195   1.298
89623W        W51286   8.705  23.644  13.831
89624W        W51287  15.308  14.136  12.462
89625W        W51288  12.355  16.803   3.348
89626W        W51289   3.458  17.626   1.343
89627W        W51290  44.828  43.960  11.463
89628W        W51291   3.895  39.356  10.494
89629W        W51292  27.943  24.602   1.889
89630W        W51293  34.401  36.429  13.821
89631W        W51294   4.911  35.870   3.244
89632W        W51295  43.487  10.174   2.323
89633W        W51296  15.752   7.863   0.806
89634W        W51297  13.842  32.076  14.316
89635W        W51298   3.938  29.533  13.799
89636W        W51299  20.225  24.047   2.408
89637W        W51300  44.924   7.682   2.239
89638W        W51301   3.224   1.276   3.313
89639W        W51302  33.401  39.411   4.207
89640W        W51303  16.310  22.727  12.382
89641W        W51304  41.835  36.038  14.839
89642W        W51305  40.855  10.819  10.956
89643W        W51306  38.982  30.478  13.927
89644W        W51307  32.621  19.115  10.607
89645W        W51308  22.145  35.007  14.514
89646W        W51309  14.824  23.528  12.578
89647W        W51310  35.537   5.903   3.251
89648W        W51311  36.001  23.688   2.285
89649W        W51312  25.146  12.715   0.796
89650W        W51313  34.995  28.016   2.259
89651W        W51314  41.825  33.396   4.323
89652W        W51315  18.111  36.072  13.361
89653W        W51316  34.549  14.639   2.274
89654W        W51317  21.676  13.319   1.727
89655W        W51318  29.477  39.840   5.764
89656W        W51319   0.836  20.095   3.216
89657W        W51320  15.779  26.195   2.262
89658W        W51321   3.719   6.731  12.440
89659W        W51322  15.289   2.783  13.863
89660W        W51323  26.703   9.734   2.408
89661W        W51324  26.695  17.203   0.475
89662W        W51325  31.496   8.694  12.838
89663W        W51326   9.253  21.714   1.814
89664W        W51327  23.541  12.282  12.034
89665W        W51328  11.257  15.288  13.857
89666W        W51329   0.470  20.086  13.997
89667W        W51330   6.720  23.617  13.548
89668W        W51331  23.548  14.153  11.927
89669W        W51332  35.999   2.800  10.500
89670W        W51333  42.899  20.178   1.269
89671W        W51334  25.630  13.631   2.790
89672W        W51335  21.754  22.717   0.359
89673W        W51336  32.617  17.110   2.704
89674W        W51337  41.442   0.296   1.346
89675W        W51338  26.124  41.885   0.933
89676W        W51339  36.409  23.667   5.273
89677W        W51340  35.060  13.786   0.319
89678W        W51341  41.019  15.244   3.294
89679W        W51342  14.597  37.457  13.432
89680W        W51343  11.683  13.349  14.447
89681W        W51344  40.963  35.484  14.830
89682W        W51345  42.523  12.315  11.863
89683W        W51346  38.386  40.504  11.935
89684W        W51347  40.812  29.984   2.215
89685W        W51348   7.872   3.788   2.680
89686W        W51349  26.643  10.376   4.205
89687W        W51350   1.330  43.516   3.826
89688W        W51351   3.453  34.865  12.934
89689W        W51352   4.743   7.666   2.756
89690W        W51353  36.040  44.491  14.928
89691W        W51354  17.633  34.554  12.932
89692W        W51355  32.933  16.737   0.441
89693W        W51356  41.017   8.206  11.469
89694W        W51357   3.755  12.734  14.981
89695W        W51358  19.623  26.549  10.408
89696W        W51359  19.237  37.364  14.845
89697W        W51360  31.525  31.641  11.380
89698W        W51361  21.102   5.806   2.690
89699W        W51362   6.282  37.512   3.694
89700W        W51363   0.488  26.015  12.344
89701W        W51364  34.068   9.739   1.933
89702W        W51365  24.674  13.255   2.902
89703W        W51366  36.973  41.960   2.900
89704W        W51367  16.698  11.835  13.837
89705W        W51368   1.831  27.020  11.098
89706W        W51369  27.172   1.479   3.755
89707W        W51370  42.472  13.798  12.956
89708W        W51371   9.803  42.285  14.027
89709W        W51372  25.700  35.568  10.421
89710W        W51373  10.165  18.716   0.766
89711W        W51374  25.967  28.498   0.846
89712W        W51375   8.666  33.066  12.959
89713W        W51376  31.009  25.126  13.468
89714W        W51377  19.701  32.109  13.917
89715W        W51378  12.335  10.683   5.626
89716W        W51379  17.725  10.736   0.732
89717W        W51380  19.061  35.601  12.924
89718W        W51381  38.898  43.970  14.430
89719W        W51382  41.998  36.445   3.300
89720W        W51383  32.473  32.897   2.401
89721W        W51384   3.714   8.782   0.297
89722W        W51385   3.427  23.623  14.287
89723W        W51386   4.387   8.687  10.597
89724W        W51387  41.923   1.948   2.676
89725W        W51388  43.866  16.128   3.192
89726W        W51389  15.745  39.946  13.537
89727W        W51390  35.497  24.665   4.726
89728W        W51391  26.981   7.399  11.419
89729W        W51392   3.381   5.282  14.423
89730W        W51393  20.550  35.456   0.296
89731W        W51394  44.499  18.066  11.898
89732W        W51395  30.421   0.794  13.394
89733W        W51396  24.075  16.805   4.806
89734W        W51397  30.909   5.362   3.819
89735W        W51398  19.759   5.319  10.118
89736W        W51399  33.904   0.304   1.447
89737W        W51400  16.172   0.458   1.705
89738W        W51401  43.005  27.460   4.613
89739W        W51402   0.962   6.740   0.890
89740W        W51403  10.143  17.243  10.550
89741W        W51404   6.747   4.250  10.570
89742W        W51405  19.098  12.708   4.289
89743W        W51406   9.866  30.058  12.933
89744W        W51407  29.655  27.000   1.867
89745W        W51408  38.525  43.447   4.757
89746W        W51409  38.829  14.224   5.214
89747W        W51410  14.158  41.304   2.734
89748W        W51411  15.781   8.254  14.839
89749W        W51412  20.040  12.838   2.883
89750W        W51413  22.053  39.315  11.466
89751W        W51414  40.964   9.272  10.091
89752W        W51415   8.764   4.935   3.783
89753W        W51416  28.071  22.671   1.927
89754W        W51417  23.551   2.354  13.399
89755W        W51418   4.435  39.917   3.231
89756W        W51419   6.362  13.795  11.054
89757W        W51420   6.411  37.867   0.751
89758W        W51421  40.480  39.832  14.762
89759W        W51422  15.754  21.734  14.874
89760W        W51423  24.076  17.220   3.294
89761W        W51424   4.257  24.663   2.724
89762W        W51425  27.595  36.020  13.833
89763W        W51426  27.032  28.953  13.898
89764W        W51427   4.777  19.086   4.205
89765W        W51428  14.284  26.973  12.924
89766W        W51429   3.904  42.821  11.538
89767W        W51430  36.882  25.542  11.098
89768W        W51431  24.689   7.749  14.795
89769W        W51432  18.735   6.310   5.278
89770W        W51433   7.851   0.934   5.176
89771W        W51434  15.211  28.576  11.975
89772W        W51435  35.898  22.568  11.435
89773W        W51436  13.108  39.872  12.830
89774W        W51437   1.431  34.413   1.212
89775W        W51438  32.075  26.197  13.044
89776W        W51439  24.693  35.367   0.383
89777W        W51440  29.507  37.527   0.876
89778W        W51441  11.138  26.033  12.559
89779W        W51442  33.576  15.158  14.846
89780W        W51443   6.231  22.596  14.295
89781W        W51444  24.596  38.914  11.890
89782W        W51445   7.861  32.588   1.828
89783W        W51446  38.909  23.697  14.899
89784W        W51447  36.430   2.373  10.531
89785W        W51448  37.990   3.389   2.393
89786W        W51449   6.703  32.563  13.834
89787W        W51450  27.467  40.330   3.235
89788W        W51451  29.632  29.605   2.898
89789W        W51452  29.448  16.805   0.929
89790W        W51453  20.579   1.757   0.274
89791W        W51454  39.542  19.084   3.329
89792W        W51455   9.855  24.668  13.833
89793W        W51456  24.513  33.919  12.983
89794W        W51457   7.411  30.506  14.320
89795W        W51458  19.719   7.715  12.392
89796W        W51459  13.765   7.702   2.732
89797W        W51460  39.387   6.412  12.033
89798W        W51461  17.662  11.311  10.489
89799W        W51462  36.374  40.530  13.833
89800W        W51463  32.132  16.078  12.887
89801W        W51464  38.399   2.373   4.202
89802W        W51465  22.033  41.495   1.716
89803W        W51466  30.922  18.785   5.286
89804W        W51467  25.520  32.926  12.578
89805W        W51468   6.678  22.252  10.987
89806W        W51469   0.258  10.364   4.819
89807W        W51470  23.547  32.523  11.515
89808W        W51471  10.845  28.186   1.927
89809W        W51472  15.580  31.635   0.356
89810W        W51473   6.424  44.789  13.505
89811W        W51474  24.052  28.565   4.739
89812W        W51475  26.650  24.672   4.668
89813W        W51476  42.404  29.485  12.580
89814W        W51477  28.506  42.908   4.314
89815W        W51478  41.929  28.627   0.920
89816W        W51479   2.450   9.792   2.714
89817W        W51480  38.972   3.284  13.953
89818W        W51481   5.749  44.867   2.883
89819W        W51482  42.519   7.710  12.940
89820W        W51483  32.006  35.054  10.583
89821W        W51484  26.972  16.655  12.521
89822W        W51485  23.123  29.064   1.254
89823W        W51486  37.566   3.423   4.834
89824W        W51487  36.915  31.436   0.341
89825W        W51488  42.397  29.423   2.896
89826W        W51489  34.917  29.609   1.700
89827W        W51490  16.152  40.827  12.435
89828W        W51491  30.055  41.854   2.267
89829W        W51492   4.751  35.411  12.533
89830W        W51493  36.046  40.819   4.121
89831W        W51494  24.513   0.494  11.101
89832W        W51495  11.714  21.663   3.770
89833W        W51496  41.834  32.961   0.479
89834W        W51497   3.716   9.294  13.408
89835W        W51498   0.969  40.002  13.869
89836W        W51499  11.323  17.677   1.324
89837W        W51500   0.393  43.334  11.907
89838W        W51501  31.593  42.866   1.272
89839W        W51502  24.073  41.321  10.994
89840W        W51503  17.224  12.710   4.723
89841W        W51504  20.595  38.993   3.817
89842W        W51505  11.641  32.126  14.963
89843W        W51506  44.850  14.687   2.883
89844W        W51507  15.667  16.185  13.458
89845W        W51508   8.202   5.912  11.466
89846W        W51509  22.233  20.235   1.813
89847W        W51510   6.836  13.231   4.628
89848W        W51511  20.211  43.939   3.731
89849W        W51512  38.410  24.504  10.927
89850W        W51513   9.349  14.227  10.919
89851W        W51514  13.119   0.259  14.803
89852W        W51515  17.556  35.587   4.788
89853W        W51516  11.826   8.246  11.986
89854W        W51517   6.363  10.690  12.084
89855W        W51518  44.435  24.214  11.902
89856W        W51519   0.389   7.279   0.481
89857W        W51520  12.710  14.716  12.522
89858W        W51521  13.251  27.147   3.156
89859W        W51522  42.983  29.436  10.423
89860W        W51523  25.588  10.327  13.468
89861W        W51524  13.609  10.716   4.187
89862W        W51525  31.587  29.951   0.445
89863W        W51526  41.428   4.427  14.412
89864W        W51527  43.321  13.137   5.119
89865W        W51528   7.666  42.016  12.096
89866W        W51529  17.798  16.317  12.440
89867W        W51530  28.656  38.456   5.245
89868W        W51531  14.741  16.572   2.232
89869W        W51532  41.955  23.075  14.443
89870W        W51533   3.302  34.484   4.742
89871W        W51534  21.066  41.410  10.553
89872W        W51535  29.460  38.458  14.792
89873W        W51536  44.389   3.407   3.775
89874W        W51537  34.458  34.458  11.055
89875W        W51538   9.312  28.618  14.796
89876W        W51539   4.832  38.452   1.739
89877W        W51540  14.182  11.212  12.442
89878W        W51541  13.814  26.010  12.400
89879W        W51542  26.966  22.168  11.999
89880W        W51543  38.046   4.306   2.826
89881W        W51544  41.871   8.308   2.407
89882W        W51545   0.373  27.193   2.268
89883W        W51546  23.573   8.256  13.522
89884W        W51547  19.202  25.994   2.833
89885W        W51548  26.163  14.680  11.387
89886W        W51549  18.683  10.676   2.672
89887W        W51550  35.513  18.291  14.507
89888W        W51551  13.846  23.646   3.721
89889W        W51552  12.328  13.163   1.285
89890W        W51553   8.281   8.397   3.217
89891W        W51554  18.263  20.273  11.894
89892W        W51555   2.276  34.593  10.129
89893W        W51556  14.611  16.150   3.293
89894W        W51557  22.051  32.460   2.260
89895W        W51558  29.586  35.483  11.911
89896W        W51559   8.841  19.176  11.387
89897W        W51560  28.442   6.876   4.774
89898W        W51561  17.703  39.408  11.452
89899W        W51562  15.329  31.001  12.532
89900W        W51563  21.064  32.498   5.178
89901W        W51564  22.582  36.532  12.051
89902W        W51565  26.172  18.249  12.965
89903W        W51566  37.003  23.999  13.442
89904W        W51567  27.086   0.280  13.502
89905W        W51568   8.179   6.191   1.886
89906W        W51569   1.936  29.029   2.855
89907W        W51570   9.359  44.318  11.596
89908W        W51571   2.345   5.705   2.316
89909W        W51572   4.758  15.600  14.030
89910W        W51573  31.120  28.099   1.898
89911W        W51574  16.290  15.251   3.849
89912W        W51575   7.825  39.934  11.480
89913W        W51576  16.129  26.617   0.905
89914W        W51577   1.268   9.232  12.447
89915W        W51578  21.241  22.503  12.903
89916W        W51579  32.018  14.810   3.157
89917W        W51580  12.222   4.244  11.004
89918W        W51581   6.740  32.141  12.561
89919W        W51582  34.944   4.945  11.489
89920W        W51583   2.741  16.118   1.897
89921W        W51584  41.036   5.700  10.047
89922W        W51585  14.334  20.617  12.370
89923W        W51586  29.937  24.486   2.771
89924W        W51587  12.165  13.257  13.039
89925W        W51588   5.323  29.040   0.815
89926W        W51589  11.340  37.545   1.864
89927W        W51590  34.378  29.017   3.772
89928W        W51591  14.745  43.439   3.338
89929W        W51592   7.855  14.322  10.141
89930W        W51593  31.120  14.218   0.962
89931W        W51594   3.233  40.023   2.246
89932W        W51595  33.502  22.642  13.061
89933W        W51596  29.618  38.434  10.566
89934W        W51597  42.945  23.133   1.362
89935W        W51598  37.935   0.408  12.374
89936W        W51599  10.747   0.409   4.246
89937W        W51600   7.250  44.805  11.898
89938W        W51601  28.107  15.664  12.456
89939W        W51602  41.994  25.021  12.052
89940W        W51603   8.211   7.886   0.424
89941W        W51604  38.429  33.619   3.668
89942W        W51605  22.724   5.432   1.292
89943W        W51606  22.127  42.488   4.326
89944W        W51607  14.825  13.775   2.884
89945W        W51608  16.277  27.153  11.562
89946W        W51609  12.854  43.805   0.445
89947W        W51610   9.779  17.274   3.343
89948W        W51611   1.453  17.774  13.519
89949W        W51612  38.901   3.758  14.833
89950W        W51613  23.100  18.729   3.815
89951W        W51614  17.152  10.173   0.779
89952W        W51615  33.956  28.039  13.375
89953W        W51616  30.116   7.681   4.797
89954W        W51617  12.240  25.642  10.620
89955W        W51618  44.818  34.608   2.282
89956W        W51619  27.608  17.798  14.424
89957W        W51620  36.391  14.745   4.674
89958W        W51621  18.725  22.616   2.222
89959W        W51622  18.597  37.391  12.934
89960W        W51623  23.009   3.900   0.253
89961W        W51624  25.511   4.441  13.392
89962W        W51625  40.838   9.669   1.861
89963W        W51626  21.552  14.219  14.306
89964W        W51627   9.684  33.464  13.842
89965W        W51628   1.925   4.381   3.737
89966W        W51629  39.540  38.365  13.963
89967W        W51630  43.348  33.115   2.275
89968W        W51631   5.410   1.810  10.635
89969W        W51632  11.361  10.691   0.247
89970W        W51633  34.954  39.401  11.402
89971W        W51634  26.107  40.499   3.654
89972W        W51635  28.186  27.157  11.554
89973W        W51636  29.496  27.466  13.943
89974W        W51637  29.955  36.574  12.950
89975W        W51638  15.704  10.297  14.504
89976W        W51639   5.807  41.369   2.367
89977W        W51640  11.732  12.758   2.761
89978W        W51641   5.411   0.987  14.008
89979W        W51642  11.209  20.191   0.268
89980W        W51643   9.865  27.082  11.868
89981W        W51644  18.257   5.721   2.386
89982W        W51645   9.849  33.482  11.385
89983W        W51646  19.573   2.874  11.128
89984W        W51647  30.541   6.720   4.753
89985W        W51648  44.467  20.591  11.991
89986W        W51649  24.145  29.988   2.877
89987W        W51650  21.574  34.474  11.606
89988W        W51651   6.363  39.506   1.725
89989W        W51652  43.477  15.094   1.439
89990W        W51653  24.614  29.426   2.857
89991W        W51654  19.050  31.438  14.918
89992W        W51655  23.169  44.338   4.718
89993W        W51656  28.485  18.090  11.038
89994W        W51657   2.398   3.359   9.995
89995W        W51658  25.607   8.832   5.099
89996W        W51659  26.167  18.053  10.902
89997W        W51660  35.587   3.353  14.841
89998W        W51661  31.904  41.339   1.402
89999W        W51662  20.619   0.949  11.573
90000W        W51663   1.448   5.362  12.459
90001W        W51664   7.774  23.673   0.416
90002W        W51665  25.708  27.560  13.332
90003W        W51666  21.752   0.371   4.338
90004W        W51667  40.963  26.096   0.346
90005W        W51668  43.863  32.087  13.405
90006W        W51669  11.816  23.232   1.296
90007W        W51670   4.755  39.066  13.393
90008W        W51671   2.320  42.358  10.981
90009W        W51672  20.684  22.590  13.388
90010W        W51673   7.719  26.561  11.013
90011W        W51674  29.929  34.053   1.416
90012W        W51675  42.004  43.480  14.013
90013W        W51676  16.765  11.809  11.010
90014W        W51677  21.045  40.024   3.148
90015W        W51678  19.663  32.120  14.893
90016W        W51679  14.684   1.469   0.786
90017W        W51680  22.531  24.581  14.030
90018W        W51681   9.658  13.667  10.448
90019W        W51682   0.282  27.018   4.142
90020W        W51683  27.016   9.358  14.962
90021W        W51684  15.589  20.213  13.912
90022W        W51685  34.067  23.135  12.965
90023W        W51686  35.561  26.487  13.420
90024W        W51687  24.225   1.955  12.431
90025W        W51688   8.242  42.505  12.014
90026W        W51689  20.538  44.434   2.245
90027W        W51690  31.506   5.806   0.442
90028W        W51691  10.804  44.301  11.059
90029W        W51692  23.170  21.633   2.256
90030W        W51693  33.569  13.723  11.977
90031W        W51694  13.293   3.299  12.564
90032W        W51695  18.665  33.975  14.891
90033W        W51696   6.705  26.516   3.659
90034W        W51697   3.456  24.662  13.883
90035W        W51698  29.574   0.463  10.911
90036W        W51699   2.389  25.523   1.305
90037W        W51700  11.847  39.021   0.245
90038W        W51701  20.078  29.424   3.198
90039W        W51702  29.568  22.115  13.881
90040W        W51703  25.090   3.429  10.110
90041W        W51704  16.243  21.621  13.829
90042W        W51705  25.516  26.105  11.379
90043W        W51706  29.028   7.783   4.648
90044W        W51707  18.134  23.494   0.339
90045W        W51708  36.846  11.775   0.465
90046W        W51709  35.504  24.675  10.571
90047W        W51710   6.888  38.480  14.387
90048W        W51711  14.143  34.942  11.942
90049W        W51712  17.559   6.277  11.496
90050W        W51713  17.746   3.288   4.661
90051W        W51714  31.440  43.994  14.967
90052W        W51715  23.587   3.954  14.514
90053W        W51716  12.847   4.327   1.429
90054W        W51717  27.647   2.240   0.862
90055W        W51718  39.978  32.923   1.828
90056W        W51719  29.157  31.609   1.912
90057W        W51720  39.928  31.125  11.506
90058W        W51721  32.526  32.005  13.468
90059W        W51722  25.473   3.727   1.240
90060W        W51723  21.202   6.749   4.273
90061W        W51724  27.147  25.709   0.286
90062W        W51725  30.615  21.719   0.406
90063W        W51726   9.654  33.903  14.409
90064W        W51727  38.377  10.230   4.200
90065W        W51728  21.749  24.590   3.153
90066W        W51729  33.048  40.968   1.773
90067W        W51730  38.370  39.949   0.953
90068W        W51731  29.479  14.246   4.638
90069W        W51732  30.944  37.068   0.814
90070W        W51733  24.720  33.030   4.809
90071W        W51734   7.714   6.776   4.678
90072W        W51735  11.648  27.052   2.392
90073W        W51736  11.657  13.789   0.425
90074W        W51737  37.492  42.408  10.120
90075W        W51738  28.960  21.175  14.376
90076W        W51739  37.456   1.416  14.952
90077W        W51740  27.555   4.720  13.927
90078W        W51741   8.184  31.023  13.959
90079W        W51742   3.801  16.633  12.948
90080W        W51743   1.364  24.722  12.537
90081W        W51744  18.780  22.229   3.638
90082W        W51745  39.533  30.978   4.620
90083W        W51746  37.480  11.806  12.042
90084W        W51747   5.783  11.150  12.974
90085W        W51748  28.496  37.838  14.496
90086W        W51749  44.337   3.794   3.835
90087W        W51750  30.459   8.375   3.277
90088W        W51751  36.920   2.775   4.225
90089W        W51752  28.542  17.138   2.397
90090W        W51753  21.238  38.408   3.173
90091W        W51754  29.476   8.840   4.682
90092W        W51755  40.451   1.412   2.386
90093W        W51756  34.873  38.366   0.804
90094W        W51757  29.606  21.593   1.438
90095W        W51758  41.454   6.360  13.533
90096W        W51759   4.248   1.870   1.734
90097W        W51760  14.730  27.684   0.297
90098W        W51761  14.719  25.020  12.418
90099W        W51762  34.015  24.000  14.808
90100W        W51763  33.904  27.088   4.187
90101W        W51764  32.906  34.389  10.469
90102W        W51765  16.186  32.604   0.943
90103W        W51766  33.066  21.215  12.926
90104W        W51767   7.196  11.219   1.790
90105W        W51768  28.090  42.868   3.336
90106W        W51769   9.706  24.214   1.364
90107W        W51770  40.379  37.571   3.267
90108W        W51771  42.463  13.630   1.915
90109W        W51772  17.682  19.260  14.801
90110W        W51773  25.490  34.379  11.549
90111W        W51774  28.081   6.207   0.480
90112W        W51775  27.129  16.137   2.682
90113W        W51776   7.860  32.108  14.917
90114W        W51777   7.231  21.515  11.383
90115W        W51778  30.648  34.094  11.606
90116W        W51779   3.345  34.074   2.724
90117W        W51780   3.349  28.485   2.767
90118W        W51781  42.296  33.973   4.812
90119W        W51782   8.203  39.049   2.694
90120W        W51783  17.650  38.487  10.616
90121W        W51784   7.713  33.466   0.282
90122W        W51785   9.658  32.133   3.639
90123W        W51786   1.948  41.852  10.999
90124W        W51787  20.725  33.010  11.913
90125W        W51788  30.133  26.681  12.862
90126W        W51789  20.606  26.499   0.890
90127W        W51790  12.777  41.479   2.320
90128W        W51791  24.034  21.199   0.927
90129W        W51792  36.962   3.370  10.493
90130W        W51793  32.955  11.826  11.610
90131W        W51794  37.388   5.876  11.372
90132W        W51795   0.905  41.902   2.745
90133W        W51796  37.916  25.657  11.475
90134W        W51797  36.961  15.769  14.383
90135W        W51798   4.306  42.416   1.362
90136W        W51799  37.384   8.880  12.506
90137W        W51800  19.136   0.410  10.473
90138W        W51801  40.969  18.163   0.472
90139W        W51802  36.916  13.717   3.278
90140W        W51803  34.448  26.460  13.035
90141W        W51804  10.161  25.976  12.043
90142W        W51805  22.237   9.860  10.567
90143W        W51806   2.833  21.590  13.930
90144W        W51807  14.234  23.646   0.246
90145W        W51808   6.916  33.541   2.830
90146W        W51809  25.081  22.194   0.899
90147W        W51810  30.125  32.964  14.967
90148W        W51811  31.635   0.847   0.858
90149W        W51812  35.991  11.654  11.063
90150W        W51813  20.669  32.508   1.277
90151W        W51814  23.559  15.083   3.827
90152W        W51815  33.505  22.066   0.336
90153W        W51816  12.851  17.780  14.772
90154W        W51817  16.133  30.514   0.773
90155W        W51818  38.838  17.590  13.412
90156W        W51819  18.778   7.212   4.698
90157W        W51820   7.217  22.161  10.453
90158W        W51821  26.125  15.167  14.326
90159W        W51822   0.484  15.635  14.962
90160W        W51823  44.757  37.055   0.330
90161W        W51824  12.160  10.288  13.051
90162W        W51825   5.354  19.627   3.695
90163W        W51826   3.750  21.130  10.911
90164W        W51827  34.524  15.189  14.836
90165W        W51828  33.062  39.996  11.537
90166W        W51829  34.422  42.313   3.714
90167W        W51830   0.487  33.055   2.391
90168W        W51831  33.021  37.994  10.930
90169W        W51832  16.701  30.643  14.978
90170W        W51833   2.285  12.125  10.909
90171W        W51834   9.215  19.221  12.432
90172W        W51835  32.580   7.270   0.401
90173W        W51836   3.838   4.898  14.795
90174W        W51837  31.093  14.773  10.953
90175W        W51838   0.464  14.273   3.819
90176W        W51839  25.597  30.421   1.869
90177W        W51840  21.017  39.997  14.993
90178W        W51841  19.087  44.952   3.362
90179W        W51842  33.927  15.639  12.415
90180W        W51843  10.834  16.766   1.379
90181W        W51844  34.889  11.218   3.229
90182W        W51845  24.089  31.116   1.314
90183W        W51846  26.507  42.918   2.203
90184W        W51847  10.673  25.598   3.205
90185W        W51848  33.419   1.910  12.406
90186W        W51849   0.413  21.203   4.160
90187W        W51850   3.450  25.619  11.864
90188W        W51851  33.044   9.671  10.469
90189W        W51852   0.869   9.205   0.853
90190W        W51853   0.394  38.447   0.443
90191W        W51854  44.868  16.674  10.962
90192W        W51855   0.913  15.745   3.199
90193W        W51856   6.710  13.133   2.759
90194W        W51857  13.165  12.118  12.501
90195W        W51858  31.919  29.636  13.991
90196W        W51859  40.462  38.047  13.890
90197W        W51860  15.645  34.504   2.392
90198W        W51861  28.160  20.195  10.487
90199W        W51862  43.468  11.137  11.408
90200W        W51863  16.097  38.537  11.081
90201W        W51864  13.211   0.486  13.982
90202W        W51865  26.018   6.267   4.615
90203W        W51866  25.214  13.148  10.612
90204W        W51867  27.611  44.996   4.231
90205W        W51868  36.964  43.440   0.956
90206W        W51869  23.584  20.530   4.740
90207W        W51870  41.375  18.663  11.388
90208W        W51871  17.705  19.191   4.186
90209W        W51872  19.758  42.783  10.449
90210W        W51873  38.423  43.303  11.108
90211W        W51874   3.292  33.560   2.787
90212W        W51875   7.356  16.187  13.019
90213W        W51876  15.780  15.754   0.380
90214W        W51877  20.210  32.014   4.799
90215W        W51878   6.915  36.091  13.946
90216W        W51879  38.838   4.772  10.007
90217W        W51880   5.310   5.867  12.957
90218W        W51881  35.084  44.265  12.484
90219W        W51882  19.104  37.339  10.933
90220W        W51883   5.753  18.614   4.757
90221W        W51884   5.395  21.145   1.726
90222W        W51885   7.676  43.957  12.483
90223W        W51886   4.848  21.730  10.616
90224W        W51887  43.870  34.423   4.128
90225W        W51888  20.096   6.293   3.634
90226W        W51889  14.298  37.516   4.162
90227W        W51890  41.297  24.506   0.820
90228W        W51891  13.341  21.257  11.023
90229W        W51892  27.019  30.929   0.812
90230W        W51893  14.692   3.942   0.357
90231W        W51894  30.009   2.870   0.779
90232W        W51895  29.600   8.723   0.901
90233W        W51896  43.435   5.359   9.954
90234W        W51897   3.953  30.935   2.894
90235W        W51898   4.718  31.097  11.405
90236W        W51899  16.074  28.521  12.387
90237W        W51900   1.294  38.469  12.904
90238W        W51901  41.459   5.340   4.174
90239W        W51902  30.978  24.557   1.841
90240W        W51903   8.193  38.414   4.150
90241W        W51904  30.521  38.008  13.840
90242W        W51905  24.086  29.021   3.691
90243W        W51906   0.918  28.157  12.347
90244W        W51907  22.173  12.758  14.387
90245W        W51908  15.648  30.156  12.474
90246W        W51909  18.629  31.432  12.836
90247W        W51910  22.700  23.195  13.308
90248W        W51911  30.602  17.071  13.806
90249W        W51912  40.005  35.499   3.713
90250W        W51913  36.509  28.079  12.562
90251W        W51914  37.077   7.818   4.278
90252W        W51915   1.961  26.465  10.567
90253W        W51916  35.997  21.099   3.182
90254W        W51917  12.827  15.228   4.235
90255W        W51918  41.905  25.609  11.460
90256W        W51919   7.682  16.614  12.505
90257W        W51920  44.465  11.175  11.894
90258W        W51921  19.042  20.029  12.960
90259W        W51922  10.222   1.733   0.396
90260W        W51923  38.922  33.999  11.122
90261W        W51924  44.343  35.914  13.364
90262W        W51925  27.474  38.994   4.266
90263W        W51926  41.028   7.729   3.312
90264W        W51927  10.678  31.615  13.908
90265W        W51928  38.397  29.666   1.433
90266W        W51929  23.115  31.046   2.841
90267W        W51930  12.615  37.018  14.764
90268W        W51931  21.534  40.530   3.655
90269W        W51932  21.632  13.352   3.701
90270W        W51933  29.939  34.903  13.802
90271W        W51934  10.817  19.740  12.467
90272W        W51935  39.421  41.874  12.887
90273W        W51936  30.926  29.071  12.567
90274W        W51937  39.555   6.291   4.657
90275W        W51938  25.481  15.269  10.439
90276W        W51939  28.513  13.224  12.994
90277W        W51940  42.500  19.188   0.435
90278W        W51941  42.994   2.456  13.445
90279W        W51942  30.046  26.206  12.003
90280W        W51943  34.608  26.158   4.743
90281W        W51944  42.397  10.243  12.950
90282W        W51945  13.632  32.587   4.750
90283W        W51946  33.523  32.949  12.837
90284W        W51947   2.877   6.773   4.290
90285W        W51948   7.826  31.986   3.314
90286W        W51949  38.441   1.352  11.461
90287W        W51950  20.168  37.979   0.794
90288W        W51951  16.192  34.946  12.547
90289W        W51952  17.796   0.421   2.359
90290W        W51953   3.942  19.603   0.753
90291W        W51954  42.990  11.349   3.272
90292W        W51955   9.726  34.011  13.817
90293W        W51956  22.162  22.231   4.148
90294W        W51957   0.770  44.836   2.226
90295W        W51958  43.457  43.017  10.539
90296W        W51959  10.378  15.161  14.418
90297W        W51960  44.379  12.124   2.752
90298W        W51961  44.348   4.279  12.026
90299W        W51962  22.168  36.912   4.838
90300W        W51963  40.512  21.521  14.478
90301W        W51964  37.933  11.792   3.187
90302W        W51965  35.908  33.086   1.703
90303W        W51966   7.870   8.207   3.261
90304W        W51967   2.331  44.358  12.485
90305W        W51968  29.557  28.679  10.959
90306W        W51969  37.837  26.033   4.820
90307W        W51970  15.114  21.600  13.465
90308W        W51971  41.443  29.021   3.315
90309W        W51972  18.731  19.652   2.417
90310W        W51973  26.174  34.905   4.757
90311W        W51974  11.674  39.444   1.755
90312W        W51975  10.848  42.527   1.360
90313W        W51976  27.193  25.096   1.272
90314W        W51977  30.958   1.479   2.855
90315W        W51978   0.452  10.241   2.237
90316W        W51979  22.660  37.507   4.300
90317W        W51980  30.444   8.385   0.397
90318W        W51981  43.308  25.663   1.726
90319W        W51982  29.577  25.974   3.837
90320W        W51983  38.523  35.999   1.716
90321W        W51984   9.767  10.165  12.955
90322W        W51985  19.196  31.072   4.609
90323W        W51986  34.563  21.099   1.867
90324W        W51987   2.729  40.976   2.348
90325W        W51988  24.577  13.619  13.387
90326W        W51989  43.999  34.995  11.449
90327W        W51990   3.364  39.470  14.334
90328W        W51991  34.116  27.508   0.439
90329W        W51992  42.968   7.229   4.143
90330W        W51993   7.844  40.002   3.730
90331W        W51994  19.763  13.640  14.985
90332W        W51995  37.435   3.230   1.320
90333W        W51996  36.993   7.710   2.730
90334W        W51997  26.659  41.436   2.282
90335W        W51998  14.723   7.298  14.802
90336W        W51999  37.911  37.068  14.471
90337W        W52000  36.025  40.831   2.711
90338W        W52001  44.001   0.333  11.449
90339W        W52002   9.292  11.856   2.752
90340W        W52003  39.449   3.894  11.592
90341W        W52004  17.663   9.787  10.626
90342W        W52005  20.571   5.391   0.431
90343W        W52006  18.256   6.921  13.455
90344W        W52007  43.427   3.890   4.836
90345W        W52008  43.919   3.855   0.335
90346W        W52009  25.470   0.342  12.382
90347W        W52010  33.999  43.891  10.927
90348W        W52011  24.125  34.965  13.484
90349W        W52012  37.047  34.994   4.219
90350W        W52013  31.931   6.738   2.703
90351W        W52014  43.488  37.026  11.387
90352W        W52015  13.621  42.012   2.260
90353W        W52016  30.514   0.467   3.194
90354W        W52017  30.144   5.294   0.360
90355W        W52018  31.571  41.975  13.933
90356W        W52019  27.470  11.771  10.470
90357W        W52020  24.022  13.728   2.885
90358W        W52021  34.496   8.675  14.928
90359W        W52022  11.367  25.015  14.280
90360W        W52023  26.697  24.987   0.788
90361W        W52024   9.187  19.628  12.468
90362W        W52025  34.472  24.552  12.384
90363W        W52026  35.572   4.763  11.375
90364W        W52027   7.772  40.489  13.455
90365W        W52028  24.202  23.113  12.957
90366W        W52029  36.884  40.399  13.866
90367W        W52030  17.107  36.012  12.568
90368W        W52031  44.816  26.096  11.950
90369W        W52032  25.179  14.740  14.902
90370W        W52033   6.290  35.426  13.498
90371W        W52034  29.929  26.690   3.806
90372W        W52035  23.119  19.130  12.341
90373W        W52036  23.636  27.010  14.761
90374W        W52037  10.385  32.097  10.988
90375W        W52038  19.717  10.297  14.923
90376W        W52039  23.195  30.092  14.328
90377W        W52040  25.174  30.991   3.313
90378W        W52041  44.487   3.269  11.433
90379W        W52042  32.566   6.685  12.577
90380W        W52043  26.500  28.531  12.057
90381W        W52044  44.468   0.984   4.719
90382W        W52045  25.471   3.423   0.326
90383W        W52046  32.456   0.289  13.315
90384W        W52047  35.532   4.704  10.559
90385W        W52048   2.841  29.650  14.939
90386W        W52049  43.863  29.924   1.271
90387W        W52050  37.985  43.928   1.857
90388W        W52051  36.592  11.676   3.855
90389W        W52052  15.804  33.918  12.476
90390W        W52053  35.424  31.421  14.503
90391W        W52054   2.356  11.333  13.007
90392W        W52055  42.830   9.296  11.505
90393W        W52056   5.317  28.087   0.926
90394W        W52057  40.455   2.745   3.796
90395W        W52058  30.080   4.738  12.962
90396W        W52059  36.901  29.174  13.923
90397W        W52060  42.489  11.342  14.351
90398W        W52061  10.638   9.350  10.572
90399W        W52062  30.627  28.508  14.475
90400W        W52063  28.041   9.366   2.874
90401W        W52064  14.249   0.761   4.182
90402W        W52065  32.124   3.461  13.020
90403W        W52066  20.057   8.808   2.872
90404W        W52067  37.524  19.121  10.408
90405W        W52068  16.088   4.940   4.228
90406W        W52069  28.015   4.401   9.980
90407W        W52070  24.517  37.564   4.120
90408W        W52071   0.406  31.136   3.243
90409W        W52072  11.210  36.577  12.949
90410W        W52073  33.386   7.284  11.958
90411W        W52074  36.462  21.179  12.571
90412W        W52075  29.033  34.599  11.988
90413W        W52076   9.300  22.603  13.800
90414W        W52077  15.653   6.750   4.248
90415W        W52078  42.437  38.025   0.268
90416W        W52079  22.034  34.110   2.769
90417W        W52080  30.156   0.776   2.831
90418W        W52081  44.389  14.796   1.933
90419W        W52082  42.850  19.086  14.021
90420W        W52083  27.483  32.889   1.729
90421W        W52084   8.747   5.261  13.976
90422W        W52085   7.253   1.440  11.458
90423W        W52086  30.557  32.925   3.682
90424W        W52087  31.471  21.104  11.444
90425W        W52088  34.468  32.080   1.226
90426W        W52089  42.867   6.790  12.948
90427W        W52090  36.412  35.078  12.388
90428W        W52091  11.360  27.062   2.673
90429W        W52092  20.084   0.825  13.015
90430W        W52093  21.204  27.096   1.415
90431W        W52094   0.881   3.410  12.479
90432W        W52095  12.831   8.221   9.480
90433W        W52096  40.527  11.203  11.480
90434W        W52097  29.633   5.893   0.462
90435W        W52098  40.468  12.193   3.773
90436W        W52099   8.866  14.687  11.919
90437W        W52100  43.834  33.913   3.849
90438W        W52101  10.345  41.853   2.178
90439W        W52102  23.692  21.697  12.924
90440W        W52103  39.903  15.744   2.879
90441W        W52104  12.176   8.705  12.048
90442W        W52105   7.758  26.099  14.429
90443W        W52106  30.125   3.251   0.896
90444W        W52107  38.893  12.691  13.352
90445W        W52108  14.734  16.124   3.858
90446W        W52109  40.318   6.202   4.302
90447W        W52110  24.648   3.754   5.211
90448W        W52111  24.513  14.688  12.552
90449W        W52112   0.938   3.872  10.634
90450W        W52113  11.133   9.645   5.136
90451W        W52114  41.532  12.654   9.495
90452W        W52115  14.200  25.514  14.284
90453W        W52116  29.626  32.528  12.827
90454W        W52117   4.260  37.894  14.329
90455W        W52118   5.903  12.758  10.547
90456W        W52119  12.772  43.292   4.321
90457W        W52120   0.954  33.564  10.146
90458W        W52121  10.240   4.938   2.349
90459W        W52122  34.524   1.887   4.278
90460W        W52123   2.803  10.319  11.023
90461W        W52124  20.627   3.407  13.014
90462W        W52125  21.722  10.250  14.953
90463W        W52126  16.311  36.034   1.319
90464W        W52127  10.262  27.168   4.633
90465W        W52128  17.638   7.385   2.819
90466W        W52129   2.957  38.045   3.789
90467W        W52130  29.080  36.880  10.598
90468W        W52131  10.175  24.003   4.237
90469W        W52132  13.811  16.725  11.081
90470W        W52133  18.734  16.739  14.994
90471W        W52134  44.831  21.542  13.459
90472W        W52135   0.379   6.224   0.297
90473W        W52136   4.782  36.575   5.241
90474W        W52137  42.448  32.885   3.323
90475W        W52138  14.632   9.203  12.359
90476W        W52139  27.074  27.604  12.460
90477W        W52140   2.898  27.497   4.257
90478W        W52141  41.317  37.338  12.859
90479W        W52142  41.994  35.502  13.799
90480W        W52143  23.577  44.904  11.445
90481W        W52144  21.732  35.970   0.275
90482W        W52145  34.587  22.215   2.189
90483W        W52146  24.180  16.096  12.841
90484W        W52147  32.536  17.199  13.544
90485W        W52148  19.588  18.633  13.851
90486W        W52149  31.589  36.079   4.838
90487W        W52150  38.532  29.605   3.252
90488W        W52151   9.667   8.236  14.028
90489W        W52152  13.733   4.788   3.752
90490W        W52153  42.335  11.863   4.298
90491W        W52154  40.840  34.527  14.832
90492W        W52155  22.089  26.629  12.345
90493W        W52156   5.886  34.462  14.318
90494W        W52157   5.319  10.690   0.803
90495W        W52158   0.303  18.672  13.834
90496W        W52159   9.644  29.036  14.794
90497W        W52160  41.005   1.353   4.158
90498W        W52161  34.079   8.165  10.532
90499W        W52162  27.499  37.994   0.809
90500W        W52163  35.506  30.613  12.898
90501W        W52164  12.690  34.022   2.298
90502W        W52165   9.694  44.000  12.883
90503W        W52166  15.681  27.520   0.813
90504W        W52167  21.028  41.938   1.431
90505W        W52168  23.521  17.725   2.821
90506W        W52169  22.206  40.539   1.804
90507W        W52170  13.106  14.683  10.546
90508W        W52171  14.776  34.916  11.479
90509W        W52172   8.378  37.340  10.147
90510W        W52173  36.582   6.339  14.810
90511W        W52174  16.698  40.312  12.555
90512W        W52175  33.098  27.525   0.442
90513W        W52176  33.466  26.566  14.858
90514W        W52177   6.187  14.325   2.267
90515W        W52178  10.646   5.871   3.824
90516W        W52179  30.931   6.791   1.864
90517W        W52180  18.200  31.603   4.830
90518W        W52181  19.071  37.914   2.199
90519W        W52182  29.653  22.577   0.926
90520W        W52183  40.377  39.468   0.385
90521W        W52184  19.631  12.175  14.417
90522W        W52185  31.404  42.874  14.012
90523W        W52186  10.141  31.952  14.491
90524W        W52187  41.017   6.307   3.194
90525W        W52188  33.041   9.359  13.974
90526W        W52189   6.219  23.613   3.204
90527W        W52190   7.762   8.787  11.019
90528W        W52191  14.221  31.613   0.795
90529W        W52192  41.299  36.481   0.278
90530W        W52193  36.493  24.220  13.917
90531W        W52194  15.302  39.868   0.949
90532W        W52195  26.566   9.875  10.426
90533W        W52196  30.557  27.187   1.227
90534W        W52197   5.798  38.027  11.406
90535W        W52198  26.486  12.617  12.417
90536W        W52199  28.521  27.450  12.372
90537W        W52200  44.304   5.329   3.648
90538W        W52201  22.720  40.323  14.491
90539W        W52202  28.588  26.642  13.430
90540W        W52203  16.256  37.834  12.912
90541W        W52204  12.815  40.923   1.856
90542W        W52205  18.634  38.431   2.293
90543W        W52206  42.480   3.853  13.886
90544W        W52207  41.488  35.569  11.057
90545W        W52208  28.466  27.976  14.000
90546W        W52209   1.935  44.458  14.507
90547W        W52210   5.691   6.343  14.943
90548W        W52211  36.942  20.123  11.129
90549W        W52212  14.304  23.647   4.679
90550W        W52213  24.613   8.250  10.946
90551W        W52214   3.313  41.413   0.940
90552W        W52215  18.754  42.995  14.772
90553W        W52216   5.306   7.802   1.230
90554W        W52217   8.807  40.326  10.601
90555W        W52218  19.060  31.010   2.711
90556W        W52219  44.303   0.324   1.278
90557W        W52220  20.272  39.863  14.307
90558W        W52221  16.189  30.991   3.233
90559W        W52222   0.813   9.797  13.539
90560W        W52223  37.451   2.763   1.735
90561W        W52224  36.013   7.667   5.274
90562W        W52225  43.450  14.219   3.825
90563W        W52226  25.987  10.695   0.860
90564W        W52227  44.383  23.663  13.933
90565W        W52228  10.864  35.082  14.848
90566W        W52229  23.566  13.327  14.846
90567W        W52230  26.035  28.621  12.900
90568W        W52231  22.563  22.544  13.998
90569W        W52232  11.802  23.518  14.825
90570W        W52233  21.160  29.931  14.893
90571W        W52234  30.594   4.794   0.852
90572W        W52235  22.094  44.491  14.828
90573W        W52236  13.787  43.871   4.331
90574W        W52237  25.962  10.654   4.686
90575W        W52238  25.143  41.928   0.443
90576W        W52239  23.987  18.758  11.096
90577W        W52240   8.816  33.916  12.958
90578W        W52241  24.513  22.051   0.801
90579W        W52242  31.004  18.790  14.301
90580W        W52243   2.419  38.372   3.339
90581W        W52244   5.912   3.416   0.448
90582W        W52245  34.593  36.855   0.726
90583W        W52246  17.216  26.190  10.598
90584W        W52247  17.148  42.438  11.457
90585W        W52248  16.121   5.921  13.844
90586W        W52249   2.434  12.130   0.375
90587W        W52250  34.587  35.547  13.884
90588W        W52251   8.327  37.384  12.359
90589W        W52252  21.105  43.303  13.395
90590W        W52253  44.492  32.968  10.943
90591W        W52254  17.230   4.293  14.028
90592W        W52255  11.729   3.298  14.928
90593W        W52256   7.388  43.479  12.890
90594W        W52257  43.400  37.872   2.679
90595W        W52258  18.248  44.850  11.517
90596W        W52259  44.454   0.269  13.504
90597W        W52260   1.393  43.923   4.342
90598W        W52261  13.690   9.816   4.736
90599W        W52262  24.683  31.406  13.407
90600W        W52263  43.846  41.983   3.744
90601W        W52264   9.701   5.831   2.730
90602W        W52265  35.042  41.911  12.444
90603W        W52266  33.985  16.587   2.747
90604W        W52267  30.569  26.187   4.345
90605W        W52268   8.844  24.153   2.234
90606W        W52269   4.816  11.833   4.785
90607W        W52270  19.172  11.750  14.918
90608W        W52271   5.721  13.831   2.764
90609W        W52272  30.138  37.888  13.379
90610W        W52273  37.405  28.095   0.820
90611W        W52274   1.976   2.329   1.226
90612W        W52275  17.088  35.482  11.396
90613W        W52276  25.692  25.677   3.323
90614W        W52277  39.491   7.191   2.717
90615W        W52278  44.876  44.917   3.187
90616W        W52279  15.287   1.317   4.772
90617W        W52280  44.410  43.907   2.190
90618W        W52281  13.313   3.769   4.649
90619W        W52282  35.520  14.248  12.432
90620W        W52283  36.550  11.345  14.416
90621W        W52284  39.836  16.776  14.324
90622W        W52285  40.517  27.688  11.881
90623W        W52286  13.239  13.704   3.179
90624W        W52287   4.757  38.982  11.120
90625W        W52288  22.622   5.421   4.613
90626W        W52289  18.170  41.932   2.384
90627W        W52290  39.833   3.365   1.262
90628W        W52291   2.346  29.543   2.207
90629W        W52292  41.012  35.603   4.643
90630W        W52293  38.343  27.564   0.878
90631W        W52294  15.788  40.044  11.534
90632W        W52295  10.379  38.825  13.900
90633W        W52296  29.479  18.212   1.419
90634W        W52297  24.023   3.760   5.265
90635W        W52298  42.348  20.693  11.945
90636W        W52299  24.534  13.755   1.217
90637W        W52300   9.278  30.472   4.264
90638W        W52301  37.464   2.367  10.492
90639W        W52302   3.710  31.000   2.399
90640W        W52303  11.319  10.826   4.233
90641W        W52304  30.493  17.266  11.871
90642W        W52305  32.542  23.722  11.519
90643W        W52306  31.523  24.041  13.812
90644W        W52307   5.841  41.477  11.053
90645W        W52308  16.143  24.205  11.011
90646W        W52309  30.909   1.878  12.501
90647W        W52310  20.686   2.893  12.047
90648W        W52311  38.025   4.259   4.632
90649W        W52312  33.085  38.350  11.964
90650W        W52313   6.840   6.865   1.914
90651W        W52314   4.212  17.236  13.355
90652W        W52315  22.559  17.766   3.174
90653W        W52316  44.799  41.307   4.241
90654W        W52317  39.405  29.965  10.583
90655W        W52318  37.411  29.042  11.493
90656W        W52319  13.750  17.633  11.885
90657W        W52320  19.591  42.032   0.378
90658W        W52321  20.261  20.234  14.486
90659W        W52322  25.502  44.803  12.566
90660W        W52323   1.974  26.175  13.892
90661W        W52324  35.964  35.097  10.581
90662W        W52325  44.376   2.245   2.883
90663W        W52326  23.995  38.957  10.123
90664W        W52327  41.957  26.670  14.381
90665W        W52328  19.188  31.059   1.237
90666W        W52329  41.845  20.087  14.305
90667W        W52330   8.377  39.002  14.456
90668W        W52331  19.204  13.755   3.801
90669W        W52332  32.615  21.542  12.363
90670W        W52333  22.652  34.412  13.864
90671W        W52334  35.957  20.057   3.799
90672W        W52335   0.775   2.870   2.816
90673W        W52336  31.428  28.980   0.356
90674W        W52337  38.910  34.880  12.500
90675W        W52338  15.295   2.884  14.476
90676W        W52339  31.986  36.020   4.700
90677W        W52340  30.427  30.917   3.811
90678W        W52341   3.871  27.472  13.064
90679W        W52342  21.713  30.545   2.870
90680W        W52343  30.942  11.767   4.751
90681W        W52344  38.424  20.140  12.352
90682W        W52345  30.618   7.184  14.380
90683W        W52346  20.573  19.108  14.345
90684W        W52347  29.998  16.781   0.329
90685W        W52348  13.181  15.219  14.930
90686W        W52349  33.100  17.217   0.254
90687W        W52350  40.404  35.562   2.690
90688W        W52351  19.257  15.628   3.320
90689W        W52352  34.606   8.862   3.351
90690W        W52353  14.819  35.415   1.873
90691W        W52354   8.304  38.374   1.341
90692W        W52355   2.879  20.760   2.830
90693W        W52356  24.591  17.147  14.506
90694W        W52357  31.064  21.651  10.605
90695W        W52358  15.246  34.964  11.100
90696W        W52359  29.060  12.309  11.019
90697W        W52360  28.053  28.151   1.420
90698W        W52361  11.233  10.182   0.397
90699W        W52362  44.777   9.240   4.828
90700W        W52363  39.920  20.726  11.466
90701W        W52364  26.538  42.834  10.053
90702W        W52365  40.016  34.591  12.469
90703W        W52366   9.849   2.358  10.637
90704W        W52367  38.968  29.642   3.342
90705W        W52368  37.958  39.936  14.502
90706W        W52369  12.181  10.219   3.334
90707W        W52370  25.065  27.643   3.374
90708W        W52371   4.833  34.457  13.896
90709W        W52372  11.769  22.090  10.501
90710W        W52373  44.457  19.718  12.024
90711W        W52374  31.426  43.458  11.992
90712W        W52375  39.494  44.466   2.766
90713W        W52376   6.823   3.256  10.477
90714W        W52377  21.068   6.784   0.272
90715W        W52378  25.479   5.242  12.854
90716W        W52379  30.640  24.581   3.331
90717W        W52380  38.390  10.361   2.831
90718W        W52381  12.849  38.957  13.379
90719W        W52382  23.084   8.730  13.496
90720W        W52383  18.186  18.256  12.973
90721W        W52384  36.083   1.331   0.301
90722W        W52385  18.145  42.340  13.953
90723W        W52386  19.210  29.161   4.737
90724W        W52387   7.677  43.898   4.165
90725W        W52388   1.469  43.838  10.440
90726W        W52389  12.252  38.064   3.667
90727W        W52390  14.319  28.657   4.622
90728W        W52391  34.545  13.830  12.880
90729W        W52392  42.832  14.277  14.002
90730W        W52393   2.285   5.887   3.348
90731W        W52394  10.347  24.564   4.774
90732W        W52395  38.330  30.921  13.350
90733W        W52396  13.769  10.313   3.161
90734W        W52397  13.644   0.267   2.251
90735W        W52398  10.787   7.876  12.895
90736W        W52399   1.417  26.155   0.408
90737W        W52400  41.532  34.978   4.129
90738W        W52401  33.564  31.504   4.839
90739W        W52402  19.534  25.603  14.456
90740W        W52403   2.409   9.315  13.888
90741W        W52404  12.302  13.801  14.921
90742W        W52405  18.681  19.242   4.246
90743W        W52406  32.398  30.425   5.176
90744W        W52407  28.139  23.151  12.074
90745W        W52408   6.780  27.977  12.023
90746W        W52409   4.382  25.117  13.980
90747W        W52410   1.359  23.537   3.243
90748W        W52411  34.115   2.261  10.962
90749W        W52412   2.259   8.740   4.679
90750W        W52413  28.103  29.950   1.894
90751W        W52414  32.057   0.428  14.810
90752W        W52415  36.356  16.661  11.876
90753W        W52416  43.877   4.729  12.989
90754W        W52417   5.378   6.848   0.778
90755W        W52418  15.101  27.012   4.713
90756W        W52419   4.326  13.200   2.864
90757W        W52420   1.303   2.835  11.468
90758W        W52421  16.231  43.460   2.866
90759W        W52422   4.207  43.397   2.690
90760W        W52423  16.233  35.097   1.834
90761W        W52424  10.342  44.887  14.980
90762W        W52425  13.134  13.176  12.396
90763W        W52426  27.944  40.312  12.993
90764W        W52427   4.762   4.441   3.376
90765W        W52428  15.208   0.827   2.845
90766W        W52429  30.519  22.151  10.429
90767W        W52430  17.645  16.290   4.827
90768W        W52431   7.397   2.898  11.918
90769W        W52432  16.722  34.964   4.661
90770W        W52433  15.268  28.015  10.942
90771W        W52434   4.793  36.975   5.223
90772W        W52435  41.857  19.067  12.964
90773W        W52436  31.601   4.324  10.497
90774W        W52437  16.730  26.654   4.832
90775W        W52438  23.707   8.849   1.913
90776W        W52439  13.843  39.407  13.940
90777W        W52440  14.816   9.727   2.188
90778W        W52441  35.488  34.970   0.337
90779W        W52442  12.121  30.923  10.961
90780W        W52443  42.967  23.194   2.238
90781W        W52444   2.912   7.318  11.996
90782W        W52445  14.683  40.529   1.215
90783W        W52446  32.448  20.672   1.765
90784W        W52447  40.841  10.345   2.747
90785W        W52448  19.243   6.328   1.452
90786W        W52449   9.325  36.855   2.853
90787W        W52450  20.236  16.217  13.424
90788W        W52451  23.024  24.041   4.215
90789W        W52452  22.587  19.567   1.307
90790W        W52453  32.909  24.168   0.374
90791W        W52454   9.387  18.611  13.860
90792W        W52455  30.604  26.497  13.360
90793W        W52456  41.902  25.478  13.457
90794W        W52457  31.550   7.359  14.805
90795W        W52458  11.272  24.989   0.957
90796W        W52459   6.364   9.395  14.031
90797W        W52460  30.651  25.134  14.372
90798W        W52461   1.345   0.284  10.952
90799W        W52462  42.012  25.528   3.709
90800W        W52463  42.318  20.615  10.509
90801W        W52464   0.413  38.045   1.833
90802W        W52465   5.205  20.210  12.075
90803W        W52466   2.725  19.266   1.325
90804W        W52467  12.708  33.034   4.223
90805W        W52468  22.147  21.552   3.683
90806W        W52469  22.680   1.737  12.833
90807W        W52470  19.671  38.037  14.880
90808W        W52471   7.758  35.945  14.458
90809W        W52472  20.702  34.517   4.324
90810W        W52473  28.985   5.396  13.887
90811W        W52474  17.580   1.278  12.079
90812W        W52475  13.224  24.142  14.994
90813W        W52476  28.570  26.461   4.770
90814W        W52477  15.755  17.256   1.356
90815W        W52478  23.636   3.744   1.248
90816W        W52479   0.778  29.506   4.644
90817W        W52480  33.883  24.500  14.840
90818W        W52481  13.131  18.235   1.235
90819W        W52482  11.784  32.415   4.215
90820W        W52483   0.351  18.166   1.908
90821W        W52484   3.393  22.225  13.373
90822W        W52485  24.127  29.050  14.365
90823W        W52486  38.345  21.130  11.047
90824W        W52487  15.758   8.250  11.501
90825W        W52488  35.496  12.629   0.938
90826W        W52489   8.250   4.372  13.898
90827W        W52490  43.020  28.534  13.958
90828W        W52491  33.423  12.125   4.255
90829W        W52492   0.781  18.193   4.647
90830W        W52493  22.141   8.311  11.611
90831W        W52494  32.937  39.048  12.458
90832W        W52495   4.869  31.433  13.546
90833W        W52496  11.803  16.221  11.007
90834W        W52497  43.987  23.140  14.801
90835W        W52498  13.767  12.622  14.827
90836W        W52499  27.563  19.099  11.497
90837W        W52500   9.330   3.940  14.883
90838W        W52501  11.664  32.114   4.608
90839W        W52502  32.008  26.512   0.826
90840W        W52503  29.081   7.797  11.478
90841W        W52504  18.221  35.540  14.374
90842W        W52505  44.890   2.846  13.902
90843W        W52506  23.594  42.790  10.950
90844W        W52507  32.601   9.755  14.514
90845W        W52508  29.961  20.753   2.185
90846W        W52509  41.931  37.977   4.809
90847W        W52510  39.811  23.058  14.369
90848W        W52511  43.932  28.174  11.094
90849W        W52512  35.516  34.914   0.957
90850W        W52513  29.924   5.335   1.306
90851W        W52514   3.270  18.623  11.121
90852W        W52515  34.509  39.919  10.601
90853W        W52516   6.870   6.687  14.509
90854W        W52517  13.228  26.535  14.836
90855W        W52518  16.740  39.942  12.861
90856W        W52519  42.470  26.054  11.907
90857W        W52520  43.321  41.438   1.352
90858W        W52521  31.983  31.409   3.745
90859W        W52522  20.563  16.630   1.934
90860W        W52523   7.743  28.530   3.372
90861W        W52524   7.184  39.845   4.129
90862W        W52525  44.008  17.556  12.440
90863W        W52526  42.971   0.747   3.828
90864W        W52527  40.469   4.737  11.082
90865W        W52528   0.341  40.868  11.112
90866W        W52529   3.421  19.176   0.821
90867W        W52530  10.682  11.161  10.062
90868W        W52531   6.376  18.255  14.797
90869W        W52532  14.693  19.198   0.865
90870W        W52533  42.485  25.063   0.801
90871W        W52534  15.155   2.402   0.267
90872W        W52535  24.491  38.396   4.199
90873W        W52536  10.144  40.322   3.650
90874W        W52537  19.234   8.801  13.993
90875W        W52538   6.257  40.428  14.906
90876W        W52539  28.058   8.741   3.182
90877W        W52540  14.185  18.597   3.696
90878W        W52541  13.817  30.473   3.300
90879W        W52542  27.940  39.988  10.443
90880W        W52543  10.858  36.368  14.920
90881W        W52544  19.600  34.589  12.449
90882W        W52545   9.366   7.851  12.567
90883W        W52546   1.247  12.190  13.373
90884W        W52547   8.319  15.223   2.258
90885W        W52548  18.773  27.501  13.341
90886W        W52549  30.577  38.916   2.686
90887W        W52550  25.155  13.648  13.823
90888W        W52551  16.652  44.758   2.188
90889W        W52552  25.683  27.060   1.820
90890W        W52553  29.929  19.583  14.339
90891W        W52554  37.063  30.424  14.428
90892W        W52555   3.226  43.446  13.807
90893W        W52556  42.399   6.772   4.203
90894W        W52557  19.618  10.304  14.031
90895W        W52558  43.311   3.316   1.451
90896W        W52559  20.209  40.029  12.418
90897W        W52560  30.940  29.050  13.981
90898W        W52561  22.999  38.900  10.540
90899W        W52562  36.041  44.779   1.837
90900W        W52563   3.290  26.565  13.457
90901W        W52564  11.132   9.337  11.566
90902W        W52565   3.299  40.986   1.710
90903W        W52566  10.798  29.034   1.797
90904W        W52567  33.506  27.645  14.014
90905W        W52568  27.066  42.321  10.999
90906W        W52569  44.866  15.813  10.443
90907W        W52570  31.128  34.536  13.529
90908W        W52571  18.278  42.358  12.914
90909W        W52572  29.124  16.266  14.031
90910W        W52573  40.388  18.701  13.835
90911W        W52574  13.841  11.322  13.963
90912W        W52575  18.143  23.186   2.362
90913W        W52576   9.761   6.729   4.665
90914W        W52577   2.431  31.115   4.685
90915W        W52578  35.054  41.001   3.180
90916W        W52579  38.061  33.488   0.460
90917W        W52580  31.007   2.939  11.932
90918W        W52581  27.609  39.906   0.926
90919W        W52582  42.905  13.820   2.330
90920W        W52583  44.458   0.307   0.882
90921W        W52584  37.513  12.217   0.946
90922W        W52585  28.544  39.915  13.050
90923W        W52586  13.320  11.760  12.494
90924W        W52587  33.934  23.585   2.692
90925W        W52588  17.786  31.035  10.600
90926W        W52589  16.083  32.435   2.204
90927W        W52590  28.596  41.022   2.770
90928W        W52591  11.358  19.080  10.595
90929W        W52592  12.823  32.416  11.893
90930W        W52593   5.786  27.576   2.196
90931W        W52594  44.385  24.533   3.349
90932W        W52595  38.827  20.139  13.928
90933W        W52596   6.876  21.537  14.492
90934W        W52597  30.652  20.274  12.926
90935W        W52598  42.346  18.175   0.966
90936W        W52599  21.726  15.316  11.423
90937W        W52600  19.732  35.460   4.145
90938W        W52601  32.056   6.235   1.761
90939W        W52602  37.523  29.460   5.230
90940W        W52603  23.038  36.077   3.269
90941W        W52604  12.297   4.700   3.224
90942W        W52605  10.306  15.191  11.444
90943W        W52606   3.715   4.213  10.463
90944W        W52607   3.940  13.773  14.967
90945W        W52608  14.199  17.597  11.898
90946W        W52609   8.799  17.213  12.410
90947W        W52610  37.337   0.258  14.910
90948W        W52611   4.796  42.978  12.474
90949W        W52612  11.204  21.712  10.935
90950W        W52613   5.436   2.294   3.237
90951W        W52614  19.626  14.171  11.106
90952W        W52615   1.885   6.327   0.276
90953W        W52616  14.307   6.278   5.181
90954W        W52617  21.719  12.842   2.407
90955W        W52618  30.918  25.156  14.441
90956W        W52619   3.874   8.688   4.610
90957W        W52620  15.200  22.679   2.408
90958W        W52621  22.592  34.117   0.392
90959W        W52622  39.870   8.326   0.800
90960W        W52623  16.283   5.358   3.338
90961W        W52624  16.203  42.875   0.366
90962W        W52625  40.369  10.151   4.139
90963W        W52626  24.547   7.710   0.951
90964W        W52627  13.639  10.276  10.479
90965W        W52628  35.986   5.261  11.113
90966W        W52629  41.357  13.642  12.359
90967W        W52630  38.489  10.678   4.707
90968W        W52631  40.935  32.561  10.954
90969W        W52632  15.730  31.444   3.831
90970W        W52633   6.855  27.647   3.831
90971W        W52634  22.595  14.130  10.558
90972W        W52635  30.441  28.542  11.586
90973W        W52636  13.765  39.423  10.085
90974W        W52637  14.162   2.728   3.183
90975W        W52638  33.495  12.856   4.223
90976W        W52639  26.658  40.947  10.607
90977W        W52640  42.021  42.956   4.155
90978W        W52641  37.563  10.374   1.434
90979W        W52642  40.465  24.608  12.047
90980W        W52643   2.349  34.455  13.341
90981W        W52644  30.040  34.570   3.720
90982W        W52645  16.732   6.404   4.213
90983W        W52646   3.843  11.731   3.700
90984W        W52647  43.975  12.203  14.296
90985W        W52648  12.835  40.050  13.318
90986W        W52649  43.465  25.966   2.749
90987W        W52650  13.694   0.855  12.406
90988W        W52651  11.162  23.491   2.828
90989W        W52652  38.333  26.098  11.442
90990W        W52653  14.714  30.058   2.418
90991W        W52654  37.394  38.958  13.937
90992W        W52655  11.770  38.821   4.598
90993W        W52656  11.180  15.587  12.382
90994W        W52657   0.766  17.130   0.459
90995W        W52658  21.248  14.335   5.261
90996W        W52659  10.832  42.801  12.517
90997W        W52660  21.549  14.288  11.563
90998W        W52661  10.165  35.596   2.216
90999W        W52662   0.824   6.922   3.261
91000W        W52663  18.226   2.251   3.852
91001W        W52664  32.514  34.098   4.331
91002W        W52665  21.688  21.599  11.438
91003W        W52666  29.654   3.423   0.434
91004W        W52667   0.493  43.818  12.027
91005W        W52668  16.589  37.560  13.364
91006W        W52669  13.623  18.700  13.853
91007W        W52670  29.529   3.328  11.600
91008W        W52671  28.105  19.691  10.568
91009W        W52672  43.770   7.292   1.237
91010W        W52673  32.487  12.726  12.365
91011W        W52674  11.714  15.615   3.685
91012W        W52675  23.085  13.691   0.806
91013W        W52676  41.943  21.717  13.812
91014W        W52677  43.839  32.133   4.276
91015W        W52678  35.107  12.856  11.385
91016W        W52679  23.118   0.259   1.334
91017W        W52680  12.843   5.709   2.292
91018W        W52681  25.676  25.984   1.854
91019W        W52682  12.294  29.517  13.392
91020W        W52683  35.393   7.850   3.161
91021W        W52684   2.304  21.518   3.184
91022W        W52685  39.880   7.791  13.913
91023W        W52686   5.793  30.505  13.317
91024W        W52687  30.515  44.449  12.875
91025W        W52688  36.905  36.570  11.121
91026W        W52689  38.463   5.817   4.817
91027W        W52690  33.614  22.526   3.728
91028W        W52691   0.979  17.747  11.390
91029W        W52692  22.580  33.509   9.953
91030W        W52693  36.008  31.938  12.502
91031W        W52694  14.198  43.786  11.047
91032W        W52695  18.764  37.450   3.231
91033W        W52696  22.507  16.618  12.068
91034W        W52697  39.476  11.845  11.597
91035W        W52698  22.655  34.039  14.961
91036W        W52699  17.766  38.861  11.568
91037W        W52700  34.501  35.476  11.059
91038W        W52701  29.571   9.230   1.789
91039W        W52702   2.375  31.999   4.301
91040W        W52703   5.216   3.363  14.488
91041W        W52704  36.386  38.397   0.384
91042W        W52705  44.462   7.302   5.775
91043W        W52706   6.232  15.777   0.851
91044W        W52707  17.070  26.970   4.635
91045W        W52708  41.489  38.022   2.244
91046W        W52709  28.512  19.545   0.395
91047W        W52710  38.493  19.779   3.677
91048W        W52711  32.414  38.013   1.753
91049W        W52712  38.857  39.822   0.384
91050W        W52713  41.041  18.572   0.331
91051W        W52714  20.187  11.154  12.932
91052W        W52715  21.540  41.023   1.713
91053W        W52716  21.670  41.492   3.806
91054W        W52717  18.545  40.431   2.316
91055W        W52718  27.650  24.078   3.691
91056W        W52719  43.913  13.771  14.310
91057W        W52720  41.371  42.922   4.780
91058W        W52721  17.215  10.826   1.698
91059W        W52722  43.948  22.252   4.350
91060W        W52723  11.761   4.408   2.849
91061W        W52724   1.467  29.981   1.806
91062W        W52725   7.222  33.513  10.915
91063W        W52726  44.942  13.209  12.501
91064W        W52727  39.012  19.572  10.140
91065W        W52728  35.065  14.270  10.061
91066W        W52729  28.947  19.162  11.468
91067W        W52730   9.724  16.697  12.442
91068W        W52731  26.143  25.497  11.972
91069W        W52732  35.464   3.456  11.454
91070W        W52733  14.173  37.995  11.379
91071W        W52734  28.498   3.713  13.453
91072W        W52735  43.888  40.016  14.775
91073W        W52736  14.791  26.046   1.774
91074W        W52737  21.090  32.548   1.915
91075W        W52738  30.987  30.962   1.386
91076W        W52739  42.492   5.370   1.326
91077W        W52740  32.491   6.900  12.007
91078W        W52741  11.226  29.997  12.424
91079W        W52742   4.262  25.000  14.846
91080W        W52743  33.984  10.777   2.289
91081W        W52744  38.874  39.511  11.572
91082W        W52745  15.745  41.523   1.307
91083W        W52746  31.580  25.706  11.893
91084W        W52747  34.032  41.333  11.027
91085W        W52748  27.463  39.064   3.770
91086W        W52749  32.406  13.732  12.893
91087W        W52750  21.577   1.895  10.491
91088W        W52751   3.424   9.672   2.864
91089W        W52752  34.952  43.300   4.688
91090W        W52753  35.888  25.491   0.830
91091W        W52754  23.511  44.345  10.973
91092W        W52755  10.207  19.700   3.703
91093W        W52756  44.780  14.612   2.230
91094W        W52757  26.169  17.307  13.917
91095W        W52758   2.406  25.000  12.445
91096W        W52759  20.580  26.180   2.765
91097W        W52760  12.688  19.282   4.713
91098W        W52761   8.818  40.050  13.339
91099W        W52762  27.653  28.104   0.260
91100W        W52763  18.212  44.497  12.386
91101W        W52764   2.748  35.599   4.161
91102W        W52765   8.236   4.844  12.086
91103W        W52766   9.188   1.297  10.958
91104W        W52767  10.729  33.617   2.811
91105W        W52768  43.396  25.114   1.920
91106W        W52769  26.135   2.324   2.683
91107W        W52770  11.346  30.942  14.319
91108W        W52771  36.590  44.833  14.971
91109W        W52772  26.202  36.950   4.130
91110W        W52773  38.878  37.845  11.881
91111W        W52774  22.082   9.766  11.597
91112W        W52775  42.505  41.532  12.093
91113W        W52776  38.561   0.840  11.445
91114W        W52777  35.556  34.985  10.979
91115W        W52778  22.638   8.385  10.533
91116W        W52779  40.910  25.677   1.406
91117W        W52780  24.618  37.945   4.822
91118W        W52781  15.632   1.465   1.440
91119W        W52782   8.266   9.310  10.604
91120W        W52783   8.664  28.083   0.811
91121W        W52784  24.631  16.772  11.949
91122W        W52785  23.163  16.744   4.179
91123W        W52786  43.919   1.466  11.872
91124W        W52787  32.931   3.778  14.807
91125W        W52788  25.003   0.391  12.048
91126W        W52789   4.262  18.250  11.591
91127W        W52790   0.818  34.002   3.792
91128W        W52791   5.228   4.400   4.353
91129W        W52792  23.645  36.901   4.145
91130W        W52793   3.826   3.456  14.921
91131W        W52794  22.630  41.479  10.478
91132W        W52795  38.438  38.016   2.278
91133W        W52796  29.129  13.650   0.380
91134W        W52797   9.267  37.471  14.401
91135W        W52798  39.406  36.420  12.484
91136W        W52799  20.163   3.253  14.022
91137W        W52800  37.404  10.181   0.945
91138W        W52801  28.496  24.650  13.442
91139W        W52802  12.755   2.400   1.720
91140W        W52803  26.133  19.628  13.399
91141W        W52804  38.948  20.545  10.529
91142W        W52805  16.140  26.692  11.443
91143W        W52806  37.979  42.409  11.582
91144W        W52807  41.454  38.911  10.613
91145W        W52808   6.844  34.518  11.985
91146W        W52809  17.147  17.636   4.119
91147W        W52810  27.450  29.598   0.305
91148W        W52811  25.198   6.206  12.428
91149W        W52812  37.889  29.439   0.858
91150W        W52813  16.627  39.066  14.943
91151W        W52814  39.341  20.635  13.498
91152W        W52815  35.382   2.784  14.025
91153W        W52816  25.189   7.907  10.593
91154W        W52817  36.387   8.393   1.778
91155W        W52818   2.470  31.094  10.492
91156W        W52819   2.434  43.881  10.474
91157W        W52820  28.661  20.224   0.742
91158W        W52821  18.262  38.063  11.476
91159W        W52822  19.780  27.672   1.243
91160W        W52823  33.491   0.888   0.359
91161W        W52824  23.006  12.645   0.839
91162W        W52825  39.045  15.802  12.073
91163W        W52826  38.468  32.421  13.463
91164W        W52827  12.253  25.009  14.019
91165W        W52828   0.765  23.627   3.690
91166W        W52829   6.351  37.004   2.715
91167W        W52830  43.892  16.802  12.449
91168W        W52831  39.924  21.519  14.430
91169W        W52832  30.012  14.266   1.379
91170W        W52833  26.030  43.282   2.893
91171W        W52834   6.222   3.219   1.241
91172W        W52835  28.020   8.665  13.862
91173W        W52836   5.875  26.136  14.771
91174W        W52837  36.442   2.761   0.463
91175W        W52838  15.750   9.390  12.001
91176W        W52839  17.200   6.886   1.232
91177W        W52840   7.183   6.328  12.548
91178W        W52841  12.359   0.956   0.872
91179W        W52842   8.847  30.629   4.669
91180W        W52843  17.605  41.032   0.336
91181W        W52844  17.259  40.376  14.981
91182W        W52845  27.160  28.056  12.529
91183W        W52846  14.795  44.990  12.829
91184W        W52847  15.730  33.520  13.007
91185W        W52848   1.290  20.193   0.404
91186W        W52849   4.769   4.717  11.523
91187W        W52850  31.648   9.285  14.379
91188W        W52851  18.708  21.659   2.210
91189W        W52852  19.632  42.987   2.217
91190W        W52853  17.741  23.053  12.831
91191W        W52854  20.749   0.340   2.701
91192W        W52855  39.335  31.581  14.330
91193W        W52856   1.391   7.339  12.906
91194W        W52857  31.971   8.749  12.065
91195W        W52858  41.012  23.607  13.421
91196W        W52859  30.508  10.159   2.285
91197W        W52860  17.252  25.978   2.239
91198W        W52861   6.236  11.698   3.703
91199W        W52862  23.227  44.915  10.517
91200W        W52863  33.917  37.940  10.595
91201W        W52864  15.321  42.839   4.779
91202W        W52865  24.981   8.375  13.371
91203W        W52866  41.525  18.653  12.993
91204W        W52867  25.159  30.439  14.366
91205W        W52868  38.386  43.003  13.948
91206W        W52869   1.929  22.230  13.445
91207W        W52870  18.156  33.576   1.849
91208W        W52871  15.149  21.043  12.917
91209W        W52872  37.537  28.121   2.674
91210W        W52873   7.341  35.107   2.206
91211W        W52874   7.254  21.695  13.450
91212W        W52875  28.680   8.212  10.521
91213W        W52876  29.555  37.432  11.565
91214W        W52877  12.714  22.214   0.313
91215W        W52878  32.039  18.072  14.364
91216W        W52879  11.193  15.741  14.514
91217W        W52880  28.540  32.939  13.465
91218W        W52881  32.067  30.565  11.414
91219W        W52882   1.915  13.279   0.853
91220W        W52883  28.591  38.382   3.222
91221W        W52884  16.687  41.991  12.871
91222W        W52885  37.382  28.035   2.319
91223W        W52886   0.751  35.084   2.718
91224W        W52887  35.107  14.129  12.452
91225W        W52888   4.385   2.797  11.000
91226W        W52889  14.632  26.686  13.030
91227W        W52890  44.772   8.840   1.748
91228W        W52891  39.557  15.321   1.392
91229W        W52892   9.325   3.912   0.262
91230W        W52893  23.620   3.426  10.500
91231W        W52894  13.790  35.018   5.568
91232W        W52895  10.668  37.535  10.600
91233W        W52896   3.252  16.160  11.026
91234W        W52897  20.590  13.272   2.380
91235W        W52898   2.373  22.678   3.718
91236W        W52899   3.900  32.473   4.273
91237W        W52900  23.629  29.003  14.907
91238W        W52901  42.413  32.112  11.991
91239W        W52902  14.306  37.465   1.755
91240W        W52903   7.849  16.747   0.264
91241W        W52904  41.929  37.034   1.837
91242W        W52905  18.200  18.182  14.485
91243W        W52906  32.517  17.299   0.417
91244W        W52907  42.360  25.155  12.926
91245W        W52908  21.749   1.947   3.207
91246W        W52909  40.451  24.172   2.216
91247W        W52910  42.394  40.331   1.332
91248W        W52911   1.754  41.803   1.304
91249W        W52912  33.106   7.399  11.903
91250W        W52913  33.954  29.490   0.740
91251W        W52914  30.530   1.371   1.422
91252W        W52915   9.367  28.060   4.816
91253W        W52916  26.058   8.241   2.771
91254W        W52917  25.182  31.510   0.484
91255W        W52918  31.956  10.822   3.669
91256W        W52919  35.079  42.490  11.010
91257W        W52920  19.646  15.727  12.870
91258W        W52921  10.280  10.341   0.770
91259W        W52922  21.071  21.605  12.903
91260W        W52923  27.454   8.781  11.404
91261W        W52924  22.644  44.385  10.060
91262W        W52925  36.447  43.995   1.808
91263W        W52926  11.717  11.325  13.500
91264W        W52927  38.504   8.817   4.734
91265W        W52928   7.375   2.270  10.982
91266W        W52929  34.469   1.805   2.362
91267W        W52930   8.299  34.114   4.212
91268W        W52931  37.934  37.878  14.885
91269W        W52932  30.490  12.745  12.853
91270W        W52933  10.778   3.709   1.864
91271W        W52934  22.135  17.155  14.298
91272W        W52935   0.757  28.483   1.395
91273W        W52936  23.129  16.213   4.775
91274W        W52937   3.247  38.496   2.706
91275W        W52938  30.982   8.784   3.386
91276W        W52939  10.265  28.956   3.281
91277W        W52940  33.531  25.558  14.906
91278W        W52941  27.971  19.219   1.433
91279W        W52942  36.516  38.545  13.895
91280W        W52943  26.952  11.333   0.793
91281W        W52944  29.009  24.663  12.881
91282W        W52945  41.516  26.548   2.745
91283W        W52946  38.003  14.700   2.395
91284W        W52947  24.101   3.863   1.710
91285W        W52948  30.163  23.148   3.642
91286W        W52949  24.532   7.268   4.213
91287W        W52950  24.024  22.511  10.645
91288W        W52951  39.453  35.892   2.410
91289W        W52952   5.240   7.769  12.557
91290W        W52953   0.905  34.385  12.044
91291W        W52954  37.878  27.676   0.882
91292W        W52955  29.081   9.223  13.887
91293W        W52956   4.912  36.020   4.780
91294W        W52957  25.626  32.626  14.487
91295W        W52958  13.194  34.402   2.217
91296W        W52959  21.188  27.107  11.891
91297W        W52960  36.970  26.619   4.117
91298W        W52961  13.610  34.599   3.860
91299W        W52962  40.942  31.535  14.892
91300W        W52963   5.311  10.166  10.515
91301W        W52964  10.877  34.589   4.253
91302W        W52965  34.397  32.132  10.155
91303W        W52966  38.997   5.424   3.823
91304W        W52967  43.857   4.314  12.504
91305W        W52968   7.847  44.350  11.969
91306W        W52969  23.679  20.658  10.583
91307W        W52970  14.599  16.720   3.802
91308W        W52971  26.102   9.154   3.743
91309W        W52972  42.324  32.589   3.725
91310W        W52973  32.008  43.423   1.368
91311W        W52974  14.313   7.683  11.891
91312W        W52975   2.941  28.072   2.267
91313W        W52976  33.567  29.166  10.632
91314W        W52977  14.781  13.684   0.936
91315W        W52978  41.807   4.732  13.514
91316W        W52979  12.299  23.543  14.446
91317W        W52980  22.007   7.831  10.920
91318W        W52981  42.476  38.893  12.050
91319W        W52982  27.543  21.137   0.789
91320W        W52983  18.743  41.298  10.922
91321W        W52984  34.528   1.937   2.895
91322W        W52985  11.243  16.603  12.088
91323W        W52986  30.484  39.485   3.790
91324W        W52987   6.789   3.247   1.933
91325W        W52988  39.539  37.925   3.660
91326W        W52989  29.076  42.444   4.738
91327W        W52990  31.131  26.652   4.123
91328W        W52991   5.426  43.369  10.419
91329W        W52992   3.797   5.903   1.341
91330W        W52993  26.980  25.219  10.421
91331W        W52994  22.601   6.744   4.227
91332W        W52995  34.943  13.622  12.950
91333W        W52996  10.863  43.402  11.421
91334W        W52997  17.075  30.576  13.347
91335W        W52998  13.238  44.496   1.760
91336W        W52999  22.651  32.907   2.802
91337W        W53000  36.450  22.014  10.556
91338W        W53001  38.358   6.211   1.267
91339W        W53002   6.362   2.843  11.052
91340W        W53003  36.430   4.315   1.918
91341W        W53004  33.982  21.093   1.262
91342W        W53005  36.490  44.824   2.282
91343W        W53006  21.621  30.081  14.371
91344W        W53007  36.410   8.665  12.839
91345W        W53008   9.189  34.469   1.702
91346W        W53009  30.093   2.273  12.567
91347W        W53010   2.336   5.755  10.464
91348W        W53011  31.569  38.882  11.049
91349W        W53012  35.107  12.811  11.976
91350W        W53013  12.344  30.452   0.275
91351W        W53014  20.106  23.544   3.346
91352W        W53015   3.927  36.490   2.685
91353W        W53016  28.011  10.265   1.403
91354W        W53017  29.548  17.191   4.335
91355W        W53018  31.538  31.436   0.786
91356W        W53019  27.153  26.030   5.168
91357W        W53020  30.571  28.675  11.060
91358W        W53021  25.688  31.936   4.727
91359W        W53022  37.059  14.663  13.335
91360W        W53023   9.676   6.803  13.357
91361W        W53024   1.339  43.946  14.403
91362W        W53025  34.055  20.264  13.796
91363W        W53026  26.954  12.148   4.794
91364W        W53027   4.410  13.316  11.947
91365W        W53028   4.219  21.223  13.389
91366W        W53029  40.364   6.418   3.154
91367W        W53030  37.397  42.801   2.347
91368W        W53031   9.371  39.852  10.892
91369W        W53032  31.474   1.969   3.758
91370W        W53033  18.572  34.080   1.931
91371W        W53034  32.119   4.229  13.509
91372W        W53035  38.453  40.448   0.357
91373W        W53036  11.134  31.421  11.903
91374W        W53037  13.599  32.545  12.526
91375W        W53038   9.343  32.937   4.152
91376W        W53039  32.480  44.821   4.671
91377W        W53040  37.356   4.913  10.075
91378W        W53041  38.386  21.516   0.753
91379W        W53042  39.533  30.586   3.374
91380W        W53043  28.932  22.209  13.923
91381W        W53044   4.333  28.666  10.909
91382W        W53045  28.504   1.239   4.617
91383W        W53046  28.643  28.461  14.861
91384W        W53047  21.059  24.007   3.648
91385W        W53048   8.323  19.738  12.377
91386W        W53049  38.901  27.059  13.009
91387W        W53050  36.992   5.352   2.267
91388W        W53051   3.779  36.094  11.119
91389W        W53052  27.087  23.151  10.122
91390W        W53053  37.086  39.493  14.287
91391W        W53054  44.429   4.336   4.619
91392W        W53055  40.342  24.998  13.518
91393W        W53056  23.517  23.984   5.206
91394W        W53057  28.526   6.826   2.243
91395W        W53058   9.724  42.335  11.431
91396W        W53059  22.719  32.481  13.513
91397W        W53060  22.088  13.608   0.905
91398W        W53061   0.771  16.179  10.511
91399W        W53062  24.617  37.034  12.344
91400W        W53063  35.897  38.513   3.203
91401W        W53064  19.673  12.180   3.678
91402W        W53065   6.856  29.927   1.722
91403W        W53066   9.767  33.584  10.584
91404W        W53067   4.933  40.400  13.537
91405W        W53068  15.628  37.892   3.354
91406W        W53069  23.110  38.033  14.904
91407W        W53070  44.328   1.944  12.860
91408W        W53071   5.919  42.922  14.782
91409W        W53072  22.723   2.723   2.310
91410W        W53073   9.659   2.266   0.916
91411W        W53074  42.974  23.563   3.676
91412W        W53075   1.845  14.325   0.268
91413W        W53076   1.301  29.430  13.326
91414W        W53077  26.167  26.951   1.757
91415W        W53078  26.701   0.335  11.014
91416W        W53079  30.486  27.177   0.837
91417W        W53080  11.773  41.481   2.878
91418W        W53081  24.052  11.262   3.859
91419W        W53082   3.291  41.897   5.216
91420W        W53083  43.791  35.360   2.280
91421W        W53084  27.955   6.365   4.768
91422W        W53085  28.152  40.931   1.734
91423W        W53086  14.831   2.770  13.876
91424W        W53087  32.074  28.584   0.269
91425W        W53088  16.186   4.718   2.380
91426W        W53089  23.019  44.482   0.823
91427W        W53090   1.870  12.311   0.841
91428W        W53091  34.958  35.016   3.709
91429W        W53092  35.893  43.770  12.523
91430W        W53093  39.057  44.265  13.522
91431W        W53094  15.228  27.008  13.017
91432W        W53095  17.160  42.997  14.371
91433W        W53096   0.973  34.488   2.768
91434W        W53097  12.175  15.168   4.802
91435W        W53098   2.469  15.155  14.958
91436W        W53099  10.335  34.533  12.037
91437W        W53100   6.259  30.447  14.804
91438W        W53101   5.212  33.575  10.992
91439W        W53102  37.366  17.628  11.951
91440W        W53103   7.669  40.806   1.389
91441W        W53104   6.700   1.479  10.477
91442W        W53105   0.371  24.192   4.740
91443W        W53106  39.374  27.049   1.404
91444W        W53107  15.651   7.723   2.279
91445W        W53108   9.303  17.688   3.264
91446W        W53109  29.479  23.670   4.310
91447W        W53110  31.610  19.616   9.937
91448W        W53111  19.727  44.760  12.483
91449W        W53112  18.734  14.208   9.484
91450W        W53113   5.375  38.999   3.303
91451W        W53114  20.262   2.373  11.045
91452W        W53115  28.520   5.727  12.563
91453W        W53116  22.087  37.519   0.312
91454W        W53117   7.874  15.214   0.747
91455W        W53118  23.195   7.223  11.014
91456W        W53119  30.427  25.628   4.113
91457W        W53120  19.163  18.086   3.746
91458W        W53121  30.627  33.547   0.289
91459W        W53122  37.907  38.540   2.332
91460W        W53123  15.581   0.352   3.740
91461W        W53124  15.198  39.030   9.588
91462W        W53125   1.843  39.834   1.892
91463W        W53126  38.516  31.404  11.019
91464W        W53127  42.389  38.047   3.753
91465W        W53128  26.109  25.518   3.163
91466W        W53129  41.000  11.355   4.219
91467W        W53130  37.380  35.002  14.347
91468W        W53131  17.573  10.780  12.516
91469W        W53132  11.833   3.244   0.338
91470W        W53133  12.184  22.203   0.400
91471W        W53134  27.639   2.842   3.280
91472W        W53135  17.735   6.373   2.769
91473W        W53136  23.195  43.388   1.380
91474W        W53137   8.806  35.993  13.944
91475W        W53138  12.156  17.143   2.337
91476W        W53139  33.993  10.648  13.414
91477W        W53140  20.177  37.060   2.672
91478W        W53141  33.576  22.615  11.961
91479W        W53142  43.875  10.664   4.337
91480W        W53143  36.454  20.766   0.750
91481W        W53144  44.278  41.369   1.863
91482W        W53145  36.087  12.733   4.122
91483W        W53146  43.826  25.517  11.856
91484W        W53147  22.596   8.695   2.822
91485W        W53148  31.907  39.013   0.351
91486W        W53149  15.748   8.728  10.941
91487W        W53150   5.336   8.220   2.254
91488W        W53151   8.165   2.914   0.938
91489W        W53152  32.480  22.593  11.875
91490W        W53153  24.611  26.541   4.836
91491W        W53154  30.968  22.244  12.051
91492W        W53155   7.345  12.243   1.727
91493W        W53156  34.515  33.882   4.745
91494W        W53157   5.882   4.916   2.407
91495W        W53158  34.087  15.716  12.038
91496W        W53159  20.560   6.212  12.885
91497W        W53160  33.939  44.370  12.550
91498W        W53161  38.431  11.636   0.410
91499W        W53162  15.739   0.438  12.407
91500W        W53163   0.755  20.746   3.852
91501W        W53164   6.852  27.038   4.229
91502W        W53165  43.859  41.518   4.208
91503W        W53166  12.825  41.959   1.265
91504W        W53167  41.995   0.467  11.041
91505W        W53168  24.716  26.075  11.499
91506W        W53169  26.152  37.077   0.342
91507W        W53170  43.990  39.053   0.752
91508W        W53171  29.978  18.225  12.540
91509W        W53172  37.001   9.227  10.911
91510W        W53173  19.285   8.195   0.893
91511W        W53174  15.585  37.508  14.319
91512W        W53175   5.860  29.472   4.692
91513W        W53176  29.573  19.272  10.630
91514W        W53177  15.741  33.621   4.695
91515W        W53178  32.893  31.576   4.674
91516W        W53179   0.264  10.682   1.721
91517W        W53180  44.392  14.251   1.424
91518W        W53181   2.414  33.490  11.402
91519W        W53182  21.717  27.557  12.834
91520W        W53183  25.964   9.188  14.318
91521W        W53184  37.337  41.536   3.823
91522W        W53185   1.949  30.930  11.533
91523W        W53186   6.404   9.687   4.190
91524W        W53187  25.620  24.047   2.766
91525W        W53188   4.247  17.668   3.723
91526W        W53189  14.668   5.831  11.571
91527W        W53190  17.085  33.565   4.737
91528W        W53191  34.014  38.959   2.418
91529W        W53192  30.434   9.759  14.780
91530W        W53193  18.629  39.975   4.757
91531W        W53194  17.682  34.874  12.900
91532W        W53195   8.811  30.465   2.401
91533W        W53196  12.344  23.139  13.916
91534W        W53197   3.882  20.060  12.472
91535W        W53198  44.852   3.349   2.671
91536W        W53199  10.202  18.615   1.447
91537W        W53200   2.464   7.349   4.147
91538W        W53201  24.059  18.140  13.493
91539W        W53202  38.340   4.733   0.821
91540W        W53203   2.882   0.253   2.362
91541W        W53204  22.510  24.027  13.023
91542W        W53205  11.711  30.007  13.814
91543W        W53206  34.036  30.017   4.801
91544W        W53207  14.216  24.631   4.647
91545W        W53208   1.823  22.182   0.950
91546W        W53209  24.662  14.227  10.550
91547W        W53210  33.994  31.065   0.821
91548W        W53211  32.948  32.590  13.057
91549W        W53212  33.120  19.236  13.403
91550W        W53213  10.342  21.233  11.868
91551W        W53214  14.651  33.545   2.246
91552W        W53215   9.672  28.557   1.372
91553W        W53216   6.920  11.773  14.830
91554W        W53217   5.822  40.986   4.780
91555W        W53218   7.245  42.300  13.511
91556W        W53219   5.748  43.845  12.884
91557W        W53220  33.532  41.518  12.929
91558W        W53221  21.088  10.379  13.795
91559W        W53222  31.117   4.248   3.688
91560W        W53223  37.934  41.909   0.860
91561W        W53224  24.557   3.917  13.360
91562W        W53225  15.749  19.153   2.254
91563W        W53226  29.597  30.556   0.875
91564W        W53227  42.001  16.233   2.189
91565W        W53228  25.151   7.900   3.265
91566W        W53229  15.588  41.023  14.896
91567W        W53230   4.279   9.705   0.770
91568W        W53231  34.903  40.544  11.058
91569W        W53232   7.398   2.422  10.422
91570W        W53233  27.617  23.676   1.398
91571W        W53234  26.636   8.719   2.349
91572W        W53235  37.958   8.781  12.369
91573W        W53236  15.799   0.296  10.410
91574W        W53237  13.619  16.238  14.370
91575W        W53238  25.147  17.624   3.702
91576W        W53239  41.446  18.102  12.954
91577W        W53240  23.592  13.178  10.476
91578W        W53241  19.721   6.388   4.797
91579W        W53242   4.819   7.272   3.814
91580W        W53243  13.207   5.358  14.276
91581W        W53244   0.353  26.564   2.272
91582W        W53245  18.096  37.085  11.523
91583W        W53246  37.468  32.988  12.951
91584W        W53247   9.360  15.623  14.020
91585W        W53248  44.275  20.603  10.125
91586W        W53249  20.033  10.346   4.838
91587W        W53250   2.266  14.639  13.803
91588W        W53251   0.799  37.391   0.812
91589W        W53252  43.944  22.121  14.905
91590W        W53253  28.043  26.062  12.873
91591W        W53254  35.067  14.780   2.236
91592W        W53255  34.073  30.000   0.325
91593W        W53256  10.679   1.440   0.727
91594W        W53257  22.533  18.173  10.010
91595W        W53258  40.821  43.940  14.482
91596W        W53259  43.511  26.647  14.934
91597W        W53260  40.397  44.884   0.302
91598W        W53261  35.954  28.140  12.013
91599W        W53262  27.669  18.221   2.755
91600W        W53263  36.522   5.272  11.446
91601W        W53264  12.282  39.355  10.603
91602W        W53265  40.860   3.919  11.026
91603W        W53266  20.156  24.495  12.579
91604W        W53267  22.087  28.140  10.439
91605W        W53268  43.840  31.916   0.331
91606W        W53269  40.909  10.210   0.355
91607W        W53270  23.706   0.946   0.834
91608W        W53271  37.335   3.791  14.321
91609W        W53272  32.116   2.386   4.830
91610W        W53273  44.765  32.114  13.972
91611W        W53274  14.234   9.716   2.817
91612W        W53275  23.715  14.164  11.572
91613W        W53276  13.797  27.187  11.871
91614W        W53277  27.098  41.530  13.913
91615W        W53278  25.543   3.261   3.731
91616W        W53279  12.232  10.326   4.345
91617W        W53280  20.189  15.244   3.330
91618W        W53281   2.422   2.271   1.806
91619W        W53282  29.955  37.523  11.904
91620W        W53283  41.509   5.400  13.538
91621W        W53284  10.653  21.179   4.123
91622W        W53285   6.260  19.676  13.427
91623W        W53286  42.325  30.625   2.317
91624W        W53287  15.176  11.827   1.922
91625W        W53288   0.940  16.626  12.917
91626W        W53289   2.750  28.556  14.347
91627W        W53290  44.370  20.142  10.591
91628W        W53291  22.613  10.342   9.972
91629W        W53292   2.829   6.376  12.922
91630W        W53293  17.651   9.846   4.190
91631W        W53294  20.542   5.201  13.903
91632W        W53295  30.570   9.172   1.238
91633W        W53296  35.539  29.518  12.341
91634W        W53297   1.758   7.191   3.862
91635W        W53298   7.308   0.788  11.566
91636W        W53299   2.404  26.152   3.812
91637W        W53300   7.304  23.094  10.517
91638W        W53301  40.527  24.027  10.952
91639W        W53302  22.502  11.632   0.819
91640W        W53303   0.934  44.774  14.412
91641W        W53304   2.957  13.229   4.344
91642W        W53305   1.823   2.741   0.806
91643W        W53306   3.941  34.392   3.203
91644W        W53307  31.139  28.034  13.843
91645W        W53308   2.430  16.677  10.442
91646W        W53309  42.828   1.935   1.856
91647W        W53310   6.815  16.231  12.577
91648W        W53311  30.072   4.758  11.567
91649W        W53312  12.152  16.770   1.742
91650W        W53313   1.925   7.414   1.760
91651W        W53314  22.008  19.108  10.545
91652W        W53315  10.310  12.796   0.291
91653W        W53316  39.984  36.084  12.951
91654W        W53317  25.039   4.901  14.283
91655W        W53318  35.363   3.915   0.369
91656W        W53319  17.785  36.022  13.395
91657W        W53320   9.289  34.009  14.385
91658W        W53321   6.729   7.212   0.792
91659W        W53322  12.817  13.775  13.805
91660W        W53323  11.743   1.464  13.891
91661W        W53324  31.477  17.768  13.001
91662W        W53325  11.353  30.025  12.902
91663W        W53326  40.911  36.088   4.646
91664W        W53327  26.982   1.369  13.038
91665W        W53328   1.341  17.734  11.439
91666W        W53329  26.181   0.397  11.103
91667W        W53330  28.629  23.684  11.605
91668W        W53331  27.602  16.314   3.642
91669W        W53332  20.203  27.652  14.978
91670W        W53333  30.581  18.122   1.740
91671W        W53334  27.132   9.173  12.421
91672W        W53335  16.604   8.803   2.819
91673W        W53336  13.120  15.311  12.857
91674W        W53337  37.431   9.285   1.424
91675W        W53338  15.747   1.927   3.709
91676W        W53339  23.631  43.489   3.636
91677W        W53340  18.619   3.735   4.151
91678W        W53341  35.002  12.651   5.309
91679W        W53342  30.591  12.825   4.280
91680W        W53343   0.968  25.693  12.044
91681W        W53344  10.358   4.338   3.297
91682W        W53345   2.911  24.653  14.306
91683W        W53346  26.582  33.897   0.856
91684W        W53347  41.986  29.970  14.321
91685W        W53348  14.208  33.534  11.945
91686W        W53349  44.477  33.004   1.731
91687W        W53350  36.522   4.443  11.610
91688W        W53351  10.749  33.950  14.009
91689W        W53352  18.135  16.612  12.359
91690W        W53353  18.088  31.498  11.522
91691W        W53354  25.202  33.968  14.873
91692W        W53355  28.154  10.643  14.387
91693W        W53356  15.198  11.800   4.818
91694W        W53357  18.171  19.248  11.860
91695W        W53358  40.878   7.334   2.375
91696W        W53359  35.430  27.530  13.810
91697W        W53360  41.326  17.154   4.780
91698W        W53361  21.724   3.303   2.747
91699W        W53362   9.334  42.887   4.290
91700W        W53363  23.649  21.567  14.933
91701W        W53364   7.270  40.308  11.879
91702W        W53365   9.267  36.444   2.233
91703W        W53366  19.762  43.875  13.510
91704W        W53367  22.193   1.845   9.983
91705W        W53368  23.072  39.346   1.387
91706W        W53369  22.244   3.424  11.864
91707W        W53370   3.748  25.576   0.388
91708W        W53371   3.317  30.575  12.350
91709W        W53372   5.319  24.122  13.496
91710W        W53373  25.152  13.811   0.841
91711W        W53374   0.890  21.170   0.347
91712W        W53375   3.886   3.430  13.840
91713W        W53376  43.467  20.611  14.295
91714W        W53377   6.273  29.016  14.997
91715W        W53378  21.260   2.331   0.319
91716W        W53379  22.020   6.862   2.805
91717W        W53380  21.576   3.910  11.431
91718W        W53381   9.796   9.774  10.639
91719W        W53382  17.288   1.312  14.466
91720W        W53383  27.118  33.485   3.752
91721W        W53384  41.435  32.515   2.894
91722W        W53385  15.620  35.498   2.811
91723W        W53386  32.541  43.899  12.846
91724W        W53387  39.011  29.513   4.654
91725W        W53388  36.376  30.555   2.693
91726W        W53389   5.827  16.749  12.979
91727W        W53390   3.347  22.012   1.771
91728W        W53391  20.615  13.696   1.222
91729W        W53392   2.306  12.192   0.766
91730W        W53393  31.543  37.340   1.858
91731W        W53394  39.358  15.239   2.829
91732W        W53395  38.945  12.829  12.485
91733W        W53396  36.428  12.845  11.008
91734W        W53397  17.655  15.244  12.831
91735W        W53398  42.805   8.191  13.030
91736W        W53399  32.080   5.801  12.391
91737W        W53400  37.360   7.714  13.402
91738W        W53401  37.371  40.440  12.990
91739W        W53402  14.699   3.728   0.881
91740W        W53403  43.975   5.250   5.721
91741W        W53404  44.326  26.149   1.320
91742W        W53405  14.822  28.657   3.257
91743W        W53406  23.579   4.871  10.430
91744W        W53407  43.468  34.590   1.836
91745W        W53408  31.620   5.210  10.907
91746W        W53409  41.480  37.883  11.988
91747W        W53410  36.028  10.352   3.311
91748W        W53411  19.198   1.738  13.394
91749W        W53412  29.947  18.744   0.248
91750W        W53413  24.498  23.101   0.339
91751W        W53414  33.570  44.979  13.346
91752W        W53415  42.401  17.643  10.901
91753W        W53416  19.210   7.416   2.838
91754W        W53417  33.105  30.058  13.965
91755W        W53418  41.817  42.342   3.764
91756W        W53419  15.269  25.048  12.838
91757W        W53420  38.465   6.732   4.156
91758W        W53421  10.842  36.928  11.990
91759W        W53422  26.639   4.430   2.313
91760W        W53423  20.698  33.381  13.817
91761W        W53424  12.806  36.392  10.122
91762W        W53425  18.221  18.148   0.959
91763W        W53426  27.449  44.913   0.961
91764W        W53427  24.522  22.103  14.013
91765W        W53428  24.673  20.239   1.401
91766W        W53429   4.856  38.366   0.914
91767W        W53430   5.405  30.446   2.712
91768W        W53431   5.289  19.251   4.215
91769W        W53432   4.403  12.770   3.851
91770W        W53433  12.819  38.903   3.781
91771W        W53434  41.905  13.172   1.227
91772W        W53435  40.813  35.956   0.796
91773W        W53436  24.513  11.186  11.540
91774W        W53437  18.169  42.308  14.385
91775W        W53438   4.845  11.300   0.393
91776W        W53439   9.849  43.916  12.356
91777W        W53440  25.692  16.297   1.405
91778W        W53441   5.883  10.854   2.836
91779W        W53442  27.456  41.987   2.336
91780W        W53443   5.928  35.910   3.328
91781W        W53444  44.374  38.547  14.765
91782W        W53445   7.844   3.940  13.478
91783W        W53446  20.257  11.640  12.548
91784W        W53447   2.472  26.152   2.741
91785W        W53448  43.339   3.358   4.816
91786W        W53449  28.498  17.109  14.376
91787W        W53450   6.779  14.236   4.331
91788W        W53451  17.672  26.516  11.578
91789W        W53452   6.289  35.510   3.681
91790W        W53453  44.915  41.873  10.612
91791W        W53454   7.767  33.379  11.605
91792W        W53455  24.656  43.493   1.712
91793W        W53456   9.154  11.652   0.328
91794W        W53457   1.303  29.082   4.676
91795W        W53458  25.532  12.674  13.440
91796W        W53459  13.731  44.807   0.379
91797W        W53460   5.713   9.809  10.468
91798W        W53461   6.827   7.192  12.987
91799W        W53462  12.128  20.660  12.404
91800W        W53463  44.323  37.497  10.134
91801W        W53464   0.290  32.488  10.510
91802W        W53465  44.909  10.327  10.892
91803W        W53466   2.343  25.135  14.887
91804W        W53467  43.283   3.288   2.700
91805W        W53468   5.749  27.091  11.569
91806W        W53469  17.610  27.110   4.711
91807W        W53470  23.565  35.922  12.924
91808W        W53471  15.092  36.451  13.307
91809W        W53472  10.700   4.336  12.482
91810W        W53473  12.239  40.324   1.416
91811W        W53474  10.760  38.984   2.288
91812W        W53475  29.088  23.122   3.763
91813W        W53476  18.754  42.792  10.138
91814W        W53477  32.126  25.027   1.223
91815W        W53478  39.330  26.502   1.248
91816W        W53479   0.287  12.216  11.048
91817W        W53480   5.366   7.865   4.821
91818W        W53481  18.227   2.959  14.766
91819W        W53482  31.038  31.405   1.302
91820W        W53483   7.385   1.737   4.156
91821W        W53484  40.549  40.397   4.797
91822W        W53485  43.345   2.830  10.417
91823W        W53486  16.257  37.889   4.179
91824W        W53487  16.766  22.627   3.865
91825W        W53488   3.768  39.436   2.795
91826W        W53489  36.851  24.594   3.315
91827W        W53490  16.584   6.805  14.415
91828W        W53491  16.232  10.777  11.479
91829W        W53492  18.295   2.816   3.790
91830W        W53493   8.175  17.101  12.488
91831W        W53494  27.106  35.971   1.391
91832W        W53495   7.685  28.527   0.827
91833W        W53496  43.774  11.361  13.960
91834W        W53497  30.064   3.834  14.510
91835W        W53498   4.788  25.195  12.416
91836W        W53499  11.288  40.033   2.417
91837W        W53500  42.284  36.914  11.530
91838W        W53501  35.470   8.749  12.015
91839W        W53502  44.323  25.144   4.799
91840W        W53503  38.549  22.237   4.277
91841W        W53504  43.924  25.528   3.755
91842W        W53505  38.356  12.748  13.050
91843W        W53506  32.576   3.946   2.694
91844W        W53507   5.434  41.352   2.404
91845W        W53508  18.574  24.146   3.195
91846W        W53509  42.358  37.067  14.968
91847W        W53510   3.302  23.533  12.497
91848W        W53511  11.723  42.903  12.009
91849W        W53512   2.380   0.456  10.042
91850W        W53513   5.257   8.166  11.085
91851W        W53514  18.240  11.856  14.276
91852W        W53515   2.251  15.755   0.405
91853W        W53516  29.061  42.000   0.259
91854W        W53517  36.941  27.124  13.446
91855W        W53518  21.033  42.938   4.263
91856W        W53519  30.067  21.064  12.439
91857W        W53520  41.497   2.722   4.739
91858W        W53521  16.124  14.736  10.155
91859W        W53522  27.605  31.439   3.191
91860W        W53523  23.170  24.168   4.669
91861W        W53524  21.561  42.895   1.765
91862W        W53525  31.954  15.774  14.393
91863W        W53526  10.210  23.092   0.727
91864W        W53527  39.911  31.091  12.554
91865W        W53528  12.192   2.786  13.374
91866W        W53529  28.093  35.855   9.929
91867W        W53530  22.218   2.278  12.063
91868W        W53531  42.893  10.837   5.321
91869W        W53532  10.223  29.585  12.343
91870W        W53533  37.841  31.098   2.793
91871W        W53534   8.868   6.358  13.895
91872W        W53535  12.289  11.204   5.595
91873W        W53536   5.719  18.161   4.147
91874W        W53537  14.778  34.501  13.000
91875W        W53538   5.397  25.527  13.410
91876W        W53539  38.349  18.633  12.575
91877W        W53540  11.201  12.143  14.023
91878W        W53541  31.618  15.280   3.307
91879W        W53542  10.288  39.970   3.339
91880W        W53543   8.223  11.826  12.910
91881W        W53544  26.630  26.156   3.702
91882W        W53545  39.466  10.323  11.892
91883W        W53546  34.548  44.779   1.334
91884W        W53547  18.246   1.875   1.373
91885W        W53548   3.348  26.029   2.859
91886W        W53549  37.888  36.955   4.325
91887W        W53550  25.697   1.267  11.538
91888W        W53551  43.497  12.358  13.961
91889W        W53552  28.041  37.006  11.558
91890W        W53553  13.778  23.103   4.835
91891W        W53554  28.523  37.492   4.175
91892W        W53555  11.283  10.289  10.112
91893W        W53556  30.060  44.933  14.351
91894W        W53557  17.226   9.177  10.971
91895W        W53558  29.025  40.335   2.325
91896W        W53559  38.409   1.334  12.077
91897W        W53560  39.926  13.732  12.919
91898W        W53561  10.151  28.490  13.845
91899W        W53562  37.014  34.593   1.884
91900W        W53563  38.822   4.414   4.644
91901W        W53564   5.798   1.444   4.113
91902W        W53565   6.356  30.991  14.944
91903W        W53566  16.136   6.210  13.808
91904W        W53567  32.412  18.090   2.359
91905W        W53568  37.984  39.546  14.875
91906W        W53569  29.583  19.545   4.296
91907W        W53570   9.788  15.140  11.402
91908W        W53571  24.224  23.190  10.626
91909W        W53572  14.704   1.448  13.933
91910W        W53573  35.446  44.008   3.670
91911W        W53574  12.792  18.084  13.436
91912W        W53575  30.485  37.865   1.212
91913W        W53576  34.577  24.220   0.247
91914W        W53577  19.090  27.563  12.871
91915W        W53578  13.838   1.288   0.408
91916W        W53579  31.101  30.530   3.216
91917W        W53580  43.857  22.602   4.828
91918W        W53581  25.537   0.957  10.540
91919W        W53582  33.948  36.460   3.243
91920W        W53583  15.085  14.591  11.387
91921W        W53584  44.830  33.968   0.312
91922W        W53585  30.955   4.384  12.397
91923W        W53586  28.158  20.150  11.567
91924W        W53587  35.089  43.406   3.844
91925W        W53588  29.947   5.830   3.838
91926W        W53589  13.342   7.768  12.378
91927W        W53590  22.248  15.135   1.283
91928W        W53591  16.597  43.408  11.078
91929W        W53592  26.033  16.120  12.992
91930W        W53593  12.627  22.023   2.319
91931W        W53594  14.207  27.627  11.987
91932W        W53595  32.491  43.512  13.332
91933W        W53596  24.147  17.281  12.385
91934W        W53597   0.403  17.183   0.450
91935W        W53598  35.920   5.383   4.599
91936W        W53599  31.611   5.386   4.773
91937W        W53600   4.347  23.687   4.332
91938W        W53601  25.112  31.090   2.750
91939W        W53602  28.550  31.026   4.608
91940W        W53603   8.253   5.276   1.903
91941W        W53604   6.309  13.317   4.302
91942W        W53605  14.312  20.036   3.836
91943W        W53606  35.922  29.536  11.938
91944W        W53607  35.417  41.402   2.252
91945W        W53608  14.246   5.313   3.175
91946W        W53609  39.836  30.610   0.481
91947W        W53610   0.399   9.744  10.444
91948W        W53611   2.415   8.211  11.113
91949W        W53612   2.785  29.001  10.985
91950W        W53613  20.646  43.994  14.440
91951W        W53614   8.206  17.230   4.149
91952W        W53615   0.462  38.008  14.340
91953W        W53616   2.960  39.041  12.999
91954W        W53617  19.620  42.322  10.417
91955W        W53618   8.308  25.077   3.368
91956W        W53619  17.697   6.810   1.853
91957W        W53620  25.156  37.966   1.765
91958W        W53621  35.567  22.553  13.935
91959W        W53622  12.612  43.969  14.825
91960W        W53623   0.855  37.977  11.569
91961W        W53624  42.885  34.061  11.092
91962W        W53625  20.744  12.813   1.848
91963W        W53626  12.769  42.964  12.467
91964W        W53627  44.487  31.051   2.850
91965W        W53628  24.663   6.922   4.198
91966W        W53629  18.284  31.055  11.473
91967W        W53630   6.246   7.874  12.060
91968W        W53631  30.078  20.657  11.554
91969W        W53632  39.949  13.181   1.888
91970W        W53633   9.387  25.120  12.410
91971W        W53634  18.224  28.664  10.910
91972W        W53635  34.035  14.336  10.490
91973W        W53636  38.433  12.171   0.378
91974W        W53637  38.065  24.643   4.732
91975W        W53638  42.405   7.314  13.812
91976W        W53639  17.283   5.278  12.066
91977W        W53640  25.084  14.226  12.824
91978W        W53641  23.613  16.309  12.075
91979W        W53642  43.003  41.518  11.431
91980W        W53643  28.603  44.973   0.425
91981W        W53644  24.513  33.127  12.479
91982W        W53645  10.296  18.768   3.364
91983W        W53646  12.749  37.904   2.692
91984W        W53647  18.085  43.495  12.453
91985W        W53648   6.866  25.660  14.833
91986W        W53649  33.527  28.582   2.211
91987W        W53650  10.374  33.521  12.910
91988W        W53651   9.647   2.854  12.070
91989W        W53652   1.356  32.400  10.425
91990W        W53653   2.267  43.839  12.031
91991W        W53654  18.588  39.389   4.113
91992W        W53655   8.379   6.738   4.251
91993W        W53656  23.499   5.802   2.329
91994W        W53657  30.908  11.845   1.273
91995W        W53658  19.249  30.146   1.361
91996W        W53659  13.607  17.611  14.432
91997W        W53660  25.492  34.513  11.949
91998W        W53661   9.852  37.856   2.289
91999W        W53662  10.354  42.339   4.227
92000W        W53663  20.109  34.953   3.736
92001W        W53664   6.409  43.789   1.360
92002W        W53665  38.883  14.102  12.442
92003W        W53666  11.235   9.339   0.893
92004W        W53667  34.038  19.687  14.865
92005W        W53668  14.611  12.678  11.033
92006W        W53669  25.661  42.872   4.121
92007W        W53670  41.302   2.937   2.332
92008W        W53671  15.252  13.625  11.082
92009W        W53672  31.980  37.897   1.421
92010W        W53673   5.767  24.060   1.328
92011W        W53674  11.142   9.762  11.044
92012W        W53675   5.897  16.277  11.422
92013W        W53676  21.581  11.833  11.602
92014W        W53677   7.714  22.610   2.188
92015W        W53678  26.158  44.944   0.835
92016W        W53679  17.299  26.612  11.513
92017W        W53680  28.105  25.688  12.862
92018W        W53681  20.683  37.001  12.354
92019W        W53682  36.562   7.413   3.316
92020W        W53683  13.719  12.805  11.553
92021W        W53684  19.170   8.201   0.303
92022W        W53685  31.427  35.996  11.597
92023W        W53686  38.970  34.459  10.436
92024W        W53687  25.205  42.437   3.294
92025W        W53688  13.774   3.767   2.295
92026W        W53689   4.846  19.748   1.286
92027W        W53690  15.632  42.834  13.429
92028W        W53691  31.072   7.241  14.800
92029W        W53692  27.504   8.826   2.345
92030W        W53693  26.586  43.928   3.638
92031W        W53694  26.662  20.639   4.680
92032W        W53695  40.329   9.370  11.572
92033W        W53696  10.298  11.246   2.308
92034W        W53697   3.905  16.092   2.854
92035W        W53698   5.806  26.181   1.390
92036W        W53699   7.225  19.564   4.171
92037W        W53700   8.175  34.118  13.408
92038W        W53701  32.965  43.467   0.481
92039W        W53702  32.461  27.044   2.201
92040W        W53703  32.610  12.135  14.446
92041W        W53704   8.225  35.533  14.397
92042W        W53705   1.366   9.672   1.331
92043W        W53706  44.399  41.493   2.204
92044W        W53707   5.313  17.587   1.416
92045W        W53708  12.128   5.364   1.727
92046W        W53709  30.427  34.106   4.639
92047W        W53710  41.887  41.866  11.384
92048W        W53711  11.136  33.900  10.626
92049W        W53712  17.115  21.526   2.380
92050W        W53713  40.425  34.968   2.364
92051W        W53714  13.675  35.105   5.151
92052W        W53715   1.823  20.716   4.825
92053W        W53716  31.502  43.512   3.719
92054W        W53717  16.690   2.902   3.387
92055W        W53718  40.531   7.758  14.379
92056W        W53719  10.743   7.697   2.691
92057W        W53720  29.995  18.623  13.471
92058W        W53721  37.913  14.761  11.023
92059W        W53722   6.740  27.075  14.293
92060W        W53723  20.082   4.424  12.438
92061W        W53724  14.140   0.404   3.215
92062W        W53725   0.908  35.503   4.228
92063W        W53726  29.429  43.460  11.938
92064W        W53727   4.700  40.351   1.800
92065W        W53728  35.561  17.171   0.296
92066W        W53729  20.695   1.285  10.461
92067W        W53730   0.386  14.682   9.467
92068W        W53731  41.533   5.736  10.600
92069W        W53732  25.134  18.749  13.872
92070W        W53733  11.339  34.038  14.990
92071W        W53734  27.632  12.118  12.511
92072W        W53735  19.699  31.581   4.261
92073W        W53736  30.412   6.921  14.309
92074W        W53737  27.468  31.908   0.413
92075W        W53738  42.971   0.791  14.284
92076W        W53739  12.116  38.445  14.886
92077W        W53740   0.276  14.219   4.661
92078W        W53741  19.257  35.593  12.354
92079W        W53742  25.037  28.609  10.904
92080W        W53743  37.413  32.536   4.143
92081W        W53744  14.706  28.105  10.579
92082W        W53745  14.103  32.630  11.980
92083W        W53746  13.125  27.599   4.231
92084W        W53747  44.432  29.023   3.231
92085W        W53748  24.625   3.880  12.396
92086W        W53749   4.944  34.420  14.868
92087W        W53750  12.254  37.338  11.875
92088W        W53751  38.953   6.255  11.001
92089W        W53752  43.856  15.622   0.416
92090W        W53753  17.275  21.729  14.945
92091W        W53754  37.385   5.398  13.836
92092W        W53755  44.485  12.815  12.979
92093W        W53756  14.818  28.112   3.715
92094W        W53757  41.389  20.596   2.370
92095W        W53758   9.659  11.747   4.723
92096W        W53759  28.488  14.253  10.411
92097W        W53760  21.675  14.815  10.420
92098W        W53761  37.499   8.394   0.839
92099W        W53762  11.669  10.822   4.760
92100W        W53763   8.661  24.141   5.090
92101W        W53764  23.518  16.768   0.930
92102W        W53765  26.195   2.803  13.470
92103W        W53766  14.249   0.280  13.021
92104W        W53767  17.120   8.663  10.899
92105W        W53768  38.997   9.211   1.379
92106W        W53769  44.995  27.120  12.469
92107W        W53770  35.574   3.291   2.880
92108W        W53771   4.718   7.888   0.737
92109W        W53772  34.972  31.120   3.217
92110W        W53773   9.187  39.007   2.804
92111W        W53774  10.864  35.887  10.555
92112W        W53775  10.318  10.695  14.291
92113W        W53776  28.000   7.911  13.855
92114W        W53777  11.287  37.081  10.506
92115W        W53778  15.682  26.117  11.544
92116W        W53779  35.469  18.732   3.641
92117W        W53780   1.459   7.205  13.996
92118W        W53781  30.522  32.521   4.265
92119W        W53782  17.305  30.580  13.823
92120W        W53783  10.262  17.697   2.822
92121W        W53784  20.240  37.939  10.496
92122W        W53785  39.025  35.504   1.345
92123W        W53786   5.706  32.436   2.244
92124W        W53787  25.496  12.182   3.726
92125W        W53788   5.255  18.791  14.836
92126W        W53789  14.282  15.182   0.935
92127W        W53790  33.041  37.398  10.454
92128W        W53791  25.591  17.706   4.823
92129W        W53792  35.077  19.105   3.320
92130W        W53793  25.994  27.562   3.856
92131W        W53794   8.360  15.325  11.463
92132W        W53795  31.090  26.979  13.510
92133W        W53796  33.410  31.020  12.472
92134W        W53797  41.882  15.762   4.199
92135W        W53798  12.814   9.198  12.498
92136W        W53799  44.472  28.615  11.412
92137W        W53800  39.388  15.600  11.448
92138W        W53801  20.070   2.888  10.483
92139W        W53802  25.213  43.892   4.269
92140W        W53803  44.346  12.802  14.455
92141W        W53804  36.995  13.673   4.798
92142W        W53805  18.282  16.149   3.815
92143W        W53806  39.511  14.723   1.828
92144W        W53807  42.354   9.762   0.893
92145W        W53808  33.037  24.692   3.149
92146W        W53809  28.473  29.050  14.353
92147W        W53810  40.351  15.230   0.343
92148W        W53811  38.418  24.704   3.363
92149W        W53812  36.532  24.517   2.868
92150W        W53813   2.397   4.214   4.697
92151W        W53814  34.438  36.508   2.399
92152W        W53815  42.437  27.121  11.398
92153W        W53816  35.900  13.176  13.936
92154W        W53817  13.332  18.660  13.521
92155W        W53818  14.238  30.066  12.932
92156W        W53819   7.709  23.681  12.996
92157W        W53820  36.988  12.317  14.426
92158W        W53821  34.459  44.453   0.749
92159W        W53822  29.126  35.460   4.346
92160W        W53823  24.550  40.919  13.501
92161W        W53824  23.042  11.361   0.338
92162W        W53825  18.215  36.353  13.863
92163W        W53826  34.992  12.288  14.426
92164W        W53827  33.508  13.773   3.172
92165W        W53828   7.380  31.086   2.216
92166W        W53829  33.533   9.292   2.238
92167W        W53830  42.436  15.593  11.024
92168W        W53831  12.304  24.987   1.736
92169W        W53832  32.549  20.736   2.261
92170W        W53833   4.241  17.637  10.621
92171W        W53834   9.719  11.161  12.494
92172W        W53835  39.556  36.535  13.542
92173W        W53836  35.063  12.144   4.728
92174W        W53837  42.873  12.611   4.135
92175W        W53838  32.939  39.468   2.754
92176W        W53839  16.797   9.259  13.541
92177W        W53840  31.101  11.129  13.456
92178W        W53841  10.232  30.634  11.930
92179W        W53842  28.158  16.272  10.064
92180W        W53843  19.231  44.804  12.357
92181W        W53844  35.451  41.469  11.510
92182W        W53845  16.316  17.195   1.837
92183W        W53846  44.482  30.041  13.848
92184W        W53847  12.177  41.035   2.318
92185W        W53848  25.619  43.353   0.923
92186W        W53849  24.175  19.176  12.823
92187W        W53850  43.283  30.118   2.219
92188W        W53851  22.669  42.866   3.370
92189W        W53852  43.846   9.771   4.302
92190W        W53853   2.838  14.622   1.396
92191W        W53854  40.459  44.816  12.453
92192W        W53855  20.086  38.412  11.993
92193W        W53856  18.690   5.885   3.824
92194W        W53857  43.444   7.670   2.710
92195W        W53858  31.524  39.486   1.898
92196W        W53859  40.932  25.011  13.835
92197W        W53860   1.371  12.663  12.092
92198W        W53861  23.215   1.863   2.397
92199W        W53862  25.529  23.041  12.568
92200W        W53863   4.239   8.362   2.718
92201W        W53864  13.122   0.425  14.476
92202W        W53865   9.651  29.981   0.418
92203W        W53866  12.668  19.073   0.405
92204W        W53867   9.803   5.911  14.917
92205W        W53868  40.547  31.611  13.489
92206W        W53869  10.248   2.723  10.140
92207W        W53870  17.297  13.745  11.443
92208W        W53871  27.461  39.929   3.640
92209W        W53872   2.259   6.842  14.512
92210W        W53873   6.884  29.935   3.164
92211W        W53874  17.744   5.282  11.046
92212W        W53875  38.853   6.768  10.994
92213W        W53876  14.115  25.205   4.651
92214W        W53877  44.420   5.820  11.579
92215W        W53878   4.903  25.687   4.244
92216W        W53879  36.904  37.562   4.635
92217W        W53880  24.007  17.117  14.897
92218W        W53881  30.085  41.502  13.852
92219W        W53882  24.577   4.332   5.321
92220W        W53883  24.709  30.057  12.000
92221W        W53884  19.749  26.636  12.951
92222W        W53885  21.025  34.442   3.337
92223W        W53886  34.100  33.107  14.363
92224W        W53887   5.796   7.895   2.269
92225W        W53888  35.558  19.063  14.782
92226W        W53889   9.160  31.607   0.475
92227W        W53890  11.775   6.227   2.758
92228W        W53891  17.771  25.191   2.233
92229W        W53892  27.177  27.593   0.881
92230W        W53893  15.635   7.411  12.871
92231W        W53894  41.840  19.190   1.745
92232W        W53895  40.303  23.555  12.893
92233W        W53896   0.742  28.448  11.941
92234W        W53897  43.322  35.535   0.316
92235W        W53898   1.852   6.892   4.708
92236W        W53899  19.137  10.329   2.837
92237W        W53900   7.733  11.201  12.091
92238W        W53901   7.875  14.179   3.235
92239W        W53902  23.149  44.444   1.718
92240W        W53903  28.514  17.211  11.018
92241W        W53904   3.791  23.655  12.964
92242W        W53905  18.077  20.587  11.449
92243W        W53906  18.739  22.585   0.767
92244W        W53907  11.243   0.270   0.373
92245W        W53908  33.046   9.307   3.836
92246W        W53909  42.461  20.035  10.550
92247W        W53910  10.650  40.899  11.611
92248W        W53911   0.767  36.018   5.271
92249W        W53912  30.980   5.837   1.325
92250W        W53913   1.876  27.492   3.238
92251W        W53914  43.925   6.341  12.391
92252W        W53915  34.549   5.237   0.271
92253W        W53916  40.986  43.366   0.836
92254W        W53917  22.583  29.659   0.298
92255W        W53918  26.957  31.481   0.853
92256W        W53919   7.853  36.425  12.575
92257W        W53920   3.454   4.351   1.427
92258W        W53921  41.313  35.930   2.854
92259W        W53922   7.396   7.869   3.729
92260W        W53923  30.556  25.696  12.546
92261W        W53924  15.177  12.739  14.488
92262W        W53925   4.446  36.871  12.925
92263W        W53926  28.591  18.058  14.013
92264W        W53927  16.732  38.370  12.398
92265W        W53928   1.933  27.539  13.344
92266W        W53929  32.056  15.312   0.406
92267W        W53930  16.195   1.291  14.279
92268W        W53931  16.627  13.624  13.827
92269W        W53932  15.327  30.059  11.904
92270W        W53933   6.412  18.137   2.898
92271W        W53934  37.013  33.425  10.018
92272W        W53935  26.143  19.116  12.420
92273W        W53936  27.959  38.900   1.218
92274W        W53937   4.818  20.102  13.384
92275W        W53938   4.247  17.623  13.960
92276W        W53939  41.961  22.644   3.663
92277W        W53940  28.565   4.262  10.455
92278W        W53941  43.347  42.332  10.644
92279W        W53942   2.374  33.996  13.982
92280W        W53943  30.941  29.168   3.185
92281W        W53944   8.279  10.732   0.866
92282W        W53945   9.717  41.802  14.887
92283W        W53946  33.038   9.810   3.731
92284W        W53947   8.841  16.788  10.943
92285W        W53948  26.205   5.710  12.344
92286W        W53949  14.628  23.111   4.731
92287W        W53950  10.184  15.231  10.574
92288W        W53951  33.093  19.712   9.990
92289W        W53952  12.132   1.480   2.746
92290W        W53953   1.943  40.525   4.329
92291W        W53954  41.991  15.097  13.057
92292W        W53955  28.482  26.673  11.897
92293W        W53956  13.221  26.498   0.788
92294W        W53957  22.098  20.610  14.350
92295W        W53958  20.622  12.128  12.346
92296W        W53959  44.993  11.731  10.608
92297W        W53960  40.904   0.955  13.896
92298W        W53961  43.914   3.839   2.235
92299W        W53962  34.587  23.159   3.666
92300W        W53963  33.520   4.228   2.208
92301W        W53964  23.159   7.279  12.896
92302W        W53965  27.536  23.231  13.510
92303W        W53966  28.673  36.001   4.148
92304W        W53967   0.973  20.038  10.926
92305W        W53968  13.788  38.533   2.662
92306W        W53969  28.439   7.323  12.475
92307W        W53970  26.669  24.071  14.784
92308W        W53971   2.378   2.889   2.792
92309W        W53972  32.548   9.775   4.710
92310W        W53973  35.364   9.837   0.371
92311W        W53974   9.331   9.648  12.855
92312W        W53975  33.470  14.129   3.352
92313W        W53976  11.671  43.423   0.332
92314W        W53977  37.890  36.033  11.928
92315W        W53978  41.308   7.274  14.838
92316W        W53979  33.912  21.020   0.374
92317W        W53980  36.418  19.769   0.941
92318W        W53981   4.315  13.682   1.259
92319W        W53982   9.765  21.737   1.285
92320W        W53983  25.068  17.777  14.316
92321W        W53984  43.397  36.980   0.420
92322W        W53985  24.531  33.605   4.717
92323W        W53986  21.190   0.350  10.543
92324W        W53987  10.802  29.053   4.320
92325W        W53988   1.844  21.081  14.442
92326W        W53989  22.743   5.211   4.325
92327W        W53990  39.538   7.732  14.339
92328W        W53991  27.167  27.947  11.097
92329W        W53992  12.250   1.736  10.562
92330W        W53993  33.586  22.209  11.412
92331W        W53994   6.392   4.721   4.185
92332W        W53995  36.352   3.303   3.238
92333W        W53996   5.916  28.529   1.419
92334W        W53997  30.111  34.466   1.408
92335W        W53998  20.209  42.782  12.091
92336W        W53999  34.073  28.634   1.730
92337W        W54000  17.598   4.824   1.933
92338W        W54001  17.743  43.775   2.824
92339W        W54002  15.241  15.815  11.040
92340W        W54003  14.811  16.617  13.893
92341W        W54004  36.869  38.073   3.335
92342W        W54005  12.783  24.502   0.464
92343W        W54006  20.071  43.511  12.536
92344W        W54007  15.619  30.501   0.788
92345W        W54008  13.110   0.870   3.374
92346W        W54009  43.972  33.113   0.856
92347W        W54010  25.998   2.423  13.857
92348W        W54011  16.808  29.005  13.514
92349W        W54012  10.356  35.404  11.395
92350W        W54013  28.453  14.174  11.126
92351W        W54014  14.123  18.159   0.262
92352W        W54015   7.893  23.117   3.221
92353W        W54016  18.591  25.477   4.784
92354W        W54017  16.233  10.817   1.356
92355W        W54018  44.496   2.936   2.349
92356W        W54019  20.271   2.305   9.968
92357W        W54020  31.494  22.568  10.956
92358W        W54021  10.791  16.173   4.635
92359W        W54022  41.987  26.964  10.510
92360W        W54023   4.896  20.523   4.762
92361W        W54024   6.315  19.619   4.709
92362W        W54025  19.170  31.061  11.976
92363W        W54026  16.244  28.552  13.993
92364W        W54027  41.919   7.829   2.371
92365W        W54028   0.875   9.192  13.493
92366W        W54029  14.833  40.467   1.722
92367W        W54030  16.223  33.896   4.753
92368W        W54031  35.957  32.044  14.283
92369W        W54032  23.599  26.133   3.246
92370W        W54033  35.900   1.413  13.036
92371W        W54034  22.547  32.907  10.608
92372W        W54035  34.919  18.625  12.064
92373W        W54036  19.249  18.052   1.237
92374W        W54037  44.448  43.285   4.234
92375W        W54038  40.975  25.042   3.281
92376W        W54039  29.929   5.421   4.681
92377W        W54040  15.300  19.625  13.496
92378W        W54041  19.201  37.539  12.550
92379W        W54042  22.088  38.399   0.290
92380W        W54043  26.186  26.537  11.874
92381W        W54044  19.580   8.174  12.889
92382W        W54045  33.981  18.245   2.827
92383W        W54046  31.622  42.866  12.488
92384W        W54047   6.865  16.602  10.968
92385W        W54048   0.742  28.022   4.780
92386W        W54049  25.497   5.204   9.642
92387W        W54050  31.420  30.941  11.118
92388W        W54051  40.306  29.919  13.820
92389W        W54052  41.996  22.671   4.316
92390W        W54053  43.463   3.407  10.077
92391W        W54054  10.219  29.600  12.894
92392W        W54055  29.165   4.798  13.011
92393W        W54056  24.556   1.449  12.886
92394W        W54057  40.437  16.643   1.752
92395W        W54058   3.718  13.254  13.985
92396W        W54059  41.905  17.245   4.287
92397W        W54060  25.485  29.956  13.539
92398W        W54061   0.388  15.311   0.884
92399W        W54062   4.901  14.593   2.679
92400W        W54063  23.682  33.933  14.874
92401W        W54064  27.691   3.760   1.862
92402W        W54065   9.850  29.060  13.022
92403W        W54066  26.502  20.715   0.958
92404W        W54067  20.224  43.378   0.297
92405W        W54068  39.877  44.800  12.545
92406W        W54069  35.890  37.553  11.613
92407W        W54070  14.324   7.698  13.456
92408W        W54071  20.249  42.332   4.802
92409W        W54072   3.457   2.830  11.055
92410W        W54073   0.837  22.596  14.436
92411W        W54074   8.761  38.921   5.280
92412W        W54075  17.723   8.712   3.727
92413W        W54076  10.778  21.138  13.390
92414W        W54077   6.335  36.853  12.921
92415W        W54078   2.930  39.511  10.622
92416W        W54079   7.727  11.255  14.911
92417W        W54080  38.902  23.522   2.882
92418W        W54081  35.453  43.490   2.825
92419W        W54082  41.394  15.785  12.916
92420W        W54083  38.929   7.885   2.232
92421W        W54084  20.064  21.202  10.000
92422W        W54085  28.039   5.197   0.913
92423W        W54086  17.216  14.746  12.540
92424W        W54087  30.940  11.316   2.330
92425W        W54088  14.727   4.708   1.699
92426W        W54089   2.382  43.822   2.184
92427W        W54090  30.439   5.332  13.422
92428W        W54091  27.511  12.300   3.698
92429W        W54092  34.928  35.076  10.562
92430W        W54093  22.672  21.237  13.462
92431W        W54094  21.705   3.858  12.041
92432W        W54095  42.486  14.623  12.075
92433W        W54096  14.277  10.260  11.564
92434W        W54097  21.044  28.055   3.784
92435W        W54098   6.676  28.598   4.680
92436W        W54099  10.712  24.997   1.393
92437W        W54100  18.217  21.261   0.278
92438W        W54101  33.038  31.967   4.284
92439W        W54102   8.799   0.743  11.505
92440W        W54103  25.178  27.112   1.895
92441W        W54104  13.718   0.975  11.102
92442W        W54105  35.474  33.940  11.544
92443W        W54106  43.312  22.128  11.532
92444W        W54107   2.400  11.758   5.218
92445W        W54108  13.192  41.316  11.955
92446W        W54109  43.307   2.842   2.666
92447W        W54110  20.211  23.622   2.834
92448W        W54111   4.788   8.371  14.918
92449W        W54112   2.331  30.452  14.275
92450W        W54113  29.484  35.012  12.026
92451W        W54114  32.449  32.091  14.917
92452W        W54115  13.707  26.037  11.599
92453W        W54116   7.342  29.540  10.967
92454W        W54117  35.479  44.758   2.735
92455W        W54118  11.302  20.262  10.916
92456W        W54119  38.833   7.223   1.764
92457W        W54120  44.939  17.091  14.494
92458W        W54121   0.859  21.665   4.617
92459W        W54122  38.518  15.162   1.382
92460W        W54123   9.876  23.194   4.624
92461W        W54124   7.719   8.313  14.430
92462W        W54125   4.265  33.519   1.290
92463W        W54126  40.526  23.093   4.301
92464W        W54127  32.124  17.558   2.333
92465W        W54128  26.590  38.056  10.522
92466W        W54129  22.544  17.249   3.773
92467W        W54130  15.141   6.871   4.803
92468W        W54131  15.231  11.731  14.010
92469W        W54132   0.474  26.146   0.452
92470W        W54133  28.662  26.607  14.953
92471W        W54134  36.903  11.711   0.758
92472W        W54135   9.720  36.504  12.435
92473W        W54136  32.958  39.421   0.881
92474W        W54137   1.412   6.818   9.580
92475W        W54138  39.001  38.074   3.207
92476W        W54139   1.822  40.820   4.294
92477W        W54140  31.463  19.188   1.405
92478W        W54141  22.716   5.256  10.566
92479W        W54142  26.554  21.039   0.372
92480W        W54143  23.067  13.764  12.020
92481W        W54144  23.088   9.668   0.798
92482W        W54145  42.366   3.822  14.474
92483W        W54146  41.908  14.281  14.296
92484W        W54147  17.134  22.174   0.380
92485W        W54148  12.739  41.498  13.872
92486W        W54149  18.265  29.004  13.479
92487W        W54150  15.621  33.907   3.280
92488W        W54151  29.483   4.765  10.900
92489W        W54152   3.950  21.086   4.789
92490W        W54153  38.421  38.455   0.387
92491W        W54154  12.778   8.245   1.342
92492W        W54155  13.123  29.646  12.916
92493W        W54156  29.994  37.459  10.446
92494W        W54157  16.733   5.832  13.530
92495W        W54158   3.416  20.093  12.971
92496W        W54159  32.475  37.538  12.456
92497W        W54160  22.105  26.523  14.435
92498W        W54161  16.709   7.394  12.086
92499W        W54162  26.625  44.783  11.500
92500W        W54163  19.044   9.248  12.576
92501W        W54164   9.811  11.785  13.537
92502W        W54165  33.935  20.546   0.865
92503W        W54166  24.695  33.903   3.710
92504W        W54167  37.533   1.971  14.363
92505W        W54168  21.676  28.565  10.630
92506W        W54169  35.920  16.691   1.405
92507W        W54170  19.729  42.967   4.199
92508W        W54171  10.255  34.431   1.727
92509W        W54172  41.538   4.419   2.687
92510W        W54173  37.560  42.872   0.959
92511W        W54174  41.496   8.406   2.690
92512W        W54175  10.714  10.216  11.545
92513W        W54176  14.648   3.444   1.747
92514W        W54177  24.636  41.318   4.751
92515W        W54178  29.070   1.293   2.248
92516W        W54179  10.286  12.250  13.046
92517W        W54180  36.044  35.934  12.844
92518W        W54181  13.121  27.478  14.961
92519W        W54182  17.621   7.251  12.050
92520W        W54183   8.757  32.059   3.293
92521W        W54184  28.016   4.851   4.313
92522W        W54185  10.209   9.229   3.225
92523W        W54186  27.170  31.080  13.348
92524W        W54187   7.798  39.350   4.633
92525W        W54188   5.893   7.856  11.902
92526W        W54189  12.205  31.077   2.345
92527W        W54190  30.934  16.122   1.764
92528W        W54191  42.440   6.327  10.422
92529W        W54192  24.499  22.091  11.101
92530W        W54193  31.626  29.560   2.715
92531W        W54194  25.554  19.082   2.297
92532W        W54195  14.133   1.821   3.248
92533W        W54196  23.668  17.088   3.292
92534W        W54197  12.137   8.730  13.881
92535W        W54198  42.814  17.755   5.285
92536W        W54199  27.153  36.094   3.781
92537W        W54200  33.523  33.917   0.791
92538W        W54201  15.326  29.043  12.908
92539W        W54202  39.898  22.622   3.376
92540W        W54203  20.646  14.823   4.792
92541W        W54204   2.914  14.189  12.904
92542W        W54205  29.625  34.546   3.272
92543W        W54206  30.470   5.330   4.761
92544W        W54207  13.229  36.925   3.839
92545W        W54208   9.199  22.690   0.811
92546W        W54209  15.316   9.334   0.295
92547W        W54210  36.393  35.941  12.369
92548W        W54211  30.986   1.866  13.315
92549W        W54212   2.424  21.684  10.963
92550W        W54213  27.975  42.847   3.844
92551W        W54214   8.664  27.125  11.943
92552W        W54215  33.430  31.916   5.271
92553W        W54216  40.873  37.903   1.702
92554W        W54217  34.487  35.447   1.261
92555W        W54218  41.340  12.762   5.102
92556W        W54219  17.724   7.751   2.334
92557W        W54220  16.621  23.522   3.688
92558W        W54221   9.653   8.262   3.309
92559W        W54222  38.548  38.522   0.935
92560W        W54223  18.127  37.454  13.331
92561W        W54224  15.111   0.481   4.612
92562W        W54225  17.783  28.119   4.206
92563W        W54226  29.930   7.289   4.696
92564W        W54227  28.137  19.667  13.887
92565W        W54228   9.799   0.311   4.131
92566W        W54229  12.780   2.264   4.237
92567W        W54230  40.546  36.912   4.726
92568W        W54231  11.822  41.511  13.931
92569W        W54232  22.218  33.572  14.490
92570W        W54233  36.361  21.017  14.760
92571W        W54234  30.091   1.849   2.695
92572W        W54235  28.604   9.392  12.920
92573W        W54236  34.869  33.562  11.510
92574W        W54237  13.612  17.615  14.778
92575W        W54238  17.789  24.589  12.981
92576W        W54239  16.608  31.023  10.560
92577W        W54240  20.201  15.667  13.826
92578W        W54241  17.664  43.273   0.924
92579W        W54242  17.148   8.891  14.487
92580W        W54243  26.106   3.711   9.973
92581W        W54244   6.366   7.736   3.705
92582W        W54245  42.443  15.174  11.006
92583W        W54246  42.372  11.833  11.037
92584W        W54247   7.898  42.939   3.722
92585W        W54248  34.028  28.952   3.783
92586W        W54249  13.623  22.668   4.201
92587W        W54250  42.359  42.358  13.352
92588W        W54251  36.535  23.990  11.395
92589W        W54252   3.717  40.889   4.764
92590W        W54253  38.407  20.593  11.946
92591W        W54254  17.594  38.511  12.946
92592W        W54255  28.601   3.358  14.768
92593W        W54256   5.699   4.730  10.467
92594W        W54257  24.994   0.749  10.603
92595W        W54258   9.819  29.613  11.472
92596W        W54259  22.691  41.466  11.883
92597W        W54260  30.063  32.042  14.952
92598W        W54261  10.731  16.251   2.775
92599W        W54262  42.299  17.147  12.949
92600W        W54263  41.374  23.539   4.183
92601W        W54264  25.009   4.881  12.048
92602W        W54265  26.603  25.711   2.725
92603W        W54266  28.953  38.367   0.943
92604W        W54267  40.897  31.531  10.536
92605W        W54268  33.441  24.717  11.931
92606W        W54269  17.647   5.244   3.284
92607W        W54270  44.825  10.791  14.313
92608W        W54271   1.937   4.229   0.420
92609W        W54272  22.664   3.222   2.249
92610W        W54273   2.329  12.681  14.481
92611W        W54274  31.561  27.604  13.028
92612W        W54275  16.300  19.102   3.670
92613W        W54276  36.944  19.266   3.753
92614W        W54277  23.686  42.415  12.374
92615W        W54278   6.292  30.999  13.381
92616W        W54279  24.133  11.773   1.717
92617W        W54280   0.830  20.102   1.875
92618W        W54281  29.117  28.062  11.956
92619W        W54282  14.621   0.394  13.501
92620W        W54283  32.540  32.554  14.291
92621W        W54284  39.455  22.042  11.120
92622W        W54285  23.573  35.878   4.666
92623W        W54286   1.776  21.656   3.371
92624W        W54287  42.416  25.089   1.752
92625W        W54288  31.941   9.348   3.655
92626W        W54289  34.110  25.059   2.242
92627W        W54290  10.347   7.175   1.396
92628W        W54291  43.863  20.622  11.385
92629W        W54292  39.880  24.986   4.313
92630W        W54293  44.899  18.587  14.323
92631W        W54294  18.623   6.191  14.340
92632W        W54295   9.699   9.303   2.789
92633W        W54296  31.099  11.823   0.920
92634W        W54297  31.554  13.343  13.375
92635W        W54298  11.361  34.926  14.789
92636W        W54299  13.171  16.716  14.378
92637W        W54300  32.479  37.989   4.705
92638W        W54301  20.608  21.258  14.010
92639W        W54302   8.240  21.183  14.887
92640W        W54303  29.443   1.366  12.855
92641W        W54304  14.142  15.775   3.796
92642W        W54305   8.339  39.851  14.402
92643W        W54306  40.493   8.773  13.796
92644W        W54307  40.938  19.595   2.744
92645W        W54308  24.651  18.673   4.288
92646W        W54309  23.640  33.898   3.637
92647W        W54310  10.758   0.909  10.601
92648W        W54311  12.234  37.897  14.283
92649W        W54312  41.940  42.951   3.342
92650W        W54313  37.935  14.153   4.238
92651W        W54314  13.616  31.957   2.407
92652W        W54315  11.758  35.023  14.303
92653W        W54316   0.247  44.365   2.779
92654W        W54317  35.938  26.043  13.383
92655W        W54318   6.184  19.549   2.888
92656W        W54319  13.824  20.566   0.448
92657W        W54320   3.748  14.671  10.952
92658W        W54321   7.223  39.852   3.317
92659W        W54322  42.902   2.468  12.950
92660W        W54323   1.278   7.358   4.767
92661W        W54324   2.839   1.331   0.945
92662W        W54325   0.764  40.824   0.394
92663W        W54326   9.853  31.624  12.894
92664W        W54327  37.006  13.194   4.353
92665W        W54328  11.371   9.371   3.382
92666W        W54329   5.816  27.038  11.976
92667W        W54330  44.871  36.938  14.772
92668W        W54331  37.029   8.315  11.908
92669W        W54332   1.811  20.728   2.850
92670W        W54333   7.183  10.733  12.460
92671W        W54334  17.776  11.712   3.227
92672W        W54335  23.149  16.598  12.026
92673W        W54336  10.212  13.246  10.567
92674W        W54337   4.916  17.178  13.389
92675W        W54338   2.896  17.758  10.597
92676W        W54339   0.953  15.695   1.728
92677W        W54340  41.378  13.318   2.687
92678W        W54341  34.556  38.928   1.223
92679W        W54342   1.464   6.710   9.975
92680W        W54343  30.056  28.559   4.739
92681W        W54344  35.520  28.630  13.929
92682W        W54345   6.895  41.469  14.463
92683W        W54346   4.272   3.461  10.414
92684W        W54347  27.620  22.147  12.388
92685W        W54348  19.235  36.365   0.930
92686W        W54349  16.288  25.569  12.501
92687W        W54350  19.133  17.290   1.367
92688W        W54351  37.382  37.926  10.605
92689W        W54352   7.178   9.343  13.805
92690W        W54353  41.936  40.053   3.319
92691W        W54354  42.869   5.844   0.874
92692W        W54355  17.228   8.290  13.537
92693W        W54356   9.288  25.121   0.307
92694W        W54357  36.516  33.539   3.158
92695W        W54358  19.234  21.744  13.002
92696W        W54359  32.039  19.549   9.980
92697W        W54360  15.713  19.227   1.882
92698W        W54361  11.157  34.023  12.996
92699W        W54362  18.176   5.208   0.891
92700W        W54363  33.041  43.834  14.498
92701W        W54364   8.817  31.577   1.272
92702W        W54365  13.785  26.545  11.473
92703W        W54366  28.019   8.352   2.407
92704W        W54367  25.597  42.364   3.721
92705W        W54368  36.382  10.671  12.499
92706W        W54369  27.181   6.876  11.925
92707W        W54370  21.109  17.069   4.626
92708W        W54371  36.878  15.089   4.668
92709W        W54372  43.021  21.223  10.481
92710W        W54373  43.309  33.095  14.311
92711W        W54374  15.223  44.262   3.219
92712W        W54375  41.789  20.693   0.291
92713W        W54376   9.348  10.770  12.844
92714W        W54377  27.959  27.129   3.198
92715W        W54378  34.110  16.272  13.507
92716W        W54379  24.108  32.623  13.984
92717W        W54380   8.795  31.600  12.401
92718W        W54381  44.412  42.907   4.158
92719W        W54382  23.489  21.661  12.407
92720W        W54383  19.536  36.959  12.080
92721W        W54384  18.592   5.354   2.394
92722W        W54385   4.239  17.138  10.981
92723W        W54386  28.553  38.441  14.825
92724W        W54387   0.862   5.438  11.890
92725W        W54388   9.710  19.182  11.124
92726W        W54389   1.341  27.653  12.984
92727W        W54390  39.436  31.123   1.785
92728W        W54391  14.094   7.303   0.299
92729W        W54392  25.572   7.327   0.810
92730W        W54393  18.677   0.983  11.420
92731W        W54394  14.283  29.592   2.679
92732W        W54395  35.056  16.678   3.646
92733W        W54396   9.300  23.089  14.020
92734W        W54397  28.075  35.860   4.600
92735W        W54398  40.467  21.055  11.989
92736W        W54399  27.558  21.079   3.700
92737W        W54400   1.736  37.842   4.165
92738W        W54401  38.930  22.203  13.799
92739W        W54402  19.262  26.082   1.288
92740W        W54403   6.272  31.137   1.258
92741W        W54404   2.302  35.933  11.504
92742W        W54405   3.762   0.278  12.350
92743W        W54406  33.559   8.242  11.983
92744W        W54407  10.279  36.894  11.494
92745W        W54408   0.924  29.535  14.402
92746W        W54409  21.524  19.700   4.607
92747W        W54410  22.112  22.162  10.606
92748W        W54411  41.839  31.966   0.907
92749W        W54412  28.448   0.783   1.715
92750W        W54413  35.998  21.619   2.829
92751W        W54414  28.933   5.237  10.468
92752W        W54415  27.186  31.906  11.970
92753W        W54416  12.274  28.096   2.777
92754W        W54417  31.136  20.715   9.451
92755W        W54418   4.723  29.549   4.123
92756W        W54419  35.559   5.903   0.297
92757W        W54420   1.750  21.725  14.903
92758W        W54421  10.205  34.579   4.297
92759W        W54422  25.159  23.535  12.430
92760W        W54423   1.279  42.858   3.684
92761W        W54424   9.172  29.009  11.915
92762W        W54425  44.007   6.677  11.041
92763W        W54426   7.684  11.349  10.521
92764W        W54427  29.022   5.918  14.955
92765W        W54428  29.118  21.737  14.026
92766W        W54429   9.268  22.554   9.975
92767W        W54430   5.898  24.606   2.777
92768W        W54431   1.276  35.513   0.749
92769W        W54432  11.327  19.547   2.346
92770W        W54433  11.757  25.645  14.467
92771W        W54434   2.734  17.281  10.487
92772W        W54435  44.786  29.581   1.878
92773W        W54436  33.526  17.789   1.778
92774W        W54437  25.002  23.136   3.714
92775W        W54438   0.324  32.562  13.921
92776W        W54439  32.961  44.333   4.759
92777W        W54440   1.248  12.220   2.313
92778W        W54441  38.485  31.047   1.927
92779W        W54442   7.868  44.770  13.018
92780W        W54443  28.680  36.428   2.890
92781W        W54444  33.589  16.084   3.347
92782W        W54445  41.329  18.101  14.902
92783W        W54446  14.257  21.245  14.784
92784W        W54447  35.949  16.763  14.432
92785W        W54448  24.004  27.162   0.275
92786W        W54449  12.282  10.651  12.927
92787W        W54450   6.851  40.547  13.946
92788W        W54451   2.300  12.836  13.927
92789W        W54452  30.561  29.159   1.761
92790W        W54453  17.303  41.298  10.930
92791W        W54454  41.004  27.636  10.990
92792W        W54455  41.802  31.404   3.794
92793W        W54456  16.105  42.911   4.153
92794W        W54457  30.960   1.291   1.817
92795W        W54458  36.955   6.759  14.314
92796W        W54459  12.319  12.135   1.752
92797W        W54460  35.106  18.093  13.054
92798W        W54461   8.660   0.758   4.119
92799W        W54462  37.456  31.961   5.220
92800W        W54463  26.199  17.087  11.403
92801W        W54464  19.625  41.003  13.469
92802W        W54465  19.725  26.584   5.284
92803W        W54466  10.671  23.566  12.437
92804W        W54467   0.769  40.527  11.858
92805W        W54468  36.482  14.117  12.886
92806W        W54469  13.140  17.265   0.406
92807W        W54470  43.448  31.959  12.473
92808W        W54471  25.627  34.413  14.022
92809W        W54472   6.864  10.655  11.100
92810W        W54473  36.373   3.929   1.829
92811W        W54474   1.753  14.131  12.347
92812W        W54475  35.978  39.988   2.381
92813W        W54476  41.970  15.121   2.866
92814W        W54477  25.627  20.201   4.353
92815W        W54478  44.907   5.405  11.114
92816W        W54479   5.856  18.294   1.380
92817W        W54480  34.396  16.566   2.394
92818W        W54481   9.324   1.913  13.469
92819W        W54482  21.575  29.145   0.860
92820W        W54483  27.954  16.639   2.752
92821W        W54484   8.789   3.434   1.896
92822W        W54485  37.938  16.314   4.689
92823W        W54486  14.750  42.966  11.516
92824W        W54487  19.600  31.446  14.887
92825W        W54488   2.337  37.352  10.635
92826W        W54489  21.606   7.770   1.902
92827W        W54490  16.750  31.099   1.825
92828W        W54491  14.675  11.154   2.338
92829W        W54492   7.285  14.778   4.141
92830W        W54493  18.158  31.114  12.926
92831W        W54494   4.723  38.951   0.922
92832W        W54495  14.662  37.899   0.796
92833W        W54496  37.515  11.189   2.855
92834W        W54497  33.876   2.455   4.271
92835W        W54498  41.314   1.945  14.435
92836W        W54499  25.539  23.666  12.857
92837W        W54500  10.708  41.987   4.310
92838W        W54501  31.552  33.990  11.983
92839W        W54502   4.377  24.081  13.420
92840W        W54503  13.191   2.779  11.008
92841W        W54504  35.990  20.224   1.215
92842W        W54505   3.247  10.798  13.898
92843W        W54506   4.314  21.619  11.415
92844W        W54507  32.092   6.686   5.304
92845W        W54508  42.400   7.370   1.383
92846W        W54509   3.943  42.021   0.469
92847W        W54510  41.947  10.856  12.437
92848W        W54511  30.982  30.979   0.422
92849W        W54512   2.276  27.632  12.432
92850W        W54513  23.536  30.568  12.903
92851W        W54514  38.352   0.324   1.314
92852W        W54515  37.001  14.155   4.702
92853W        W54516  10.378  14.264  11.537
92854W        W54517  33.410   9.287  11.960
92855W        W54518  27.094  26.155  11.069
92856W        W54519  21.731   3.925  14.886
92857W        W54520   9.666  33.977   0.877
92858W        W54521  35.056  15.151  10.544
92859W        W54522  40.955   3.366   1.279
92860W        W54523   1.765  32.419  11.449
92861W        W54524  28.063   3.952  11.082
92862W        W54525  27.155   3.777   1.242
92863W        W54526  17.220  19.681  10.589
92864W        W54527   4.863  29.462  14.829
92865W        W54528  17.292  13.140  11.882
92866W        W54529  20.058  15.597  11.497
92867W        W54530  10.809  31.090   0.807
92868W        W54531  13.623  27.036  14.355
92869W        W54532   7.680  20.207  13.352
92870W        W54533  35.587  14.124   1.751
92871W        W54534  35.006  41.497   5.099
92872W        W54535  39.386  33.381  12.551
92873W        W54536  16.167   0.989   1.327
92874W        W54537  23.127  21.556   4.160
92875W        W54538  36.069  25.976  10.621
92876W        W54539  43.816  22.168  11.996
92877W        W54540  23.591  22.517  13.813
92878W        W54541   3.873  20.056  10.964
92879W        W54542  26.039  33.570   0.913
92880W        W54543  22.163  36.463  14.813
92881W        W54544  25.080  22.698  14.844
92882W        W54545  32.462  43.982   1.284
92883W        W54546  13.155  20.208   1.876
92884W        W54547  13.153  40.460   2.202
92885W        W54548  44.875  26.523   1.350
92886W        W54549   0.490  31.408   3.171
92887W        W54550  14.150  35.090  13.830
92888W        W54551  41.440  35.065  12.085
92889W        W54552  32.587  39.917  14.406
92890W        W54553   0.752  31.910  13.794
92891W        W54554  33.450  19.546  10.508
92892W        W54555  35.411  14.228   0.433
92893W        W54556  39.379  17.638  13.492
92894W        W54557  37.966  10.159  11.109
92895W        W54558   9.298  31.924   2.876
92896W        W54559  25.155  32.986  11.936
92897W        W54560  23.176  17.115  11.469
92898W        W54561  10.188  40.930  10.590
92899W        W54562  19.650  32.112  11.101
92900W        W54563  36.560  16.735  13.052
92901W        W54564  32.459  20.531   0.458
92902W        W54565  35.389  19.768  10.928
92903W        W54566  10.296  41.316   3.855
92904W        W54567   3.429  41.350  12.352
92905W        W54568  32.441   9.312  13.818
92906W        W54569  42.420  14.202  14.296
92907W        W54570   0.936  26.542  13.835
92908W        W54571  30.599  21.659   1.212
92909W        W54572  15.302   2.781  12.366
92910W        W54573  22.239   8.275  14.807
92911W        W54574   7.293  34.580   3.227
92912W        W54575  30.143  35.419  13.047
92913W        W54576  32.087  37.413  11.870
92914W        W54577  13.635  35.594  11.390
92915W        W54578   6.220  25.508   3.760
92916W        W54579   3.935  30.602   4.124
92917W        W54580  10.219   8.186   1.869
92918W        W54581  19.254   6.311   1.716
92919W        W54582  14.660  40.899  11.113
92920W        W54583  32.469  12.266  14.898
92921W        W54584   6.801  27.191  12.487
92922W        W54585  26.527  38.992  13.855
92923W        W54586  25.967  35.021   3.744
92924W        W54587  19.571  18.631   0.923
92925W        W54588  35.516  20.167   5.209
92926W        W54589   5.253  24.227   2.319
92927W        W54590  37.925  29.429  11.065
92928W        W54591  42.344   0.332  14.790
92929W        W54592  11.633  34.409   3.831
92930W        W54593  35.384  17.625   2.835
92931W        W54594   5.344  31.633   3.808
92932W        W54595   3.903  22.685  12.033
92933W        W54596  30.644   2.933  11.613
92934W        W54597  27.586   5.786   0.428
92935W        W54598  39.927  22.691   3.855
92936W        W54599  44.766  26.137  14.414
92937W        W54600  14.769  18.229   0.310
92938W        W54601  26.201  12.665  11.058
92939W        W54602   2.386  17.619   1.317
92940W        W54603   8.722  20.036   2.232
92941W        W54604   5.334  28.093   0.474
92942W        W54605  16.653   0.305   4.644
92943W        W54606  37.034  17.685   4.303
92944W        W54607  42.974  34.614  11.381
92945W        W54608  44.365  24.627  11.887
92946W        W54609  15.165  18.601   1.367
92947W        W54610  25.207  33.460  13.486
92948W        W54611  14.745  21.561   3.701
92949W        W54612  40.011  18.214   3.818
92950W        W54613  30.569  13.245  10.404
92951W        W54614   4.794  16.265  14.355
92952W        W54615   7.323   1.470   1.807
92953W        W54616  37.430  13.776   3.256
92954W        W54617  16.078  39.893  12.062
92955W        W54618  31.525   5.379   0.832
92956W        W54619   9.290  30.016   1.233
92957W        W54620  34.439  38.058   2.765
92958W        W54621  39.935  30.047   4.145
92959W        W54622  34.062  24.052   3.839
92960W        W54623   2.787  39.906  10.621
92961W        W54624  25.041  15.816   0.375
92962W        W54625   2.410  17.685   3.704
92963W        W54626  31.570  14.311   2.829
92964W        W54627  10.801  28.599   1.916
92965W        W54628   6.760   4.251   4.712
92966W        W54629  15.607  41.829   4.782
92967W        W54630  19.255  27.463  14.391
92968W        W54631  13.329   6.222   3.726
92969W        W54632   4.209  12.178  14.784
92970W        W54633  19.694  43.825   3.309
92971W        W54634  35.934  17.764  13.054
92972W        W54635  10.146  26.457  14.458
92973W        W54636  38.826   5.850   9.931
92974W        W54637  21.538  24.644  10.066
92975W        W54638  21.690  17.152  14.502
92976W        W54639  16.296  39.951  14.802
92977W        W54640  41.978  31.439  14.315
92978W        W54641  44.910   2.957  12.979
92979W        W54642  34.501  13.746  10.424
92980W        W54643   7.257  35.401  12.502
92981W        W54644  29.506  36.059  11.609
92982W        W54645  42.860  18.291   4.753
92983W        W54646  26.009  11.343  10.901
92984W        W54647  12.638  25.053   3.709
92985W        W54648  35.367  29.505   4.312
92986W        W54649  41.827  18.644   1.785
92987W        W54650  26.063  21.585  14.321
92988W        W54651  25.977   3.716  10.992
92989W        W54652   5.418  12.361   1.738
92990W        W54653  41.955  29.513   0.903
92991W        W54654  32.547   6.300  13.927
92992W        W54655  25.674  16.588   1.921
92993W        W54656  36.353  27.638   0.892
92994W        W54657  21.529  38.413   0.956
92995W        W54658  29.610  22.047  12.499
92996W        W54659  10.775  25.114  14.937
92997W        W54660  37.415   9.841  12.548
92998W        W54661  26.573  14.118  10.105
92999W        W54662  42.916  39.937   4.813
93000W        W54663   1.307  23.221   4.668
93001W        W54664  18.653   7.220  13.020
93002W        W54665   6.683  10.644   0.411
93003W        W54666  12.287   8.405  11.462
93004W        W54667  25.057   8.713   4.730
93005W        W54668  19.255  37.032  13.404
93006W        W54669  41.033  14.189   2.336
93007W        W54670   7.416  39.512   0.953
93008W        W54671   6.412  40.815   1.891
93009W        W54672   0.914  39.886   2.735
93010W        W54673  28.079   1.264  10.975
93011W        W54674  34.531   1.423  10.580
93012W        W54675   6.200  11.351  13.501
93013W        W54676  20.178   9.324  13.935
93014W        W54677  17.171   0.337   0.344
93015W        W54678  28.101  42.452  12.379
93016W        W54679   8.679  21.241   2.817
93017W        W54680  32.481  28.941  14.876
93018W        W54681  41.966  25.119  11.502
93019W        W54682  10.237  31.604   4.824
93020W        W54683  23.613  12.198  10.902
93021W        W54684   6.877  27.476   4.224
93022W        W54685  32.002  14.282  10.538
93023W        W54686  12.212  11.348  10.027
93024W        W54687  18.143   0.448   3.268
93025W        W54688  37.001   7.392  14.298
93026W        W54689  32.018  28.945   4.226
93027W        W54690   6.195  17.641  12.450
93028W        W54691   9.345  14.228   3.715
93029W        W54692  32.397  43.351  13.031
93030W        W54693  10.758  39.491  10.592
93031W        W54694   7.240  22.234   1.702
93032W        W54695  12.639   1.747  12.883
93033W        W54696  35.409  14.610  12.527
93034W        W54697  18.666  23.586  12.527
93035W        W54698  44.880  18.634   1.730
93036W        W54699  16.733   9.209  10.506
93037W        W54700  18.098   7.680   1.411
93038W        W54701  43.329  22.524  13.407
93039W        W54702  30.027  10.335  14.923
93040W        W54703   8.764  40.449  14.803
93041W        W54704  19.747   5.719  10.415
93042W        W54705   5.296   0.809   1.746
93043W        W54706   0.480   0.906  11.521
93044W        W54707  17.593  24.510  13.941
93045W        W54708   4.402  39.055   4.151
93046W        W54709  40.924  23.162   0.840
93047W        W54710  16.226  25.045  13.457
93048W        W54711  11.184  23.620   3.805
93049W        W54712  41.907  44.359  13.310
93050W        W54713   1.287  22.630  13.811
93051W        W54714   4.229  27.178  13.062
93052W        W54715  32.588  16.293  11.514
93053W        W54716  12.739  39.840  13.878
93054W        W54717   7.675  10.818  10.634
93055W        W54718  24.228  41.996  11.517
93056W        W54719   4.388  21.700   1.271
93057W        W54720  14.627  39.413  10.530
93058W        W54721  31.628  16.607  10.563
93059W        W54722   2.924  19.697   0.297
93060W        W54723  38.979  23.667  10.509
93061W        W54724  25.117  26.128  13.448
93062W        W54725   4.367   3.274  12.545
93063W        W54726  16.114  22.111   1.305
93064W        W54727  15.741  40.492  10.523
93065W        W54728  11.810  43.007   2.769
93066W        W54729  31.451  42.803   1.833
93067W        W54730   8.867  33.023   0.794
93068W        W54731  26.145   8.320   4.753
93069W        W54732   7.293  20.536   4.626
93070W        W54733   6.271   4.307  12.559
93071W        W54734   2.437  40.833   1.787
93072W        W54735  31.992  43.281  11.552
93073W        W54736  43.498  35.059   2.235
93074W        W54737  29.539  10.368  14.367
93075W        W54738  36.496   7.801  12.998
93076W        W54739  12.846  44.767  11.088
93077W        W54740  11.227  37.880  11.592
93078W        W54741  12.347  15.669  10.639
93079W        W54742  19.183  26.998   4.173
93080W        W54743  21.585   0.944   4.622
93081W        W54744  34.874  14.169   1.713
93082W        W54745  14.594  20.766   4.266
93083W        W54746  21.521  29.124  11.061
93084W        W54747   3.739  34.058   4.319
93085W        W54748   5.278   3.948  13.011
93086W        W54749  13.742  37.526  13.820
93087W        W54750   6.727  36.032  13.436
93088W        W54751  30.485  19.632  14.438
93089W        W54752  37.345   8.335   2.772
93090W        W54753   8.280  22.150  13.853
93091W        W54754   9.230  16.225  11.865
93092W        W54755  32.636  43.791   2.259
93093W        W54756   6.728  29.558  13.514
93094W        W54757  34.489  26.073   0.244
93095W        W54758  41.006  40.864   1.729
93096W        W54759  25.700   8.896  13.054
93097W        W54760  35.005  19.760   3.283
93098W        W54761  42.777  16.726   3.859
93099W        W54762  37.429  31.456   2.376
93100W        W54763  42.311   9.711  10.998
93101W        W54764  13.835   5.688   0.963
93102W        W54765  44.802  29.925  10.593
93103W        W54766  42.491   5.754   4.813
93104W        W54767  41.352  43.492   4.637
93105W        W54768   5.835  17.249   0.900
93106W        W54769  15.626  41.373  10.132
93107W        W54770  33.022  19.616   0.482
93108W        W54771  42.362  38.949   1.321
93109W        W54772  27.100  34.402  12.409
93110W        W54773   2.859  39.350  11.125
93111W        W54774  14.299   7.714   3.342
93112W        W54775  21.589  16.158  12.347
93113W        W54776  14.611  33.623   1.394
93114W        W54777  34.564  41.824  11.522
93115W        W54778  40.984   0.960   1.849
93116W        W54779  10.689  11.758   0.801
93117W        W54780   2.913   6.383  14.913
93118W        W54781  37.007  21.518  13.444
93119W        W54782  19.264  30.073  11.060
93120W        W54783   6.714   2.420   4.305
93121W        W54784  22.655  42.520   2.727
93122W        W54785  40.891  18.277  10.638
93123W        W54786   0.894  12.795  14.387
93124W        W54787  20.535  37.867  10.603
93125W        W54788  22.620  28.178  13.430
93126W        W54789  14.164  14.260   0.885
93127W        W54790  12.650   5.745   2.856
93128W        W54791  15.787   5.224   3.153
93129W        W54792   6.363  36.570  14.503
93130W        W54793  23.151  29.104   4.290
93131W        W54794  28.059   7.819   1.765
93132W        W54795  29.642   6.682   3.635
93133W        W54796  42.816   9.204   0.260
93134W        W54797  33.909  37.410   5.108
93135W        W54798  15.797  13.726   1.892
93136W        W54799  39.889   2.752  13.445
93137W        W54800  24.635  38.511   1.370
93138W        W54801  30.060  10.364   0.247
93139W        W54802  12.186  42.941  14.432
93140W        W54803  22.250   1.861  12.500
93141W        W54804  26.989   8.789  14.881
93142W        W54805   3.379  44.390  13.405
93143W        W54806  12.723  23.176  11.429
93144W        W54807  22.686  43.287  11.420
93145W        W54808   0.865  37.942   2.325
93146W        W54809   5.734   1.903   4.226
93147W        W54810  29.468  13.192  12.543
93148W        W54811  35.518  11.730   0.383
93149W        W54812   8.330  13.269  14.385
93150W        W54813  24.033  44.462  13.495
93151W        W54814  18.592  22.091   2.287
93152W        W54815   0.976   4.842   9.975
93153W        W54816  28.112  31.994  13.038
93154W        W54817  21.722  39.418  12.408
93155W        W54818  30.965  20.206   3.170
93156W        W54819  12.240  15.718   0.303
93157W        W54820  34.004  11.754  13.819
93158W        W54821  24.566   7.755   3.756
93159W        W54822  29.007   4.295   0.939
93160W        W54823  20.045   7.829  14.413
93161W        W54824  17.224  22.535  10.124
93162W        W54825  32.524  36.876   0.274
93163W        W54826   7.877  14.302  13.804
93164W        W54827  18.716  31.071   1.848
93165W        W54828  42.986  41.859   3.288
93166W        W54829   6.278  23.500   3.702
93167W        W54830  40.814  17.159   0.819
93168W        W54831  19.055   9.715  10.603
93169W        W54832  24.182   5.898   2.332
93170W        W54833  18.572  20.153  14.811
93171W        W54834  39.356  30.468   3.777
93172W        W54835  13.177  27.964   2.714
93173W        W54836   1.939  37.373   0.474
93174W        W54837  10.290  29.505  13.382
93175W        W54838   9.272  41.951   3.304
93176W        W54839   6.391  29.655  13.395
93177W        W54840  15.100  25.547  10.979
93178W        W54841  28.968  10.262  12.434
93179W        W54842  21.731  17.234   4.165
93180W        W54843  23.707  36.905   3.794
93181W        W54844   4.372  42.847  14.763
93182W        W54845   0.793  19.541   2.395
93183W        W54846  43.501  20.123  11.457
93184W        W54847  40.347  31.599   1.841
93185W        W54848  40.477  19.764  11.014
93186W        W54849  36.053   1.441  11.053
93187W        W54850  16.797   2.737  11.109
93188W        W54851  27.484  26.664  11.101
93189W        W54852  43.835  23.700   2.864
93190W        W54853  16.696  30.079  13.320
93191W        W54854  28.021  36.960   2.753
93192W        W54855  18.569   1.280   1.248
93193W        W54856  42.454  13.683   2.333
93194W        W54857  37.847  37.358   4.173
93195W        W54858   4.782  14.266   3.781
93196W        W54859  20.221   6.799   2.705
93197W        W54860  11.151   0.377  14.789
93198W        W54861   8.796  20.705   4.211
93199W        W54862   2.786  37.055  13.410
93200W        W54863  16.646   1.899   4.765
93201W        W54864   4.712  13.187  14.424
93202W        W54865   1.315   4.411   2.889
93203W        W54866  31.990  34.480   0.748
93204W        W54867  24.058  13.175   0.367
93205W        W54868  28.974   0.359   4.702
93206W        W54869  18.089  44.486  11.379
93207W        W54870  11.324   0.862  14.399
93208W        W54871  36.020  19.088   0.451
93209W        W54872  26.173  12.303   1.703
93210W        W54873  27.026   9.247   1.401
93211W        W54874   0.844  25.104   3.208
93212W        W54875  43.395  40.486  12.422
93213W        W54876  42.394  39.909  11.873
93214W        W54877  36.956  29.562   2.788
93215W        W54878  38.999  41.421  14.954
93216W        W54879  22.023  32.940  12.933
93217W        W54880   7.702  37.413   2.191
93218W        W54881  17.668  34.423  13.388
93219W        W54882  18.202  25.601  12.913
93220W        W54883   7.175  44.791  14.001
93221W        W54884  18.607  25.074   1.727
93222W        W54885  13.692  24.085  12.902
93223W        W54886  25.984  40.898  12.931
93224W        W54887  20.045  35.405  10.586
93225W        W54888  11.151  27.192   3.768
93226W        W54889  30.126  34.434  13.986
93227W        W54890  20.622   6.678   3.169
93228W        W54891  10.647  24.061  12.096
93229W        W54892  38.564   2.785  11.004
93230W        W54893  31.049  22.010   3.307
93231W        W54894  14.671  42.931   4.789
93232W        W54895   8.189  27.124   1.735
93233W        W54896  15.754  41.982  12.342
93234W        W54897  17.250  37.476   1.433
93235W        W54898  15.213  39.950   9.983
93236W        W54899  39.341   6.219  11.032
93237W        W54900  38.390   2.858   0.445
93238W        W54901  39.893  26.686   0.832
93239W        W54902  33.903  44.488   2.268
93240W        W54903  10.292  22.179  12.429
93241W        W54904  25.504  43.356   3.853
93242W        W54905  22.544   8.680   5.293
93243W        W54906  27.999  21.260   9.945
93244W        W54907  15.711  39.843   2.353
93245W        W54908   1.314  36.956  12.862
93246W        W54909  22.543  31.439   0.954
93247W        W54910   8.806   4.282   2.769
93248W        W54911  35.016   4.367  13.898
93249W        W54912   5.844  21.709  14.860
93250W        W54913  21.238  15.584   2.397
93251W        W54914  26.096  40.986  10.897
93252W        W54915  27.066  24.634   3.351
93253W        W54916  21.754   3.873  14.376
93254W        W54917   8.268  43.795  13.324
93255W        W54918  11.182  23.036  11.882
93256W        W54919  41.901   0.259  12.899
93257W        W54920  15.642  21.746  11.379
93258W        W54921   0.450  43.911  10.496
93259W        W54922   8.761  37.349   1.857
93260W        W54923   5.762  35.094   1.243
93261W        W54924   2.794  33.120  10.471
93262W        W54925   3.306   8.659   0.791
93263W        W54926  15.822   1.263   4.796
93264W        W54927  43.299   9.695  12.466
93265W        W54928  30.930  23.668  10.428
93266W        W54929  25.541  28.937   4.787
93267W        W54930  44.816  13.167   1.441
93268W        W54931  21.206   2.856   3.373
93269W        W54932   9.663   3.390   2.315
93270W        W54933  32.601  42.299   3.849
93271W        W54934  28.052  41.867   4.820
93272W        W54935   8.252  15.182  11.055
93273W        W54936   0.784  16.718  11.923
93274W        W54937  42.311  36.566   2.265
93275W        W54938  32.405  32.980   4.162
93276W        W54939  40.442  26.962   0.915
93277W        W54940   1.951  29.108   4.239
93278W        W54941  12.308  28.519   3.332
93279W        W54942  13.706  20.072  12.916
93280W        W54943  11.127  14.198  13.413
93281W        W54944  43.883  12.309  11.393
93282W        W54945  15.744  12.281  11.528
93283W        W54946   5.251   3.444  12.823
93284W        W54947  34.034  22.141   4.143
93285W        W54948  26.682  12.198   3.250
93286W        W54949  39.529  13.832  14.967
93287W        W54950  44.396  22.146   0.404
93288W        W54951  30.476   8.299  13.876
93289W        W54952   8.358  32.888   0.365
93290W        W54953  37.414  25.664   1.352
93291W        W54954  34.386  25.215  11.407
93292W        W54955  31.487  24.650  11.435
93293W        W54956  34.934  13.317  13.353
93294W        W54957  40.956  16.809   2.285
93295W        W54958  20.241  11.169  13.829
93296W        W54959   4.298  15.817  13.527
93297W        W54960   1.818  38.532   3.287
93298W        W54961  31.547  15.810  11.491
93299W        W54962  30.619  12.325  12.427
93300W        W54963  20.554   1.250   2.181
93301W        W54964  11.134  42.502  11.421
93302W        W54965   7.832  24.053   2.241
93303W        W54966  21.121  37.832   4.686
93304W        W54967  15.784  34.455  10.122
93305W        W54968  20.756   4.732  12.913
93306W        W54969  24.138  25.007   3.250
93307W        W54970  34.494  29.649   3.863
93308W        W54971  25.117  12.762  12.078
93309W        W54972  28.124  36.517   1.228
93310W        W54973  18.740  16.254  13.544
93311W        W54974  13.273  25.051  10.587
93312W        W54975   0.466  35.476  13.898
93313W        W54976  26.964  23.098   3.178
93314W        W54977  32.947   5.248   3.270
93315W        W54978  10.637  13.174   4.660
93316W        W54979  37.871  22.551  13.849
93317W        W54980  21.702  14.685   1.279
93318W        W54981  42.416  34.061  10.430
93319W        W54982  25.542  37.528   2.670
93320W        W54983  41.484  14.132  12.032
93321W        W54984  35.487  15.134   1.440
93322W        W54985  33.916   4.778  11.128
93323W        W54986  26.546  30.501  12.859
93324W        W54987  22.178  28.601  10.999
93325W        W54988  34.505   3.421  10.446
93326W        W54989  16.078  41.350  14.285
93327W        W54990  30.911   8.338   0.942
93328W        W54991  14.642  44.825  10.975
93329W        W54992  41.304  40.526   4.209
93330W        W54993  10.282  36.419  13.393
93331W        W54994  40.481  18.555   3.201
93332W        W54995  44.774  43.946   2.815
93333W        W54996   4.841  35.570   2.863
93334W        W54997  16.608   4.877  10.638
93335W        W54998  31.991  43.378  14.285
93336W        W54999  15.166  29.554  12.437
93337W        W55000   9.783  26.077   1.229
93338W        W55001  10.709  34.064   1.244
93339W        W55002  15.776  31.480   3.162
93340W        W55003   6.425  24.182  11.092
93341W        W55004  35.587   9.706  10.588
93342W        W55005  20.085   2.950   0.406
93343W        W55006  11.147  22.680   1.270
93344W        W55007  41.369  28.539  12.509
93345W        W55008  33.554  32.948  14.460
93346W        W55009   0.441  33.615   0.908
93347W        W55010   6.240  21.261   1.786
93348W        W55011   5.399  31.646  13.966
93349W        W55012  15.175   7.716  14.001
93350W        W55013  44.378  29.990  11.092
93351W        W55014  24.197   4.233  11.438
93352W        W55015   3.237  20.229  11.385
93353W        W55016  32.080  18.084   0.243
93354W        W55017   4.263  25.538   0.423
93355W        W55018  23.694  25.534   0.405
93356W        W55019  26.537  33.934   1.365
93357W        W55020  11.776  34.025   3.693
93358W        W55021  29.959   7.413   3.735
93359W        W55022  13.276   0.820  10.539
93360W        W55023  37.439  12.297   2.810
93361W        W55024  12.335  32.973   3.753
93362W        W55025   9.336  41.001   3.362
93363W        W55026  28.083  30.466  14.975
93364W        W55027   3.941   0.775   1.335
93365W        W55028  27.148   8.840  11.011
93366W        W55029  10.295   3.930  13.448
93367W        W55030  32.893  15.597   0.814
93368W        W55031  30.653   1.330  14.000
93369W        W55032  37.473  22.617  14.794
93370W        W55033  44.456  36.390   2.841
93371W        W55034  20.154  19.271   1.419
93372W        W55035   3.929  42.029  13.382
93373W        W55036  44.921   1.748  13.030
93374W        W55037  14.693   3.765   3.341
93375W        W55038  14.301   8.794   3.749
93376W        W55039  40.373  10.678   1.815
93377W        W55040   6.392  10.263   4.322
93378W        W55041  39.360  42.992   0.794
93379W        W55042  12.632   7.743   3.194
93380W        W55043  41.982  15.731   2.702
93381W        W55044  28.625  42.803  12.024
93382W        W55045  31.477  33.968   0.915
93383W        W55046  37.931  37.349  13.025
93384W        W55047   4.277  37.996   3.290
93385W        W55048  30.958  18.588   4.179
93386W        W55049  17.737  29.989   0.825
93387W        W55050  23.707  42.990   5.222
93388W        W55051   2.315   9.249  14.482
93389W        W55052  34.959  25.032  14.010
93390W        W55053  34.510   5.419   0.748
93391W        W55054  12.242  20.593   3.336
93392W        W55055  25.030  37.548  13.439
93393W        W55056  14.249  28.006  14.378
93394W        W55057  30.008   1.358  12.418
93395W        W55058  44.433  22.697  13.032
93396W        W55059  36.587  27.959  10.928
93397W        W55060  16.280  29.508  14.380
93398W        W55061  30.455  21.020  13.444
93399W        W55062  30.603   2.910   4.118
93400W        W55063  31.988   1.768  10.539
93401W        W55064  13.791  11.801   3.836
93402W        W55065   4.440  22.063   4.606
93403W        W55066   3.944  21.540   0.810
93404W        W55067  43.353  35.404   0.888
93405W        W55068  40.407  28.486   4.334
93406W        W55069  28.566  17.629   0.883
93407W        W55070  31.899  15.243   2.844
93408W        W55071  37.956  27.099   4.152
93409W        W55072  29.637  14.812  14.914
93410W        W55073  16.154  21.705  10.918
93411W        W55074  11.136  20.595  11.452
93412W        W55075  33.007  19.257   3.369
93413W        W55076  10.715  27.568  11.467
93414W        W55077  13.816  23.236   1.266
93415W        W55078  24.098  36.351   4.615
93416W        W55079  42.906  32.627   4.807
93417W        W55080  10.796   2.807  11.410
93418W        W55081  11.836  19.252  14.496
93419W        W55082  11.264  30.439  11.964
93420W        W55083  37.891   3.759   1.303
93421W        W55084  27.990  11.681  13.922
93422W        W55085   4.789  43.382   3.378
93423W        W55086   2.433  35.021  14.953
93424W        W55087  28.153  26.970  14.969
93425W        W55088   5.210  26.488  11.578
93426W        W55089  19.194   7.905  14.770
93427W        W55090  41.817   5.410  11.872
93428W        W55091  35.064  34.972   1.834
93429W        W55092  31.128  44.906  11.465
93430W        W55093  31.026   2.888   2.414
93431W        W55094  25.587  42.305   3.232
93432W        W55095  43.334  37.519  11.429
93433W        W55096   0.385  15.145   4.817
93434W        W55097  29.097  16.637   2.372
93435W        W55098  25.148   3.300  14.773
93436W        W55099   7.348  23.506  11.921
93437W        W55100  33.925   9.876  14.421
93438W        W55101  21.512  28.048   3.297
93439W        W55102   6.802  31.444   1.714
93440W        W55103  12.155  44.956  11.879
93441W        W55104  16.711   1.814   2.797
93442W        W55105  22.729  35.447  11.557
93443W        W55106  28.461  21.151  13.918
93444W        W55107  30.016  23.623   2.877
93445W        W55108  44.908  28.975   3.279
93446W        W55109  41.986   0.489   3.792
93447W        W55110  19.547  11.749  12.502
93448W        W55111  15.167  43.979   4.136
93449W        W55112  15.165  33.583  10.500
93450W        W55113  35.038  42.391  14.808
93451W        W55114  25.472  17.129  11.920
93452W        W55115   6.336   9.180   2.240
93453W        W55116   5.821  18.061  13.388
93454W        W55117  33.111   2.439  14.992
93455W        W55118  15.134  27.181   1.213
93456W        W55119  42.776   9.395  12.015
93457W        W55120  10.692   1.812   3.215
93458W        W55121  17.601   7.312  13.862
93459W        W55122  25.505   0.374   4.794
93460W        W55123  40.011  32.546  12.558
93461W        W55124  43.306   0.490   3.151
93462W        W55125  13.130  34.382  10.983
93463W        W55126  15.612  40.332  10.963
93464W        W55127  40.465  34.538  10.416
93465W        W55128  18.280   5.780  11.092
93466W        W55129  43.452   3.835  14.860
93467W        W55130  38.440  15.663  11.448
93468W        W55131  40.964   0.317  14.309
93469W        W55132  31.546  32.102   3.823
93470W        W55133  16.305  42.913  11.034
93471W        W55134  22.194  19.119   1.251
93472W        W55135  19.636  35.102   2.695
93473W        W55136  31.992  11.306  13.830
93474W        W55137   7.358  27.684   4.815
93475W        W55138  14.118  31.937  11.389
93476W        W55139  10.718  43.854   0.288
93477W        W55140  16.628  17.779   1.297
93478W        W55141  22.734  14.638   3.340
93479W        W55142  36.865  33.541  14.490
93480W        W55143  31.036  44.279  14.402
93481W        W55144  37.523  27.075   2.711
93482W        W55145  37.001  35.585  13.347
93483W        W55146  18.593   7.170  13.357
93484W        W55147  34.874  13.653  14.896
93485W        W55148  17.801  13.752   1.224
93486W        W55149   7.181  15.115  11.873
93487W        W55150   8.222  29.918   2.378
93488W        W55151  36.452  44.393  12.037
93489W        W55152  30.145  10.854   4.624
93490W        W55153   8.766   8.264  13.867
93491W        W55154  19.167   7.182  13.380
93492W        W55155  25.051   4.360  14.881
93493W        W55156  38.483  30.011   2.741
93494W        W55157  43.302   4.904  12.056
93495W        W55158  38.482  32.141   0.442
93496W        W55159  39.463  42.523  11.590
93497W        W55160  21.154  38.927   2.735
93498W        W55161  38.492   1.821   3.152
93499W        W55162  19.152  19.764  14.367
93500W        W55163  26.059  17.197   1.370
93501W        W55164   8.681  15.669  12.412
93502W        W55165  21.183   1.941  13.984
93503W        W55166  19.705  13.128  14.478
93504W        W55167  10.679   1.406   4.748
93505W        W55168   0.454  21.672  10.628
93506W        W55169  10.366  26.204   1.382
93507W        W55170  14.330  43.850   0.804
93508W        W55171  21.669  40.931   1.381
93509W        W55172  20.065  37.412  14.900
93510W        W55173  35.077  27.045   1.248
93511W        W55174  22.109  35.866  14.407
93512W        W55175  12.821  40.006  11.420
93513W        W55176  43.862  20.645  13.393
93514W        W55177  18.085  17.079  12.980
93515W        W55178   3.214  40.834   0.901
93516W        W55179  10.831  25.548   1.323
93517W        W55180  32.127   0.472  13.454
93518W        W55181  21.591  25.135  10.483
93519W        W55182  38.530   0.445  13.827
93520W        W55183  30.553   6.407  14.983
93521W        W55184  25.629  12.271   3.260
93522W        W55185  29.611  16.588  11.107
93523W        W55186   4.750  23.228   2.282
93524W        W55187  41.036  28.067  12.932
93525W        W55188  42.288  28.017  10.986
93526W        W55189  28.460  28.670   3.238
93527W        W55190  17.174  15.148   4.165
93528W        W55191   5.197  40.924  14.344
93529W        W55192   4.768  29.027  11.021
93530W        W55193   8.795  22.574   3.228
93531W        W55194  40.498  20.542  11.121
93532W        W55195  41.021  12.761  10.453
93533W        W55196  43.330  16.704  13.337
93534W        W55197  11.653  31.954   2.271
93535W        W55198   1.958  13.207   1.267
93536W        W55199   3.420   3.740   1.849
93537W        W55200  18.130   4.270  12.406
93538W        W55201  26.021  18.605  14.821
93539W        W55202  18.257   2.413  14.420
93540W        W55203  43.335  12.228  10.931
93541W        W55204  44.003   2.745   1.328
93542W        W55205   3.948   9.853  12.976
93543W        W55206  14.773  26.464   2.734
93544W        W55207  25.968  14.736   3.199
93545W        W55208  27.158  43.905   5.303
93546W        W55209  38.841  35.588   0.936
93547W        W55210  14.713  41.448  10.603
93548W        W55211  20.094  32.007  11.884
93549W        W55212   7.805  28.450  12.383
93550W        W55213  21.549  36.888  11.090
93551W        W55214  11.251  12.264  13.033
93552W        W55215  44.432   0.303  12.871
93553W        W55216  23.199  41.931  12.944
93554W        W55217  37.368  39.010  10.496
93555W        W55218  13.231  32.102   1.261
93556W        W55219  33.510  44.361  12.830
93557W        W55220  38.954  21.540   9.961
93558W        W55221  18.562  40.864   2.192
93559W        W55222   6.268   5.365  10.405
93560W        W55223   9.759  44.808   1.877
93561W        W55224   5.735  35.054  14.975
93562W        W55225  36.515  38.845  11.934
93563W        W55226  34.402  38.013  11.432
93564W        W55227  36.521  42.362  13.369
93565W        W55228  34.047  41.362   4.209
93566W        W55229  38.979  40.801   1.791
93567W        W55230  43.392  24.041   2.671
93568W        W55231  16.608  23.207  13.039
93569W        W55232  10.306  35.977   4.689
93570W        W55233  39.812  21.216  12.080
93571W        W55234   4.231  41.818  14.840
93572W        W55235   5.707   8.796   4.135
93573W        W55236  20.192  33.978  14.916
93574W        W55237  23.226   1.311   2.811
93575W        W55238  17.747   3.853   4.346
93576W        W55239  24.519  13.231  12.906
93577W        W55240   3.714  22.626   2.777
93578W        W55241  39.449  13.787   2.888
93579W        W55242  11.753  31.427  12.905
93580W        W55243   0.261  42.439   3.160
93581W        W55244  38.842   1.474  14.920
93582W        W55245  13.743   9.234  13.495
93583W        W55246  19.644  36.052  11.517
93584W        W55247  26.628  16.609   4.598
93585W        W55248  28.035  27.102  11.123
93586W        W55249  44.965  42.514  11.016
93587W        W55250  25.676  34.913  13.467
93588W        W55251  33.536  33.051  11.058
93589W        W55252  38.492   8.160  13.938
93590W        W55253  21.530  34.057   1.443
93591W        W55254   1.946   0.465  10.635
93592W        W55255   9.193  43.363  14.344
93593W        W55256  43.385   4.813   4.609
93594W        W55257   7.318  21.155  10.911
93595W        W55258  29.488   0.485  14.761
93596W        W55259   8.802   1.283   3.162
93597W        W55260  16.144   1.966  14.341
93598W        W55261  36.024  42.387  10.481
93599W        W55262  10.327  39.542  14.402
93600W        W55263  37.831   9.733   2.398
93601W        W55264   8.730  23.562   1.804
93602W        W55265   3.458  35.963   2.881
93603W        W55266  40.836  10.195   1.298
93604W        W55267  12.133  28.616   4.180
93605W        W55268  33.500  38.349  12.936
93606W        W55269   4.711   1.312   1.760
93607W        W55270  20.104  37.979   1.395
93608W        W55271  28.676  39.457   4.266
93609W        W55272  11.157  40.466  12.045
93610W        W55273  40.039   9.297   3.768
93611W        W55274  18.751  18.168  12.010
93612W        W55275  11.855   2.446   2.710
93613W        W55276   3.955  22.515  13.315
93614W        W55277  19.651  38.513   1.716
93615W        W55278   3.927  33.087   1.306
93616W        W55279  11.762  23.099  14.319
93617W        W55280  36.439  39.450   3.293
93618W        W55281  44.946   9.190  13.005
93619W        W55282  11.144   0.812  13.064
93620W        W55283   2.444  42.835   2.249
93621W        W55284  24.600  22.238   0.342
93622W        W55285  30.636  14.177  13.458
93623W        W55286  44.799  35.001  12.951
93624W        W55287  24.582  36.071   1.273
93625W        W55288  36.905  16.127  11.480
93626W        W55289  25.038   7.700   2.269
93627W        W55290  38.532  23.527   3.209
93628W        W55291  29.609   2.772  11.529
93629W        W55292  25.482  32.554   1.297
93630W        W55293  40.853  39.949   0.927
93631W        W55294  40.484  12.337   4.818
93632W        W55295  22.220  17.272   1.927
93633W        W55296  18.581   0.756   3.295
93634W        W55297  30.033  44.440   2.837
93635W        W55298  35.974  28.596   4.207
93636W        W55299   0.389   4.729  12.387
93637W        W55300   7.280  12.311   0.951
93638W        W55301  19.273   3.880   4.659
93639W        W55302  39.948   1.431   2.245
93640W        W55303  33.542  18.088  10.526
93641W        W55304   5.317  24.524  11.000
93642W        W55305  33.422  33.556   5.285
93643W        W55306  30.491  15.260  13.006
93644W        W55307  30.443  35.472  14.977
93645W        W55308  27.972   2.445   3.652
93646W        W55309  19.185   5.308  10.954
93647W        W55310  33.126  24.598   4.204
93648W        W55311   8.736  29.547   2.236
93649W        W55312  15.173   0.312  10.473
93650W        W55313  42.431   5.785   5.698
93651W        W55314  25.072  12.775   3.322
93652W        W55315   2.291  26.189  10.953
93653W        W55316  21.147  10.840  13.934
93654W        W55317  16.584   2.323   2.209
93655W        W55318  39.952  24.080  14.338
93656W        W55319  43.922  42.330  10.428
93657W        W55320  36.396  20.236  10.583
93658W        W55321  18.218  11.702   3.344
93659W        W55322   8.367  37.457   4.155
93660W        W55323  26.623  15.595  13.383
93661W        W55324  30.950  13.219   1.360
93662W        W55325  16.287  30.971   0.902
93663W        W55326  39.510  33.626  10.540
93664W        W55327  32.964  19.579  12.560
93665W        W55328  38.425   2.872   1.909
93666W        W55329   0.335  15.596  11.402
93667W        W55330   5.711  12.292  12.081
93668W        W55331   2.380   8.195   4.308
93669W        W55332  26.671  14.147   3.301
93670W        W55333   4.428  42.830   5.178
93671W        W55334  25.030   0.754   0.356
93672W        W55335  30.594   0.936  10.513
93673W        W55336  42.025   6.676   3.186
93674W        W55337  12.337  32.552   2.338
93675W        W55338  17.178  30.431  12.053
93676W        W55339   9.309  39.365   1.437
93677W        W55340   2.854  38.961   0.789
93678W        W55341  42.946  21.161   1.854
93679W        W55342  35.019  27.104  11.493
93680W        W55343  18.749   4.890   0.780
93681W        W55344  31.590   9.283   4.681
93682W        W55345  21.176   5.892  11.528
93683W        W55346  23.712  22.681   2.750
93684W        W55347   3.872   4.821   0.472
93685W        W55348   1.291  17.799   4.342
93686W        W55349  24.508   0.351  13.317
93687W        W55350  21.527  14.758   4.686
93688W        W55351  20.079  35.023   3.275
93689W        W55352   4.717  20.255   1.434
93690W        W55353  18.164  29.029   4.601
93691W        W55354   8.309  44.310   1.392
93692W        W55355  25.025  44.263   0.293
93693W        W55356  32.393   9.253   1.935
93694W        W55357  22.234  35.908   2.238
93695W        W55358  10.779  16.720   4.726
93696W        W55359  43.853  30.528  14.937
93697W        W55360  19.614  38.871  11.588
93698W        W55361   2.411   6.773   4.822
93699W        W55362   4.283  37.506   2.700
93700W        W55363  12.812   1.807   1.275
93701W        W55364  43.496   4.867   2.810
93702W        W55365  31.490  11.351   2.333
93703W        W55366  32.985  30.435   0.260
93704W        W55367  29.571  44.878  12.447
93705W        W55368  42.450  37.023   3.808
93706W        W55369  11.641  20.726   2.201
93707W        W55370  41.007  39.967  11.946
93708W        W55371   6.305  37.575  14.449
93709W        W55372  44.394   9.890  12.938
93710W        W55373  16.075  42.501  11.530
93711W        W55374  10.287   9.177  12.521
93712W        W55375  18.754   3.217   1.704
93713W        W55376  25.051  32.118   2.785
93714W        W55377  43.858  10.346  14.907
93715W        W55378  15.150  33.954   1.407
93716W        W55379  34.114  11.302  13.424
93717W        W55380  38.345  35.528  14.873
93718W        W55381  21.257  30.043  11.907
93719W        W55382  36.003  39.478   4.175
93720W        W55383  39.541  22.543   2.185
93721W        W55384  16.639  19.109   1.832
93722W        W55385   3.910  29.527   4.230
93723W        W55386  19.650   8.170  13.963
93724W        W55387   0.842  38.422  13.897
93725W        W55388  32.608   5.748  14.352
93726W        W55389   3.864   1.479  14.780
93727W        W55390   7.206  18.156   0.729
93728W        W55391  16.641  19.211   1.422
93729W        W55392  39.898  20.220  12.980
93730W        W55393  30.609  35.594  13.979
93731W        W55394  38.925  30.986  14.820
93732W        W55395  28.984  22.520   0.335
93733W        W55396  28.042   6.888  14.299
93734W        W55397   1.378  23.144   0.955
93735W        W55398   7.247  37.406   3.757
93736W        W55399  38.555  33.465   0.261
93737W        W55400  16.663  43.958   3.690
93738W        W55401  37.567  16.112   0.777
93739W        W55402  34.554  40.035   0.410
93740W        W55403  21.196   8.808   4.128
93741W        W55404  34.403  42.339  10.416
93742W        W55405  15.310  25.605  12.416
93743W        W55406  37.518  15.601   2.767
93744W        W55407  32.502  10.217   2.179
93745W        W55408  44.783  23.197   0.318
93746W        W55409   2.801  44.934  13.463
93747W        W55410   2.906  13.665  14.797
93748W        W55411  26.175  22.218  10.476
93749W        W55412  39.441  11.250  13.405
93750W        W55413  33.057  35.398   2.865
93751W        W55414  20.612  26.528  10.594
93752W        W55415  41.802   9.651  10.469
93753W        W55416  20.153  26.533  12.378
93754W        W55417  13.682   2.791   0.427
93755W        W55418   0.264  33.912  13.518
93756W        W55419  35.368   2.894   2.833
93757W        W55420  17.676  40.818  10.948
93758W        W55421  16.242  19.540   1.332
93759W        W55422  12.323  31.061  11.550
93760W        W55423  15.586   8.229  10.961
93761W        W55424   6.294  21.574   1.276
93762W        W55425   4.355  24.591   2.310
93763W        W55426  30.019   5.276  12.009
93764W        W55427  43.464  43.901  13.513
93765W        W55428  18.061   5.425   1.897
93766W        W55429  43.319   7.728   0.343
93767W        W55430  16.195  41.415  11.948
93768W        W55431  41.792  20.242  13.954
93769W        W55432  34.581   0.283  13.811
93770W        W55433  32.552   9.872   2.824
93771W        W55434  19.179  11.153   2.180
93772W        W55435   9.867  39.038   3.194
93773W        W55436  41.939  25.194   9.980
93774W        W55437  17.226  33.456   2.741
93775W        W55438  14.304  10.266   4.702
93776W        W55439  17.629  42.856   2.724
93777W        W55440  37.075  14.783   2.739
93778W        W55441  23.669  44.929   0.364
93779W        W55442   0.881  41.442  11.605
93780W        W55443  12.243  26.488   3.155
93781W        W55444  35.588  18.183   4.256
93782W        W55445  32.929  20.532   3.201
93783W        W55446  12.142   9.883   0.740
93784W        W55447  25.985   2.458  11.980
93785W        W55448  18.746  36.478  14.847
93786W        W55449  39.421  11.713   4.804
93787W        W55450  40.414   4.732   3.861
93788W        W55451   9.170  38.928   0.380
93789W        W55452  28.064  33.129  13.892
93790W        W55453  27.984  38.467   1.416
93791W        W55454  13.626  34.389   2.665
93792W        W55455   5.405  23.213   1.782
93793W        W55456   7.279  11.366  14.023
93794W        W55457   6.871  34.446   0.400
93795W        W55458  22.557  11.139   0.384
93796W        W55459  23.643  33.103  13.337
93797W        W55460  23.176  43.516  14.965
93798W        W55461  25.638  21.132  13.873
93799W        W55462  20.768  13.302  11.082
93800W        W55463  38.014  31.532  12.372
93801W        W55464  43.438  35.400  13.524
93802W        W55465  37.427  10.267   2.770
93803W        W55466  25.623  23.539   1.783
93804W        W55467  19.650  16.724  13.820
93805W        W55468  31.068  13.705   3.737
93806W        W55469  41.884   3.344  14.899
93807W        W55470  35.439  14.109   0.739
93808W        W55471  20.602  42.313  10.966
93809W        W55472   5.347  16.089  11.116
93810W        W55473   4.741  20.191   2.252
93811W        W55474  17.771  40.964   2.202
93812W        W55475  35.093  31.619   0.414
93813W        W55476  36.481  18.604  13.405
93814W        W55477  14.753  36.405   0.311
93815W        W55478  28.120   0.362   0.898
93816W        W55479  44.310  10.228   4.262
93817W        W55480  35.394  27.475   0.947
93818W        W55481  43.270  28.517   3.307
93819W        W55482  30.071   1.251   4.792
93820W        W55483  32.910  34.394  12.341
93821W        W55484  42.888  35.458  13.954
93822W        W55485  40.920  29.539  12.933
93823W        W55486  11.195  37.377   3.684
93824W        W55487  13.844  37.923  12.378
93825W        W55488  32.018   3.841   4.306
93826W        W55489  40.922  12.288   3.779
93827W        W55490  16.699  23.083  13.325
93828W        W55491  34.557  38.545   1.345
93829W        W55492   2.265  16.244  14.897
93830W        W55493  30.157   1.751   4.691
93831W        W55494  15.141  33.030   4.605
93832W        W55495  41.376  37.525   3.330
93833W        W55496  41.521   8.749  13.043
93834W        W55497  13.762  41.449  11.069
93835W        W55498  17.763  12.219   4.345
93836W        W55499   4.363   2.934   0.448
93837W        W55500  13.158  27.959   1.234
93838W        W55501  21.513  41.039  11.419
93839W        W55502   4.740  44.945   0.928
93840W        W55503  18.255  42.398   2.312
93841W        W55504  37.356   0.404   1.871
93842W        W55505  24.719  42.506  11.503
93843W        W55506  38.477  21.560   3.282
93844W        W55507  42.330   1.786  14.788
93845W        W55508   8.291  42.788   0.462
93846W        W55509  10.335  13.120  11.411
93847W        W55510  26.486  36.405  12.866
93848W        W55511   4.878   3.827   0.293
93849W        W55512  41.330  30.917  13.361
93850W        W55513  41.835  28.617  14.399
93851W        W55514  36.492  16.195  12.536
93852W        W55515  42.492  20.235  11.921
93853W        W55516  27.956   5.741   0.965
93854W        W55517  21.051  35.578  12.022
93855W        W55518   4.331  10.851  12.933
93856W        W55519  16.805   6.801   1.363
93857W        W55520  35.536   6.893  13.056
93858W        W55521  13.136   9.378  11.084
93859W        W55522  44.814   2.240  10.550
93860W        W55523  16.750   4.761  13.421
93861W        W55524   5.696   1.811   3.737
93862W        W55525   0.818  24.610   1.390
93863W        W55526   7.846  13.826  10.468
93864W        W55527   4.756  22.195  10.906
93865W        W55528  22.509  13.757  11.979
93866W        W55529  11.704   2.864  13.019
93867W        W55530  34.946  30.013   2.284
93868W        W55531  20.258  21.156   4.607
93869W        W55532   8.678  26.703   0.896
93870W        W55533  21.228  20.680   4.670
93871W        W55534  19.596  25.162  14.330
93872W        W55535  38.035  39.360  12.919
93873W        W55536  11.246  26.156   1.774
93874W        W55537  44.962  41.359  12.458
93875W        W55538  30.559  43.292   1.821
93876W        W55539  12.802  31.062   3.638
93877W        W55540  31.645  26.647   4.699
93878W        W55541  37.890   7.730  10.551
93879W        W55542  22.030  29.462   1.273
93880W        W55543  24.161   1.737   5.726
93881W        W55544  29.580  38.828  14.338
93882W        W55545  23.615  11.240  14.314
93883W        W55546   9.678  11.241  11.085
93884W        W55547  26.634  31.060  11.867
93885W        W55548  30.915  24.182  10.504
93886W        W55549  42.032  33.971   3.779
93887W        W55550   9.674  18.711   2.393
93888W        W55551  23.552  38.426   3.745
93889W        W55552  44.927  24.678  10.954
93890W        W55553  38.355  33.533  14.022
93891W        W55554   5.863  27.590   3.717
93892W        W55555  16.571  43.272   2.715
93893W        W55556  22.111  16.728   0.834
93894W        W55557   9.660  34.561   4.160
93895W        W55558   1.318   2.852  12.349
93896W        W55559  33.095  30.511   4.635
93897W        W55560   7.337  22.120   3.770
93898W        W55561  38.484  21.250   2.779
93899W        W55562  38.940  26.695   3.868
93900W        W55563   0.859  28.600  13.360
93901W        W55564  25.536  14.648   2.232
93902W        W55565  21.217  21.686  12.372
93903W        W55566  26.567  27.997  13.409
93904W        W55567  24.088  24.040   0.770
93905W        W55568  26.151  30.992   4.703
93906W        W55569   7.189  41.874  13.404
93907W        W55570   2.228  22.230  11.959
93908W        W55571   0.399   9.762   1.800
93909W        W55572  25.572  20.612  14.795
93910W        W55573  24.063  32.896  14.491
93911W        W55574  28.680   0.284   1.387
93912W        W55575  12.291  21.531   4.689
93913W        W55576   5.822  38.860  14.825
93914W        W55577   0.450  22.189   2.376
93915W        W55578  22.554   4.935  13.958
93916W        W55579  41.418  15.821   1.807
93917W        W55580  36.885  15.154   3.360
93918W        W55581  35.071  27.542  12.471
93919W        W55582  27.132  27.543  14.359
93920W        W55583  26.520  13.841  11.113
93921W        W55584  18.612  34.406   1.712
93922W        W55585  22.088  34.015  11.012
93923W        W55586  39.912  32.097  14.490
93924W        W55587  36.030   6.384   3.215
93925W        W55588  24.129   6.701   0.406
93926W        W55589  15.723  33.889  14.897
93927W        W55590  33.452  12.691  11.530
93928W        W55591   6.265  36.076  10.157
93929W        W55592  34.121   8.655  12.880
93930W        W55593  20.084  23.205  12.579
93931W        W55594  38.491  43.917  12.927
93932W        W55595  26.179  29.141  11.447
93933W        W55596  18.287  17.672  14.867
93934W        W55597  29.141  35.443   2.209
93935W        W55598   1.907  37.351   4.673
93936W        W55599  12.281  33.973   4.147
93937W        W55600   3.739   7.347   1.401
93938W        W55601  24.500  23.061  14.425
93939W        W55602  32.939   8.160   1.411
93940W        W55603   5.786  39.820  12.562
93941W        W55604  18.628   4.762  12.995
93942W        W55605   6.210  21.199  11.605
93943W        W55606  35.395  32.480   0.812
93944W        W55607  14.154  11.371   4.258
93945W        W55608  26.579  28.951   1.290
93946W        W55609   6.847  24.108  10.948
93947W        W55610  23.535  20.747  12.535
93948W        W55611   4.748  16.296   2.205
93949W        W55612   1.748  13.767   2.662
93950W        W55613   9.321  23.733  13.525
93951W        W55614  11.669  19.592   0.802
93952W        W55615  22.613   9.243   1.701
93953W        W55616  36.006   6.902   3.659
93954W        W55617  28.083  14.157   0.935
93955W        W55618  28.109   2.798   4.747
93956W        W55619   0.914  40.402  13.389
93957W        W55620   7.221  28.633  12.479
93958W        W55621  36.429  42.486   4.191
93959W        W55622   7.316  19.734  12.929
93960W        W55623  34.988  25.058  11.953
93961W        W55624  12.639  32.957  13.442
93962W        W55625  22.083  14.270   1.318
93963W        W55626  33.098  21.076   4.304
93964W        W55627  35.946  18.093   3.802
93965W        W55628  18.148  33.039   4.275
93966W        W55629  37.076  44.834  12.346
93967W        W55630  33.494  43.271  12.341
93968W        W55631  34.529  26.596   4.818
93969W        W55632  24.709   4.366   0.463
93970W        W55633   1.418  22.231   4.754
93971W        W55634  29.998  17.084   3.202
93972W        W55635  34.428  19.567  11.557
93973W        W55636  38.934  27.080  10.966
93974W        W55637   1.968   8.177   0.460
93975W        W55638  37.577  11.732  13.497
93976W        W55639   5.717  41.957  11.472
93977W        W55640  16.259  14.203   2.816
93978W        W55641   9.749  42.932  10.588
93979W        W55642  39.489   2.749   4.203
93980W        W55643  14.162   8.188   3.198
93981W        W55644   5.723  20.630   4.778
93982W        W55645   0.807  10.857  13.500
93983W        W55646  20.539  32.085   0.869
93984W        W55647  42.006  22.705  13.327
93985W        W55648  24.221  15.821   5.159
93986W        W55649  32.097  40.320  14.408
93987W        W55650  30.115  13.180   1.889
93988W        W55651  42.868  43.352   3.257
93989W        W55652   8.791   8.763  12.077
93990W        W55653  43.456  44.959  12.523
93991W        W55654  20.192   4.842   1.771
93992W        W55655   4.316   1.896   3.631
93993W        W55656  24.694   9.151   1.844
93994W        W55657  38.042   0.861  11.129
93995W        W55658  35.499  20.601  11.911
93996W        W55659  16.151  19.695  14.379
93997W        W55660  22.740  13.143   1.775
93998W        W55661  20.635  24.634   0.368
93999W        W55662   4.309   2.308  12.479
94000W        W55663  20.663  14.321   0.384
94001W        W55664  17.181   7.191  12.082
94002W        W55665  43.782  24.104   3.293
94003W        W55666  10.785  28.164   4.293
94004W        W55667  10.829  44.441   1.786
94005W        W55668  15.744  36.481   3.797
94006W        W55669  43.994  27.192  12.065
94007W        W55670   9.157   4.878   4.229
94008W        W55671  44.941  21.158   1.871
94009W        W55672  10.183  23.593   3.367
94010W        W55673  44.886  25.649  13.885
94011W        W55674  15.157  11.232  11.973
94012W        W55675  19.684   1.951   3.220
94013W        W55676  35.386   4.381  10.481
94014W        W55677   1.271  26.971  11.907
94015W        W55678  21.629  23.680  10.040
94016W        W55679  28.965   7.303   1.798
94017W        W55680  15.772   7.415   1.858
94018W        W55681  41.324  42.956  11.534
94019W        W55682  40.303  17.593   3.644
94020W        W55683  43.428   7.289  14.803
94021W        W55684   9.720  40.484  10.609
94022W        W55685  44.757  43.775  14.910
94023W        W55686   0.865  43.857   4.722
94024W        W55687  27.470   5.931   0.854
94025W        W55688  12.739   4.889  13.444
94026W        W55689  31.056   1.794   4.623
94027W        W55690  20.700  35.909  13.933
94028W        W55691  19.072  18.692   1.929
94029W        W55692  15.740   6.684   2.328
94030W        W55693  14.776   7.261   0.828
94031W        W55694  36.565   3.713   0.892
94032W        W55695  42.352   4.435  12.927
94033W        W55696  14.682   0.989  10.089
94034W        W55697  41.890  23.216  11.987
94035W        W55698  25.062  33.406  10.894
94036W        W55699  32.510   7.846   4.244
94037W        W55700  35.493  30.601   2.723
94038W        W55701  12.115  11.212   5.088
94039W        W55702   9.349  18.235   2.385
94040W        W55703  43.787   0.837  12.009
94041W        W55704   1.895  11.175  10.642
94042W        W55705  44.308  42.445  13.064
94043W        W55706  18.109  10.242   4.830
94044W        W55707  28.929  13.324  14.362
94045W        W55708   6.205  30.589   5.082
94046W        W55709   1.310  14.702  11.939
94047W        W55710  21.694  41.459  13.034
94048W        W55711  22.090  42.423   3.736
94049W        W55712  18.576  25.659   2.350
94050W        W55713  36.922   7.880  13.861
94051W        W55714  33.007  20.655  13.984
94052W        W55715  33.972  40.908  13.922
94053W        W55716  42.022  30.567   0.443
94054W        W55717  11.261   6.758  12.051
94055W        W55718  19.770  41.419   2.765
94056W        W55719  15.296  37.518   1.764
94057W        W55720   4.817  13.824   3.793
94058W        W55721  32.478  39.951  13.834
94059W        W55722   5.840  33.395  12.563
94060W        W55723  11.703  18.718  10.047
94061W        W55724  12.120  41.845   0.459
94062W        W55725  17.568   6.217  13.948
94063W        W55726  22.728  15.754  14.350
94064W        W55727  11.653  21.673  12.934
94065W        W55728  23.521  28.175  12.415
94066W        W55729  42.981  37.849   1.838
94067W        W55730  34.115  27.477  12.068
94068W        W55731   3.344  18.227   0.263
94069W        W55732   8.218  31.533  12.357
94070W        W55733  15.693  14.161  11.860
94071W        W55734  42.379  27.021  11.957
94072W        W55735  31.964  16.188   2.209
94073W        W55736  18.740  11.143   3.225
94074W        W55737   7.850  30.077   1.886
94075W        W55738   4.895   8.819  14.456
94076W        W55739  18.191  25.038   2.331
94077W        W55740  15.664  28.437  10.470
94078W        W55741  35.892  38.939  12.964
94079W        W55742   6.809  13.168   2.260
94080W        W55743  28.127   0.971  10.970
94081W        W55744   5.769  10.832  10.417
94082W        W55745   3.440  22.031  10.419
94083W        W55746  33.415   2.893  11.985
94084W        W55747  15.103  24.049  11.923
94085W        W55748  28.561   5.917  12.027
94086W        W55749  24.554   9.191  12.914
94087W        W55750  30.613  36.351  10.541
94088W        W55751  40.306  15.745  12.087
94089W        W55752  35.599   6.869  12.081
94090W        W55753  37.346  10.714   0.817
94091W        W55754  42.303   0.264   0.329
94092W        W55755  38.411  18.095  10.575
94093W        W55756  33.521  12.296  10.899
94094W        W55757   8.189   1.408  13.884
94095W        W55758   8.812  37.488  12.896
94096W        W55759  14.674  44.412   0.741
94097W        W55760  34.936  32.082  12.339
94098W        W55761  19.228  26.195   0.914
94099W        W55762  36.050  11.285  11.432
94100W        W55763  23.714  20.229   2.316
94101W        W55764  34.481  19.175  13.839
94102W        W55765  35.056  13.215  13.807
94103W        W55766  44.325   5.342  14.299
94104W        W55767  39.504  28.016   0.810
94105W        W55768  39.011  31.459   0.317
94106W        W55769  34.028   5.272   0.945
94107W        W55770  12.228  36.053   3.772
94108W        W55771  23.991  15.594   2.245
94109W        W55772  11.342   5.733   0.341
94110W        W55773  32.501  24.226  11.978
94111W        W55774  36.488   2.728   4.770
94112W        W55775   4.407   1.855  12.078
94113W        W55776  20.245   1.290  14.003
94114W        W55777  41.496  44.787  10.495
94115W        W55778  17.124  20.157  14.909
94116W        W55779  24.087  17.083  12.964
94117W        W55780  39.049  32.994   1.350
94118W        W55781  37.902  10.240  14.837
94119W        W55782  38.846  24.084  10.621
94120W        W55783  37.041  22.616  11.459
94121W        W55784  43.969   1.778  13.835
94122W        W55785   4.304   5.345   0.873
94123W        W55786  10.212  44.311  13.933
94124W        W55787   2.437   3.257  14.453
94125W        W55788  34.389  15.741  10.906
94126W        W55789   9.758  12.740   4.201
94127W        W55790  33.002  12.202   0.470
94128W        W55791  13.725  32.590  14.017
94129W        W55792  19.602  40.867   3.254
94130W        W55793  10.194   0.942   4.763
94131W        W55794  36.592  27.485  13.463
94132W        W55795   5.329   1.308  11.112
94133W        W55796  19.679   7.375  13.502
94134W        W55797  21.582  22.591   4.746
94135W        W55798  38.941  22.180   3.772
94136W        W55799  31.934  28.470  11.911
94137W        W55800   8.781  38.933  14.282
94138W        W55801  44.807   8.782  14.847
94139W        W55802   5.863  18.126  14.413
94140W        W55803   8.706  22.738  11.477
94141W        W55804  32.935  22.121  11.078
94142W        W55805  11.735  28.504  10.628
94143W        W55806   4.769  32.938   1.906
94144W        W55807   5.343  16.802  13.464
94145W        W55808  14.597   2.279   1.894
94146W        W55809  29.150  13.325   0.244
94147W        W55810  12.657  34.087   1.904
94148W        W55811  28.140  39.485  11.064
94149W        W55812  16.289  38.499  13.537
94150W        W55813  22.013   8.819   0.320
94151W        W55814  43.937  42.349   0.829
94152W        W55815  20.166   0.324   3.357
94153W        W55816  44.864  44.990  13.333
94154W        W55817  41.505  37.976   1.210
94155W        W55818   7.395  42.893   2.713
94156W        W55819  29.447  37.553   9.950
94157W        W55820   0.782  35.442   3.703
94158W        W55821  40.985  44.297   3.341
94159W        W55822  41.322  22.142  14.359
94160W        W55823   1.875  16.269  11.931
94161W        W55824  13.109  31.486  12.827
94162W        W55825  39.360  21.115  11.896
94163W        W55826  28.019  18.605  14.991
94164W        W55827  39.418  13.701  13.064
94165W        W55828  32.142   3.944  13.060
94166W        W55829  31.941  16.618  14.812
94167W        W55830  36.444  26.064  12.974
94168W        W55831   6.684  18.586   4.725
94169W        W55832  26.599  19.780   2.283
94170W        W55833  41.912  16.571   2.883
94171W        W55834  19.048  20.208  14.854
94172W        W55835  15.627   7.694  14.949
94173W        W55836  31.601  40.399  11.605
94174W        W55837   7.894  44.454  13.322
94175W        W55838  31.940  13.206   4.672
94176W        W55839  20.050  20.621   4.659
94177W        W55840  12.330  14.710  12.533
94178W        W55841   1.886   2.240  10.909
94179W        W55842  21.068  32.994   2.836
94180W        W55843   1.760  35.864  14.973
94181W        W55844   2.857  39.917   2.300
94182W        W55845  30.601  30.565  14.806
94183W        W55846  13.602  10.191  11.530
94184W        W55847  20.631  13.672  14.439
94185W        W55848  34.518  29.659   3.343
94186W        W55849  24.977  19.059   0.297
94187W        W55850   2.955  23.727  14.996
94188W        W55851  10.352  38.958   5.139
94189W        W55852  21.218   9.762  12.825
94190W        W55853   7.307  25.179  13.887
94191W        W55854  19.758  13.763  10.966
94192W        W55855   3.283   9.303   2.697
94193W        W55856  26.197   2.727   3.742
94194W        W55857  38.004  43.400  14.793
94195W        W55858  39.344  14.612  12.040
94196W        W55859  17.759   7.257  14.926
94197W        W55860  40.390  41.428   0.866
94198W        W55861  40.383  12.220  10.975
94199W        W55862   8.394  31.642  11.115
94200W        W55863  42.887  15.817   5.084
94201W        W55864  21.754  26.965  10.489
94202W        W55865  12.751   2.306   2.807
94203W        W55866   0.358  10.758   0.843
94204W        W55867  40.027  32.946  12.380
94205W        W55868  17.732  15.166  13.518
94206W        W55869   4.853  36.937   2.814
94207W        W55870  41.904  27.542   2.230
94208W        W55871  13.165  31.513   2.216
94209W        W55872  35.953   9.365   1.768
94210W        W55873  28.124   8.259   1.372
94211W        W55874  28.105  44.397  12.925
94212W        W55875  36.995  27.969  14.289
94213W        W55876   8.402   8.798  14.515
94214W        W55877  12.330  22.062   3.185
94215W        W55878  27.687  12.234   3.209
94216W        W55879  38.992   5.285  14.918
94217W        W55880  32.500   1.877   3.662
94218W        W55881  40.392  37.579   3.700
94219W        W55882  27.619  15.791  14.941
94220W        W55883  27.183   3.870   2.825
94221W        W55884  19.177  27.112  13.485
94222W        W55885  24.039  27.036   1.711
94223W        W55886  42.491   5.699   3.723
94224W        W55887  15.178  12.157  12.513
94225W        W55888  16.125   8.387  13.436
94226W        W55889  40.049  42.309  10.911
94227W        W55890  34.458  33.543  11.906
94228W        W55891  34.948  21.720   5.112
94229W        W55892  38.952  24.517  13.938
94230W        W55893  34.943  18.608  13.911
94231W        W55894  18.139  14.785   2.746
94232W        W55895  38.037  40.980  14.880
94233W        W55896  32.607  25.083   1.867
94234W        W55897  18.163  38.849   3.369
94235W        W55898  26.589   4.270   4.281
94236W        W55899  38.874  35.389   4.217
94237W        W55900   8.187  37.348  14.892
94238W        W55901  27.152   1.827   5.286
94239W        W55902  18.197  23.654  14.872
94240W        W55903  36.948  23.023   3.210
94241W        W55904  11.315  18.734   4.325
94242W        W55905   5.900  29.543   4.289
94243W        W55906  41.970   5.335  12.426
94244W        W55907  36.449  21.513  14.971
94245W        W55908  25.606  12.238   2.282
94246W        W55909   8.255  14.327   4.687
94247W        W55910  15.702  43.501  14.002
94248W        W55911   5.388  43.402  14.407
94249W        W55912  29.985   3.379  13.429
94250W        W55913  30.991  26.605  11.074
94251W        W55914  32.979  19.681  13.461
94252W        W55915  26.657  19.537   0.463
94253W        W55916   4.769   1.366  13.528
94254W        W55917  21.236  33.129   0.429
94255W        W55918   8.322  12.797   2.341
94256W        W55919   9.161  36.890  11.494
94257W        W55920  20.755  20.148  14.863
94258W        W55921  36.888  40.386   3.666
94259W        W55922  23.565  29.951   1.369
94260W        W55923  42.321  27.170   0.918
94261W        W55924  30.473   3.399  11.932
94262W        W55925  13.350  24.722   1.804
94263W        W55926  17.559  22.523   1.843
94264W        W55927   6.757  16.264  10.932
94265W        W55928  22.719  16.136   4.605
94266W        W55929  36.416  38.941  13.455
94267W        W55930  27.453  33.058  12.515
94268W        W55931  16.202  17.237   4.648
94269W        W55932  37.000  11.165  14.380
94270W        W55933  23.529  43.814  13.397
94271W        W55934  24.989  38.043  10.420
94272W        W55935  27.113  44.407   0.292
94273W        W55936  20.700  33.952  10.529
94274W        W55937  13.228  20.061  14.781
94275W        W55938   3.719  10.263  11.467
94276W        W55939  43.355  24.050   3.676
94277W        W55940   0.973  21.573  14.334
94278W        W55941   5.691  16.122   1.774
94279W        W55942  23.048  31.417  11.027
94280W        W55943  26.168   3.819  12.998
94281W        W55944   1.861  23.717   0.908
94282W        W55945  13.249  16.711  12.493
94283W        W55946  20.526  13.739  13.548
94284W        W55947  36.447  34.560  14.921
94285W        W55948  34.006  19.275   0.795
94286W        W55949  28.472  13.210  14.021
94287W        W55950  27.085  36.947  11.609
94288W        W55951  15.785  41.487  12.824
94289W        W55952  15.246  42.368   3.797
94290W        W55953  11.849  36.484  10.134
94291W        W55954  16.602   7.864  12.419
94292W        W55955   4.402  23.109   2.413
94293W        W55956  14.697  14.226  12.902
94294W        W55957   2.909  33.617  10.893
94295W        W55958  23.731  30.976   4.801
94296W        W55959  44.472  34.872  13.545
94297W        W55960  44.493  27.638  14.391
94298W        W55961  16.251   4.747  11.483
94299W        W55962  34.468   1.474   4.642
94300W        W55963  37.841  35.493   2.332
94301W        W55964   8.392   9.186   3.339
94302W        W55965  12.642  33.430   2.193
94303W        W55966   4.778  25.520   1.767
94304W        W55967  14.290  42.420  13.449
94305W        W55968  19.049  22.574  10.979
94306W        W55969  32.542   6.262  12.952
94307W        W55970  19.098  27.014  10.515
94308W        W55971  10.713  11.241  14.428
94309W        W55972  26.679   9.750   3.331
94310W        W55973  30.928  40.431   0.900
94311W        W55974  19.611   1.948  11.487
94312W        W55975  14.341  35.043   4.119
94313W        W55976   3.233  13.260  12.429
94314W        W55977   2.312   2.762  10.642
94315W        W55978  11.332  18.247   0.834
94316W        W55979  44.836  42.900  13.378
94317W        W55980  18.204  10.675   3.316
94318W        W55981   8.264  42.817   3.199
94319W        W55982  18.160  29.563  12.933
94320W        W55983   1.237  14.722   4.674
94321W        W55984  14.651  26.565  11.554
94322W        W55985  44.977  20.101   2.882
94323W        W55986  31.014  29.099   1.231
94324W        W55987   7.756   2.816  11.438
94325W        W55988  26.105  31.448   0.347
94326W        W55989  14.100  41.449   3.297
94327W        W55990  21.086  12.822  13.047
94328W        W55991  40.481   0.466   4.331
94329W        W55992  11.372  22.019  14.975
94330W        W55993  44.998  15.150  12.072
94331W        W55994   5.235  10.872  14.786
94332W        W55995   1.737  34.080  11.095
94333W        W55996  12.749  20.606   0.307
94334W        W55997  10.154  26.516  11.100
94335W        W55998  39.387  10.340   2.667
94336W        W55999  12.272  16.573   2.786
94337W        W56000  41.385  44.828   4.137
94338W        W56001  27.549   9.718   2.364
94339W        W56002  27.490  20.632  14.960
94340W        W56003  42.934  22.212   4.786
94341W        W56004  23.654  34.056   3.351
94342W        W56005  25.057  12.222   1.324
94343W        W56006  38.953  21.164   4.298
94344W        W56007  43.464  28.992  12.064
94345W        W56008  15.774   9.813   1.381
94346W        W56009  36.399  14.638  11.866
94347W        W56010  25.676  37.464  13.359
94348W        W56011  37.987  39.863  11.480
94349W        W56012  21.221  19.603  12.426
94350W        W56013  37.905  19.076  12.890
94351W        W56014  40.399   0.479  11.096
94352W        W56015   2.811  14.181   0.941
94353W        W56016  43.909   0.297  12.349
94354W        W56017   6.300  40.324  11.973
94355W        W56018  22.034   7.340  12.513
94356W        W56019  10.753  32.573  11.875
94357W        W56020  10.833   2.879  12.571
94358W        W56021  29.639  17.185   2.233
94359W        W56022   4.362  19.148   4.677
94360W        W56023  34.433  15.255   3.833
94361W        W56024  17.674  14.626   1.923
94362W        W56025  19.668  26.135   1.906
94363W        W56026  14.285  28.488  11.008
94364W        W56027   1.454  13.277   0.954
94365W        W56028  24.011   5.814  11.891
94366W        W56029  29.649  12.718   2.309
94367W        W56030   9.233  32.422   3.826
94368W        W56031   1.325  26.163  11.391
94369W        W56032  25.180  11.337   2.229
94370W        W56033  31.152   1.766   2.195
94371W        W56034  39.926   8.397  14.000
94372W        W56035  15.652  16.780   2.783
94373W        W56036  19.230  44.419   0.279
94374W        W56037  14.224  15.811  10.887
94375W        W56038  14.780  12.299  13.352
94376W        W56039   6.917  38.849  14.316
94377W        W56040   0.313  39.527  13.518
94378W        W56041  20.271  37.916  13.914
94379W        W56042   5.246  17.072   3.752
94380W        W56043  27.124  26.471  14.359
94381W        W56044  16.794  19.727  10.512
94382W        W56045  26.557  18.238  13.526
94383W        W56046   8.197   3.359   3.325
94384W        W56047   0.961  11.839  11.042
94385W        W56048  23.989  34.993  11.433
94386W        W56049  26.079  20.532   0.936
94387W        W56050   5.195  22.241   2.763
94388W        W56051  38.018   6.841  10.476
94389W        W56052   6.399  30.106  12.507
94390W        W56053   1.939  20.219  14.875
94391W        W56054  17.217   6.391   0.762
94392W        W56055   3.235  10.796   1.401
94393W        W56056   1.432  21.585   3.213
94394W        W56057  35.400   1.442  10.507
94395W        W56058  17.164  11.686  11.392
94396W        W56059   2.839  39.993  14.811
94397W        W56060  31.603   8.330  10.643
94398W        W56061   3.396  43.791   1.292
94399W        W56062   6.825   3.868   4.700
94400W        W56063  21.065  23.068  13.800
94401W        W56064  15.638  22.643   1.403
94402W        W56065   9.876  42.352  13.525
94403W        W56066  18.708  33.893   2.214
94404W        W56067  19.738   4.282   1.827
94405W        W56068  12.840  41.821  11.477
94406W        W56069  27.146   3.342  11.014
94407W        W56070  17.081  26.646   3.153
94408W        W56071  21.058  36.882   0.263
94409W        W56072  23.691   8.772   0.794
94410W        W56073   1.732   0.937   2.884
94411W        W56074   7.222  39.939   0.297
94412W        W56075  19.279  34.373  14.307
94413W        W56076  40.532  16.266  13.883
94414W        W56077  19.270  32.074  10.446
94415W        W56078  40.512  38.894  12.988
94416W        W56079  44.799  42.915  11.981
94417W        W56080  15.752   2.916  11.589
94418W        W56081  25.118  26.689   0.824
94419W        W56082  15.178  17.175   1.307
94420W        W56083  21.028  12.680  13.955
94421W        W56084  14.097  30.921   2.875
94422W        W56085  26.033   5.405   3.860
94423W        W56086   2.761   4.733   3.760
94424W        W56087   8.252  36.097   1.366
94425W        W56088  27.450  37.485  14.383
94426W        W56089  26.037  40.925  12.516
94427W        W56090  27.554  27.106  12.924
94428W        W56091   6.897  21.608  14.790
94429W        W56092  18.291  31.407   2.334
94430W        W56093  20.200  28.132   1.407
94431W        W56094  43.825  18.226   2.769
94432W        W56095   0.942  22.715  13.483
94433W        W56096   6.899  42.454  11.533
94434W        W56097  13.638  36.040   4.205
94435W        W56098  41.354  30.156   2.722
94436W        W56099   5.409  12.761   2.676
94437W        W56100  36.952  32.499  14.487
94438W        W56101   0.909  24.040  14.759
94439W        W56102   4.909   2.303  12.847
94440W        W56103  32.503  35.106   0.385
94441W        W56104   2.471  26.674  12.470
94442W        W56105   7.255  16.216   2.291
94443W        W56106  15.724  32.092  11.129
94444W        W56107   8.266  26.550   4.721
94445W        W56108  41.485   9.200   0.446
94446W        W56109  28.104  13.839  13.426
94447W        W56110  42.342  41.979   2.749
94448W        W56111  41.451  15.329   0.736
94449W        W56112  11.694  29.666   0.919
94450W        W56113   3.438  17.732  14.916
94451W        W56114   7.286  12.356  10.498
94452W        W56115   4.311  22.186   1.210
94453W        W56116  27.490  15.678  13.848
94454W        W56117  15.581   1.316  12.362
94455W        W56118  35.944  12.646  11.445
94456W        W56119  19.553  11.827   2.886
94457W        W56120  10.361  12.261   1.738
94458W        W56121  10.654  13.824  11.988
94459W        W56122  41.798   8.171  14.767
94460W        W56123  15.183  13.327  13.492
94461W        W56124  17.727  10.168   1.826
94462W        W56125   9.390   9.222  13.814
94463W        W56126   1.298   9.367   3.752
94464W        W56127  16.180   6.807   1.372
94465W        W56128  14.105   1.325  14.307
94466W        W56129  42.823  25.575   0.809
94467W        W56130  32.886  10.205  13.394
94468W        W56131  33.474  39.457  13.966
94469W        W56132   5.695  38.554   3.385
94470W        W56133  16.142  24.011  13.033
94471W        W56134  41.885  40.423   3.294
94472W        W56135  11.293  32.972  12.090
94473W        W56136  21.115  13.600   3.773
94474W        W56137  26.535  24.566   5.246
94475W        W56138   0.914  37.859   4.188
94476W        W56139  19.652  38.446   1.278
94477W        W56140  34.949  37.506  13.817
94478W        W56141  14.655  16.664   1.718
94479W        W56142  10.356  32.089   3.700
94480W        W56143  18.143   0.259  10.428
94481W        W56144  16.680  37.832   0.834
94482W        W56145  40.908  16.736   1.345
94483W        W56146  37.485  39.869   2.757
94484W        W56147  36.376  22.523   0.740
94485W        W56148  16.259  26.486  10.462
94486W        W56149  36.417  24.040  14.329
94487W        W56150  27.168  28.107  13.494
94488W        W56151  28.659  14.325   2.757
94489W        W56152  37.065   9.238   5.108
94490W        W56153  16.796  30.070  11.494
94491W        W56154   8.749  30.510  11.876
94492W        W56155  37.013   8.165   0.452
94493W        W56156  19.534  17.708   2.212
94494W        W56157  14.688   4.778  13.416
94495W        W56158   5.313  22.109   2.302
94496W        W56159  41.475  39.433  13.887
94497W        W56160  28.494  32.484   2.684
94498W        W56161  39.047  29.006  11.996
94499W        W56162   5.917  42.495  13.959
94500W        W56163  23.998  38.023   4.342
94501W        W56164  41.023  23.206   0.389
94502W        W56165  36.427  21.749  11.385
94503W        W56166  36.496  10.174   4.834
94504W        W56167  22.636   9.176   0.868
94505W        W56168  16.584  36.844  14.900
94506W        W56169  35.927  27.446  13.445
94507W        W56170  42.025  22.142  13.871
94508W        W56171  21.562  36.855   0.840
94509W        W56172  35.036   8.193  13.908
94510W        W56173  15.233  26.569   0.793
94511W        W56174  28.524   5.825   3.269
94512W        W56175  36.478  10.718  11.073
94513W        W56176  37.336  32.047  14.020
94514W        W56177  10.238   5.827   2.287
94515W        W56178  25.083   6.373  13.381
94516W        W56179  20.583  21.623   0.776
94517W        W56180  14.824   0.437   4.139
94518W        W56181  24.692   0.445   2.208
94519W        W56182  21.694  38.942   1.402
94520W        W56183  25.200  10.145  12.063
94521W        W56184  26.027   8.766   1.413
94522W        W56185  15.666  21.223   3.807
94523W        W56186   4.920   4.447  10.157
94524W        W56187  23.018  40.539  11.465
94525W        W56188  15.301   1.800  14.423
94526W        W56189   3.867  37.030   2.247
94527W        W56190  10.209   6.350  14.463
94528W        W56191  29.053  16.717   3.792
94529W        W56192  44.314   6.242  12.936
94530W        W56193  29.939   2.742  13.945
94531W        W56194  13.831  27.993   0.448
94532W        W56195  44.000   0.325   0.348
94533W        W56196   9.305  37.082   3.631
94534W        W56197  28.108  37.479  11.405
94535W        W56198  35.006   9.249   2.676
94536W        W56199  26.461  34.460   0.822
94537W        W56200  25.062   5.328   0.368
94538W        W56201  12.767  26.552  11.906
94539W        W56202  16.248  24.200  13.874
94540W        W56203   1.352  42.013  13.996
94541W        W56204  21.261  22.718   5.132
94542W        W56205  11.723   8.388  10.066
94543W        W56206  17.154  29.163  14.923
94544W        W56207  14.829  37.335  14.758
94545W        W56208  13.282  33.431  13.025
94546W        W56209  33.886   7.326   0.951
94547W        W56210  17.618  21.664  10.456
94548W        W56211   0.412  12.262   3.365
94549W        W56212   8.165  36.347  13.006
94550W        W56213   5.362  15.808   3.669
94551W        W56214  28.986  21.154  14.946
94552W        W56215  13.149  31.133   4.777
94553W        W56216  21.041  17.576  10.566
94554W        W56217  35.988  26.590   0.783
94555W        W56218  35.948   6.299   5.641
94556W        W56219  14.814  42.382   2.891
94557W        W56220  36.477  29.999   3.810
94558W        W56221  37.402  42.841   4.770
94559W        W56222  42.003   0.833   1.414
94560W        W56223  30.086  35.506  13.548
94561W        W56224  39.837  16.314  13.317
94562W        W56225  27.668   6.767   1.403
94563W        W56226  43.493  14.804  13.384
94564W        W56227   2.918   8.780   5.285
94565W        W56228  17.615  37.987   2.368
94566W        W56229   5.826  38.438   0.926
94567W        W56230   0.482  40.443  11.593
94568W        W56231  21.655  22.658   1.880
94569W        W56232  27.493  36.077   1.433
94570W        W56233   8.192  22.534   0.384
94571W        W56234  42.429  29.920  11.935
94572W        W56235  30.007  33.433  13.976
94573W        W56236  11.667  41.403   1.833
94574W        W56237  10.258  11.665   1.794
94575W        W56238  23.680  23.102   1.848
94576W        W56239  23.528   7.748   0.433
94577W        W56240  18.233   0.822   0.874
94578W        W56241  20.582  13.721   3.768
94579W        W56242  21.018  27.025   2.752
94580W        W56243  22.167  40.005   0.336
94581W        W56244  28.067  26.638   4.837
94582W        W56245  30.569   0.822   3.648
94583W        W56246  21.127  41.946   2.271
94584W        W56247   7.413   7.723  14.957
94585W        W56248  39.843  36.863  11.949
94586W        W56249   5.413  28.605   1.910
94587W        W56250  12.133  13.694   2.891
94588W        W56251  43.358   1.452   1.347
94589W        W56252  29.512  27.453  14.482
94590W        W56253  33.987  39.447   0.458
94591W        W56254  39.371  36.936   0.354
94592W        W56255  37.354  22.035   2.723
94593W        W56256  19.073  12.632   0.750
94594W        W56257  40.316   2.861  11.997
94595W        W56258  41.841  18.622  13.427
94596W        W56259  29.558   6.243  12.505
94597W        W56260  20.265  26.204   1.810
94598W        W56261  23.020   7.844  10.512
94599W        W56262  33.617  38.989  10.524
94600W        W56263  17.682  38.027   1.435
94601W        W56264  17.800  28.011   0.732
94602W        W56265  20.674  27.551  12.052
94603W        W56266  36.091   5.717  14.767
94604W        W56267  22.534   1.965  11.607
94605W        W56268  19.593   9.263   1.907
94606W        W56269  23.023  24.184   2.833
94607W        W56270  40.450  30.524  10.005
94608W        W56271   8.298   1.777  12.887
94609W        W56272  38.967  31.957  12.528
94610W        W56273   0.453  34.066   3.182
94611W        W56274  22.526   6.348   9.943
94612W        W56275  17.233   5.716  12.481
94613W        W56276  30.475   5.286   3.860
94614W        W56277  42.988  15.327  13.365
94615W        W56278  16.270  26.055  10.488
94616W        W56279  31.021  22.053  10.915
94617W        W56280  24.199  41.528   1.365
94618W        W56281  39.539   0.365   4.738
94619W        W56282   9.876  36.860   4.822
94620W        W56283  13.664   6.273  14.298
94621W        W56284  37.368  21.749   1.914
94622W        W56285   4.206  20.642  11.568
94623W        W56286   4.299  44.474   4.303
94624W        W56287   2.953  44.368  12.013
94625W        W56288  37.018  43.427  14.310
94626W        W56289  11.737  33.062   3.334
94627W        W56290  26.556  37.065   3.373
94628W        W56291  16.130  24.182   2.394
94629W        W56292   9.240  23.501  10.604
94630W        W56293  10.686  16.259   1.699
94631W        W56294   1.856   6.185  10.523
94632W        W56295  28.598  24.606  10.412
94633W        W56296  39.494  36.379   2.858
94634W        W56297  42.323  15.678  12.488
94635W        W56298  21.674   7.352   4.135
94636W        W56299  25.208  14.627  10.625
94637W        W56300  12.771  36.490   0.287
94638W        W56301   0.415  29.617   1.904
94639W        W56302  37.019   1.339   1.716
94640W        W56303  43.810  15.797  13.529
94641W        W56304  24.698  24.050   4.646
94642W        W56305  17.190  11.813  12.883
94643W        W56306  22.660  35.029   4.690
94644W        W56307   7.832  42.923  14.875
94645W        W56308   0.283  33.569  11.860
94646W        W56309  19.163   2.908   3.746
94647W        W56310  19.544  27.573  12.954
94648W        W56311  27.961  21.652   1.449
94649W        W56312  22.168  20.062   3.762
94650W        W56313   9.885  29.975  10.587
94651W        W56314   1.415  26.661  11.054
94652W        W56315  22.037   4.727   4.302
94653W        W56316  28.930  22.521   4.751
94654W        W56317   5.800   3.453  11.609
94655W        W56318   4.880   6.736  12.347
94656W        W56319  12.210  27.623  14.786
94657W        W56320  10.737  36.053  11.455
94658W        W56321  17.627   2.738  13.541
94659W        W56322  16.745   0.307   2.322
94660W        W56323  24.494  41.433   1.865
94661W        W56324  25.012  30.965   3.643
94662W        W56325  33.094  18.566   3.749
94663W        W56326  36.383  39.894   1.360
94664W        W56327  41.522  36.382  11.459
94665W        W56328  35.008   4.348   0.299
94666W        W56329   6.274  17.640  11.106
94667W        W56330  31.928  18.128  11.999
94668W        W56331  28.546   3.290  11.583
94669W        W56332  34.528   3.335   2.687
94670W        W56333  23.062  10.224  11.092
94671W        W56334  27.627   1.255  11.519
94672W        W56335  19.146  26.132  14.957
94673W        W56336   7.268  35.062  14.360
94674W        W56337  26.157  25.096  13.035
94675W        W56338  26.673  37.922   2.250
94676W        W56339  11.816  18.737   2.847
94677W        W56340  16.691  18.142  10.960
94678W        W56341  21.026  23.709   3.177
94679W        W56342  23.113   7.804  11.525
94680W        W56343  21.703   4.360  11.047
94681W        W56344  30.530   3.716   0.827
94682W        W56345   6.842   9.649   0.843
94683W        W56346   0.362  22.644   0.303
94684W        W56347  38.938  28.576  11.010
94685W        W56348  16.625  38.512  11.608
94686W        W56349  43.833   0.863   1.800
94687W        W56350  41.973  26.547   3.799
94688W        W56351  43.398  10.250  13.506
94689W        W56352  27.004  32.601  10.534
94690W        W56353  13.773  41.962  11.078
94691W        W56354  16.307  27.017  14.294
94692W        W56355  28.459  33.426   4.740
94693W        W56356  32.571  33.017   4.617
94694W        W56357  13.672  13.141  13.398
94695W        W56358  25.648  19.662   5.138
94696W        W56359  23.623   8.896   0.253
94697W        W56360  34.523  37.335  10.597
94698W        W56361  41.468  42.022  14.399
94699W        W56362  10.855   9.215  13.881
94700W        W56363  36.978  13.824   0.280
94701W        W56364  35.101  19.651  10.575
94702W        W56365  40.343  10.309   4.736
94703W        W56366  36.024   9.217  14.364
94704W        W56367   8.683  23.605  11.437
94705W        W56368  14.224  11.722   1.350
94706W        W56369  42.883  17.581  11.128
94707W        W56370  41.985  12.181   1.331
94708W        W56371  29.485  19.590  10.955
94709W        W56372   1.437  41.295  11.492
94710W        W56373  36.516  32.627  11.049
94711W        W56374  14.822  25.593  12.987
94712W        W56375  12.742  39.477  12.567
94713W        W56376  14.827   5.268  11.503
94714W        W56377  26.557   9.753  11.092
94715W        W56378  15.274   8.864  12.461
94716W        W56379  36.871  28.087  11.879
94717W        W56380  20.722  37.421   1.791
94718W        W56381  38.002  13.779  11.974
94719W        W56382  33.912  27.076  13.053
94720W        W56383  21.695  28.109   4.176
94721W        W56384  11.702  41.852  10.581
94722W        W56385  37.928  15.605  11.458
94723W        W56386  42.330  10.244   2.201
94724W        W56387  24.173  14.764   4.837
94725W        W56388  42.458  28.589  10.589
94726W        W56389  42.831   1.252   1.231
94727W        W56390   5.245  31.495   4.735
94728W        W56391  12.319   5.439  11.540
94729W        W56392  41.465  39.986   1.450
94730W        W56393  37.357  19.692  10.417
94731W        W56394  39.994  21.235  13.010
94732W        W56395  19.612  23.101   0.935
94733W        W56396  32.905   8.270  10.971
94734W        W56397  16.726   7.350  11.027
94735W        W56398  12.158  12.689   2.363
94736W        W56399  36.535  28.672  13.911
94737W        W56400  30.544   8.380   4.170
94738W        W56401  17.792  37.892   5.168
94739W        W56402  28.029  31.911  11.437
94740W        W56403  35.049  24.132  11.488
94741W        W56404  33.525   5.763   4.639
94742W        W56405  24.217  39.999  13.028
94743W        W56406  23.158  18.627  11.568
94744W        W56407  22.593  26.102   1.296
94745W        W56408  29.038  35.399  14.431
94746W        W56409  32.917   7.676   0.349
94747W        W56410  37.080  35.868   3.296
94748W        W56411  25.653  37.919   3.383
94749W        W56412  29.028  24.149   4.838
94750W        W56413  26.142  24.040  11.889
94751W        W56414  16.763   3.365  13.833
94752W        W56415  35.459  42.791   3.635
94753W        W56416  30.024  12.777   3.633
94754W        W56417  14.118  39.962  10.161
94755W        W56418  15.086  40.535   3.199
94756W        W56419  43.863   0.353   4.265
94757W        W56420  37.934  29.164  13.950
94758W        W56421   7.856  19.703   5.166
94759W        W56422  20.162  33.562   0.381
94760W        W56423  15.113   6.254   3.311
94761W        W56424  38.937  24.072   2.236
94762W        W56425  34.988  19.680  11.076
94763W        W56426   9.725  10.635  13.813
94764W        W56427  22.624  34.579  13.447
94765W        W56428  44.950  30.142   4.181
94766W        W56429   7.805  16.606  14.839
94767W        W56430  11.658  15.318   4.256
94768W        W56431  43.877  33.610   0.303
94769W        W56432  31.495  36.884   0.246
94770W        W56433   4.912  14.594  11.430
94771W        W56434  44.375  16.174  12.056
94772W        W56435  19.681  21.567   4.350
94773W        W56436  35.083  42.381   3.741
94774W        W56437   2.732  32.079  11.955
94775W        W56438  38.988  19.720   3.772
94776W        W56439  24.712   0.849   1.833
94777W        W56440  16.283  27.622   0.306
94778W        W56441   0.348  11.219   3.279
94779W        W56442  27.991  30.093  10.572
94780W        W56443  25.153  30.155   2.724
94781W        W56444  14.782   2.905  12.858
94782W        W56445  28.533  31.139  14.958
94783W        W56446  17.237  17.287  13.501
94784W        W56447  35.953  42.521  10.912
94785W        W56448   7.830   6.219  10.946
94786W        W56449  43.797   1.972  14.838
94787W        W56450  12.822   4.795   4.830
94788W        W56451   2.758   4.233  10.644
94789W        W56452  16.711   2.390  11.076
94790W        W56453  42.488  36.462  10.438
94791W        W56454  40.877  20.084   0.859
94792W        W56455  44.494  20.203   0.383
94793W        W56456  44.414  13.286  14.919
94794W        W56457   2.248   2.341  13.501
94795W        W56458   4.872  38.055  11.864
94796W        W56459  34.981  12.361  12.004
94797W        W56460  13.820  42.005  14.842
94798W        W56461  33.008   5.870  14.315
94799W        W56462  10.329   7.185  11.535
94800W        W56463   6.705  19.649   5.222
94801W        W56464  43.809  38.908  12.448
94802W        W56465   8.246  26.557  11.498
94803W        W56466  24.630  30.484   2.417
94804W        W56467  36.031   9.876  10.590
94805W        W56468  18.686   3.238   5.120
94806W        W56469  37.945  15.700  12.448
94807W        W56470  32.931  38.046   0.903
94808W        W56471  44.495  37.904  10.507
94809W        W56472  18.132  18.242  13.310
94810W        W56473  21.148  23.601   4.274
94811W        W56474  43.775  17.701   9.596
94812W        W56475   2.734  10.364  14.918
94813W        W56476  19.778  20.746   3.727
94814W        W56477   8.337  29.491  13.868
94815W        W56478  17.225  11.716  14.459
94816W        W56479   0.389   7.326   1.762
94817W        W56480  20.062  38.487   3.792
94818W        W56481   2.792  41.293  13.537
94819W        W56482  29.436  29.927  12.035
94820W        W56483  36.981  29.522  13.404
94821W        W56484  31.503  22.650  12.869
94822W        W56485  37.979  23.722   2.231
94823W        W56486  36.478  21.644  12.883
94824W        W56487  36.893  34.081   3.750
94825W        W56488  26.494   1.459   1.899
94826W        W56489  31.043  28.575  12.445
94827W        W56490   0.277  37.536  11.466
94828W        W56491  14.198  36.487   0.354
94829W        W56492  30.985  40.963  13.959
94830W        W56493   4.435  40.888   2.243
94831W        W56494  43.005  39.027  13.376
94832W        W56495  34.904   8.816  10.555
94833W        W56496  22.049  12.650  12.969
94834W        W56497   5.239  26.703   0.946
94835W        W56498   7.674   7.870  14.322
94836W        W56499   3.459   2.861   3.633
94837W        W56500  40.046   0.830   0.839
94838W        W56501   2.409  40.851   2.193
94839W        W56502  42.955  24.187   2.349
94840W        W56503  15.210   7.733   3.864
94841W        W56504  12.808   2.455  11.596
94842W        W56505   7.816  18.571  10.547
94843W        W56506  24.051  37.374  14.920
94844W        W56507  31.589  42.412  14.309
94845W        W56508  38.878  16.088  12.403
94846W        W56509  18.092  24.050   1.928
94847W        W56510  36.576  16.638   3.679
94848W        W56511  24.029  10.740   3.698
94849W        W56512  15.140  18.702   4.241
94850W        W56513  35.855  27.130   1.709
94851W        W56514  40.861  42.300   4.710
94852W        W56515  26.171   7.406  13.425
94853W        W56516  16.272  23.034  11.414
94854W        W56517  38.570  34.556  13.955
94855W        W56518   4.401   6.892   0.304
94856W        W56519   2.356  23.169  12.040
94857W        W56520  29.065  12.245   2.287
94858W        W56521  34.463   3.354   4.338
94859W        W56522  25.201  11.319  14.026
94860W        W56523  17.066   4.447  13.050
94861W        W56524  13.662  35.507   5.595
94862W        W56525   3.435  11.813  14.482
94863W        W56526  26.982   0.810   2.820
94864W        W56527   4.391  12.784   2.853
94865W        W56528   1.428   6.823   4.698
94866W        W56529  31.593  41.438   2.854
94867W        W56530  42.893  22.196  11.042
94868W        W56531  35.986  11.311   3.165
94869W        W56532   2.332   3.274   1.391
94870W        W56533  44.770  10.725  11.392
94871W        W56534  14.716   2.401   4.733
94872W        W56535  32.967  22.514  13.026
94873W        W56536  13.179  40.960  14.332
94874W        W56537  25.966   5.293   4.240
94875W        W56538  28.534  40.376   3.837
94876W        W56539   8.314  26.005  10.575
94877W        W56540   6.410  18.285  12.471
94878W        W56541   7.688  31.988  12.052
94879W        W56542  12.832  28.555  13.528
94880W        W56543  21.228  19.224  12.485
94881W        W56544  15.169   1.264  14.939
94882W        W56545  43.920  31.541  13.937
94883W        W56546   6.278  10.164  10.412
94884W        W56547  12.228  27.044  13.020
94885W        W56548  23.002  16.148   1.717
94886W        W56549   5.370   9.849  12.410
94887W        W56550  44.819   0.781   0.408
94888W        W56551  13.743  16.171   3.862
94889W        W56552  19.193   1.358  12.386
94890W        W56553  21.181   8.684   5.241
94891W        W56554  18.243  27.064  12.545
94892W        W56555  31.909   8.820  13.913
94893W        W56556   5.324  39.376  12.018
94894W        W56557  23.008  19.699  11.925
94895W        W56558   0.878   9.157  11.906
94896W        W56559  31.514   9.756   2.198
94897W        W56560   1.743  29.445  11.504
94898W        W56561  25.540  32.433  12.497
94899W        W56562  30.435  39.866  13.871
94900W        W56563   4.783  10.385  10.963
94901W        W56564   7.361  44.924   1.417
94902W        W56565  24.034   0.849   0.361
94903W        W56566  24.045  28.634   1.344
94904W        W56567  19.646   6.273  11.430
94905W        W56568   8.892  13.258  10.967
94906W        W56569  29.085  43.333  11.049
94907W        W56570  32.604  28.170  13.808
94908W        W56571   0.756  26.013   1.754
94909W        W56572  30.067   6.255  14.970
94910W        W56573  21.161  15.327   2.864
94911W        W56574   2.734  25.701   1.934
94912W        W56575   0.391  22.657   1.763
94913W        W56576   8.399  37.033  11.390
94914W        W56577   9.652  17.152   0.257
94915W        W56578  41.863   5.863   1.888
94916W        W56579   2.791  33.940   2.862
94917W        W56580  36.591  14.820   2.729
94918W        W56581  43.514  28.967  10.519
94919W        W56582  34.402  34.610   0.788
94920W        W56583  40.031  12.679  12.427
94921W        W56584  33.565  17.217  14.024
94922W        W56585  20.274  30.558  12.347
94923W        W56586  19.723  25.560   2.189
94924W        W56587   0.968   8.723   3.236
94925W        W56588  28.543  35.913  10.641
94926W        W56589   4.829  15.295  11.540
94927W        W56590   2.754   6.885   0.757
94928W        W56591  15.803   8.676  12.358
94929W        W56592   9.338  20.619   3.658
94930W        W56593  28.058  24.508  12.011
94931W        W56594  15.797   1.882  13.387
94932W        W56595  23.134  15.591   2.682
94933W        W56596   8.190  31.647   1.294
94934W        W56597  33.109  33.967  13.966
94935W        W56598  12.264   5.279  11.969
94936W        W56599  21.084  19.211  10.905
94937W        W56600  43.342   9.249   0.730
94938W        W56601  21.562  26.629   2.186
94939W        W56602  26.591  14.606   4.646
94940W        W56603  26.056  35.545  11.101
94941W        W56604  18.554  17.308  12.983
94942W        W56605   8.237   3.931   0.254
94943W        W56606  42.364  37.920  10.454
94944W        W56607   7.404  43.016  13.501
94945W        W56608   1.819  35.466  14.018
94946W        W56609  17.768  44.805  14.906
94947W        W56610   3.418  39.939   1.376
94948W        W56611  30.591   7.718  11.066
94949W        W56612  25.006  37.500   4.162
94950W        W56613  14.318  25.126   3.809
94951W        W56614  12.276  31.124   1.210
94952W        W56615  33.447  42.442   1.398
94953W        W56616  26.058   2.238  13.039
94954W        W56617  40.044  12.208  13.909
94955W        W56618   3.938  33.564   1.795
94956W        W56619  41.370  17.581  15.000
94957W        W56620   6.790  10.704   3.250
94958W        W56621  28.524  24.192  14.348
94959W        W56622  34.029  10.238   3.828
94960W        W56623  22.996  13.328  14.815
94961W        W56624  11.141  29.454  10.622
94962W        W56625   2.468  39.940  14.812
94963W        W56626  38.977  37.883  14.382
94964W        W56627  16.184  30.557   4.315
94965W        W56628   8.795  17.580  13.820
94966W        W56629   5.256   3.867  10.915
94967W        W56630   5.737  40.812  13.340
94968W        W56631  43.435  17.777   3.814
94969W        W56632  36.084  10.375   4.707
94970W        W56633   5.303  30.946   4.708
94971W        W56634  20.187  42.918   4.185
94972W        W56635  39.495  27.570  14.839
94973W        W56636   1.332  13.658  11.923
94974W        W56637   6.772  36.973  12.440
94975W        W56638  33.976  13.260  13.390
94976W        W56639   9.304  25.597  14.883
94977W        W56640  25.188  29.027   1.913
94978W        W56641   2.933   8.332   0.800
94979W        W56642  34.431   7.862  13.797
94980W        W56643   9.703  41.491  12.432
94981W        W56644  39.424  12.230  11.545
94982W        W56645  24.486  13.144   4.614
94983W        W56646   7.183  25.990   4.769
94984W        W56647  19.704   3.916  10.499
94985W        W56648  27.681   8.256  12.048
94986W        W56649  34.594  10.746   5.785
94987W        W56650   3.767  24.190  13.515
94988W        W56651  42.854  10.739   4.249
94989W        W56652  18.581  24.527  14.360
94990W        W56653  40.868  32.911  13.318
94991W        W56654  44.378  26.208   3.669
94992W        W56655  17.797   6.413  10.417
94993W        W56656  40.826   2.276  12.911
94994W        W56657   5.207  44.869   0.444
94995W        W56658  41.881  25.002  12.348
94996W        W56659  44.876   6.722   4.759
94997W        W56660  25.659  15.193   4.742
94998W        W56661  23.550   9.278   2.324
94999W        W56662  22.589  12.350   2.864
95000W        W56663  43.963  16.648   3.304
95001W        W56664  16.315  24.661   3.171
95002W        W56665  26.469  41.301  13.547
95003W        W56666  34.432   1.371   1.819
95004W        W56667  22.151  23.192  10.527
95005W        W56668  20.035  39.491  14.508
95006W        W56669  43.342  32.430  10.515
95007W        W56670  36.946  24.178   3.197
95008W        W56671  35.549  32.496   0.271
95009W        W56672  28.540  40.820   9.457
95010W        W56673  23.564  38.549   3.321
95011W        W56674  11.197  24.509   4.166
95012W        W56675  27.959   4.297  11.925
95013W        W56676  44.938  10.212  12.509
95014W        W56677   7.839  42.325   3.864
95015W        W56678  36.540  32.448   4.222
95016W        W56679  38.329  27.622   1.387
95017W        W56680  28.167   2.324  10.463
95018W        W56681  15.258  17.160   1.740
95019W        W56682  22.745  30.095  13.376
95020W        W56683  36.873  12.729   2.893
95021W        W56684  30.570  26.109   1.342
95022W        W56685   6.694   2.417   0.265
95023W        W56686  28.607  15.606   2.685
95024W        W56687   6.383  24.533  10.455
95025W        W56688   8.269   9.811   4.208
95026W        W56689  13.665   0.852  10.546
95027W        W56690  21.539  10.275   1.796
95028W        W56691  26.586  12.719   3.715
95029W        W56692  26.570  17.097   2.861
95030W        W56693  10.147   2.238   2.691
95031W        W56694   5.438  22.649  14.972
95032W        W56695  26.592   1.396  13.045
95033W        W56696  41.016   3.804  14.330
95034W        W56697  25.575  30.603   4.834
95035W        W56698  19.109  13.677   3.268
95036W        W56699  39.838  24.158   4.634
95037W        W56700  27.964  34.454   3.189
95038W        W56701  22.665  22.630  10.983
95039W        W56702  36.368  26.587  14.766
95040W        W56703  12.158   7.220  14.976
95041W        W56704  42.518  11.828   3.146
95042W        W56705  30.556  33.111   0.889
95043W        W56706  20.235  39.508   4.220
95044W        W56707  21.529  40.915   3.169
95045W        W56708  15.686  41.311  13.820
95046W        W56709  30.000  44.773  13.401
95047W        W56710  34.117  28.184  10.521
95048W        W56711  23.151  18.293  10.491
95049W        W56712   3.285  11.749   3.377
95050W        W56713   8.891   8.846  13.034
95051W        W56714  34.443   9.761   0.293
95052W        W56715  18.275  14.792   0.775
95053W        W56716  17.179  19.103   1.420
95054W        W56717  17.074  12.308   0.250
95055W        W56718  36.959  18.168  13.921
95056W        W56719  42.780   8.301   2.246
95057W        W56720  16.211  20.574   2.235
95058W        W56721  21.660  23.179   1.932
95059W        W56722  11.182  42.870   0.762
95060W        W56723  33.010   5.713  13.527
95061W        W56724  29.458  16.197   1.329
95062W        W56725  27.605   4.900  14.430
95063W        W56726  15.794  40.480   5.291
95064W        W56727  14.835  21.719  13.363
95065W        W56728  16.280   0.962  10.119
95066W        W56729  14.748  32.507  12.915
95067W        W56730   2.824   2.297   2.830
95068W        W56731  29.585  23.051  11.437
95069W        W56732  24.600   3.428  11.915
95070W        W56733   9.701  36.094  11.410
95071W        W56734  30.627   1.950   0.888
95072W        W56735  23.111   8.328  12.467
95073W        W56736   0.420  41.484   4.192
95074W        W56737  38.879  37.893   2.196
95075W        W56738  18.679  26.957  12.923
95076W        W56739  23.215  33.925  10.506
95077W        W56740   8.379   2.410   1.260
95078W        W56741  12.786   9.253   0.391
95079W        W56742  20.563  16.677  11.610
95080W        W56743   1.420  15.650   1.310
95081W        W56744  21.617  30.623   5.252
95082W        W56745  12.315  43.962   2.869
95083W        W56746   5.908  44.409   0.444
95084W        W56747  14.616   9.688   4.670
95085W        W56748  16.196  38.553   0.811
95086W        W56749  10.285  41.954   3.695
95087W        W56750   1.821   9.890  13.965
95088W        W56751  33.076  20.588  10.591
95089W        W56752   8.746   9.744  14.917
95090W        W56753  14.696  11.231  11.059
95091W        W56754   0.916  30.057   2.418
95092W        W56755  26.537  41.460  12.507
95093W        W56756  23.657   8.679  13.979
95094W        W56757  32.415  22.012   3.750
95095W        W56758  21.119   5.797   2.265
95096W        W56759   8.265  41.917  12.577
95097W        W56760  32.040  42.442  12.426
95098W        W56761  23.686   7.315   3.181
95099W        W56762  44.976  18.547  14.763
95100W        W56763  20.082   2.357  12.345
95101W        W56764  34.070  15.731   0.377
95102W        W56765   5.910  40.469  11.467
95103W        W56766  37.940  26.041  11.396
95104W        W56767   7.371  17.572   1.732
95105W        W56768  12.654   6.742   2.674
95106W        W56769  30.999  13.728  13.440
95107W        W56770  19.215  26.109   3.169
95108W        W56771  31.590  35.422  14.917
95109W        W56772   4.848  27.990  12.570
95110W        W56773  25.561  28.456  11.489
95111W        W56774   9.889  42.423   1.413
95112W        W56775  24.686  21.154   0.424
95113W        W56776  11.733  28.081   3.724
95114W        W56777  22.617  15.611  13.420
95115W        W56778  11.330  31.631  14.823
95116W        W56779  33.566  37.403  10.129
95117W        W56780   2.748  16.722   1.902
95118W        W56781  40.005   5.708  14.509
95119W        W56782   1.812  21.687  12.862
95120W        W56783  33.507  13.748   4.258
95121W        W56784  40.314  17.217  13.987
95122W        W56785  38.523  34.386  13.397
95123W        W56786  34.113  21.171  13.900
95124W        W56787  17.177  30.140  14.996
95125W        W56788  13.278   6.329  10.476
95126W        W56789   8.197  19.060  10.893
95127W        W56790  12.701  21.250   1.918
95128W        W56791  20.235  30.412  14.999
95129W        W56792   9.379  10.719   1.806
95130W        W56793  39.942  15.222  12.539
95131W        W56794  24.184  43.457  10.063
95132W        W56795  24.556  33.605   0.801
95133W        W56796  23.991  44.999   0.732
95134W        W56797  35.394  27.483  10.985
95135W        W56798   5.250  37.445   0.739
95136W        W56799  39.436  29.440  12.932
95137W        W56800  35.085  21.678  14.966
95138W        W56801  28.638  37.066   3.222
95139W        W56802   9.252   3.385  13.938
95140W        W56803  44.785  24.093   3.314
95141W        W56804  31.106   5.397  11.868
95142W        W56805  32.610  10.700  11.373
95143W        W56806   5.424  26.966  13.441
95144W        W56807   4.219  17.259  11.544
95145W        W56808  41.944  16.705  14.835
95146W        W56809  27.123  13.318  13.011
95147W        W56810  23.117  16.602   3.680
95148W        W56811   8.759  11.231  12.044
95149W        W56812  31.482  26.656  11.920
95150W        W56813  42.961  18.712   3.243
95151W        W56814  17.709  32.108   4.715
95152W        W56815  29.503  14.302   3.310
95153W        W56816  26.639   2.425  11.535
95154W        W56817  14.728   8.686  10.576
95155W        W56818  41.348  34.522   3.648
95156W        W56819  23.990  15.722  14.416
95157W        W56820  16.799  37.882   4.322
95158W        W56821  34.946  36.999  13.946
95159W        W56822   1.379  34.476  13.495
95160W        W56823   0.247  17.697  10.425
95161W        W56824  41.435  16.590   1.812
95162W        W56825   2.351  20.688  13.518
95163W        W56826  39.857   9.848   0.341
95164W        W56827   7.214  19.136   4.726
95165W        W56828  42.787   6.823  12.493
95166W        W56829   2.359  20.769   2.689
95167W        W56830  17.799  29.051   0.898
95168W        W56831   7.701   5.250  12.479
95169W        W56832  43.771  14.113   3.157
95170W        W56833  42.506   1.878  13.336
95171W        W56834   8.835  20.126  14.772
95172W        W56835   9.837   3.230   3.317
95173W        W56836   1.739  29.169  14.006
95174W        W56837  13.715   8.242   5.575
95175W        W56838   6.250  43.877  11.884
95176W        W56839  19.631  35.463   3.289
95177W        W56840  32.107  19.040  10.988
95178W        W56841  41.822  37.375   2.183
95179W        W56842  22.131  44.477  10.027
95180W        W56843   3.401   9.869   4.132
95181W        W56844   6.265  21.579   2.189
95182W        W56845  26.498  34.958   3.297
95183W        W56846  38.040   9.818  12.524
95184W        W56847  20.672  40.857  12.927
95185W        W56848  22.609  29.097   2.375
95186W        W56849  39.936  24.557  11.405
95187W        W56850  22.713  38.490  11.856
95188W        W56851  24.181  36.852  13.972
95189W        W56852   1.953  24.121  10.957
95190W        W56853   3.873  38.868  13.968
95191W        W56854   8.242  21.556  11.859
95192W        W56855  25.119   9.767   1.886
95193W        W56856  15.734  31.956   5.258
95194W        W56857  23.017  24.478   3.694
95195W        W56858  31.097  14.640  12.848
95196W        W56859  34.385   7.727   0.266
95197W        W56860   3.382  12.832   2.390
95198W        W56861  38.384  25.688   3.318
95199W        W56862  38.962  19.680   0.436
95200W        W56863  29.038  43.970  13.396
95201W        W56864  36.410  26.473  11.035
95202W        W56865  33.410  29.536   1.708
95203W        W56866   7.365  44.916   2.864
95204W        W56867  44.819  17.583   1.322
95205W        W56868  13.192  43.348  12.950
95206W        W56869   4.284  31.460  12.455
95207W        W56870  14.291  25.523   4.787
95208W        W56871   2.775   2.880   2.358
95209W        W56872   3.456  23.596  14.002
95210W        W56873  36.570  38.916   2.332
95211W        W56874  10.724  33.441   1.716
95212W        W56875  11.790  44.323  10.572
95213W        W56876   1.333  32.420   0.323
95214W        W56877  20.640  18.050   3.708
95215W        W56878  27.022  32.418  14.420
95216W        W56879  14.315  18.196   0.897
95217W        W56880  18.612   8.756  12.926
95218W        W56881  10.857  14.661  13.014
95219W        W56882  32.024  29.447   4.653
95220W        W56883  28.021  31.618  11.562
95221W        W56884  19.185  33.425   4.744
95222W        W56885  11.253  38.421  12.004
95223W        W56886  29.440   8.864  14.513
95224W        W56887  16.268  10.236  11.110
95225W        W56888  21.679  24.514  13.502
95226W        W56889  18.111  35.913   3.376
95227W        W56890  29.552  16.734  14.301
95228W        W56891   0.453  34.570  14.854
95229W        W56892  19.149  18.072  11.004
95230W        W56893  24.029  12.626   0.800
95231W        W56894  39.871  43.339   3.355
95232W        W56895  39.446  41.862  11.923
95233W        W56896  29.151  42.414   4.209
95234W        W56897  18.164  32.589   0.891
95235W        W56898  12.852  30.141   4.293
95236W        W56899  30.495   9.677   1.731
95237W        W56900  39.359  43.346   1.729
95238W        W56901   2.367  31.123   4.197
95239W        W56902  20.654  28.490   0.887
95240W        W56903  11.660   1.911  12.570
95241W        W56904  21.091  42.947   0.280
95242W        W56905  28.148  37.428   1.755
95243W        W56906   5.229  27.969  10.559
95244W        W56907  10.797  34.089  11.448
95245W        W56908  12.693  27.045  14.404
95246W        W56909  36.950  22.042  10.562
95247W        W56910  16.716   8.279   2.797
95248W        W56911  33.623   5.711  10.499
95249W        W56912  34.428  35.478  11.596
95250W        W56913  22.549  29.593   4.771
95251W        W56914  37.046   6.854   4.241
95252W        W56915  33.975  10.818   3.837
95253W        W56916  33.518  40.444  11.610
95254W        W56917  31.436  26.976  11.871
95255W        W56918  19.748  22.145  11.964
95256W        W56919   4.831   3.329  12.339
95257W        W56920  17.665  38.058   4.838
95258W        W56921  37.405  36.987   0.764
95259W        W56922   4.732   6.258   1.695
95260W        W56923   5.208  21.239  14.331
95261W        W56924  11.227  38.948  12.005
95262W        W56925   9.757  27.054   2.269
95263W        W56926  40.007  37.371  14.991
95264W        W56927  12.703  19.673  13.909
95265W        W56928  27.159  24.058  13.992
95266W        W56929   7.365  12.127   4.622
95267W        W56930  27.619  16.204   3.223
95268W        W56931  28.087  21.698  12.457
95269W        W56932  19.552   2.832   2.260
95270W        W56933  21.525   3.300   3.641
95271W        W56934  37.927   1.839  11.989
95272W        W56935   2.964  23.560  10.934
95273W        W56936  26.679  14.216   3.691
95274W        W56937   3.339  28.129   2.790
95275W        W56938  22.082  30.479   4.751
95276W        W56939  16.670  33.399   4.271
95277W        W56940  42.338  43.272  10.514
95278W        W56941  20.712   6.215  10.499
95279W        W56942  35.403   4.840  12.429
95280W        W56943  27.976  28.576   0.462
95281W        W56944  28.082  38.039   0.786
95282W        W56945  27.484   8.891   0.753
95283W        W56946  41.351   3.935   3.805
95284W        W56947  42.031  39.928  11.516
95285W        W56948  25.142   8.804   1.243
95286W        W56949  18.713  14.329  13.482
95287W        W56950  37.872  42.796  13.531
95288W        W56951  38.553  23.120   0.255
95289W        W56952  18.602  38.393   3.839
95290W        W56953  39.557  16.222   4.228
95291W        W56954   5.910   9.699   4.659
95292W        W56955  26.526  12.811  12.030
95293W        W56956   5.714  14.316  11.572
95294W        W56957  13.171  38.037  13.449
95295W        W56958  28.042   8.196   3.762
95296W        W56959   8.334  40.326  12.391
95297W        W56960  39.881  39.932  14.451
95298W        W56961  15.276   9.263  11.999
95299W        W56962  29.068  20.730  13.051
95300W        W56963  24.169  23.113   3.380
95301W        W56964  11.687  37.046   4.625
95302W        W56965  20.062  34.951  12.873
95303W        W56966  17.202  10.300   1.230
95304W        W56967   9.156  24.541  10.555
95305W        W56968  24.203   7.802   1.767
95306W        W56969  28.662   1.856  12.976
95307W        W56970  35.515   1.349  13.056
95308W        W56971  29.515  29.599   4.627
95309W        W56972  42.823  31.414   4.175
95310W        W56973  15.784  26.563  13.386
95311W        W56974   1.264  29.009  13.861
95312W        W56975   6.262   6.849  12.860
95313W        W56976  27.686  22.730  12.487
95314W        W56977  39.950  37.399  12.985
95315W        W56978  40.879   7.720   0.388
95316W        W56979  21.751  18.089   0.841
95317W        W56980  13.604  10.297   9.949
95318W        W56981  12.847  21.159  12.992
95319W        W56982  13.837   0.944   0.747
95320W        W56983  40.522  35.470  13.002
95321W        W56984  40.944  13.258   5.641
95322W        W56985  24.715  18.246   1.234
95323W        W56986  32.927  15.111   1.858
95324W        W56987  28.993   9.665   1.245
95325W        W56988  19.595  12.286   1.784
95326W        W56989  43.834  28.957   1.892
95327W        W56990  39.015  43.396  14.444
95328W        W56991  34.419   1.399   2.892
95329W        W56992  21.083  37.507   5.289
95330W        W56993  29.112   2.952  14.498
95331W        W56994   9.170  18.777  11.953
95332W        W56995   0.888  35.990  11.907
95333W        W56996   4.820  39.448  12.046
95334W        W56997   8.396  26.039   0.353
95335W        W56998  12.143  11.625   2.359
95336W        W56999  36.905  37.543   0.949
95337W        W57000   8.797  35.521   1.893
95338W        W57001  17.763   4.249  12.955
95339W        W57002   2.847  36.911   3.329
95340W        W57003  40.047  40.545   3.304
95341W        W57004  10.352  17.660   3.354
95342W        W57005  43.281  11.353   1.211
95343W        W57006  18.285  14.156  13.890
95344W        W57007  18.254  43.875  12.962
95345W        W57008  19.240  34.869   0.795
95346W        W57009  29.638  12.653  11.546
95347W        W57010  40.880  21.754  11.425
95348W        W57011  15.735  10.826  10.437
95349W        W57012   1.917   7.699  10.951
95350W        W57013  12.213  23.068  13.464
95351W        W57014  41.360  23.099  10.978
95352W        W57015   6.324  36.529   3.162
95353W        W57016  16.179  20.056  12.515
95354W        W57017   4.215   0.976   2.900
95355W        W57018  29.535   6.258   5.116
95356W        W57019  30.655  36.035  13.324
95357W        W57020  29.453  44.264   1.367
95358W        W57021   4.941  26.991   3.824
95359W        W57022  15.766  43.507   2.416
95360W        W57023  44.894  16.105   0.881
95361W        W57024  33.543   5.767   1.853
95362W        W57025  29.636  39.944   0.475
95363W        W57026  30.965  24.197   0.481
95364W        W57027  27.606  28.533   2.260
95365W        W57028  20.737  18.688  12.481
95366W        W57029  26.522  27.949  12.441
95367W        W57030  13.811  37.511  12.454
95368W        W57031  27.620   0.956   4.752
95369W        W57032   2.368  29.657   4.680
95370W        W57033  10.232  38.895  11.014
95371W        W57034  30.493   0.978   5.255
95372W        W57035  31.117   8.764  14.291
95373W        W57036   5.370  30.431   0.466
95374W        W57037  43.425  39.953   3.670
95375W        W57038  31.098   6.255  10.123
95376W        W57039  39.876  39.953   1.712
95377W        W57040  14.650  21.554   0.760
95378W        W57041  33.019  10.262   2.794
95379W        W57042  20.031   2.774   3.164
95380W        W57043  16.776  11.200  13.364
95381W        W57044  13.671   0.880   3.740
95382W        W57045  22.732  39.977   0.903
95383W        W57046   8.216  38.347   3.732
95384W        W57047  38.869  42.987  10.020
95385W        W57048  30.047   8.161   0.838
95386W        W57049  19.778   9.686   3.233
95387W        W57050   5.776   9.173  14.890
95388W        W57051  35.876   1.886  10.408
95389W        W57052  16.571  37.072  12.467
95390W        W57053  37.554  26.976  11.888
95391W        W57054  23.637  17.666  12.094
95392W        W57055   2.935  13.323   3.199
95393W        W57056  18.573  13.200  12.844
95394W        W57057  11.128  43.873  11.543
95395W        W57058   9.176  38.554  13.913
95396W        W57059  37.837  44.916  11.888
95397W        W57060  33.925  31.420   4.124
95398W        W57061  39.457  14.213   1.707
95399W        W57062  24.980  19.715  13.919
95400W        W57063  12.686  41.393   2.890
95401W        W57064   3.901  13.269  10.493
95402W        W57065  28.531  12.134   1.857
95403W        W57066  21.248  38.048  11.966
95404W        W57067   4.338  26.550   3.321
95405W        W57068   5.703  19.780   2.266
95406W        W57069  35.505  31.077   0.479
95407W        W57070  10.253  35.040  12.397
95408W        W57071   4.747  34.932   1.912
95409W        W57072  12.312  27.628   1.920
95410W        W57073  13.786  30.120   0.311
95411W        W57074   7.721  18.575   2.190
95412W        W57075  14.317   6.418  13.829
95413W        W57076  18.752   9.719  14.465
95414W        W57077  44.280  19.729   1.313
95415W        W57078   9.294  41.301   1.917
95416W        W57079   8.234   6.777   0.779
95417W        W57080   5.423  23.644   0.948
95418W        W57081  42.920  13.301  13.802
95419W        W57082  20.121  39.003  13.959
95420W        W57083   1.961   3.364   0.295
95421W        W57084  10.244  35.439   3.196
95422W        W57085  33.490  44.004   4.667
95423W        W57086   2.868  35.089   4.213
95424W        W57087  33.396  38.920   0.948
95425W        W57088   7.772   3.732   3.348
95426W        W57089   5.408   1.802   0.385
95427W        W57090  43.465  25.506  10.925
95428W        W57091   8.836   9.270  14.437
95429W        W57092  19.275  37.859   3.787
95430W        W57093  19.119  34.995   4.681
95431W        W57094  34.049  31.947  13.493
95432W        W57095  18.712  19.620  11.496
95433W        W57096   8.748  31.448   3.722
95434W        W57097   1.940  26.511  14.793
95435W        W57098  10.330  41.477  13.893
95436W        W57099  38.860  37.979   0.801
95437W        W57100  39.516  32.429  11.079
95438W        W57101   6.401  32.125   3.809
95439W        W57102  32.486  15.681   0.396
95440W        W57103  26.112  13.307   1.711
95441W        W57104  11.223   2.832   1.865
95442W        W57105  44.906  30.433   2.388
95443W        W57106  30.981  12.120   4.218
95444W        W57107   0.760   7.292   4.770
95445W        W57108  17.641   3.252  12.339
95446W        W57109  16.621  20.072   3.363
95447W        W57110  11.778  18.288   1.801
95448W        W57111  32.502  11.822  13.932
95449W        W57112  19.714  40.958   4.180
95450W        W57113  42.833  31.047   2.410
95451W        W57114  29.166  10.146   2.250
95452W        W57115  38.950  25.655  13.367
95453W        W57116  31.141  11.287  12.522
95454W        W57117  18.573  44.282  10.601
95455W        W57118  40.339  29.470   0.925
95456W        W57119  21.580  30.617   0.429
95457W        W57120   1.243  16.186   1.920
95458W        W57121  29.549  21.053   0.391
95459W        W57122  14.174  27.458   3.278
95460W        W57123   9.375  43.014   2.734
95461W        W57124   6.901   7.757   4.224
95462W        W57125  37.942  29.982  11.512
95463W        W57126  15.776   7.385  14.287
95464W        W57127  12.753   5.255   3.242
95465W        W57128  21.608  34.584  10.517
95466W        W57129  21.556  18.729   4.294
95467W        W57130   7.367  33.454   3.362
95468W        W57131  23.648  34.576  10.589
95469W        W57132  20.028   6.873  14.421
95470W        W57133   0.463  32.635   3.205
95471W        W57134  33.011   8.209   2.822
95472W        W57135  15.811  10.835  14.996
95473W        W57136  16.723  38.983   1.286
95474W        W57137   1.854  32.490   4.165
95475W        W57138  13.606  14.181   0.731
95476W        W57139  30.101   5.745   2.233
95477W        W57140  34.386  27.115  14.890
95478W        W57141  38.541   7.904  13.410
95479W        W57142  34.951  32.432   0.891
95480W        W57143  34.511  11.276  13.338
95481W        W57144  15.245   8.677   4.125
95482W        W57145  11.765   5.704   2.265
95483W        W57146  24.112  34.012  12.042
95484W        W57147  30.538  26.136  14.949
95485W        W57148   7.784  35.007   4.211
95486W        W57149   5.903  37.930  10.497
95487W        W57150  21.587  23.580   1.815
95488W        W57151  14.773  29.563  11.057
95489W        W57152  22.626  37.412  13.906
95490W        W57153  41.458  34.912   0.264
95491W        W57154  37.380   6.300  12.487
95492W        W57155  43.433  31.632  12.861
95493W        W57156  37.516  17.198   0.253
95494W        W57157   0.983  22.249   4.224
95495W        W57158  21.692  21.570   0.944
95496W        W57159  41.940  31.482   1.812
95497W        W57160   2.869  17.149  11.910
95498W        W57161  22.560  24.718   0.304
95499W        W57162  25.194  44.260  12.903
95500W        W57163  44.754   1.386   0.411
95501W        W57164  19.596  11.823  13.808
95502W        W57165   9.288  42.303   0.796
95503W        W57166  21.539  38.969  14.364
95504W        W57167  10.753  16.797   2.842
95505W        W57168   6.423  41.845  12.384
95506W        W57169  40.958   1.853  11.500
95507W        W57170  27.494  33.478  12.844
95508W        W57171  16.605  43.779   0.807
95509W        W57172   6.363  19.706   1.442
95510W        W57173   8.333   7.882  12.874
95511W        W57174  20.675  11.782   1.900
95512W        W57175   8.720  43.512   2.752
95513W        W57176  14.625   3.280  14.760
95514W        W57177  43.002  19.683   4.736
95515W        W57178  33.100  20.030  13.804
95516W        W57179  44.938  14.244  10.421
95517W        W57180  29.560  33.009   4.220
95518W        W57181  32.083   7.825  13.017
95519W        W57182  39.028  14.831   2.297
95520W        W57183  13.621  12.230  13.456
95521W        W57184  37.082  36.982   1.390
95522W        W57185  19.188  28.098  14.766
95523W        W57186  22.705  43.954   1.248
95524W        W57187   1.810  13.207   3.277
95525W        W57188  17.262  40.815  11.573
95526W        W57189  16.792  34.118  12.356
95527W        W57190  44.345  42.519  11.964
95528W        W57191  42.435  39.423  12.837
95529W        W57192   4.386  14.793   2.785
95530W        W57193  21.240  32.538  14.770
95531W        W57194   7.306  36.864   4.641
95532W        W57195  20.695  34.446   1.857
95533W        W57196  33.114  13.151  12.506
95534W        W57197  23.587  25.052   3.839
95535W        W57198  29.456  33.927   3.152
95536W        W57199  35.431   1.296   1.842
95537W        W57200   9.164  43.933   1.705
95538W        W57201  30.068  41.952  14.820
95539W        W57202  19.214  19.563  10.534
95540W        W57203  27.950  34.977   1.871
95541W        W57204  18.775  33.414  12.978
95542W        W57205  12.314   0.339   1.932
95543W        W57206  43.894  12.652   4.835
95544W        W57207   1.760  20.061   0.251
95545W        W57208   6.323  10.845   4.619
95546W        W57209  34.406  12.669  10.449
95547W        W57210   7.330  12.826   0.939
95548W        W57211   7.196  26.589   4.606
95549W        W57212   1.424  16.769  13.328
95550W        W57213  15.818  15.157  13.051
95551W        W57214  21.560  27.989  12.517
95552W        W57215  40.896  36.385   1.408
95553W        W57216  43.954  33.496   0.961
95554W        W57217  35.067  24.085  10.561
95555W        W57218  33.534  23.055  13.909
95556W        W57219  34.006  22.732   5.732
95557W        W57220  23.131   5.891  12.559
95558W        W57221  19.632  16.188  12.897
95559W        W57222  24.049  15.752  13.889
95560W        W57223  41.850  13.162  11.885
95561W        W57224  33.401  16.811   0.924
95562W        W57225   6.295  43.879   3.241
95563W        W57226  43.841  32.950  14.460
95564W        W57227  24.493  16.076  13.855
95565W        W57228  18.633  21.543   2.821
95566W        W57229  29.067  13.141  11.101
95567W        W57230  11.353  24.016   3.850
95568W        W57231  33.944  15.298   3.220
95569W        W57232  14.162  40.874   4.240
95570W        W57233  33.907  42.383   3.348
95571W        W57234  19.592  14.312   2.220
95572W        W57235  13.724  33.456  10.996
95573W        W57236  20.111   8.257   0.951
95574W        W57237   3.792  16.647  11.929
95575W        W57238  33.899  22.541  10.582
95576W        W57239   0.364   8.214  14.469
95577W        W57240  25.650   1.352   2.388
95578W        W57241   9.798  40.985  12.348
95579W        W57242  32.991  31.906  14.842
95580W        W57243  33.069  24.158   0.853
95581W        W57244  12.215  20.155   1.862
95582W        W57245  27.991  37.036  11.990
95583W        W57246  37.085   1.412  11.896
95584W        W57247  26.534  14.827  12.000
95585W        W57248  15.099  13.279  14.501
95586W        W57249  24.631  43.876  10.995
95587W        W57250  25.477  37.944   9.470
95588W        W57251  26.161   9.282  12.384
95589W        W57252  23.007  11.361  13.803
95590W        W57253  24.532  21.566   4.201
95591W        W57254  20.089  35.094  11.111
95592W        W57255  11.365   5.747  13.903
95593W        W57256  17.128  44.866  12.341
95594W        W57257  44.912  44.811   2.292
95595W        W57258   9.859  44.983   2.735
95596W        W57259   8.853  12.629  14.939
95597W        W57260  21.196  18.682  13.048
95598W        W57261  38.924  19.757  12.511
95599W        W57262  41.999   2.421  13.411
95600W        W57263   3.835  40.401   2.781
95601W        W57264  41.910  24.545  11.955
95602W        W57265  23.038  12.177   3.343
95603W        W57266   3.436  39.025   1.917
95604W        W57267  25.020  15.583   4.762
95605W        W57268  42.424   9.241  13.970
95606W        W57269  14.185  32.584  13.806
95607W        W57270  29.969  15.235   1.384
95608W        W57271  10.805  31.530  14.409
95609W        W57272  39.915  30.920  10.979
95610W        W57273  25.501   5.242  12.531
95611W        W57274   7.798  13.628   2.699
95612W        W57275  12.148  24.986   1.402
95613W        W57276  19.643  37.434  11.866
95614W        W57277  30.580  14.635  12.981
95615W        W57278  30.431   5.769   4.712
95616W        W57279  40.869  13.251  12.511
95617W        W57280   1.392  33.500   1.407
95618W        W57281  20.753  14.648   2.197
95619W        W57282  14.719   6.867  11.431
95620W        W57283  15.207  19.601  11.863
95621W        W57284  35.009  34.451  14.944
95622W        W57285  10.722  19.251  12.036
95623W        W57286  24.684  14.705   3.252
95624W        W57287  17.585  37.389  11.003
95625W        W57288  43.811  25.142   0.349
95626W        W57289   9.248  12.346   0.339
95627W        W57290  13.832   7.209   4.168
95628W        W57291  32.426  36.024   3.199
95629W        W57292  32.106  32.045   0.873
95630W        W57293  38.500  19.215  13.830
95631W        W57294   7.184  29.581  14.946
95632W        W57295   8.777  13.636  14.930
95633W        W57296  41.389  20.096   1.771
95634W        W57297  33.597  19.112  11.545
95635W        W57298  29.664  29.487   2.395
95636W        W57299  17.155  20.761   3.295
95637W        W57300  20.706  26.560   1.268
95638W        W57301  41.440   2.842  10.547
95639W        W57302  15.798  36.395   2.192
95640W        W57303  44.458  22.694   4.230
95641W        W57304  16.736  22.061   3.687
95642W        W57305  17.151  31.943   0.920
95643W        W57306  15.633  21.170   2.321
95644W        W57307  18.596  22.693   1.264
95645W        W57308  19.640   1.778   2.240
95646W        W57309  26.513  41.877  12.924
95647W        W57310  14.657  39.422  12.006
95648W        W57311  13.736  32.398  14.437
95649W        W57312  19.744  19.283   1.234
95650W        W57313  42.370  18.165   4.202
95651W        W57314  30.454  17.173  12.983
95652W        W57315  21.744   8.302   1.212
95653W        W57316  36.084   0.285   4.313
95654W        W57317  25.659  18.127   2.728
95655W        W57318   1.285  33.896  14.982
95656W        W57319   8.386   4.789  13.899
95657W        W57320  39.489  31.930   4.306
95658W        W57321   8.336   3.849  11.392
95659W        W57322  20.540  11.154   4.314
95660W        W57323  22.638  42.489  11.971
95661W        W57324  34.451  23.073  13.458
95662W        W57325   4.799  40.455   3.356
95663W        W57326  35.588  18.622  14.290
95664W        W57327  29.644  33.437  12.419
95665W        W57328  39.870  26.136   1.709
95666W        W57329   8.777  22.145  10.616
95667W        W57330  28.102   2.915   1.800
95668W        W57331  36.511  27.610   3.732
95669W        W57332   8.746  13.742  12.954
95670W        W57333  26.100  31.480  12.073
95671W        W57334   8.399  11.316  10.409
95672W        W57335  26.579  42.383   1.755
95673W        W57336  43.295  34.006  14.797
95674W        W57337  22.105   7.388  13.008
95675W        W57338   2.816   6.262  11.608
95676W        W57339  15.710  41.874   2.729
95677W        W57340  36.527   5.439   1.756
95678W        W57341  19.725  25.072   3.219
95679W        W57342  43.893  14.128  14.305
95680W        W57343  44.765  36.482   4.670
95681W        W57344  21.648  15.688  14.312
95682W        W57345  25.649  18.250   4.341
95683W        W57346  35.503  30.470  11.111
95684W        W57347  36.479  20.141   1.701
95685W        W57348  16.282  42.932   2.873
95686W        W57349  16.121  35.011  11.534
95687W        W57350  28.015  36.066   2.712
95688W        W57351   5.370  35.414   0.842
95689W        W57352  31.469  41.479  13.856
95690W        W57353  12.687  18.062  12.480
95691W        W57354  39.382  27.545   0.298
95692W        W57355  25.992  12.353   1.272
95693W        W57356  37.965  30.984  11.399
95694W        W57357  16.746  30.472   3.296
95695W        W57358   5.421  15.796  14.900
95696W        W57359  17.591  13.237   1.794
95697W        W57360  17.730   3.771   3.182
95698W        W57361   8.702  21.070   2.268
95699W        W57362  36.918   8.874  10.530
95700W        W57363  35.585   8.241  14.341
95701W        W57364  34.612  15.273  13.434
95702W        W57365  16.286  41.376   4.829
95703W        W57366  11.775   9.276   1.421
95704W        W57367  30.908  22.053  14.297
95705W        W57368   0.955  36.955  14.382
95706W        W57369   6.422  43.908  10.635
95707W        W57370  26.033  29.528  10.982
95708W        W57371  15.629  27.572   2.780
95709W        W57372  24.486  37.493  10.026
95710W        W57373  38.907  33.960   0.743
95711W        W57374  18.698  32.429   0.810
95712W        W57375  16.612  12.140   0.253
95713W        W57376  44.303  21.514  11.002
95714W        W57377   4.342  10.811  14.340
95715W        W57378   3.779  29.545  12.920
95716W        W57379  10.285  37.558  12.387
95717W        W57380  26.014  33.081   4.223
95718W        W57381  41.405   4.319  10.418
95719W        W57382  39.873  27.614  11.128
95720W        W57383  18.254   6.270  11.406
95721W        W57384  36.502  41.374  12.876
95722W        W57385   3.880  32.099   0.247
95723W        W57386   1.797   3.713   4.737
95724W        W57387  32.917  20.227  13.398
95725W        W57388  10.147  23.617   0.947
95726W        W57389  11.214  10.258  11.896
95727W        W57390  16.569  15.735   0.476
95728W        W57391   6.861  41.419   0.775
95729W        W57392   8.842  27.081   2.775
95730W        W57393   7.696  19.262  12.003
95731W        W57394  30.080   1.344  12.992
95732W        W57395  27.641  30.467   2.723
95733W        W57396  36.870  10.723  14.930
95734W        W57397  22.201  31.419   4.740
95735W        W57398  10.312  44.274   0.900
95736W        W57399   1.966  18.263  14.925
95737W        W57400  26.662  42.837  12.349
95738W        W57401  27.127  43.374   4.762
95739W        W57402  10.775   2.350   0.764
95740W        W57403  31.918  36.081  13.922
95741W        W57404   5.744   1.306   3.734
95742W        W57405  13.120  22.131   4.637
95743W        W57406  20.558  39.375  10.540
95744W        W57407   1.897   5.893  13.381
95745W        W57408  34.532  42.406  12.476
95746W        W57409  25.691  38.001  12.858
95747W        W57410  28.047  10.652  10.000
95748W        W57411  44.442  22.134  13.396
95749W        W57412  41.883  43.904   3.271
95750W        W57413  11.337  23.145  12.901
95751W        W57414   5.862  22.533  11.883
95752W        W57415  44.312   2.251   0.437
95753W        W57416  25.965  10.209   0.274
95754W        W57417  25.487  19.584  12.011
95755W        W57418  13.175   9.874   3.670
95756W        W57419  36.471  24.018  12.894
95757W        W57420  25.997   4.930  14.989
95758W        W57421  38.544  25.163   0.366
95759W        W57422  20.602  30.556   0.815
95760W        W57423  43.409   6.846  11.048
95761W        W57424  21.609   4.423   4.219
95762W        W57425  17.561   4.243  14.800
95763W        W57426  13.746  16.752  11.570
95764W        W57427  29.538  32.524  14.285
95765W        W57428   0.397  18.269   3.306
95766W        W57429  33.585   0.413  13.032
95767W        W57430  19.264   2.322   9.942
95768W        W57431   7.764  27.600   1.820
95769W        W57432  26.161  40.031   2.697
95770W        W57433  24.154   4.331  12.949
95771W        W57434  23.171   2.267  12.430
95772W        W57435  33.621  28.446   2.720
95773W        W57436  10.876   5.274  10.477
95774W        W57437   6.914  40.929   4.231
95775W        W57438  43.417  16.191   0.358
95776W        W57439  34.002  40.934  12.469
95777W        W57440   6.417  44.429   2.828
95778W        W57441   6.815  21.676   3.863
95779W        W57442  19.250  18.076   5.097
95780W        W57443  16.626  27.655   1.213
95781W        W57444  21.194  10.846   1.780
95782W        W57445  29.557  37.458   3.835
95783W        W57446  19.660  29.033   0.833
95784W        W57447  20.077   1.929  10.483
95785W        W57448  32.398  11.627   0.359
95786W        W57449  40.817  20.659   0.878
95787W        W57450  10.822  38.518   2.725
95788W        W57451  41.825  32.885  11.028
95789W        W57452   3.380  10.277  14.947
95790W        W57453  41.364  22.658   0.394
95791W        W57454  20.627   8.372  10.889
95792W        W57455  41.532  24.618   1.755
95793W        W57456   6.421  30.095  12.067
95794W        W57457  43.389  43.498  11.575
95795W        W57458  14.773  38.524  10.917
95796W        W57459  14.321  22.542  12.010
95797W        W57460   7.197  16.211   0.289
95798W        W57461  33.553  32.448   3.157
95799W        W57462  39.352  15.590   0.248
95800W        W57463  25.036   3.287   3.254
95801W        W57464   2.808  11.288   4.143
95802W        W57465   6.846   5.768  13.438
95803W        W57466  30.030   7.327   4.161
95804W        W57467  22.225  11.301   2.277
95805W        W57468  42.284   5.698   4.125
95806W        W57469  28.587  36.443  13.403
95807W        W57470  18.257  26.628   1.447
95808W        W57471  35.555  44.866   0.862
95809W        W57472   6.860  38.828  14.829
95810W        W57473   0.466  29.984  11.068
95811W        W57474  26.683   0.966   0.762
95812W        W57475  14.804  24.038  13.383
95813W        W57476  13.778  11.846   3.307
95814W        W57477   2.728  26.082   1.725
95815W        W57478   0.772  38.424   0.752
95816W        W57479  29.032  22.619   4.304
95817W        W57480  39.501  30.526   0.737
95818W        W57481   9.338   3.272  12.424
95819W        W57482  25.590  36.507   4.680
95820W        W57483  27.100  16.604   1.881
95821W        W57484  42.321  33.091   0.340
95822W        W57485   7.220   5.416  11.380
95823W        W57486   7.357  19.568  10.615
95824W        W57487  27.990  23.679  11.509
95825W        W57488   2.375  14.313   0.922
95826W        W57489  36.576  25.521   2.312
95827W        W57490  23.649  43.016  13.407
95828W        W57491  20.223  20.765   0.890
95829W        W57492  34.524  38.349   2.299
95830W        W57493  15.702  44.004  14.309
95831W        W57494  19.126  21.654   4.192
95832W        W57495  32.046  44.821   2.391
95833W        W57496  33.558  32.907  12.347
95834W        W57497  18.568  17.100  11.522
95835W        W57498  44.329  20.174   3.385
95836W        W57499  34.089  43.965  13.054
95837W        W57500  21.020  12.819  14.778
95838W        W57501  41.298   2.893  11.050
95839W        W57502   7.374  16.203   2.780
95840W        W57503   8.865  24.001   0.745
95841W        W57504  19.104  17.699  13.810
95842W        W57505   6.377  35.482  14.860
95843W        W57506  20.763   2.305   4.218
95844W        W57507  24.993  44.415   2.680
95845W        W57508  31.947  32.620   4.306
95846W        W57509  26.566  12.784  14.307
95847W        W57510  26.986  14.779  14.997
95848W        W57511  31.956   8.237   0.758
95849W        W57512  38.365  34.089  12.975
95850W        W57513  34.937  21.073   3.677
95851W        W57514  44.409  31.091   1.375
95852W        W57515   4.426  11.137   4.830
95853W        W57516  21.552  21.066  12.002
95854W        W57517  19.744  24.612  11.942
95855W        W57518   8.333  17.194  11.123
95856W        W57519  13.607   6.693   0.245
95857W        W57520  29.535  23.731  14.969
95858W        W57521  35.861   8.704   3.189
95859W        W57522  18.560  14.123   0.469
95860W        W57523  41.455  40.533   4.806
95861W        W57524  34.869  17.627  10.586
95862W        W57525  29.008   8.216   2.705
95863W        W57526  18.070   7.299  13.869
95864W        W57527   5.929  39.556   1.843
95865W        W57528  18.663  32.900   2.873
95866W        W57529  12.765   6.389  13.522
95867W        W57530  12.781  37.367  11.960
95868W        W57531  32.603   2.867  11.431
95869W        W57532  29.490  35.869   0.306
95870W        W57533  18.076   0.254   4.176
95871W        W57534  17.624  36.016   1.331
95872W        W57535  16.306   7.294   4.752
95873W        W57536   0.332  41.357   0.329
95874W        W57537   7.853  22.185   2.212
95875W        W57538  24.026  23.123   1.934
95876W        W57539  12.614  43.404  10.608
95877W        W57540  20.088  15.187   1.834
95878W        W57541  12.810  41.804  12.470
95879W        W57542   0.474   2.796   0.874
95880W        W57543  26.967  14.592  10.906
95881W        W57544  39.410  29.005   3.785
95882W        W57545   0.466  23.710   3.277
95883W        W57546  30.581   6.409   1.320
95884W        W57547   9.170  28.486  13.877
95885W        W57548  36.042  24.054  10.509
95886W        W57549  31.977  10.258  12.382
95887W        W57550  17.607   3.900  13.813
95888W        W57551  21.113  43.514  11.012
95889W        W57552  44.330  24.558  13.396
95890W        W57553  25.560  38.458  11.430
95891W        W57554  36.575  38.072  11.399
95892W        W57555  30.107  44.754  12.074
95893W        W57556  36.983  34.095  11.915
95894W        W57557  27.517   8.322   2.311
95895W        W57558  30.568   9.386   0.850
95896W        W57559   7.290   2.372  12.374
95897W        W57560   5.906  18.728  13.892
95898W        W57561   8.368   4.834  10.434
95899W        W57562  24.084  30.041  14.494
95900W        W57563   0.348  41.811  14.788
95901W        W57564  16.663  28.038   3.729
95902W        W57565  12.117  29.578  12.968
95903W        W57566  15.685  31.031  12.425
95904W        W57567  42.300  41.989   3.784
95905W        W57568  14.204   0.760  11.124
95906W        W57569  29.662  42.366   1.772
95907W        W57570  23.119  30.429  14.767
95908W        W57571  37.449  24.027  13.436
95909W        W57572  24.631  40.438   3.737
95910W        W57573   7.322  29.439   4.346
95911W        W57574  30.001  22.137  13.505
95912W        W57575  23.032  24.714   5.608
95913W        W57576  43.506  17.798   2.338
95914W        W57577  39.056  40.907   4.180
95915W        W57578  20.559   3.768   1.320
95916W        W57579  17.275   3.873  14.390
95917W        W57580  41.828   5.705  11.382
95918W        W57581  38.882   8.222   0.376
95919W        W57582  40.342  11.230   2.220
95920W        W57583  17.260  37.061   1.279
95921W        W57584  33.125   4.701   0.789
95922W        W57585  11.166  20.673   1.428
95923W        W57586  13.337   4.821   4.114
95924W        W57587  39.859  23.157  10.624
95925W        W57588  33.069  18.726  11.418
95926W        W57589  15.241  17.201  14.303
95927W        W57590   4.826  16.807  11.879
95928W        W57591  24.195   5.824   3.155
95929W        W57592   3.892  17.090  11.553
95930W        W57593  30.962  39.468   3.273
95931W        W57594  31.005   7.406  10.514
95932W        W57595  21.218  26.204  14.282
95933W        W57596  25.135  30.099   0.425
95934W        W57597  19.184  18.727   3.785
95935W        W57598  25.597  15.152  14.826
95936W        W57599  22.599  11.833  10.516
95937W        W57600  19.224  11.314  11.083
95938W        W57601  13.729  41.992  11.961
95939W        W57602   7.375   6.698   0.399
95940W        W57603  16.679   4.835  13.000
95941W        W57604  19.761   9.233   4.675
95942W        W57605  38.035   4.756  11.519
95943W        W57606  33.593  43.845  13.996
95944W        W57607  20.642  16.576  13.512
95945W        W57608  15.668  36.937  13.316
95946W        W57609  34.937  30.014  14.847
95947W        W57610  28.536  21.544  14.923
95948W        W57611  18.170  41.377   4.828
95949W        W57612  36.900  44.947  13.003
95950W        W57613   3.357  20.247   1.773
95951W        W57614  42.485  31.403  11.095
95952W        W57615  44.824   7.235  14.286
95953W        W57616  30.647   0.744   4.336
95954W        W57617  28.528  10.340   2.801
95955W        W57618  30.485   0.359  11.995
95956W        W57619   2.298  10.164  12.024
95957W        W57620  42.286  24.093  13.996
95958W        W57621  14.730  41.957  14.904
95959W        W57622  32.444  23.637   0.440
95960W        W57623  44.433  35.897   9.933
95961W        W57624  37.460  43.013   3.323
95962W        W57625  14.646  24.986  14.842
95963W        W57626  13.115  26.172  12.018
95964W        W57627   0.419  12.615  11.515
95965W        W57628  10.202  32.948  11.417
95966W        W57629   2.735  16.671   1.428
95967W        W57630  26.119   1.739   0.373
95968W        W57631  38.037  17.680  10.511
95969W        W57632  12.331  33.387  10.510
95970W        W57633  13.810  25.990   3.662
95971W        W57634  29.960   3.408  14.923
95972W        W57635  34.538  42.406   1.859
95973W        W57636  34.472  12.754   0.926
95974W        W57637  30.113  41.323   9.969
95975W        W57638  29.040  30.416   3.822
95976W        W57639  13.766  39.824  14.461
95977W        W57640  43.971  37.963   2.778
95978W        W57641  21.208   3.883   9.952
95979W        W57642  40.512   9.173   4.675
95980W        W57643  41.491  17.258  12.933
95981W        W57644   8.233  24.709   0.861
95982W        W57645  19.639   2.283  13.369
95983W        W57646  44.295  36.954   0.903
95984W        W57647   4.322   2.837  14.945
95985W        W57648   3.240  22.168  12.443
95986W        W57649  28.638  27.018   2.337
95987W        W57650  41.381  25.001   3.730
95988W        W57651  30.129  26.695   0.726
95989W        W57652  19.115  34.024   0.347
95990W        W57653  35.437  18.633   1.428
95991W        W57654  30.915   1.257   4.748
95992W        W57655  39.904   9.212   4.654
95993W        W57656  44.349  27.995  13.517
95994W        W57657  36.417  16.102  12.974
95995W        W57658  44.795  38.540   3.146
95996W        W57659  26.647  17.117   4.681
95997W        W57660   1.770   8.367  11.886
95998W        W57661  31.011  33.956  14.455
95999W        W57662   9.156  40.935   4.653
96000W        W57663  29.435  14.592   0.909
96001W        W57664  36.979  26.168  13.064
96002W        W57665  15.233   5.390  14.933
96003W        W57666  42.448  43.474  13.535
96004W        W57667   9.370   1.392   2.765
96005W        W57668  26.083  15.104  11.585
96006W        W57669  33.885   3.919  12.580
96007W        W57670  17.067   4.264  10.957
96008W        W57671  11.337   2.306  14.285
96009W        W57672   1.852  39.834   2.885
96010W        W57673  16.593   5.308   3.298
96011W        W57674  36.007  34.106  11.864
96012W        W57675  27.562  41.847  12.050
96013W        W57676  35.022  15.748  12.530
96014W        W57677   0.793  12.270  14.354
96015W        W57678  15.144  39.546  12.340
96016W        W57679  21.607  26.576  12.462
96017W        W57680   6.827   1.883   4.599
96018W        W57681   1.763  42.432  13.905
96019W        W57682  43.286  25.054   1.249
96020W        W57683  39.845  44.370   2.299
96021W        W57684  44.902  29.536  10.155
96022W        W57685  33.409  38.327  10.642
96023W        W57686   8.236   8.898  12.876
96024W        W57687  14.160   8.662   2.205
96025W        W57688  13.127  21.044  13.971
96026W        W57689  37.898   3.905   1.882
96027W        W57690  40.028  22.597  14.820
96028W        W57691  17.062  11.315  13.361
96029W        W57692  38.474   9.775   4.771
96030W        W57693  37.968  43.823  13.427
96031W        W57694  27.152   0.751  10.580
96032W        W57695  39.045   6.212   0.822
96033W        W57696  41.510  35.588  14.354
96034W        W57697  15.309  43.007   0.390
96035W        W57698  21.746  35.100  10.485
96036W        W57699   5.252  21.046  14.829
96037W        W57700  22.713  26.082  13.058
96038W        W57701  32.587  25.217  11.943
96039W        W57702  33.465  37.573   4.207
96040W        W57703   0.293  16.607  12.449
96041W        W57704  27.460  12.270   1.305
96042W        W57705  32.517  28.516  12.395
96043W        W57706   8.304  18.547   3.158
96044W        W57707  14.094   7.871   9.635
96045W        W57708  32.421  42.361   3.292
96046W        W57709  41.387  44.366  13.537
96047W        W57710  14.593   4.398   1.811
96048W        W57711  10.200  24.978   2.833
96049W        W57712  27.168  41.869   1.903
96050W        W57713  15.218   8.843  13.838
96051W        W57714  29.020  41.965   4.285
96052W        W57715   6.280   3.926   2.370
96053W        W57716  27.142  28.931   3.258
96054W        W57717   9.186  37.412   1.913
96055W        W57718  11.287  18.545  12.044
96056W        W57719  10.755   8.901  14.842
96057W        W57720  44.341  43.977   3.299
96058W        W57721  26.015  40.360   2.755
96059W        W57722  43.512  13.741  12.028
96060W        W57723  19.756  12.653   2.880
96061W        W57724  12.126   9.756  10.454
96062W        W57725   2.443   9.717   4.622
96063W        W57726  25.214   3.352   1.927
96064W        W57727  25.198  38.022  13.844
96065W        W57728  34.073  43.475   2.886
96066W        W57729  44.493  11.323  11.435
96067W        W57730  16.810   0.911   0.351
96068W        W57731  10.809  43.496   2.325
96069W        W57732  10.672  32.498  13.920
96070W        W57733  24.196  20.768   4.822
96071W        W57734  17.609  29.460   4.731
96072W        W57735  24.191  23.554  12.991
96073W        W57736  23.143  39.994  10.603
96074W        W57737  22.747   1.382  10.410
96075W        W57738   0.859  26.022   0.912
96076W        W57739   5.762  25.201   2.844
96077W        W57740  17.101  44.791  11.462
96078W        W57741  15.236  13.254   0.741
96079W        W57742  34.979  43.857  10.420
96080W        W57743  44.268  33.076  12.561
96081W        W57744  38.073  37.834  11.072
96082W        W57745  36.357  44.330   1.444
96083W        W57746  42.778  30.596  12.421
96084W        W57747  20.577  28.173  12.482
96085W        W57748   5.695   5.847   0.746
96086W        W57749   3.855  16.208  13.411
96087W        W57750  44.454  27.637   4.338
96088W        W57751  36.566  12.162   3.641
96089W        W57752  24.073   6.360  13.808
96090W        W57753   0.329  13.169   5.206
96091W        W57754   6.740  34.057   0.908
96092W        W57755  39.409  32.941   4.340
96093W        W57756  34.986  32.132   1.836
96094W        W57757   6.749  43.507   3.147
96095W        W57758  24.615   0.967  11.906
96096W        W57759  11.692  43.282   4.732
96097W        W57760  13.170  44.005  12.998
96098W        W57761  39.847  41.484   1.858
96099W        W57762  43.446  23.090   3.270
96100W        W57763  33.471  32.615   0.917
96101W        W57764  14.833  39.323  14.796
96102W        W57765  43.953  37.545   2.329
96103W        W57766  38.991  12.136  12.826
96104W        W57767  24.197  24.219  13.499
96105W        W57768  35.997  39.425  11.063
96106W        W57769  42.777  41.420  13.977
96107W        W57770  37.471  12.818   2.775
96108W        W57771  21.542  30.970   0.311
96109W        W57772  29.663  14.595  11.544
96110W        W57773  37.529   0.951   0.963
96111W        W57774  21.176  10.211   1.773
96112W        W57775  19.765  17.601   1.806
96113W        W57776   7.690  43.492  12.846
96114W        W57777   1.448  31.911  11.566
96115W        W57778  13.646  10.666  12.391
96116W        W57779  40.881  21.701   0.941
96117W        W57780   2.402   0.927  11.386
96118W        W57781  28.017  36.042  13.328
96119W        W57782  13.826  29.993   4.209
96120W        W57783   4.280  33.411  12.448
96121W        W57784  16.782  25.100  10.926
96122W        W57785  34.601  11.196   1.783
96123W        W57786  43.351  21.070  14.477
96124W        W57787   1.445  19.653   4.671
96125W        W57788  18.091   5.863   1.794
96126W        W57789  12.676   7.196   5.710
96127W        W57790  12.836  41.481  11.919
96128W        W57791   5.784  26.477   2.418
96129W        W57792  27.635   5.737   3.858
96130W        W57793  19.140   1.306   1.352
96131W        W57794  43.917  31.020   0.779
96132W        W57795  15.811  44.841  12.048
96133W        W57796   1.766  32.128   0.779
96134W        W57797   3.744   5.860   0.341
96135W        W57798  15.679  29.062  13.896
96136W        W57799  20.254   5.271   2.739
96137W        W57800  11.287  36.083   2.672
96138W        W57801  28.438  38.565   1.827
96139W        W57802  19.659  12.683  11.096
96140W        W57803  26.051  17.256  13.351
96141W        W57804   4.864  22.683   4.138
96142W        W57805  33.995  26.089  11.484
96143W        W57806  24.046  30.567   4.615
96144W        W57807  12.160  11.737   4.191
96145W        W57808   2.837  31.496   0.827
96146W        W57809  35.031  37.394  10.558
96147W        W57810   5.785  34.531  12.422
96148W        W57811  10.348  11.683   2.840
96149W        W57812  10.745  44.934   1.857
96150W        W57813  41.906  22.068   0.243
96151W        W57814   0.428  36.005   0.296
96152W        W57815  19.564  19.764   2.273
96153W        W57816   8.686  17.246   3.774
96154W        W57817  22.021  21.601  13.064
96155W        W57818  33.927   5.235   3.783
96156W        W57819  13.186  11.365  10.935
96157W        W57820  22.175  39.376   3.760
96158W        W57821   5.305  30.566   5.138
96159W        W57822  28.518   1.952  14.287
96160W        W57823  18.180  44.350  12.973
96161W        W57824   2.248  10.357  12.492
96162W        W57825  10.802  28.997   4.796
96163W        W57826  30.017  43.387  13.889
96164W        W57827  11.711   7.376   2.819
96165W        W57828  28.621  24.659  12.469
96166W        W57829  44.827  11.131  10.891
96167W        W57830   2.430  14.803  10.603
96168W        W57831  21.019  14.725  12.862
96169W        W57832  29.031  42.822   4.343
96170W        W57833  37.845  21.205   1.821
96171W        W57834   7.848   6.894  10.587
96172W        W57835   6.313   7.768  13.811
96173W        W57836   1.960  32.936   3.284
96174W        W57837  27.998  24.979   2.414
96175W        W57838   6.201  13.178  13.382
96176W        W57839  16.115  18.084   3.835
96177W        W57840   3.866   4.360   2.867
96178W        W57841  31.141  36.372   1.795
96179W        W57842   5.717  25.507   3.385
96180W        W57843  11.827  14.221   0.881
96181W        W57844  42.843  12.654   4.682
96182W        W57845  15.160  15.248  11.024
96183W        W57846   6.866   3.791   4.341
96184W        W57847   4.701  17.188   1.812
96185W        W57848   2.822  29.110   1.349
96186W        W57849  29.942  17.300  11.017
96187W        W57850  30.455  43.967   1.828
96188W        W57851   2.324  14.805   0.929
96189W        W57852   6.347  27.682  12.925
96190W        W57853  42.877  16.672  13.919
96191W        W57854  42.782  37.061   1.438
96192W        W57855   1.901  37.466   4.295
96193W        W57856  29.663  13.219   1.238
96194W        W57857  42.371  35.410  10.419
96195W        W57858   3.863  40.943   2.296
96196W        W57859   0.297  30.480  13.415
96197W        W57860  34.939  32.108   2.875
96198W        W57861   1.854  31.132   4.285
96199W        W57862  10.870  16.305   3.268
96200W        W57863  16.278  24.577   0.924
96201W        W57864  11.652  15.259   2.413
96202W        W57865  21.018  44.856   2.180
96203W        W57866  10.141  11.854  12.854
96204W        W57867  26.201   5.270   0.272
96205W        W57868  31.622   5.356  13.403
96206W        W57869  24.998  38.407   1.271
96207W        W57870  44.815   4.926   2.178
96208W        W57871  26.071  22.051   2.362
96209W        W57872  36.088   7.763   1.254
96210W        W57873   8.188  35.092  10.518
96211W        W57874  35.394  24.121   3.243
96212W        W57875  32.465   4.860   4.770
96213W        W57876  44.404  37.971  14.431
96214W        W57877  10.690   0.415   3.648
96215W        W57878   1.417  13.224   0.247
96216W        W57879  13.645   4.380  12.840
96217W        W57880  44.965  19.249  13.398
96218W        W57881   7.245  36.848   0.839
96219W        W57882  11.656  11.846   3.220
96220W        W57883   5.299  44.264   4.669
96221W        W57884  30.116  42.509   4.121
96222W        W57885  40.968  27.001  11.524
96223W        W57886  43.401  38.967   4.716
96224W        W57887  22.022   0.854   5.749
96225W        W57888  35.987  21.028   2.332
96226W        W57889  42.285  18.068   2.365
96227W        W57890  32.960   6.290   1.895
96228W        W57891  26.587   4.820   0.737
96229W        W57892  18.282  29.653  10.474
96230W        W57893  23.141  43.509   3.160
96231W        W57894  42.426  21.244  11.578
96232W        W57895  27.106  10.294  12.020
96233W        W57896  22.529  28.170  12.566
96234W        W57897  40.932  22.692  11.535
96235W        W57898  11.352  27.141  14.928
96236W        W57899  20.666  39.448  13.799
96237W        W57900  28.437   1.863  11.948
96238W        W57901   4.726   1.743   4.184
96239W        W57902  16.612  17.628   0.296
96240W        W57903  11.658  32.028   1.852
96241W        W57904  18.134  21.616  12.399
96242W        W57905  18.143   4.795   3.345
96243W        W57906  11.820  37.443   2.212
96244W        W57907   3.297   1.385  13.816
96245W        W57908  38.448   3.894   1.342
96246W        W57909  38.022   5.330   2.892
96247W        W57910  15.708  37.049   3.659
96248W        W57911  38.369   9.352   2.291
96249W        W57912  33.122   9.384  10.466
96250W        W57913  14.701  32.943   2.246
96251W        W57914  37.845  28.528   4.789
96252W        W57915  11.858  30.064   2.728
96253W        W57916  41.011  32.456  12.075
96254W        W57917  13.300   1.751   2.188
96255W        W57918  28.510  28.177   2.823
96256W        W57919   5.736  29.087  13.531
96257W        W57920   1.906  25.532   1.892
96258W        W57921  33.554  41.937   3.157
96259W        W57922  14.244  31.507   3.798
96260W        W57923   5.895   3.763  13.396
96261W        W57924  44.260  13.669   9.568
96262W        W57925  28.504   4.705   0.945
96263W        W57926  40.998  36.092  11.542
96264W        W57927  23.530   7.781   3.295
96265W        W57928  38.430  26.185   1.705
96266W        W57929  33.917  38.490  12.551
96267W        W57930   6.786  12.210   3.661
96268W        W57931  40.039  30.651  13.852
96269W        W57932  26.114  31.074   0.805
96270W        W57933  15.170  33.885   5.211
96271W        W57934   9.846  42.337   0.305
96272W        W57935  28.166  30.473   2.886
96273W        W57936  18.600  25.548   1.695
96274W        W57937   1.301  21.602   2.333
96275W        W57938  16.316  13.798   1.698
96276W        W57939  17.300  28.076   1.433
96277W        W57940  21.131   5.933  10.930
96278W        W57941   1.463   5.847  13.347
96279W        W57942  32.554  28.592  10.553
96280W        W57943  35.001  15.288   4.303
96281W        W57944  41.799  40.367   1.446
96282W        W57945  27.058  31.584   4.805
96283W        W57946  35.460  39.934   4.612
96284W        W57947  10.277  23.591   2.238
96285W        W57948  29.577   4.796   3.633
96286W        W57949   5.774  35.432   2.244
96287W        W57950   9.305  19.644   0.341
96288W        W57951  37.965  39.025   2.856
96289W        W57952   8.369  35.928   2.849
96290W        W57953  44.801  13.244  11.871
96291W        W57954  14.256   1.437  14.870
96292W        W57955  25.163  25.561  10.915
96293W        W57956   5.233  42.360   3.276
96294W        W57957  24.164  18.253   2.241
96295W        W57958  32.039  17.260  14.932
96296W        W57959  28.941  19.593  14.433
96297W        W57960  35.103  42.890   4.718
96298W        W57961  22.216  38.340  14.367
96299W        W57962  40.918  30.989   2.288
96300W        W57963  27.090   7.884   0.392
96301W        W57964  23.611   9.172  13.963
96302W        W57965  16.125  16.108   5.193
96303W        W57966  19.720  28.997  11.509
96304W        W57967  22.633  24.678  14.826
96305W        W57968  38.833  36.483   0.436
96306W        W57969  26.669  29.619   3.243
96307W        W57970  17.708  19.686  14.835
96308W        W57971   5.834   9.262  11.934
96309W        W57972   7.672  30.614   3.684
96310W        W57973  19.165   8.191   1.222
96311W        W57974  16.638  29.604   4.314
96312W        W57975  39.433  38.999   2.354
96313W        W57976  39.860   6.895  13.798
96314W        W57977   2.456  31.972   0.417
96315W        W57978  35.483   1.298  13.807
96316W        W57979  27.156  29.987   4.341
96317W        W57980   0.347  42.511   4.683
96318W        W57981  14.827  36.013   2.687
96319W        W57982  44.429  15.234  10.544
96320W        W57983  38.929  23.697   4.607
96321W        W57984  14.323  36.073  13.874
96322W        W57985  34.864   5.421  10.968
96323W        W57986   9.248   8.298   2.312
96324W        W57987   2.297   2.373  10.605
96325W        W57988   2.308   8.763   1.320
96326W        W57989   7.332   7.844   4.258
96327W        W57990   6.283  32.054   2.841
96328W        W57991   3.892  37.432  13.342
96329W        W57992  17.761  20.558   3.268
96330W        W57993   2.249  40.892  10.906
96331W        W57994  34.931   7.701  13.034
96332W        W57995  12.807  20.712   1.861
96333W        W57996  26.128  31.573   4.190
96334W        W57997   0.271  38.354   3.702
96335W        W57998  33.507   5.874  12.913
96336W        W57999  25.042  43.499  12.935
96337W        W58000  10.820   4.268  14.392
96338W        W58001   5.318   2.315  14.390
96339W        W58002   4.345  39.313  13.316
96340W        W58003  43.884  25.483  10.455
96341W        W58004  21.132  28.479  11.870
96342W        W58005  44.419  19.718   1.934
96343W        W58006  24.525  35.519  14.401
96344W        W58007  25.165   7.747  11.599
96345W        W58008  21.160  15.111  11.415
96346W        W58009   7.205  39.424  13.913
96347W        W58010  13.349  39.466   0.832
96348W        W58011  20.643  37.061   1.831
96349W        W58012  39.856   3.299  13.897
96350W        W58013  41.843  35.924  10.029
96351W        W58014   6.767   7.909   0.801
96352W        W58015   0.972   9.737   1.255
96353W        W58016  44.501  17.084  14.482
96354W        W58017  26.671   6.189  13.484
96355W        W58018  32.453  23.043   1.411
96356W        W58019  22.736  44.346  11.909
96357W        W58020  43.350   4.217   2.665
96358W        W58021  44.939  29.464   2.223
96359W        W58022  33.453  18.558   4.637
96360W        W58023  17.307  32.027  11.891
96361W        W58024  42.853  26.020  14.457
96362W        W58025  42.488  24.146   3.192
96363W        W58026  22.240  28.014   1.815
96364W        W58027  16.241  28.000   1.772
96365W        W58028  21.206  43.858   1.327
96366W        W58029  13.264   4.802   2.871
96367W        W58030  11.230  18.721   4.667
96368W        W58031  41.348  12.257  13.924
96369W        W58032  34.025  21.155  13.060
96370W        W58033  25.687  25.688   2.319
96371W        W58034  35.093  39.950  13.930
96372W        W58035  18.585   3.278  13.392
96373W        W58036  20.609  17.119  11.428
96374W        W58037   0.803  38.906  14.328
96375W        W58038  24.111   9.177  11.475
96376W        W58039  32.999  33.966   2.310
96377W        W58040  10.384  40.970  11.553
96378W        W58041  44.360  20.590   3.272
96379W        W58042  28.166  26.579   3.816
96380W        W58043   3.358  14.244   4.299
96381W        W58044   1.907  17.269   3.354
96382W        W58045  26.058  32.951  14.889
96383W        W58046  32.625  20.123   0.481
96384W        W58047  17.587  13.789  11.032
96385W        W58048  33.918   2.771  14.837
96386W        W58049  35.442  21.739  11.504
96387W        W58050  19.596  42.465  12.344
96388W        W58051  12.668   0.280  12.849
96389W        W58052   8.736  42.778   2.892
96390W        W58053  22.074   5.372  11.599
96391W        W58054  30.455  44.313   2.686
96392W        W58055   1.846  31.472   0.274
96393W        W58056  21.151   9.320  12.503
96394W        W58057  14.172  16.150  14.775
96395W        W58058  44.812  16.151   5.647
96396W        W58059   6.268  14.324  13.811
96397W        W58060  26.974  26.584  12.425
96398W        W58061  33.066   3.451   0.933
96399W        W58062  21.187   0.987   4.649
96400W        W58063  16.676  15.734   4.118
96401W        W58064   3.290  27.617   2.839
96402W        W58065   1.763  44.771   2.247
96403W        W58066  20.112  14.809  13.424
96404W        W58067  44.769  24.184   0.483
96405W        W58068  36.016  34.569   4.296
96406W        W58069   3.406  15.255  10.499
96407W        W58070  10.365  18.127   0.420
96408W        W58071   3.758  26.515  10.483
96409W        W58072  36.986  37.995  14.880
96410W        W58073  19.709  10.871   3.769
96411W        W58074  30.496  27.553  14.941
96412W        W58075   6.792  10.718  10.554
96413W        W58076  28.078   5.746   4.205
96414W        W58077   8.308   5.240  13.528
96415W        W58078  41.536  23.613  13.976
96416W        W58079  26.517  22.682  12.842
96417W        W58080  41.393  44.780   2.270
96418W        W58081   4.411  32.482   3.330
96419W        W58082  33.494  30.559   4.157
96420W        W58083  15.223  27.175  14.859
96421W        W58084  42.859  41.900  14.450
96422W        W58085   0.856  13.711   0.258
96423W        W58086  19.690  23.068  12.341
96424W        W58087  42.899  40.820   1.262
96425W        W58088   9.648  30.938  10.474
96426W        W58089  20.685  18.078  14.304
96427W        W58090  37.436  24.007  13.027
96428W        W58091   1.749  12.284  10.939
96429W        W58092  28.560  36.024   2.400
96430W        W58093   5.420  33.438  10.138
96431W        W58094  37.052  22.555  13.798
96432W        W58095   4.924  37.579  11.966
96433W        W58096   3.313  24.995  11.073
96434W        W58097  25.194  11.698  14.347
96435W        W58098  32.108  38.448   3.299
96436W        W58099   6.791  23.229  10.506
96437W        W58100   3.273  25.004  13.342
96438W        W58101  35.866  22.533  14.961
96439W        W58102  11.128  34.093  11.890
96440W        W58103   5.836  30.975   1.800
96441W        W58104   3.944   5.776   4.242
96442W        W58105  14.635  11.348  12.961
96443W        W58106   1.792  22.175  13.896
96444W        W58107  41.933  25.672   0.874
96445W        W58108  23.710   7.401  11.443
96446W        W58109  38.843  33.386  11.031
96447W        W58110  16.317   3.420   4.810
96448W        W58111  18.136  41.910  13.324
96449W        W58112  30.645   3.412  12.365
96450W        W58113   6.399  21.721  13.442
96451W        W58114  43.893  23.624  10.611
96452W        W58115  39.880   2.885   2.765
96453W        W58116  19.547  22.125  12.993
96454W        W58117  43.956  35.944   2.340
96455W        W58118  38.853  33.413   1.338
96456W        W58119  11.698  28.030  11.944
96457W        W58120  20.044  10.364   4.308
96458W        W58121  30.613   3.947   3.714
96459W        W58122  34.381  29.568  12.394
96460W        W58123  26.554  44.915  13.889
96461W        W58124   7.727  35.093   1.271
96462W        W58125  23.561  24.161   3.237
96463W        W58126  31.153  27.682  12.899
96464W        W58127   7.192  23.070  14.457
96465W        W58128   9.299  25.113   4.344
96466W        W58129   5.803  22.153   1.741
96467W        W58130  13.707  35.108  10.480
96468W        W58131  16.774  44.438   2.232
96469W        W58132  15.085  21.160   0.301
96470W        W58133  29.608   8.866  10.991
96471W        W58134  10.664  26.180  12.439
96472W        W58135  38.951  12.352  11.985
96473W        W58136  23.099  34.590  10.967
96474W        W58137  37.966  10.671  14.022
96475W        W58138  30.109   3.751  13.473
96476W        W58139   8.679  10.811  12.826
96477W        W58140   0.365  12.706   4.779
96478W        W58141   6.401  20.654  11.477
96479W        W58142  36.060  40.874  13.819
96480W        W58143  19.758  43.841   0.257
96481W        W58144  38.390  42.785   1.409
96482W        W58145  11.355  20.706   2.753
96483W        W58146   8.862  24.553   1.820
96484W        W58147  38.982  18.184  14.447
96485W        W58148  18.576  28.181   3.342
96486W        W58149  36.487  41.887  14.808
96487W        W58150  21.189  41.027  14.429
96488W        W58151  10.856  42.421   0.968
96489W        W58152  43.961  11.633  13.024
96490W        W58153  43.885   5.804   2.799
96491W        W58154  18.555  11.808  11.572
96492W        W58155   1.372  11.859  14.353
96493W        W58156  13.783  34.462  11.495
96494W        W58157  14.141  26.081  14.773
96495W        W58158   6.319  41.502  12.394
96496W        W58159   3.921  43.941  12.449
96497W        W58160  33.460  27.464   1.920
96498W        W58161  18.252   1.337  13.475
96499W        W58162  44.839  42.310   0.251
96500W        W58163  30.998  14.290  11.585
96501W        W58164  14.677  41.934   2.797
96502W        W58165  11.198   8.817  11.607
96503W        W58166  12.292  27.017  10.416
96504W        W58167   6.779  23.118   0.768
96505W        W58168   8.864  25.614   1.730
96506W        W58169   3.821  38.920  10.529
96507W        W58170  39.448   4.866   2.227
96508W        W58171   7.279  13.617   1.885
96509W        W58172  20.149  19.132  10.508
96510W        W58173  28.610  40.362  11.920
96511W        W58174  21.168  42.786  11.434
96512W        W58175  17.644  39.808  12.463
96513W        W58176  29.926   3.735   0.271
96514W        W58177  28.176  40.959   3.809
96515W        W58178   5.235  22.058  13.835
96516W        W58179  35.358  31.143   4.194
96517W        W58180  34.475  26.115   4.202
96518W        W58181   2.914  29.582  12.476
96519W        W58182  39.410  12.645  10.457
96520W        W58183  26.661  15.637   2.874
96521W        W58184  25.108   1.306  11.574
96522W        W58185   1.299  35.381   3.278
96523W        W58186  24.050  26.463  10.434
96524W        W58187  28.549  29.121  10.479
96525W        W58188  14.699   1.342   3.651
96526W        W58189  27.460   2.951   1.295
96527W        W58190   6.425   0.305  12.457
96528W        W58191  18.144  36.022  14.025
96529W        W58192  10.760   7.792   1.705
96530W        W58193  30.447  14.184   2.403
96531W        W58194  25.215  14.719  12.088
96532W        W58195  27.638   2.924   2.281
96533W        W58196  35.872  32.966  13.007
96534W        W58197   2.332  23.119  14.918
96535W        W58198  42.386   6.345  12.966
96536W        W58199   0.462  25.661  13.545
96537W        W58200  15.261  40.376   1.376
96538W        W58201  17.075   7.845   3.175
96539W        W58202   2.419  41.949   1.388
96540W        W58203  12.270   7.279  13.015
96541W        W58204  14.605  33.019  11.560
96542W        W58205  22.582   4.427   4.720
96543W        W58206  11.647  10.712   3.712
96544W        W58207   2.231  30.501   4.277
96545W        W58208  26.522  10.839   3.716
96546W        W58209   5.315  44.444   4.200
96547W        W58210   7.729  36.047   4.164
96548W        W58211  43.907  11.814   2.391
96549W        W58212  43.305  37.955  12.579
96550W        W58213  21.118  19.204   2.336
96551W        W58214   3.255  22.220   4.349
96552W        W58215  24.154  11.857  11.099
96553W        W58216  16.212  24.525  13.955
96554W        W58217  31.969  28.159  11.068
96555W        W58218   2.253  39.403  11.472
96556W        W58219  27.945  42.407  13.853
96557W        W58220  20.083  18.579   2.740
96558W        W58221   6.815  24.720   1.773
96559W        W58222  25.205  40.996  14.336
96560W        W58223   8.276  20.605  11.565
96561W        W58224   5.857  24.125  11.567
96562W        W58225  12.678  11.716   4.748
96563W        W58226   7.751  23.178  12.944
96564W        W58227  30.965  43.507  10.532
96565W        W58228  34.956   9.713  14.010
96566W        W58229  11.751  32.897  12.409
96567W        W58230  12.849   5.714  11.382
96568W        W58231   3.789   5.253   3.690
96569W        W58232  40.527  25.043   0.302
96570W        W58233   5.310  40.040  14.019
96571W        W58234  36.568  19.111  12.903
96572W        W58235  10.303   3.895  14.967
96573W        W58236  41.915   3.421   0.449
96574W        W58237  30.038   4.868   0.878
96575W        W58238  19.680  14.276  14.320
96576W        W58239  11.673  33.991  14.378
96577W        W58240  44.769  22.502   2.726
96578W        W58241  39.024  17.215   2.217
96579W        W58242  37.414  38.941  10.160
96580W        W58243  23.169  42.028  12.456
96581W        W58244  15.181  22.114   4.192
96582W        W58245  25.655   5.394   3.756
96583W        W58246  40.954  36.360   4.708
96584W        W58247  12.837  19.121   1.222
96585W        W58248  17.679  28.095  14.933
96586W        W58249  19.668   1.899   9.660
96587W        W58250  10.361  38.556  10.555
96588W        W58251   5.234  21.120   4.297
96589W        W58252  32.626  39.486   1.719
96590W        W58253  38.927  17.707   1.699
96591W        W58254  30.552   5.883  14.016
96592W        W58255  39.859  34.499   1.435
96593W        W58256  39.431  37.363   2.678
96594W        W58257  16.250  32.975  14.321
96595W        W58258  44.416  32.415   2.221
96596W        W58259  41.417  10.271   0.762
96597W        W58260  33.922  12.705   4.606
96598W        W58261   8.275   8.224   2.296
96599W        W58262  25.535   2.733   3.313
96600W        W58263  30.499  37.525  11.093
96601W        W58264   3.879  31.419  14.417
96602W        W58265  20.556  19.682   0.769
96603W        W58266  19.068  41.910   1.353
96604W        W58267   5.280  30.440   3.663
96605W        W58268  41.537  22.618   1.340
96606W        W58269  32.019  20.649   3.691
96607W        W58270   9.692  20.598   0.388
96608W        W58271  11.830   3.931  12.001
96609W        W58272  30.461  30.550  12.953
96610W        W58273  30.154  12.268  13.349
96611W        W58274   8.747  40.928  12.357
96612W        W58275   5.263  26.591   1.749
96613W        W58276  35.013  38.541   3.232
96614W        W58277   2.332   1.467  12.469
96615W        W58278  22.527  43.961  13.402
96616W        W58279  34.085   1.819  10.512
96617W        W58280  26.962  26.675  13.986
96618W        W58281  17.062  34.957   4.747
96619W        W58282  11.278  28.086   3.760
96620W        W58283  31.087  21.073   1.268
96621W        W58284  44.293  37.874  11.531
96622W        W58285  25.091  22.701   3.297
96623W        W58286  30.545  19.153  13.329
96624W        W58287  42.411  14.205   1.863
96625W        W58288   4.779  41.318  11.118
96626W        W58289  23.052  17.574   2.352
96627W        W58290   5.342  23.653  14.511
96628W        W58291  19.163  20.635  14.842
96629W        W58292  20.691  41.395  14.895
96630W        W58293  23.216  32.407   4.166
96631W        W58294  24.598  13.792  11.567
96632W        W58295  30.150   2.922   2.666
96633W        W58296  40.891   1.277   1.257
96634W        W58297  34.525  34.385  14.277
96635W        W58298  34.453  15.618  12.421
96636W        W58299  15.208  26.190  12.530
96637W        W58300  44.332  31.458   4.683
96638W        W58301   0.376  30.041  14.945
96639W        W58302  26.003   2.850   4.333
96640W        W58303  25.124  40.357   3.768
96641W        W58304   0.814  22.150  11.900
96642W        W58305  14.207  24.028   1.858
96643W        W58306   1.442  34.121   0.394
96644W        W58307  21.550   4.404  10.434
96645W        W58308   9.792  18.677   2.738
96646W        W58309  25.101  22.672  11.503
96647W        W58310  31.104  23.677  11.586
96648W        W58311  36.546  28.652  12.033
96649W        W58312  14.239   9.645  13.944
96650W        W58313  43.513   7.763   1.812
96651W        W58314  34.983  32.595  12.948
96652W        W58315  13.826  34.563   9.568
96653W        W58316  17.785  36.083   1.882
96654W        W58317  13.700  19.238  11.106
96655W        W58318  42.355   6.878  10.036
96656W        W58319   9.663  30.002  14.360
96657W        W58320  17.753  17.593   2.182
96658W        W58321  22.643  35.399   2.737
96659W        W58322   4.212  42.462  13.925
96660W        W58323  34.948  11.228  12.515
96661W        W58324  27.661   3.303  12.365
96662W        W58325   0.897  42.407   3.643
96663W        W58326  27.511  44.884  13.517
96664W        W58327  35.929  26.095   4.622
96665W        W58328   8.330  41.384  12.403
96666W        W58329  30.059  33.104   3.770
96667W        W58330  23.667  12.748  12.959
96668W        W58331  10.706  13.276   0.889
96669W        W58332  12.124  44.831   4.204
96670W        W58333   9.158  13.337  14.495
96671W        W58334  23.025   5.858  14.930
96672W        W58335  36.517  26.001  13.983
96673W        W58336  20.740   7.299   3.797
96674W        W58337  24.143   8.247  10.988
96675W        W58338  21.157  33.054  14.853
96676W        W58339  27.591  13.300  12.896
96677W        W58340  16.124  23.988   1.307
96678W        W58341   9.655  21.132   4.693
96679W        W58342  19.090  18.687  11.534
96680W        W58343  23.592  26.158   0.300
96681W        W58344  25.045  23.507   2.803
96682W        W58345   0.854  16.590  13.944
96683W        W58346  23.130  44.904   2.277
96684W        W58347   1.461  30.062  11.887
96685W        W58348  39.963  26.201   0.411
96686W        W58349   7.893  40.433   2.281
96687W        W58350   2.772  33.036  10.997
96688W        W58351   1.236  16.647  14.367
96689W        W58352  21.676  12.671   4.631
96690W        W58353  39.058   4.276  14.951
96691W        W58354  33.520  16.807   4.284
96692W        W58355  16.806  40.960  14.862
96693W        W58356  24.554  44.408   4.666
96694W        W58357  36.063  26.561   1.803
96695W        W58358  42.505  29.441  11.017
96696W        W58359  18.658  29.455   1.934
96697W        W58360  24.513  43.329   2.374
96698W        W58361  20.722  43.360   4.672
96699W        W58362  12.195  31.071   2.869
96700W        W58363  42.342  38.949  13.999
96701W        W58364   0.358  10.840  12.396
96702W        W58365  17.154   2.261   4.748
96703W        W58366  43.325  23.661  13.528
96704W        W58367  31.634  16.296  11.081
96705W        W58368  18.701  37.087  13.497
96706W        W58369  21.071  39.540  13.959
96707W        W58370  22.098  14.268  14.398
96708W        W58371  41.931  16.776   0.264
96709W        W58372  18.246  36.913  12.935
96710W        W58373  23.680   0.897  13.805
96711W        W58374  15.085   4.392  12.997
96712W        W58375  29.483  13.326   4.129
96713W        W58376  28.138   7.745  11.388
96714W        W58377  20.592  15.104  12.424
96715W        W58378  35.524   5.346  14.442
96716W        W58379  15.639  21.036  14.878
96717W        W58380  16.311  21.659  11.903
96718W        W58381   7.284  14.717   0.727
96719W        W58382  10.151   1.822  14.796
96720W        W58383  38.984  26.628   4.126
96721W        W58384  32.626   2.278   1.361
96722W        W58385  13.736  12.617   1.278
96723W        W58386  43.446  23.123   1.217
96724W        W58387  36.421  32.091  12.919
96725W        W58388   2.722   3.245   0.925
96726W        W58389   8.264  29.939  10.939
96727W        W58390  40.850   2.920  14.456
96728W        W58391  43.309   8.856  13.405
96729W        W58392  30.066  43.809  11.406
96730W        W58393  23.201  33.085   2.348
96731W        W58394  34.994  40.391  13.868
96732W        W58395   7.855   5.835   0.479
96733W        W58396  23.168  29.468  12.899
96734W        W58397  42.004  26.578  11.581
96735W        W58398  28.665  43.837  12.035
96736W        W58399  36.583  23.528   1.726
96737W        W58400  19.728  19.616   3.768
96738W        W58401  19.219  41.344   0.955
96739W        W58402  27.502  40.493   2.679
96740W        W58403  42.333  35.522  14.865
96741W        W58404   1.482  36.361  12.543
96742W        W58405  35.481  25.028   3.687
96743W        W58406  23.634  12.357   2.381
96744W        W58407  43.397  42.994  13.502
96745W        W58408  12.752  19.736  12.543
96746W        W58409  11.304  28.042  12.088
96747W        W58410  31.099   9.829  10.550
96748W        W58411   3.816  26.181   1.214
96749W        W58412  40.546  17.254  11.515
96750W        W58413  44.777  13.348  12.999
96751W        W58414  23.013  12.330  13.352
96752W        W58415  37.552  22.534   1.335
96753W        W58416   0.840   5.787  11.101
96754W        W58417  44.973  22.611   4.165
96755W        W58418  12.656  11.174   1.842
96756W        W58419   6.255  41.475  13.422
96757W        W58420   6.413  11.757   5.238
96758W        W58421   3.836  26.561   2.249
96759W        W58422  26.046   6.768  13.009
96760W        W58423  12.317  41.022   0.760
96761W        W58424  44.977  34.924  10.407
96762W        W58425   1.265  24.028   3.321
96763W        W58426  36.855  18.624  10.428
96764W        W58427  26.006  22.006  13.923
96765W        W58428  38.436  17.680   4.139
96766W        W58429  36.355  43.894   2.215
96767W        W58430  24.030  40.329  13.354
96768W        W58431  12.169  12.640   4.742
96769W        W58432  21.638   1.935   5.127
96770W        W58433  35.470   0.311   1.761
96771W        W58434  19.151  29.120  14.826
96772W        W58435  42.025   9.807  12.536
96773W        W58436  38.441  11.651  11.431
96774W        W58437  18.233  30.968  14.920
96775W        W58438  12.743  14.286  14.913
96776W        W58439  18.105   9.818  14.813
96777W        W58440  42.453  16.648   4.198
96778W        W58441  36.447  43.443   1.896
96779W        W58442  29.561  37.001   1.904
96780W        W58443  27.098  40.007   2.766
96781W        W58444  41.500   4.937  13.989
96782W        W58445  22.583  21.202  14.016
96783W        W58446   1.374  36.871  14.879
96784W        W58447  33.586  17.584   5.300
96785W        W58448   9.736  24.652  13.470
96786W        W58449  39.540   0.420   3.767
96787W        W58450  12.809  24.122  11.394
96788W        W58451  42.847  44.335   2.729
96789W        W58452  19.268  34.897  12.087
96790W        W58453  35.363  34.438   2.807
96791W        W58454  25.527  15.598   2.765
96792W        W58455   7.348  44.888  14.934
96793W        W58456  31.135   7.776  10.524
96794W        W58457  35.952  35.582   3.829
96795W        W58458  22.509  25.614   2.788
96796W        W58459   5.807   3.835   2.306
96797W        W58460  26.200   9.381  11.091
96798W        W58461  22.182  20.645  14.830
96799W        W58462   6.854   8.278  12.539
96800W        W58463  22.047  33.446   4.348
96801W        W58464  43.482  11.342   3.180
96802W        W58465  31.121  34.937   3.183
96803W        W58466   0.370  41.415   3.151
96804W        W58467   8.257  10.874   9.469
96805W        W58468   0.935  35.070  11.889
96806W        W58469  44.326  25.581  11.492
96807W        W58470  38.445  12.348   3.164
96808W        W58471  41.327  16.681   1.414
96809W        W58472   1.747   9.263  11.504
96810W        W58473  36.997   3.218   3.868
96811W        W58474  33.066  38.936   3.282
96812W        W58475  36.007  18.064  12.929
96813W        W58476  23.197  26.665   0.316
96814W        W58477  20.628  38.468   3.754
96815W        W58478  38.990  35.905   1.832
96816W        W58479  31.642  26.034  12.553
96817W        W58480  19.643  27.084  11.053
96818W        W58481  22.251  32.134  12.917
96819W        W58482  32.988  36.062   0.949
96820W        W58483  37.864  23.556   5.306
96821W        W58484  28.061  21.731  14.937
96822W        W58485  26.117   7.266  14.952
96823W        W58486   8.301  12.623  14.946
96824W        W58487  38.884  14.630   2.793
96825W        W58488  28.154  22.659  10.116
96826W        W58489   2.799  15.206   0.247
96827W        W58490  36.495  18.155  11.427
96828W        W58491   9.268  15.780   3.299
96829W        W58492  24.674  43.353   0.281
96830W        W58493  43.469  30.517   1.239
96831W        W58494  15.767  23.103  13.950
96832W        W58495  29.046   7.684  12.480
96833W        W58496  36.894  37.369  11.458
96834W        W58497  26.136   0.459   0.746
96835W        W58498  27.191  35.433   4.125
96836W        W58499  14.244  30.140   3.728
96837W        W58500  35.959   5.219   3.344
96838W        W58501  13.630  40.365   4.678
96839W        W58502  43.373  41.889   0.321
96840W        W58503   0.412   0.856   1.887
96841W        W58504  23.581  11.832  13.954
96842W        W58505  41.953   8.662   3.292
96843W        W58506   9.393  41.962  10.607
96844W        W58507  24.230  17.751  14.801
96845W        W58508  11.264  11.748  14.309
96846W        W58509   9.387  28.124  10.504
96847W        W58510   4.234   4.735  12.934
96848W        W58511  30.550  30.639   4.603
96849W        W58512   5.900  24.599  11.394
96850W        W58513   1.344  25.175  14.825
96851W        W58514   0.968  38.429   2.743
96852W        W58515  41.369  27.467   2.822
96853W        W58516  36.548  44.928   3.165
96854W        W58517  39.512  42.492  12.512
96855W        W58518   5.734  17.131  10.977
96856W        W58519  28.453  40.014  11.421
96857W        W58520  20.124  16.094   3.262
96858W        W58521   9.841  36.879   0.780
96859W        W58522  34.406   4.263  12.989
96860W        W58523  10.784  35.453  13.049
96861W        W58524   0.290  13.280   0.282
96862W        W58525  20.128   3.801  14.305
96863W        W58526  26.700  38.399   1.845
96864W        W58527  38.942   5.754   1.869
96865W        W58528   2.930  42.479   0.422
96866W        W58529  10.745  38.856   4.242
96867W        W58530  17.133   8.281  10.922
96868W        W58531  42.458  13.668  14.320
96869W        W58532  37.458  35.964   4.720
96870W        W58533   1.446  35.868  12.482
96871W        W58534  11.738  42.404   4.335
96872W        W58535  21.111  22.621  13.526
96873W        W58536  18.171  17.114  11.589
96874W        W58537  22.099  21.053  10.991
96875W        W58538  32.513  14.756   1.704
96876W        W58539   0.809  34.525   2.340
96877W        W58540  21.258  17.079   0.393
96878W        W58541  19.256  23.155   2.255
96879W        W58542  19.264  17.072   3.244
96880W        W58543  14.299  18.166  14.967
96881W        W58544  17.631  14.114  11.572
96882W        W58545  19.146  41.912  10.904
96883W        W58546  18.050  32.445   4.792
96884W        W58547  36.877  30.490   2.664
96885W        W58548   5.710  19.234  14.279
96886W        W58549  38.337  24.171  13.545
96887W        W58550   3.882  27.091   2.824
96888W        W58551  12.198   4.234  12.345
96889W        W58552  17.643  43.382  10.621
96890W        W58553  31.941  35.100  12.911
96891W        W58554  27.030  26.195   9.455
96892W        W58555   2.311  35.082   1.794
96893W        W58556  19.645  10.768   3.284
96894W        W58557   9.234  41.865   2.315
96895W        W58558  42.473   3.258  14.462
96896W        W58559   1.326  41.955  12.580
96897W        W58560  18.099  29.022   4.321
96898W        W58561   6.252   5.931   9.980
96899W        W58562  23.719  17.161  13.527
96900W        W58563  37.543  37.912  13.999
96901W        W58564   6.193   8.795   2.677
96902W        W58565  21.100  12.127  11.426
96903W        W58566  39.843  11.306  13.829
96904W        W58567  40.032  14.665  13.379
96905W        W58568  30.533  32.042   3.264
96906W        W58569  43.802   5.344  11.472
96907W        W58570  41.833  34.535   5.158
96908W        W58571  25.991  44.411   0.751
96909W        W58572   2.458  21.218  13.968
96910W        W58573  37.912  32.040  13.999
96911W        W58574   6.258  29.078  12.052
96912W        W58575  29.073  10.749  14.362
96913W        W58576  16.733  33.052  11.519
96914W        W58577   5.879   4.722   2.700
96915W        W58578   6.879  36.969   3.319
96916W        W58579  23.119   0.981  13.307
96917W        W58580  44.302   2.937   3.669
96918W        W58581  35.599  25.202  10.628
96919W        W58582  22.080  43.303  12.823
96920W        W58583  44.358  36.025  12.985
96921W        W58584   3.859  33.947   1.419
96922W        W58585   9.877   8.850  14.856
96923W        W58586  23.087  25.681   0.927
96924W        W58587  22.693  39.907   1.227
96925W        W58588  39.507  31.012   3.186
96926W        W58589  10.227   9.283  11.508
96927W        W58590  18.759  43.779  13.367
96928W        W58591   8.727  32.984  10.073
96929W        W58592  34.065  17.795   2.375
96930W        W58593  16.606  40.346  11.079
96931W        W58594  24.511   8.811   0.248
96932W        W58595  14.161  31.957   0.911
96933W        W58596  44.941   3.819  13.016
96934W        W58597  37.369  14.155  14.407
96935W        W58598  38.054  39.548  12.472
96936W        W58599  18.118  25.678   1.813
96937W        W58600  21.533  44.762   4.164
96938W        W58601  30.098  40.362   4.618
96939W        W58602   2.905  20.191  13.424
96940W        W58603  36.510  19.258   2.748
96941W        W58604   5.199   9.330  13.408
96942W        W58605  40.837  19.270   0.451
96943W        W58606  32.569  26.567   2.402
96944W        W58607  26.523   9.363   3.679
96945W        W58608  25.003  13.319   2.754
96946W        W58609   9.861  33.952  14.983
96947W        W58610   5.834  14.775   2.879
96948W        W58611  35.935  30.525  13.386
96949W        W58612   2.728  38.848  12.390
96950W        W58613   9.855  38.041  12.047
96951W        W58614  30.545  27.548   2.768
96952W        W58615  26.046  12.742   4.659
96953W        W58616  30.537  19.680  12.841
96954W        W58617  43.858  40.471  12.961
96955W        W58618  38.024  28.012  14.471
96956W        W58619  29.164   6.428  13.518
96957W        W58620  38.391  22.654   3.750
96958W        W58621  20.723  33.555  12.509
96959W        W58622  14.318  27.960   2.758
96960W        W58623  38.054  22.125  10.491
96961W        W58624  19.107  11.301  12.946
96962W        W58625  27.684   9.885  10.550
96963W        W58626  14.612  30.049  10.514
96964W        W58627   4.218  29.423  14.318
96965W        W58628  12.640  40.008   4.731
96966W        W58629  12.126  16.635  13.877
96967W        W58630  31.641   6.380  10.589
96968W        W58631   8.827  10.360   5.284
96969W        W58632  36.488  30.981  11.602
96970W        W58633  38.380   2.789   2.738
96971W        W58634  27.611  21.697  14.438
96972W        W58635   4.267  37.403   3.734
96973W        W58636  24.217   7.777  12.048
96974W        W58637   7.716  40.414   3.378
96975W        W58638  33.072  35.077  14.473
96976W        W58639  30.111  41.485  12.901
96977W        W58640  34.450   3.461   1.909
96978W        W58641  26.519  36.584   2.275
96979W        W58642  26.542  22.073  13.058
96980W        W58643   4.364  17.069  13.808
96981W        W58644  33.587  29.081  13.520
96982W        W58645  32.610   5.792  13.904
96983W        W58646  30.449  12.621  11.882
96984W        W58647  27.569  23.137  14.912
96985W        W58648  36.075   8.777  13.366
96986W        W58649  14.295  34.448   1.210
96987W        W58650  44.849  24.616  13.435
96988W        W58651  28.184  11.729  13.347
96989W        W58652  23.513  33.379   0.330
96990W        W58653   8.876  11.646  14.371
96991W        W58654  40.437  42.822   2.305
96992W        W58655  41.491  38.367   0.412
96993W        W58656  10.322  31.451  11.092
96994W        W58657  12.163  11.784   1.287
96995W        W58658  37.071  19.177  11.120
96996W        W58659   8.217  10.264  11.414
96997W        W58660  29.166  41.863  12.573
96998W        W58661  10.814   2.872   3.717
96999W        W58662   7.227   4.783   0.325
97000W        W58663   8.736  10.177   0.450
97001W        W58664  29.530  44.955   3.741
97002W        W58665  24.707  14.186   4.339
97003W        W58666   5.198   6.789   1.392
97004W        W58667  42.487   2.447  12.876
97005W        W58668  12.313   0.854  14.853
97006W        W58669  30.613  40.438  14.838
97007W        W58670   9.874   0.749  12.868
97008W        W58671  28.010  26.142   1.744
97009W        W58672  32.047  39.485   3.868
97010W        W58673   2.232  26.690  12.004
97011W        W58674  21.591  27.163   5.670
97012W        W58675  12.795  12.283   4.769
97013W        W58676  13.157  20.194  12.846
97014W        W58677  30.968  33.899   0.931
97015W        W58678  36.506  43.374   0.817
97016W        W58679  44.406  21.726   2.847
97017W        W58680  20.642  30.655  11.084
97018W        W58681  30.031  11.866   4.121
97019W        W58682  20.031  37.545   3.690
97020W        W58683   2.268  27.487  10.561
97021W        W58684  15.636  23.111   4.114
97022W        W58685  24.980  15.205   3.331
97023W        W58686  14.696  29.025  13.940
97024W        W58687  30.004  12.304   4.340
97025W        W58688  20.213   2.730   3.684
97026W        W58689  36.410   2.301  14.434
97027W        W58690  16.180  23.586  14.435
97028W        W58691  32.039   3.441   0.320
97029W        W58692  21.727  11.256   1.852
97030W        W58693  14.728  36.507  11.558
97031W        W58694   6.833  10.729   4.757
97032W        W58695   3.824  13.688   4.290
97033W        W58696  40.442  36.012   4.327
97034W        W58697  42.446  13.794   0.474
97035W        W58698   3.745  23.139   4.618
97036W        W58699  18.737  21.129   2.794
97037W        W58700  11.130  35.949  10.154
97038W        W58701  10.700  15.675  13.427
97039W        W58702  41.988  12.273  14.348
97040W        W58703  17.279  44.978   0.274
97041W        W58704  40.438  20.184   0.313
97042W        W58705  12.118  22.109   4.798
97043W        W58706  23.615  43.371  12.991
97044W        W58707  44.981  17.170   0.305
97045W        W58708  31.593  30.928  11.404
97046W        W58709  33.513  21.629   0.265
97047W        W58710   2.437  17.223   4.127
97048W        W58711  22.610  10.725  10.487
97049W        W58712  28.673  11.155   4.207
97050W        W58713  27.689  42.429   2.390
97051W        W58714   1.906  18.274  10.514
97052W        W58715   4.807   3.434  12.850
97053W        W58716  34.440  21.136   1.439
97054W        W58717  17.134   2.459  13.537
97055W        W58718  36.432  36.987   2.237
97056W        W58719  31.121  18.093   0.342
97057W        W58720  23.029   7.377   1.392
97058W        W58721  15.102   1.816  12.867
97059W        W58722  42.519  11.831  12.386
97060W        W58723   7.338  39.451  11.888
97061W        W58724  10.152   4.419  13.805
97062W        W58725  34.023  16.314   3.788
97063W        W58726  27.663   6.697  14.476
97064W        W58727  21.056  25.967   1.318
97065W        W58728  41.478  37.958  12.836
97066W        W58729  15.191  11.667  11.127
97067W        W58730  35.449  13.707  12.476
97068W        W58731  12.345  21.060   0.965
97069W        W58732  27.594  34.863   3.297
97070W        W58733  19.779  36.083  12.874
97071W        W58734   2.277   8.753   4.228
97072W        W58735  16.128   0.841   2.827
97073W        W58736  28.037  29.157  14.799
97074W        W58737   8.224   2.815  12.836
97075W        W58738   0.888  31.919  12.562
97076W        W58739  27.018  28.582   2.708
97077W        W58740  21.048   6.881   2.195
97078W        W58741   9.227  14.738   0.303
97079W        W58742  37.974   8.680  10.420
97080W        W58743  33.956  21.198   1.887
97081W        W58744  35.863  33.475  11.968
97082W        W58745  25.626   2.957  13.867
97083W        W58746   3.312  34.382  10.896
97084W        W58747  21.583  35.104  12.543
97085W        W58748   2.743   3.341   3.655
97086W        W58749  14.313  37.558  13.943
97087W        W58750  19.276  31.507   3.309
97088W        W58751  33.126   0.892  11.484
97089W        W58752  43.281  21.730   4.332
97090W        W58753  31.436  26.639  14.330
97091W        W58754  40.812  17.764  14.881
97092W        W58755  19.551  18.275  13.364
97093W        W58756  23.071  29.110   4.756
97094W        W58757  31.062  23.694   4.746
97095W        W58758  39.398   7.908   1.305
97096W        W58759  16.293  42.506  12.011
97097W        W58760   6.265  34.052   3.811
97098W        W58761   5.917  31.116  14.410
97099W        W58762  19.235  36.444   1.709
97100W        W58763  31.406   3.354  12.015
97101W        W58764  27.137  25.612  11.862
97102W        W58765   4.850  41.001   1.450
97103W        W58766  24.635   8.369  13.931
97104W        W58767  37.470  33.003   3.696
97105W        W58768  18.776   9.176  10.483
97106W        W58769  21.749  25.207  12.548
97107W        W58770  28.503  17.116  10.469
97108W        W58771   0.304  31.419   4.271
97109W        W58772  29.605  22.081   3.743
97110W        W58773   0.924  20.618  13.489
97111W        W58774  20.062  20.573  13.998
97112W        W58775  17.259  13.253  11.515
97113W        W58776  22.632  24.530   4.726
97114W        W58777  10.138  21.200   0.412
97115W        W58778  10.215  22.161   1.698
97116W        W58779   0.957  21.523   2.833
97117W        W58780  14.184   5.761  14.375
97118W        W58781   7.293   2.379   1.808
97119W        W58782  44.490  16.142   0.873
97120W        W58783  30.448   6.904  13.336
97121W        W58784  24.174  33.001   1.809
97122W        W58785   8.785  33.995   0.883
97123W        W58786  17.581  21.590   1.765
97124W        W58787  34.907  34.580   2.773
97125W        W58788  23.718  40.454  12.927
97126W        W58789  40.978  29.653  10.961
97127W        W58790  16.271   4.904   9.977
97128W        W58791  40.004  28.178  14.845
97129W        W58792   9.805  32.636   1.711
97130W        W58793  34.414   8.266   5.181
97131W        W58794  26.208  24.001  14.950
97132W        W58795  43.426  25.682  10.460
97133W        W58796   6.915  18.587   1.891
97134W        W58797   1.736   7.707  12.466
97135W        W58798   7.347   9.344  14.387
97136W        W58799  10.728   6.394   2.885
97137W        W58800  19.226  44.387   3.861
97138W        W58801  28.130  27.517  12.902
97139W        W58802  11.735  14.740   3.722
97140W        W58803  25.128  28.661  12.550
97141W        W58804  33.447  37.514   2.878
97142W        W58805  12.155  22.650  10.483
97143W        W58806  12.731   9.218   4.170
97144W        W58807  40.530   7.689  13.465
97145W        W58808  33.447  30.131   3.652
97146W        W58809   6.893   3.797  10.583
97147W        W58810  18.555  24.540   4.321
97148W        W58811  39.476  24.208   4.206
97149W        W58812  26.493  15.693   1.758
97150W        W58813  34.408  33.523  13.436
97151W        W58814  39.008  10.654   4.205
97152W        W58815  43.420   0.426   2.297
97153W        W58816  11.180  12.783  10.994
97154W        W58817  26.594  16.612  14.424
97155W        W58818   1.883  21.084   2.274
97156W        W58819  13.229  32.396  12.079
97157W        W58820   8.175   9.167   0.876
97158W        W58821   1.330  24.033   0.821
97159W        W58822  39.975  31.436  14.504
97160W        W58823  17.737  26.555   0.276
97161W        W58824  39.497  29.467  14.015
97162W        W58825  25.542  16.187   3.225
97163W        W58826  28.186  44.315   4.120
97164W        W58827  16.670  34.954  12.578
97165W        W58828  26.695  18.187   0.853
97166W        W58829  44.499   1.747  10.452
97167W        W58830  43.904  11.138  11.986
97168W        W58831  19.662   3.375   2.187
97169W        W58832   5.905   6.248   1.341
97170W        W58833   1.257  20.734   2.894
97171W        W58834  44.478  42.391  13.807
97172W        W58835  37.553  34.381  13.933
97173W        W58836  35.974  20.252   4.178
97174W        W58837  15.321  14.652   3.268
97175W        W58838  14.806  41.398  12.062
97176W        W58839  14.740  14.169  14.429
97177W        W58840   5.412  13.640   4.142
97178W        W58841   1.425  26.643  10.579
97179W        W58842  29.967  20.681  14.791
97180W        W58843   8.900   9.855   4.131
97181W        W58844  35.493   2.735   1.269
97182W        W58845   7.725  42.288   0.323
97183W        W58846   5.819  33.482   0.851
97184W        W58847  36.090   6.342   1.404
97185W        W58848  26.163  43.946  13.384
97186W        W58849  31.495   7.307   4.705
97187W        W58850  33.925  38.841   1.802
97188W        W58851  38.352  31.132   0.248
97189W        W58852   0.339  22.036  11.916
97190W        W58853   5.784  34.509   0.819
97191W        W58854  31.146  44.386   1.233
97192W        W58855  28.566  20.568   2.796
97193W        W58856  24.504   6.772  13.537
97194W        W58857   4.787  10.796  14.014
97195W        W58858  32.477  31.914   2.838
97196W        W58859  14.197  39.013   3.870
97197W        W58860   0.491  16.243  13.873
97198W        W58861  30.097  41.358  11.013
97199W        W58862  36.958  35.901  12.974
97200W        W58863  34.371   2.365  13.913
97201W        W58864  14.672  16.151  13.463
97202W        W58865   3.718  24.106   3.760
97203W        W58866  24.504  39.976   9.581
97204W        W58867   9.165  26.996  12.472
97205W        W58868  27.976  17.222   2.340
97206W        W58869   5.300  12.633   0.815
97207W        W58870   0.931  19.117   4.304
97208W        W58871  43.375   0.381  12.981
97209W        W58872  11.296   4.203   3.215
97210W        W58873   6.823  44.277  12.981
97211W        W58874  21.676  29.466  12.451
97212W        W58875  30.533  40.422  13.039
97213W        W58876   7.883  38.359  11.435
97214W        W58877   7.766  42.294   4.727
97215W        W58878  24.552  10.376   2.729
97216W        W58879  40.302  20.658   3.305
97217W        W58880  28.439  17.745   4.265
97218W        W58881  28.541  42.462   1.413
97219W        W58882  13.161  29.424   5.226
97220W        W58883  17.203  29.525   2.864
97221W        W58884  41.354   5.696  12.529
97222W        W58885  11.814   4.783   0.869
97223W        W58886  28.679  37.988  11.064
97224W        W58887  16.768   2.371  14.354
97225W        W58888  23.687  32.140  10.003
97226W        W58889   7.362  21.657   1.760
97227W        W58890  20.590  41.798  13.394
97228W        W58891   2.469  11.669  13.937
97229W        W58892  43.332  36.440  12.864
97230W        W58893  24.494  22.249  12.848
97231W        W58894  40.997  39.316   1.734
97232W        W58895  29.655   5.793  14.923
97233W        W58896   4.868   9.715   2.789
97234W        W58897  44.389  39.942  10.436
97235W        W58898  23.609  29.439   0.928
97236W        W58899  35.357  22.576   4.610
97237W        W58900  25.218  23.210  14.489
97238W        W58901  14.314  32.105   2.710
97239W        W58902  12.303  27.035   0.350
97240W        W58903  20.577   9.644   3.255
97241W        W58904  23.003  22.234  11.082
97242W        W58905  21.066  21.049  12.869
97243W        W58906   4.426  37.528   9.969
97244W        W58907  33.919  20.059   2.667
97245W        W58908  29.158   1.385  13.982
97246W        W58909  37.032  43.855   1.303
97247W        W58910  24.173  42.319  11.375
97248W        W58911  43.000  19.155   4.733
97249W        W58912  21.650  20.131   2.205
97250W        W58913  23.107   0.796  14.364
97251W        W58914   2.466  15.715   4.220
97252W        W58915  11.653  12.714  10.013
97253W        W58916  17.180  25.980   3.308
97254W        W58917  30.946  17.226   4.163
97255W        W58918  39.387  43.375   2.191
97256W        W58919  11.641  34.017  11.594
97257W        W58920  14.713  19.159   3.672
97258W        W58921  11.635   8.667  11.461
97259W        W58922  34.911  42.391   2.257
97260W        W58923   7.305  27.027   0.367
97261W        W58924  40.509  18.608  12.053
97262W        W58925  38.398  15.196   3.639
97263W        W58926  16.647  39.330  12.078
97264W        W58927  13.683  14.831   2.271
97265W        W58928  15.578  38.379   3.679
97266W        W58929  43.897   6.381   4.286
97267W        W58930   6.687  27.451   4.751
97268W        W58931  17.188  40.954  11.120
97269W        W58932   9.389  15.184   2.205
97270W        W58933  26.999  42.499   1.820
97271W        W58934  23.016  36.497   4.122
97272W        W58935   8.379  26.598   0.846
97273W        W58936  26.167   3.714   0.762
97274W        W58937  38.472  28.481   1.779
97275W        W58938   6.801  40.034   2.335
97276W        W58939  12.126  32.964   2.260
97277W        W58940  11.827  13.342   2.376
97278W        W58941  37.361   9.343   1.797
97279W        W58942   3.887   2.850   1.852
97280W        W58943  12.207   6.386   3.718
97281W        W58944  43.894  21.184  11.901
97282W        W58945  30.927  18.645   2.255
97283W        W58946  32.136  44.768   3.246
97284W        W58947  11.806  21.646   1.358
97285W        W58948  21.187  28.161  12.476
97286W        W58949   4.412  21.618  10.642
97287W        W58950  12.755  33.469  10.611
97288W        W58951  43.823   7.780   3.156
97289W        W58952  34.398  30.983   2.241
97290W        W58953  30.535  38.526  11.118
97291W        W58954  22.593  32.076  13.899
97292W        W58955  40.473  37.413  10.053
97293W        W58956  16.099  37.015   1.263
97294W        W58957  12.313  41.525   3.337
97295W        W58958   8.697  23.708   2.217
97296W        W58959   4.441  19.680  10.605
97297W        W58960  20.529   4.719  14.967
97298W        W58961  42.518   6.789   1.336
97299W        W58962   3.404   4.728   3.652
97300W        W58963   8.761  12.678   2.245
97301W        W58964  20.614   7.349   3.167
97302W        W58965  21.541  24.196   4.652
97303W        W58966  21.198  11.361  13.985
97304W        W58967  28.044  28.099  14.005
97305W        W58968  20.083   5.822  10.481
97306W        W58969  14.788   9.341   0.409
97307W        W58970   1.917  18.609   1.697
97308W        W58971  36.500  20.638  11.860
97309W        W58972  13.223  30.562  10.895
97310W        W58973  25.655  29.077   3.359
97311W        W58974  35.862  22.106   3.779
97312W        W58975   7.774  14.774  14.422
97313W        W58976  31.567  18.252   1.896
97314W        W58977  34.597  37.024   2.406
97315W        W58978  27.524  29.503   4.264
97316W        W58979  29.504  10.740  13.879
97317W        W58980  18.625  32.023  12.991
97318W        W58981  32.885  42.384  12.942
97319W        W58982   4.403  40.878  10.408
97320W        W58983  12.757  32.030   3.728
97321W        W58984  38.368  12.675   2.381
97322W        W58985  39.453  43.515   0.401
97323W        W58986  19.180  32.613  13.803
97324W        W58987  41.519  32.583   2.309
97325W        W58988  22.722   4.266  14.882
97326W        W58989  37.063  17.572  11.406
97327W        W58990  18.107   3.863   0.342
97328W        W58991  12.251  30.591  11.413
97329W        W58992  11.868  41.913   2.225
97330W        W58993   7.732  22.048  12.845
97331W        W58994  19.073   4.899   1.442
97332W        W58995   0.249  34.922  10.488
97333W        W58996  17.719   2.456   3.657
97334W        W58997   1.319  44.994   1.736
97335W        W58998  40.509  26.520   3.642
97336W        W58999  23.199   2.943  14.807
97337W        W59000  40.350  34.034   0.738
97338W        W59001   2.856   5.714   3.792
97339W        W59002  34.050   5.352   2.787
97340W        W59003  11.241  29.592   2.824
97341W        W59004   7.252  28.940  14.885
97342W        W59005  42.797   8.260  13.511
97343W        W59006   1.749  17.560  13.477
97344W        W59007  34.103   8.821  13.354
97345W        W59008   0.287  32.503   3.845
97346W        W59009   3.943  21.074   5.296
97347W        W59010   3.820   1.969   4.135
97348W        W59011   2.466  27.941  13.487
97349W        W59012  18.626  25.054   2.268
97350W        W59013  28.945  32.956   1.310
97351W        W59014  12.172  11.744  11.521
97352W        W59015  31.465  34.084   0.480
97353W        W59016   5.343  11.657   3.313
97354W        W59017   5.361  11.845  12.843
97355W        W59018   4.794  19.082   0.913
97356W        W59019  43.477  34.931  10.999
97357W        W59020  42.988  19.065  12.529
97358W        W59021  11.676  40.547   4.827
97359W        W59022   4.857  33.553   3.725
97360W        W59023   8.347   2.750   0.418
97361W        W59024   2.797  31.438   2.831
97362W        W59025  33.619  38.000   2.767
97363W        W59026   2.727   1.371  11.958
97364W        W59027  18.613  33.044   4.292
97365W        W59028  36.387  11.309   0.348
97366W        W59029  36.956   5.437   4.147
97367W        W59030   9.665  33.959   4.329
97368W        W59031  38.060  22.680   4.612
97369W        W59032  19.601  39.932   1.931
97370W        W59033  18.278  11.678   2.798
97371W        W59034  26.951  12.814  14.953
97372W        W59035  25.147   7.171   2.250
97373W        W59036   2.963  42.927  14.388
97374W        W59037   4.227  33.944  12.355
97375W        W59038  12.765  35.476  14.800
97376W        W59039  18.194  18.102   0.302
97377W        W59040  15.805   1.294  14.367
97378W        W59041  35.036  29.440   2.225
97379W        W59042  10.837   1.961  13.058
97380W        W59043   6.330   2.955   3.332
97381W        W59044   1.447  35.009  14.769
97382W        W59045   2.750   1.802   0.346
97383W        W59046  27.608  16.673  14.903
97384W        W59047   2.770  28.173   1.371
97385W        W59048  36.453  12.288  13.363
97386W        W59049  43.504  32.140  10.907
97387W        W59050   3.709   0.383   2.355
97388W        W59051   5.842   3.394  10.617
97389W        W59052  44.873  25.157   4.328
97390W        W59053  23.723  33.982  12.435
97391W        W59054  37.070   0.430  13.374
97392W        W59055  37.392  29.616  14.411
97393W        W59056   0.469  40.884   1.354
97394W        W59057  35.383   6.749  14.516
97395W        W59058  37.027   9.833   0.774
97396W        W59059   9.679  36.368   3.700
97397W        W59060  22.188  20.735  11.059
97398W        W59061  24.478  31.104  14.294
97399W        W59062  13.264  33.571  12.515
97400W        W59063  42.847  41.499   2.801
97401W        W59064  14.162  17.284   0.372
97402W        W59065  33.119  33.602   2.856
97403W        W59066   2.468   7.895   3.746
97404W        W59067   2.248  30.027   0.269
97405W        W59068  21.245  26.497   3.230
97406W        W59069  13.179  32.071  10.000
97407W        W59070  38.847   4.444   1.305
97408W        W59071  43.477  14.276   1.722
97409W        W59072  29.081   4.239   1.783
97410W        W59073  44.852   3.867   1.739
97411W        W59074  12.795  28.582   2.219
97412W        W59075  23.034  12.615  12.859
97413W        W59076  13.684  42.423  11.414
97414W        W59077  25.021  21.056  12.416
97415W        W59078  44.919  27.595  13.946
97416W        W59079   0.412  29.058   1.821
97417W        W59080  44.780  18.197  12.382
97418W        W59081   1.483  36.504  12.070
97419W        W59082  43.933  24.543  11.003
97420W        W59083  10.330   4.302   2.884
97421W        W59084  30.070   7.799   0.897
97422W        W59085  14.643  30.112  12.504
97423W        W59086  26.555  24.574  13.970
97424W        W59087  20.259  44.369  10.925
97425W        W59088  14.259  20.701   0.913
97426W        W59089  31.597  39.496  13.956
97427W        W59090   3.903  36.568   3.677
97428W        W59091  37.854  43.978   0.397
97429W        W59092  13.704  29.483   1.859
97430W        W59093  17.116  32.505  10.905
97431W        W59094  31.513  19.638  14.509
97432W        W59095   8.662   1.895   1.859
97433W        W59096  30.643  18.672   9.944
97434W        W59097  21.744  35.989   3.717
97435W        W59098   6.285   8.737   0.415
97436W        W59099  37.503  11.259   1.388
97437W        W59100  18.710  13.155   4.131
97438W        W59101   8.687   1.800  12.438
97439W        W59102  37.866   2.913  11.461
97440W        W59103   0.355   4.332  12.051
97441W        W59104  38.480  24.185   4.270
97442W        W59105  15.609  25.664   3.274
97443W        W59106   1.967  39.363   2.257
97444W        W59107  31.931  18.101  14.844
97445W        W59108   6.267  34.917  14.871
97446W        W59109  25.485  44.835  11.873
97447W        W59110  13.606  24.661  13.906
97448W        W59111   2.302  16.239   0.901
97449W        W59112  35.563   7.256  12.867
97450W        W59113  39.462   8.243   2.369
97451W        W59114  28.059  14.750  10.904
97452W        W59115  21.231  18.664   0.353
97453W        W59116  37.084  28.013   3.774
97454W        W59117   0.968  25.702   2.287
97455W        W59118   0.339  37.491   0.345
97456W        W59119  30.924  23.610  10.921
97457W        W59120  26.008   3.245   5.255
97458W        W59121  33.884  10.142  13.983
97459W        W59122  34.385  19.277  10.479
97460W        W59123  37.889   1.469  13.400
97461W        W59124  13.160  35.949   1.921
97462W        W59125  28.045  16.796   1.712
97463W        W59126  38.863  35.507  12.469
97464W        W59127   5.380  24.520  12.071
97465W        W59128   6.233  41.983  12.944
97466W        W59129  10.714   6.197   4.122
97467W        W59130  38.897  39.002   1.796
97468W        W59131  21.203  22.228  10.573
97469W        W59132   8.196  29.948   3.764
97470W        W59133   1.752  11.273   3.310
97471W        W59134  38.550  35.095  11.496
97472W        W59135  29.570  28.044  13.980
97473W        W59136  20.201  40.981  13.877
97474W        W59137  12.328  11.861  12.552
97475W        W59138  25.612  27.477   0.323
97476W        W59139  41.024   4.251   2.399
97477W        W59140  27.079  12.310   2.372
97478W        W59141  36.095  31.143   1.239
97479W        W59142  10.168  19.599   0.434
97480W        W59143  23.642  42.328   0.299
97481W        W59144  34.112  29.592  13.363
97482W        W59145  23.067  21.647   3.662
97483W        W59146  40.528  18.115  12.454
97484W        W59147   4.256  36.392  14.377
97485W        W59148  34.885  26.541   0.305
97486W        W59149  13.276  25.535  14.313
97487W        W59150  23.168  34.885   2.329
97488W        W59151  11.622  29.627  11.905
97489W        W59152  43.508   6.687   1.271
97490W        W59153  10.676   4.925   3.719
97491W        W59154  22.720  18.262  11.506
97492W        W59155  10.807  21.750   4.338
97493W        W59156  36.927   8.246  13.403
97494W        W59157  10.379  19.657   0.750
97495W        W59158  15.770  42.864  12.079
97496W        W59159   5.781   1.877   0.312
97497W        W59160  37.923   8.837  13.535
97498W        W59161  28.986  29.101   1.741
97499W        W59162  40.374  18.126  10.110
97500W        W59163   1.401  10.764   4.180
97501W        W59164  41.296  29.101   4.119
97502W        W59165  13.322   8.873  14.490
97503W        W59166  36.573  43.872   4.756
97504W        W59167  14.688  31.974   1.838
97505W        W59168  14.232  17.735  12.919
97506W        W59169   5.918   7.352   4.295
97507W        W59170   4.222  18.620  11.004
97508W        W59171   1.864   9.349   4.724
97509W        W59172   1.821  32.983  12.401
97510W        W59173  36.591  12.343  14.326
97511W        W59174  14.663  25.640   3.321
97512W        W59175  10.371  13.181   5.284
97513W        W59176   7.371  17.101  11.922
97514W        W59177  25.584   9.787  14.296
97515W        W59178  36.908   6.190   4.304
97516W        W59179   3.368  30.068   4.325
97517W        W59180  11.788  41.377  11.569
97518W        W59181  10.275  27.956   0.840
97519W        W59182  12.737  35.389   2.681
97520W        W59183  29.129   9.193  10.593
97521W        W59184   8.368  15.750  11.940
97522W        W59185  32.623  12.699   2.275
97523W        W59186  30.551  37.508  14.928
97524W        W59187  43.982  20.579   1.272
97525W        W59188  20.627  33.124  11.038
97526W        W59189  29.104  17.789  14.812
97527W        W59190  32.912  38.487   3.376
97528W        W59191   8.856  35.549   2.856
97529W        W59192   3.779  10.202   2.816
97530W        W59193   3.844  14.798   4.321
97531W        W59194  43.325   1.455  11.877
97532W        W59195  40.334  36.522  11.446
97533W        W59196  24.067  15.297   0.892
97534W        W59197  39.416  39.057  11.916
97535W        W59198   2.401  41.461   2.882
97536W        W59199  12.140  23.494  14.771
97537W        W59200  11.334  35.368  10.475
97538W        W59201   7.881  38.417   3.665
97539W        W59202  38.038  37.366  13.457
97540W        W59203  22.085  27.471   0.440
97541W        W59204  19.078   8.831  13.384
97542W        W59205  42.938   9.315  14.761
97543W        W59206  13.783  14.280  14.365
97544W        W59207  20.139   1.352   3.770
97545W        W59208   6.276  10.864  10.411
97546W        W59209  21.067  18.096  10.115
97547W        W59210  13.114  22.708   1.767
97548W        W59211  11.283  18.677  14.477
97549W        W59212   0.862  42.874  12.876
97550W        W59213  34.597   4.250   3.647
97551W        W59214  11.720   9.692   5.674
97552W        W59215  18.592  20.252  13.876
97553W        W59216   1.429  15.755   3.357
97554W        W59217  18.723  17.137   0.481
97555W        W59218  17.164   4.880   3.204
97556W        W59219  36.534  33.528  11.558
97557W        W59220  13.189  16.778   2.301
97558W        W59221  34.508  40.431  13.308
97559W        W59222  30.078   9.211  12.094
97560W        W59223  16.116  17.610  10.016
97561W        W59224   1.767  26.982  13.464
97562W        W59225  42.938  15.214   3.245
97563W        W59226  12.706  34.386  14.456
97564W        W59227  44.362  16.104   4.807
97565W        W59228   3.806  42.404  14.282
97566W        W59229  38.449   0.776  10.916
97567W        W59230  23.050   9.251   0.775
97568W        W59231  38.453  34.103  11.905
97569W        W59232  27.451  22.520  10.608
97570W        W59233  29.980   8.788   4.597
97571W        W59234   3.260  18.282   2.253
97572W        W59235   3.427  36.398  11.866
97573W        W59236  15.088  35.529  12.420
97574W        W59237  11.149  43.505  14.327
97575W        W59238  25.654  22.127   5.115
97576W        W59239   1.292  10.727  13.356
97577W        W59240  43.288   1.868  10.956
97578W        W59241   2.851  13.654   3.220
97579W        W59242  23.208  38.962  14.954
97580W        W59243  33.459  44.939  14.390
97581W        W59244  35.358  36.929   3.702
97582W        W59245  22.160  22.063  12.515
97583W        W59246  32.500   2.418   4.193
97584W        W59247  25.074  36.480  11.013
97585W        W59248  29.942  31.906   2.692
97586W        W59249  34.896  28.580  11.085
97587W        W59250  15.818  15.218  12.380
97588W        W59251  43.432  39.374  12.448
97589W        W59252  23.207  12.761  14.858
97590W        W59253  18.616  38.527   2.875
97591W        W59254  12.124  39.855  12.577
97592W        W59255  30.530  29.032   2.271
97593W        W59256  43.927  24.005   4.193
97594W        W59257  25.148  15.186  13.332
97595W        W59258  39.533  17.733  11.467
97596W        W59259  15.114  16.614   3.796
97597W        W59260   8.322  43.270  13.054
97598W        W59261  29.984   6.796   3.259
97599W        W59262  21.045   9.646  12.520
97600W        W59263  30.502  29.442   1.353
97601W        W59264  14.218  41.896  13.438
97602W        W59265  20.196  19.116   2.228
97603W        W59266  12.235   7.206   3.811
97604W        W59267  31.552  23.582  12.386
97605W        W59268  35.555  25.967  13.025
97606W        W59269   7.386   8.364   0.422
97607W        W59270  21.190  42.871   1.436
97608W        W59271  40.943   4.770   3.870
97609W        W59272  19.201   7.249  14.417
97610W        W59273  30.528  16.695   2.208
97611W        W59274  16.620   3.788   4.190
97612W        W59275   4.280  30.963  11.602
97613W        W59276  28.004  43.875  10.410
97614W        W59277  38.356  23.995  14.359
97615W        W59278  37.052   7.857   4.754
97616W        W59279  15.121  38.521   0.847
97617W        W59280  39.851  42.873  10.444
97618W        W59281  10.190  33.452   3.376
97619W        W59282   1.933  30.621   1.429
97620W        W59283  41.437  16.075  14.445
97621W        W59284   4.345   6.208   1.801
97622W        W59285  26.699  28.165   0.396
97623W        W59286  31.486  39.958  14.905
97624W        W59287  31.568  33.036  13.318
97625W        W59288  34.478  13.163   3.852
97626W        W59289  28.522   8.732   4.650
97627W        W59290  12.151  43.010  11.461
97628W        W59291  18.746   0.975  13.802
97629W        W59292  16.656  27.616  10.570
97630W        W59293  22.198  28.121   0.808
97631W        W59294  40.868  32.939  13.877
97632W        W59295  34.924   5.239  11.500
97633W        W59296  33.081  15.090  13.823
97634W        W59297  39.880  18.722   0.453
97635W        W59298  33.545  15.674  10.466
97636W        W59299  42.300  39.963   2.259
97637W        W59300  21.202  36.991   4.747
97638W        W59301  32.054   6.727  12.842
97639W        W59302  11.836  21.083   2.316
97640W        W59303  29.072   7.755   0.451
97641W        W59304  34.407  29.496  14.431
97642W        W59305  44.376   7.194  11.581
97643W        W59306  12.754  25.119  11.053
97644W        W59307  31.424  24.032   1.428
97645W        W59308  33.908   9.186  11.014
97646W        W59309  44.493  15.749  11.957
97647W        W59310   8.337   7.383  13.044
97648W        W59311  25.191   2.235  12.498
97649W        W59312   1.846  37.357  12.959
97650W        W59313  34.378  38.536   3.632
97651W        W59314  41.294  24.140   4.725
97652W        W59315  33.417  18.562   3.653
97653W        W59316   3.747  18.091   5.200
97654W        W59317   4.706  19.641  12.572
97655W        W59318  13.178  10.249  13.043
97656W        W59319   8.699  28.480  14.972
97657W        W59320   2.876  24.725  12.531
97658W        W59321  17.691  30.025  13.421
97659W        W59322   5.793  37.497  14.837
97660W        W59323  24.582  10.720   2.356
97661W        W59324   2.446  17.710  11.932
97662W        W59325  17.274   6.300  10.150
97663W        W59326   5.358   1.338  13.894
97664W        W59327  35.984  33.387  12.888
97665W        W59328   9.225  33.540   2.733
97666W        W59329  12.627  12.778   2.378
97667W        W59330  12.797  29.512  13.809
97668W        W59331  42.793  38.570  14.460
97669W        W59332  27.053  25.511   2.681
97670W        W59333  34.094  26.077   1.902
97671W        W59334  24.721  36.465  13.338
97672W        W59335   3.782  19.124   0.878
97673W        W59336  35.537  36.360   1.699
97674W        W59337   7.750   2.335   4.303
97675W        W59338  41.315  19.224  12.367
97676W        W59339  33.384  28.968  14.779
97677W        W59340   1.255   6.837  14.470
97678W        W59341  26.111  43.479   2.318
97679W        W59342  41.435  14.270  13.803
97680W        W59343  18.635  33.515  10.121
97681W        W59344  29.986  18.277   2.801
97682W        W59345   5.323   5.345  10.894
97683W        W59346   5.765  39.933  14.773
97684W        W59347  10.369   5.398  13.918
97685W        W59348   4.412  32.515  10.438
97686W        W59349  27.518   1.478  13.061
97687W        W59350  10.675  23.210  10.545
97688W        W59351  25.686  23.736   4.825
97689W        W59352  35.024   6.718   2.753
97690W        W59353  26.545  14.195   4.135
97691W        W59354  38.377  28.999  12.832
97692W        W59355  19.096   2.440  10.457
97693W        W59356  20.571  29.006   1.852
97694W        W59357  44.857  30.997   1.448
97695W        W59358  32.945   2.867   2.876
97696W        W59359  26.681   9.156  12.382
97697W        W59360  35.041  39.391   3.681
97698W        W59361  21.143  29.545  13.841
97699W        W59362  40.811  42.480  14.352
97700W        W59363   0.321   9.679  11.471
97701W        W59364  40.535   8.161  11.954
97702W        W59365   4.850  19.637  10.488
97703W        W59366  31.433  38.008   1.304
97704W        W59367  18.150  23.577  11.474
97705W        W59368   3.897  35.591   2.416
97706W        W59369  15.201  43.822   3.300
97707W        W59370  37.910   0.338  11.044
97708W        W59371  26.182   5.805  10.636
97709W        W59372  33.572  19.716   0.908
97710W        W59373  38.967   2.457   2.412
97711W        W59374   2.302  37.486  10.039
97712W        W59375   7.799  25.219  11.558
97713W        W59376  44.784   4.844  14.878
97714W        W59377  40.485  16.271   0.311
97715W        W59378  19.105  44.376  10.576
97716W        W59379  39.335  28.128   1.891
97717W        W59380  28.453  19.054   4.162
97718W        W59381  29.056  43.511   4.638
97719W        W59382  33.064  36.988   2.207
97720W        W59383  17.617  38.921   2.823
97721W        W59384  43.424  15.644   3.336
97722W        W59385  38.386  16.273   3.790
97723W        W59386   3.816   1.878   3.189
97724W        W59387  32.408  10.381   1.224
97725W        W59388  35.890  20.616   4.133
97726W        W59389   3.238  26.980  11.596
97727W        W59390  19.653  32.132   4.712
97728W        W59391   7.302  29.165   3.700
97729W        W59392  24.541  44.899  13.494
97730W        W59393  22.543  12.184  13.383
97731W        W59394   3.224  21.206  11.007
97732W        W59395  44.861  34.550  13.501
97733W        W59396  14.319  31.448  10.911
97734W        W59397  29.995  23.139  14.892
97735W        W59398   4.293  40.930  12.870
97736W        W59399  44.439  38.868   1.866
97737W        W59400  29.460  24.557   4.598
97738W        W59401   5.753  10.280  12.531
97739W        W59402  35.015   7.328   9.491
97740W        W59403  36.582  41.360  14.498
97741W        W59404  34.913  44.375  11.585
97742W        W59405  43.344  38.375  11.905
97743W        W59406  20.602  39.917   1.351
97744W        W59407  36.065   2.370  14.475
97745W        W59408  16.210  21.756  12.564
97746W        W59409  21.090   8.736  11.076
97747W        W59410  43.443  38.348   1.287
97748W        W59411  23.709  33.557   4.616
97749W        W59412   1.843  25.636   2.831
97750W        W59413   7.823  44.791   4.341
97751W        W59414  30.537  13.737  11.107
97752W        W59415  39.339   6.716   2.746
97753W        W59416  25.115  10.705  14.426
97754W        W59417  13.779  33.058   0.824
97755W        W59418  24.050  15.579  10.404
97756W        W59419  30.050  22.215   9.979
97757W        W59420  30.423  44.283  11.013
97758W        W59421  39.368  40.445  11.503
97759W        W59422   0.355  40.881   4.817
97760W        W59423  38.349  28.937   4.258
97761W        W59424   3.249  23.011   1.420
97762W        W59425  31.540  43.399   1.910
97763W        W59426   3.937   2.792   3.865
97764W        W59427  37.959  41.453  12.008
97765W        W59428  10.227   4.282   4.171
97766W        W59429  23.654   7.345  12.025
97767W        W59430  27.188  12.813  14.411
97768W        W59431  24.983  21.720  12.037
97769W        W59432   4.937  21.695   3.254
97770W        W59433  16.589  12.640  12.865
97771W        W59434  16.274  13.209   2.226
97772W        W59435  19.725  19.624  12.402
97773W        W59436  39.435  17.274   0.271
97774W        W59437  41.800  40.374  11.576
97775W        W59438   9.764  21.669   1.733
97776W        W59439  33.057  41.034  11.565
97777W        W59440  20.591   8.655   0.929
97778W        W59441  27.965  24.134  13.479
97779W        W59442  36.577  21.072   2.760
97780W        W59443  42.374  34.916   2.680
97781W        W59444   4.844  16.290   1.281
97782W        W59445  27.116  26.969   0.469
97783W        W59446   4.702  43.895  10.980
97784W        W59447   6.339  14.711  14.395
97785W        W59448  32.936  33.069   0.873
97786W        W59449  28.507  24.191   2.408
97787W        W59450   6.396  43.770   0.958
97788W        W59451  25.601  22.013  12.096
97789W        W59452  43.275  41.967   4.314
97790W        W59453  40.488  11.848  11.076
97791W        W59454  33.413  21.202  13.011
97792W        W59455   4.833  18.083   1.419
97793W        W59456   7.412   0.795   0.858
97794W        W59457  41.931  13.214   3.204
97795W        W59458  19.114  28.548  11.491
97796W        W59459  13.225  28.497  13.851
97797W        W59460   3.270  44.855  11.391
97798W        W59461  11.245  35.598   0.427
97799W        W59462  34.423  12.845   0.289
97800W        W59463  28.606  21.253   0.784
97801W        W59464  23.712   2.931  11.547
97802W        W59465   2.735  21.560  11.575
97803W        W59466  13.730  35.046   1.873
97804W        W59467  10.729   2.408  12.354
97805W        W59468  39.931  38.908   0.273
97806W        W59469   0.793   7.690   3.367
97807W        W59470  22.678   5.695   2.892
97808W        W59471  13.809  32.132   1.288
97809W        W59472  27.463  35.951   4.769
97810W        W59473   0.800  30.423   2.330
97811W        W59474  12.660  37.470  13.377
97812W        W59475  35.950   8.666  11.453
97813W        W59476  42.865  42.299   4.295
97814W        W59477   9.681  16.198   0.939
97815W        W59478  40.840   5.364   4.769
97816W        W59479  34.866  11.735   2.856
97817W        W59480  10.697  35.435   4.206
97818W        W59481  14.275   4.866   5.088
97819W        W59482  32.561   5.735   2.713
97820W        W59483  26.532  21.231   0.935
97821W        W59484  12.362  34.039   0.263
97822W        W59485  32.597   4.851   9.952
97823W        W59486  44.883  30.983  12.387
97824W        W59487  27.111  29.654   4.196
97825W        W59488  26.021   3.257  13.052
97826W        W59489  10.733   7.870  13.388
97827W        W59490  33.880  44.949   2.303
97828W        W59491   9.382  30.977   3.385
97829W        W59492  30.950  39.050  13.044
97830W        W59493  43.280  32.028   1.900
97831W        W59494  22.170  26.153  10.996
97832W        W59495  31.600  40.384   3.836
97833W        W59496  26.171   3.764  12.389
97834W        W59497  36.432   0.480  11.510
97835W        W59498   0.300  15.140   9.999
97836W        W59499  14.248  38.473  11.075
97837W        W59500  43.479  29.506  14.467
97838W        W59501  22.173  26.619  14.022
97839W        W59502  38.440   1.457  10.589
97840W        W59503  14.253  13.345   0.333
97841W        W59504   1.838   9.671  12.074
97842W        W59505  36.356  26.619  13.982
97843W        W59506  28.572  29.571   3.231
97844W        W59507  40.852  30.983   0.851
97845W        W59508  43.887  21.225  13.478
97846W        W59509   2.378  13.819  13.958
97847W        W59510  11.865  17.211   3.669
97848W        W59511   9.855  17.748   3.273
97849W        W59512  16.656  34.559  13.834
97850W        W59513  34.465  14.698   0.736
97851W        W59514  32.091  28.059  13.034
97852W        W59515  12.750  13.303  13.519
97853W        W59516  19.597   2.326  12.424
97854W        W59517  44.331   6.857  14.984
97855W        W59518  26.150  20.718   1.834
97856W        W59519  29.015  14.657   0.947
97857W        W59520  41.817  42.497  13.817
97858W        W59521  18.136  31.419  13.919
97859W        W59522  39.024  23.590  11.992
97860W        W59523  37.341   0.325   0.967
97861W        W59524  25.517  33.942   4.757
97862W        W59525  28.511  14.828   1.797
97863W        W59526  11.828  44.439  12.978
97864W        W59527  40.526  19.754   2.372
97865W        W59528  21.176   7.719  13.794
97866W        W59529  35.491  13.260  12.384
97867W        W59530   3.435  44.010  14.850
97868W        W59531  13.724  43.994   0.346
97869W        W59532  14.227  26.180   0.362
97870W        W59533  43.315  24.618   4.169
97871W        W59534  38.395   1.767  13.845
97872W        W59535   2.924  30.120  14.473
97873W        W59536  25.713  31.083   3.226
97874W        W59537  38.855  42.918  13.327
97875W        W59538  15.214   9.375  12.552
97876W        W59539  23.593  15.177   4.667
97877W        W59540   9.702  42.507   2.245
97878W        W59541  25.020   4.882   2.822
97879W        W59542  15.228  22.233   3.182
97880W        W59543  43.348  24.529   1.805
97881W        W59544  14.818  26.476   4.828
97882W        W59545  24.711  44.417  11.603
97883W        W59546  10.639   1.904   2.840
97884W        W59547   8.169  35.493   4.155
97885W        W59548  31.930  40.962  10.933
97886W        W59549   1.913  33.983   4.751
97887W        W59550  10.770  42.284   3.199
97888W        W59551  27.036  20.541   4.768
97889W        W59552  30.435  10.283   0.362
97890W        W59553  27.149  16.759  11.071
97891W        W59554  35.074  42.880   5.155
97892W        W59555  20.752  37.981  14.410
97893W        W59556   5.878  38.907  12.033
97894W        W59557  36.012  18.782  12.493
97895W        W59558  23.233  35.958  10.511
97896W        W59559   7.287   8.256  14.867
97897W        W59560  26.457  21.164   1.792
97898W        W59561   7.230  15.648   3.806
97899W        W59562  16.267  16.582  11.526
97900W        W59563  11.845  20.122   2.308
97901W        W59564  42.898   5.740   5.252
97902W        W59565  11.845  39.361  10.636
97903W        W59566   8.804  24.578  12.539
97904W        W59567  38.371  43.954   4.824
97905W        W59568  13.660  11.667  13.932
97906W        W59569  23.723  24.628  12.873
97907W        W59570  37.965  37.386   4.606
97908W        W59571  27.194  27.150   3.284
97909W        W59572   5.692   3.433  14.779
97910W        W59573  32.472  15.144   2.749
97911W        W59574   0.374  41.794  11.952
97912W        W59575  14.179  36.086  10.118
97913W        W59576  28.937  18.753   1.716
97914W        W59577  10.737  41.789  13.387
97915W        W59578  29.591   1.439   0.355
97916W        W59579   9.243  17.649   2.362
97917W        W59580  30.624   1.318  11.399
97918W        W59581  39.012  27.497  13.900
97919W        W59582  10.145  37.360  13.854
97920W        W59583  22.999   0.772   9.952
97921W        W59584   9.783  16.311  14.318
97922W        W59585  42.002  34.595  10.157
97923W        W59586  22.736   8.787   4.195
97924W        W59587   9.753  44.880  14.844
97925W        W59588  32.107   4.437   0.277
97926W        W59589  27.949   5.901  11.457
97927W        W59590  26.613   2.807  11.567
97928W        W59591  29.529  42.789   5.138
97929W        W59592   4.436  43.338   3.244
97930W        W59593  24.534  44.941  10.968
97931W        W59594   8.836  40.920  13.474
97932W        W59595  17.136  44.829  14.395
97933W        W59596   5.712  34.375   4.750
97934W        W59597  31.137  31.615   0.855
97935W        W59598  34.922   6.303   0.362
97936W        W59599  14.140   0.422  14.877
97937W        W59600  34.581   5.919   4.141
97938W        W59601  14.303  10.150  14.280
97939W        W59602   1.248  32.619  11.940
97940W        W59603  31.648  21.580   4.805
97941W        W59604  10.659  36.053  12.373
97942W        W59605  39.459   9.693  14.892
97943W        W59606  18.674   0.481   0.844
97944W        W59607  41.822  10.301  14.845
97945W        W59608  40.493  11.809   3.707
97946W        W59609  37.395  26.125   2.190
97947W        W59610  18.182  22.227  14.788
97948W        W59611  16.780  14.666   1.870
97949W        W59612  13.775  20.028  11.561
97950W        W59613   9.345  41.484  11.489
97951W        W59614  25.712  41.535  13.798
97952W        W59615   6.373   2.374  11.076
97953W        W59616   1.768  36.919   2.841
97954W        W59617  33.559  44.353   3.260
97955W        W59618  44.300  33.604  14.980
97956W        W59619   6.427  33.097  12.009
97957W        W59620   4.423   9.274   1.716
97958W        W59621   0.955  18.132  10.502
97959W        W59622   7.840  30.440   2.334
97960W        W59623  37.484  39.412  14.863
97961W        W59624  41.009  20.199  13.432
97962W        W59625   3.337  16.750  14.399
97963W        W59626  31.004  29.593  11.100
97964W        W59627  13.800  22.524  13.440
97965W        W59628  11.282  42.372   0.919
97966W        W59629  14.796  16.744  12.044
97967W        W59630  26.541  32.107  14.399
97968W        W59631   2.909  40.318   2.361
97969W        W59632  44.268  20.609  10.487
97970W        W59633  12.259   2.772   1.327
97971W        W59634  18.765  41.984   2.779
97972W        W59635   6.901  34.475  12.960
97973W        W59636  15.600   4.939   0.773
97974W        W59637  31.441  33.599  11.024
97975W        W59638  41.989  44.389  11.565
97976W        W59639   1.879  27.600   3.703
97977W        W59640  34.022  12.668  14.288
97978W        W59641  28.681  19.726  10.463
97979W        W59642  27.645   7.346  10.540
97980W        W59643  25.191  37.875   3.827
97981W        W59644  15.185  36.016   0.439
97982W        W59645  31.094   5.752   3.246
97983W        W59646  33.960  28.044  13.825
97984W        W59647  28.162   7.388  12.375
97985W        W59648  15.586  44.792   2.312
97986W        W59649  32.115  30.993   3.717
97987W        W59650  25.996  35.971  10.968
97988W        W59651  10.815  25.582   2.203
97989W        W59652  24.663   5.408  11.127
97990W        W59653  26.006  18.265   3.273
97991W        W59654  16.634  21.553  10.500
97992W        W59655  33.954  24.531   9.642
97993W        W59656  33.437  26.967   4.762
97994W        W59657  34.569  17.583  13.450
97995W        W59658   8.799  44.380   2.693
97996W        W59659  27.573  32.499  11.022
97997W        W59660   6.249   7.885  10.465
97998W        W59661  44.351  44.873   1.292
97999W        W59662  36.016  36.422   2.180
98000W        W59663   3.423  28.943  11.417
98001W        W59664   3.753  30.914  12.384
98002W        W59665   7.260  27.690   3.633
98003W        W59666   5.735  27.457   1.252
98004W        W59667  21.038   9.356   3.157
98005W        W59668  20.554  18.552   0.808
98006W        W59669  14.604  14.316   1.778
98007W        W59670   7.807  28.474  12.048
98008W        W59671  39.968  14.213  14.009
98009W        W59672  34.524  21.703  14.910
98010W        W59673  42.797  10.356   3.635
98011W        W59674  18.730  17.226   4.668
98012W        W59675   0.260  26.142  11.483
98013W        W59676  41.302  29.442   2.359
98014W        W59677  38.373   9.667  12.526
98015W        W59678   3.873   5.822  10.926
98016W        W59679  41.428  29.479  10.500
98017W        W59680  44.265  30.627  11.590
98018W        W59681  38.898  40.048  10.429
98019W        W59682  24.582  28.631  13.982
98020W        W59683  13.260  28.487  11.569
98021W        W59684   5.271  33.053   3.289
98022W        W59685  21.702  43.419  12.091
98023W        W59686  35.424   1.814   2.370
98024W        W59687  31.462  26.692   1.876
98025W        W59688  14.721  37.349   1.728
98026W        W59689   5.395  24.101   2.825
98027W        W59690  29.065  41.882  13.484
98028W        W59691  35.454   0.936  10.529
98029W        W59692  20.695  22.591   3.184
98030W        W59693   5.216   0.451   4.189
98031W        W59694  21.040   2.232   2.694
98032W        W59695  22.709  29.172  12.851
98033W        W59696   2.355  12.611   4.148
98034W        W59697  31.423   0.474   1.293
98035W        W59698  31.968  31.471  12.887
98036W        W59699  32.430   0.487   3.755
98037W        W59700   6.873  33.488   4.199
98038W        W59701   3.335   1.466   2.412
98039W        W59702  17.567  21.139   1.799
98040W        W59703  21.615   9.280   4.791
98041W        W59704  20.647  44.834   1.829
98042W        W59705  26.095  42.518  12.474
98043W        W59706  28.534   7.870   1.437
98044W        W59707  40.441  23.578  13.365
98045W        W59708  42.775   6.744   1.413
98046W        W59709  29.640   6.878  11.893
98047W        W59710  17.193  42.940   3.711
98048W        W59711  42.794   5.416   4.213
98049W        W59712  38.379  25.032  11.081
98050W        W59713  30.609   1.238  10.634
98051W        W59714  40.529  22.708   2.879
98052W        W59715  37.925  40.018   2.250
98053W        W59716   0.372  33.008  14.859
98054W        W59717  25.680  17.669  13.945
98055W        W59718  23.576  44.788   4.825
98056W        W59719  31.144   5.801  14.008
98057W        W59720   8.300  24.158  11.579
98058W        W59721  32.590   1.760  10.557
98059W        W59722   6.293  36.905  10.641
98060W        W59723  15.622   5.404   2.338
98061W        W59724  14.201  12.174  10.434
98062W        W59725  11.826   4.884   0.361
98063W        W59726  39.834  27.965   3.343
98064W        W59727  16.672  23.101  13.904
98065W        W59728  25.490  44.830   3.766
98066W        W59729  34.914  44.942   0.931
98067W        W59730  25.524  21.676  12.079
98068W        W59731   9.328   5.362   4.312
98069W        W59732  33.986  25.669  11.372
98070W        W59733  22.163  43.930  10.447
98071W        W59734  11.642  16.578  13.847
98072W        W59735  41.415  43.473   2.301
98073W        W59736  38.541  26.088   1.282
98074W        W59737  41.827   7.338  14.022
98075W        W59738   3.749  43.785   1.416
98076W        W59739   2.906   2.361  13.822
98077W        W59740  26.499  38.048  12.039
98078W        W59741  24.149  37.928  12.894
98079W        W59742   5.197  22.522   0.474
98080W        W59743  27.141  40.891  11.503
98081W        W59744   2.912  41.364  11.532
98082W        W59745  19.716  22.095  12.402
98083W        W59746  44.363  17.175   4.835
98084W        W59747   0.322  11.242   4.196
98085W        W59748  36.479  21.116   4.155
98086W        W59749  38.042  32.525   0.281
98087W        W59750   5.703  25.634  14.303
98088W        W59751  26.512  38.900   4.621
98089W        W59752  19.256  14.642   2.733
98090W        W59753   0.445  30.984  11.109
98091W        W59754  28.484  36.028   1.835
98092W        W59755   8.286  10.289  12.941
98093W        W59756  42.030  26.004  14.820
98094W        W59757  44.827  41.490   3.782
98095W        W59758  41.523  44.294   1.787
98096W        W59759  21.060  14.276  14.458
98097W        W59760  29.145   4.397   1.336
98098W        W59761  31.037   2.274   2.854
98099W        W59762  39.540   8.655  11.947
98100W        W59763  19.605  41.511  13.882
98101W        W59764  29.103  43.796   3.646
98102W        W59765  31.055   7.870  13.438
98103W        W59766  42.382  14.117  12.561
98104W        W59767  44.436  21.643  12.830
98105W        W59768  22.657   3.895  11.588
98106W        W59769   7.184  43.891   2.253
98107W        W59770  33.590   2.394   2.808
98108W        W59771  23.515  33.894   4.136
98109W        W59772  43.309   3.949  10.416
98110W        W59773  42.995  32.907  11.914
98111W        W59774  11.329  12.200   4.165
98112W        W59775  44.395  33.079  12.041
98113W        W59776  38.987   9.818   1.278
98114W        W59777  44.318   9.280  13.019
98115W        W59778   3.347  43.021   0.438
98116W        W59779  10.289  23.122   1.449
98117W        W59780   3.762  29.645   4.727
98118W        W59781  44.880  44.979   4.326
98119W        W59782  19.170  39.831  11.876
98120W        W59783   9.756  21.098   3.831
98121W        W59784  23.696   9.292  11.471
98122W        W59785   2.916  13.643  13.925
98123W        W59786  39.973  35.581  13.386
98124W        W59787  14.243   9.267  11.097
98125W        W59788  16.621  35.092  13.008
98126W        W59789  44.784  12.361   4.600
98127W        W59790  15.305  43.359  10.946
98128W        W59791  42.853  38.556  12.517
98129W        W59792  29.930  31.427   2.688
98130W        W59793   8.724   3.441   0.328
98131W        W59794   7.801  11.350   2.867
98132W        W59795  14.121  37.055  11.465
98133W        W59796  43.376   9.694   3.378
98134W        W59797   7.789  30.157  13.810
98135W        W59798  40.372  18.744   2.815
98136W        W59799  34.077   3.431  12.899
98137W        W59800  15.657  27.069  14.358
98138W        W59801   6.195   3.921   4.120
98139W        W59802   0.347  19.240   3.683
98140W        W59803  19.748  35.089   2.295
98141W        W59804   6.222  39.546   3.298
98142W        W59805  14.264  11.256  14.305
98143W        W59806  21.135  44.954   4.220
98144W        W59807  19.199  21.259  11.489
98145W        W59808  13.652  41.404   2.745
98146W        W59809  15.783  13.113   4.664
98147W        W59810  30.024  11.141   3.771
98148W        W59811  30.476  40.328   3.676
98149W        W59812  40.964  22.121   1.709
98150W        W59813  42.816   2.880  13.914
98151W        W59814   6.329  17.786  13.544
98152W        W59815  13.845   4.443   3.656
98153W        W59816  22.140   8.223   0.730
98154W        W59817   7.822   7.784   4.672
98155W        W59818   7.223  42.919  11.460
98156W        W59819   0.756   3.812   3.804
98157W        W59820  10.856  20.039  12.975
98158W        W59821  30.058   6.780  14.353
98159W        W59822  40.465  39.846  12.450
98160W        W59823  25.122  30.110  13.407
98161W        W59824  16.074   1.396   0.262
98162W        W59825  30.450  20.267  14.935
98163W        W59826  26.182  24.624   4.606
98164W        W59827  18.629  42.908  12.434
98165W        W59828  43.965  36.849   2.228
98166W        W59829  36.347   5.813  13.395
98167W        W59830  11.746  37.001   2.828
98168W        W59831   0.267  19.636   3.870
98169W        W59832   1.336   2.756   2.387
98170W        W59833   6.332  43.293   3.361
98171W        W59834   0.406   9.381   1.724
98172W        W59835  24.171  40.314   5.204
98173W        W59836  10.370  21.642  12.413
98174W        W59837   5.409  17.654   2.273
98175W        W59838  27.448  31.598  12.895
98176W        W59839  19.555   7.714  10.429
98177W        W59840   7.178  41.803  11.509
98178W        W59841  25.202  27.146  11.049
98179W        W59842  37.074  10.260  13.542
98180W        W59843  39.012  36.555  10.902
98181W        W59844  13.794  33.522  12.971
98182W        W59845  10.295  18.117   4.287
98183W        W59846  27.975  38.049   4.605
98184W        W59847   1.406  39.358  12.577
98185W        W59848   2.889  18.146   3.867
98186W        W59849  30.067  28.462   3.750
98187W        W59850   9.832  22.661  11.121
98188W        W59851   1.387   2.898   4.601
98189W        W59852   3.727  21.681   4.160
98190W        W59853   5.710  31.471   2.796
98191W        W59854   8.760  44.435  12.973
98192W        W59855  32.450  13.610   3.809
98193W        W59856   0.942  16.297  10.950
98194W        W59857  35.517   9.697   1.744
98195W        W59858  11.860  27.590  13.528
98196W        W59859  28.091  18.728   1.864
98197W        W59860  31.504  43.325  14.285
98198W        W59861  28.980  30.086   2.750
98199W        W59862  14.619   4.741  13.895
98200W        W59863  19.101  20.532   4.231
98201W        W59864  42.380   9.868   1.806
98202W        W59865  24.094   2.443   1.839
98203W        W59866  31.580  43.873   1.386
98204W        W59867  38.385  29.008   3.868
98205W        W59868   1.787  40.353   4.651
98206W        W59869  16.299  23.734  13.880
98207W        W59870  27.631  41.442  11.544
98208W        W59871  16.134  32.117   1.256
98209W        W59872  20.560   6.401  12.353
98210W        W59873  34.372  21.687   2.294
98211W        W59874   3.838  40.359  12.446
98212W        W59875  26.519  23.118  14.440
98213W        W59876  35.890  10.642  12.077
98214W        W59877  28.504   8.333   1.896
98215W        W59878  42.031  16.228  12.451
98216W        W59879   1.434   4.225   3.719
98217W        W59880  38.054  42.955   3.254
98218W        W59881  38.440  12.720   4.319
98219W        W59882   6.889  24.532   3.318
98220W        W59883  18.770  31.925  10.405
98221W        W59884  24.571   7.301   2.704
98222W        W59885  29.499   3.864  13.524
98223W        W59886  19.239   7.372   2.333
98224W        W59887  35.550  16.166  11.528
98225W        W59888  35.439  25.636  11.909
98226W        W59889  27.608  24.666   2.390
98227W        W59890   3.295  19.636  10.540
98228W        W59891  17.596  41.029  14.015
98229W        W59892  32.535  33.915  14.919
98230W        W59893  29.959  14.611  14.397
98231W        W59894   0.323  14.813  11.892
98232W        W59895  30.420  42.000   3.823
98233W        W59896  12.362  35.466  14.979
98234W        W59897  21.559  21.210  14.012
98235W        W59898  13.114  31.963  10.465
98236W        W59899   7.190  28.640   2.704
98237W        W59900  38.445  25.089  12.521
98238W        W59901   5.439   5.731   3.758
98239W        W59902  23.586  20.152  14.957
98240W        W59903  18.710   2.931  13.845
98241W        W59904   5.925  38.862   4.250
98242W        W59905  10.205   4.214   3.772
98243W        W59906  33.882   3.416   0.274
98244W        W59907  33.896  32.114   2.815
98245W        W59908  17.203  10.206   2.367
98246W        W59909  10.773  11.752  12.926
98247W        W59910  29.016  41.307   4.832
98248W        W59911  42.499  38.455  12.351
98249W        W59912  20.231  40.439  13.877
98250W        W59913   6.380   4.388  11.452
98251W        W59914  35.904  39.520   2.771
98252W        W59915  42.788  44.482   3.780
98253W        W59916   9.267  12.208   4.740
98254W        W59917  23.147   3.387  10.021
98255W        W59918  20.745  43.831   1.241
98256W        W59919  18.584   6.194   4.659
98257W        W59920  27.633  19.231  10.977
98258W        W59921   1.956  22.218  12.562
98259W        W59922  13.758  17.192   2.271
98260W        W59923  22.167  34.566   2.246
98261W        W59924  23.182   4.897   0.336
98262W        W59925  29.116  32.045   1.287
98263W        W59926  11.719  24.683   0.837
98264W        W59927  18.763  25.509  12.477
98265W        W59928  14.111  19.160  10.596
98266W        W59929  18.224  44.280  13.414
98267W        W59930  40.854  11.774  11.998
98268W        W59931  19.695  20.725  10.501
98269W        W59932  36.095  41.976   3.166
98270W        W59933  42.431  35.543  13.880
98271W        W59934   5.741  32.534  10.638
98272W        W59935  32.461  40.917   4.650
98273W        W59936  32.423   3.797  11.015
98274W        W59937  44.478  43.513   1.260
98275W        W59938  44.926   0.428   4.787
98276W        W59939  28.446   5.792   1.791
98277W        W59940   6.794   7.896  14.457
98278W        W59941   4.875  30.587   1.716
98279W        W59942   8.318  37.964   4.299
98280W        W59943   3.260  30.656  13.324
98281W        W59944  34.034   6.194   1.394
98282W        W59945   3.734   9.194  14.825
98283W        W59946  33.465  17.767  10.029
98284W        W59947  27.944  23.699  10.558
98285W        W59948  28.126   6.718   2.344
98286W        W59949  14.266  25.502   5.204
98287W        W59950  11.286  30.953   1.277
98288W        W59951  34.077  19.696   2.863
98289W        W59952  21.035  30.133   4.696
98290W        W59953  18.736  11.797  10.105
98291W        W59954   6.416  18.255   1.740
98292W        W59955  33.967  34.885  12.883
98293W        W59956  30.147  37.033   4.838
98294W        W59957   8.189  14.182  14.803
98295W        W59958  33.437  42.886  10.463
98296W        W59959  19.165  21.544  11.015
98297W        W59960   6.705  44.293  11.465
98298W        W59961  30.106  25.500   3.801
98299W        W59962  43.443  17.293   4.652
98300W        W59963  32.582  25.090   3.301
98301W        W59964  15.651  41.403  10.484
98302W        W59965   5.412  33.912   1.917
98303W        W59966  28.039  20.055   2.670
98304W        W59967  39.975  18.200   1.398
98305W        W59968  18.063  34.575  11.528
98306W        W59969  43.502  31.486   1.751
98307W        W59970   3.941  23.137   1.437
98308W        W59971  41.433  21.043  10.505
98309W        W59972  30.433  44.447   1.805
98310W        W59973  27.525  14.746   2.331
98311W        W59974   2.789  30.010   0.444
98312W        W59975   6.769  27.007  10.631
98313W        W59976  16.596  20.728  12.089
98314W        W59977  27.190   6.426  14.962
98315W        W59978  32.928  26.523   5.316
98316W        W59979  27.511   1.300   0.417
98317W        W59980  23.010  21.136  14.368
98318W        W59981   8.868  39.901   3.757
98319W        W59982  18.239  38.367  13.502
98320W        W59983   5.243  14.240   2.697
98321W        W59984  24.194  39.920   4.795
98322W        W59985  13.317  19.258  13.871
98323W        W59986  41.498  22.113  13.014
98324W        W59987  20.082  28.115   3.696
98325W        W59988  20.545  44.778  11.866
98326W        W59989  27.471   6.869  11.596
98327W        W59990   2.957  20.028  11.894
98328W        W59991  28.459  13.752  13.524
98329W        W59992  30.490  25.096  13.496
98330W        W59993  11.301  43.002  14.827
98331W        W59994   4.325   7.385  12.410
98332W        W59995  42.377   3.739  14.770
98333W        W59996   7.313   2.743  14.914
98334W        W59997  14.326  17.746  10.602
98335W        W59998  26.163  41.518   3.739
98336W        W59999  17.670  33.398   3.334
98337W        W60000  11.723  15.303   0.728
98338W        W60001  17.063  36.967  11.916
98339W        W60002  29.984  24.607  10.942
98340W        W60003  18.765  25.714  14.974
98341W        W60004  33.038  39.556  13.833
98342W        W60005   5.903  42.000  10.932
98343W        W60006  25.138  28.138  14.945
98344W        W60007  26.537  23.489  12.040
98345W        W60008  22.205   3.300   3.251
98346W        W60009  10.856  44.334  11.874
98347W        W60010  15.270  35.864  13.440
98348W        W60011   8.703  39.329  14.368
98349W        W60012  13.755  21.650   1.801
98350W        W60013  23.115  31.594   1.246
98351W        W60014  22.226  24.157  14.322
98352W        W60015  10.862   0.878  14.514
98353W        W60016  22.659  25.564   0.769
98354W        W60017  30.931  42.400   0.903
98355W        W60018  40.519  32.078  13.904
98356W        W60019  32.439  18.228  11.045
98357W        W60020  20.688  40.504  10.990
98358W        W60021  34.497  22.556   0.256
98359W        W60022  40.405  17.617  14.943
98360W        W60023  14.237  35.995   9.664
98361W        W60024  42.399   5.214  10.146
98362W        W60025  39.519  40.896  12.035
98363W        W60026  21.713  40.971   2.227
98364W        W60027  44.326   4.769   3.639
98365W        W60028  15.805  25.024  10.116
98366W        W60029  10.256  33.465  13.880
98367W        W60030   2.740  20.147   2.802
98368W        W60031  12.276   2.241   2.897
98369W        W60032  10.858   3.225  10.568
98370W        W60033  11.148  12.322  14.355
98371W        W60034  41.817  42.507  13.328
98372W        W60035  21.651  15.183  12.026
98373W        W60036  33.003  34.063  11.460
98374W        W60037  32.633  13.635  13.402
98375W        W60038   2.933  18.627  14.827
98376W        W60039   0.410  21.244  14.979
98377W        W60040   9.763  21.036  12.846
98378W        W60041  15.218  34.507  14.407
98379W        W60042  35.001  38.865   0.313
98380W        W60043  10.241  29.977   0.901
98381W        W60044  34.547  23.632   2.362
98382W        W60045  40.373   1.865   0.742
98383W        W60046  34.909  19.113   1.857
98384W        W60047  10.347  42.500   1.367
98385W        W60048  13.738   8.340  11.593
98386W        W60049  44.874  19.748   1.783
98387W        W60050  32.949  28.977   4.317
98388W        W60051   3.430  41.373   3.764
98389W        W60052   3.833  43.005  12.052
98390W        W60053  15.745  22.234  11.564
98391W        W60054   7.321  10.348   4.610
98392W        W60055  12.146  18.202   0.249
98393W        W60056  44.900   8.343   2.295
98394W        W60057  36.469  44.483   0.939
98395W        W60058  10.770  24.671  13.886
98396W        W60059  43.404   7.751  10.940
98397W        W60060  41.393  27.977  10.552
98398W        W60061  44.855   0.902   1.752
98399W        W60062   6.312  13.630   0.317
98400W        W60063   9.823   0.949   4.755
98401W        W60064  23.024  16.121  13.433
98402W        W60065  33.429  16.222  14.771
98403W        W60066   4.264  34.031  14.998
98404W        W60067  34.067  24.027  13.505
98405W        W60068   6.186   4.823   5.161
98406W        W60069  26.666  44.923   1.704
98407W        W60070  10.738  17.175   4.343
98408W        W60071  19.239  21.636  13.403
98409W        W60072  16.731  20.664   2.738
98410W        W60073  28.150   9.666   2.888
98411W        W60074  23.171  24.537  12.041
98412W        W60075   0.887  18.695   0.457
98413W        W60076   1.958   1.245   2.902
98414W        W60077  29.640   1.412   1.409
98415W        W60078  13.797  18.585   2.229
98416W        W60079  31.142   9.176  12.874
98417W        W60080  35.942  15.707   5.082
98418W        W60081  24.116  20.241  12.891
98419W        W60082  26.189  20.157   2.708
98420W        W60083  43.288  26.671   4.672
98421W        W60084  40.974  44.973  13.542
98422W        W60085  12.788  38.960   2.678
98423W        W60086  28.600  44.958  11.116
98424W        W60087  28.666  24.050   4.349
98425W        W60088  43.971   2.818  12.387
98426W        W60089   9.795  21.090  14.410
98427W        W60090  31.062  26.094   1.815
98428W        W60091   2.832  44.297  12.343
98429W        W60092  42.951   6.850   2.360
98430W        W60093   0.939   1.769  12.866
98431W        W60094  41.508  42.926  10.136
98432W        W60095  24.027   0.368  11.431
98433W        W60096  18.135  44.463   4.339
98434W        W60097  15.682  14.709  10.975
98435W        W60098   7.904  10.769  10.957
98436W        W60099  26.592  35.085   0.729
98437W        W60100   6.238   6.817   4.220
98438W        W60101  12.160  32.950  11.055
98439W        W60102   3.838  23.123  13.935
98440W        W60103   8.676  35.107   4.764
98441W        W60104  14.788  30.465   1.815
98442W        W60105  12.328  25.181  13.311
98443W        W60106  12.205  43.875   0.768
98444W        W60107  18.648  19.149   2.311
98445W        W60108   1.813  36.944  14.303
98446W        W60109  32.483  24.529  14.970
98447W        W60110  21.742  14.184   3.688
98448W        W60111   4.715   3.332  13.480
98449W        W60112  40.370  20.594   2.209
98450W        W60113  15.667  13.314  12.061
98451W        W60114  38.041  29.088  14.361
98452W        W60115  13.255  24.514   0.351
98453W        W60116  29.146  17.211  11.102
98454W        W60117  40.495   3.244   4.691
98455W        W60118  18.618   5.288   3.747
98456W        W60119  33.543   3.949   0.358
98457W        W60120  13.266   7.252   1.273
98458W        W60121  28.151  28.590  10.546
98459W        W60122  21.240  18.266   0.879
98460W        W60123  17.305  32.533  10.450
98461W        W60124  24.503   4.404   4.705
98462W        W60125  14.216  16.615   3.857
98463W        W60126  20.602   9.696   1.786
98464W        W60127  36.906  24.046   1.757
98465W        W60128  15.747   4.920   5.145
98466W        W60129   5.707  41.442  11.474
98467W        W60130  17.618  39.944  12.000
98468W        W60131  34.018  43.982  14.913
98469W        W60132   5.816  43.974   1.219
98470W        W60133  28.601  35.493  10.433
98471W        W60134   7.681   7.746   2.370
98472W        W60135  11.268  13.309  14.294
98473W        W60136  33.940  31.484   2.855
98474W        W60137   7.898  37.888   2.235
98475W        W60138  42.882  26.593   3.713
98476W        W60139  19.123   5.256   0.284
98477W        W60140  11.162  16.673   3.307
98478W        W60141   3.432  30.112   1.327
98479W        W60142  20.217   2.249   3.354
98480W        W60143  38.484   3.409  12.544
98481W        W60144   1.278  31.934   2.297
98482W        W60145   8.863  35.068   5.221
98483W        W60146  15.248  33.875  12.392
98484W        W60147  17.290   4.770   0.816
98485W        W60148  34.880  15.188  13.504
98486W        W60149   5.695  10.225  12.917
98487W        W60150  35.390   5.796  13.843
98488W        W60151   3.733   3.247  11.944
98489W        W60152  39.402  35.875  11.104
98490W        W60153  38.940   7.820  14.813
98491W        W60154  25.968  22.693   2.875
98492W        W60155  41.997  17.294   9.971
98493W        W60156  21.101  20.676  11.011
98494W        W60157   9.746  10.699  11.014
98495W        W60158  39.442  13.138  11.128
98496W        W60159  33.493  11.345   4.685
98497W        W60160  33.011  34.373   0.810
98498W        W60161  26.604  13.112   4.127
98499W        W60162  30.030  33.422  12.837
98500W        W60163  34.542  10.701   4.140
98501W        W60164  29.465  23.691   3.305
98502W        W60165  10.375  37.363   1.901
98503W        W60166   4.310   6.181  11.892
98504W        W60167  13.697  26.061   2.672
98505W        W60168  28.616   5.393  12.383
98506W        W60169  44.445  26.687  14.390
98507W        W60170  26.094  44.435  12.358
98508W        W60171  11.315  21.649  13.323
98509W        W60172  13.189  40.798   0.869
98510W        W60173  36.353  23.515   3.351
98511W        W60174  43.275  18.289  11.997
98512W        W60175  23.503  20.067  10.446
98513W        W60176  38.895   1.366  11.612
98514W        W60177  19.670  21.641   2.296
98515W        W60178  13.778  26.692  13.794
98516W        W60179  32.986  44.986  11.551
98517W        W60180   5.709  35.488   0.864
98518W        W60181  24.516   7.731   4.259
98519W        W60182  15.148  13.730   3.735
98520W        W60183  16.671  17.127  11.562
98521W        W60184  32.017  18.092   1.427
98522W        W60185   9.285  11.214  14.809
98523W        W60186  28.439  36.394   0.786
98524W        W60187  26.591  35.869   4.704
98525W        W60188  21.582  13.142   2.700
98526W        W60189  22.077  16.648   0.272
98527W        W60190  28.975  21.211  13.965
98528W        W60191   9.696   9.284  11.874
98529W        W60192  15.166  24.535   3.367
98530W        W60193  13.762   6.833  11.605
98531W        W60194  15.722  30.433   4.687
98532W        W60195  26.117  13.121  10.580
98533W        W60196   0.335   1.940   4.306
98534W        W60197  19.778   0.461  10.433
98535W        W60198   5.416  19.543   2.772
98536W        W60199  17.201  42.007  13.051
98537W        W60200  40.978   0.327   3.197
98538W        W60201  29.175  41.306  11.869
98539W        W60202  10.274  41.430   1.226
98540W        W60203  24.651  24.583  11.944
98541W        W60204  13.323  22.598  11.448
98542W        W60205   7.334  16.171  14.831
98543W        W60206   1.748   8.722   2.901
98544W        W60207  10.876   9.660  10.953
98545W        W60208  41.423  33.615   4.351
98546W        W60209  34.454  20.670  13.829
98547W        W60210  24.982  44.308   0.879
98548W        W60211  43.314  40.356   4.790
98549W        W60212   6.765  21.109   4.833
98550W        W60213  33.510  43.327  11.086
98551W        W60214  29.135  12.829  10.548
98552W        W60215  27.942  23.997  11.937
98553W        W60216  32.051  13.802   2.326
98554W        W60217  30.117  36.474  10.585
98555W        W60218  37.443   5.777   1.271
98556W        W60219  41.930  27.593   0.296
98557W        W60220  32.119   5.415  12.352
98558W        W60221  43.014  40.305  13.481
98559W        W60222  37.850   8.165   4.287
98560W        W60223   0.433  21.052   3.174
98561W        W60224  27.671   3.787   3.383
98562W        W60225  31.112  23.509  10.133
98563W        W60226   3.342  26.967   1.853
98564W        W60227  43.516  29.975   1.814
98565W        W60228  31.534   3.328  12.464
98566W        W60229  19.578  15.087   1.888
98567W        W60230  39.546  35.044   4.189
98568W        W60231  42.969  18.654  14.320
98569W        W60232  19.152  21.734  12.040
98570W        W60233  43.999  10.874  11.999
98571W        W60234  15.106  44.812  14.329
98572W        W60235  42.457  14.274   2.410
98573W        W60236  27.475  43.350  11.125
98574W        W60237   2.831   5.823   0.397
98575W        W60238   6.370  21.689   0.778
98576W        W60239  19.283  24.544  14.881
98577W        W60240  28.504  27.999  13.516
98578W        W60241   9.194   1.439   4.278
98579W        W60242  17.615  32.415   3.859
98580W        W60243  18.641  44.802  12.565
98581W        W60244  44.393  20.623  10.999
98582W        W60245  14.722  23.127   3.309
98583W        W60246  40.516  26.614  13.907
98584W        W60247  39.934  18.106  11.875
98585W        W60248  30.624  34.922  12.023
98586W        W60249  24.018  33.576  14.781
98587W        W60250   4.396  31.490  11.993
98588W        W60251  28.072  25.635  13.309
98589W        W60252  12.308  44.754   0.875
98590W        W60253   7.700  16.294   1.736
98591W        W60254  11.280  40.864  12.566
98592W        W60255  40.944  31.531  11.460
98593W        W60256  35.394  18.196   2.805
98594W        W60257  38.957  16.606  12.552
98595W        W60258  25.621  19.042   3.828
98596W        W60259  43.398   2.247  13.546
98597W        W60260   1.872  29.481   0.870
98598W        W60261   1.341  25.202   1.841
98599W        W60262  44.807  37.968   1.328
98600W        W60263   3.289  19.219   3.738
98601W        W60264  10.304  33.116   4.347
98602W        W60265  32.982  39.382   1.373
98603W        W60266  22.069  16.103  12.512
98604W        W60267  26.572  30.623  10.027
98605W        W60268  41.969  32.615  10.994
98606W        W60269   3.292  41.849  12.427
98607W        W60270  12.282  16.622  13.393
98608W        W60271  41.381  15.745   4.306
98609W        W60272  24.149  42.022  13.018
98610W        W60273  12.675  33.461  11.990
98611W        W60274  31.590  30.937   4.637
98612W        W60275  30.639  20.605   1.886
98613W        W60276  40.375   0.962   2.760
98614W        W60277  11.265  23.491  13.323
98615W        W60278  39.405   4.716   0.266
98616W        W60279  39.815  22.711  13.816
98617W        W60280  44.487  10.811  13.995
98618W        W60281   8.844  12.173   0.940
98619W        W60282   9.738  33.011  10.931
98620W        W60283  19.651  38.027   2.320
98621W        W60284  41.440  27.511   1.730
98622W        W60285  33.599  40.801   2.664
98623W        W60286  38.410   9.307   1.819
98624W        W60287   2.881   6.761  13.343
98625W        W60288  40.999   3.256   0.414
98626W        W60289  10.340  29.109  12.503
98627W        W60290   4.326  13.192   1.415
98628W        W60291   4.220  19.683   3.858
98629W        W60292   1.870  42.813   5.180
98630W        W60293   4.914   0.861  14.440
98631W        W60294  29.631  15.622   2.702
98632W        W60295  25.208   5.244   1.360
98633W        W60296  34.402  17.734  14.894
98634W        W60297  28.094   7.678  10.606
98635W        W60298  27.634   0.354   4.266
98636W        W60299  10.829   8.372   1.342
98637W        W60300  14.684   6.735   3.676
98638W        W60301  24.060   5.715   0.961
98639W        W60302  25.569  44.454   3.257
98640W        W60303  11.295   2.359   3.358
98641W        W60304   5.267  20.551  11.082
98642W        W60305  44.268   1.303  10.897
98643W        W60306   3.732  21.645  11.928
98644W        W60307   8.804  24.640  14.322
98645W        W60308  21.119  13.829   5.169
98646W        W60309  20.045   3.230  11.887
98647W        W60310  39.491   7.273  12.380
98648W        W60311  11.228  32.075  11.119
98649W        W60312  23.716  40.543  13.496
98650W        W60313   3.913  13.313   0.244
98651W        W60314  20.626   4.747  11.048
98652W        W60315   5.728  14.233   0.280
98653W        W60316  37.357   0.303   2.785
98654W        W60317  11.770  29.010  12.018
98655W        W60318  30.994  23.020   4.281
98656W        W60319  30.498   0.805   0.884
98657W        W60320   2.438   4.828  10.998
98658W        W60321  15.153  15.714  13.947
98659W        W60322  40.450  29.981   4.310
98660W        W60323  40.961  15.221  13.412
98661W        W60324  22.505   2.900  12.431
98662W        W60325   4.724  44.989  13.439
98663W        W60326  14.738   8.895  12.924
98664W        W60327  21.741  15.263   0.762
98665W        W60328  32.428  22.239  12.061
98666W        W60329   5.834  15.165  13.882
98667W        W60330  26.161  28.952  13.334
98668W        W60331  23.716  30.440  11.404
98669W        W60332  33.409  22.570   5.277
98670W        W60333  12.351   1.404   2.400
98671W        W60334  39.869  33.960  11.490
98672W        W60335   9.341   5.884  12.933
98673W        W60336  34.063  14.177  14.510
98674W        W60337   6.255  26.164  12.546
98675W        W60338   1.951   0.250   4.760
98676W        W60339  25.117   4.406  14.513
98677W        W60340  19.563  39.935   3.754
98678W        W60341  18.153  13.348  14.808
98679W        W60342  38.978  22.243   1.297
98680W        W60343  21.208  27.959  12.947
98681W        W60344  32.084  30.498  10.403
98682W        W60345  12.635  10.844   4.180
98683W        W60346   5.322  39.049  14.941
98684W        W60347  27.157  23.582  12.036
98685W        W60348  43.922  36.099  14.472
98686W        W60349  12.690  12.349  13.432
98687W        W60350  10.859   1.429   3.379
98688W        W60351  20.684  31.037   4.151
98689W        W60352  41.874  34.087  14.907
98690W        W60353  44.277  16.595   4.623
98691W        W60354  30.051  19.575   5.092
98692W        W60355  34.024  14.206   1.702
98693W        W60356  26.104  12.126  11.930
98694W        W60357  37.061  27.033   3.323
98695W        W60358   3.789  38.484   2.250
98696W        W60359   4.300  40.988   4.267
98697W        W60360   5.431  15.632  13.434
98698W        W60361   2.800   6.712  12.501
98699W        W60362  19.723  33.906   2.184
98700W        W60363  23.607  42.337  10.454
98701W        W60364  15.704  32.105  11.956
98702W        W60365  23.132   4.212  13.043
98703W        W60366  44.297  32.040   1.782
98704W        W60367   9.337   5.785  11.020
98705W        W60368  36.360  27.960   4.175
98706W        W60369   0.746  42.299   3.370
98707W        W60370   2.743  35.479  12.043
98708W        W60371  42.508  31.424  10.641
98709W        W60372  41.466   7.808   4.346
98710W        W60373   9.804  37.922   1.360
98711W        W60374   4.227  37.365  13.424
98712W        W60375  42.826  29.061   1.715
98713W        W60376   4.739  33.380   1.338
98714W        W60377  35.915  39.850   3.633
98715W        W60378  25.099  41.035  13.335
98716W        W60379  23.005   3.219  10.534
98717W        W60380  38.011   8.301  14.390
98718W        W60381  14.275  13.294   1.706
98719W        W60382  20.263  32.936  14.426
98720W        W60383  23.152  29.116   3.216
98721W        W60384  24.197   8.837   4.311
98722W        W60385  30.594  31.969   2.782
98723W        W60386   4.350  24.149   0.442
98724W        W60387  10.298  43.816  10.498
98725W        W60388  40.844  24.099  12.956
98726W        W60389  19.207  28.458  13.802
98727W        W60390  40.361  37.576   0.396
98728W        W60391  10.270  43.920  14.322
98729W        W60392  19.697  41.874  13.005
98730W        W60393  12.143  33.433   1.838
98731W        W60394  41.382  32.595  10.451
98732W        W60395  12.174  30.066  10.910
98733W        W60396   5.265  33.001  12.882
98734W        W60397  27.610   1.316  13.339
98735W        W60398  18.239  12.856  14.350
98736W        W60399  19.550  40.936  11.907
98737W        W60400   6.820  38.393  14.010
98738W        W60401  22.040  33.932   2.256
98739W        W60402  11.820  13.616   4.220
98740W        W60403  25.494   2.472   0.918
98741W        W60404   9.711  42.486   2.756
98742W        W60405  15.799  29.443  11.902
98743W        W60406  25.057  13.613  13.423
98744W        W60407  25.156   3.309  14.451
98745W        W60408  19.732  37.960   1.759
98746W        W60409  15.125  23.557   1.298
98747W        W60410  33.105   8.834  14.476
98748W        W60411  10.249  34.036  11.914
98749W        W60412   9.169  33.405  11.477
98750W        W60413  29.621  40.036  10.150
98751W        W60414  29.495  11.866   1.815
98752W        W60415  15.653  18.735   4.195
98753W        W60416  33.063   0.886   0.788
98754W        W60417  24.104  39.910   5.605
98755W        W60418  14.613  42.381  14.998
98756W        W60419  24.230  11.734  13.883
98757W        W60420  14.781  40.415   0.346
98758W        W60421  44.889  13.633  11.885
98759W        W60422   7.763  38.826   2.408
98760W        W60423  14.128  30.480  14.883
98761W        W60424  41.522  18.646   0.284
98762W        W60425  35.458  14.808   2.284
98763W        W60426  29.479  34.904  10.568
98764W        W60427  43.975  33.941   0.849
98765W        W60428  37.042  16.679   4.258
98766W        W60429   9.176  25.570   0.828
98767W        W60430   7.895   8.287   1.420
98768W        W60431  21.520  30.052   0.740
98769W        W60432  31.482  25.121   2.712
98770W        W60433  14.649  37.939   1.771
98771W        W60434   5.215  32.503   3.652
98772W        W60435  43.834  34.440  10.519
98773W        W60436  42.292  16.225  11.476
98774W        W60437  13.796   9.193   1.328
98775W        W60438   8.382   5.366   4.243
98776W        W60439  27.116  11.302   3.755
98777W        W60440   2.862  10.340  10.636
98778W        W60441  27.053  44.910   2.734
98779W        W60442  24.627   9.879   1.899
98780W        W60443   9.669  43.403  11.375
98781W        W60444  20.532  26.533   0.248
98782W        W60445   8.375  42.027  12.042
98783W        W60446   4.313  42.842   1.352
98784W        W60447  21.726  27.621  11.509
98785W        W60448  20.095   0.820   2.310
98786W        W60449   0.751  10.207  12.029
98787W        W60450  29.977  43.923  11.095
98788W        W60451  32.923  29.635   0.446
98789W        W60452  10.150   3.403   1.700
98790W        W60453  20.145   5.415  11.018
98791W        W60454   4.287   6.704   0.856
98792W        W60455  37.413  42.428   4.832
98793W        W60456  34.510  16.145   2.674
98794W        W60457  29.496   9.706  14.993
98795W        W60458  22.023  28.987  13.419
98796W        W60459  11.718  25.579   3.377
98797W        W60460  28.129  12.641  13.045
98798W        W60461   8.219  24.020   2.669
98799W        W60462  13.277  11.222  11.573
98800W        W60463  43.430   4.399   0.797
98801W        W60464   4.353  40.422   0.359
98802W        W60465  13.633  10.186  12.416
98803W        W60466  21.515  42.822  13.871
98804W        W60467  12.794  30.983   0.247
98805W        W60468   8.867  43.444   0.442
98806W        W60469  42.412  26.172  12.899
98807W        W60470  31.930   2.268   2.848
98808W        W60471   6.767  29.432  10.433
98809W        W60472  35.968  16.183   0.347
98810W        W60473   7.220  23.705   3.162
98811W        W60474  38.553   4.387  14.452
98812W        W60475  32.615  11.759  14.364
98813W        W60476  22.739  22.072  13.973
98814W        W60477   4.849   3.801  10.950
98815W        W60478  28.439   8.353   2.352
98816W        W60479  29.608  11.759  14.889
98817W        W60480   2.247   6.223   0.381
98818W        W60481  39.030  36.394  11.379
98819W        W60482  25.478  30.988   4.705
98820W        W60483  18.139   3.739  10.643
98821W        W60484  38.946  44.954  12.485
98822W        W60485  31.484  42.939   0.437
98823W        W60486  18.123  19.173  14.434
98824W        W60487  35.094  12.132   1.847
98825W        W60488  24.656   6.850   4.640
98826W        W60489  22.720  18.575   3.204
98827W        W60490  12.793  43.428   0.412
98828W        W60491   4.761  41.450  13.540
98829W        W60492   4.830  19.661   3.335
98830W        W60493   2.452  35.107   3.775
98831W        W60494   3.449  25.139  11.892
98832W        W60495   6.286  22.642   1.884
98833W        W60496  14.760  32.516   1.767
98834W        W60497  24.048  23.018  10.915
98835W        W60498  17.714  26.122   2.296
98836W        W60499  28.100  19.079  13.907
98837W        W60500  27.022  29.932  13.476
98838W        W60501  38.502   6.890  13.823
98839W        W60502  38.848   2.399  13.498
98840W        W60503  42.446  10.822   3.653
98841W        W60504  40.015   6.356   3.336
98842W        W60505  30.502  43.010   4.123
98843W        W60506  18.233  33.509   1.317
98844W        W60507  39.049  39.382   0.391
98845W        W60508   2.404   3.273  12.982
98846W        W60509  20.131  24.111  12.438
98847W        W60510  31.133   5.861  11.498
98848W        W60511  41.933   7.171  14.409
98849W        W60512   2.897   6.289  13.512
98850W        W60513  28.515  18.590   1.923
98851W        W60514   1.810  41.040   3.702
98852W        W60515  17.792  35.996  13.883
98853W        W60516   0.303  11.827  11.971
98854W        W60517  12.706   1.279  11.999
98855W        W60518   3.245  10.739   0.871
98856W        W60519   7.784  38.914   4.728
98857W        W60520  43.514  33.117   4.700
98858W        W60521  42.507  31.481   4.642
98859W        W60522  13.706  30.569  13.899
98860W        W60523  27.176  10.254   0.369
98861W        W60524   6.301  32.020  13.398
98862W        W60525  43.393  12.316   3.375
98863W        W60526  27.486  14.604   2.836
98864W        W60527   8.845  39.875   3.220
98865W        W60528  41.805  43.851   1.840
98866W        W60529  36.366  28.112  11.611
98867W        W60530   0.794  44.417   3.701
98868W        W60531   8.712  35.398   0.462
98869W        W60532  25.035  28.146  10.532
98870W        W60533  13.693  23.151   0.449
98871W        W60534  40.354  23.005  13.935
98872W        W60535   4.813  35.495  11.073
98873W        W60536  30.422  24.035  10.570
98874W        W60537  38.018  38.563  10.922
98875W        W60538  42.960   3.225   3.733
98876W        W60539  18.774  37.487  14.901
98877W        W60540  38.486   7.733  11.468
98878W        W60541  24.482  22.119  14.819
98879W        W60542  37.367  37.994   2.902
98880W        W60543  39.924  26.505  11.612
98881W        W60544  11.193  30.483  10.601
98882W        W60545  36.079  11.356   2.765
98883W        W60546  37.012  42.410   2.352
98884W        W60547  36.562  15.269   3.789
98885W        W60548  11.752  32.578  13.423
98886W        W60549  40.926  37.377   0.827
98887W        W60550   6.265  12.221  13.327
98888W        W60551  34.614  44.949  12.533
98889W        W60552  16.763  16.588   1.808
98890W        W60553  15.129  15.204   1.314
98891W        W60554  13.173  23.594  11.128
98892W        W60555  11.711   9.665  10.457
98893W        W60556   3.323  28.118  10.997
98894W        W60557  19.741   7.413   2.735
98895W        W60558  21.065  34.604  11.430
98896W        W60559  18.130  27.142  13.404
98897W        W60560  15.624   3.897   0.307
98898W        W60561  32.972   6.329   3.176
98899W        W60562  10.877  41.472   4.320
98900W        W60563   3.301  30.956   0.805
98901W        W60564  11.621   0.877   3.159
98902W        W60565  15.305  13.718   2.892
98903W        W60566  22.739  38.365   9.950
98904W        W60567  28.669  15.210  11.418
98905W        W60568  25.495  20.631   1.838
98906W        W60569   1.275  18.703  10.527
98907W        W60570  19.630  17.230  11.470
98908W        W60571  28.556   3.427   4.144
98909W        W60572  24.123  30.457   3.711
98910W        W60573  26.576  29.949   2.739
98911W        W60574  20.254  25.173  10.473
98912W        W60575  26.530  26.120   2.667
98913W        W60576   4.428   9.297   4.620
98914W        W60577  31.119  29.139   9.985
98915W        W60578  34.411  44.838   2.686
98916W        W60579   3.349   9.778  14.794
98917W        W60580  10.821  27.159  12.982
98918W        W60581  18.141  33.597   3.379
98919W        W60582  43.989  34.611   1.753
98920W        W60583  23.730  28.460  12.003
98921W        W60584   7.910  14.118   1.398
98922W        W60585   5.694  32.513   4.353
98923W        W60586   6.839  17.293   3.729
98924W        W60587  39.888  23.644  11.868
98925W        W60588  32.020   9.379   2.236
98926W        W60589  25.051   1.761  14.808
98927W        W60590  15.189  44.433  13.822
98928W        W60591  43.488  21.703  14.945
98929W        W60592   9.164  42.483  13.020
98930W        W60593  27.560   6.834   1.823
98931W        W60594  17.617  39.901  14.018
98932W        W60595  31.619   2.459  11.589
98933W        W60596  11.333   6.828   5.230
98934W        W60597  23.661  27.554  12.095
98935W        W60598  12.212  17.255  12.844
98936W        W60599  12.721  34.531  12.405
98937W        W60600  24.546  35.467   4.202
98938W        W60601  28.443  26.050  12.409
98939W        W60602  35.021  17.573   4.700
98940W        W60603   4.845  29.515  11.923
98941W        W60604  18.574  10.282  13.338
98942W        W60605  37.054  31.116  14.814
98943W        W60606   8.664  15.619  13.448
98944W        W60607  23.617  31.570   4.283
98945W        W60608  15.238  41.415   2.285
98946W        W60609  15.268  26.616   3.845
98947W        W60610  35.603  13.795  14.495
98948W        W60611  44.779  23.101  12.456
98949W        W60612   1.241   6.419  11.970
98950W        W60613  14.250  19.713   3.723
98951W        W60614  20.596   6.326   2.858
98952W        W60615  21.249  17.149  11.555
98953W        W60616  30.589  22.162  14.823
98954W        W60617  43.368  12.293  11.993
98955W        W60618  41.305   4.220  12.496
98956W        W60619  23.651   0.335   3.325
98957W        W60620  17.774  40.455  12.989
98958W        W60621   5.693   1.279  14.939
98959W        W60622  16.228  30.501   1.264
98960W        W60623   5.290   9.236   3.381
98961W        W60624  25.063  24.617  13.812
98962W        W60625  34.988  38.022   1.353
98963W        W60626  21.655  39.554   4.286
98964W        W60627  37.565   9.812   3.277
98965W        W60628  18.636   3.854   0.766
98966W        W60629  17.562  15.683  12.341
98967W        W60630  12.814  23.097   1.417
98968W        W60631   2.930  12.175   1.352
98969W        W60632  30.639  27.557   3.375
98970W        W60633  10.315  28.092   1.316
98971W        W60634  37.430  23.489   9.947
98972W        W60635  31.896   7.835  13.369
98973W        W60636   6.402   8.769   4.754
98974W        W60637  38.039  13.683  14.509
98975W        W60638  44.311   1.767   0.475
98976W        W60639   2.889   3.845   3.852
98977W        W60640  18.293  37.364   3.358
98978W        W60641  36.093  10.383  14.920
98979W        W60642  17.096   6.818  13.398
98980W        W60643  32.426  14.284   1.919
98981W        W60644  41.998   1.343  11.019
98982W        W60645  32.518  28.458   2.867
98983W        W60646   1.335   9.226   1.268
98984W        W60647   5.273  44.963  12.372
98985W        W60648  43.933  33.535   4.260
98986W        W60649  22.732  33.579   4.707
98987W        W60650  11.250  30.589   2.692
98988W        W60651  44.871   0.795  12.909
98989W        W60652   3.771  29.999  13.543
98990W        W60653  34.418  18.104   1.393
98991W        W60654   5.741  20.548  11.496
98992W        W60655  36.435   3.260   4.350
98993W        W60656  36.461   2.778  11.951
98994W        W60657   1.950  29.661  13.374
98995W        W60658  34.032  17.128  11.377
98996W        W60659  37.924  25.983  14.399
98997W        W60660  23.101  42.776  11.479
98998W        W60661  41.433   1.352  13.063
98999W        W60662  24.638   7.791   2.339
99000W        W60663  30.076  19.742  11.500
99001W        W60664   8.855  17.584  11.955
99002W        W60665  28.674  11.132   0.451
99003W        W60666   5.695  41.370  10.537
99004W        W60667   2.472  23.224   0.247
99005W        W60668   8.675  35.931   0.323
99006W        W60669  43.899  32.561   4.655
99007W        W60670   5.784  12.800   0.927
99008W        W60671  36.546  27.678  14.345
99009W        W60672  30.082  38.930  13.941
99010W        W60673  43.849  30.519   4.234
99011W        W60674   3.351   2.911  11.858
99012W        W60675  23.154  14.620   4.713
99013W        W60676   2.783  43.911  12.971
99014W        W60677   8.726  11.128   4.292
99015W        W60678   6.845  43.793  14.983
99016W        W60679  42.825  35.603  14.289
99017W        W60680  22.117  43.513   4.627
99018W        W60681  26.153  18.722  14.496
99019W        W60682  29.544  19.263  12.425
99020W        W60683  43.391  32.986  10.446
99021W        W60684  29.162  33.576   0.250
99022W        W60685   7.906  41.307   2.314
99023W        W60686  44.985  32.013   4.301
99024W        W60687   0.979  16.647  13.374
99025W        W60688  15.698  37.501   3.765
99026W        W60689  19.618  29.995  11.056
99027W        W60690  35.415  34.916  14.914
99028W        W60691  32.624  22.123  14.830
99029W        W60692   8.301  16.178  11.094
99030W        W60693   6.852  12.225  12.886
99031W        W60694  40.871  27.077   3.791
99032W        W60695  26.997  11.725   0.943
99033W        W60696  26.487  39.479  14.411
99034W        W60697  19.656   4.302  10.564
99035W        W60698  37.544  33.577   4.225
99036W        W60699  22.049  13.746  10.457
99037W        W60700  27.091  28.045   2.269
99038W        W60701  25.679  17.562   0.741
99039W        W60702   3.424   4.784  11.457
99040W        W60703  24.038  12.146   3.835
99041W        W60704  13.791   4.762  13.041
99042W        W60705  38.491  24.548   4.191
99043W        W60706  17.735  34.109   3.721
99044W        W60707  30.544   2.246   5.153
99045W        W60708  44.961  26.173  14.931
99046W        W60709  29.448  30.617   9.991
99047W        W60710  18.113  11.733   3.768
99048W        W60711  13.227   4.858  10.441
99049W        W60712   7.803  44.948  14.012
99050W        W60713  26.000  13.194  11.122
99051W        W60714   0.858   7.729   4.667
99052W        W60715  31.966  19.221  13.857
99053W        W60716   3.737  21.040   1.928
99054W        W60717   4.379   8.795  10.935
99055W        W60718  22.581  21.737   1.437
99056W        W60719   8.345  40.911   0.802
99057W        W60720  42.877  27.190  10.893
99058W        W60721  32.557  12.753  11.936
99059W        W60722   6.354  24.106  12.052
99060W        W60723  14.228  23.212   2.799
99061W        W60724  20.633  36.506  12.916
99062W        W60725  39.029  18.247   0.848
99063W        W60726  20.591   0.489  12.565
99064W        W60727  33.607  35.412   3.714
99065W        W60728  28.498  14.206  14.491
99066W        W60729  11.367  12.264   0.963
99067W        W60730  18.703  13.162  14.513
99068W        W60731  10.267  29.477  14.310
99069W        W60732   6.752  20.144  13.536
99070W        W60733  20.550  11.739  13.929
99071W        W60734  35.913  27.956  11.575
99072W        W60735   5.770  12.622  11.968
99073W        W60736  16.590  44.935  12.095
99074W        W60737  32.096  28.078   3.769
99075W        W60738  32.940  14.330  13.847
99076W        W60739  42.312  10.734   0.402
99077W        W60740  44.946  15.641  13.850
99078W        W60741  21.218  37.424  11.083
99079W        W60742  22.189  34.442   0.402
99080W        W60743   1.832  18.090   0.457
99081W        W60744  44.866  27.198   1.249
99082W        W60745   5.823  23.208   4.179
99083W        W60746  42.872  35.440  12.346
99084W        W60747  23.657  25.002  11.532
99085W        W60748  14.769  36.944   1.843
99086W        W60749  25.585   0.490  12.082
99087W        W60750  17.276  22.549  14.320
99088W        W60751  10.778  22.069  12.863
99089W        W60752  33.383   8.730   4.829
99090W        W60753  37.831  40.798  13.967
99091W        W60754   9.783  14.117   1.307
99092W        W60755  26.648   6.221  10.908
99093W        W60756  17.174   4.740  11.424
99094W        W60757  15.765  20.122   2.836
99095W        W60758  42.912  25.571   1.825
99096W        W60759  28.551  17.737  10.567
99097W        W60760   9.359  42.016   3.680
99098W        W60761   7.791  19.066  10.645
99099W        W60762  37.884  17.119   2.717
99100W        W60763   3.766  37.545  13.799
99101W        W60764  33.054  33.928  11.955
99102W        W60765  19.209  24.543   4.600
99103W        W60766  12.746  28.145  13.980
99104W        W60767  39.420  41.448  11.905
99105W        W60768   0.470  30.464  11.578
99106W        W60769  34.999  28.952  14.903
99107W        W60770  23.601   6.796   2.329
99108W        W60771  22.727  32.996  11.441
99109W        W60772  19.112  18.720  10.087
99110W        W60773   8.834  20.729   0.748
99111W        W60774  28.050   2.454   3.273
99112W        W60775  18.760  13.267   1.376
99113W        W60776  19.136  40.359  12.893
99114W        W60777  23.025   3.293  14.767
99115W        W60778  20.102  29.539   0.350
99116W        W60779  31.628  42.478   1.743
99117W        W60780   2.843  12.146  12.492
99118W        W60781  39.912  40.002  11.541
99119W        W60782  11.278  29.617   1.892
99120W        W60783  36.388  38.900  14.971
99121W        W60784  43.774  25.643   1.314
99122W        W60785  22.150  36.919   1.443
99123W        W60786  23.114  44.455  13.938
99124W        W60787  21.228   1.307  14.348
99125W        W60788  37.990   8.333  10.016
99126W        W60789  37.845   1.343  12.520
99127W        W60790  34.889  19.273   0.830
99128W        W60791  12.331  23.637   4.253
99129W        W60792  18.632  40.387   2.770
99130W        W60793  14.798  38.349   5.314
99131W        W60794  40.521  21.630  10.424
99132W        W60795  14.649  32.929   1.776
99133W        W60796  38.041   0.290   1.332
99134W        W60797  28.030  37.082   3.243
99135W        W60798  37.049  15.748   4.221
99136W        W60799  38.868  34.381   4.148
99137W        W60800  43.445  17.618  13.985
99138W        W60801  35.100  38.973   2.271
99139W        W60802  13.801   1.920   3.723
99140W        W60803  31.068   6.864  11.959
99141W        W60804  24.074  31.063  14.345
99142W        W60805  40.798  42.854  11.985
99143W        W60806  16.282  18.664   1.406
99144W        W60807  13.300  28.572   4.234
99145W        W60808   6.273   5.761  10.564
99146W        W60809   1.445  22.241  13.836
99147W        W60810  44.885  21.519  14.877
99148W        W60811  28.008  14.722  12.087
99149W        W60812  10.169  14.828   4.751
99150W        W60813   5.895  42.284  14.810
99151W        W60814  33.940  18.185   1.838
99152W        W60815  18.627  36.568   1.414
99153W        W60816  19.734  13.336  13.308
99154W        W60817  35.390  17.221  12.407
99155W        W60818   5.390  21.144   3.155
99156W        W60819  25.059  21.236  11.977
99157W        W60820  37.556  34.926  11.030
99158W        W60821  36.391  10.649  12.073
99159W        W60822   1.265  10.715  12.870
99160W        W60823  41.852  14.203   1.385
99161W        W60824  28.156  22.115   0.309
99162W        W60825  28.132  40.476   2.847
99163W        W60826  35.000   7.822   3.632
99164W        W60827  17.067  21.544  13.355
99165W        W60828  40.491  31.601   0.912
99166W        W60829  31.960   3.776  13.308
99167W        W60830  13.646  25.617   3.743
99168W        W60831  31.647  42.327   3.297
99169W        W60832  34.876  28.013   2.663
99170W        W60833   5.349  32.624  14.987
99171W        W60834  13.296  42.789  11.590
99172W        W60835   6.759  22.510  10.490
99173W        W60836  30.096  26.614   4.297
99174W        W60837  28.991  39.916   2.731
99175W        W60838   1.483  30.032   4.602
99176W        W60839  13.231  22.133   0.367
99177W        W60840  32.467  44.339  14.358
99178W        W60841  37.907  12.243  14.305
99179W        W60842   6.689   2.933   4.691
99180W        W60843  31.967  13.778  14.954
99181W        W60844  40.381  26.031   0.920
99182W        W60845   7.807  29.495   4.640
99183W        W60846  33.103  14.738   3.816
99184W        W60847  22.076  14.642  13.952
99185W        W60848  35.558   2.466   3.368
99186W        W60849  20.560  44.461   1.779
99187W        W60850  33.897  15.626  12.934
99188W        W60851  33.576  27.140  13.446
99189W        W60852  10.296  10.219   4.770
99190W        W60853  24.568  41.922  10.576
99191W        W60854  39.466  41.524  10.550
99192W        W60855  20.661   4.318  12.938
99193W        W60856   7.822  27.941  14.369
99194W        W60857   6.755  23.573  11.426
99195W        W60858   6.814  30.628   0.299
99196W        W60859  32.918   4.838  10.428
99197W        W60860  40.486   2.306  11.998
99198W        W60861  10.235  19.189   3.313
99199W        W60862  37.374  38.424   2.673
99200W        W60863  18.761  31.975  11.475
99201W        W60864  44.931   7.828   0.897
99202W        W60865  10.325  13.256   4.133
99203W        W60866  39.333  21.565   4.175
99204W        W60867  26.496  39.050   3.249
99205W        W60868  34.068  18.185   3.200
99206W        W60869  39.867   7.180   1.349
99207W        W60870  28.003  16.287  12.988
99208W        W60871  23.021  40.302   1.392
99209W        W60872  36.901  27.674   4.117
99210W        W60873  22.197  15.256  12.440
99211W        W60874  14.703  43.380   3.635
99212W        W60875   7.271  18.150  10.608
99213W        W60876  36.383   0.310  13.341
99214W        W60877  30.116  10.229  14.507
99215W        W60878  27.481  37.048   3.344
99216W        W60879   1.976  12.723   2.750
99217W        W60880   2.414  37.540  14.452
99218W        W60881  31.550  38.333   1.318
99219W        W60882  38.555   3.823   4.297
99220W        W60883  18.165  19.776  14.869
99221W        W60884  18.657   0.292  14.887
99222W        W60885   0.287  10.379   1.380
99223W        W60886  13.762   2.870  12.399
99224W        W60887   8.700  16.114   1.284
99225W        W60888  29.589  41.321   4.711
99226W        W60889  27.462   7.336   3.385
99227W        W60890  23.139  31.059   0.925
99228W        W60891  26.589  13.201   3.333
99229W        W60892  29.943  28.976   1.268
99230W        W60893  20.157  44.998   2.749
99231W        W60894  22.602  37.069  12.860
99232W        W60895   6.190  39.521   0.435
99233W        W60896  40.040  31.418  13.971
99234W        W60897   1.936  39.452   2.888
99235W        W60898  13.297  27.152   1.851
99236W        W60899   1.785  10.289   4.237
99237W        W60900  22.705  31.509  13.450
99238W        W60901   2.430  41.896  11.404
99239W        W60902  19.769  18.183   0.294
99240W        W60903  10.210  42.808   2.216
99241W        W60904  44.987  31.470   2.203
99242W        W60905  19.085   6.700  11.456
99243W        W60906   6.681  15.327   0.363
99244W        W60907  42.447  29.662   4.714
99245W        W60908  39.058  32.078   0.737
99246W        W60909  34.966  23.511   9.961
99247W        W60910  31.556  34.497   3.153
99248W        W60911  27.130   3.838   0.964
99249W        W60912  39.361  12.645  12.871
99250W        W60913  29.618   8.162  14.399
99251W        W60914  12.742  25.519   2.811
99252W        W60915  42.326  19.137   4.832
99253W        W60916  37.558  22.508  10.954
99254W        W60917  28.486  15.810  14.969
99255W        W60918  24.673  12.307   0.864
99256W        W60919  22.627  35.379  10.509
99257W        W60920  33.992  39.916   3.634
99258W        W60921  31.997   4.445  10.420
99259W        W60922   0.416  26.639  13.993
99260W        W60923  11.746  28.469  14.832
99261W        W60924  40.850  38.900   1.741
99262W        W60925  43.366   2.762  13.866
99263W        W60926   1.468  20.216   3.204
99264W        W60927   4.257  27.490  13.870
99265W        W60928  39.915   7.775  14.418
99266W        W60929   6.270   9.723  12.440
99267W        W60930  32.589   0.409   0.316
99268W        W60931   0.287  41.467   3.640
99269W        W60932  24.701  19.761   0.356
99270W        W60933  29.030   7.791   4.226
99271W        W60934  10.224  35.911   0.306
99272W        W60935  44.837  12.139   2.765
99273W        W60936   3.906  22.027  12.349
99274W        W60937  29.063  22.143  10.615
99275W        W60938  17.147  27.951  12.345
99276W        W60939   9.831  18.218   2.338
99277W        W60940  15.700  14.320   0.397
99278W        W60941  21.238  18.237   1.790
99279W        W60942  15.169  42.403  10.905
99280W        W60943  23.733  32.588   4.605
99281W        W60944  23.229  39.426  10.925
99282W        W60945  41.948  36.956  14.770
99283W        W60946  20.135  16.762   3.725
99284W        W60947  20.636  24.993   1.738
99285W        W60948   3.837   7.682   3.741
99286W        W60949   7.288   7.828   0.896
99287W        W60950  22.683  29.657  11.554
99288W        W60951  36.414  39.881   3.849
99289W        W60952  44.987  18.697   0.945
99290W        W60953   6.893   6.236  14.391
99291W        W60954  28.554  38.012   1.245
99292W        W60955  34.982  27.651  14.401
99293W        W60956  16.678   8.213   0.748
99294W        W60957   1.834   7.667   3.668
99295W        W60958  21.083  44.982   3.690
99296W        W60959  34.085  26.105  13.520
99297W        W60960  17.094  22.663   1.702
99298W        W60961  30.958   3.918  14.794
99299W        W60962   5.870  27.071   2.685
99300W        W60963  16.144  26.539  12.922
99301W        W60964  27.559  42.371   1.836
99302W        W60965   3.927  10.861   0.947
99303W        W60966  38.965   4.806  13.945
99304W        W60967  36.981   4.251   4.140
99305W        W60968  14.622  12.833   4.187
99306W        W60969  41.473  35.574  13.797
99307W        W60970  29.426  39.928   2.749
99308W        W60971   8.763  34.474  14.966
99309W        W60972  20.123  12.673   5.098
99310W        W60973  32.034  40.948  11.580
99311W        W60974  29.930  29.601   3.272
99312W        W60975  17.720  42.357   1.787
99313W        W60976  32.063  44.315   1.760
99314W        W60977  33.958   1.248   2.750
99315W        W60978  11.274  16.103  12.923
99316W        W60979  37.531  11.274  12.410
99317W        W60980   9.351  35.358   0.800
99318W        W60981  30.547  36.427  11.071
99319W        W60982  36.352   2.900   4.129
99320W        W60983  31.577  19.219  11.553
99321W        W60984  12.670  33.510   2.877
99322W        W60985  38.530  26.206   0.766
99323W        W60986  39.444   4.776  10.627
99324W        W60987  20.053  43.304  10.916
99325W        W60988  38.353  18.233   3.725
99326W        W60989  24.198  22.091   4.233
99327W        W60990  26.010  36.567   3.342
99328W        W60991  31.634  11.622   4.346
99329W        W60992  40.386  27.638   0.838
99330W        W60993   1.264  11.287  14.919
99331W        W60994   2.233  29.558  13.386
99332W        W60995   2.262  41.822   4.768
99333W        W60996  18.742   8.804   4.254
99334W        W60997  40.408  23.048  11.914
99335W        W60998  31.130  33.054  14.992
99336W        W60999   7.811  36.901  11.402
99337W        W61000   4.276  39.386   2.765
99338W        W61001  31.521  27.495  12.361
99339W        W61002  20.080  28.561  14.899
99340W        W61003  11.339  22.222  12.418
99341W        W61004   2.399  19.122  10.908
99342W        W61005  29.638  31.501   3.632
99343W        W61006   1.853  32.553  11.873
99344W        W61007   0.756  27.981  11.474
99345W        W61008   9.277  35.058   0.321
99346W        W61009  26.012  41.873  14.284
99347W        W61010  27.578  43.286  13.826
99348W        W61011  42.949   1.950   0.314
99349W        W61012  12.763  26.582   4.693
99350W        W61013   0.801   8.771   4.605
99351W        W61014  15.261  36.092   4.834
99352W        W61015  26.188  14.259   1.707
99353W        W61016   4.218  13.322  13.987
99354W        W61017   8.366  20.073  14.456
99355W        W61018   4.318   3.274   1.888
99356W        W61019   9.686  27.450  13.851
99357W        W61020  19.654  29.519   4.617
99358W        W61021  41.802  44.896  14.835
99359W        W61022  26.146  19.580  10.489
99360W        W61023   6.735  39.478  12.887
99361W        W61024   7.780   4.395   0.886
99362W        W61025  26.951  19.170  13.799
99363W        W61026  31.151  21.089  11.457
99364W        W61027  41.421  11.283   0.729
99365W        W61028  36.552  34.554   4.702
99366W        W61029  42.819  26.078   4.323
99367W        W61030  33.550  30.546  10.609
99368W        W61031  37.417   9.835   2.809
99369W        W61032  16.613  44.956  13.805
99370W        W61033  33.000  29.923   0.409
99371W        W61034  37.022  22.059   3.860
99372W        W61035  21.710  24.705  13.892
99373W        W61036  43.408   8.255  11.054
99374W        W61037  18.215   0.389  10.979
99375W        W61038  10.847  23.680  13.353
99376W        W61039  17.120  22.034   4.608
99377W        W61040   5.321  24.114   1.330
99378W        W61041  16.128  20.234   4.254
99379W        W61042  21.655   7.767  14.412
99380W        W61043   1.253   5.404   2.254
99381W        W61044  13.277  32.559  11.591
99382W        W61045  35.056  10.872  12.569
99383W        W61046  28.140  34.485  14.969
99384W        W61047  19.084  26.150  13.386
99385W        W61048  39.028  17.307  12.488
99386W        W61049  38.928   1.302   2.743
99387W        W61050   0.388   2.438   2.362
99388W        W61051  31.466  16.108   1.265
99389W        W61052   3.709  38.423   3.277
99390W        W61053  20.562  38.886  12.897
99391W        W61054  16.783   3.459  10.448
99392W        W61055  17.169  28.055  10.119
99393W        W61056  22.096  43.019   4.655
99394W        W61057  21.694   0.844   2.869
99395W        W61058  17.079   9.854   0.454
99396W        W61059  23.037  42.995  13.346
99397W        W61060   8.887   0.413   4.299
99398W        W61061  32.453   1.342   3.717
99399W        W61062  12.136  44.424  14.959
99400W        W61063  40.314  33.523   1.813
99401W        W61064  17.612  28.165   3.327
99402W        W61065   6.812  34.502  11.430
99403W        W61066  16.783  39.392  12.833
99404W        W61067  36.045  34.870   3.812
99405W        W61068  43.990  10.789   5.314
99406W        W61069  17.675  24.564   1.232
99407W        W61070  35.965  38.451   4.666
99408W        W61071   1.316  16.665   4.209
99409W        W61072  23.175  26.510   3.841
99410W        W61073  23.143  23.165   3.308
99411W        W61074  28.986   9.703   0.760
99412W        W61075  13.780  23.511   4.695
99413W        W61076  33.087  14.692  10.901
99414W        W61077  30.077  43.390   1.304
99415W        W61078  28.617  42.915   3.244
99416W        W61079   1.973  10.235   3.733
99417W        W61080   7.748  31.440  11.875
99418W        W61081  11.311  26.197   4.773
99419W        W61082  19.187  41.416   0.326
99420W        W61083  13.622  30.994  11.455
99421W        W61084  22.578   9.224   1.264
99422W        W61085  40.011  15.614  10.445
99423W        W61086  17.086  32.497   0.922
99424W        W61087  11.334  36.465   0.753
99425W        W61088  29.519   4.775   0.959
99426W        W61089  23.113  28.128   0.838
99427W        W61090   2.290  34.994  12.540
99428W        W61091   0.432   4.902   3.856
99429W        W61092   6.923  14.127  12.876
99430W        W61093  36.439  31.930  13.328
99431W        W61094  32.516  31.143  13.421
99432W        W61095   5.911  42.840   4.665
99433W        W61096  15.747  29.079  12.850
99434W        W61097  27.578  39.942   2.694
99435W        W61098  22.180  28.593  14.315
99436W        W61099  33.385  21.255   0.400
99437W        W61100  23.156   7.178   1.767
99438W        W61101  30.009  18.756  12.978
99439W        W61102  13.730  13.842   3.699
99440W        W61103  38.423  44.786   0.404
99441W        W61104  40.330  16.586   0.432
99442W        W61105   4.701  17.608  12.569
99443W        W61106  38.498  11.747   0.947
99444W        W61107  16.249   3.889  11.959
99445W        W61108   4.801  30.571   1.327
99446W        W61109  32.092  43.765   1.421
99447W        W61110  21.738  11.174  10.484
99448W        W61111   4.395   6.372  11.612
99449W        W61112  29.006   7.244  11.877
99450W        W61113  33.623  19.668   3.755
99451W        W61114  23.702  14.199   2.309
99452W        W61115  11.211  44.754  14.942
99453W        W61116  28.083  26.979  13.335
99454W        W61117  29.098  12.852   2.209
99455W        W61118  28.136  17.592   4.203
99456W        W61119   9.326  29.429  12.995
99457W        W61120  31.131  18.109  13.439
99458W        W61121  19.280  12.331   9.958
99459W        W61122   7.700   5.723  12.027
99460W        W61123  22.144   5.817   4.691
99461W        W61124  16.238  18.698   0.269
99462W        W61125  32.964  37.920  11.378
99463W        W61126  13.658   7.825  14.835
99464W        W61127  33.042   7.719   2.809
99465W        W61128  16.293  10.320  12.961
99466W        W61129  27.692  26.616  11.998
99467W        W61130   2.758   2.834  14.820
99468W        W61131  21.186  41.510   3.735
99469W        W61132   9.768  18.599  14.330
99470W        W61133  28.664   5.216   0.342
99471W        W61134  43.468  16.650  10.493
99472W        W61135  14.188  24.662  12.490
99473W        W61136  28.449  10.741  12.358
99474W        W61137  43.022  40.443  10.447
99475W        W61138  32.446  22.204  13.841
99476W        W61139  35.414  30.086   2.857
99477W        W61140  26.041  35.497   0.451
99478W        W61141  10.165  16.199  10.928
99479W        W61142  12.692  17.775  13.503
99480W        W61143  34.480  33.517   1.884
99481W        W61144  12.763  14.640  11.980
99482W        W61145   6.827  19.743  14.484
99483W        W61146  15.762  15.771  12.070
99484W        W61147  34.588  14.683   3.358
99485W        W61148  38.478  25.048   0.871
99486W        W61149  38.838  37.047  14.966
99487W        W61150  36.508   8.339  14.351
99488W        W61151  32.986   1.343  11.048
99489W        W61152   6.278  36.560  10.926
99490W        W61153  39.370  34.472  12.824
99491W        W61154  37.867  33.006   4.644
99492W        W61155  13.210   9.252  12.864
99493W        W61156  14.605  32.011   2.198
99494W        W61157  16.692  18.752  12.961
99495W        W61158  23.570  11.245   3.793
99496W        W61159   5.307  23.634   2.869
99497W        W61160   9.750  34.460  13.836
99498W        W61161  28.576  19.627   1.748
99499W        W61162   8.817  34.376  12.555
99500W        W61163  40.442  42.023   2.843
99501W        W61164   7.396  28.612   2.376
99502W        W61165   4.417  20.677   1.738
99503W        W61166  10.800  26.631   4.147
99504W        W61167  28.145  37.364   2.413
99505W        W61168   2.442  23.535  13.932
99506W        W61169  18.737  40.011  13.425
99507W        W61170  16.653  18.212   0.788
99508W        W61171  36.589  27.572   0.337
99509W        W61172  21.174  11.228  10.574
99510W        W61173  10.257  17.115  13.848
99511W        W61174  41.503   2.916   1.932
99512W        W61175  21.556  22.016   2.887
99513W        W61176  16.690  44.831   2.853
99514W        W61177  16.702  24.497   4.696
99515W        W61178  32.948  38.022  13.313
99516W        W61179  38.018  25.561  11.909
99517W        W61180  29.929  41.022  14.983
99518W        W61181  42.867  27.150  11.509
99519W        W61182  40.935  28.023   2.274
99520W        W61183   2.445  22.700   1.306
99521W        W61184  19.766   6.862  12.421
99522W        W61185  42.891  24.558  10.489
99523W        W61186  35.446   4.377   1.354
99524W        W61187  33.430  22.034   2.210
99525W        W61188   1.769   1.389  12.016
99526W        W61189  26.467  31.467   2.845
99527W        W61190  42.779  37.840   2.898
99528W        W61191  37.943  19.732   1.794
99529W        W61192  16.169  29.929   4.608
99530W        W61193  35.861  41.006  10.631
99531W        W61194  32.569  32.019   1.391
99532W        W61195  28.053  21.675   3.213
99533W        W61196  28.564   0.478   2.181
99534W        W61197   8.287  18.740  13.941
99535W        W61198  12.338   6.312  14.408
99536W        W61199  38.528   6.811  11.082
99537W        W61200  33.974  13.704   0.318
99538W        W61201  29.012  35.529   1.789
99539W        W61202  42.417   6.845  10.573
99540W        W61203  40.835  38.392  11.495
99541W        W61204  37.940  26.532   0.368
99542W        W61205   8.191  21.687  11.590
99543W        W61206  16.197  10.269  12.477
99544W        W61207  11.195  19.544   1.357
99545W        W61208  36.057  18.189  14.013
99546W        W61209  33.977  35.360   4.746
99547W        W61210  16.787  23.160  11.413
99548W        W61211  41.332  38.542  11.397
99549W        W61212  13.186  22.624   4.131
99550W        W61213  21.039  37.374  12.346
99551W        W61214  18.288  37.496   0.818
99552W        W61215  36.953  16.272  12.401
99553W        W61216  22.586  12.833   4.177
99554W        W61217   7.192   7.349   1.739
99555W        W61218  44.474  31.638  11.000
99556W        W61219  28.434   8.370   2.741
99557W        W61220  18.684  29.612   2.846
99558W        W61221  36.351  44.435  12.453
99559W        W61222  44.906   2.921   4.614
99560W        W61223  31.453  38.846  13.454
99561W        W61224  21.674  44.007  10.621
99562W        W61225   2.331   2.928   0.928
99563W        W61226  34.036  37.496   3.207
99564W        W61227  21.566   8.736  10.471
99565W        W61228   8.376   5.433   0.793
99566W        W61229   9.369   6.683   4.623
99567W        W61230  44.387  38.527  14.353
99568W        W61231  15.743  29.922   1.415
99569W        W61232  38.413  27.467  13.985
99570W        W61233  40.325  12.147  11.501
99571W        W61234   6.415  15.188  13.854
99572W        W61235  11.128  15.109  11.026
99573W        W61236  27.678  44.372  12.520
99574W        W61237   7.683  10.237   0.393
99575W        W61238  34.935  32.588  11.987
99576W        W61239   3.878  37.457   1.312
99577W        W61240  26.042  15.809  13.805
99578W        W61241   3.786  11.275   2.774
99579W        W61242  33.082  11.152  10.626
99580W        W61243  13.746  29.448   2.778
99581W        W61244   3.712   1.966   2.383
99582W        W61245  27.686  20.626  13.034
99583W        W61246  42.933  22.622   4.653
99584W        W61247  17.164  32.960  14.985
99585W        W61248   5.300   8.811   1.338
99586W        W61249   1.254  14.279  13.473
99587W        W61250  38.887  15.765   0.264
99588W        W61251  18.281  21.557   1.287
99589W        W61252  10.677  38.865  14.994
99590W        W61253  15.205  33.954  10.471
99591W        W61254  25.148  10.876   2.202
99592W        W61255  42.488  10.259   1.815
99593W        W61256   1.322  32.902  13.330
99594W        W61257  18.556  30.053  13.940
99595W        W61258  35.447   3.398  13.874
99596W        W61259  33.492  42.433  11.413
99597W        W61260   8.789  14.283   3.812
99598W        W61261  32.474  34.543   4.737
99599W        W61262  34.889   9.811   1.355
99600W        W61263   7.708  34.504  13.864
99601W        W61264  21.578  33.005   2.299
99602W        W61265  45.000  10.139   0.393
99603W        W61266  40.477  41.314  12.375
99604W        W61267  15.766  33.380   0.456
99605W        W61268   5.268  23.111  14.485
99606W        W61269   4.877  19.188  10.572
99607W        W61270   5.696  37.847  10.949
99608W        W61271   2.341   0.410   0.886
99609W        W61272  12.713  11.162   2.822
99610W        W61273  17.069  24.153  10.938
99611W        W61274  17.246  27.110   1.291
99612W        W61275  36.997  22.251   3.387
99613W        W61276  33.095  27.042  11.453
99614W        W61277  25.162  23.696  13.919
99615W        W61278   8.667  17.186  12.909
99616W        W61279  24.615   9.830  13.062
99617W        W61280   2.365  30.019   2.357
99618W        W61281  34.077   5.353  10.083
99619W        W61282  22.095  44.907  13.455
99620W        W61283  29.540   8.167  11.924
99621W        W61284  40.870   9.857   3.251
99622W        W61285  20.127  24.547  14.852
99623W        W61286   3.931  39.992  11.866
99624W        W61287  44.344  12.310  12.902
99625W        W61288  43.418  20.137  14.005
99626W        W61289  37.069  27.483  12.054
99627W        W61290  28.056  17.270   2.718
99628W        W61291  15.110  23.545   4.804
99629W        W61292   3.756  26.504  12.473
99630W        W61293  35.468   1.478   1.228
99631W        W61294   0.923  21.743   1.446
99632W        W61295  40.051  13.657  11.043
99633W        W61296  10.781  30.462  14.818
99634W        W61297  24.552   7.263  13.860
99635W        W61298  18.106  20.262  14.280
99636W        W61299  32.049   1.924  14.875
99637W        W61300  34.016  44.505   3.381
99638W        W61301  16.112   2.429   2.749
99639W        W61302  40.490   5.785  11.434
99640W        W61303  33.385  17.072  12.038
99641W        W61304  20.034  29.058   0.816
99642W        W61305   5.738  28.624  12.578
99643W        W61306   0.494  34.952   3.201
99644W        W61307   5.372  29.639  14.811
99645W        W61308  29.996  10.694   2.699
99646W        W61309  16.183  35.483   1.273
99647W        W61310  22.141   0.310  13.339
99648W        W61311   1.275  31.126  11.018
99649W        W61312  22.718   7.291  10.024
99650W        W61313  40.044   2.380  11.603
99651W        W61314  26.049  38.455  10.446
99652W        W61315  43.359   6.846   4.645
99653W        W61316  25.485  37.364   0.768
99654W        W61317  34.892  44.438   3.757
99655W        W61318   0.874  15.284   2.344
99656W        W61319  37.427  33.507  11.970
99657W        W61320  33.397  12.815  13.379
99658W        W61321  27.528  40.322   2.257
99659W        W61322  32.977   6.322   3.723
99660W        W61323   5.806   8.782   2.242
99661W        W61324  35.958  21.154  13.475
99662W        W61325  19.568  20.223  14.887
99663W        W61326  41.030  42.464  13.845
99664W        W61327  28.436  39.460   1.226
99665W        W61328  28.481  35.903   2.710
99666W        W61329  42.318  37.385   3.300
99667W        W61330  12.330  25.059  10.893
99668W        W61331  38.073  24.095   0.944
99669W        W61332  17.093  32.503  14.378
99670W        W61333   8.817  44.287  13.309
99671W        W61334  37.842   0.442  12.953
99672W        W61335  30.086  17.306  13.436
99673W        W61336  31.502  12.208  12.927
99674W        W61337  41.478  14.599  14.285
99675W        W61338   2.848  15.235  14.491
99676W        W61339  34.483  36.403  13.061
99677W        W61340   6.789  35.044   0.466
99678W        W61341   1.477  33.603   4.337
99679W        W61342  44.299  13.229   2.361
99680W        W61343  24.045  44.346   3.302
99681W        W61344  26.585   4.794   1.843
99682W        W61345  26.608  39.989   0.942
99683W        W61346   6.800   4.286  12.979
99684W        W61347  32.051  34.580  14.414
99685W        W61348  38.970  22.112  13.016
99686W        W61349  22.747  28.005   4.792
99687W        W61350   1.745  21.640   2.763
99688W        W61351  18.138  14.707  13.804
99689W        W61352  31.086  44.992  13.846
99690W        W61353  16.113   4.773   1.285
99691W        W61354  42.792  40.980  13.519
99692W        W61355  31.902  23.067   1.884
99693W        W61356   7.717  13.793  12.503
99694W        W61357  13.225  33.618   1.327
99695W        W61358   2.780  23.610   3.708
99696W        W61359  37.407   0.752   1.411
99697W        W61360  44.310  38.888  14.289
99698W        W61361  27.049  11.845  11.128
99699W        W61362   0.389  12.217  13.025
99700W        W61363  17.206  40.541  11.515
99701W        W61364   8.210  25.688  13.485
99702W        W61365   8.752  32.506  14.438
99703W        W61366  28.079   7.910   3.700
99704W        W61367  36.591  29.643   3.767
99705W        W61368  35.391  27.009   1.890
99706W        W61369  42.893  42.928   3.629
99707W        W61370   2.374  33.900   4.222
99708W        W61371   1.858  17.699   0.254
99709W        W61372  32.397  27.165  14.977
99710W        W61373  37.046   0.970   1.803
99711W        W61374  43.802  10.250  11.104
99712W        W61375  20.647  33.046   1.837
99713W        W61376  18.241  36.964   4.143
99714W        W61377  32.117  14.683   1.253
99715W        W61378   1.253  20.693   4.651
99716W        W61379  13.157  42.776   1.770
99717W        W61380  41.792   5.810   0.301
99718W        W61381  30.065  20.714  10.409
99719W        W61382  34.463  30.557   3.237
99720W        W61383   3.774  34.478  12.436
99721W        W61384  14.594   1.748   3.778
99722W        W61385  38.869  31.089   4.653
99723W        W61386  12.255   4.705   3.770
99724W        W61387  30.041  13.812   1.355
99725W        W61388  12.342  16.266  12.916
99726W        W61389   0.944  16.166  10.054
99727W        W61390  34.914  29.548   0.357
99728W        W61391  12.846  41.864   2.712
99729W        W61392   6.352  32.014   4.232
99730W        W61393  38.881  18.652   1.739
99731W        W61394  25.477  29.473   5.111
99732W        W61395  24.617  39.843   5.713
99733W        W61396  25.646  28.002  13.986
99734W        W61397  13.824  38.505  14.414
99735W        W61398  19.637  30.445  14.950
99736W        W61399  19.111  37.346   4.763
99737W        W61400   6.705   0.770  13.515
99738W        W61401  22.588  38.994  14.402
99739W        W61402  16.158  37.920   4.837
99740W        W61403  17.773  15.651  14.501
99741W        W61404  10.723  19.142  12.573
99742W        W61405  16.210  21.560  13.020
99743W        W61406  18.630  13.261  12.391
99744W        W61407  30.061  15.195  13.320
99745W        W61408  38.367  33.012  11.950
99746W        W61409  44.832  25.488   0.806
99747W        W61410  18.770  13.672   0.270
99748W        W61411  26.043  13.621   1.767
99749W        W61412  19.276  13.276   4.215
99750W        W61413  38.434   9.792  10.557
99751W        W61414  27.174  20.067   1.733
99752W        W61415  24.223  12.807  14.301
99753W        W61416  30.593   6.262  13.808
99754W        W61417   8.360   6.712  13.986
99755W        W61418   6.919  29.488  14.931
99756W        W61419  26.180  29.624  11.966
99757W        W61420  41.796  22.634  13.956
99758W        W61421   5.917   8.361  10.427
99759W        W61422  28.095  25.498   2.194
99760W        W61423  15.328  16.586  14.897
99761W        W61424  37.924  18.256  14.445
99762W        W61425  38.037  30.059   3.291
99763W        W61426  36.849   7.755  10.121
99764W        W61427   4.235  24.007   3.371
99765W        W61428  41.977  38.910  13.500
99766W        W61429  23.600  33.420   0.906
99767W        W61430  44.945  15.682   1.260
99768W        W61431  21.133  31.567   3.182
99769W        W61432  36.896   1.789   0.786
99770W        W61433  22.647  37.047   1.886
99771W        W61434  27.021   9.296  13.862
99772W        W61435  18.196  36.886  13.376
99773W        W61436  16.777  42.434  14.032
99774W        W61437  10.634  43.997   1.351
99775W        W61438  28.489   3.404   3.841
99776W        W61439  11.700  31.499  12.378
99777W        W61440  28.035  38.964   2.265
99778W        W61441   4.210  12.829   1.348
99779W        W61442   8.679  13.750   4.323
99780W        W61443  37.887  11.820   2.900
99781W        W61444  26.541  13.665  10.412
99782W        W61445  35.573  33.404   2.801
99783W        W61446  11.722  17.238   1.912
99784W        W61447  29.646  38.884   0.450
99785W        W61448   6.334  16.210  14.032
99786W        W61449  18.162  39.340   2.795
99787W        W61450  18.224  19.750  12.009
99788W        W61451   3.721  21.711  11.427
99789W        W61452  12.247  38.464  12.999
99790W        W61453  21.153  17.139   2.768
99791W        W61454   0.987  25.071  13.838
99792W        W61455  13.791  12.228   1.807
99793W        W61456  14.157  13.602   2.317
99794W        W61457  23.999  26.107   0.397
99795W        W61458  12.357   3.748  14.791
99796W        W61459  25.701  13.165   3.175
99797W        W61460  15.732  13.182  14.857
99798W        W61461  31.023  38.351   2.394
99799W        W61462   7.829  14.237  13.468
99800W        W61463  44.372  36.520   0.963
99801W        W61464  12.793  22.214  13.907
99802W        W61465  27.162  29.500   2.237
99803W        W61466  15.678   3.408  14.986
99804W        W61467  20.610  26.208  14.478
99805W        W61468  39.864  43.410   0.920
99806W        W61469  13.810  21.633   1.359
99807W        W61470  25.711  30.024   4.185
99808W        W61471  24.989  27.083   3.179
99809W        W61472  39.449  18.773  11.430
99810W        W61473  21.174  36.928   2.731
99811W        W61474  24.512   9.768  14.009
99812W        W61475  18.572  23.051   3.781
99813W        W61476  35.968  22.679  12.536
99814W        W61477  32.494  12.312   2.407
99815W        W61478  39.060  11.838  11.531
99816W        W61479  21.729  28.988  12.547
99817W        W61480  34.988  18.585   0.950
99818W        W61481  40.813   4.782  12.380
99819W        W61482  38.885  22.648   0.267
99820W        W61483  41.931  22.039   0.916
99821W        W61484  22.216  33.049   1.783
99822W        W61485  15.662   3.839  13.955
99823W        W61486  22.714  18.117   1.771
99824W        W61487  22.126  10.744   1.727
99825W        W61488  18.215  42.795   1.335
99826W        W61489   8.751   1.334   2.373
99827W        W61490  44.880  28.669  13.429
99828W        W61491  43.958  23.571  14.409
99829W        W61492  23.989   9.697  11.064
99830W        W61493   0.951  24.997   4.604
99831W        W61494  11.219  40.458  13.361
99832W        W61495  34.911  12.339   4.205
99833W        W61496  39.923  42.493   3.203
99834W        W61497  28.569  16.652  12.510
99835W        W61498   6.261  35.001  13.898
99836W        W61499  40.332  13.259  10.161
99837W        W61500   5.230   5.736   2.200
99838W        W61501   9.737  33.543   3.354
99839W        W61502  28.585  36.543   4.660
99840W        W61503   3.277  26.167   4.258
99841W        W61504  37.900   9.295   3.290
99842W        W61505   0.958  32.908   2.362
99843W        W61506  15.753  20.108  14.947
99844W        W61507  12.730  37.088   3.322
99845W        W61508  44.342  27.948   4.760
99846W        W61509  26.487  23.212   0.883
99847W        W61510  33.082  32.521  11.585
99848W        W61511   1.786  34.890  14.919
99849W        W61512  25.185  16.622   1.318
99850W        W61513  28.177  25.138   4.223
99851W        W61514  21.637   6.245  14.328
99852W        W61515  18.295  16.617   0.264
99853W        W61516  30.657  19.607   4.698
99854W        W61517  24.598  25.613  12.093
99855W        W61518  43.953  31.940  13.977
99856W        W61519  13.820   4.937  11.486
99857W        W61520  33.078  32.608   2.893
99858W        W61521  28.529  12.127  10.489
99859W        W61522   6.886  39.027   1.307
99860W        W61523  35.019  33.080   1.354
99861W        W61524  37.057   8.709  14.432
99862W        W61525  14.150  35.367   3.835
99863W        W61526  36.512  37.478  13.318
99864W        W61527   2.941  13.657   4.827
99865W        W61528  44.356  23.188   0.259
99866W        W61529  40.886  27.544   3.741
99867W        W61530  38.987  30.057  10.549
99868W        W61531  41.807  18.767   3.805
99869W        W61532  26.486  15.601  12.939
99870W        W61533   1.461  44.799  12.347
99871W        W61534  41.328  12.268  12.393
99872W        W61535  27.108  33.464   0.450
99873W        W61536  25.017  17.568   4.157
99874W        W61537  44.260   3.343  12.083
99875W        W61538  18.555  13.697   9.523
99876W        W61539  27.647   2.438   0.444
99877W        W61540  30.459  24.564  14.950
99878W        W61541  41.510  21.213   0.894
99879W        W61542  13.827   1.760   0.798
99880W        W61543  21.673   5.227  13.006
99881W        W61544  44.880  24.119   2.339
99882W        W61545  28.677  26.112  11.600
99883W        W61546  10.227  27.076  13.469
99884W        W61547  27.046   8.380   4.190
99885W        W61548  22.151   2.898  13.466
99886W        W61549   5.351   8.841   4.807
99887W        W61550   3.461   6.791  11.559
99888W        W61551  21.548  33.510   2.254
99889W        W61552   3.339  40.995  12.881
99890W        W61553  44.988  16.075   0.315
99891W        W61554  23.053  32.107  10.608
99892W        W61555  20.647   7.780  11.391
99893W        W61556   2.794  24.011   4.171
99894W        W61557  39.867  36.420  13.886
99895W        W61558  40.882  37.982   3.665
99896W        W61559  26.988  27.079  11.876
99897W        W61560  27.155  14.590   3.770
99898W        W61561   6.742  33.969  14.982
99899W        W61562  36.397  32.017  12.462
99900W        W61563  24.978  24.143   2.180
99901W        W61564  43.825   3.779  13.518
99902W        W61565   2.367   2.721   3.863
99903W        W61566  11.190  36.395   4.659
99904W        W61567  41.858  37.492  14.446
99905W        W61568  38.849  18.635   2.206
99906W        W61569  43.482  36.874  14.427
99907W        W61570  11.189  38.065   0.278
99908W        W61571   5.727  11.627  14.482
99909W        W61572  19.255  29.660   1.918
99910W        W61573  24.722  33.623  11.529
99911W        W61574  33.564  21.210   2.348
99912W        W61575  33.939  21.527   2.201
99913W        W61576  43.452  28.097   3.364
99914W        W61577  11.242   0.867  12.060
99915W        W61578   1.358  27.945   4.151
99916W        W61579  41.910  29.465   3.187
99917W        W61580  15.089   4.788  13.977
99918W        W61581  33.034  17.118  11.988
99919W        W61582  32.913  18.625  11.920
99920W        W61583  44.440  15.329   4.684
99921W        W61584   2.376  29.564  14.964
99922W        W61585  25.481   5.739  13.417
99923W        W61586  42.939  30.981   2.865
99924W        W61587  39.352   7.230   1.831
99925W        W61588   4.902   7.394  12.059
99926W        W61589  13.238  28.963  14.977
99927W        W61590  36.959  44.994  14.800
99928W        W61591   5.251  43.444  10.945
99929W        W61592  10.315  22.690   2.342
99930W        W61593  28.003   3.321  13.339
99931W        W61594  41.018  24.137  12.340
99932W        W61595   3.800   8.662   4.124
99933W        W61596  41.340   8.170  13.988
99934W        W61597   0.940  31.447  12.381
99935W        W61598   8.388  21.103  11.479
99936W        W61599  12.129  42.848  12.438
99937W        W61600  41.955  12.669  11.528
99938W        W61601  12.148   9.336  12.516
99939W        W61602   6.345  23.706   4.167
99940W        W61603  18.150  30.612   3.796
99941W        W61604   6.406   4.773  14.441
99942W        W61605  36.440  31.968   5.083
99943W        W61606   4.268   7.271   1.275
99944W        W61607   8.183  12.139   3.277
99945W        W61608  19.086   4.747  13.521
99946W        W61609  16.280  11.308   0.762
99947W        W61610   5.765   3.720   1.381
99948W        W61611  18.105   3.244  11.024
99949W        W61612  17.295  13.334   2.312
99950W        W61613  14.116  41.304   0.284
99951W        W61614  38.918  19.205   1.799
99952W        W61615   6.237  12.810   4.174
99953W        W61616  28.673  33.024  10.613
99954W        W61617  26.045   1.416   3.778
99955W        W61618  24.113  38.448  10.541
99956W        W61619  31.046  12.210   0.393
99957W        W61620   3.833   3.746  12.359
99958W        W61621  19.643  42.417   1.210
99959W        W61622  29.116  38.038   2.297
99960W        W61623  15.127   2.885  12.838
99961W        W61624  18.229   7.704  13.833
99962W        W61625  22.130  17.738   0.435
99963W        W61626  32.518  40.437  12.032
99964W        W61627  42.449  41.445  11.091
99965W        W61628  28.667  16.076   4.603
99966W        W61629  17.722  13.192  10.472
99967W        W61630   8.263  11.699   2.379
99968W        W61631  17.155  15.203  14.412
99969W        W61632  43.999  23.992  13.435
99970W        W61633  15.110  14.825   0.868
99971W        W61634   5.347  41.410   5.299
99972W        W61635  42.824   3.318   2.315
99973W        W61636   2.429  40.017  11.440
99974W        W61637  31.093  13.810  14.981
99975W        W61638  13.618   5.894  11.972
99976W        W61639  39.459  41.423  12.925
99977W        W61640  29.143  18.261   0.854
99978W        W61641   4.747  28.581   3.765
99979W        W61642   0.469   2.322   4.210
99980W        W61643  43.963  11.816   4.178
99981W        W61644  34.923  28.029   3.347
99982W        W61645  27.596   5.911   4.352
99983W        W61646  34.871  37.475  10.026
99984W        W61647   1.393  44.918   1.277
99985W        W61648  11.741  30.024  10.504
99986W        W61649  26.616  37.579  11.096
99987W        W61650   3.426  14.687   4.781
99988W        W61651   9.645   0.260  14.401
99989W        W61652  20.618  24.162   0.957
99990W        W61653  19.665  37.024   4.188
99991W        W61654  21.222  28.481  11.062
99992W        W61655  26.585   4.419  10.066
99993W        W61656  15.768   6.227  12.945
99994W        W61657  44.294  24.644  10.955
99995W        W61658  26.457  18.624  11.407
99996W        W61659  43.452  43.001  11.002
99997W        W61660  11.312  20.677   3.862
99998W        W61661  15.126   4.255   0.381
99999W        W61662  16.317  15.761  11.424
    0W        W61663  25.103  11.625  13.990
    1W        W61664  29.922  37.071   2.717
    2W        W61665  26.119  44.869   2.779
    3W        W61666  32.138   2.801   3.833
    4W        W61667  23.587   1.845   5.205
    5W        W61668   9.225   6.874   2.668
    6W        W61669  23.561  35.415   4.235
    7W        W61670  13.799  15.088   1.830
    8W        W61671   6.693  31.938   3.300
    9W        W61672  41.809  23.030  13.915
   10W        W61673   0.746  27.486   4.317
   11W        W61674  14.293  37.415   0.418
   12W        W61675   0.434  43.398   4.207
   13W        W61676  30.084  23.539  14.335
   14W        W61677  26.627  34.876  11.947
   15W        W61678   9.278  14.777  12.578
   16W        W61679   7.229  41.971  14.382
   17W        W61680  43.370   1.461   4.339
   18W        W61681  24.548  10.791   1.741
   19W        W61682  29.539  41.480   5.297
   20W        W61683  32.084  35.492   1.446
   21W        W61684  34.038   7.704  13.063
   22W        W61685  21.224  24.021  13.830
   23W        W61686   3.821  11.805   4.642
   24W        W61687  18.595  35.528  13.858
   25W        W61688  31.483   8.199   9.603
   26W        W61689  44.315  24.179   1.331
   27W        W61690   0.972  42.441  11.508
   28W        W61691  39.360  14.681  12.942
   29W        W61692  35.997  19.612  13.922
   30W        W61693  40.517  26.575   2.386
   31W        W61694  22.669  42.916   0.796
   32W        W61695  37.469   1.796  10.037
   33W        W61696   5.758   6.372   2.239
   34W        W61697  34.054   5.825   5.672
   35W        W61698  33.006  26.009   4.732
   36W        W61699  34.116  22.608  10.958
   37W        W61700  23.559   7.213  14.373
   38W        W61701  39.062   6.227   4.302
   39W        W61702   2.869  22.094   1.705
   40W        W61703  29.534  22.567   4.755
   41W        W61704   4.285   8.284   3.157
   42W        W61705  15.666   1.959  10.414
   43W        W61706  24.540  29.441  10.604
   44W        W61707   3.311   5.304   3.826
   45W        W61708   9.206   9.703   2.254
   46W        W61709  25.610  36.553  12.972
   47W        W61710   6.787  42.887   4.117
   48W        W61711  38.445  19.131   3.354
   49W        W61712  42.852  28.977  13.960
   50W        W61713  43.304  29.094  13.539
   51W        W61714  26.553  42.994   1.871
   52W        W61715  22.067  30.460  12.386
   53W        W61716   0.918   7.884   0.936
   54W        W61717  16.761  11.129  12.469
   55W        W61718  37.049  27.649  13.853
   56W        W61719  38.948   6.361   4.743
   57W        W61720  44.502  25.972   2.862
   58W        W61721   2.845  33.520   0.921
   59W        W61722  19.080   2.739   3.372
   60W        W61723  29.636  25.005  10.582
   61W        W61724   3.225  28.147  11.533
   62W        W61725  22.578  17.128   1.214
   63W        W61726   4.330  33.497  11.379
   64W        W61727  30.622  32.551   1.425
   65W        W61728   9.703   4.356   3.844
   66W        W61729  13.293  19.132   0.315
   67W        W61730   9.174  40.439  13.386
   68W        W61731  42.787  38.392   0.468
   69W        W61732  36.477  38.971   3.758
   70W        W61733   4.224  41.798   2.901
   71W        W61734  39.369  11.138  11.484
   72W        W61735   6.348  32.501   3.766
   73W        W61736   1.880  39.460  13.045
   74W        W61737   5.313  44.830  14.784
   75W        W61738  12.174   1.816  12.463
   76W        W61739  33.419  40.883   0.907
   77W        W61740  26.971  15.816  10.525
   78W        W61741  19.281  17.765  14.316
   79W        W61742  17.265  26.140  12.412
   80W        W61743  14.679   9.746  12.350
   81W        W61744  41.839   1.242   3.146
   82W        W61745  11.292   3.377   2.370
   83W        W61746  41.836  12.802  12.034
   84W        W61747  36.883   0.765  11.459
   85W        W61748  34.052  13.845   3.788
   86W        W61749  13.263  16.274  13.443
   87W        W61750   9.752  43.478   1.853
   88W        W61751  39.867   2.465  11.097
   89W        W61752  26.616  33.948  10.963
   90W        W61753  40.959  21.669   3.169
   91W        W61754  23.633  29.165   0.896
   92W        W61755  11.310  19.052   0.294
   93W        W61756  33.408   3.755  10.967
   94W        W61757   2.920  20.630  12.375
   95W        W61758  38.013  18.606  13.541
   96W        W61759  24.646  25.640   2.829
   97W        W61760  27.688   7.287  11.600
   98W        W61761   9.790  28.484  11.529
   99W        W61762  18.670  14.318   4.155
  100W        W61763  41.451  17.239  12.032
  101W        W61764  33.484  16.802  11.586
  102W        W61765  21.034  21.240  14.376
  103W        W61766  44.479  14.111  14.308
  104W        W61767  17.592  20.123  11.105
  105W        W61768  27.182  28.574   1.827
  106W        W61769  43.344  41.445  13.442
  107W        W61770  37.962  11.256  13.873
  108W        W61771  23.240  42.482  14.887
  109W        W61772  22.006   4.354  12.401
  110W        W61773  12.265   7.246   9.461
  111W        W61774   2.269  21.238  10.071
  112W        W61775  15.618  16.277  14.802
  113W        W61776  17.680  40.337  14.822
  114W        W61777   6.259   0.970   3.198
  115W        W61778  33.025  39.983   1.433
  116W        W61779   0.445  44.870  11.592
  117W        W61780   4.742   8.732   0.334
  118W        W61781  14.814   3.382   5.225
  119W        W61782  23.051  20.682   3.760
  120W        W61783   2.460  35.514  13.972
  121W        W61784   0.820  32.406   4.252
  122W        W61785  28.168  41.897   2.670
  123W        W61786   8.309  10.747   3.756
  124W        W61787  30.580  37.859   2.255
  125W        W61788  43.825  22.099  13.017
  126W        W61789   2.734  31.013   1.268
  127W        W61790  30.514  38.385   2.236
  128W        W61791   9.723   1.907  14.786
  129W        W61792  42.924  17.063   4.226
  130W        W61793  21.617   1.745   2.809
  131W        W61794   9.355  25.023  13.334
  132W        W61795  13.769  22.526   2.770
  133W        W61796  21.258  40.885   4.621
  134W        W61797  36.030  39.031   0.331
  135W        W61798  32.986  14.671  13.857
  136W        W61799  17.062  25.215  14.331
  137W        W61800   1.323  43.826  13.875
  138W        W61801  35.408  30.027  14.420
  139W        W61802  39.043  29.571   0.472
  140W        W61803   3.352   6.869   4.189
  141W        W61804  44.786  20.766   3.148
  142W        W61805   6.802   2.844  11.899
  143W        W61806   0.408  14.639  12.918
  144W        W61807   2.962  31.005   0.325
  145W        W61808   0.309   1.438   3.736
  146W        W61809  29.919  12.853  12.501
  147W        W61810  34.913  37.939   4.190
  148W        W61811  35.908  11.799   4.609
  149W        W61812  20.065   8.693  11.484
  150W        W61813   6.789   9.201   0.393
  151W        W61814  37.539  33.590   0.338
  152W        W61815   7.771   4.426  13.916
  153W        W61816  12.669  23.126  13.056
  154W        W61817  42.454  16.804   1.715
  155W        W61818  10.877  22.586   4.817
  156W        W61819  43.384  40.497   1.769
  157W        W61820  26.156  34.956   4.170
  158W        W61821  30.521  19.261  14.819
  159W        W61822  21.221   9.226   1.800
  160W        W61823  34.093  37.016   2.742
  161W        W61824  42.782  23.212   4.838
  162W        W61825   7.331  10.702   0.360
  163W        W61826  23.153  33.576  12.862
  164W        W61827  29.162  28.558  14.839
  165W        W61828  33.512  13.267   2.389
  166W        W61829  32.591  16.748   2.772
  167W        W61830  29.647  10.277   4.785
  168W        W61831  10.207  26.585  12.464
  169W        W61832  19.700  29.620  14.431
  170W        W61833  32.541   9.257   0.899
  171W        W61834   6.187   0.287   9.983
  172W        W61835  23.231   5.345   4.142
  173W        W61836   6.181   2.946   4.753
  174W        W61837   9.853   0.924  11.402
  175W        W61838  30.432  40.026   1.710
  176W        W61839  13.273  36.394   1.373
  177W        W61840  24.482  23.240   3.147
  178W        W61841  37.981  10.704   3.180
  179W        W61842  26.579  32.931  13.006
  180W        W61843  35.089  43.504  14.864
  181W        W61844  30.464  20.631   5.220
  182W        W61845  28.500  12.835  12.353
  183W        W61846  18.116  18.593   1.241
  184W        W61847  36.979  39.994   3.256
  185W        W61848   4.770  29.117   4.808
  186W        W61849   2.740  44.408  14.881
  187W        W61850   2.736   9.229  13.452
  188W        W61851  17.762  27.113   0.926
  189W        W61852   0.854  21.151   3.233
  190W        W61853  26.965  29.513  10.131
  191W        W61854  26.021  44.785   4.776
  192W        W61855  21.222  44.963  14.971
  193W        W61856  10.715  43.374  13.511
  194W        W61857  21.095  12.791   1.393
  195W        W61858  31.897  29.145   4.750
  196W        W61859  24.634  28.145   4.199
  197W        W61860  19.060  16.573   2.392
  198W        W61861   1.457  43.420   2.391
  199W        W61862   8.257  33.888  11.987
  200W        W61863  24.197  16.241   1.247
  201W        W61864   0.809  42.796   3.675
  202W        W61865  32.403   3.433   3.173
  203W        W61866  21.714  33.611  10.115
  204W        W61867   6.883  29.560  13.895
  205W        W61868  11.345  44.934  11.599
  206W        W61869   9.166  22.238   3.758
  207W        W61870   1.779   4.926   2.301
  208W        W61871   8.820  11.845   1.313
  209W        W61872   2.758  26.685   4.307
  210W        W61873   4.268   7.228  10.581
  211W        W61874  19.197   0.915   3.832
  212W        W61875  41.905   1.944   3.154
  213W        W61876  13.218   8.370   3.275
  214W        W61877  21.617   6.346  12.850
  215W        W61878  38.903   9.334   0.829
  216W        W61879  37.844  37.534  13.947
  217W        W61880  23.654   0.257  13.061
  218W        W61881   2.905   2.738   1.296
  219W        W61882  14.742  14.720  11.379
  220W        W61883  22.017  11.136  14.327
  221W        W61884  13.610  35.940  13.346
  222W        W61885  23.593   5.701  13.398
  223W        W61886  32.068  41.501  10.621
  224W        W61887  26.053  34.877  10.556
  225W        W61888  37.374  14.174   1.824
  226W        W61889  29.057   5.849   3.772
  227W        W61890  11.715  32.982  14.320
  228W        W61891  19.758  30.123  12.933
  229W        W61892   7.749  44.756   3.813
  230W        W61893  38.464  17.214  11.459
  231W        W61894  21.259  31.944   9.967
  232W        W61895  27.151  32.425  13.405
  233W        W61896   0.918  38.477   3.308
  234W        W61897  33.570  29.121   2.837
  235W        W61898  39.892  26.978  12.484
  236W        W61899  39.037   3.402   4.164
  237W        W61900   0.963  22.055   4.728
  238W        W61901  23.602  27.021  13.055
  239W        W61902  26.609   7.293   0.854
  240W        W61903  43.764  15.706  12.385
  241W        W61904  14.274  38.062   2.339
  242W        W61905  35.857   8.168  12.989
  243W        W61906  10.214   2.236  10.942
  244W        W61907  38.972  37.896   1.281
  245W        W61908  14.692  20.237   3.821
  246W        W61909  43.973  11.654   1.829
  247W        W61910   4.702  10.808  12.918
  248W        W61911  19.741  37.557  14.416
  249W        W61912  44.410   1.335  14.848
  250W        W61913  28.588  23.136  12.379
  251W        W61914  39.988  28.584  12.886
  252W        W61915  18.731  43.957   1.356
  253W        W61916   7.387  38.375   2.209
  254W        W61917  30.607  36.505   0.953
  255W        W61918  27.621  29.458  13.841
  256W        W61919   4.869  25.125  10.158
  257W        W61920  29.924  16.760   3.728
  258W        W61921  40.895   1.743  14.902
  259W        W61922   6.306  12.185   4.782
  260W        W61923  25.011  40.899   0.909
  261W        W61924  22.181  43.780  12.027
  262W        W61925  18.547  17.280   3.379
  263W        W61926  31.085  16.619  10.057
  264W        W61927  38.903  25.609   4.655
  265W        W61928  28.574  22.513   3.309
  266W        W61929   2.263  14.196   3.170
  267W        W61930  43.273  35.886  11.048
  268W        W61931  36.427  17.742   0.953
  269W        W61932  19.552   6.283   1.873
  270W        W61933  35.937  30.482   3.255
  271W        W61934  43.860   1.784   0.476
  272W        W61935   3.299  10.647   2.273
  273W        W61936  21.037  28.592   1.927
  274W        W61937  34.456   8.361  11.049
  275W        W61938  11.741  41.336   3.316
  276W        W61939   6.225  31.468  11.907
  277W        W61940  36.367   1.891  12.860
  278W        W61941  12.625  36.560  14.448
  279W        W61942  26.512   8.217  10.459
  280W        W61943   0.972  27.096  12.005
  281W        W61944  11.661  40.816   4.202
  282W        W61945  34.424   0.837   1.324
  283W        W61946  31.426  33.909   2.266
  284W        W61947  32.002  39.423   0.364
  285W        W61948  35.904   7.344  13.874
  286W        W61949  18.661  35.479   3.345
  287W        W61950  25.120  26.031   1.907
  288W        W61951  26.491  10.720  12.067
  289W        W61952   0.479  23.139  13.906
  290W        W61953  11.635  22.088   4.202
  291W        W61954  34.885  32.132   3.857
  292W        W61955  13.791   8.348   5.310
  293W        W61956  14.590  22.547  10.001
  294W        W61957  10.652  38.040  12.024
  295W        W61958  23.662  23.600   0.331
  296W        W61959  14.711  26.993   4.274
  297W        W61960  20.635  25.189   1.445
  298W        W61961  21.112  29.017  10.436
  299W        W61962   0.757  13.844   4.605
  300W        W61963  34.946  19.194   2.750
  301W        W61964   9.308  26.677  11.115
  302W        W61965  31.403  39.960  13.352
  303W        W61966   4.248  20.665  12.036
  304W        W61967  17.073  27.099   1.821
  305W        W61968  18.763  27.448   3.147
  306W        W61969   8.762  26.581   1.371
  307W        W61970  30.421  13.712  12.414
  308W        W61971  18.145  43.318  13.001
  309W        W61972  40.017  37.915  12.461
  310W        W61973  37.071  41.468   2.750
  311W        W61974  37.003  23.649   3.781
  312W        W61975  28.595   9.338   4.153
  313W        W61976  11.267  25.096  13.385
  314W        W61977  44.840  17.109   3.865
  315W        W61978   7.330   4.242  14.018
  316W        W61979  27.047  26.201   4.664
  317W        W61980  36.352   2.896  12.388
  318W        W61981  31.457  13.170   3.754
  319W        W61982   8.303  42.885   2.325
  320W        W61983  31.986  23.176  11.085
  321W        W61984   0.333  36.879  12.905
  322W        W61985  37.379  29.503   0.256
  323W        W61986  17.797  43.821  13.891
  324W        W61987  42.931  14.826   2.230
  325W        W61988  29.613   8.366   0.422
  326W        W61989   1.446   6.904   1.224
  327W        W61990  22.585  14.830  13.997
  328W        W61991  20.267  25.712   2.365
  329W        W61992  10.148  28.590   2.797
  330W        W61993  19.257  44.759  13.840
  331W        W61994  38.343  12.194   1.374
  332W        W61995  18.073  28.973  10.900
  333W        W61996   5.850  15.672  10.600
  334W        W61997   6.836   7.255  12.576
  335W        W61998   0.312  12.637  13.821
  336W        W61999   8.850  11.321   0.291
  337W        W62000  36.534  39.375   0.779
  338W        W62001  34.418  26.086  14.460
  339W        W62002  11.623  34.547  13.510
  340W        W62003  40.989  43.013   2.269
  341W        W62004  44.008  21.198  12.897
  342W        W62005   9.293   6.257  10.568
  343W        W62006   3.305  24.043   4.282
  344W        W62007  13.182  41.905  10.429
  345W        W62008   6.308   2.451   3.186
  346W        W62009  22.646  43.843  14.415
  347W        W62010  14.267  39.546   2.767
  348W        W62011  37.569  20.115  12.946
  349W        W62012  10.873  24.593  11.897
  350W        W62013   7.196   8.198   1.350
  351W        W62014  34.043  35.492  14.290
  352W        W62015  19.139  15.137  11.591
  353W        W62016  15.621  30.549   2.282
  354W        W62017  23.575   7.197  12.406
  355W        W62018  44.786  42.865   1.274
  356W        W62019  16.244  16.656   2.262
  357W        W62020  22.553  40.818   1.784
  358W        W62021  34.037  28.550  11.377
  359W        W62022  12.356  20.222  12.353
  360W        W62023  36.886  25.593  11.510
  361W        W62024  26.469  44.002   2.770
  362W        W62025  21.693  17.739   4.182
  363W        W62026  27.018  26.082   1.765
  364W        W62027  28.680   1.258  11.389
  365W        W62028  15.299  35.987  14.373
  366W        W62029  34.879  41.366  13.479
  367W        W62030  22.567  17.237  13.361
  368W        W62031  28.449   7.798   0.967
  369W        W62032   6.722   4.356   4.236
  370W        W62033  27.577  24.596   5.619
  371W        W62034  31.143  36.978   3.837
  372W        W62035  28.451   4.345   2.232
  373W        W62036  23.107  44.831   1.255
  374W        W62037  33.544  23.171   3.350
  375W        W62038   4.747  39.534  11.061
  376W        W62039  19.090   2.811  13.340
  377W        W62040   6.701  20.274  10.909
  378W        W62041  37.947  36.042   0.837
  379W        W62042  11.702  26.459   1.820
  380W        W62043  39.940  25.479   1.712
  381W        W62044  42.842  33.508   1.925
  382W        W62045  28.599  21.754  14.510
  383W        W62046   5.337   9.789  14.810
  384W        W62047  43.284  10.169   5.272
  385W        W62048  33.999  20.262  11.391
  386W        W62049  32.544  37.369  14.790
  387W        W62050   4.375  36.487   0.742
  388W        W62051  19.763  38.329  14.446
  389W        W62052  41.997  19.669  11.486
  390W        W62053  25.543   0.444   1.885
  391W        W62054   2.880  29.091  10.489
  392W        W62055  43.286  21.567   4.717
  393W        W62056   4.699  11.746   3.819
  394W        W62057  12.691  30.510  13.014
  395W        W62058   8.858   8.340  13.436
  396W        W62059  32.908  29.624  13.993
  397W        W62060  25.600  16.632   2.227
  398W        W62061   2.371  43.938  13.949
  399W        W62062   7.685  21.060  11.389
  400W        W62063   9.716  27.636  13.484
  401W        W62064  27.615  42.473  14.454
  402W        W62065   5.349  31.116  13.062
  403W        W62066  22.205  43.973  12.426
  404W        W62067  23.593  26.655  14.869
  405W        W62068  24.071  15.087   3.374
  406W        W62069  34.440   2.932   2.396
  407W        W62070   9.858  16.694  13.348
  408W        W62071  33.560  19.551   4.685
  409W        W62072  26.594   7.320   2.274
  410W        W62073  16.202  42.375  14.481
  411W        W62074  27.135  16.615  12.088
  412W        W62075   4.447  14.692  12.040
  413W        W62076  38.474  26.637   4.678
  414W        W62077  29.443  26.539  13.921
  415W        W62078  33.972  33.473   3.804
  416W        W62079  26.567  14.327   1.727
  417W        W62080  19.245  31.097   4.259
  418W        W62081   9.272   3.879   4.680
  419W        W62082  11.293   4.777   3.150
  420W        W62083  17.256  29.515  13.010
  421W        W62084  33.424  23.538   4.327
  422W        W62085  32.602  22.530  12.904
  423W        W62086  26.987  30.415   1.797
  424W        W62087   1.778   8.747   3.653
  425W        W62088   0.939   5.867  12.486
  426W        W62089  35.971  23.606   4.265
  427W        W62090  14.819  35.909   4.657
  428W        W62091  27.525  29.439  11.600
  429W        W62092  31.127  39.967  10.535
  430W        W62093   0.484  12.662   3.721
  431W        W62094   8.825   9.362   3.673
  432W        W62095  28.989  11.140   0.928
  433W        W62096  21.574  20.135  12.921
  434W        W62097   0.865  36.360  12.421
  435W        W62098   2.745   9.193  11.472
  436W        W62099  18.619  37.859  14.914
  437W        W62100  22.727  38.496   0.918
  438W        W62101  28.986   6.701  12.879
  439W        W62102   9.820   1.737   3.850
  440W        W62103  28.575   5.323  10.511
  441W        W62104  15.659  25.199   1.297
  442W        W62105  40.544  22.070   2.830
  443W        W62106  26.588  26.207   1.278
  444W        W62107   6.377  40.409  13.515
  445W        W62108  28.969  20.118   2.691
  446W        W62109  41.887   4.342  12.842
  447W        W62110  11.770  37.834  13.964
  448W        W62111  31.479  23.646   1.399
  449W        W62112   9.371  16.100   0.951
  450W        W62113  15.185  35.527  12.946
  451W        W62114  15.701  15.643   4.295
  452W        W62115  29.506  25.519   0.304
  453W        W62116  15.671  33.412   5.281
  454W        W62117   8.705  36.398  10.595
  455W        W62118  26.057  38.486   3.350
  456W        W62119  29.001  40.992   0.361
  457W        W62120  14.693  14.671  10.465
  458W        W62121  12.297  36.889   5.247
  459W        W62122  18.153   3.786  12.872
  460W        W62123  28.458  28.555   3.745
  461W        W62124  15.719  44.317   3.223
  462W        W62125   6.266  14.613  11.537
  463W        W62126   3.281  13.708   0.954
  464W        W62127  25.571  18.272   2.338
  465W        W62128  15.689  10.634  14.457
  466W        W62129  24.713  44.927   2.778
  467W        W62130  14.691  18.555  11.372
  468W        W62131   4.237  43.436   4.653
  469W        W62132  44.793  39.532   2.180
  470W        W62133  28.005  33.932  14.990
  471W        W62134  38.991  35.004   3.297
  472W        W62135  15.661  32.620   0.359
  473W        W62136  44.998  44.808   0.779
  474W        W62137  12.671  44.440  10.947
  475W        W62138   7.178  23.144   3.854
  476W        W62139  44.008  35.097   4.139
  477W        W62140  32.995  30.128  11.450
  478W        W62141  22.710  18.647  14.825
  479W        W62142  11.134  34.038   3.191
  480W        W62143  42.332   1.970   1.263
  481W        W62144  43.457  10.640   2.890
  482W        W62145   2.464  12.758  11.539
  483W        W62146  14.702   8.175  11.386
  484W        W62147  26.625  14.792   2.695
  485W        W62148  22.616   7.672   3.723
  486W        W62149   3.291  35.390   4.213
  487W        W62150  28.035  17.628   9.986
  488W        W62151   7.840  41.998  14.767
  489W        W62152  39.052  11.256   3.191
  490W        W62153  43.273  30.497  12.459
  491W        W62154   9.835  13.206  12.350
  492W        W62155  26.665  41.963   5.211
  493W        W62156  27.684  34.892  12.882
  494W        W62157   9.662  25.010  11.882
  495W        W62158  34.586  41.393   2.253
  496W        W62159  40.471  31.509  11.919
  497W        W62160  30.924  14.751  13.547
  498W        W62161   1.477   7.349   3.359
  499W        W62162   7.908   8.843   3.688
  500W        W62163  17.726  40.384  11.058
  501W        W62164  36.467  38.526  14.793
  502W        W62165  19.071  31.917  14.986
  503W        W62166  30.436   2.390   4.256
  504W        W62167   0.337  10.239  10.965
  505W        W62168   7.857  10.313   5.094
  506W        W62169  43.392  40.934  12.578
  507W        W62170  32.622  15.686   5.219
  508W        W62171  17.791   7.678  13.837
  509W        W62172  23.059  18.126  13.420
  510W        W62173   4.939  21.544   1.250
  511W        W62174  21.172  35.521   3.847
  512W        W62175   6.842   2.890  14.887
  513W        W62176  37.515  36.907   2.888
  514W        W62177  24.145  21.064  11.466
  515W        W62178  36.380  10.230   0.820
  516W        W62179   3.727  40.333   4.196
  517W        W62180   1.966  27.067  12.558
  518W        W62181   4.761   4.907  13.024
  519W        W62182   6.230   0.432   2.409
  520W        W62183  11.271  38.974   1.394
  521W        W62184   2.902  34.415  11.095
  522W        W62185  38.040  26.536   1.870
  523W        W62186  17.201  42.016   4.759
  524W        W62187  17.290  14.789   0.889
  525W        W62188  35.524   1.795   4.792
  526W        W62189  16.178  27.546  11.390
  527W        W62190  16.608  13.788  12.518
  528W        W62191  30.550  35.867   0.271
  529W        W62192  10.829  24.580  10.928
  530W        W62193  12.340  36.941   0.263
  531W        W62194  27.008  44.432  14.432
  532W        W62195  19.644  44.885  14.403
  533W        W62196   1.925  34.905  14.511
  534W        W62197  12.854   7.256   5.171
  535W        W62198  36.478  43.996  14.477
  536W        W62199  43.388  41.515   1.870
  537W        W62200   3.827  42.518   2.292
  538W        W62201  37.937   0.938  12.988
  539W        W62202  33.596  19.709   3.386
  540W        W62203  41.850   7.348  11.439
  541W        W62204  19.217  12.320  11.897
  542W        W62205  13.167   5.933  12.070
  543W        W62206  27.052   0.820   2.367
  544W        W62207  20.523  37.526  13.803
  545W        W62208  20.532  37.000   2.415
  546W        W62209  40.502  18.228   0.940
  547W        W62210  40.047  23.522   0.862
  548W        W62211   9.669   6.681  13.877
  549W        W62212  16.581   9.200  12.993
  550W        W62213  14.662  30.128  11.033
  551W        W62214  43.402  10.379   1.863
  552W        W62215  37.917  33.997  12.428
  553W        W62216  10.228  29.926   1.313
  554W        W62217  26.125  15.584   3.207
  555W        W62218  18.550  30.053   0.935
  556W        W62219   2.873  39.419   1.758
  557W        W62220   6.878  20.737  10.927
  558W        W62221   7.857  40.844   4.230
  559W        W62222  25.987  33.448  14.890
  560W        W62223  26.991  16.122  11.856
  561W        W62224  20.716   1.797   2.801
  562W        W62225  16.780  26.026  13.901
  563W        W62226  37.944   1.742  12.497
  564W        W62227  20.160  44.973  11.393
  565W        W62228  31.511  23.523   3.789
  566W        W62229  21.183   2.743  11.459
  567W        W62230  41.939  42.778  10.563
  568W        W62231  25.010  25.019   0.287
  569W        W62232  31.973   9.800   0.429
  570W        W62233  16.728  14.787   1.395
  571W        W62234  39.330  25.148   3.263
  572W        W62235  37.955  21.080  14.511
  573W        W62236   4.340  13.234  13.395
  574W        W62237  34.371  24.554   1.696
  575W        W62238  14.707  35.413  12.975
  576W        W62239  21.256  17.128  13.333
  577W        W62240  37.969  11.668   4.183
  578W        W62241   2.470  31.071   2.220
  579W        W62242  27.494  13.626   3.866
  580W        W62243  21.615  28.160  11.595
  581W        W62244  43.941  28.950   0.260
  582W        W62245   1.260  20.194   4.671
  583W        W62246  21.185   9.662  11.987
  584W        W62247   8.784  30.935  12.007
  585W        W62248  34.485  36.852  10.509
  586W        W62249  37.413  15.157  14.452
  587W        W62250  11.334  27.673   4.610
  588W        W62251  41.824  23.018  13.010
  589W        W62252  22.504  43.292  12.526
  590W        W62253   2.752  35.031   2.826
  591W        W62254  12.715  34.019   0.918
  592W        W62255  20.126   3.890   4.302
  593W        W62256  22.655  22.195   2.262
  594W        W62257  42.441   0.440  11.525
  595W        W62258  26.482   6.896   1.448
  596W        W62259  13.776  28.140   2.388
  597W        W62260  33.025  21.744  10.489
  598W        W62261   1.334   5.299  12.999
  599W        W62262  43.509   0.970   1.366
  600W        W62263  24.176   5.248  11.916
  601W        W62264  36.349  32.123   0.321
  602W        W62265   0.963   2.466   2.310
  603W        W62266  11.331   1.445  13.360
  604W        W62267  12.839  34.036  14.903
  605W        W62268  25.475   8.228  14.289
  606W        W62269  41.975  18.295  10.458
  607W        W62270  20.523   4.394   3.315
  608W        W62271  22.166  44.348   4.246
  609W        W62272  15.652  15.710   4.661
  610W        W62273  31.981  17.237   1.770
  611W        W62274  14.285  27.651   0.477
  612W        W62275  24.602  35.063  13.321
  613W        W62276  10.173  20.235  14.316
  614W        W62277  44.329  16.583  14.797
  615W        W62278  27.957  41.359  10.558
  616W        W62279   1.874  40.017  13.513
  617W        W62280  21.720  35.102   3.647
  618W        W62281  22.034  34.603   1.360
  619W        W62282  42.474  26.966   4.123
  620W        W62283  30.077  21.108   1.240
  621W        W62284  27.174  43.790  10.426
  622W        W62285   6.818  29.486  12.987
  623W        W62286   5.695   4.328   3.222
  624W        W62287  38.370  42.409   3.316
  625W        W62288  28.970   8.278   0.475
  626W        W62289  37.057  31.611   3.148
  627W        W62290  40.306  44.498   1.260
  628W        W62291   8.389   9.809   2.398
  629W        W62292  38.822  44.913   3.830
  630W        W62293  16.178   6.349   2.246
  631W        W62294  29.438   6.710   4.241
  632W        W62295  13.736  44.890  14.921
  633W        W62296  33.929  13.276   2.288
  634W        W62297   5.351  30.030   3.727
  635W        W62298  34.498  30.998   1.828
  636W        W62299  17.782   9.702   4.706
  637W        W62300   3.825  36.917   2.735
  638W        W62301  40.836  28.020   3.633
  639W        W62302   2.410  27.158   0.369
  640W        W62303  14.622  15.102   0.834
  641W        W62304   4.255  35.413   3.199
  642W        W62305  16.796   9.688  14.834
  643W        W62306  27.461  30.431  13.338
  644W        W62307  16.262  13.237  10.449
  645W        W62308   1.814   3.887   2.698
  646W        W62309  41.984   9.799   4.182
  647W        W62310  23.670  27.595   1.847
  648W        W62311  41.455   2.311  14.936
  649W        W62312  12.348   3.459   0.930
  650W        W62313  13.232  12.758  12.059
  651W        W62314  11.728  35.066   2.894
  652W        W62315  12.833   9.708   4.181
  653W        W62316   3.310  15.690   2.225
  654W        W62317   4.372  16.083   1.357
  655W        W62318   9.746  41.340  11.397
  656W        W62319  20.254   6.771   0.854
  657W        W62320   8.729  13.780  12.017
  658W        W62321  37.085  25.710   0.416
  659W        W62322  30.459  40.356   1.423
  660W        W62323  16.096  40.013   0.926
  661W        W62324  36.037  41.885   0.786
  662W        W62325  10.698   1.347  11.452
  663W        W62326  39.529  17.147   9.967
  664W        W62327  41.537   0.786   1.883
  665W        W62328  30.636  29.069   0.822
  666W        W62329  38.844  41.537  11.589
  667W        W62330  25.181   9.281   2.672
  668W        W62331  33.930   6.247   0.793
  669W        W62332  34.029  25.522   4.272
  670W        W62333  32.594  37.430  11.437
  671W        W62334   7.205  18.254   4.665
  672W        W62335  24.621  23.567   5.171
  673W        W62336  28.080  36.009  14.019
  674W        W62337   9.318   5.420   3.175
  675W        W62338   1.786  29.603   1.777
  676W        W62339  36.063  21.717  10.513
  677W        W62340  26.500  32.019  13.383
  678W        W62341   0.458   5.386  11.373
  679W        W62342  37.034   4.238  12.561
  680W        W62343  11.666   8.807   3.808
  681W        W62344  44.486  44.378  12.905
  682W        W62345  21.202  29.662   4.695
  683W        W62346  19.230  21.060   1.848
  684W        W62347  11.256  23.222   1.249
  685W        W62348  36.097  21.515   3.697
  686W        W62349  41.006  12.303   1.810
  687W        W62350  28.076   1.801  10.434
  688W        W62351  43.442  17.655   1.426
  689W        W62352  34.542  27.683   0.795
  690W        W62353  13.697  20.115  11.910
  691W        W62354  26.168   1.860   4.174
  692W        W62355  23.542  38.983   4.740
  693W        W62356  19.558  33.091  12.922
  694W        W62357  29.557  35.879  12.472
  695W        W62358  43.008  13.657  13.442
  696W        W62359  26.647  18.155   1.800
  697W        W62360  37.973  30.633  12.930
  698W        W62361  23.710   5.896   4.318
  699W        W62362  17.643  11.712  11.549
  700W        W62363  36.415  16.219   2.381
  701W        W62364   1.245  43.944  12.841
  702W        W62365   4.757  14.670   1.778
  703W        W62366  27.473  26.497   4.657
  704W        W62367  36.989   8.391   2.207
  705W        W62368  23.717  39.553  11.940
  706W        W62369   3.259  14.722  12.523
  707W        W62370   2.750   5.416  11.915
  708W        W62371  43.345   1.844   0.942
  709W        W62372  24.143  33.028  11.517
  710W        W62373  43.857   0.397   2.198
  711W        W62374  16.309  18.647  12.062
  712W        W62375  18.629   8.258   1.250
  713W        W62376   8.197  15.090   0.749
  714W        W62377  20.071   6.681   1.829
  715W        W62378  38.988  42.987   0.956
  716W        W62379  11.242  11.297  12.888
  717W        W62380   1.823  36.069   2.728
  718W        W62381  33.483  24.713  12.563
  719W        W62382  21.186  27.131  10.583
  720W        W62383  42.302  24.716  10.614
  721W        W62384   7.756  35.452   3.813
  722W        W62385  33.109  10.323  14.825
  723W        W62386  13.145  26.175   4.701
  724W        W62387  32.410  17.251  14.896
  725W        W62388  18.565   5.390  12.855
  726W        W62389  21.121  35.951   3.762
  727W        W62390  18.642  37.474   2.412
  728W        W62391   7.808  34.991  14.031
  729W        W62392   4.253   9.754  10.889
  730W        W62393   6.749  24.609   2.834
  731W        W62394  14.206  24.195  14.917
  732W        W62395  21.252  24.153   3.227
  733W        W62396  29.970  15.627   2.680
  734W        W62397  39.478  41.868   2.897
  735W        W62398   3.284  30.999  11.097
  736W        W62399   5.313  18.218  14.516
  737W        W62400  17.174  36.952  10.534
  738W        W62401   6.883   3.852  11.953
  739W        W62402  43.450  14.830  13.882
  740W        W62403   4.825   1.430   2.314
  741W        W62404   3.291  32.982   4.668
  742W        W62405  40.535   3.302  11.437
  743W        W62406  36.915  33.434  14.784
  744W        W62407  34.590  44.264  12.504
  745W        W62408  39.910  15.597   4.699
  746W        W62409  22.084  26.494   0.915
  747W        W62410  17.238  33.526  10.905
  748W        W62411  22.131  39.378  10.594
  749W        W62412   1.340   5.328  14.481
  750W        W62413  28.641  41.388  13.367
  751W        W62414   9.299   1.940   3.333
  752W        W62415   4.843  13.637   4.823
  753W        W62416  23.629  15.654   4.787
  754W        W62417  27.074  34.596   0.288
  755W        W62418  13.254   4.403   0.944
  756W        W62419   3.723  37.567   0.288
  757W        W62420  39.417  29.972   0.797
  758W        W62421   1.958  36.040   2.210
  759W        W62422  32.096  29.653   3.678
  760W        W62423   5.871  35.512  13.045
  761W        W62424  35.561  15.187   4.283
  762W        W62425  38.018  36.539   2.847
  763W        W62426  43.301  32.624  10.924
  764W        W62427  29.064  24.563   1.339
  765W        W62428   4.254  22.579  11.874
  766W        W62429  22.584  39.331   4.133
  767W        W62430  33.439  26.558   5.176
  768W        W62431  38.508  14.768   1.707
  769W        W62432  23.646  38.453  13.395
  770W        W62433  20.192  30.121  13.457
  771W        W62434  40.440  28.942  11.894
  772W        W62435  36.961  31.916  10.411
  773W        W62436  25.182  21.595  10.479
  774W        W62437  15.132  20.538  13.064
  775W        W62438  36.387  19.264   4.241
  776W        W62439  30.419  42.350   1.761
  777W        W62440  27.087  29.456   3.157
  778W        W62441  23.211  31.642   1.808
  779W        W62442  32.001  31.451   2.742
  780W        W62443   3.413  29.558   4.119
  781W        W62444   9.720   4.846  12.967
  782W        W62445  11.728  23.185  10.434
  783W        W62446  19.732   4.217  10.948
  784W        W62447  35.558  18.681   5.172
  785W        W62448  18.744  15.706  10.544
  786W        W62449  41.444   7.378  12.561
  787W        W62450  34.092  11.686  12.945
  788W        W62451  22.617   2.892   3.871
  789W        W62452  34.520  23.152  14.965
  790W        W62453  15.212  10.648  11.532
  791W        W62454  23.651  10.667  13.052
  792W        W62455  44.921  24.704  14.944
  793W        W62456  13.828  25.182   2.774
  794W        W62457  23.227  37.482  10.614
  795W        W62458  11.843   7.737  12.488
  796W        W62459   1.295   2.816  13.908
  797W        W62460  34.588   4.376   4.665
  798W        W62461  10.322  43.475   2.299
  799W        W62462  13.134  15.293   1.226
  800W        W62463   4.806  25.516  13.307
  801W        W62464   9.327  19.274  12.044
  802W        W62465  10.664  11.790   1.885
  803W        W62466  33.457  43.985  13.060
  804W        W62467  28.103  44.418  14.333
  805W        W62468   3.904  11.761  11.397
  806W        W62469  37.079  36.469   1.932
  807W        W62470   0.806  42.480  11.867
  808W        W62471   7.709  19.075  11.021
  809W        W62472  24.135  39.935  11.015
  810W        W62473  43.459   3.907  12.989
  811W        W62474   2.467  23.659  10.521
  812W        W62475   3.449  40.995   3.322
  813W        W62476  43.405  44.894   0.815
  814W        W62477  33.901  37.887   4.812
  815W        W62478   3.393   7.315  12.483
  816W        W62479  44.881  26.611   0.920
  817W        W62480  34.591  10.267   1.246
  818W        W62481  13.305  20.189   0.929
  819W        W62482  21.583  33.062  11.532
  820W        W62483  30.057  29.526   0.367
  821W        W62484  25.066   9.169  12.900
  822W        W62485   6.698   0.353  11.073
  823W        W62486  39.870   9.272   0.277
  824W        W62487  20.627   1.295  12.380
  825W        W62488  26.595  34.409   4.242
  826W        W62489  13.164  20.624   1.803
  827W        W62490   4.390  37.916  11.528
  828W        W62491   3.284  32.417   2.342
  829W        W62492  24.178   8.793   3.361
  830W        W62493  25.163  40.977  13.997
  831W        W62494   9.654  12.298   2.300
  832W        W62495   1.272  31.583  13.846
  833W        W62496   6.301  18.773   2.723
  834W        W62497  36.521  35.860  12.092
  835W        W62498  21.557  43.766  13.411
  836W        W62499  34.585  25.611   0.796
  837W        W62500  31.629  16.654   0.787
  838W        W62501   2.290  32.561  11.987
  839W        W62502  17.709   2.284   0.412
  840W        W62503  33.537   9.255  14.432
  841W        W62504  34.981  14.776   3.775
  842W        W62505  31.553   5.367   4.157
  843W        W62506  34.020   0.785   2.843
  844W        W62507   0.915  28.620   0.764
  845W        W62508  40.394   8.884  12.367
  846W        W62509  40.378  30.592  14.839
  847W        W62510  16.270  26.596   1.211
  848W        W62511   5.714  21.580   0.476
  849W        W62512   0.342  37.348  10.924
  850W        W62513  36.402  44.896  13.522
  851W        W62514  11.660   8.229   1.701
  852W        W62515  14.726  26.065   2.412
  853W        W62516  34.546  34.550  14.973
  854W        W62517  40.463  33.890  10.635
  855W        W62518   2.465   9.224   3.646
  856W        W62519  20.232  37.009   3.861
  857W        W62520  29.919  14.766  12.394
  858W        W62521  43.879  30.004  11.949
  859W        W62522   9.756  30.924   0.779
  860W        W62523  22.996  23.041   1.783
  861W        W62524   0.955   3.453  14.845
  862W        W62525   8.168  24.500  12.363
  863W        W62526  26.100  38.063   5.097
  864W        W62527  43.835   8.216  10.625
  865W        W62528  30.132   1.935   1.742
  866W        W62529   2.312  44.767  13.544
  867W        W62530  22.135  28.673  10.472
  868W        W62531  42.026   2.756  11.595
  869W        W62532  44.487  32.104   9.973
  870W        W62533  28.504  37.884  14.890
  871W        W62534  43.514   2.336  11.013
  872W        W62535  32.634  21.738  12.028
  873W        W62536   8.661   8.664  10.644
  874W        W62537  28.186  44.315  10.582
  875W        W62538  10.318  12.660  11.441
  876W        W62539  13.629  17.761   4.126
  877W        W62540  14.142  29.071  14.920
  878W        W62541  27.564  20.205  12.889
  879W        W62542   8.351  10.370  13.313
  880W        W62543   6.728  15.310  13.015
  881W        W62544  17.079  30.414   3.765
  882W        W62545   4.847   9.874   3.784
  883W        W62546  34.377  35.985  12.538
  884W        W62547  29.058  44.767   2.188
  885W        W62548  44.912  42.033   2.760
  886W        W62549  42.006  16.690   3.278
  887W        W62550  34.436   9.866   3.158
  888W        W62551  34.113  18.784   3.825
  889W        W62552   9.262  25.677   2.722
  890W        W62553  21.588  44.359   2.686
  891W        W62554  25.671   7.194   3.266
  892W        W62555   5.402   5.832  14.772
  893W        W62556  38.473  18.215  13.329
  894W        W62557  42.846  10.819   1.804
  895W        W62558   5.378  41.906   4.614
  896W        W62559  26.101  33.085  11.487
  897W        W62560  43.284  35.916   2.180
  898W        W62561  29.513  41.031   4.713
  899W        W62562  15.241  40.491   9.594
  900W        W62563  29.648   7.234  12.369
  901W        W62564  14.766  31.527   1.231
  902W        W62565  33.968   5.375   3.244
  903W        W62566   5.231   5.366   0.298
  904W        W62567  39.497  11.729   2.744
  905W        W62568  37.064  11.734  11.454
  906W        W62569  22.025  15.674  12.504
  907W        W62570   6.700  15.099  11.536
  908W        W62571  23.499  44.497   3.281
  909W        W62572  10.217   5.879  13.415
  910W        W62573  32.941  21.749  10.914
  911W        W62574  19.188   2.822   2.881
  912W        W62575  12.653   5.854  12.396
  913W        W62576   9.252  14.236   0.384
  914W        W62577  19.765  16.225  12.343
  915W        W62578   2.771  24.044   3.197
  916W        W62579  25.178   9.250   3.319
  917W        W62580  27.607  44.375  11.067
  918W        W62581  29.118   4.927  14.464
  919W        W62582  40.866  21.584   3.774
  920W        W62583  10.173  42.845  14.797
  921W        W62584   8.845   1.478   1.838
  922W        W62585  30.108  14.613   1.315
  923W        W62586  29.007  39.443  13.372
  924W        W62587  34.539  31.931  13.436
  925W        W62588  23.001  24.194  10.946
  926W        W62589   9.377  38.553  12.514
  927W        W62590  39.463  21.254  12.388
  928W        W62591   7.367   7.754  11.591
  929W        W62592   4.736  37.392   1.802
  930W        W62593  35.039  25.082   4.318
  931W        W62594  23.989   1.921  11.969
  932W        W62595  43.443  34.081   2.272
  933W        W62596  15.267   8.749  14.836
  934W        W62597  26.666  18.668   2.374
  935W        W62598  44.286  18.155   1.891
  936W        W62599   4.780   6.263  13.388
  937W        W62600  26.141  24.501   3.670
  938W        W62601   4.746  11.672  11.599
  939W        W62602   4.312  14.330  12.993
  940W        W62603  25.060   2.753  14.765
  941W        W62604  15.149  41.900  12.345
  942W        W62605  27.975  12.720   2.326
  943W        W62606   3.851  42.419  14.847
  944W        W62607  13.326   8.164   5.731
  945W        W62608  41.980  25.598  14.456
  946W        W62609  35.938  28.532  13.889
  947W        W62610  27.610   7.328   3.641
  948W        W62611  44.963   0.745   4.127
  949W        W62612   1.393  21.616  10.476
  950W        W62613  26.099  14.715   0.751
  951W        W62614   9.825  40.866  11.390
  952W        W62615   3.846  21.755   1.921
  953W        W62616  34.972  42.896   2.314
  954W        W62617  34.023  24.013   2.711
  955W        W62618  10.771  21.249  13.021
  956W        W62619  12.718  34.880   3.708
  957W        W62620  18.757  22.676  13.820
  958W        W62621   2.341  28.048   3.322
  959W        W62622  29.065  27.998   2.811
  960W        W62623  37.574   7.248   5.285
  961W        W62624  23.080  22.689  10.988
  962W        W62625  17.296  16.093   1.723
  963W        W62626   9.774  36.023  13.339
  964W        W62627  44.377  10.155  13.534
  965W        W62628   0.946  19.775   1.903
  966W        W62629  39.907  18.684  10.586
  967W        W62630  19.567  21.153  14.795
  968W        W62631   2.385  44.441   4.713
  969W        W62632  35.008  30.109  12.577
  970W        W62633  24.666  35.865   4.147
  971W        W62634  15.242  30.996  14.829
  972W        W62635  20.269   3.332   0.853
  973W        W62636  24.695  22.128   1.352
  974W        W62637  19.112   3.786  12.368
  975W        W62638  37.540   8.748  13.919
  976W        W62639  29.446  20.594  11.452
  977W        W62640  41.798  39.381   0.411
  978W        W62641  32.019  31.934   0.403
  979W        W62642  29.921  39.809   0.747
  980W        W62643  24.504  26.081   1.283
  981W        W62644  40.457   6.845   3.240
  982W        W62645   3.282  32.997   0.365
  983W        W62646  36.083   9.367   1.343
  984W        W62647  33.895  33.422   0.481
  985W        W62648  10.831   3.275   1.750
  986W        W62649  28.584   0.744  11.378
  987W        W62650  18.769   7.300  10.576
  988W        W62651  32.084  28.001  13.928
  989W        W62652  22.007  24.499   3.687
  990W        W62653   7.209   2.325   4.314
  991W        W62654  22.151   3.457   1.875
  992W        W62655   6.359  44.299  13.808
  993W        W62656  22.644   9.746  13.925
  994W        W62657  41.932  33.543  13.958
  995W        W62658  30.647   0.943  14.848
  996W        W62659  19.648   3.288   0.918
  997W        W62660   6.198   1.447  14.803
  998W        W62661  15.329   4.781   4.202
  999W        W62662  44.321  22.547   3.175
 1000W        W62663   2.845  21.542   2.372
 1001W        W62664  40.900  37.023  14.438
 1002W        W62665  11.663  18.267   1.390
 1003W        W62666  27.681  16.725  12.015
 1004W        W62667  26.061  20.196   4.756
 1005W        W62668  17.612  14.327  12.444
 1006W        W62669  35.566  34.457  12.932
 1007W        W62670  36.430  16.287  11.976
 1008W        W62671  38.437  39.965  11.077
 1009W        W62672  34.439  28.140  13.487
 1010W        W62673  26.088  40.419  11.514
 1011W        W62674  21.260  17.087   3.770
 1012W        W62675  44.461   9.760   4.286
 1013W        W62676  22.160  32.911  13.875
 1014W        W62677   2.846  17.735  11.962
 1015W        W62678  20.254  33.911   2.767
 1016W        W62679   2.322  38.357   2.213
 1017W        W62680   8.186  28.642   2.713
 1018W        W62681  23.579  36.402  12.456
 1019W        W62682  25.533  28.458   2.834
 1020W        W62683   4.811  27.564  10.624
 1021W        W62684  31.898   1.378  14.383
 1022W        W62685  44.393  19.129  10.549
 1023W        W62686  25.467  12.339  12.072
 1024W        W62687  24.187  16.717  10.599
 1025W        W62688  27.522  34.912   4.814
 1026W        W62689  32.903   0.970  11.967
 1027W        W62690  33.926  40.843  10.961
 1028W        W62691  23.075   4.927   4.821
 1029W        W62692   8.860  35.562  13.439
 1030W        W62693   5.878   2.232  13.886
 1031W        W62694  17.182  21.651   3.739
 1032W        W62695  15.798  34.417  10.969
 1033W        W62696   4.794   7.335  12.465
 1034W        W62697  19.224   6.201  14.958
 1035W        W62698  25.524  37.876  11.123
 1036W        W62699  23.675  22.711   3.773
 1037W        W62700  32.494  12.354  10.633
 1038W        W62701  11.142   8.695  10.890
 1039W        W62702  41.467  27.999   4.226
 1040W        W62703  35.051  33.424   4.636
 1041W        W62704  32.897  39.378   1.763
 1042W        W62705   8.257  21.098   1.365
 1043W        W62706   5.307  17.779  12.996
 1044W        W62707  11.687   1.919  11.951
 1045W        W62708   5.408  41.983   1.734
 1046W        W62709  28.616  20.553   3.739
 1047W        W62710   8.385  33.394   0.345
 1048W        W62711  18.097  18.128  10.904
 1049W        W62712   6.415  15.708   0.244
 1050W        W62713  36.464  26.565   1.810
 1051W        W62714  35.004   6.708   0.775
 1052W        W62715   0.826  13.621  10.922
 1053W        W62716  38.947  33.980   0.442
 1054W        W62717   2.720  27.973   1.781
 1055W        W62718  32.412  36.516   4.750
 1056W        W62719  19.183  29.525  10.590
 1057W        W62720  38.835   7.268   4.664
 1058W        W62721  28.467  17.267   0.934
 1059W        W62722  12.695   6.776  13.020
 1060W        W62723  20.134  13.772  13.908
 1061W        W62724  17.791  29.549   2.205
 1062W        W62725  17.138  13.719   3.312
 1063W        W62726  41.449  40.947  10.484
 1064W        W62727  38.329  19.144   4.292
 1065W        W62728  18.152  31.636  13.004
 1066W        W62729  37.410  32.044   1.820
 1067W        W62730  32.602  16.690  14.317
 1068W        W62731   5.818  16.126   2.245
 1069W        W62732  15.800  28.961  11.554
 1070W        W62733  40.875  18.782   4.329
 1071W        W62734  33.463  18.129   3.337
 1072W        W62735   7.220  23.508  10.924
 1073W        W62736  44.467  36.385  12.440
 1074W        W62737  31.069   9.182  11.940
 1075W        W62738   6.268   7.221  11.076
 1076W        W62739  14.749   5.859  11.888
 1077W        W62740   1.768   8.698  13.887
 1078W        W62741  13.620  36.593   2.396
 1079W        W62742  26.642   7.179   0.369
 1080W        W62743  18.547   1.933  14.876
 1081W        W62744   9.273  24.499   4.309
 1082W        W62745   0.825   7.889  12.909
 1083W        W62746   8.170  30.496  11.396
 1084W        W62747  39.319  40.314  10.536
 1085W        W62748  33.393   8.302   3.237
 1086W        W62749  43.826  15.312   4.722
 1087W        W62750  37.978  18.134  12.549
 1088W        W62751  14.299  21.168  12.048
 1089W        W62752  18.227  24.659  10.971
 1090W        W62753  12.186  13.769   1.254
 1091W        W62754   2.901   3.283  13.448
 1092W        W62755  30.509  32.936   4.746
 1093W        W62756  18.112   3.745  14.813
 1094W        W62757  43.422  35.964  11.422
 1095W        W62758  30.946  11.286   3.647
 1096W        W62759   4.242  11.368  13.364
 1097W        W62760  39.422  23.652  12.957
 1098W        W62761  24.057  44.003   0.761
 1099W        W62762   6.343  22.710   3.384
 1100W        W62763  41.308  44.983  14.316
 1101W        W62764  36.388  11.190  13.541
 1102W        W62765  34.537  34.068   1.341
 1103W        W62766  38.508  26.993   0.441
 1104W        W62767   6.208  12.247   3.325
 1105W        W62768  25.659  35.521  11.600
 1106W        W62769   7.222  20.211  14.015
 1107W        W62770  14.781   7.230  12.406
 1108W        W62771   9.360  38.444  11.069
 1109W        W62772  21.125   5.208   3.741
 1110W        W62773  13.630  41.793  10.579
 1111W        W62774  27.652  41.356   0.916
 1112W        W62775  17.292  43.917  11.497
 1113W        W62776  40.921  43.930  11.403
 1114W        W62777  23.198   0.480  12.470
 1115W        W62778  43.799  39.932  14.364
 1116W        W62779  10.791   1.922   5.137
 1117W        W62780   4.770  13.348  11.589
 1118W        W62781   1.901  25.116   3.260
 1119W        W62782  12.713  37.858   1.234
 1120W        W62783  27.190  42.849   4.709
 1121W        W62784  19.640  42.965   4.817
 1122W        W62785  17.714  11.231  14.486
 1123W        W62786  31.004  43.379   4.194
 1124W        W62787  18.089  13.690  11.958
 1125W        W62788  32.555  14.132  10.544
 1126W        W62789   6.423  11.142   3.787
 1127W        W62790  43.472   9.680   3.811
 1128W        W62791  42.319  36.530   3.860
 1129W        W62792  14.642  34.610   3.699
 1130W        W62793  36.052  25.682   3.328
 1131W        W62794  19.203  34.568   1.915
 1132W        W62795  32.456  31.986  10.620
 1133W        W62796   1.838   2.730  10.420
 1134W        W62797  31.119  23.174   3.679
 1135W        W62798  43.341  24.609   2.249
 1136W        W62799  18.229  44.920   3.208
 1137W        W62800  23.020  36.573  11.013
 1138W        W62801   9.168  30.057  13.520
 1139W        W62802  16.162   4.363   0.301
 1140W        W62803   3.365  44.772   1.824
 1141W        W62804  33.130   4.441   2.248
 1142W        W62805  43.404   4.788  11.600
 1143W        W62806  21.063  30.042  14.438
 1144W        W62807  16.263   5.286  12.508
 1145W        W62808  36.922  41.380  11.010
 1146W        W62809  36.869  43.872  11.532
 1147W        W62810   3.748  24.494   0.759
 1148W        W62811   5.846   8.259   1.409
 1149W        W62812   0.775  24.068   4.273
 1150W        W62813  25.078  21.534  14.443
 1151W        W62814  27.940   9.651  10.435
 1152W        W62815   0.468  25.517   0.772
 1153W        W62816  29.470  24.077   2.730
 1154W        W62817  39.951  19.678  11.003
 1155W        W62818  42.984  18.122   2.210
 1156W        W62819  14.663  27.531  12.945
 1157W        W62820  43.949  10.358   0.451
 1158W        W62821  24.642  29.145  14.818
 1159W        W62822   6.314   9.173  14.999
 1160W        W62823   0.743  39.892   3.212
 1161W        W62824  13.280  24.079  12.087
 1162W        W62825  37.405  27.036   3.338
 1163W        W62826  21.209  36.476   3.720
 1164W        W62827  26.492  31.490   3.219
 1165W        W62828   4.206   1.888   2.726
 1166W        W62829  39.923   3.792  14.277
 1167W        W62830  24.660  41.856  11.990
 1168W        W62831   2.438  32.977  12.395
 1169W        W62832  42.888   9.657  11.454
 1170W        W62833  21.083  16.689   2.823
 1171W        W62834  24.074  31.442   3.759
 1172W        W62835  34.403  16.761   3.769
 1173W        W62836  29.666   1.446  12.574
 1174W        W62837  39.913  43.434   3.785
 1175W        W62838  21.688  38.923   2.383
 1176W        W62839  25.686  43.887  11.491
 1177W        W62840  15.749  23.196   1.909
 1178W        W62841  12.769  11.209   3.328
 1179W        W62842  27.497  18.124  13.520
 1180W        W62843  38.998  39.416   4.183
 1181W        W62844  19.564  33.612   5.140
 1182W        W62845   0.800  28.936   4.119
 1183W        W62846   7.330  10.842   1.749
 1184W        W62847  14.797  38.348   0.834
 1185W        W62848  12.194  21.017   0.366
 1186W        W62849   1.412  39.421   2.713
 1187W        W62850  41.308  30.137   4.763
 1188W        W62851  32.955  31.984  14.384
 1189W        W62852  43.975  41.344  12.912
 1190W        W62853   9.762  21.730  12.832
 1191W        W62854   2.731   7.301   2.685
 1192W        W62855   2.858  28.607  13.810
 1193W        W62856  19.048   9.322  11.448
 1194W        W62857  20.649  40.018  13.912
 1195W        W62858  14.606   3.337  11.458
 1196W        W62859  25.181  44.983  14.311
 1197W        W62860   9.250  43.961  13.542
 1198W        W62861  35.517  13.644   0.443
 1199W        W62862  22.160  35.397   2.743
 1200W        W62863  12.622  25.112  13.353
 1201W        W62864  38.532  44.268  13.472
 1202W        W62865  35.370   1.427   0.461
 1203W        W62866  20.745  25.546  12.899
 1204W        W62867   8.656  33.071  14.448
 1205W        W62868   0.398  32.888   0.850
 1206W        W62869  30.557   4.277  13.921
 1207W        W62870  28.673  17.112  11.886
 1208W        W62871   7.347   0.257   1.317
 1209W        W62872  34.871  44.823  13.542
 1210W        W62873   7.174  24.063  13.353
 1211W        W62874  32.419   7.257   5.148
 1212W        W62875  35.898   5.197   2.704
 1213W        W62876  17.746  13.112   5.775
 1214W        W62877  38.335  37.502   2.398
 1215W        W62878  18.624  43.003   3.352
 1216W        W62879  13.760  12.778  13.491
 1217W        W62880  10.842  38.456  13.882
 1218W        W62881  39.404   8.745  14.815
 1219W        W62882  26.562   1.454   2.261
 1220W        W62883  41.429  34.112   1.873
 1221W        W62884  11.295  10.727  11.540
 1222W        W62885  17.625  34.944   0.448
 1223W        W62886  44.974  42.977   1.694
 1224W        W62887  10.833  35.025   0.412
 1225W        W62888  23.052  41.915  10.151
 1226W        W62889  30.601  15.796  10.416
 1227W        W62890  22.522  13.735   1.754
 1228W        W62891  20.674  42.315   4.208
 1229W        W62892   5.896   3.718  14.380
 1230W        W62893   2.860  12.219  13.813
 1231W        W62894  20.112  16.612   2.398
 1232W        W62895   3.824  24.140   0.882
 1233W        W62896  37.882  24.594  13.820
 1234W        W62897  33.563  38.010  10.460
 1235W        W62898  40.013  16.775   1.851
 1236W        W62899   0.936   1.741   3.246
 1237W        W62900  31.975   9.309   0.775
 1238W        W62901  38.508  43.788  12.521
 1239W        W62902  14.211   3.900   1.877
 1240W        W62903  10.233  35.920  10.105
 1241W        W62904   5.814   1.932   4.660
 1242W        W62905  39.900   8.797  12.415
 1243W        W62906  33.075  16.247   0.401
 1244W        W62907  43.462  39.458   4.125
 1245W        W62908  27.188  39.814  11.502
 1246W        W62909  17.641   6.263   4.183
 1247W        W62910  21.525   0.358  13.485
 1248W        W62911  16.139  18.695  14.835
 1249W        W62912  27.185   0.471   4.267
 1250W        W62913  34.467  38.989   0.437
 1251W        W62914   6.325  38.336  12.505
 1252W        W62915  29.153   1.344  11.576
 1253W        W62916  25.511  14.700  14.456
 1254W        W62917  22.725  31.130  12.471
 1255W        W62918  26.085   4.714   0.727
 1256W        W62919  10.875  15.653   3.754
 1257W        W62920  38.895   8.298   4.705
 1258W        W62921  17.639  42.882  12.571
 1259W        W62922  20.756  18.164  12.554
 1260W        W62923  17.682  23.990   0.736
 1261W        W62924  27.969   8.816  12.840
 1262W        W62925  32.463  32.065  13.953
 1263W        W62926  36.057  34.917   1.223
 1264W        W62927  33.488  19.564   0.359
 1265W        W62928  26.464   6.922  12.002
 1266W        W62929   7.251  44.397  14.015
 1267W        W62930   0.835  26.481  12.052
 1268W        W62931   9.277  12.295   0.791
 1269W        W62932  27.949  31.975  10.032
 1270W        W62933   5.768   4.769  12.448
 1271W        W62934  30.530  22.016   3.684
 1272W        W62935   4.778  21.021   9.967
 1273W        W62936  15.605  24.549  10.541
 1274W        W62937  39.400   9.244   1.250
 1275W        W62938  33.394  23.587   1.270
 1276W        W62939  43.822  40.811   1.848
 1277W        W62940   9.212  16.114  11.433
 1278W        W62941  36.047  16.731  11.588
 1279W        W62942   4.363   6.872   4.280
 1280W        W62943  39.359  24.543  13.516
 1281W        W62944  26.633  17.576   2.704
 1282W        W62945   7.850  29.973   1.311
 1283W        W62946  16.611  31.628  13.911
 1284W        W62947  24.705  43.951   1.276
 1285W        W62948  34.591   9.192  14.915
 1286W        W62949   0.254  24.487  13.463
 1287W        W62950   0.878  11.314  14.385
 1288W        W62951  41.424   0.895   1.228
 1289W        W62952  37.450  20.587  12.079
 1290W        W62953  26.170   0.248  13.878
 1291W        W62954  22.035  41.331  14.341
 1292W        W62955  18.756  27.978   1.311
 1293W        W62956  23.582  26.022   0.845
 1294W        W62957  37.059  34.054   4.248
 1295W        W62958  10.139  23.495   5.282
 1296W        W62959   5.808  31.041  10.631
 1297W        W62960  44.800  25.605   1.237
 1298W        W62961  37.379  34.427   3.243
 1299W        W62962  20.681  19.774   2.841
 1300W        W62963   7.881  35.515  14.303
 1301W        W62964  18.613  37.339  10.905
 1302W        W62965  37.470  15.696   5.083
 1303W        W62966   1.461  43.820  12.456
 1304W        W62967   7.273  27.092  10.902
 1305W        W62968  18.746  19.125  11.994
 1306W        W62969  33.950  24.984   0.357
 1307W        W62970  27.972  29.533   0.370
 1308W        W62971   4.417  44.313   3.250
 1309W        W62972  40.845  19.109   2.392
 1310W        W62973  37.498  26.662   5.193
 1311W        W62974  26.464  25.047   0.298
 1312W        W62975   4.220  42.032  14.501
 1313W        W62976  25.551  44.008   0.814
 1314W        W62977  16.598  27.559   0.412
 1315W        W62978  30.103  31.991   2.409
 1316W        W62979  41.385  42.793   2.894
 1317W        W62980   5.886  14.681  11.013
 1318W        W62981   9.746  23.657  11.416
 1319W        W62982  19.089  39.495   1.230
 1320W        W62983  33.895  38.443   2.404
 1321W        W62984  12.761  33.505   1.258
 1322W        W62985  36.476  34.027  11.112
 1323W        W62986  11.822  44.778  11.068
 1324W        W62987  24.011   0.322   3.325
 1325W        W62988  10.662  32.542   2.412
 1326W        W62989  41.922  20.658   2.273
 1327W        W62990  24.582  17.786  12.061
 1328W        W62991   9.724  14.783   0.908
 1329W        W62992   2.387  30.440  12.564
 1330W        W62993  39.034  24.213   3.843
 1331W        W62994  17.167   7.666  13.832
 1332W        W62995  44.811  25.683  10.608
 1333W        W62996  44.880  26.583  10.594
 1334W        W62997  19.087  38.850  10.627
 1335W        W62998  12.162  31.076  10.538
 1336W        W62999  22.502   9.250  10.575
 1337W        W63000  16.573   8.219   1.425
 1338W        W63001  13.712   3.811   4.131
 1339W        W63002  43.275  33.619   2.207
 1340W        W63003  26.104  24.705   9.924
 1341W        W63004  28.459  18.700   4.606
 1342W        W63005  30.538  22.082   1.750
 1343W        W63006  18.287   8.316  13.444
 1344W        W63007  13.719  36.381  14.419
 1345W        W63008  19.563  15.784   5.298
 1346W        W63009  30.527  30.959   2.335
 1347W        W63010  38.395  23.707   4.730
 1348W        W63011  23.200  19.065  14.923
 1349W        W63012  15.664  17.150  14.882
 1350W        W63013  28.022  37.085  11.027
 1351W        W63014  14.597   3.301   1.422
 1352W        W63015  14.678  34.492  14.381
 1353W        W63016  35.569   2.845   2.207
 1354W        W63017  28.531   2.305   1.779
 1355W        W63018  31.539  12.628  11.413
 1356W        W63019  28.673   7.357  12.994
 1357W        W63020  28.640   3.449  14.469
 1358W        W63021  26.536  19.545   1.785
 1359W        W63022  27.009  37.365  11.118
 1360W        W63023  27.133   9.343  14.364
 1361W        W63024  35.378  16.783   2.240
 1362W        W63025   5.797  11.842  12.013
 1363W        W63026  31.631  14.678   1.301
 1364W        W63027  40.968   0.279  14.923
 1365W        W63028  28.967  12.319   3.333
 1366W        W63029  12.748   9.651   4.604
 1367W        W63030  44.789  40.367   2.699
 1368W        W63031  44.900  22.151   3.243
 1369W        W63032  30.569   9.875   0.428
 1370W        W63033  19.133  24.695   4.213
 1371W        W63034  33.033  25.212   0.950
 1372W        W63035   9.785  37.388  14.488
 1373W        W63036  12.302  44.879  11.114
 1374W        W63037  17.245  37.466  10.018
 1375W        W63038  14.676  31.480   4.353
 1376W        W63039  19.039  20.161  12.437
 1377W        W63040  10.705  25.046   4.350
 1378W        W63041   4.391  38.930   2.808
 1379W        W63042   9.730  39.495   4.825
 1380W        W63043  36.445  22.040  14.792
 1381W        W63044  41.789  23.026  10.485
 1382W        W63045  30.074  37.398   3.789
 1383W        W63046   4.344  33.010  13.990
 1384W        W63047  34.494  22.708   4.240
 1385W        W63048  25.682  20.055  13.529
 1386W        W63049  41.527  25.699   2.843
 1387W        W63050  12.790  23.675   2.775
 1388W        W63051  36.961  22.168  11.074
 1389W        W63052   6.392  40.843  13.821
 1390W        W63053  41.787   5.929   1.241
 1391W        W63054   3.948  41.477  14.320
 1392W        W63055  15.156  39.504   1.803
 1393W        W63056  31.926  15.153  12.345
 1394W        W63057  18.295  21.121   2.849
 1395W        W63058  15.203   2.453  12.025
 1396W        W63059  31.046  41.474   4.144
 1397W        W63060  43.960  28.035   2.691
 1398W        W63061  39.023  11.254  11.379
 1399W        W63062  16.583   4.833   0.905
 1400W        W63063  12.307  17.668   3.693
 1401W        W63064  29.102  29.157  13.850
 1402W        W63065  39.862  13.350   1.358
 1403W        W63066  11.212  16.756   1.240
 1404W        W63067  40.496  13.738  11.462
 1405W        W63068  30.478   0.426   3.793
 1406W        W63069  33.513  30.494  11.974
 1407W        W63070  32.120  35.973  12.851
 1408W        W63071   6.255  32.581   2.688
 1409W        W63072   9.786  23.644  12.572
 1410W        W63073  22.250  10.353  13.794
 1411W        W63074  15.692  33.561   4.286
 1412W        W63075  14.122  18.120  10.910
 1413W        W63076  21.699  12.768   0.292
 1414W        W63077  22.696   7.402   3.216
 1415W        W63078  10.818  25.209  14.479
 1416W        W63079  24.719  10.778  12.359
 1417W        W63080  36.457   9.876  11.878
 1418W        W63081  35.600  44.476   2.288
 1419W        W63082  44.445  10.815   4.657
 1420W        W63083   7.730   8.331  10.959
 1421W        W63084   2.794  36.475  11.515
 1422W        W63085  31.152  14.207   2.302
 1423W        W63086  13.754  13.698   2.190
 1424W        W63087  27.945   2.345  11.886
 1425W        W63088  41.526  43.993  11.525
 1426W        W63089  18.183  14.138  14.305
 1427W        W63090   0.309   5.772   3.665
 1428W        W63091  33.467  14.819   3.257
 1429W        W63092  33.121  30.126  11.013
 1430W        W63093  42.359   2.416   4.177
 1431W        W63094  14.722  28.026   2.309
 1432W        W63095  10.196  39.481  11.897
 1433W        W63096   8.725  37.945  14.786
 1434W        W63097  13.293  28.997  14.373
 1435W        W63098  41.339  40.496  12.577
 1436W        W63099  12.828  33.495  11.414
 1437W        W63100  17.570  20.073  12.959
 1438W        W63101  36.017   2.259   0.323
 1439W        W63102  10.685  21.137  11.959
 1440W        W63103  35.441   8.829   4.266
 1441W        W63104   7.834  25.039  12.483
 1442W        W63105  24.698  28.452   3.731
 1443W        W63106  38.386  23.992  10.996
 1444W        W63107  33.568  30.069   4.172
 1445W        W63108   9.249  27.607  14.944
 1446W        W63109  37.527  35.476   2.734
 1447W        W63110   1.774   8.710  11.941
 1448W        W63111  15.319  17.721  12.825
 1449W        W63112  43.914  20.182   0.316
 1450W        W63113  38.843  44.874   4.792
 1451W        W63114  38.445  31.536  10.613
 1452W        W63115   2.831   5.364   1.852
 1453W        W63116   1.268  16.681  14.780
 1454W        W63117  28.955   9.749  11.560
 1455W        W63118  40.916  15.594  12.484
 1456W        W63119  32.045   7.703   4.224
 1457W        W63120  36.893   6.351   1.313
 1458W        W63121  20.249  32.504  12.941
 1459W        W63122  36.027  23.698  11.953
 1460W        W63123  38.023  12.846   2.737
 1461W        W63124   2.427  17.631  11.126
 1462W        W63125  12.637  18.657   0.876
 1463W        W63126   9.151  12.792   4.306
 1464W        W63127   7.384  44.274  11.491
 1465W        W63128  33.488  33.440   3.334
 1466W        W63129  17.298  25.109   3.770
 1467W        W63130   4.368  24.498  12.892
 1468W        W63131   5.788  40.532  11.089
 1469W        W63132  41.890   5.199   4.625
 1470W        W63133  26.670   4.441  12.976
 1471W        W63134  44.902  33.005   3.804
 1472W        W63135  16.302  23.014   1.826
 1473W        W63136  27.155  36.440   2.675
 1474W        W63137  15.794  29.006  12.501
 1475W        W63138  15.775  19.700   3.644
 1476W        W63139  21.062   1.931   1.867
 1477W        W63140  26.485  28.592   3.678
 1478W        W63141  32.515  21.522  14.944
 1479W        W63142  28.645  39.851  14.489
 1480W        W63143  22.623  40.422  13.897
 1481W        W63144  12.720  27.501  14.889
 1482W        W63145   8.396  42.915  12.960
 1483W        W63146  27.619   0.299  12.089
 1484W        W63147   7.352  27.481  13.983
 1485W        W63148  38.969   0.314  11.033
 1486W        W63149  30.014  37.870   1.790
 1487W        W63150  10.806  40.809  11.870
 1488W        W63151  30.465  22.747   2.676
 1489W        W63152   9.162  10.789  14.815
 1490W        W63153  37.569   9.384  11.883
 1491W        W63154  33.455  16.172   4.340
 1492W        W63155  16.566  26.989  10.941
 1493W        W63156  27.094  26.978   4.776
 1494W        W63157   8.670  16.148  12.502
 1495W        W63158  12.635  38.386   4.752
 1496W        W63159  44.801  29.108  10.437
 1497W        W63160  20.029  22.700   1.294
 1498W        W63161   3.738  35.006   0.833
 1499W        W63162  22.711   5.282   0.890
 1500W        W63163  33.423  12.318   2.818
 1501W        W63164  42.933  12.137  12.569
 1502W        W63165   8.698   2.431   4.205
 1503W        W63166  22.208  17.202  14.955
 1504W        W63167  31.406  11.293   0.334
 1505W        W63168  25.621  28.603   5.212
 1506W        W63169   0.759  42.018  13.842
 1507W        W63170  40.461  19.071   0.882
 1508W        W63171  18.729  18.655  14.885
 1509W        W63172  23.559  44.366  12.420
 1510W        W63173  35.603   8.345  11.926
 1511W        W63174  22.032  36.546  10.960
 1512W        W63175  26.078   0.988  11.588
 1513W        W63176  34.886   2.333   0.333
 1514W        W63177   7.677  40.488  12.402
 1515W        W63178  32.507  30.919  10.510
 1516W        W63179  13.328  38.407   3.851
 1517W        W63180   0.376   4.441  11.509
 1518W        W63181  37.565  31.500   3.723
 1519W        W63182  38.825   3.247   3.845
 1520W        W63183  43.376  20.254  10.458
 1521W        W63184  37.848   2.915  12.370
 1522W        W63185  18.293  12.283   3.864
 1523W        W63186  34.424   7.796   1.911
 1524W        W63187  18.779  10.177  12.441
 1525W        W63188  12.169  23.521  11.997
 1526W        W63189  19.111  41.421  13.903
 1527W        W63190   2.393   8.826   0.269
 1528W        W63191   4.270  42.506   3.337
 1529W        W63192  40.932  27.536   2.732
 1530W        W63193  22.562  33.499   0.401
 1531W        W63194  39.831  17.071   0.935
 1532W        W63195  15.581  43.426  13.335
 1533W        W63196  15.649  38.068   1.749
 1534W        W63197  23.705  17.123  12.494
 1535W        W63198  30.979  21.666   0.867
 1536W        W63199  27.534  12.124  10.644
 1537W        W63200  30.920  17.263  12.088
 1538W        W63201  12.343  35.481   0.464
 1539W        W63202  38.987   0.261   4.835
 1540W        W63203   6.382  20.545  14.914
 1541W        W63204  17.143  38.944   1.705
 1542W        W63205  26.979  41.929  11.568
 1543W        W63206  25.642   9.748  11.048
 1544W        W63207   2.391   9.699  13.914
 1545W        W63208  34.423   4.248  11.609
 1546W        W63209   2.892   6.331  11.121
 1547W        W63210  44.469  18.723   1.433
 1548W        W63211  27.682  23.606  14.787
 1549W        W63212  24.136  34.056  12.347
 1550W        W63213   3.763   0.426   0.819
 1551W        W63214  30.623  29.653   1.840
 1552W        W63215  22.235  20.558  10.534
 1553W        W63216  23.601  30.993  12.471
 1554W        W63217   1.409  14.819  14.886
 1555W        W63218  36.358  38.510  12.523
 1556W        W63219  39.923  15.192  11.051
 1557W        W63220  39.884   9.256  11.923
 1558W        W63221  15.316   4.273  11.069
 1559W        W63222  35.537  16.235   3.865
 1560W        W63223  30.503  32.535   1.777
 1561W        W63224   4.442  41.960  13.027
 1562W        W63225  43.338   4.755  14.488
 1563W        W63226   9.224  35.403  12.092
 1564W        W63227  16.161  34.883   4.283
 1565W        W63228  29.455  17.614  12.072
 1566W        W63229  20.697  38.467   4.197
 1567W        W63230  43.469  33.426   1.376
 1568W        W63231  43.338  31.034   4.771
 1569W        W63232  12.211  27.947   1.740
 1570W        W63233  37.960  26.570   4.600
 1571W        W63234  28.503   8.367  12.033
 1572W        W63235  17.761  34.374   2.822
 1573W        W63236  16.129  29.448   0.953
 1574W        W63237   9.864   7.359  14.430
 1575W        W63238   3.337   9.657   0.814
 1576W        W63239  30.137  32.408  10.578
 1577W        W63240  38.536  14.605  13.317
 1578W        W63241  44.331  34.117  10.535
 1579W        W63242  12.765   3.330   2.805
 1580W        W63243  43.834  37.929  14.358
 1581W        W63244  34.514  35.950   3.208
 1582W        W63245  44.818  36.398   0.868
 1583W        W63246  10.704   8.259   3.675
 1584W        W63247   6.390  27.534   4.251
 1585W        W63248  17.114  24.149   0.951
 1586W        W63249  12.358  22.136  12.573
 1587W        W63250  37.397  35.498  13.378
 1588W        W63251   8.172  17.583  11.570
 1589W        W63252  30.162  23.126  13.376
 1590W        W63253  21.597  42.851   0.266
 1591W        W63254  13.296  20.075  13.458
 1592W        W63255  34.454   9.334   4.831
 1593W        W63256  26.025  24.610   3.261
 1594W        W63257   3.441  32.977  13.469
 1595W        W63258  43.930  14.206  13.540
 1596W        W63259  27.489  26.953   2.757
 1597W        W63260  34.870  39.956  10.603
 1598W        W63261   4.212  10.836   4.767
 1599W        W63262  30.141   4.787  13.403
 1600W        W63263  13.346   9.710   4.170
 1601W        W63264  19.560  13.147   0.896
 1602W        W63265  10.222  33.622  10.923
 1603W        W63266  41.441  31.617  14.280
 1604W        W63267  32.427   7.178  14.962
 1605W        W63268   8.763   1.346   4.352
 1606W        W63269  34.111  12.144  14.432
 1607W        W63270  33.392  21.726   4.345
 1608W        W63271   2.886  16.186  14.489
 1609W        W63272  23.133  18.571   4.353
 1610W        W63273  12.198  32.606  10.948
 1611W        W63274  21.702  27.168  14.972
 1612W        W63275   4.240   5.749  13.821
 1613W        W63276  33.984   0.851   3.381
 1614W        W63277  42.430  32.608   2.395
 1615W        W63278  10.842   9.392  14.825
 1616W        W63279  14.768  35.395   0.775
 1617W        W63280  24.513  19.175  13.525
 1618W        W63281   3.348  37.349   1.834
 1619W        W63282  19.729   9.308   4.201
 1620W        W63283  41.973  35.409   2.799
 1621W        W63284   4.375  12.825   3.323
 1622W        W63285   6.341   2.421  13.826
 1623W        W63286  42.927  42.387  13.520
 1624W        W63287  31.591   2.845  11.520
 1625W        W63288   4.260  17.727   0.317
 1626W        W63289  28.080  38.569   3.759
 1627W        W63290  22.243  27.094  13.346
 1628W        W63291  29.063  30.652   3.277
 1629W        W63292  18.596  31.138  12.913
 1630W        W63293  29.534  40.993   3.674
 1631W        W63294   0.755  33.942  11.122
 1632W        W63295  20.740  12.748   1.372
 1633W        W63296  22.208  14.699   0.791
 1634W        W63297  38.499   2.892  12.429
 1635W        W63298  24.508   0.800  13.419
 1636W        W63299  37.558  44.998   0.795
 1637W        W63300  12.190  20.745  13.516
 1638W        W63301  30.093  26.473  13.909
 1639W        W63302  20.044  22.234  11.063
 1640W        W63303   9.786  19.149   3.824
 1641W        W63304  21.754  35.855  14.311
 1642W        W63305  22.724  20.713  14.384
 1643W        W63306  31.982   9.266  13.375
 1644W        W63307  18.260  39.002  10.637
 1645W        W63308  41.937  28.952  11.091
 1646W        W63309  35.563   8.714  14.399
 1647W        W63310  42.858  17.654   1.788
 1648W        W63311  28.093  23.680   9.964
 1649W        W63312  32.003   4.920   4.270
 1650W        W63313  32.415   9.667  13.454
 1651W        W63314  33.984   4.343   1.327
 1652W        W63315  30.984  36.021   0.264
 1653W        W63316  33.918   3.837  11.455
 1654W        W63317   9.837  13.770  11.419
 1655W        W63318   2.369  43.273  12.406
 1656W        W63319  44.388  24.141  14.012
 1657W        W63320  37.075  22.535   0.913
 1658W        W63321  32.511  43.937   1.702
 1659W        W63322  37.945  12.328   1.230
 1660W        W63323   5.336  37.438   2.736
 1661W        W63324  11.723  30.916   3.386
 1662W        W63325  11.745  38.545  12.061
 1663W        W63326  22.612  10.363  11.597
 1664W        W63327  26.470  10.217   1.313
 1665W        W63328   6.827   4.207   0.816
 1666W        W63329  17.206  36.558   4.762
 1667W        W63330   6.264  41.013   3.689
 1668W        W63331  42.334  18.636  12.848
 1669W        W63332  19.612  12.298  13.898
 1670W        W63333  23.236  35.918   1.730
 1671W        W63334  13.157  22.024  13.516
 1672W        W63335   3.724  36.931  11.117
 1673W        W63336  43.356  12.825  11.871
 1674W        W63337   8.885   2.321  13.865
 1675W        W63338   1.396  21.059   3.170
 1676W        W63339  36.082  19.625   2.419
 1677W        W63340  42.009  31.645  10.465
 1678W        W63341  31.524  16.104  13.825
 1679W        W63342   9.319  32.604  12.370
 1680W        W63343  11.757  31.434  13.533
 1681W        W63344  25.199   5.719   2.331
 1682W        W63345  10.382  15.811   3.636
 1683W        W63346  33.950  27.508   4.705
 1684W        W63347  35.909  12.293   3.773
 1685W        W63348  17.159  10.255  13.982
 1686W        W63349  28.131  36.437  14.386
 1687W        W63350  31.988   5.263   3.216
 1688W        W63351  15.097  40.481  14.440
 1689W        W63352   3.925  16.582   3.161
 1690W        W63353   9.235  31.933  14.945
 1691W        W63354  12.733   4.255   4.273
 1692W        W63355  41.369  32.461  12.905
 1693W        W63356   6.369  34.888  10.593
 1694W        W63357  17.178  10.166  12.033
 1695W        W63358  42.903   5.329  11.546
 1696W        W63359  34.544   4.902   9.969
 1697W        W63360  31.593  17.260   1.919
 1698W        W63361  10.320  34.980  10.531
 1699W        W63362  33.570  22.595  14.818
 1700W        W63363  34.870  37.578   1.415
 1701W        W63364  19.600  24.136  12.866
 1702W        W63365  30.939  39.528  14.505
 1703W        W63366  23.647  18.601   3.213
 1704W        W63367   5.304   2.441  10.572
 1705W        W63368  31.120  39.477   0.262
 1706W        W63369  15.790  22.053  11.019
 1707W        W63370   0.954  21.181   5.173
 1708W        W63371  21.196  35.455   0.478
 1709W        W63372  30.158  32.622   4.625
 1710W        W63373   8.750  27.482  10.976
 1711W        W63374   1.860  44.827  11.570
 1712W        W63375  35.095  18.255   3.691
 1713W        W63376   6.194  18.682  13.805
 1714W        W63377  27.188  28.568   2.376
 1715W        W63378  38.890  28.155   1.881
 1716W        W63379  18.711   9.199  13.018
 1717W        W63380  30.621  42.965  12.933
 1718W        W63381  10.688  35.497  14.814
 1719W        W63382  22.745  19.128   1.449
 1720W        W63383  30.475  30.607   1.371
 1721W        W63384  42.443  14.298   2.874
 1722W        W63385  28.505  36.586   1.317
 1723W        W63386  19.240   3.263  10.570
 1724W        W63387   1.732  42.407  12.853
 1725W        W63388  28.032  34.560   0.763
 1726W        W63389  33.880  35.043  14.774
 1727W        W63390  16.158  21.645   4.710
 1728W        W63391   8.205  33.507   4.346
 1729W        W63392  11.243  36.060   3.757
 1730W        W63393  20.524   9.859  11.408
 1731W        W63394  16.685  40.858  10.487
 1732W        W63395  35.082  22.519  11.529
 1733W        W63396  26.582  41.952  13.441
 1734W        W63397  40.927  44.926  10.610
 1735W        W63398   2.737  13.731   1.260
 1736W        W63399  27.171  13.187  11.117
 1737W        W63400   5.305  40.419  10.550
 1738W        W63401  20.157  33.878  12.963
 1739W        W63402  44.498  36.458  14.949
 1740W        W63403   8.249  35.388   3.652
 1741W        W63404  33.589  39.906  11.422
 1742W        W63405  29.970   6.293   1.835
 1743W        W63406  44.321  25.572  12.575
 1744W        W63407  35.563  28.559   4.664
 1745W        W63408  37.454   6.686   4.778
 1746W        W63409  30.498  13.153   4.131
 1747W        W63410  17.294  27.991   1.709
 1748W        W63411  20.545  27.565  11.069
 1749W        W63412  40.395   9.182   1.722
 1750W        W63413  35.511  31.549   4.319
 1751W        W63414  12.144   8.192  12.925
 1752W        W63415   7.305  14.699   0.471
 1753W        W63416  10.785  25.174  11.924
 1754W        W63417  25.661   9.679   1.383
 1755W        W63418  18.079  25.059  14.813
 1756W        W63419   8.212   3.925  14.475
 1757W        W63420  22.099  34.510  11.578
 1758W        W63421  33.576  38.534  14.982
 1759W        W63422  14.641  30.486   0.787
 1760W        W63423  16.609  21.207  10.977
 1761W        W63424  34.945  38.390  11.939
 1762W        W63425  23.241  28.614  12.852
 1763W        W63426  42.359  26.511   1.399
 1764W        W63427   5.863  21.161   0.464
 1765W        W63428  34.396  43.006  10.521
 1766W        W63429  42.467  15.092   4.189
 1767W        W63430  32.608   9.362   0.325
 1768W        W63431   2.898  29.651  14.495
 1769W        W63432   4.248  35.984  11.032
 1770W        W63433  39.908  41.338   0.881
 1771W        W63434   3.393   6.792   0.483
 1772W        W63435  15.701  11.696  12.919
 1773W        W63436  40.842  26.657  14.296
 1774W        W63437  16.690  28.179   1.853
 1775W        W63438  34.978  32.092  14.824
 1776W        W63439   3.223  43.802   0.804
 1777W        W63440  22.644  12.712   2.329
 1778W        W63441  15.807  22.549  11.095
 1779W        W63442   4.311  20.681  14.007
 1780W        W63443   4.305  38.014  11.093
 1781W        W63444  16.711  38.939   4.598
 1782W        W63445  30.027   1.884  14.876
 1783W        W63446   1.747  15.177   4.141
 1784W        W63447  16.177  31.102   4.650
 1785W        W63448  35.965  30.489   4.605
 1786W        W63449   7.178  21.105   0.444
 1787W        W63450  15.641   9.222   0.961
 1788W        W63451   1.462  31.456  11.053
 1789W        W63452   3.895  37.844   0.269
 1790W        W63453   0.886  25.612   3.281
 1791W        W63454  37.582   9.314  14.991
 1792W        W63455   1.897   8.877  12.995
 1793W        W63456  18.729  13.774  13.347
 1794W        W63457  22.619  15.119   0.848
 1795W        W63458  16.798  24.985   1.800
 1796W        W63459   5.376   2.853  14.290
 1797W        W63460  42.981  37.526  12.967
 1798W        W63461  43.932  30.475  11.088
 1799W        W63462  12.179  37.061  13.820
 1800W        W63463  12.683   5.899   0.915
 1801W        W63464  18.074  28.048   2.768
 1802W        W63465  28.175  22.230   1.258
 1803W        W63466  12.363  24.494  10.917
 1804W        W63467  41.499   3.754   4.195
 1805W        W63468  24.569  17.199  10.460
 1806W        W63469   1.350  27.674   3.693
 1807W        W63470   0.305  15.175   5.753
 1808W        W63471  20.646  23.235   4.669
 1809W        W63472  41.008  27.169  12.394
 1810W        W63473  32.037  32.032   3.213
 1811W        W63474  18.091  44.925  11.118
 1812W        W63475  11.142   5.400   2.800
 1813W        W63476  31.505  33.614   1.407
 1814W        W63477  35.977  28.025  10.616
 1815W        W63478   9.883  35.477   0.405
 1816W        W63479  41.843   3.730   0.426
 1817W        W63480  37.945   6.716  14.476
 1818W        W63481  19.207  37.906   2.665
 1819W        W63482  10.809   2.310  10.421
 1820W        W63483  19.726  43.318   0.810
 1821W        W63484  11.725  40.503  14.454
 1822W        W63485  20.117  43.915  14.424
 1823W        W63486  22.622   8.863  14.926
 1824W        W63487  29.547  10.270   2.419
 1825W        W63488   4.221   9.853   2.728
 1826W        W63489  43.873  27.031   3.691
 1827W        W63490  29.096  32.939   1.744
 1828W        W63491  26.992  31.561  13.007
 1829W        W63492   8.191  36.386  13.862
 1830W        W63493  27.069   3.289  11.906
 1831W        W63494   4.225  42.779   4.353
 1832W        W63495  30.932  36.572  11.874
 1833W        W63496  17.248  34.976   2.338
 1834W        W63497   5.321  34.998   3.187
 1835W        W63498  40.493  22.545   3.659
 1836W        W63499  13.284  35.028   3.796
 1837W        W63500  35.031  16.740   0.243
 1838W        W63501  28.059   0.879   3.283
 1839W        W63502  21.102  34.020   4.673
 1840W        W63503  42.989  16.107   1.818
 1841W        W63504  23.076  17.223   3.764
 1842W        W63505  39.559  35.057   4.772
 1843W        W63506  36.929  41.891  14.776
 1844W        W63507  23.132  22.138   1.917
 1845W        W63508  36.071  43.821   2.855
 1846W        W63509  33.984  22.741   9.652
 1847W        W63510  13.142  38.954  12.067
 1848W        W63511  37.911  27.960   1.891
 1849W        W63512  34.466  36.940   1.713
 1850W        W63513  31.922   3.436   3.810
 1851W        W63514  33.955   6.847   1.421
 1852W        W63515   3.882  27.137  12.033
 1853W        W63516  37.562   2.267   4.642
 1854W        W63517   3.331   5.398  13.794
 1855W        W63518  27.178  40.385  14.837
 1856W        W63519  22.087  18.101  14.944
 1857W        W63520  36.847  27.650  14.926
 1858W        W63521  22.646  28.664  10.450
 1859W        W63522  42.307  38.560   1.713
 1860W        W63523  35.977  27.467  14.938
 1861W        W63524  38.893  20.618   4.331
 1862W        W63525   8.227  37.439   4.597
 1863W        W63526  32.541  28.934  13.890
 1864W        W63527  20.076  40.940  13.520
 1865W        W63528  16.669   6.679   4.130
 1866W        W63529  26.474   0.876  11.566
 1867W        W63530  16.268  39.005  13.394
 1868W        W63531  16.601  36.539   5.320
 1869W        W63532  11.200  35.425  13.430
 1870W        W63533  23.514  28.613   3.830
 1871W        W63534   1.913  11.192   0.384
 1872W        W63535  26.167  42.831   9.563
 1873W        W63536  33.906  22.665   1.809
 1874W        W63537  41.003  30.983   1.323
 1875W        W63538   5.272  29.578   0.754
 1876W        W63539   6.346   5.717  12.930
 1877W        W63540  31.442  36.030  14.817
 1878W        W63541  15.744  15.177   2.366
 1879W        W63542   2.334  31.476   3.315
 1880W        W63543  38.835  43.475  13.800
 1881W        W63544   6.859  41.940  14.441
 1882W        W63545  42.978  16.711  11.115
 1883W        W63546  43.971  39.529   0.368
 1884W        W63547   2.817   5.769   4.169
 1885W        W63548  26.956  30.939  11.928
 1886W        W63549  34.459  21.553   3.255
 1887W        W63550  40.475  37.355   1.925
 1888W        W63551   6.328  42.292   1.331
 1889W        W63552  13.343  26.527  12.070
 1890W        W63553  36.065  24.011  12.920
 1891W        W63554  11.353  40.014   3.309
 1892W        W63555  25.083  12.235  14.771
 1893W        W63556  15.134  21.598  13.971
 1894W        W63557  39.370  19.136   4.707
 1895W        W63558  37.921   8.291  14.868
 1896W        W63559  11.793   9.858  12.536
 1897W        W63560  43.775  36.486   3.158
 1898W        W63561  12.227  34.453  14.842
 1899W        W63562  39.865  38.014  12.020
 1900W        W63563  21.697   1.339   3.810
 1901W        W63564  18.086  11.192  13.874
 1902W        W63565   7.275   6.849   0.837
 1903W        W63566  24.216  13.218  13.462
 1904W        W63567   2.831  18.684  11.380
 1905W        W63568  31.588  39.923   4.714
 1906W        W63569   7.750  24.597   0.734
 1907W        W63570  39.832  32.629  13.340
 1908W        W63571  40.516  27.606   2.870
 1909W        W63572  13.650   8.777   9.660
 1910W        W63573  33.089  34.059  14.358
 1911W        W63574  16.190  40.821   0.445
 1912W        W63575  22.211  25.016   0.275
 1913W        W63576  18.580   5.208  14.859
 1914W        W63577  17.675  36.568   2.777
 1915W        W63578   5.764  16.692  12.420
 1916W        W63579  31.452  20.634   0.900
 1917W        W63580  26.464  19.054   4.333
 1918W        W63581   8.304   0.911   0.304
 1919W        W63582  37.561   1.430   2.180
 1920W        W63583  21.102  28.111   5.238
 1921W        W63584  25.479  13.611  12.368
 1922W        W63585   7.879   8.355   3.820
 1923W        W63586  34.508  12.220   0.828
 1924W        W63587   3.907  37.040  10.434
 1925W        W63588  30.561   1.242  12.364
 1926W        W63589  41.438  12.675  13.002
 1927W        W63590  17.775  22.136   2.391
 1928W        W63591  35.098  22.093   4.168
 1929W        W63592  34.098   6.757   0.850
 1930W        W63593  25.116  21.223  14.494
 1931W        W63594   8.728  26.027   0.764
 1932W        W63595  32.496  18.680  12.563
 1933W        W63596  12.173  13.794  12.976
 1934W        W63597  33.031  31.923   3.185
 1935W        W63598  14.322  11.774   0.910
 1936W        W63599  37.351  30.953  14.878
 1937W        W63600  41.898  15.751   5.315
 1938W        W63601  43.013  11.341   0.959
 1939W        W63602  27.669   6.198  14.969
 1940W        W63603  15.702  42.362   0.761
 1941W        W63604  26.077  11.128  13.515
 1942W        W63605  24.652  35.466  13.893
 1943W        W63606  30.062  13.810   0.365
 1944W        W63607  22.706  15.756   5.088
 1945W        W63608  22.076  33.548   2.685
 1946W        W63609   5.785  26.070   4.315
 1947W        W63610   5.834  24.161   3.703
 1948W        W63611  13.251  44.497  12.064
 1949W        W63612  17.268  15.676   5.592
 1950W        W63613  35.490   7.313   1.319
 1951W        W63614  36.511  31.096  14.284
 1952W        W63615  21.622  33.604   0.378
 1953W        W63616   2.829   1.963  12.869
 1954W        W63617   6.364  28.977  13.838
 1955W        W63618  27.119  40.015  11.962
 1956W        W63619   2.299   8.783  14.807
 1957W        W63620  31.570  17.699  12.385
 1958W        W63621  30.108  24.597  12.540
 1959W        W63622  12.322  43.884   4.758
 1960W        W63623  27.054  42.423   5.313
 1961W        W63624  24.056  36.856   1.272
 1962W        W63625  29.515  29.055  13.507
 1963W        W63626  13.204  38.023  14.448
 1964W        W63627   3.329  16.270  12.902
 1965W        W63628   3.907  17.069   2.820
 1966W        W63629  40.798  17.665   3.158
 1967W        W63630  36.401  41.476   5.272
 1968W        W63631  24.981   8.775  10.560
 1969W        W63632  41.513  40.394  14.342
 1970W        W63633  41.814  44.338  10.540
 1971W        W63634  11.809  40.393   9.947
 1972W        W63635  11.668   4.336   4.723
 1973W        W63636  40.343  19.141  10.936
 1974W        W63637  32.599  32.962  12.060
 1975W        W63638  37.512   5.423  12.833
 1976W        W63639  37.450  12.663   3.826
 1977W        W63640  34.978  18.122  12.039
 1978W        W63641  35.524  39.951   1.229
 1979W        W63642  22.153  42.942   2.693
 1980W        W63643  10.831  28.102   0.327
 1981W        W63644  32.552  27.179  14.475
 1982W        W63645  27.565  21.186  11.076
 1983W        W63646  39.905  43.436  11.108
 1984W        W63647  43.005  44.432  13.012
 1985W        W63648  11.201  18.591  14.895
 1986W        W63649  21.688  30.444   1.270
 1987W        W63650  34.430  32.427   2.384
 1988W        W63651  40.825  38.855  13.395
 1989W        W63652  13.143  26.476   2.783
 1990W        W63653  18.077  28.067  13.966
 1991W        W63654  12.672  19.559  13.458
 1992W        W63655  10.282  17.606  14.779
 1993W        W63656   3.457   6.740  11.043
 1994W        W63657  12.693  42.353   4.732
 1995W        W63658  13.336  16.292  13.865
 1996W        W63659  41.917   4.291   0.780
 1997W        W63660  38.899  33.961   4.244
 1998W        W63661  25.058  24.494   1.394
 1999W        W63662  14.196  25.122  10.990
 2000W        W63663  40.995   6.725   2.347
 2001W        W63664  13.643  30.575  11.069
 2002W        W63665  13.325  10.212   4.785
 2003W        W63666  18.103  33.956  13.484
 2004W        W63667  20.139  19.613  14.787
 2005W        W63668  17.283  14.150  12.973
 2006W        W63669  41.927  12.706  11.056
 2007W        W63670  43.010  11.849   3.771
 2008W        W63671  19.679  15.323  13.504
 2009W        W63672  26.593  28.472  14.968
 2010W        W63673  17.146  29.458   1.265
 2011W        W63674   0.488   6.818  10.563
 2012W        W63675   6.833  14.676   0.826
 2013W        W63676  43.924  42.308  13.514
 2014W        W63677  39.469   6.265  12.888
 2015W        W63678  15.175  32.987   2.752
 2016W        W63679  17.218  18.291   1.365
 2017W        W63680   6.894  40.904  14.408
 2018W        W63681   7.868   4.260   0.323
 2019W        W63682  24.530  17.277   1.901
 2020W        W63683   8.835  33.990  12.405
 2021W        W63684  32.079  29.431  11.551
 2022W        W63685  33.520  19.721  12.499
 2023W        W63686  44.992   7.376   2.193
 2024W        W63687  13.147  37.841   5.165
 2025W        W63688  21.553  13.646  14.012
 2026W        W63689  41.519  11.850  11.927
 2027W        W63690  38.390  11.128  11.084
 2028W        W63691  20.262  15.616   3.236
 2029W        W63692  44.457   9.384   1.434
 2030W        W63693   4.289  42.450  14.867
 2031W        W63694  21.524  41.497  13.352
 2032W        W63695   7.343  21.051   3.242
 2033W        W63696  38.467   6.736  12.420
 2034W        W63697   6.359  41.409   4.345
 2035W        W63698  24.643  27.956  12.388
 2036W        W63699  29.143  17.190  14.516
 2037W        W63700  23.207  23.516  13.513
 2038W        W63701  35.501   9.698  11.094
 2039W        W63702  11.769  25.623   1.348
 2040W        W63703  37.454  38.027  12.557
 2041W        W63704  19.102  27.568  12.383
 2042W        W63705  12.664  16.113   3.197
 2043W        W63706  31.615  31.514   3.214
 2044W        W63707  23.084   9.345   2.252
 2045W        W63708   2.289  42.941   3.806
 2046W        W63709  43.948  16.252   0.275
 2047W        W63710  42.994  15.726   2.191
 2048W        W63711  43.421  42.512  14.474
 2049W        W63712  24.160  24.181   4.296
 2050W        W63713  35.006   3.922  13.030
 2051W        W63714  39.949  31.113   3.848
 2052W        W63715  21.682  42.458  12.455
 2053W        W63716   9.665  32.007  14.402
 2054W        W63717   8.777   5.884   4.638
 2055W        W63718  18.672  39.057  14.388
 2056W        W63719  21.109  42.026  11.423
 2057W        W63720   1.379  44.814  11.459
 2058W        W63721   9.679   6.357   1.722
 2059W        W63722  10.717   1.241   0.293
 2060W        W63723  40.531  31.984   4.779
 2061W        W63724  34.990  34.385   0.819
 2062W        W63725   4.813  16.708   5.098
 2063W        W63726  17.223  44.382  10.935
 2064W        W63727  39.824  36.993   1.787
 2065W        W63728  16.106   4.204   3.179
 2066W        W63729  43.020  22.729  12.538
 2067W        W63730   0.252  31.032  13.962
 2068W        W63731   0.944   0.791  14.302
 2069W        W63732  23.038   1.964  13.351
 2070W        W63733  26.990  29.596   4.808
 2071W        W63734  30.972  39.034   0.364
 2072W        W63735  20.717   0.973  13.937
 2073W        W63736  12.162  14.331  14.939
 2074W        W63737  22.544  27.071   2.369
 2075W        W63738  42.502  39.937  13.920
 2076W        W63739  10.216  34.955  10.902
 2077W        W63740  35.432  33.108   4.622
 2078W        W63741  11.851  36.947  11.919
 2079W        W63742  41.009   7.347   4.352
 2080W        W63743  17.138   9.348   1.911
 2081W        W63744  41.980  30.938  13.471
 2082W        W63745  16.292  26.194   3.374
 2083W        W63746   3.825  25.159  14.011
 2084W        W63747  37.941   1.393   2.903
 2085W        W63748  25.100  12.199   1.702
 2086W        W63749  38.051  40.932   1.887
 2087W        W63750  14.622  34.602  10.140
 2088W        W63751  22.742  43.835   3.376
 2089W        W63752  35.412  42.964   4.122
 2090W        W63753  17.629  12.728   1.825
 2091W        W63754  27.586   5.383  12.530
 2092W        W63755   4.879  36.059   1.346
 2093W        W63756   9.299  43.775  12.087
 2094W        W63757   1.872  43.983  12.417
 2095W        W63758   2.952  38.046  14.441
 2096W        W63759  32.074  22.615  13.897
 2097W        W63760  11.131  32.612  11.924
 2098W        W63761   9.212   6.775   2.258
 2099W        W63762   7.303   0.364  13.527
 2100W        W63763  17.215  18.604  14.847
 2101W        W63764  13.141  12.173  14.893
 2102W        W63765  20.108  23.183  12.946
 2103W        W63766  11.150   1.833  14.279
 2104W        W63767   7.807   4.217  14.782
 2105W        W63768  39.870  24.526   0.355
 2106W        W63769  24.676  42.407  10.501
 2107W        W63770  17.248  20.710  12.933
 2108W        W63771   2.264  35.420  11.010
 2109W        W63772  41.035   2.956  14.785
 2110W        W63773  26.198  43.362  13.896
 2111W        W63774  35.411  18.209  12.076
 2112W        W63775  42.789  27.526  14.028
 2113W        W63776  23.577  39.854   5.256
 2114W        W63777  10.226   5.856   0.872
 2115W        W63778  30.100   8.738   1.781
 2116W        W63779  44.437   6.224   2.796
 2117W        W63780  42.317  13.655   0.746
 2118W        W63781  22.080  23.078  13.539
 2119W        W63782  38.507  31.497   4.647
 2120W        W63783  26.688   5.270   4.655
 2121W        W63784  27.015   2.344  12.447
 2122W        W63785   9.725   0.758   3.255
 2123W        W63786  36.977  30.105   0.382
 2124W        W63787  13.296  11.782  12.068
 2125W        W63788  13.741   7.783  12.501
 2126W        W63789  24.123   3.934  13.360
 2127W        W63790   3.782   5.286  12.518
 2128W        W63791   6.213  17.579  11.373
 2129W        W63792  40.006  41.786   2.284
 2130W        W63793   0.859  28.113   4.256
 2131W        W63794   8.305  32.072  10.573
 2132W        W63795  28.097   9.875  11.572
 2133W        W63796  31.056   8.328   4.209
 2134W        W63797   7.694   2.903   4.283
 2135W        W63798   8.185  18.091   2.270
 2136W        W63799  12.679  43.462  12.509
 2137W        W63800   7.715   1.747  11.389
 2138W        W63801  25.079  34.927   1.339
 2139W        W63802  23.087  26.204  12.536
 2140W        W63803  11.749  36.928   2.262
 2141W        W63804  29.580  33.432  13.531
 2142W        W63805   7.827  19.750   2.756
 2143W        W63806  35.528  19.775   4.293
 2144W        W63807  12.174   6.769   1.811
 2145W        W63808  22.711  19.695  13.849
 2146W        W63809  23.728  38.447  11.598
 2147W        W63810  11.743  22.591   1.438
 2148W        W63811   7.889   3.256   3.350
 2149W        W63812  43.344  42.395   0.273
 2150W        W63813  18.198  22.543  12.524
 2151W        W63814  38.849   4.778  13.431
 2152W        W63815  33.530  41.449  12.380
 2153W        W63816   4.733   6.767   2.360
 2154W        W63817   3.721  21.058  13.429
 2155W        W63818  29.587  21.076   3.645
 2156W        W63819  25.208  15.609  10.974
 2157W        W63820   9.678  19.100   0.904
 2158W        W63821  14.600  11.257  10.543
 2159W        W63822   0.921  38.512   2.372
 2160W        W63823   0.793  16.195  14.949
 2161W        W63824  22.634  13.823  12.519
 2162W        W63825   8.390  24.982   1.229
 2163W        W63826  22.103  24.671   0.943
 2164W        W63827  26.197  35.090  12.944
 2165W        W63828  20.751   8.334   4.273
 2166W        W63829  11.232  15.756   0.852
 2167W        W63830  36.946  37.520  14.843
 2168W        W63831  27.642  15.120   0.380
 2169W        W63832  18.783   2.758  12.088
 2170W        W63833  40.948  41.863   4.251
 2171W        W63834  11.769  40.384  12.971
 2172W        W63835   1.865   4.396  11.906
 2173W        W63836  15.775   0.252  11.418
 2174W        W63837  19.619   4.719   4.198
 2175W        W63838  38.424  29.927   2.328
 2176W        W63839  29.940  24.094  11.059
 2177W        W63840  19.593   5.350  12.883
 2178W        W63841  36.566  29.107   2.710
 2179W        W63842  25.510  42.423  11.987
 2180W        W63843   5.797   9.245   2.253
 2181W        W63844  37.015   4.247   1.894
 2182W        W63845  33.986  23.178  11.997
 2183W        W63846  44.268  21.672  12.560
 2184W        W63847  18.600  36.476   3.192
 2185W        W63848  22.996   6.240   4.331
 2186W        W63849  11.268  33.946  11.420
 2187W        W63850  28.656  27.674   1.239
 2188W        W63851  29.433  36.843  11.539
 2189W        W63852  31.966  35.441   3.267
 2190W        W63853  18.089  25.618  14.314
 2191W        W63854  27.505  13.191   0.949
 2192W        W63855  40.966   3.441  14.880
 2193W        W63856  10.642  43.458   2.692
 2194W        W63857  42.449  17.255  10.410
 2195W        W63858   4.823   4.361  10.464
 2196W        W63859  18.210  42.912   4.145
 2197W        W63860  17.673  29.973  13.986
 2198W        W63861  18.672  20.043   2.217
 2199W        W63862  26.121   3.787  14.915
 2200W        W63863  20.191  43.008   3.365
 2201W        W63864  25.713  14.300  12.907
 2202W        W63865  27.604  34.985   3.697
 2203W        W63866   0.344  39.057  14.787
 2204W        W63867  37.426  33.990  11.410
 2205W        W63868   7.710  38.556   4.731
 2206W        W63869  18.184  24.678  12.007
 2207W        W63870  39.901  41.523  12.089
 2208W        W63871   3.417  36.975  14.317
 2209W        W63872  31.528   5.858   1.370
 2210W        W63873  11.193  42.492   4.718
 2211W        W63874   0.781   7.235   2.712
 2212W        W63875  23.067  27.146   0.309
 2213W        W63876  16.164  24.088   3.222
 2214W        W63877  31.592  13.652   0.874
 2215W        W63878  28.084  36.942   2.324
 2216W        W63879  31.973   9.648  13.425
 2217W        W63880  23.677   5.299   5.802
 2218W        W63881  22.636  30.480   3.155
 2219W        W63882   9.316  28.930   1.358
 2220W        W63883  26.577  15.770  11.871
 2221W        W63884  24.182  39.529   3.647
 2222W        W63885  14.290  35.586   0.417
 2223W        W63886  39.464  14.700   0.835
 2224W        W63887  26.191  15.758   0.297
 2225W        W63888  16.104   4.873   2.727
 2226W        W63889   0.445  33.912   3.661
 2227W        W63890   1.892  13.765   0.248
 2228W        W63891  16.295  43.779  14.901
 2229W        W63892   0.834  17.188  14.031
 2230W        W63893  28.558  11.798   0.481
 2231W        W63894  37.472  13.801  12.068
 2232W        W63895  39.064  21.124   0.345
 2233W        W63896  15.245  22.019   2.779
 2234W        W63897  14.224  42.414   2.842
 2235W        W63898  27.141  27.180  13.372
 2236W        W63899  37.917   8.839   2.327
 2237W        W63900  16.805  32.024   2.744
 2238W        W63901  35.868  23.076   1.828
 2239W        W63902  21.072   4.830  13.805
 2240W        W63903   1.266  12.665   2.296
 2241W        W63904  30.470  23.513  13.313
 2242W        W63905  15.656  44.756  13.813
 2243W        W63906  31.503  21.758  14.327
 2244W        W63907  38.380  34.067   2.813
 2245W        W63908  32.600  33.418  12.573
 2246W        W63909   8.672  25.151  10.129
 2247W        W63910  39.423  40.497   2.836
 2248W        W63911   8.696  27.029   0.936
 2249W        W63912  16.671  29.583   3.329
 2250W        W63913  16.734  21.665   0.468
 2251W        W63914  41.018  34.066   3.738
 2252W        W63915   4.309  30.958   1.909
 2253W        W63916  23.078  28.455  11.592
 2254W        W63917  30.918  33.888  11.371
 2255W        W63918  22.024  26.619  13.514
 2256W        W63919  39.474  10.733   2.310
 2257W        W63920  16.217  15.143   2.742
 2258W        W63921  16.590   7.677   0.432
 2259W        W63922   8.295  43.983   0.280
 2260W        W63923  19.272  36.986   4.732
 2261W        W63924   6.389   8.170   4.615
 2262W        W63925   8.713   4.942   0.244
 2263W        W63926  31.922  27.467  10.006
 2264W        W63927  25.073  23.683   2.280
 2265W        W63928  17.180  13.221   0.383
 2266W        W63929  30.071   1.367   1.242
 2267W        W63930  37.046  26.952   4.830
 2268W        W63931   7.377  20.104  10.996
 2269W        W63932  25.053  12.836   0.363
 2270W        W63933   7.673   1.446  14.309
 2271W        W63934   9.874  28.068   4.123
 2272W        W63935  43.296   6.269  10.087
 2273W        W63936  35.425  34.560  10.604
 2274W        W63937  37.843   6.697  12.950
 2275W        W63938  29.659  24.111   3.283
 2276W        W63939  23.697   0.363   2.801
 2277W        W63940  35.912  34.373  12.057
 2278W        W63941  17.598  37.532   1.831
 2279W        W63942  37.526  10.138  14.402
 2280W        W63943  37.576  14.258  10.525
 2281W        W63944  25.963  15.602  13.333
 2282W        W63945  27.661  14.680  14.386
 2283W        W63946  18.086  35.091  13.529
 2284W        W63947  41.935  42.492   2.210
 2285W        W63948  36.053  23.602   4.678
 2286W        W63949  20.185  29.108  13.945
 2287W        W63950  17.600  27.053   3.193
 2288W        W63951  32.997  27.131  12.012
 2289W        W63952  38.934  43.765   2.783
 2290W        W63953  29.467   1.736   2.694
 2291W        W63954  26.000  20.179  14.999
 2292W        W63955   8.851   1.413  13.967
 2293W        W63956  23.989  19.130   0.311
 2294W        W63957  38.362  25.587  13.899
 2295W        W63958  37.054  44.857  10.998
 2296W        W63959   7.236  24.103  10.927
 2297W        W63960  17.215  35.581   4.220
 2298W        W63961  23.506  43.440   1.898
 2299W        W63962  42.906  11.824   0.843
 2300W        W63963  34.906  10.878   4.816
 2301W        W63964  12.800  14.120  12.994
 2302W        W63965   1.931  11.297  12.825
 2303W        W63966  11.205  27.617  14.957
 2304W        W63967   8.674  12.710   0.729
 2305W        W63968  40.875   4.245  10.435
 2306W        W63969  10.726   1.851  11.508
 2307W        W63970  10.185  18.726   1.919
 2308W        W63971  37.558  10.196  12.459
 2309W        W63972  37.439  11.738   5.205
 2310W        W63973   8.728   0.941  14.493
 2311W        W63974  10.650   6.413  10.053
 2312W        W63975  26.519  21.537   1.712
 2313W        W63976  37.402  42.464   2.867
 2314W        W63977  15.821  36.382  14.983
 2315W        W63978  41.000   4.301   4.327
 2316W        W63979  40.963  36.091  14.370
 2317W        W63980   0.987  40.040   0.347
 2318W        W63981  39.370  25.598  13.343
 2319W        W63982  13.318  16.171  11.863
 2320W        W63983   6.207   5.393  14.481
 2321W        W63984  22.129  42.941  14.883
 2322W        W63985  15.257   9.833  13.877
 2323W        W63986  24.999  31.092   4.257
 2324W        W63987  31.494   7.318   4.287
 2325W        W63988  11.183   0.468  12.537
 2326W        W63989  43.363  40.441   0.380
 2327W        W63990  28.444   7.223   3.731
 2328W        W63991  31.587  39.970   1.745
 2329W        W63992  26.120   8.728  14.453
 2330W        W63993  20.195  13.176   4.816
 2331W        W63994   6.682  17.258   0.370
 2332W        W63995  36.388  30.967   2.266
 2333W        W63996  40.395   5.808   1.717
 2334W        W63997  10.253   2.397   3.799
 2335W        W63998  21.575   3.770   2.299
 2336W        W63999  18.144   4.373   2.267
 2337W        W64000   3.274  19.201   2.416
 2338W        W64001  35.008  23.517   4.723
 2339W        W64002  41.508  38.028   3.335
 2340W        W64003  11.664   4.920   1.447
 2341W        W64004  28.148  10.252   2.764
 2342W        W64005  15.600  19.648   9.940
 2343W        W64006  11.747  20.059   2.710
 2344W        W64007  35.980  10.829  10.895
 2345W        W64008  35.016  44.889  14.511
 2346W        W64009  10.799   2.372   4.763
 2347W        W64010  25.638  39.810  14.032
 2348W        W64011  22.075   6.354  13.441
 2349W        W64012  36.051  11.640  14.771
 2350W        W64013  40.022  28.514   2.796
 2351W        W64014  44.833  18.067  10.429
 2352W        W64015   5.767  26.084   1.839
 2353W        W64016  26.548  22.033   1.216
 2354W        W64017   6.748   1.429   1.425
 2355W        W64018  11.337  16.098  11.433
 2356W        W64019  14.601  12.286  11.044
 2357W        W64020  20.060  11.284   2.204
 2358W        W64021  38.546  30.012   0.379
 2359W        W64022  12.828  40.306  13.928
 2360W        W64023   3.459   3.910   0.336
 2361W        W64024  22.039   5.851  13.334
 2362W        W64025  14.663  14.669  14.426
 2363W        W64026  43.969  15.821  10.538
 2364W        W64027  27.573  28.606   3.150
 2365W        W64028  27.528  41.411   3.280
 2366W        W64029   5.222   7.819   4.113
 2367W        W64030   7.863  41.412  13.863
 2368W        W64031  23.580  14.758   3.783
 2369W        W64032   2.307  14.199  14.879
 2370W        W64033  37.392  37.427   4.135
 2371W        W64034  11.129  38.984   4.693
 2372W        W64035  31.923  44.303   0.415
 2373W        W64036  19.746   8.814   3.170
 2374W        W64037  18.589  20.699   4.831
 2375W        W64038  17.291  33.904   3.284
 2376W        W64039  32.026  15.805  13.808
 2377W        W64040   7.849  10.828  11.458
 2378W        W64041  21.230   5.364  13.536
 2379W        W64042  40.509  41.863  10.427
 2380W        W64043  39.346  34.559   3.187
 2381W        W64044  20.687   5.298  12.982
 2382W        W64045  21.062   7.875  12.506
 2383W        W64046  18.577  38.936   0.912
 2384W        W64047  27.513  14.738   0.902
 2385W        W64048  43.471  37.563  10.065
 2386W        W64049  34.078   1.363  14.807
 2387W        W64050   9.261   4.207  13.935
 2388W        W64051  23.564  10.305   4.355
 2389W        W64052  25.012  38.413   0.340
 2390W        W64053  17.685   8.830  11.974
 2391W        W64054   7.778  44.505  14.890
 2392W        W64055   3.379  28.572  13.966
 2393W        W64056  27.109  24.542  10.528
 2394W        W64057   9.702   7.755   0.825
 2395W        W64058  20.066  18.070   0.854
 2396W        W64059  20.131   5.269   2.302
 2397W        W64060   6.418  17.194   2.791
 2398W        W64061  35.055  44.388   1.229
 2399W        W64062   4.410  32.622   3.681
 2400W        W64063  33.024  39.314   2.321
 2401W        W64064  28.477  33.028   1.353
 2402W        W64065  27.671  16.699  11.377
 2403W        W64066  37.956  11.788  14.300
 2404W        W64067  27.946   2.307   0.384
 2405W        W64068  33.057  10.700  14.506
 2406W        W64069  43.389   5.346   5.311
 2407W        W64070  17.204  18.611   0.311
 2408W        W64071  32.451   8.827   4.600
 2409W        W64072  18.069   7.263  13.036
 2410W        W64073  34.962  33.437  10.047
 2411W        W64074  24.197  41.995  14.791
 2412W        W64075  42.984  28.490   1.383
 2413W        W64076  15.198  30.461   1.848
 2414W        W64077  18.052  28.675   0.728
 2415W        W64078  39.362  35.863   1.818
 2416W        W64079  26.185  41.381  13.419
 2417W        W64080   8.722  10.211   1.744
 2418W        W64081  14.137  28.635  12.373
 2419W        W64082   0.358  29.958  12.070
 2420W        W64083   7.884  29.455  13.804
 2421W        W64084   3.782  28.541  12.062
 2422W        W64085  43.295  13.663  13.865
 2423W        W64086   7.283   5.388  14.443
 2424W        W64087  30.467  12.139  12.078
 2425W        W64088  32.894  18.085   4.799
 2426W        W64089   0.966  15.265   2.796
 2427W        W64090  38.893  36.565  12.047
 2428W        W64091  24.017  38.490   2.889
 2429W        W64092   3.359  28.040   2.418
 2430W        W64093  28.673  27.590   1.832
 2431W        W64094   6.382   3.788   3.261
 2432W        W64095  18.737  35.424   0.914
 2433W        W64096  27.522  12.665  12.464
 2434W        W64097  11.292  25.611  11.057
 2435W        W64098  43.958  42.839   1.400
 2436W        W64099  13.263   8.739   2.277
 2437W        W64100  29.014  12.331   1.850
 2438W        W64101  36.982  16.795   1.766
 2439W        W64102  42.438  23.696  12.918
 2440W        W64103  32.953  11.217   3.197
 2441W        W64104   4.818  32.531  11.065
 2442W        W64105  13.654  13.794  14.773
 2443W        W64106   6.275  21.513  10.596
 2444W        W64107   3.269   6.283   1.769
 2445W        W64108  33.453  42.404   1.742
 2446W        W64109  40.927  27.186   3.268
 2447W        W64110  32.554  10.361   0.788
 2448W        W64111  29.006  31.970  13.376
 2449W        W64112  44.444  42.021   2.305
 2450W        W64113  27.018  25.187   5.269
 2451W        W64114  29.172  27.679   0.284
 2452W        W64115  20.120  27.095   0.885
 2453W        W64116  20.635  29.582   2.393
 2454W        W64117  44.784   7.328  12.483
 2455W        W64118  23.492  22.165   3.288
 2456W        W64119   9.725  16.188  11.371
 2457W        W64120   4.422  14.745   0.938
 2458W        W64121   9.798  20.187  14.869
 2459W        W64122  30.109  10.706  11.868
 2460W        W64123  34.533   8.174   0.345
 2461W        W64124   3.335  29.150  10.922
 2462W        W64125  18.083  13.244   9.619
 2463W        W64126  26.587  18.642   1.882
 2464W        W64127  15.705  24.666  14.409
 2465W        W64128   7.271  16.203   3.796
 2466W        W64129   6.866  34.111  12.580
 2467W        W64130  40.973  40.349   4.780
 2468W        W64131  13.742   7.807  10.420
 2469W        W64132  21.652  37.456   1.222
 2470W        W64133  14.684  41.311   4.837
 2471W        W64134  35.031  44.995   1.788
 2472W        W64135   4.813   2.275  14.858
 2473W        W64136   4.437  42.999   2.825
 2474W        W64137  23.216  35.961  13.828
 2475W        W64138  36.459   6.313   5.198
 2476W        W64139  21.663  24.001  12.565
 2477W        W64140  14.657  18.755   1.310
 2478W        W64141  35.888  36.967   3.176
 2479W        W64142  38.883  43.299  14.827
 2480W        W64143  35.363  38.035  13.044
 2481W        W64144  42.419  34.384   2.899
 2482W        W64145  25.480  17.285   1.362
 2483W        W64146  10.820  27.514  11.998
 2484W        W64147  31.966  29.023   1.222
 2485W        W64148   6.190  35.419  12.050
 2486W        W64149  22.237  39.950  12.467
 2487W        W64150  30.514  38.380  14.945
 2488W        W64151  42.313  15.296   5.775
 2489W        W64152  42.477  25.525   4.678
 2490W        W64153   6.736  41.473   4.231
 2491W        W64154   0.335  14.623  14.473
 2492W        W64155  40.438  21.655  13.845
 2493W        W64156  18.546  36.076   0.791
 2494W        W64157  33.915  31.052  14.024
 2495W        W64158  17.074   5.282  13.996
 2496W        W64159   8.193   2.258  12.390
 2497W        W64160   3.934  15.603  10.605
 2498W        W64161  28.970  27.009   1.874
 2499W        W64162  29.950   5.735   0.849
 2500W        W64163   2.792  41.977   1.828
 2501W        W64164  37.385  27.960  14.359
 2502W        W64165   0.966   9.348   4.257
 2503W        W64166  40.989  16.697  11.540
 2504W        W64167  13.264  39.957  10.471
 2505W        W64168  24.150  43.298  11.986
 2506W        W64169  11.695  30.542  13.889
 2507W        W64170  21.192  37.990   2.399
 2508W        W64171   4.356  23.019  11.905
 2509W        W64172   9.799  28.469  10.980
 2510W        W64173  27.140  31.928   0.374
 2511W        W64174   4.340  13.842  14.825
 2512W        W64175  37.033  30.546   0.252
 2513W        W64176  25.118  42.488  13.836
 2514W        W64177  16.132  25.971  14.337
 2515W        W64178  22.722   4.249  10.438
 2516W        W64179  43.868   7.757  12.825
 2517W        W64180  37.526  38.075  14.879
 2518W        W64181  44.380  26.009   1.843
 2519W        W64182  42.776   0.263  14.325
 2520W        W64183  37.545  19.535   4.148
 2521W        W64184  31.960   3.294  12.489
 2522W        W64185  14.589   2.414   0.947
 2523W        W64186  26.491   7.733   2.218
 2524W        W64187   7.804  39.472   3.207
 2525W        W64188  42.501  21.081  10.584
 2526W        W64189  20.560  18.599   4.181
 2527W        W64190  33.975  26.551   0.393
 2528W        W64191  33.453   2.857  14.501
 2529W        W64192  28.482   4.777  12.479
 2530W        W64193  20.194   1.856   2.331
 2531W        W64194  40.983  11.720   4.711
 2532W        W64195  11.128  43.466   2.779
 2533W        W64196  40.375  35.874   3.179
 2534W        W64197   4.338   0.425  13.415
 2535W        W64198  14.140   7.185  10.016
 2536W        W64199  24.072  24.136  11.435
 2537W        W64200  13.789   5.874  10.063
 2538W        W64201   1.351  34.880   3.326
 2539W        W64202  28.950  27.979   3.689
 2540W        W64203  12.621  21.263  10.513
 2541W        W64204  32.979   0.422   0.357
 2542W        W64205  12.848  19.733   3.663
 2543W        W64206  40.931  30.634  12.860
 2544W        W64207  21.137   0.275  11.489
 2545W        W64208  12.743  24.532  13.407
 2546W        W64209  25.669   6.697   4.662
 2547W        W64210  39.411  35.974   3.328
 2548W        W64211  16.632  43.272   3.204
 2549W        W64212  17.268  36.452  14.026
 2550W        W64213  39.917  29.646   3.763
 2551W        W64214  32.443  37.442   0.262
 2552W        W64215  41.440  31.923   3.263
 2553W        W64216  35.435   5.301   0.265
 2554W        W64217  14.124  21.061  12.343
 2555W        W64218  13.301   3.267  10.593
 2556W        W64219  13.212  24.526  13.438
 2557W        W64220  42.901  32.480  12.955
 2558W        W64221   3.932  24.168  14.355
 2559W        W64222  35.881   4.723  14.309
 2560W        W64223  27.540  28.608   4.281
 2561W        W64224  12.197  14.772  11.466
 2562W        W64225   4.231   8.872   4.167
 2563W        W64226  30.066  35.445   1.389
 2564W        W64227   6.809  39.919   3.284
 2565W        W64228   4.270   5.361   2.297
 2566W        W64229   1.829   3.803   0.745
 2567W        W64230   6.826  22.051  14.795
 2568W        W64231  10.810  19.109   1.344
 2569W        W64232  14.126  38.873  14.340
 2570W        W64233   9.254  44.287  10.893
 2571W        W64234  17.263  33.557  13.433
 2572W        W64235  15.214   9.153   2.329
 2573W        W64236   8.354  17.559  14.442
 2574W        W64237  34.595   1.290  11.951
 2575W        W64238  22.696  18.270   1.281
 2576W        W64239   8.232  16.722   2.188
 2577W        W64240  21.686   2.920  14.992
 2578W        W64241   2.389   2.778  14.948
 2579W        W64242  12.257   4.743  14.933
 2580W        W64243  35.413  21.722  10.990
 2581W        W64244  21.092  26.126   0.335
 2582W        W64245   3.955   2.340  12.407
 2583W        W64246  31.489  13.805   2.806
 2584W        W64247  11.150   7.836  12.994
 2585W        W64248  21.258  42.404   0.824
 2586W        W64249  29.656  43.443  11.486
 2587W        W64250  28.674  31.001  11.607
 2588W        W64251  32.533  40.497   2.328
 2589W        W64252  15.191   4.400  11.925
 2590W        W64253  32.422   2.727  10.547
 2591W        W64254  30.447  40.912   1.220
 2592W        W64255   4.913   9.883  14.817
 2593W        W64256   6.712  27.187  14.026
 2594W        W64257  34.459  40.425   1.440
 2595W        W64258  19.097   7.786  11.967
 2596W        W64259  19.642   8.816  12.093
 2597W        W64260  33.969   4.893   4.729
 2598W        W64261  18.231  25.066   3.327
 2599W        W64262  33.467  23.573  14.451
 2600W        W64263  12.245   7.294   3.295
 2601W        W64264  21.552   6.280   0.311
 2602W        W64265  29.483  10.838   0.908
 2603W        W64266  37.484  18.556   3.851
 2604W        W64267  25.156   5.864   2.891
 2605W        W64268  35.988   4.340   2.319
 2606W        W64269  17.741  31.064  13.364
 2607W        W64270  35.910  39.545  14.343
 2608W        W64271  26.537  35.910  13.057
 2609W        W64272  16.608  41.020   0.735
 2610W        W64273  27.112  30.658  12.984
 2611W        W64274  17.642  33.011  13.544
 2612W        W64275  20.110  33.947   1.412
 2613W        W64276  32.941  39.887  11.922
 2614W        W64277  26.676   1.898  10.153
 2615W        W64278  41.972  22.658   1.435
 2616W        W64279  24.171  42.519   0.827
 2617W        W64280  28.441  20.678  12.516
 2618W        W64281  29.144  44.886  13.890
 2619W        W64282   1.265  29.521   0.758
 2620W        W64283  40.818  29.935   0.941
 2621W        W64284   9.861  17.784   2.689
 2622W        W64285  25.982   8.783  11.858
 2623W        W64286  23.206  41.032  14.357
 2624W        W64287  18.725  25.615  11.911
 2625W        W64288  24.124  43.001   2.260
 2626W        W64289  32.466  11.285   3.734
 2627W        W64290  14.714  13.278  13.354
 2628W        W64291  21.180  10.654   2.855
 2629W        W64292  43.357  11.838   0.848
 2630W        W64293  32.053  16.100  13.368
 2631W        W64294  35.990  25.510   1.804
 2632W        W64295  37.915  36.493   0.423
 2633W        W64296  22.512   6.199  12.535
 2634W        W64297  36.458  20.203   9.938
 2635W        W64298  31.941  38.477   4.733
 2636W        W64299  34.475  35.997   0.341
 2637W        W64300   9.869  15.153   4.260
 2638W        W64301  13.799  44.840  13.791
 2639W        W64302  40.418  10.828  13.837
 2640W        W64303   8.276  25.106   4.711
 2641W        W64304  16.571  43.465   1.878
 2642W        W64305  26.469  27.073  11.559
 2643W        W64306  12.635  32.116  14.437
 2644W        W64307   7.340  14.701  14.904
 2645W        W64308  44.951  34.473   0.875
 2646W        W64309  26.563   8.242   3.648
 2647W        W64310  30.925   5.267   1.426
 2648W        W64311  13.772  34.973  12.990
 2649W        W64312  26.061  26.135   0.772
 2650W        W64313  24.115  31.607  14.367
 2651W        W64314   9.810  21.550   4.159
 2652W        W64315  32.033  24.501   1.210
 2653W        W64316  26.012  40.448   4.161
 2654W        W64317  34.536   3.811   1.256
 2655W        W64318   6.900  26.146  11.090
 2656W        W64319  26.510  33.910   4.745
 2657W        W64320   2.931  41.428  13.837
 2658W        W64321  14.248   0.979   0.795
 2659W        W64322  32.061  27.676   3.839
 2660W        W64323  11.215  13.721   2.792
 2661W        W64324  11.630  28.657  13.386
 2662W        W64325  29.958   2.334  11.530
 2663W        W64326  44.486   0.266   3.151
 2664W        W64327  20.101  32.524  11.077
 2665W        W64328  39.970  23.543   2.708
 2666W        W64329   9.154   0.346   0.888
 2667W        W64330  31.062  12.139  13.056
 2668W        W64331   1.427  37.567   5.166
 2669W        W64332  35.892  20.237   4.659
 2670W        W64333   7.294  19.590   0.883
 2671W        W64334   0.302  44.843  12.031
 2672W        W64335  28.619  17.077  13.920
 2673W        W64336  28.012  43.280   3.793
 2674W        W64337  24.221  28.963  11.514
 2675W        W64338  39.013  11.148   1.848
 2676W        W64339  11.368   2.877   2.217
 2677W        W64340  37.384  43.914   3.705
 2678W        W64341  10.360   8.357   3.204
 2679W        W64342   9.861  19.742  10.614
 2680W        W64343  29.604  17.665  14.465
 2681W        W64344  12.255   6.810   0.764
 2682W        W64345  40.402   0.248   3.844
 2683W        W64346  26.595  10.790   0.795
 2684W        W64347   0.775   7.763  13.825
 2685W        W64348  16.656  28.100  11.607
 2686W        W64349  38.369  43.395  12.909
 2687W        W64350  16.597  32.894   1.277
 2688W        W64351  28.156  31.904  12.574
 2689W        W64352   4.762  38.024  12.357
 2690W        W64353  36.070  18.183   1.876
 2691W        W64354  42.522  29.120  13.328
 2692W        W64355  39.921  33.981   4.248
 2693W        W64356  32.635  19.067  14.874
 2694W        W64357  14.233  43.972  11.919
 2695W        W64358  37.960  28.509   2.403
 2696W        W64359  22.054  27.124   4.660
 2697W        W64360   1.337  19.143  14.493
 2698W        W64361  34.389  28.169  12.875
 2699W        W64362  16.279  36.040   3.817
 2700W        W64363   1.775  11.752   1.759
 2701W        W64364  14.619  36.562   1.928
 2702W        W64365  22.079   5.896  14.466
 2703W        W64366  22.571  22.090  13.401
 2704W        W64367  30.458  31.999   4.325
 2705W        W64368  11.266   1.822  12.060
 2706W        W64369  20.751   5.822  13.012
 2707W        W64370   1.272  19.186   1.820
 2708W        W64371  37.045  38.400   4.147
 2709W        W64372  43.949  18.612   1.803
 2710W        W64373  44.818  14.313   4.708
 2711W        W64374  38.349  36.878   4.218
 2712W        W64375  23.083  20.714   2.208
 2713W        W64376   3.937  14.313  13.892
 2714W        W64377   3.751  33.591   3.175
 2715W        W64378  41.979  14.689   2.371
 2716W        W64379  34.903  15.632   4.805
 2717W        W64380  35.573  36.073   1.783
 2718W        W64381  44.812   3.388  10.116
 2719W        W64382  41.977  33.387   2.843
 2720W        W64383   9.839  24.656   1.843
 2721W        W64384  20.265  16.280   1.792
 2722W        W64385   5.422  13.139   1.707
 2723W        W64386  23.699  37.867   0.855
 2724W        W64387   6.390  27.075   3.270
 2725W        W64388  31.935  17.121   4.338
 2726W        W64389  26.058  23.082   2.790
 2727W        W64390  40.875  11.666  13.887
 2728W        W64391   2.325  33.098   0.902
 2729W        W64392  34.533   4.941   0.816
 2730W        W64393  41.812  41.437   2.271
 2731W        W64394  32.117  42.439  14.509
 2732W        W64395  26.131  20.658  14.886
 2733W        W64396  14.799  26.663   2.244
 2734W        W64397  20.161   3.443   4.808
 2735W        W64398  12.698  10.690  11.045
 2736W        W64399  14.333  20.132   5.279
 2737W        W64400  42.853  44.384  13.454
 2738W        W64401  27.019  12.678  10.549
 2739W        W64402  36.022  43.380   3.381
 2740W        W64403  26.090   1.406  14.321
 2741W        W64404  23.563  28.666   0.899
 2742W        W64405  26.513  26.096   3.325
 2743W        W64406  43.013  16.567   4.720
 2744W        W64407  44.393  23.636  10.613
 2745W        W64408  40.932   4.909   1.859
 2746W        W64409  30.929  30.020   4.722
 2747W        W64410  24.586  27.578   5.762
 2748W        W64411   2.304  20.254  14.836
 2749W        W64412   7.831  37.996  13.355
 2750W        W64413   5.195  42.338  11.372
 2751W        W64414  23.020  20.619   1.780
 2752W        W64415  39.329  29.927  14.877
 2753W        W64416  36.994  40.888  12.857
 2754W        W64417  29.173  32.529   3.335
 2755W        W64418   5.391  27.004   0.329
 2756W        W64419   4.702  20.260  12.084
 2757W        W64420   4.835  15.138   3.158
 2758W        W64421  15.190   6.414   2.253
 2759W        W64422  32.460  30.158   4.228
 2760W        W64423  27.616   4.274  13.848
 2761W        W64424  15.811  37.574   2.224
 2762W        W64425  29.045  20.668   4.750
 2763W        W64426  20.615  27.615  11.478
 2764W        W64427  13.828  16.218   2.821
 2765W        W64428  36.842  19.185  13.540
 2766W        W64429  37.000  11.630   3.157
 2767W        W64430  40.402  35.969   0.252
 2768W        W64431   7.246  34.446  10.976
 2769W        W64432  13.326  15.653   5.219
 2770W        W64433  33.056  21.752   9.620
 2771W        W64434   3.245  35.857   3.213
 2772W        W64435   9.277  20.213  10.486
 2773W        W64436  24.577  31.498   2.225
 2774W        W64437  14.193  11.357   2.786
 2775W        W64438  33.574  37.026   3.231
 2776W        W64439  37.984  21.622   1.868
 2777W        W64440  33.431  18.174  12.909
 2778W        W64441  23.538  44.820   2.201
 2779W        W64442  42.372   7.875   0.877
 2780W        W64443  39.461  39.926  10.912
 2781W        W64444  31.041   1.899   0.869
 2782W        W64445   1.480  44.298   3.303
 2783W        W64446  33.968  38.345   0.807
 2784W        W64447  41.032  34.866  13.006
 2785W        W64448  39.547   1.476   2.718
 2786W        W64449  33.541   9.192  12.461
 2787W        W64450   6.364  43.005  12.439
 2788W        W64451  14.778  29.655  10.480
 2789W        W64452  44.844  20.083  11.106
 2790W        W64453   5.265  37.832   0.852
 2791W        W64454   3.741  25.981   2.218
 2792W        W64455   5.242  16.610  11.912
 2793W        W64456  24.117  28.620  11.055
 2794W        W64457  15.188  36.402  14.898
 2795W        W64458  25.591  24.538   3.857
 2796W        W64459  13.148  35.092   0.372
 2797W        W64460  19.597   3.232  13.514
 2798W        W64461  20.192  41.863  14.342
 2799W        W64462   9.788  24.224  10.975
 2800W        W64463  44.997  13.608   5.697
 2801W        W64464  25.998  27.584   0.285
 2802W        W64465  16.813  16.577   1.259
 2803W        W64466   4.336  20.037  13.508
 2804W        W64467  43.284  14.702   5.600
 2805W        W64468  13.195   5.928   3.159
 2806W        W64469  31.630  30.924  14.342
 2807W        W64470  24.181   9.288  13.010
 2808W        W64471   2.828  24.632   1.933
 2809W        W64472   2.895  19.048   0.936
 2810W        W64473  31.941   4.272  14.918
 2811W        W64474  26.489  29.473  11.530
 2812W        W64475  33.062  32.585   2.347
 2813W        W64476  19.262  14.723   3.190
 2814W        W64477  12.804   1.284  14.283
 2815W        W64478   5.216  14.648   0.272
 2816W        W64479  10.773  28.036  10.938
 2817W        W64480  35.545  36.086  14.317
 2818W        W64481  10.694  38.993  11.420
 2819W        W64482   0.318  38.876  11.941
 2820W        W64483  29.594  32.126  14.386
 2821W        W64484   1.393  14.647   4.311
 2822W        W64485  13.709  36.945   2.810
 2823W        W64486   7.199  35.519  11.887
 2824W        W64487  15.713  42.990  13.039
 2825W        W64488  14.133   8.348  11.100
 2826W        W64489   0.850  28.949   3.815
 2827W        W64490  24.638  26.531   0.753
 2828W        W64491  32.900   9.758   1.243
 2829W        W64492  27.542  19.617  14.942
 2830W        W64493  43.861  27.447   4.305
 2831W        W64494   8.366  23.531  10.968
 2832W        W64495  12.800   5.888  14.823
 2833W        W64496  38.387  30.119  14.976
 2834W        W64497  19.103  39.429   3.232
 2835W        W64498  29.616  11.654  12.426
 2836W        W64499  34.907   2.724  10.940
 2837W        W64500  40.891  37.399  11.935
 2838W        W64501  20.088  15.092   0.736
 2839W        W64502  12.770  31.144  13.921
 2840W        W64503  22.019  10.252  11.416
 2841W        W64504  43.802  18.179  11.586
 2842W        W64505  19.642  11.764   0.473
 2843W        W64506  17.665  22.637  11.486
 2844W        W64507  32.539  42.525  10.930
 2845W        W64508  32.496   1.949  12.928
 2846W        W64509   3.712   0.344  14.514
 2847W        W64510  10.324  30.086   0.314
 2848W        W64511  23.094  17.206   2.746
 2849W        W64512  18.079   5.304   1.274
 2850W        W64513   8.880  34.408  14.369
 2851W        W64514  11.815  14.103   0.375
 2852W        W64515  26.660  34.578  13.375
 2853W        W64516  29.626  24.525   3.156
 2854W        W64517   9.836  34.523  11.884
 2855W        W64518  12.611  28.556  13.014
 2856W        W64519   6.914  41.802   2.183
 2857W        W64520  43.471   1.482   0.370
 2858W        W64521  24.564  17.623   0.953
 2859W        W64522  37.892  19.085  13.822
 2860W        W64523   8.672  23.048  12.981
 2861W        W64524  42.792  26.517   0.949
 2862W        W64525   7.364   6.831   1.918
 2863W        W64526   3.323  42.306   4.811
 2864W        W64527   0.780  13.603  13.843
 2865W        W64528  29.063  12.340  14.837
 2866W        W64529  12.172  10.364  11.376
 2867W        W64530  15.257  37.910   3.735
 2868W        W64531  30.916  34.503   4.164
 2869W        W64532  14.760  39.435   0.939
 2870W        W64533  17.111  22.177   3.236
 2871W        W64534  16.799  30.152  10.582
 2872W        W64535  11.810  24.588  14.896
 2873W        W64536  44.264  44.489   0.412
 2874W        W64537   1.934  11.858  13.000
 2875W        W64538  22.143  22.009   1.328
 2876W        W64539  26.593   3.361  11.888
 2877W        W64540  11.176  13.806  10.480
 2878W        W64541  44.931  37.044  14.302
 2879W        W64542  24.493  32.001  11.020
 2880W        W64543  14.168  41.331   4.128
 2881W        W64544  12.221   3.371   1.285
 2882W        W64545  44.410  24.693  11.534
 2883W        W64546  44.761  30.655   1.387
 2884W        W64547   2.447  40.525  11.006
 2885W        W64548  28.178   7.193   0.740
 2886W        W64549   4.272  24.160  10.472
 2887W        W64550   5.363  26.471   3.262
 2888W        W64551  11.357  22.582   4.291
 2889W        W64552  42.002  34.054  13.392
 2890W        W64553  24.184   2.726  14.803
 2891W        W64554  19.572  33.007  13.486
 2892W        W64555  23.006   6.240   4.661
 2893W        W64556  13.669  41.914  12.347
 2894W        W64557  21.249  13.223   3.165
 2895W        W64558   2.385  13.249  13.991
 2896W        W64559  31.595  20.148   1.289
 2897W        W64560  10.287  44.360   5.210
 2898W        W64561  18.172  24.634  14.365
 2899W        W64562  20.108  36.990   3.235
 2900W        W64563  10.324   0.813  14.329
 2901W        W64564  25.597  36.926  12.428
 2902W        W64565   4.375   7.893   1.879
 2903W        W64566  39.461  40.914  11.433
 2904W        W64567  30.967  25.585  14.878
 2905W        W64568  14.266  37.528   1.337
 2906W        W64569  39.056  31.469  14.922
 2907W        W64570  16.746  27.121  14.431
 2908W        W64571  11.321  35.096   1.837
 2909W        W64572   4.266   5.737   4.200
 2910W        W64573  12.788  27.096  11.556
 2911W        W64574   0.924  16.762   1.836
 2912W        W64575  15.128  16.755   4.785
 2913W        W64576  26.160  33.874   0.941
 2914W        W64577   2.460  22.194   1.882
 2915W        W64578  17.271  44.294  13.894
 2916W        W64579  29.973  27.494   1.750
 2917W        W64580  41.319  44.363  12.395
 2918W        W64581   8.218  34.392   4.232
 2919W        W64582  12.797  19.099  13.372
 2920W        W64583  34.065   5.766  10.124
 2921W        W64584  17.201  29.536   5.167
 2922W        W64585  32.926   3.932   2.340
 2923W        W64586  13.307  24.166  10.570
 2924W        W64587  36.451  33.483   0.930
 2925W        W64588  31.901  27.067   3.174
 2926W        W64589  34.461  19.546  14.780
 2927W        W64590   7.341  18.094  14.361
 2928W        W64591  38.570  37.522   3.746
 2929W        W64592  34.561  36.885  12.399
 2930W        W64593  13.185  39.900   0.271
 2931W        W64594  26.520  43.281   2.369
 2932W        W64595  22.664  43.018   4.335
 2933W        W64596  25.507   8.344  13.363
 2934W        W64597  29.475  19.075  13.013
 2935W        W64598  10.277  10.809   4.656
 2936W        W64599  10.797  31.077  12.046
 2937W        W64600  35.918  23.072   1.426
 2938W        W64601  28.483  35.853  13.979
 2939W        W64602   3.717  40.990  12.869
 2940W        W64603  13.326   6.730  11.412
 2941W        W64604  13.649   6.334  12.523
 2942W        W64605  33.423   7.853   1.429
 2943W        W64606   9.693  35.504   1.856
 2944W        W64607  10.307  28.141   4.778
 2945W        W64608  19.583  43.878  10.428
 2946W        W64609   3.863   8.795   1.858
 2947W        W64610   4.385   5.216   1.224
 2948W        W64611  28.583  34.980   3.664
 2949W        W64612  18.670  36.367   0.931
 2950W        W64613   1.392   6.233   1.382
 2951W        W64614  23.030  22.176  14.926
 2952W        W64615  22.151  13.120  10.902
 2953W        W64616  17.790  24.504  13.434
 2954W        W64617   0.945  29.995  10.937
 2955W        W64618  22.134   3.713  14.817
 2956W        W64619  34.013  34.410   4.829
 2957W        W64620  39.877  38.968   2.394
 2958W        W64621   0.297  40.053  12.852
 2959W        W64622  12.728  28.606  10.911
 2960W        W64623  44.905   5.764   4.769
 2961W        W64624   5.351  41.526  11.502
 2962W        W64625  14.186   0.467  13.962
 2963W        W64626  18.262  36.454  13.482
 2964W        W64627   9.339  12.639  14.448
 2965W        W64628  33.620   3.245   4.822
 2966W        W64629  32.972   0.381   2.860
 2967W        W64630  14.830  38.926   5.699
 2968W        W64631  31.538  42.446   2.251
 2969W        W64632  21.613  18.165  13.952
 2970W        W64633  14.332  11.844   4.628
 2971W        W64634   9.774  13.663   3.699
 2972W        W64635  42.447  23.565   1.259
 2973W        W64636  20.106   7.833   4.113
 2974W        W64637  35.993  43.350  12.524
 2975W        W64638  41.944  20.539   4.707
 2976W        W64639   0.337  32.404   4.335
 2977W        W64640   9.366  11.806   5.135
 2978W        W64641  16.229  24.529  13.459
 2979W        W64642  26.554   1.344  10.477
 2980W        W64643  29.141  32.013   4.807
 2981W        W64644  40.505   7.267   0.765
 2982W        W64645   0.787  23.235   0.776
 2983W        W64646  44.439   9.816   4.826
 2984W        W64647  30.082  16.726  11.393
 2985W        W64648  11.337  35.407  13.809
 2986W        W64649   7.896   8.160  11.966
 2987W        W64650   1.267  20.095  14.308
 2988W        W64651  12.754  27.069  13.036
 2989W        W64652  18.194  43.337   0.778
 2990W        W64653  25.185  22.679  14.434
 2991W        W64654  10.157  41.819   1.241
 2992W        W64655  34.998  42.829  12.529
 2993W        W64656  41.428  30.652   0.813
 2994W        W64657   4.847  31.442  12.038
 2995W        W64658  22.219  31.143   1.362
 2996W        W64659   2.793  20.108   0.931
 2997W        W64660   9.298  39.389  10.528
 2998W        W64661  27.113  25.538  14.914
 2999W        W64662  39.987  20.030   0.258
 3000W        W64663  25.170   3.309  12.426
 3001W        W64664  17.263  21.609   0.963
 3002W        W64665  15.213  35.103  12.914
 3003W        W64666  26.651   0.967   4.318
 3004W        W64667  31.096  24.121  12.999
 3005W        W64668  26.017  33.931   3.782
 3006W        W64669  25.676   6.316  10.423
 3007W        W64670  12.361   3.232   3.731
 3008W        W64671  38.924  41.799  12.056
 3009W        W64672  28.039  15.636  13.971
 3010W        W64673  35.601  35.861   2.713
 3011W        W64674  27.969  37.999  13.393
 3012W        W64675  12.178  12.695   4.166
 3013W        W64676  35.483  33.403  14.872
 3014W        W64677  39.872   4.302   1.401
 3015W        W64678  26.541   3.357  12.345
 3016W        W64679  21.560  34.506   3.751
 3017W        W64680   1.384  15.606  14.288
 3018W        W64681  27.158   8.327  13.821
 3019W        W64682  38.075  30.465  13.324
 3020W        W64683  12.715  29.631   0.880
 3021W        W64684  17.293  36.404   0.738
 3022W        W64685  26.133  12.157   0.949
 3023W        W64686   7.819  29.474  11.433
 3024W        W64687   5.722   9.369   3.297
 3025W        W64688  19.550  21.516  10.927
 3026W        W64689   6.217  44.853   4.188
 3027W        W64690  37.990  43.988  11.945
 3028W        W64691   4.755   7.342  14.388
 3029W        W64692  18.763   6.807  10.475
 3030W        W64693  32.131  15.681   4.608
 3031W        W64694  17.206  35.464   0.408
 3032W        W64695  42.904   0.293  10.040
 3033W        W64696   1.326  15.656  12.421
 3034W        W64697  25.679   7.405   3.666
 3035W        W64698   6.413  30.150  14.501
 3036W        W64699  35.054  15.743   3.691
 3037W        W64700  12.216  20.141  14.285
 3038W        W64701   3.271  41.803   4.171
 3039W        W64702  28.573   3.752  10.507
 3040W        W64703   3.460  27.132  14.874
 3041W        W64704  35.076  40.874  12.848
 3042W        W64705  34.534  27.536  14.992
 3043W        W64706  41.997   6.804   1.789
 3044W        W64707  37.845  29.132  10.421
 3045W        W64708  43.439  28.677  12.969
 3046W        W64709  23.007  13.346  10.621
 3047W        W64710  43.513  43.833   4.775
 3048W        W64711  44.982   8.398  11.455
 3049W        W64712  43.315  22.007  12.037
 3050W        W64713  22.055  25.655  11.105
 3051W        W64714  12.730  12.807   3.649
 3052W        W64715   5.742   5.728   3.180
 3053W        W64716  25.603   6.320   2.310
 3054W        W64717  22.533  27.036  11.552
 3055W        W64718   3.810  20.130  11.491
 3056W        W64719  21.667  15.620  12.389
 3057W        W64720  44.466   0.290  10.897
 3058W        W64721  13.236  14.145   2.193
 3059W        W64722   1.425  34.920   4.342
 3060W        W64723  41.935  24.007   5.276
 3061W        W64724  41.467  35.431   0.825
 3062W        W64725  39.346  41.859  14.805
 3063W        W64726  34.426   3.815  10.428
 3064W        W64727  10.736  12.632   4.815
 3065W        W64728  34.408   8.790   1.731
 3066W        W64729  16.183  32.484   3.312
 3067W        W64730  19.682  18.609  13.358
 3068W        W64731  35.868  23.125  12.006
 3069W        W64732   5.927  12.623  13.956
 3070W        W64733  14.735  41.479   2.801
 3071W        W64734   3.238  30.946   1.373
 3072W        W64735  16.586  15.748  11.032
 3073W        W64736  13.282  43.786  13.895
 3074W        W64737  32.494  44.904  14.410
 3075W        W64738  30.538  42.968  13.813
 3076W        W64739   4.912  23.986   0.812
 3077W        W64740  12.797  29.597   4.143
 3078W        W64741   1.443  42.873  12.342
 3079W        W64742  40.999  24.121   3.719
 3080W        W64743  19.186  35.938  12.010
 3081W        W64744  33.992  24.066  10.907
 3082W        W64745   7.404  24.174  12.532
 3083W        W64746  14.245  38.846   4.784
 3084W        W64747  44.443   1.874   4.812
 3085W        W64748  10.272   7.254   3.219
 3086W        W64749  14.305  11.687  11.117
 3087W        W64750  36.441  22.660   4.276
 3088W        W64751  35.371   1.740  13.370
 3089W        W64752  11.290  30.414   4.355
 3090W        W64753  42.453  35.432   1.828
 3091W        W64754  29.558  42.956   4.686
 3092W        W64755  21.035  36.399   2.784
 3093W        W64756   7.795  24.106  13.873
 3094W        W64757  15.151  10.332   2.830
 3095W        W64758  11.170   3.855   3.689
 3096W        W64759  23.510   0.842  13.404
 3097W        W64760  37.083  30.975   3.181
 3098W        W64761  33.590  26.120  12.077
 3099W        W64762  42.784  41.795   3.776
 3100W        W64763   1.415  28.478   4.142
 3101W        W64764  27.940  15.212   2.305
 3102W        W64765  17.686  31.477  11.469
 3103W        W64766  21.602   3.827   9.980
 3104W        W64767  35.424  22.716  11.114
 3105W        W64768   1.786  42.302   0.795
 3106W        W64769  19.077  44.302  12.038
 3107W        W64770  43.497  42.881   0.755
 3108W        W64771  19.760   5.698  11.916
 3109W        W64772  19.217  43.333   3.371
 3110W        W64773   5.756  32.455  14.758
 3111W        W64774  13.185   6.323   1.396
 3112W        W64775  21.542  35.998   2.230
 3113W        W64776  28.119  39.994  12.999
 3114W        W64777   9.243  11.307  11.997
 3115W        W64778   2.865  15.156  12.056
 3116W        W64779  26.191  34.449   2.252
 3117W        W64780   7.363  22.536   1.324
 3118W        W64781  41.010  27.626   1.778
 3119W        W64782  40.501  39.453   0.751
 3120W        W64783  36.549  21.612  14.370
 3121W        W64784   6.711   1.949   4.309
 3122W        W64785  33.536  21.592   5.161
 3123W        W64786   8.720  13.646   1.449
 3124W        W64787   2.777  43.407   3.767
 3125W        W64788  33.463  12.320  10.632
 3126W        W64789  35.570  13.611  11.428
 3127W        W64790  38.393  41.420   2.385
 3128W        W64791   7.790  23.698  13.824
 3129W        W64792  29.128  42.012  13.049
 3130W        W64793  32.432   6.801   2.749
 3131W        W64794  44.370   6.336  11.986
 3132W        W64795  15.700  11.277  13.451
 3133W        W64796  19.607   1.792   0.275
 3134W        W64797  33.986  18.253   4.636
 3135W        W64798  21.564   1.450   1.408
 3136W        W64799  25.003  17.159   3.314
 3137W        W64800  10.646   1.800   2.195
 3138W        W64801  17.604  29.111  13.922
 3139W        W64802  41.372  35.045  14.845
 3140W        W64803  22.652  28.051   0.377
 3141W        W64804  28.660   1.815   0.876
 3142W        W64805  33.076  20.703  12.984
 3143W        W64806  23.730  19.592   5.272
 3144W        W64807   4.897  10.286  13.907
 3145W        W64808  41.530  36.348   1.796
 3146W        W64809  14.785  16.756   9.988
 3147W        W64810  41.417   0.916  11.374
 3148W        W64811  39.329  40.868  10.904
 3149W        W64812  24.217   4.739  11.062
 3150W        W64813  28.931  39.480  10.642
 3151W        W64814  33.551  12.819  13.820
 3152W        W64815   8.677  17.231   2.318
 3153W        W64816  43.301  37.408  14.334
 3154W        W64817  43.485  29.013   4.355
 3155W        W64818  30.933  10.643   1.234
 3156W        W64819  14.777   3.227   4.327
 3157W        W64820  44.443  44.296  11.111
 3158W        W64821  44.775  21.756  13.867
 3159W        W64822   1.455   6.801  10.591
 3160W        W64823  26.126  28.570   2.778
 3161W        W64824   8.694  40.821   1.889
 3162W        W64825  33.996  15.095   4.691
 3163W        W64826  23.210  17.758  11.024
 3164W        W64827  38.941  31.449   1.348
 3165W        W64828   9.349   9.241   0.429
 3166W        W64829  22.082  25.615   0.467
 3167W        W64830  23.222  22.700   0.901
 3168W        W64831  40.520   1.398  12.397
 3169W        W64832  44.474  10.237  12.391
 3170W        W64833  23.150  18.607   0.248
 3171W        W64834  16.666  11.767   3.222
 3172W        W64835  34.097   2.894  12.036
 3173W        W64836  22.119   1.972   4.289
 3174W        W64837   5.782  34.418   2.790
 3175W        W64838  30.952  33.932   2.182
 3176W        W64839  42.010   7.684  11.574
 3177W        W64840  41.495  17.798  10.566
 3178W        W64841  35.426  12.330   0.945
 3179W        W64842  16.585   1.872  12.478
 3180W        W64843  16.676  27.158  11.563
 3181W        W64844   4.383  21.256  13.983
 3182W        W64845  29.022  12.833   2.807
 3183W        W64846  42.424  17.179  14.782
 3184W        W64847  22.647  27.613   3.280
 3185W        W64848   4.859  17.641  11.591
 3186W        W64849  21.138   8.845   4.790
 3187W        W64850   2.328  16.632  13.486
 3188W        W64851  32.127   6.190   3.818
 3189W        W64852   8.161  20.714   1.862
 3190W        W64853  38.000  44.853   2.873
 3191W        W64854  33.389  37.863   3.302
 3192W        W64855   1.922  24.189   1.427
 3193W        W64856  12.175  28.175  11.893
 3194W        W64857  15.112  43.907  10.544
 3195W        W64858  10.826  34.501   3.242
 3196W        W64859  16.279  27.955  14.388
 3197W        W64860  41.355   8.312   1.898
 3198W        W64861  31.573  20.684   3.640
 3199W        W64862  36.354  16.675  14.927
 3200W        W64863  14.112  15.119  10.614
 3201W        W64864  22.069  23.191   2.847
 3202W        W64865  19.056  25.599   4.316
 3203W        W64866  40.962   9.653  12.942
 3204W        W64867   4.719  12.308  11.880
 3205W        W64868  40.981  21.207   0.775
 3206W        W64869  42.938  16.746   3.217
 3207W        W64870  28.548  22.048   1.395
 3208W        W64871  30.558  34.917   2.359
 3209W        W64872  43.790  40.049   3.304
 3210W        W64873  24.534  34.610   4.197
 3211W        W64874  32.064  31.963  12.970
 3212W        W64875  22.213   5.236   1.904
 3213W        W64876  37.055  37.402  10.090
 3214W        W64877  24.645  40.520   3.292
 3215W        W64878  14.746  33.052  10.451
 3216W        W64879  26.111  30.418  14.898
 3217W        W64880   9.197   0.399   2.304
 3218W        W64881   8.878  32.056  11.037
 3219W        W64882  44.878   4.413   3.332
 3220W        W64883  23.206  39.833  12.895
 3221W        W64884  13.198  24.713  12.936
 3222W        W64885  32.892  18.076   1.903
 3223W        W64886   2.291  19.094  10.483
 3224W        W64887  33.477  10.877  10.965
 3225W        W64888  29.100  41.448  12.823
 3226W        W64889  36.848  44.929   1.817
 3227W        W64890  38.987  18.762  14.891
 3228W        W64891  26.187   1.364   2.885
 3229W        W64892  38.825  30.492   3.715
 3230W        W64893  14.286  33.000   0.903
 3231W        W64894  29.501  10.243  11.869
 3232W        W64895   8.382  43.288   2.178
 3233W        W64896  33.920  27.022   3.829
 3234W        W64897  44.755  29.963  11.984
 3235W        W64898  31.933   4.311   9.972
 3236W        W64899   5.391   4.226  13.371
 3237W        W64900  34.567  39.333   3.798
 3238W        W64901   3.785  34.940   2.403
 3239W        W64902  13.788  44.934  10.487
 3240W        W64903  35.431  39.515  11.087
 3241W        W64904   3.848  42.470   0.912
 3242W        W64905  24.118  27.041  11.934
 3243W        W64906  18.158  38.923  12.018
 3244W        W64907   5.790   3.328  11.039
 3245W        W64908  42.338  18.670  10.888
 3246W        W64909   3.286  18.061   3.713
 3247W        W64910   4.291  33.402   4.754
 3248W        W64911  33.555  20.264  10.894
 3249W        W64912  40.535   7.344  10.527
 3250W        W64913  34.506  28.505   0.449
 3251W        W64914   0.251  30.595   0.740
 3252W        W64915  17.683   1.968   4.129
 3253W        W64916  20.694  37.509  10.410
 3254W        W64917  19.227  33.042   2.398
 3255W        W64918  31.939  27.967  10.492
 3256W        W64919   3.890   7.184   0.267
 3257W        W64920   0.753  38.942   2.328
 3258W        W64921   1.777  22.122  14.408
 3259W        W64922  39.507  36.420  11.941
 3260W        W64923   1.260  11.797  12.936
 3261W        W64924  11.733  15.816  10.974
 3262W        W64925  23.140  27.974  11.001
 3263W        W64926   3.219  44.964  13.378
 3264W        W64927  40.433  11.794  11.533
 3265W        W64928  25.977   8.789   2.705
 3266W        W64929  29.600  24.201  13.437
 3267W        W64930   6.833  35.596   4.130
 3268W        W64931   6.326  44.840  12.857
 3269W        W64932  26.679  40.341   3.375
 3270W        W64933   2.847  41.357  12.964
 3271W        W64934  40.854  35.424   3.745
 3272W        W64935  10.280  13.807  14.845
 3273W        W64936  22.242  24.102  13.378
 3274W        W64937  28.519   9.335  14.856
 3275W        W64938   6.776  22.516  11.405
 3276W        W64939  36.349  42.926   1.409
 3277W        W64940   8.281  19.554   4.185
 3278W        W64941   8.358  28.049   1.413
 3279W        W64942  33.927  17.589  13.991
 3280W        W64943  18.560  30.109   2.673
 3281W        W64944  22.672   8.800  13.956
 3282W        W64945  28.549  37.034   4.228
 3283W        W64946   8.358  41.870   3.775
 3284W        W64947   2.874  13.330  12.384
 3285W        W64948  15.204  16.134   4.129
 3286W        W64949  39.017   4.720   4.128
 3287W        W64950  18.123  10.681   0.806
 3288W        W64951  44.349  15.329  11.470
 3289W        W64952  30.106  31.920   1.766
 3290W        W64953   6.332  33.024  10.433
 3291W        W64954  19.078   7.378   4.141
 3292W        W64955  14.675   9.730  12.928
 3293W        W64956  11.285  44.270  14.476
 3294W        W64957  32.047  30.582  12.931
 3295W        W64958   4.820  12.758  11.582
 3296W        W64959  16.781  19.262  10.903
 3297W        W64960  43.827  43.344   3.688
 3298W        W64961   0.970   9.387  10.992
 3299W        W64962   7.289   5.912   4.170
 3300W        W64963  33.479  33.585  11.554
 3301W        W64964  35.365  12.223  12.917
 3302W        W64965  11.711  27.169   3.663
 3303W        W64966  32.065  39.501  10.472
 3304W        W64967  41.900  12.753  12.876
 3305W        W64968  26.068  37.410  11.418
 3306W        W64969   1.443   2.422   2.762
 3307W        W64970  36.438  24.622   1.925
 3308W        W64971   7.327  18.233  14.782
 3309W        W64972  32.900  33.042   4.276
 3310W        W64973   6.234  29.632  11.501
 3311W        W64974  15.114   4.788  11.075
 3312W        W64975   8.163  43.486   4.599
 3313W        W64976   7.201  32.088   2.687
 3314W        W64977   6.863  25.562   2.763
 3315W        W64978   2.319  23.507   2.282
 3316W        W64979  12.680  20.069  12.459
 3317W        W64980  44.859   1.366  14.496
 3318W        W64981  16.739  44.396  14.883
 3319W        W64982  38.047  21.226  11.476
 3320W        W64983   2.873  16.229   4.811
 3321W        W64984  22.119  15.583   2.743
 3322W        W64985  15.162  17.142   0.920
 3323W        W64986  28.558  23.639  14.306
 3324W        W64987   6.708  26.601   1.222
 3325W        W64988  36.486  31.542  12.835
 3326W        W64989  17.068  12.344  12.463
 3327W        W64990  35.908  21.640   5.134
 3328W        W64991  14.105  38.851  12.453
 3329W        W64992  44.406  35.550  11.502
 3330W        W64993  16.093  23.181  12.382
 3331W        W64994  33.549  22.110   5.700
 3332W        W64995   9.752   7.194  10.032
 3333W        W64996  27.644  44.487  10.507
 3334W        W64997  43.446  34.055   3.383
 3335W        W64998  41.886  29.585  13.800
 3336W        W64999   9.796  17.588   0.283
 3337W        W65000  31.411  17.077   1.330
 3338W        W65001  27.652   4.427  12.545
 3339W        W65002  34.571  13.107  12.026
 3340W        W65003  40.878   1.296   0.862
 3341W        W65004   6.284  12.815   5.286
 3342W        W65005   6.269  37.503  11.373
 3343W        W65006  44.313   1.243  12.971
 3344W        W65007  11.705   9.169  12.395
 3345W        W65008  17.130  36.567   1.742
 3346W        W65009   7.689  26.634  13.983
 3347W        W65010  22.244   7.345   2.822
 3348W        W65011  33.594   7.887  11.381
 3349W        W65012  43.948  24.151  14.453
 3350W        W65013  29.034   1.787   1.429
 3351W        W65014  29.022  10.738   1.696
 3352W        W65015  10.309   7.816  13.877
 3353W        W65016  23.206   8.200   1.756
 3354W        W65017  39.476  15.162   4.184
 3355W        W65018  23.102  41.943   4.779
 3356W        W65019   1.948  26.182   4.204
 3357W        W65020  38.974   2.389  12.367
 3358W        W65021  27.646  16.733   3.212
 3359W        W65022   4.415   2.421   3.314
 3360W        W65023  17.752  21.229   3.790
 3361W        W65024   6.218   1.278   3.153
 3362W        W65025  19.213  38.373  10.585
 3363W        W65026  25.135  26.990   1.221
 3364W        W65027  34.381   5.293   5.083
 3365W        W65028  11.646  28.010   1.303
 3366W        W65029  25.156  25.566   3.188
 3367W        W65030  13.163  12.285  14.509
 3368W        W65031  21.739   7.666   2.772
 3369W        W65032  37.463  38.951  14.350
 3370W        W65033  13.334  44.862  11.448
 3371W        W65034  21.530  20.206  14.925
 3372W        W65035  18.580  14.152  11.079
 3373W        W65036   4.403  24.052  11.559
 3374W        W65037   7.241  12.816   4.836
 3375W        W65038   7.667  10.314   3.283
 3376W        W65039   6.889  20.226   4.725
 3377W        W65040  40.356   1.896   2.219
 3378W        W65041  21.598   0.368  11.020
 3379W        W65042  25.605   2.453  14.365
 3380W        W65043  20.583  28.002  11.494
 3381W        W65044   6.415  20.141   3.854
 3382W        W65045  35.433  32.605  14.016
 3383W        W65046  11.346  36.563   5.123
 3384W        W65047  20.256   8.664   2.392
 3385W        W65048   8.832   1.852   2.374
 3386W        W65049   5.733  12.313   1.768
 3387W        W65050   1.855  31.930  13.528
 3388W        W65051  19.061  40.847   2.720
 3389W        W65052  27.077  26.207   1.298
 3390W        W65053  21.104  39.054  12.968
 3391W        W65054  44.395  23.224   2.381
 3392W        W65055  44.505  14.707   4.599
 3393W        W65056  19.058  13.761   2.287
 3394W        W65057   7.827  26.015  12.047
 3395W        W65058  13.237  36.428  14.364
 3396W        W65059  35.947  28.627  12.996
 3397W        W65060   4.238  40.374   0.832
 3398W        W65061  39.967  35.899  14.304
 3399W        W65062  14.736  20.660  13.828
 3400W        W65063   2.748  29.113   4.223
 3401W        W65064  38.547  23.532  11.932
 3402W        W65065   5.878  43.950  12.390
 3403W        W65066  18.643   4.447  14.993
 3404W        W65067  24.719   7.298  11.447
 3405W        W65068  42.799   7.339   0.297
 3406W        W65069  12.752  39.368   3.186
 3407W        W65070  18.580  11.690  14.874
 3408W        W65071   6.201  32.481  14.997
 3409W        W65072  20.143  29.925   4.172
 3410W        W65073   7.820  22.157  11.605
 3411W        W65074  36.553   9.756   1.846
 3412W        W65075  30.025  20.271  11.592
 3413W        W65076  15.192  44.287  12.369
 3414W        W65077  32.105  23.560   2.302
 3415W        W65078  25.627  21.199   4.608
 3416W        W65079  18.219   8.247  12.419
 3417W        W65080   6.850  16.587  13.535
 3418W        W65081  15.205  13.185   0.295
 3419W        W65082   0.978  14.775   3.319
 3420W        W65083  30.139   3.819  14.949
 3421W        W65084   2.304   3.901   1.741
 3422W        W65085  23.071   1.481   5.256
 3423W        W65086  43.369  37.972  10.609
 3424W        W65087  33.096  13.761  11.374
 3425W        W65088  35.375   4.910   4.761
 3426W        W65089   4.295  31.041   1.302
 3427W        W65090  11.345   4.942   1.367
 3428W        W65091   8.212  43.503  11.032
 3429W        W65092  41.298  21.537  13.332
 3430W        W65093   1.405  24.114  11.383
 3431W        W65094  41.363  25.068  11.594
 3432W        W65095  28.177   1.378   1.265
 3433W        W65096  38.478   6.713   0.245
 3434W        W65097  42.777  32.126  12.421
 3435W        W65098   0.747  24.046   2.410
 3436W        W65099   8.269  44.910   0.326
 3437W        W65100  44.297  11.181   1.238
 3438W        W65101  43.346  17.296   2.302
 3439W        W65102  31.120  42.941   0.869
 3440W        W65103  40.865   4.805  10.424
 3441W        W65104  41.336  23.500   1.880
 3442W        W65105  10.836  18.672   3.325
 3443W        W65106  24.720  40.900  13.960
 3444W        W65107  27.616  33.550  12.013
 3445W        W65108   6.328  20.194  11.000
 3446W        W65109  39.874  38.488   1.911
 3447W        W65110  39.515  32.108  12.487
 3448W        W65111  37.975  25.172  11.515
 3449W        W65112  42.940  23.063   0.242
 3450W        W65113  26.677  42.995  10.544
 3451W        W65114  35.565   0.427   1.412
 3452W        W65115  21.043  15.230  13.819
 3453W        W65116   3.241  22.602  10.535
 3454W        W65117  39.816  35.902   2.256
 3455W        W65118  37.031   5.842   1.891
 3456W        W65119  38.454  12.188  11.120
 3457W        W65120  10.228  21.632   0.352
 3458W        W65121  44.856  14.140  12.892
 3459W        W65122  16.775  40.866   3.712
 3460W        W65123  20.206  39.505  13.916
 3461W        W65124  15.797   6.915   2.754
 3462W        W65125  36.874  40.954   2.393
 3463W        W65126   6.763   4.710   0.843
 3464W        W65127  43.403  26.195  10.575
 3465W        W65128  13.212  43.881   1.701
 3466W        W65129   8.364  11.180   2.291
 3467W        W65130   2.800  37.494  14.403
 3468W        W65131   7.689   5.200   2.270
 3469W        W65132  33.002  32.048   1.237
 3470W        W65133   4.927   1.421  11.080
 3471W        W65134  19.609  10.214   0.314
 3472W        W65135  41.016  39.549  14.937
 3473W        W65136   8.387   6.397  10.581
 3474W        W65137  11.190  17.599  11.541
 3475W        W65138  20.606  40.468   0.456
 3476W        W65139  39.503  20.201   3.699
 3477W        W65140   7.901  30.953  14.478
 3478W        W65141  18.261   1.943  10.943
 3479W        W65142   5.863  33.905  10.980
 3480W        W65143   6.749  28.961  13.359
 3481W        W65144   5.780  10.348   4.783
 3482W        W65145  41.925  16.104  10.639
 3483W        W65146  37.579  12.163   3.692
 3484W        W65147   9.646  33.953   3.633
 3485W        W65148   1.823  43.512   0.453
 3486W        W65149  41.484  38.375   4.128
 3487W        W65150   4.812  16.668   0.867
 3488W        W65151  30.548  18.728  10.971
 3489W        W65152  43.359  40.950  14.279
 3490W        W65153  36.053  33.928  13.909
 3491W        W65154  25.186  21.572   3.157
 3492W        W65155  25.630  26.959  13.844
 3493W        W65156  13.273   8.662   3.808
 3494W        W65157   0.252  38.519  14.460
 3495W        W65158   1.330  43.010  13.519
 3496W        W65159  44.006  16.677   1.827
 3497W        W65160   4.730  22.662  12.439
 3498W        W65161  14.649  17.247   3.317
 3499W        W65162  11.235  41.420   3.343
 3500W        W65163  23.594  21.694  10.457
 3501W        W65164   2.875   8.782  12.034
 3502W        W65165  14.624  17.556  11.025
 3503W        W65166  21.700  44.466  14.290
 3504W        W65167  26.079  20.590   2.389
 3505W        W65168  10.384   6.288  10.118
 3506W        W65169  12.672   4.700   3.783
 3507W        W65170  16.191  37.579  11.569
 3508W        W65171  36.507  32.908  13.548
 3509W        W65172  21.141  19.703  12.082
 3510W        W65173  40.512  11.149   1.934
 3511W        W65174  29.998   5.737   4.741
 3512W        W65175  16.583  11.299   3.276
 3513W        W65176  24.974  15.802   2.825
 3514W        W65177   2.872  17.288  13.870
 3515W        W65178  41.011   8.792  11.870
 3516W        W65179  25.687  17.751   1.343
 3517W        W65180   3.825  26.070  11.563
 3518W        W65181  22.620  13.207   1.215
 3519W        W65182  21.668  13.177  12.571
 3520W        W65183   4.805  34.054   4.746
 3521W        W65184  42.487  36.544   2.830
 3522W        W65185  36.086  21.653   1.265
 3523W        W65186   3.214  12.349   2.273
 3524W        W65187  13.785   5.205  12.037
 3525W        W65188  17.267  25.019   0.827
 3526W        W65189  36.411  34.412  14.405
 3527W        W65190  20.250  25.165  14.386
 3528W        W65191  14.250  19.587   1.727
 3529W        W65192  14.294  20.167   1.417
 3530W        W65193  19.077  15.196  10.490
 3531W        W65194  43.477  23.012  14.515
 3532W        W65195  31.911  44.853  13.517
 3533W        W65196  22.197  44.380  13.984
 3534W        W65197  37.498  36.401   3.295
 3535W        W65198  20.714  10.714  13.456
 3536W        W65199   2.916  38.820   0.357
 3537W        W65200  34.895  22.589   1.280
 3538W        W65201  36.071  10.244   1.426
 3539W        W65202  21.748  44.824   3.333
 3540W        W65203  19.112  15.103  13.441
 3541W        W65204  28.658   9.328   3.361
 3542W        W65205   6.321  17.125  11.982
 3543W        W65206  30.021  16.119   2.677
 3544W        W65207  22.007  25.049   2.864
 3545W        W65208  32.502  27.603   1.898
 3546W        W65209  15.635  18.677  12.388
 3547W        W65210  20.524  43.963   2.834
 3548W        W65211   3.395   0.413   1.254
 3549W        W65212   6.310  21.076  12.570
 3550W        W65213  33.104  19.573   4.719
 3551W        W65214   0.344  36.061  10.541
 3552W        W65215  34.000  28.442   0.852
 3553W        W65216   0.951  17.636   4.191
 3554W        W65217   0.305  11.146  12.977
 3555W        W65218  34.482  27.573  12.823
 3556W        W65219  30.542  15.093   0.946
 3557W        W65220  11.707   4.388  13.490
 3558W        W65221  37.008  26.472   1.427
 3559W        W65222  32.105  42.005   1.284
 3560W        W65223   4.794  11.759  13.502
 3561W        W65224  19.259  36.589   3.293
 3562W        W65225  15.210   7.824   4.275
 3563W        W65226  10.209   0.812  12.086
 3564W        W65227  32.953  14.755   4.292
 3565W        W65228  44.994  20.753   2.317
 3566W        W65229  10.641  15.744  14.887
 3567W        W65230  18.722   4.382  12.849
 3568W        W65231  27.173  32.915  12.831
 3569W        W65232  12.158  29.622   0.413
 3570W        W65233  12.618  41.937  14.276
 3571W        W65234  13.735  23.989   1.317
 3572W        W65235  31.072  40.896  13.002
 3573W        W65236  38.464  43.470   0.780
 3574W        W65237  19.063  35.924   1.892
 3575W        W65238   4.410  20.688   2.789
 3576W        W65239  11.251   5.392   3.222
 3577W        W65240  40.373  44.766  10.485
 3578W        W65241  18.626  32.069  12.054
 3579W        W65242  23.498  38.525  13.827
 3580W        W65243  14.229  42.471   0.853
 3581W        W65244   2.424  35.463  10.574
 3582W        W65245  33.460  37.444  14.806
 3583W        W65246  44.902   8.862   9.549
 3584W        W65247  10.381  41.026   4.116
 3585W        W65248  29.978  37.534   1.869
 3586W        W65249   3.394  35.877  12.843
 3587W        W65250  26.072   5.761   4.823
 3588W        W65251   2.292   2.962   3.334
 3589W        W65252  27.102  30.966  13.889
 3590W        W65253  31.402  11.823  11.512
 3591W        W65254  13.194   8.746  12.899
 3592W        W65255  27.949  20.678  11.551
 3593W        W65256   2.867  40.864   4.627
 3594W        W65257  18.606   2.370   3.284
 3595W        W65258  40.392  33.450   2.261
 3596W        W65259   0.318   6.412  14.901
 3597W        W65260  32.570  18.166   5.244
 3598W        W65261  25.994   1.922  10.448
 3599W        W65262  14.263  22.105  11.430
 3600W        W65263  14.806  18.070   0.938
 3601W        W65264  17.674  20.590   1.238
 3602W        W65265  29.507  15.658   4.723
 3603W        W65266  16.121  27.590   4.784
 3604W        W65267  35.533  28.976  11.117
 3605W        W65268   9.800   0.413  11.908
 3606W        W65269  32.100  10.836   2.214
 3607W        W65270  31.563  10.156   0.471
 3608W        W65271  27.577  32.070   4.189
 3609W        W65272  36.080  43.504   2.682
 3610W        W65273   9.694  10.331  11.465
 3611W        W65274  22.718  28.052  11.531
 3612W        W65275  10.856  10.877   1.421
 3613W        W65276  10.853  34.006  11.946
 3614W        W65277   3.772   9.788   2.860
 3615W        W65278  25.993  41.971  12.580
 3616W        W65279  26.069  14.282  12.525
 3617W        W65280  21.082   0.421   2.357
 3618W        W65281   6.793  39.816   0.448
 3619W        W65282  23.044  13.212  12.000
 3620W        W65283  39.911  31.061  13.032
 3621W        W65284  33.036  10.642   1.733
 3622W        W65285   3.750  24.189   2.668
 3623W        W65286  44.384  23.162   0.772
 3624W        W65287  25.058   9.763  12.399
 3625W        W65288  41.499  13.704  11.890
 3626W        W65289  13.726  26.129  12.911
 3627W        W65290  38.899  25.594   2.703
 3628W        W65291  35.976  24.624   0.402
 3629W        W65292  24.545   5.762   1.290
 3630W        W65293  10.280  34.583  12.376
 3631W        W65294  44.920  29.920   3.799
 3632W        W65295  20.525  44.483   0.955
 3633W        W65296  22.044  33.523   1.717
 3634W        W65297  22.126   0.356  10.607
 3635W        W65298  35.960  31.412  10.566
 3636W        W65299  39.436  41.870   1.761
 3637W        W65300  12.848   2.750  13.531
 3638W        W65301  17.671  44.437   4.747
 3639W        W65302   2.375  29.023  12.999
 3640W        W65303  11.635  35.573   4.631
 3641W        W65304  31.448  15.785   3.661
 3642W        W65305  40.456  36.889  11.900
 3643W        W65306  16.281   6.751   1.905
 3644W        W65307   6.710   1.373  13.370
 3645W        W65308   4.899  17.763  14.357
 3646W        W65309  35.969  35.971   0.803
 3647W        W65310  27.496  38.504  12.514
 3648W        W65311  34.496  16.812   0.763
 3649W        W65312   5.749  43.347   4.120
 3650W        W65313  40.329  28.576   3.337
 3651W        W65314  12.814   9.307   1.878
 3652W        W65315  26.497  24.103   1.266
 3653W        W65316  28.634  17.296   0.428
 3654W        W65317  29.952  32.534  12.864
 3655W        W65318  44.822  35.934  10.583
 3656W        W65319   3.373   5.764  10.632
 3657W        W65320   4.374  13.727  12.047
 3658W        W65321  26.638  41.870   4.725
 3659W        W65322  23.991  31.562   3.303
 3660W        W65323  24.530  11.135   1.708
 3661W        W65324  44.416   0.940  14.763
 3662W        W65325  44.937  30.915   0.760
 3663W        W65326  22.052  43.374  11.591
 3664W        W65327  11.287  13.236   0.958
 3665W        W65328   8.378  14.178  14.337
 3666W        W65329  43.315  18.133   3.746
 3667W        W65330  19.644  13.648   3.650
 3668W        W65331  30.164  34.565   2.185
 3669W        W65332  26.180   0.809   1.730
 3670W        W65333   9.665  21.084  12.499
 3671W        W65334  34.032  36.888  14.899
 3672W        W65335  34.431  21.572   3.846
 3673W        W65336   7.260  41.932   3.757
 3674W        W65337  37.480   1.927  12.581
 3675W        W65338   8.220  42.828  14.987
 3676W        W65339  25.640   6.712  14.964
 3677W        W65340  34.597  29.078   0.795
 3678W        W65341  40.871   1.477   2.711
 3679W        W65342  42.920  43.022   4.615
 3680W        W65343   1.902  30.100  11.016
 3681W        W65344  25.140  29.101   3.637
 3682W        W65345  34.420  15.667  13.029
 3683W        W65346   8.232   0.966  12.375
 3684W        W65347  32.995   5.818  11.098
 3685W        W65348  31.001  42.291  10.925
 3686W        W65349  24.647  12.625  12.541
 3687W        W65350  38.361  23.149   3.174
 3688W        W65351  18.641  12.854   5.126
 3689W        W65352  42.910  29.448  14.951
 3690W        W65353  37.921  11.369   2.332
 3691W        W65354  37.574  44.754   2.812
 3692W        W65355  11.720  28.026   4.123
 3693W        W65356   0.895  33.903  10.634
 3694W        W65357  37.858  26.462   1.226
 3695W        W65358  38.457  11.154   3.640
 3696W        W65359   1.975   7.191   0.786
 3697W        W65360  41.397  20.708  14.995
 3698W        W65361   6.732  35.926   2.814
 3699W        W65362  25.469   5.909   0.824
 3700W        W65363  39.809  13.734  12.472
 3701W        W65364   6.803  15.207   3.822
 3702W        W65365   8.170   9.700  13.540
 3703W        W65366  42.322  42.509   2.261
 3704W        W65367  20.669  10.798  13.805
 3705W        W65368  26.024  25.992  12.034
 3706W        W65369   7.745  24.655   3.245
 3707W        W65370  19.688   7.681   0.807
 3708W        W65371  37.518  10.298   4.301
 3709W        W65372  33.475   0.753  12.460
 3710W        W65373  15.615  21.157  13.045
 3711W        W65374   0.344  24.146  12.517
 3712W        W65375  11.844   6.841   3.176
 3713W        W65376  30.084   0.764  13.527
 3714W        W65377  21.655  20.562  14.275
 3715W        W65378   8.788   5.280  11.883
 3716W        W65379   6.914  35.023  13.537
 3717W        W65380  39.450  15.164  11.079
 3718W        W65381  15.122  26.700   5.250
 3719W        W65382  14.164   3.226  12.420
 3720W        W65383   4.752  26.630  10.916
 3721W        W65384   6.304  37.517  13.450
 3722W        W65385  41.401  34.441  14.832
 3723W        W65386  23.021  22.722  11.483
 3724W        W65387  32.043  27.142  14.764
 3725W        W65388  39.042   8.799  11.482
 3726W        W65389  27.675  21.751   4.678
 3727W        W65390  29.988  25.041   3.269
 3728W        W65391  41.028  27.589   4.154
 3729W        W65392  40.983   4.260   3.184
 3730W        W65393  32.012  40.935   3.770
 3731W        W65394   1.824  19.723  13.479
 3732W        W65395  23.134  35.595   3.725
 3733W        W65396  14.814  25.179   1.718
 3734W        W65397   9.149  20.090   2.353
 3735W        W65398   2.735  12.291   2.693
 3736W        W65399  20.664  24.720  14.415
 3737W        W65400   0.895  25.110   1.281
 3738W        W65401   9.658   9.203  10.129
 3739W        W65402   0.812  12.659   5.082
 3740W        W65403  22.179   2.390   2.376
 3741W        W65404  38.532   2.398   3.649
 3742W        W65405  32.635  13.323   1.411
 3743W        W65406  11.849  32.544  14.028
 3744W        W65407  33.474   2.948   0.785
 3745W        W65408   5.706  40.473   0.809
 3746W        W65409  43.940  31.984   2.695
 3747W        W65410   1.928  38.440  11.567
 3748W        W65411  13.638  43.423   4.762
 3749W        W65412  21.735  19.118   4.744
 3750W        W65413  44.837   0.340  14.463
 3751W        W65414  15.799  20.615  13.495
 3752W        W65415  38.542  26.470   4.314
 3753W        W65416  11.807  19.631   5.238
 3754W        W65417  10.201  11.828   5.254
 3755W        W65418   1.248   6.850   2.777
 3756W        W65419  10.206   4.854  13.889
 3757W        W65420  24.023  27.145  10.948
 3758W        W65421  21.725  16.579  11.877
 3759W        W65422  13.326  10.246  10.517
 3760W        W65423  11.279   3.749  14.374
 3761W        W65424  24.023  41.301  13.362
 3762W        W65425  20.633   6.358   1.781
 3763W        W65426  42.399   0.474   4.236
 3764W        W65427   0.432  11.231  10.643
 3765W        W65428  17.261  19.703   4.766
 3766W        W65429  33.511  17.176   4.833
 3767W        W65430  23.680  38.032   1.409
 3768W        W65431   3.453  36.989  14.850
 3769W        W65432   9.672  33.614   0.863
 3770W        W65433  33.595  18.688   1.711
 3771W        W65434   0.389  21.174  13.968
 3772W        W65435   7.365  11.781  10.569
 3773W        W65436  18.569  33.122   0.769
 3774W        W65437  35.517   8.322  14.032
 3775W        W65438  32.481   6.395   3.153
 3776W        W65439  34.582  35.432  14.855
 3777W        W65440  44.359  13.707  14.275
 3778W        W65441  37.432   0.770   3.358
 3779W        W65442   9.251   2.740  12.000
 3780W        W65443  35.593  43.455  11.518
 3781W        W65444  39.855   5.238  11.485
 3782W        W65445   5.829  27.565  13.315
 3783W        W65446   0.777  33.590  11.121
 3784W        W65447   7.899  28.179   0.370
 3785W        W65448  30.536   3.941  11.862
 3786W        W65449   4.763  16.781  10.923
 3787W        W65450  44.960  28.661   4.795
 3788W        W65451  17.641  15.180   3.340
 3789W        W65452   4.421  34.896  14.437
 3790W        W65453  10.757  24.028   9.999
 3791W        W65454  14.775  27.686   1.274
 3792W        W65455  40.330  29.133  13.325
 3793W        W65456  18.771   7.757   1.255
 3794W        W65457  21.530   8.890  12.004
 3795W        W65458  19.168  31.597   1.806
 3796W        W65459  29.491   7.875  12.388
 3797W        W65460  21.677  30.620  13.460
 3798W        W65461  28.039   7.745   0.350
 3799W        W65462  25.003  44.872   4.278
 3800W        W65463   4.331  25.648  11.049
 3801W        W65464  26.050  22.996   0.293
 3802W        W65465   2.965  32.927  14.483
 3803W        W65466  14.255  36.521   3.258
 3804W        W65467   3.851  28.481  14.446
 3805W        W65468  32.436   4.310   4.643
 3806W        W65469   4.231   0.980   4.743
 3807W        W65470  42.987  21.743   1.774
 3808W        W65471   1.478  27.596  12.427
 3809W        W65472   8.387  39.548   1.349
 3810W        W65473   0.280   1.343  14.950
 3811W        W65474  36.924  44.359   4.191
 3812W        W65475   6.762  28.558  11.086
 3813W        W65476  35.541  36.350  11.986
 3814W        W65477  11.848  30.493   1.799
 3815W        W65478  33.406  42.355  13.801
 3816W        W65479  44.261   0.282   1.840
 3817W        W65480  12.788  27.447   1.838
 3818W        W65481  11.333  34.990   4.144
 3819W        W65482  11.321   3.239  13.988
 3820W        W65483  38.824  25.067   4.231
 3821W        W65484  19.256  41.944   0.909
 3822W        W65485  37.082  37.402  11.102
 3823W        W65486   3.729  20.214   2.864
 3824W        W65487  14.235   0.287   3.683
 3825W        W65488  11.846  24.207   4.201
 3826W        W65489  27.155  32.128   0.940
 3827W        W65490  32.434  35.054   4.325
 3828W        W65491  44.476   0.883   3.703
 3829W        W65492  41.009  23.490  14.845
 3830W        W65493  38.994  13.247  12.508
 3831W        W65494  37.045  29.101  11.471
 3832W        W65495  13.723  15.764  12.907
 3833W        W65496   5.710  40.377   2.743
 3834W        W65497  24.123   3.784   3.694
 3835W        W65498   2.362   1.970   5.230
 3836W        W65499  27.037  39.918   1.400
 3837W        W65500   1.438  39.061   4.148
 3838W        W65501  39.349  13.348   0.273
 3839W        W65502  23.060  35.045   2.746
 3840W        W65503  19.664  23.564  11.527
 3841W        W65504  26.091  42.492  12.035
 3842W        W65505   5.710  35.507  11.447
 3843W        W65506  44.430   0.914  12.987
 3844W        W65507   2.873   9.301   4.684
 3845W        W65508  10.697   7.202   0.781
 3846W        W65509   3.343   7.724   2.413
 3847W        W65510   5.821  17.620   0.774
 3848W        W65511  24.031  42.379   4.682
 3849W        W65512  34.896  33.426   1.847
 3850W        W65513   1.248  15.705  11.973
 3851W        W65514  21.255  35.901   1.395
 3852W        W65515   9.721  44.367  14.330
 3853W        W65516  16.659  43.365  12.071
 3854W        W65517  20.270  27.115  13.356
 3855W        W65518  35.002  30.156  12.045
 3856W        W65519   9.351  20.083   3.374
 3857W        W65520  41.313  37.494  11.371
 3858W        W65521  10.242  34.460   4.786
 3859W        W65522  30.986  41.482   3.263
 3860W        W65523   1.415  22.564  14.397
 3861W        W65524  36.563  38.541   2.298
 3862W        W65525   9.379   1.386  10.494
 3863W        W65526   8.849   6.719   3.793
 3864W        W65527   7.340  11.777   4.262
 3865W        W65528  32.911   2.754  14.892
 3866W        W65529   8.832  39.981  14.325
 3867W        W65530  12.265  14.280   2.190
 3868W        W65531  38.560  32.917   1.271
 3869W        W65532  39.546  19.726   4.753
 3870W        W65533  37.832  26.506   2.826
 3871W        W65534   2.462  33.079  10.487
 3872W        W65535  41.389   3.399   4.257
 3873W        W65536   1.340  13.741  13.974
 3874W        W65537  13.711   9.294  11.536
 3875W        W65538  35.860  25.516  10.462
 3876W        W65539   0.486  30.423  10.488
 3877W        W65540  35.536  26.098   2.393
 3878W        W65541  30.020  25.503   1.917
 3879W        W65542  41.496  41.497   1.887
 3880W        W65543  19.742  41.296  13.476
 3881W        W65544  27.953  12.140   1.300
 3882W        W65545  11.158  13.179  14.811
 3883W        W65546   2.388  16.206   0.383
 3884W        W65547  36.926   1.789   1.764
 3885W        W65548  39.981  42.921   2.337
 3886W        W65549  12.814  28.574  11.581
 3887W        W65550  34.997  22.215   3.725
 3888W        W65551   2.379   3.744   0.889
 3889W        W65552   0.894  12.268  10.044
 3890W        W65553  44.476  22.183   2.862
 3891W        W65554  33.054  27.517   1.389
 3892W        W65555   8.728  18.560   4.793
 3893W        W65556  34.564   5.754   2.878
 3894W        W65557  13.611   1.822  12.882
 3895W        W65558  36.560  37.526   3.757
 3896W        W65559   5.391  31.987   1.838
 3897W        W65560  11.633   3.771   0.360
 3898W        W65561  17.650  31.605   3.844
 3899W        W65562  12.163  36.954  11.002
 3900W        W65563  24.056  18.588  13.534
 3901W        W65564  19.691   7.231   0.766
 3902W        W65565   7.410  10.824   1.404
 3903W        W65566   1.295  31.549  12.528
 3904W        W65567  33.417  21.059   3.719
 3905W        W65568  30.616  27.191  14.476
 3906W        W65569   9.318  22.573  10.635
 3907W        W65570  26.611  38.057  14.983
 3908W        W65571  22.030  15.281  13.922
 3909W        W65572  37.550  43.874   1.805
 3910W        W65573   9.708  27.129   1.934
 3911W        W65574   7.788   0.392   0.480
 3912W        W65575  34.955   8.328   3.153
 3913W        W65576  29.499   2.410  13.030
 3914W        W65577  27.625   0.871  13.894
 3915W        W65578  44.361  40.035  13.388
 3916W        W65579  15.085  11.240  14.480
 3917W        W65580   8.270   9.827  11.975
 3918W        W65581  21.541   3.380   1.870
 3919W        W65582   1.925  10.344  11.983
 3920W        W65583  29.927   4.353  13.364
 3921W        W65584  24.588  32.095   0.314
 3922W        W65585  43.908  14.249  11.569
 3923W        W65586  44.011  36.528   2.316
 3924W        W65587  39.441  44.403  14.474
 3925W        W65588  36.521  31.907   1.359
 3926W        W65589   8.669   8.261  10.080
 3927W        W65590  17.234  14.239   3.690
 3928W        W65591  28.609  39.979  13.903
 3929W        W65592  42.958  31.435   3.321
 3930W        W65593   9.205   8.684  12.447
 3931W        W65594  21.024  33.039  13.424
 3932W        W65595  34.389   6.687   4.190
 3933W        W65596  21.669  39.558   1.855
 3934W        W65597  42.463  27.612  15.000
 3935W        W65598  22.583  15.619   1.366
 3936W        W65599  31.426  13.208  14.969
 3937W        W65600  40.027  11.236   3.652
 3938W        W65601  11.216   3.405  11.607
 3939W        W65602  23.988  35.891   2.754
 3940W        W65603  30.032  41.993  12.895
 3941W        W65604   6.210  30.143  12.866
 3942W        W65605  27.511  11.859   0.870
 3943W        W65606  25.480   4.712  12.511
 3944W        W65607  23.115   6.677   0.774
 3945W        W65608  29.952  40.884   0.805
 3946W        W65609   3.810   4.735  12.077
 3947W        W65610  37.992  35.984   4.769
 3948W        W65611  30.587  19.563   0.955
 3949W        W65612   2.841  38.403  10.412
 3950W        W65613   4.756  16.769  10.077
 3951W        W65614  39.012  11.234   4.647
 3952W        W65615  33.061  11.817  13.000
 3953W        W65616  26.479  38.011   4.606
 3954W        W65617  40.465  30.525  12.017
 3955W        W65618  26.560  34.445   1.881
 3956W        W65619   5.738  21.633   0.901
 3957W        W65620  17.720  25.036  13.877
 3958W        W65621  10.647   0.982  14.947
 3959W        W65622  38.991  44.468   1.290
 3960W        W65623  17.263  17.137   1.302
 3961W        W65624  41.442   0.294  11.427
 3962W        W65625  11.848  24.218  13.013
 3963W        W65626  37.359   7.693   4.634
 3964W        W65627  14.644   9.238  13.004
 3965W        W65628   1.424  34.011   2.818
 3966W        W65629  16.625  17.079   2.844
 3967W        W65630  44.300  36.878   1.257
 3968W        W65631  24.537  17.780  12.878
 3969W        W65632   7.333  27.039  13.880
 3970W        W65633   1.311  20.551   2.223
 3971W        W65634  32.561   4.819   2.202
 3972W        W65635   9.651   4.835  12.469
 3973W        W65636  34.108  23.565  13.900
 3974W        W65637  18.138  40.970   2.237
 3975W        W65638   8.320   7.242   1.757
 3976W        W65639  23.227  33.017  12.447
 3977W        W65640   7.753  43.421  12.556
 3978W        W65641  23.107  19.580   0.885
 3979W        W65642  16.799  28.985   4.640
 3980W        W65643  41.994  43.431  12.913
 3981W        W65644  14.151   6.902   4.838
 3982W        W65645  16.181  25.654  13.494
 3983W        W65646  11.676  30.970  10.504
 3984W        W65647  24.064  32.012  14.814
 3985W        W65648  42.397  27.110  14.835
 3986W        W65649  34.092   4.771   9.931
 3987W        W65650  21.577  26.189   2.305
 3988W        W65651  37.378  44.810   3.383
 3989W        W65652  32.077  33.508  13.522
 3990W        W65653  23.084   1.465   4.636
 3991W        W65654  15.584  16.314  10.488
 3992W        W65655  24.644  14.302  12.970
 3993W        W65656  16.591  39.445   2.239
 3994W        W65657  28.465  13.202   2.293
 3995W        W65658  16.600  31.921  14.794
 3996W        W65659   1.398  14.819  12.412
 3997W        W65660  20.249   5.784   1.705
 3998W        W65661  40.429  31.493  12.948
 3999W        W65662   1.974  38.983   3.150
 4000W        W65663   9.787  26.083   2.762
 4001W        W65664   0.987   0.774   0.772
 4002W        W65665  20.147   2.779   4.806
 4003W        W65666  10.343  37.833  12.012
 4004W        W65667  36.565  26.016   3.661
 4005W        W65668  18.128  34.075   3.283
 4006W        W65669  44.365  29.485  13.372
 4007W        W65670  14.132  21.544  13.818
 4008W        W65671   8.787   5.359   0.746
 4009W        W65672  10.645  17.062   2.778
 4010W        W65673   3.383  38.857   5.242
 4011W        W65674  13.648  43.309  11.051
 4012W        W65675  29.015  36.502  13.514
 4013W        W65676   4.851  15.144   1.837
 4014W        W65677   7.737  14.786   3.304
 4015W        W65678  26.185  39.999   0.941
 4016W        W65679  35.976  34.428   3.321
 4017W        W65680  37.931  32.544  13.343
 4018W        W65681  24.109  31.009   0.910
 4019W        W65682  32.564  35.028  14.423
 4020W        W65683  28.592  26.998  12.039
 4021W        W65684  42.365   9.677  10.641
 4022W        W65685  12.673  21.149  13.333
 4023W        W65686  43.912   8.296  11.397
 4024W        W65687   0.918  10.725  13.924
 4025W        W65688  10.233  40.471   4.715
 4026W        W65689  26.185   5.930   4.163
 4027W        W65690  38.892  30.958   0.457
 4028W        W65691  38.378  17.732  14.464
 4029W        W65692   7.312  25.987   2.689
 4030W        W65693  43.832  22.544  10.510
 4031W        W65694  41.899  13.781  14.347
 4032W        W65695  32.091   6.217   4.273
 4033W        W65696   3.723  26.205   4.597
 4034W        W65697  26.970   2.893  13.799
 4035W        W65698   0.989  40.373   1.439
 4036W        W65699  20.560  10.841   3.806
 4037W        W65700  20.187  44.766  10.567
 4038W        W65701  16.137  22.591   0.886
 4039W        W65702  39.549  29.971  13.838
 4040W        W65703  27.952  15.774  14.434
 4041W        W65704   4.736  32.600   2.339
 4042W        W65705  28.945  14.767  11.002
 4043W        W65706   7.790  16.595   1.324
 4044W        W65707  34.067  34.459   3.223
 4045W        W65708   3.892  12.683  10.599
 4046W        W65709  26.519  20.672  13.331
 4047W        W65710  42.846  22.558   4.237
 4048W        W65711  16.643   4.341   4.822
 4049W        W65712   7.859  25.039  10.643
 4050W        W65713  12.296  25.689  12.550
 4051W        W65714  19.234  29.659  11.488
 4052W        W65715   5.818  26.964   2.381
 4053W        W65716  20.554  11.783  14.901
 4054W        W65717  41.517  29.630  12.366
 4055W        W65718  12.213  20.141   4.712
 4056W        W65719  18.547  16.740   3.836
 4057W        W65720  15.293  13.741   2.296
 4058W        W65721  12.710  14.600  13.469
 4059W        W65722   9.828   1.939   1.280
 4060W        W65723   3.269  18.293  10.478
 4061W        W65724  35.381  11.360  12.081
 4062W        W65725  22.631   0.296   3.257
 4063W        W65726   6.713  16.808   0.770
 4064W        W65727  15.757  26.175   4.266
 4065W        W65728  10.839  10.282   0.836
 4066W        W65729   4.840   7.360  10.987
 4067W        W65730  22.629   1.925   4.282
 4068W        W65731  16.170   1.789   0.311
 4069W        W65732  10.853  22.079   1.406
 4070W        W65733  24.723  15.133  11.511
 4071W        W65734   8.217   8.242  13.860
 4072W        W65735   0.947  37.048  14.906
 4073W        W65736  24.599  27.649  14.933
 4074W        W65737  32.460  34.547   1.260
 4075W        W65738  11.183  41.000   1.313
 4076W        W65739  44.966  22.644   0.243
 4077W        W65740  35.422  44.906  10.982
 4078W        W65741   5.210  36.380   0.475
 4079W        W65742  13.134  16.712  13.043
 4080W        W65743   4.711  20.063   0.388
 4081W        W65744  28.640  31.544   4.282
 4082W        W65745   3.709   5.232  11.604
 4083W        W65746   1.286   8.342   3.795
 4084W        W65747  27.509  40.992   3.865
 4085W        W65748   1.242  13.765   1.376
 4086W        W65749  29.480  34.094   1.827
 4087W        W65750  34.959  27.019  14.399
 4088W        W65751  19.205  18.787   2.900
 4089W        W65752   4.281  41.929  12.390
 4090W        W65753  40.528  29.932  12.459
 4091W        W65754   8.788   3.246  13.317
 4092W        W65755  16.694  41.013  11.999
 4093W        W65756  31.463  21.538   1.418
 4094W        W65757  25.530  44.355   3.714
 4095W        W65758  20.270   3.306   0.464
 4096W        W65759  12.796   9.847  14.444
 4097W        W65760   9.666  43.310  12.520
 4098W        W65761  15.682  26.488   5.199
 4099W        W65762  32.565   7.698  12.528
 4100W        W65763  36.914  22.070   1.252
 4101W        W65764  20.125  27.595   0.920
 4102W        W65765  26.565  21.696   4.257
 4103W        W65766  36.357  20.090  13.921
 4104W        W65767  41.807  37.564  11.031
 4105W        W65768  30.496  35.060  12.942
 4106W        W65769  15.632   2.927  14.759
 4107W        W65770  12.640  27.525  10.983
 4108W        W65771   3.889  33.604  10.973
 4109W        W65772  29.597  32.918  12.352
 4110W        W65773  33.993   4.796   2.360
 4111W        W65774  24.056   9.188   3.854
 4112W        W65775   1.307  28.933  12.446
 4113W        W65776   3.851  10.342   0.929
 4114W        W65777  22.999  25.676   0.291
 4115W        W65778  17.629   7.340   1.901
 4116W        W65779  10.639  17.614  10.604
 4117W        W65780   2.232  42.981  10.582
 4118W        W65781   2.416  20.769  12.472
 4119W        W65782  38.336  16.237  14.380
 4120W        W65783  30.097  34.393   4.271
 4121W        W65784   9.164  13.207  12.441
 4122W        W65785  26.660  17.609  11.028
 4123W        W65786  34.093   5.867   3.733
 4124W        W65787   2.311  23.199   4.173
 4125W        W65788  13.645   5.408  13.331
 4126W        W65789  34.968   4.822  10.466
 4127W        W65790  29.168  37.430   2.720
 4128W        W65791  32.621  26.013   1.216
 4129W        W65792  23.086  38.069  11.493
 4130W        W65793  34.938  19.779   3.735
 4131W        W65794  15.622   9.322   4.611
 4132W        W65795   4.327  41.044   0.952
 4133W        W65796   3.343  37.894  14.415
 4134W        W65797  41.993  33.519  13.440
 4135W        W65798  22.531  14.141  14.335
 4136W        W65799  30.148   8.878   3.234
 4137W        W65800  30.544  40.536  11.547
 4138W        W65801  24.014  31.539  10.436
 4139W        W65802  27.101  44.874  13.531
 4140W        W65803  13.829  15.166   2.280
 4141W        W65804  17.107  35.459   5.100
 4142W        W65805  43.862   1.272   4.178
 4143W        W65806   8.241  24.027   1.283
 4144W        W65807   0.857  30.980   1.747
 4145W        W65808  39.883  36.095  11.958
 4146W        W65809  38.554  26.081   2.327
 4147W        W65810  15.288   7.334  13.925
 4148W        W65811  14.114  31.971   3.780
 4149W        W65812  13.660  40.457  14.919
 4150W        W65813  36.590  43.313   3.193
 4151W        W65814  19.762  34.605  13.521
 4152W        W65815  30.425  36.394  12.958
 4153W        W65816   4.433  30.999   4.703
 4154W        W65817  28.029  29.057  11.087
 4155W        W65818  12.202   4.925  13.350
 4156W        W65819   6.393  35.501   4.281
 4157W        W65820   1.811  31.410   2.701
 4158W        W65821  10.756  17.773   2.376
 4159W        W65822  35.898   5.394   3.641
 4160W        W65823   0.415  29.168  13.829
 4161W        W65824   1.239  25.617  12.544
 4162W        W65825  27.074  24.695   3.703
 4163W        W65826   1.778  29.468   4.167
 4164W        W65827  18.212  11.299  11.955
 4165W        W65828  17.271  21.183  10.540
 4166W        W65829  25.981  25.633  12.478
 4167W        W65830  29.588  40.890   0.891
 4168W        W65831  34.419  18.159  13.971
 4169W        W65832  24.579  28.575   3.258
 4170W        W65833  28.000   1.258  11.467
 4171W        W65834   1.834   2.293  12.453
 4172W        W65835   8.216  21.640   1.789
 4173W        W65836   8.850  34.906  11.126
 4174W        W65837  24.135  17.725  12.471
 4175W        W65838  41.957  36.460  14.777
 4176W        W65839  11.710   0.396   0.252
 4177W        W65840  18.659  16.574   0.786
 4178W        W65841  31.480  23.127   4.225
 4179W        W65842   3.879  10.877   3.866
 4180W        W65843  36.007  44.389  11.114
 4181W        W65844  31.526  40.480   4.769
 4182W        W65845  14.131   4.219  12.531
 4183W        W65846  20.068  14.658  14.789
 4184W        W65847  42.911  19.705  14.980
 4185W        W65848  16.271  36.477  14.775
 4186W        W65849  42.889  42.366  11.009
 4187W        W65850   6.809  17.108  12.356
 4188W        W65851  15.778  22.618   4.251
 4189W        W65852  17.687  44.779  14.028
 4190W        W65853  13.223  42.805  13.875
 4191W        W65854  24.489  19.689   4.641
 4192W        W65855   9.705   5.341   3.774
 4193W        W65856   2.375   9.858   4.161
 4194W        W65857  19.669  23.551  10.900
 4195W        W65858  20.210  18.574   1.829
 4196W        W65859  35.464  21.718   3.842
 4197W        W65860  35.364   9.730  14.019
 4198W        W65861   1.411  19.052   4.809
 4199W        W65862  38.018   3.909   2.764
 4200W        W65863   5.392  14.702   1.716
 4201W        W65864   6.393  35.359  11.027
 4202W        W65865  10.147  43.776  12.053
 4203W        W65866  40.331  25.069   5.096
 4204W        W65867   3.929  10.817  11.443
 4205W        W65868  21.578  43.886   4.812
 4206W        W65869  44.421  35.585  12.958
 4207W        W65870  18.591  20.264  11.957
 4208W        W65871  36.497   8.250  11.084
 4209W        W65872   6.741  37.945  11.572
 4210W        W65873  34.507  31.625   4.256
 4211W        W65874  25.609  32.394   3.189
 4212W        W65875  42.413  27.128   2.786
 4213W        W65876   6.855  18.782   1.441
 4214W        W65877  36.436   4.228   0.414
 4215W        W65878  16.223  32.039   0.364
 4216W        W65879  41.014  43.485   4.833
 4217W        W65880   8.668  16.169   2.743
 4218W        W65881   5.856  28.562   4.713
 4219W        W65882  16.673  44.003  10.888
 4220W        W65883  18.148   7.842   4.762
 4221W        W65884  32.614  22.036  14.390
 4222W        W65885   6.743  28.070   0.732
 4223W        W65886  11.282  27.116  14.032
 4224W        W65887   9.680  13.249  10.554
 4225W        W65888  12.234  11.331   9.533
 4226W        W65889  12.798  26.462  11.526
 4227W        W65890  11.802  15.143   3.244
 4228W        W65891  20.083  20.070  11.119
 4229W        W65892  32.016  40.478   3.214
 4230W        W65893  19.647  16.658  10.635
 4231W        W65894   1.888  19.686   0.923
 4232W        W65895  27.503  36.025  14.930
 4233W        W65896  39.976  14.257  11.502
 4234W        W65897   9.372  17.727  12.347
 4235W        W65898  26.961  44.355   1.869
 4236W        W65899  38.406  10.797   3.154
 4237W        W65900  36.994  36.536   4.706
 4238W        W65901  22.560  27.986  14.924
 4239W        W65902  41.854  25.513  10.428
 4240W        W65903  29.549  41.419  13.866
 4241W        W65904  30.646  41.983  14.352
 4242W        W65905  17.303  25.019   0.295
 4243W        W65906  17.638  12.360   3.376
 4244W        W65907  34.989  34.615   3.227
 4245W        W65908   3.920  40.457  10.595
 4246W        W65909  29.174  31.016   4.617
 4247W        W65910  30.997  11.243  14.767
 4248W        W65911  11.806  30.978   3.788
 4249W        W65912  26.198  13.698   3.703
 4250W        W65913  13.651  30.001  11.432
 4251W        W65914   0.856  30.531   3.382
 4252W        W65915  37.547  13.139  12.955
 4253W        W65916  19.228  16.313   0.864
 4254W        W65917  23.208  23.489   2.833
 4255W        W65918  26.960  30.099  14.409
 4256W        W65919  20.728  40.968  14.290
 4257W        W65920   5.264   6.723  11.953
 4258W        W65921  34.474  15.755  13.511
 4259W        W65922  16.295  19.760   5.260
 4260W        W65923  16.116  31.475  13.945
 4261W        W65924  24.678  38.840  14.813
 4262W        W65925   1.268   0.960  14.304
 4263W        W65926   2.446  10.701  11.547
 4264W        W65927  39.511  31.002  13.518
 4265W        W65928  39.982  33.981   1.924
 4266W        W65929  40.463  44.983  14.350
 4267W        W65930  42.467  29.490  14.877
 4268W        W65931   7.760   3.728   4.289
 4269W        W65932  37.006  19.157  10.472
 4270W        W65933  22.696  28.996   3.649
 4271W        W65934  20.712   2.856   1.257
 4272W        W65935  23.176  15.756  11.018
 4273W        W65936  29.525   9.846  13.946
 4274W        W65937  13.275  19.117  14.411
 4275W        W65938  38.840  14.241   3.842
 4276W        W65939  20.127  32.966  11.525
 4277W        W65940  17.606  16.077   2.730
 4278W        W65941  22.669   3.424  11.531
 4279W        W65942  14.621   1.837  13.470
 4280W        W65943  21.252  27.545   1.374
 4281W        W65944  37.471  16.233   0.355
 4282W        W65945  18.214  22.038   4.734
 4283W        W65946  15.603  24.702  14.917
 4284W        W65947  18.245   9.276  10.568
 4285W        W65948   7.356  25.036   2.360
 4286W        W65949  22.237  31.930   1.322
 4287W        W65950   3.313  28.075   0.775
 4288W        W65951  29.116  20.611   1.275
 4289W        W65952  22.728  28.448   1.738
 4290W        W65953  21.212   1.297   4.186
 4291W        W65954  26.609  28.672  11.596
 4292W        W65955  28.676  33.081   0.748
 4293W        W65956  22.673  19.215   3.213
 4294W        W65957  24.517  37.560  11.490
 4295W        W65958   8.846  26.634   1.719
 4296W        W65959  43.935  21.738  14.377
 4297W        W65960   9.345   2.421  10.600
 4298W        W65961  40.545  17.704  12.841
 4299W        W65962  36.434  43.999   0.964
 4300W        W65963  42.307   2.915   1.442
 4301W        W65964  44.414  22.645  12.559
 4302W        W65965  12.631  32.014   5.260
 4303W        W65966   9.235  19.609   1.846
 4304W        W65967  25.637  36.974  14.891
 4305W        W65968  38.985  16.745  12.910
 4306W        W65969  17.729  42.448  14.287
 4307W        W65970  44.432  21.143   0.860
 4308W        W65971  29.504  17.093   4.797
 4309W        W65972  22.017   4.941  14.892
 4310W        W65973   5.397   1.341   2.701
 4311W        W65974  11.630  26.086  14.306
 4312W        W65975  31.410  22.714   2.900
 4313W        W65976  41.846  40.321   0.434
 4314W        W65977   7.242  21.718  13.990
 4315W        W65978  24.544  41.949  13.312
 4316W        W65979  29.651  23.178   0.798
 4317W        W65980  34.995  30.622  10.453
 4318W        W65981  24.061  33.013  10.958
 4319W        W65982  24.223  10.696  14.892
 4320W        W65983  29.137  41.033  13.796
 4321W        W65984  11.642  43.980  10.540
 4322W        W65985   2.457  37.368   2.403
 4323W        W65986  13.694  14.246   1.241
 4324W        W65987  21.543  13.840   9.673
 4325W        W65988  23.172   6.903   0.266
 4326W        W65989  29.438  25.090  10.896
 4327W        W65990   6.729  38.020  11.883
 4328W        W65991  14.160  11.322   3.699
 4329W        W65992  27.166  16.089  11.023
 4330W        W65993   4.769  27.075  12.843
 4331W        W65994  22.557   9.360   3.868
 4332W        W65995  32.498  43.488   0.294
 4333W        W65996  17.169  43.854  10.448
 4334W        W65997  20.584  22.664   1.399
 4335W        W65998  14.826  25.587   2.866
 4336W        W65999  24.497  28.596  13.539
 4337W        W66000  16.703   9.242  10.977
 4338W        W66001  30.938   8.177  12.998
 4339W        W66002   0.299  41.989   1.745
 4340W        W66003  21.037   8.257   2.832
 4341W        W66004  38.039   5.909  13.548
 4342W        W66005  42.361  36.077   2.719
 4343W        W66006   7.189  18.661  11.010
 4344W        W66007  40.438  41.498   4.689
 4345W        W66008  15.612   2.465   0.926
 4346W        W66009  20.578  34.975   0.248
 4347W        W66010  19.538   6.839  13.533
 4348W        W66011  35.018  25.604   2.868
 4349W        W66012   1.279   0.308   0.442
 4350W        W66013  15.709  20.172   4.662
 4351W        W66014   2.356  37.975   3.710
 4352W        W66015  24.722  19.211  11.958
 4353W        W66016   1.468   3.277  11.876
 4354W        W66017  28.117   5.236  12.572
 4355W        W66018  13.271  24.043  13.834
 4356W        W66019  26.152  26.031   0.478
 4357W        W66020  31.096  33.497  14.286
 4358W        W66021  19.239  43.355   0.809
 4359W        W66022  29.008  16.629   4.809
 4360W        W66023  28.976  27.101   2.193
 4361W        W66024  39.321  31.629  13.051
 4362W        W66025  26.674  41.451   4.330
 4363W        W66026  25.600  38.413   2.213
 4364W        W66027   3.719  27.962   0.435
 4365W        W66028   9.181   7.298  14.452
 4366W        W66029   0.967  11.254   2.856
 4367W        W66030   5.214  18.279  11.930
 4368W        W66031  38.398  17.700   0.404
 4369W        W66032   7.326  30.491  12.422
 4370W        W66033  23.593  10.668  10.590
 4371W        W66034  32.597   1.477  12.939
 4372W        W66035  39.062  18.083  13.470
 4373W        W66036  41.355  31.426  10.593
 4374W        W66037  31.977  29.044  14.905
 4375W        W66038  11.624  38.420   5.575
 4376W        W66039  34.418  15.301  10.406
 4377W        W66040  34.053  25.498  14.349
 4378W        W66041  15.122  40.339   2.813
 4379W        W66042  13.289  23.670   1.814
 4380W        W66043  14.651  23.650   1.411
 4381W        W66044  36.462  13.694   3.820
 4382W        W66045  41.996  12.719  13.862
 4383W        W66046  35.603  35.494   1.321
 4384W        W66047   6.409  29.515  13.926
 4385W        W66048   9.697  20.674   2.334
 4386W        W66049  24.111   1.308  13.518
 4387W        W66050  17.649  30.441  13.907
 4388W        W66051   6.253   7.773  13.512
 4389W        W66052  14.591  25.988   2.866
 4390W        W66053   9.717  11.639  10.540
 4391W        W66054  14.603  29.544   0.875
 4392W        W66055  23.720   5.201  14.890
 4393W        W66056   4.306  28.053   0.313
 4394W        W66057   6.185  40.470   4.352
 4395W        W66058  13.818  11.235   3.779
 4396W        W66059   3.862  17.270  11.081
 4397W        W66060  11.159   7.318   3.348
 4398W        W66061  25.145   5.735  13.370
 4399W        W66062  16.692  15.163  12.943
 4400W        W66063  25.561  11.827   5.230
 4401W        W66064  34.536  26.529   1.906
 4402W        W66065  17.574  25.220   4.600
 4403W        W66066   2.343   3.292   2.181
 4404W        W66067  28.626  32.617   3.641
 4405W        W66068  23.202   1.245   0.840
 4406W        W66069   8.405  21.633  13.006
 4407W        W66070  32.961   1.378  14.006
 4408W        W66071  27.682  33.606  11.455
 4409W        W66072  41.798  44.914   3.156
 4410W        W66073  37.965   5.225  11.040
 4411W        W66074  11.765  33.451   3.319
 4412W        W66075   2.417   5.900  10.112
 4413W        W66076  15.800  16.713   1.299
 4414W        W66077  14.757  28.460  10.475
 4415W        W66078  42.026   2.324  11.944
 4416W        W66079  31.417  31.907  12.344
 4417W        W66080   0.982  41.482  10.930
 4418W        W66081   4.746  29.170   2.202
 4419W        W66082   0.422  37.075   1.840
 4420W        W66083  37.416   4.708   4.172
 4421W        W66084  25.039  43.921  12.076
 4422W        W66085  25.149  37.419   0.327
 4423W        W66086  40.523  24.616  13.461
 4424W        W66087  30.515  37.901  14.850
 4425W        W66088   3.431   8.401   1.321
 4426W        W66089  40.488   9.819   0.482
 4427W        W66090   2.820  34.052  10.522
 4428W        W66091  17.145  27.007  10.923
 4429W        W66092  10.247  19.678  10.510
 4430W        W66093  25.077   7.365  12.476
 4431W        W66094  18.267   0.433  13.483
 4432W        W66095   5.720  24.678   0.451
 4433W        W66096   7.789  34.106   2.855
 4434W        W66097  35.566   2.367   2.903
 4435W        W66098  39.524   0.391   1.735
 4436W        W66099  24.717   9.267  12.519
 4437W        W66100  18.272   4.809   2.774
 4438W        W66101  12.362   1.286   4.624
 4439W        W66102  23.199  32.023   4.676
 4440W        W66103  22.532   2.839   3.157
 4441W        W66104   1.379  36.027  10.547
 4442W        W66105   4.915  21.178  12.376
 4443W        W66106  40.451   0.772  13.849
 4444W        W66107  15.312   2.765   4.226
 4445W        W66108  35.066  25.567   0.806
 4446W        W66109   1.817  20.130  13.026
 4447W        W66110  26.170   2.279   1.818
 4448W        W66111   3.314  44.494   3.857
 4449W        W66112  26.470  13.192  10.643
 4450W        W66113  11.329  18.208  10.888
 4451W        W66114  19.651  10.741   0.785
 4452W        W66115  22.704  31.956  14.404
 4453W        W66116  26.696   1.922   0.844
 4454W        W66117  41.487  36.363  12.373
 4455W        W66118  32.418  38.945  11.453
 4456W        W66119   1.388  23.226   1.254
 4457W        W66120  15.756  33.604  13.891
 4458W        W66121  18.687  21.596  14.303
 4459W        W66122   5.386  30.623   1.798
 4460W        W66123  32.505  22.561  14.962
 4461W        W66124  38.036  25.684   2.179
 4462W        W66125  34.981   9.744  12.096
 4463W        W66126  36.583  18.113   4.826
 4464W        W66127   9.158  21.035  12.348
 4465W        W66128  13.791  24.139   2.208
 4466W        W66129   4.289   6.721  14.310
 4467W        W66130  17.775  24.576  14.851
 4468W        W66131  24.006  30.108   2.233
 4469W        W66132  32.056   6.733  10.127
 4470W        W66133  38.938  24.563  11.433
 4471W        W66134  20.029  32.943  13.513
 4472W        W66135  10.792  19.681   1.234
 4473W        W66136  34.089  16.734   3.819
 4474W        W66137  28.068  32.585  11.372
 4475W        W66138   7.854  15.752  12.883
 4476W        W66139   9.785  37.415  13.922
 4477W        W66140  42.328  12.822  11.964
 4478W        W66141  23.639   4.385  14.832
 4479W        W66142  34.918   5.286  11.979
 4480W        W66143  39.859  20.058   0.901
 4481W        W66144  37.926  11.174  11.436
 4482W        W66145   5.831  23.073  10.957
 4483W        W66146  37.993  39.419   4.240
 4484W        W66147  36.559  23.178   2.194
 4485W        W66148  23.995  32.582  12.478
 4486W        W66149  19.594  40.040   4.157
 4487W        W66150  18.626  13.808  14.029
 4488W        W66151  38.028  17.276  13.500
 4489W        W66152  42.818  39.427  11.026
 4490W        W66153  37.555   2.301   4.125
 4491W        W66154  33.995  16.190  14.410
 4492W        W66155  16.704  28.601   3.758
 4493W        W66156  41.416  15.096   4.643
 4494W        W66157  34.376   2.727  11.107
 4495W        W66158  21.130  34.383  14.348
 4496W        W66159  29.980  35.924   3.778
 4497W        W66160  41.809  13.131   2.673
 4498W        W66161  12.208   9.757  13.033
 4499W        W66162  40.377  22.736   0.767
 4500W        W66163  17.557  37.846   5.614
 4501W        W66164  28.454  20.662  13.519
 4502W        W66165  32.061  15.151   1.773
 4503W        W66166  24.665  32.902   1.729
 4504W        W66167  15.631   0.891  12.942
 4505W        W66168  10.369  14.262   0.755
 4506W        W66169  29.066  24.212  12.050
 4507W        W66170  29.999   5.315   1.742
 4508W        W66171  11.846  21.661  14.789
 4509W        W66172   7.290  34.392  14.865
 4510W        W66173  43.983  23.529  11.900
 4511W        W66174  12.189   2.893   2.253
 4512W        W66175   3.283  23.551   2.213
 4513W        W66176   4.804  15.742   2.695
 4514W        W66177  38.512   8.780   1.903
 4515W        W66178  36.093  24.014   2.687
 4516W        W66179  14.725   5.905   4.204
 4517W        W66180   8.206  17.187  14.490
 4518W        W66181   3.355  32.123   0.381
 4519W        W66182  39.831  44.817   0.264
 4520W        W66183  15.248  15.721  12.460
 4521W        W66184  12.171  40.876   3.371
 4522W        W66185   5.837  34.044  12.379
 4523W        W66186  17.091  16.716   1.887
 4524W        W66187  40.437  34.522  14.488
 4525W        W66188   5.306  27.452   0.474
 4526W        W66189  18.649  36.515  13.912
 4527W        W66190  35.084  18.117  10.455
 4528W        W66191  30.449  32.976   2.412
 4529W        W66192  23.098  43.825   3.276
 4530W        W66193  23.729  44.300   1.785
 4531W        W66194  14.097  37.380  11.076
 4532W        W66195   9.215  24.558   3.868
 4533W        W66196  23.521  17.737  13.373
 4534W        W66197  38.487  10.851   1.311
 4535W        W66198  24.613  20.698  13.942
 4536W        W66199  43.832  18.591  11.415
 4537W        W66200  44.986  38.357   3.856
 4538W        W66201  38.065   8.895  11.506
 4539W        W66202  27.555  19.684  11.575
 4540W        W66203  36.535  28.020   1.352
 4541W        W66204  33.123   1.927  12.958
 4542W        W66205  24.596  26.604  12.861
 4543W        W66206  17.635  25.661  12.377
 4544W        W66207  23.628  29.097   4.813
 4545W        W66208  31.145  39.919  11.499
 4546W        W66209  29.588  14.300  11.866
 4547W        W66210  28.501  19.574   3.303
 4548W        W66211  22.142   8.678   3.266
 4549W        W66212  27.633  25.573   2.865
 4550W        W66213  13.134   1.396  11.056
 4551W        W66214   4.795  17.611   4.153
 4552W        W66215  32.617  26.138   4.162
 4553W        W66216   6.896  15.111   4.644
 4554W        W66217  30.062  43.413   1.771
 4555W        W66218  15.680   2.925  14.314
 4556W        W66219  40.853  16.801   0.960
 4557W        W66220  31.010  19.643  14.353
 4558W        W66221   5.727  38.515  13.394
 4559W        W66222  26.112  24.220  13.054
 4560W        W66223   0.949  39.961  12.010
 4561W        W66224  28.463  16.792  14.860
 4562W        W66225  37.833   4.425   4.320
 4563W        W66226  26.045   1.749   3.343
 4564W        W66227   1.455   6.844  10.914
 4565W        W66228  15.598  15.644  13.802
 4566W        W66229  41.792  42.832   0.388
 4567W        W66230  36.383  42.025  11.018
 4568W        W66231  33.121  16.295  14.790
 4569W        W66232  22.068  24.596  14.335
 4570W        W66233  11.286  35.069  11.474
 4571W        W66234  32.492  24.593  12.940
 4572W        W66235  36.018  28.967  11.513
 4573W        W66236  16.223   4.393  10.449
 4574W        W66237  23.996  29.657   2.384
 4575W        W66238  17.747  35.368  12.848
 4576W        W66239   4.726  14.748   0.483
 4577W        W66240   6.837  12.180  11.017
 4578W        W66241   8.231  14.269   0.290
 4579W        W66242  13.320  44.845  14.280
 4580W        W66243  20.577   2.294  14.904
 4581W        W66244   7.748  38.832  12.343
 4582W        W66245  18.096   6.762  11.447
 4583W        W66246   7.747  36.444  10.943
 4584W        W66247   0.791  39.408   0.928
 4585W        W66248  30.466  26.105  12.879
 4586W        W66249   5.761  35.904  10.436
 4587W        W66250  28.450  44.347   0.303
 4588W        W66251   7.784   3.773   3.632
 4589W        W66252  29.998  16.723  14.991
 4590W        W66253  26.036   4.928  12.930
 4591W        W66254   1.440  19.665  14.333
 4592W        W66255  34.461  17.199   0.399
 4593W        W66256  17.304  33.874   1.451
 4594W        W66257   4.318  14.249  10.982
 4595W        W66258  15.131  34.451   2.186
 4596W        W66259   3.242  29.599   2.179
 4597W        W66260  18.155   1.950   3.343
 4598W        W66261  30.090   3.903   3.713
 4599W        W66262  32.073  19.201   2.732
 4600W        W66263   8.340  31.114  14.492
 4601W        W66264   4.341  12.179   0.912
 4602W        W66265  34.420  33.614  14.350
 4603W        W66266   9.737  20.050   1.349
 4604W        W66267  43.854  13.638   1.323
 4605W        W66268  11.752  11.625  11.914
 4606W        W66269  20.698  33.920   2.236
 4607W        W66270  12.706  36.029   1.885
 4608W        W66271  11.758  26.477   5.089
 4609W        W66272  12.137  38.045  12.523
 4610W        W66273  14.223  18.136   1.914
 4611W        W66274  27.516  21.529  13.958
 4612W        W66275  11.633  23.141   3.210
 4613W        W66276  30.959  24.527   0.321
 4614W        W66277  18.064  20.721  10.515
 4615W        W66278   7.845  44.311  11.380
 4616W        W66279  29.616   0.946  13.992
 4617W        W66280  29.070   0.329   1.891
 4618W        W66281  22.091   1.467  12.915
 4619W        W66282   0.788  26.043  13.932
 4620W        W66283  43.442   6.851  11.468
 4621W        W66284   5.400  44.856  12.022
 4622W        W66285  41.536  29.152  11.458
 4623W        W66286  24.221   5.279   3.649
 4624W        W66287  37.493   1.311  12.519
 4625W        W66288  35.531  40.409   0.833
 4626W        W66289  36.965  41.830  12.024
 4627W        W66290  28.175  32.125   1.321
 4628W        W66291  18.642  35.084   1.260
 4629W        W66292  19.711  43.982   0.932
 4630W        W66293  10.848  23.496   4.751
 4631W        W66294  37.908  15.779   4.188
 4632W        W66295  15.818  18.739  13.945
 4633W        W66296  12.814   6.374  13.882
 4634W        W66297  20.117  10.877  12.998
 4635W        W66298  21.570  38.928  12.497
 4636W        W66299  42.471  40.329  13.387
 4637W        W66300   6.889   8.732   4.297
 4638W        W66301   5.261  42.857  14.810
 4639W        W66302   9.741   5.893   0.732
 4640W        W66303   9.175  11.719  14.941
 4641W        W66304  21.516  23.066  12.867
 4642W        W66305   1.387   7.809  13.006
 4643W        W66306  43.285  39.335   0.305
 4644W        W66307  38.884  14.291  14.281
 4645W        W66308  11.152  42.854   5.201
 4646W        W66309  13.639  14.189  11.102
 4647W        W66310  32.989  14.273   1.415
 4648W        W66311  29.567  41.330   0.323
 4649W        W66312  36.026  25.184   1.838
 4650W        W66313  24.539  25.549  13.008
 4651W        W66314  38.562  41.824  10.563
 4652W        W66315   5.826   6.801  14.001
 4653W        W66316  37.561  12.191  12.844
 4654W        W66317  17.720  30.095   4.793
 4655W        W66318  28.979   5.400  11.976
 4656W        W66319   8.186  24.624   0.286
 4657W        W66320  34.495  37.460   2.783
 4658W        W66321  34.407   0.749  11.056
 4659W        W66322  23.991   7.240  12.365
 4660W        W66323  20.765  11.234  11.468
 4661W        W66324  21.214  23.114   3.843
 4662W        W66325   8.882   2.247  12.483
 4663W        W66326  16.674  36.989   2.281
 4664W        W66327  42.813  34.031  13.342
 4665W        W66328  11.697  43.451  10.157
 4666W        W66329  37.997  29.585   0.435
 4667W        W66330  29.956  21.689  10.447
 4668W        W66331  41.935  36.055   4.762
 4669W        W66332  18.188  10.160   3.379
 4670W        W66333  14.757   5.869   1.719
 4671W        W66334  31.429  37.002  14.366
 4672W        W66335  12.254  25.064  11.862
 4673W        W66336  43.351  43.276  10.908
 4674W        W66337  24.131  34.996   0.925
 4675W        W66338  40.339  43.318  10.976
 4676W        W66339  24.532  18.109   2.880
 4677W        W66340  29.576  15.319   3.790
 4678W        W66341  39.911  19.236   2.670
 4679W        W66342  20.608  13.269   4.235
 4680W        W66343  26.616  16.111   2.884
 4681W        W66344  42.888  36.985  12.456
 4682W        W66345  21.061  32.943  10.452
 4683W        W66346   4.291  11.867  11.553
 4684W        W66347  14.287   7.272  12.979
 4685W        W66348   2.960  29.456   3.155
 4686W        W66349  17.610  44.336   3.232
 4687W        W66350  32.505  12.818   3.246
 4688W        W66351  39.044  17.139   0.366
 4689W        W66352  43.479  13.320  12.934
 4690W        W66353  37.564  10.294  13.893
 4691W        W66354  38.001   5.738   2.179
 4692W        W66355  44.316   0.804   1.450
 4693W        W66356  33.066   6.401  14.957
 4694W        W66357  11.706   9.192   1.889
 4695W        W66358   0.845   1.262  10.436
 4696W        W66359  35.885  44.419  13.922
 4697W        W66360  33.386  24.547   0.244
 4698W        W66361  29.432  20.139  12.502
 4699W        W66362  24.602   0.847  11.087
 4700W        W66363  39.975   2.462  12.829
 4701W        W66364  23.552  40.357  11.905
 4702W        W66365  24.991  28.139   4.211
 4703W        W66366  12.817  35.036  12.870
 4704W        W66367  38.916  42.930   3.834
 4705W        W66368  13.677   5.234   3.212
 4706W        W66369  20.604  13.291  14.939
 4707W        W66370  10.802  27.090   4.131
 4708W        W66371   5.843  21.118  12.398
 4709W        W66372  24.995  44.865  11.072
 4710W        W66373  35.977  24.068  12.556
 4711W        W66374  19.650  39.317  11.959
 4712W        W66375  31.908   9.270  11.967
 4713W        W66376   3.798  23.517   4.801
 4714W        W66377  20.251  16.812  14.871
 4715W        W66378  42.399  22.157  12.507
 4716W        W66379   4.710  10.710  14.466
 4717W        W66380   0.263  33.476   1.797
 4718W        W66381  33.566   1.402  10.150
 4719W        W66382  44.985  22.125  12.561
 4720W        W66383  39.517  44.417  10.596
 4721W        W66384  26.971  29.459   0.472
 4722W        W66385  13.733   1.849   1.906
 4723W        W66386  37.970   7.860  12.053
 4724W        W66387  37.360  36.965  10.499
 4725W        W66388  15.803  40.406   3.156
 4726W        W66389   1.425  13.620  10.632
 4727W        W66390  43.954  34.972  14.410
 4728W        W66391  21.088   6.419  10.483
 4729W        W66392  23.139  35.402  14.989
 4730W        W66393  20.621  24.040   3.657
 4731W        W66394   0.443  11.300   3.643
 4732W        W66395  42.931  42.406   0.384
 4733W        W66396   4.209  41.968  10.409
 4734W        W66397  17.683  22.629   0.915
 4735W        W66398  21.631  40.357  14.470
 4736W        W66399  40.411  22.675  14.425
 4737W        W66400  23.557  30.550  12.033
 4738W        W66401   8.738  43.448  12.402
 4739W        W66402  44.962   8.663   2.200
 4740W        W66403  25.573  32.950  13.353
 4741W        W66404  25.989  22.137  12.416
 4742W        W66405  36.465  24.159   0.463
 4743W        W66406   5.400   6.426   1.793
 4744W        W66407   2.359   3.352   3.316
 4745W        W66408  29.469  32.516  11.046
 4746W        W66409   6.330  21.754   3.825
 4747W        W66410  17.256  41.897  14.429
 4748W        W66411  25.599   5.791   4.679
 4749W        W66412  38.344  16.790  13.367
 4750W        W66413  20.098  35.475   0.440
 4751W        W66414   1.450   2.950   3.316
 4752W        W66415  37.379   2.290   1.329
 4753W        W66416  38.981  42.963   2.227
 4754W        W66417  17.762  29.440   0.415
 4755W        W66418  13.616   3.838  10.898
 4756W        W66419  42.451  42.290  14.302
 4757W        W66420   3.332  40.927   1.296
 4758W        W66421  24.605   5.270  14.854
 4759W        W66422   8.167  29.073   1.234
 4760W        W66423  42.478   6.858   0.469
 4761W        W66424  11.696  35.473   3.311
 4762W        W66425  38.826  36.412  10.436
 4763W        W66426   5.883  17.717   2.277
 4764W        W66427   1.438  34.895   4.612
 4765W        W66428  35.552   5.797  12.531
 4766W        W66429  17.235  39.952  14.000
 4767W        W66430  28.125   5.429  13.830
 4768W        W66431   8.296  36.555   2.815
 4769W        W66432  39.850  37.444  11.586
 4770W        W66433  10.775   5.319   3.634
 4771W        W66434  44.302   7.901  13.535
 4772W        W66435  18.257   7.738   2.873
 4773W        W66436  24.599   9.732  13.353
 4774W        W66437  22.531  34.944   2.868
 4775W        W66438   7.773  14.223   5.283
 4776W        W66439  14.713   1.378   0.375
 4777W        W66440   3.279  42.464   3.770
 4778W        W66441   8.865  15.298  12.000
 4779W        W66442   2.891  32.107  10.576
 4780W        W66443   3.849   0.812   4.300
 4781W        W66444  17.122  11.826  11.094
 4782W        W66445   4.815   6.710  10.939
 4783W        W66446   2.472  13.774   1.838
 4784W        W66447  43.468  12.677   4.141
 4785W        W66448  39.459  26.971   0.892
 4786W        W66449  10.780  18.247  11.912
 4787W        W66450  23.140  13.806   3.168
 4788W        W66451  39.493  44.378  12.485
 4789W        W66452   9.819  16.710  14.356
 4790W        W66453  34.888   6.877   0.269
 4791W        W66454   7.757  42.003  14.389
 4792W        W66455  31.460   1.817   2.901
 4793W        W66456  25.050   7.347   4.760
 4794W        W66457  43.448  37.515  12.829
 4795W        W66458  23.591  15.103  12.413
 4796W        W66459  14.826  41.420  12.978
 4797W        W66460  28.163  43.424  14.956
 4798W        W66461  44.953  38.347  10.413
 4799W        W66462  37.544  24.615  11.372
 4800W        W66463   0.425   9.304  12.568
 4801W        W66464   8.232  19.285  14.347
 4802W        W66465  42.432   5.307   5.627
 4803W        W66466   4.930  28.529   2.869
 4804W        W66467  33.099  31.967  13.847
 4805W        W66468  28.980   5.797   4.190
 4806W        W66469   4.214  16.569  10.599
 4807W        W66470  35.940  29.641  12.537
 4808W        W66471   5.768  39.042   2.864
 4809W        W66472  35.570  31.967  10.561
 4810W        W66473  38.390   5.371  11.465
 4811W        W66474  31.069  16.308  13.317
 4812W        W66475   7.341   1.437   4.309
 4813W        W66476  20.737  37.894   3.795
 4814W        W66477  32.924  23.583   2.268
 4815W        W66478  26.050  25.050   1.808
 4816W        W66479  28.439  23.597  12.387
 4817W        W66480   3.757   7.270  14.021
 4818W        W66481  28.482  18.615   3.166
 4819W        W66482  40.019   8.322   3.270
 4820W        W66483  28.462  12.691   3.323
 4821W        W66484  10.253  32.965  13.989
 4822W        W66485  23.148  40.540  12.503
 4823W        W66486  21.142   0.876  13.022
 4824W        W66487  39.049  32.482   4.298
 4825W        W66488  17.101  30.507  10.075
 4826W        W66489   9.273  34.376  13.857
 4827W        W66490  19.706  32.417   4.837
 4828W        W66491  17.286  32.014   2.372
 4829W        W66492  21.224  23.999   2.880
 4830W        W66493  16.181  25.082  10.436
 4831W        W66494  20.178  20.719   0.414
 4832W        W66495  10.855  10.857  14.804
 4833W        W66496  41.522  31.987   1.751
 4834W        W66497  12.245  23.002   4.288
 4835W        W66498  16.229   2.228  13.887
 4836W        W66499  42.507  24.152  10.928
 4837W        W66500  13.344  23.045  14.934
 4838W        W66501  40.411  44.341   3.672
 4839W        W66502  42.961  10.715  11.428
 4840W        W66503   3.900  22.061  11.517
 4841W        W66504  14.679  29.144  13.431
 4842W        W66505  16.754   5.931   1.214
 4843W        W66506  16.718  33.471   2.204
 4844W        W66507  20.264  28.652  10.556
 4845W        W66508  44.372  33.388   0.829
 4846W        W66509   4.843  25.063  12.977
 4847W        W66510  23.589  19.058  13.049
 4848W        W66511  27.005   7.717  12.365
 4849W        W66512  28.587  36.355  14.928
 4850W        W66513  43.515  10.375   2.729
 4851W        W66514   4.304   3.955  12.984
 4852W        W66515   3.740  28.048   3.363
 4853W        W66516   6.188  30.123  10.000
 4854W        W66517  33.528  32.065   0.349
 4855W        W66518  10.676  41.021   2.299
 4856W        W66519   0.804   1.384   2.360
 4857W        W66520   2.754  30.424  14.984
 4858W        W66521  44.429  34.052  13.317
 4859W        W66522  30.041  21.564   3.686
 4860W        W66523  36.590  23.700   0.276
 4861W        W66524   5.748  27.002   1.880
 4862W        W66525  42.387  44.367  12.091
 4863W        W66526   2.791  44.378   0.278
 4864W        W66527   0.416  26.159   2.878
 4865W        W66528   6.332  26.605  10.924
 4866W        W66529  30.028  35.584  10.893
 4867W        W66530  30.977  40.389   1.275
 4868W        W66531   8.210  37.502   1.439
 4869W        W66532  22.080  26.135  12.016
 4870W        W66533  14.734  41.971  12.572
 4871W        W66534  34.936  16.312   1.270
 4872W        W66535  14.815  35.414   3.300
 4873W        W66536  36.413  12.725   0.903
 4874W        W66537  42.306  38.462  14.872
 4875W        W66538  33.053  19.046  10.918
 4876W        W66539  44.969  44.868   1.710
 4877W        W66540  25.120   1.943   4.607
 4878W        W66541  43.346   5.325   1.334
 4879W        W66542  10.353   1.297  10.500
 4880W        W66543  37.919  20.602  14.872
 4881W        W66544  40.039  23.522  14.481
 4882W        W66545  43.456  17.152   1.424
 4883W        W66546  27.623   4.445   1.264
 4884W        W66547  42.423  30.062   3.634
 4885W        W66548  16.229  26.513   4.274
 4886W        W66549   1.844  11.704  11.575
 4887W        W66550  27.995  35.969   0.424
 4888W        W66551   8.735  12.821   3.781
 4889W        W66552  36.420  42.338   1.351
 4890W        W66553  14.187  21.119   5.182
 4891W        W66554   5.755  43.795   1.785
 4892W        W66555  10.281   3.220  12.575
 4893W        W66556  36.347   9.159   2.892
 4894W        W66557   5.799  24.180  12.854
 4895W        W66558  10.653  38.013  13.059
 4896W        W66559  36.944  18.591   0.478
 4897W        W66560  27.086   5.330   1.216
 4898W        W66561  24.017   4.315  13.490
 4899W        W66562   2.293   6.387  13.852
 4900W        W66563  44.000   5.389  13.936
 4901W        W66564  43.842  41.008   2.755
 4902W        W66565  43.993  34.909  10.626
 4903W        W66566   9.392  25.185  11.096
 4904W        W66567   9.700   3.327  13.011
 4905W        W66568  11.851  10.141  11.991
 4906W        W66569   4.810  10.669  11.048
 4907W        W66570  30.415  18.782  11.448
 4908W        W66571  42.857  18.103  10.916
 4909W        W66572  19.657  44.263   2.867
 4910W        W66573  25.048   7.176   0.459
 4911W        W66574  38.826  18.752   0.299
 4912W        W66575   4.727  26.154   1.927
 4913W        W66576  37.395  37.979   4.597
 4914W        W66577  30.482  29.560  11.546
 4915W        W66578  20.597   5.859  13.984
 4916W        W66579  28.127  33.085  10.623
 4917W        W66580  38.426  34.972   2.699
 4918W        W66581  19.139  27.598   4.680
 4919W        W66582  12.793  19.579  11.428
 4920W        W66583   5.784   4.228  12.068
 4921W        W66584  14.117  27.042   4.620
 4922W        W66585  28.993  22.046   1.799
 4923W        W66586   6.702   0.942  12.408
 4924W        W66587   3.940  29.141   1.282
 4925W        W66588  40.853   7.726  12.496
 4926W        W66589  38.399   4.227  13.984
 4927W        W66590  23.114  39.011  11.531
 4928W        W66591  25.163  17.728  10.635
 4929W        W66592  15.621   2.316  13.861
 4930W        W66593  41.899  42.921   3.749
 4931W        W66594  34.383  25.513   1.923
 4932W        W66595  40.338  12.269  12.539
 4933W        W66596  33.593  15.327   0.806
 4934W        W66597   4.315   7.301  10.985
 4935W        W66598  40.878  14.144   3.676
 4936W        W66599  24.163  43.869  12.439
 4937W        W66600  30.030  35.603  10.579
 4938W        W66601  36.489  40.343  12.913
 4939W        W66602   9.289  28.035  14.473
 4940W        W66603  29.584  10.831  11.874
 4941W        W66604  23.152  35.004   3.786
 4942W        W66605  27.010  43.922  14.400
 4943W        W66606  11.322   6.366   2.397
 4944W        W66607   0.977  42.438  13.005
 4945W        W66608  12.684  23.568   4.139
 4946W        W66609  30.943  34.091  13.048
 4947W        W66610  36.463  24.167   4.331
 4948W        W66611  22.711   2.752  12.020
 4949W        W66612  31.016  17.226   2.253
 4950W        W66613  12.211  35.384   3.323
 4951W        W66614  18.671  28.084   1.860
 4952W        W66615   4.305  42.479   0.360
 4953W        W66616  25.159  28.024   4.693
 4954W        W66617  18.068   3.229  10.606
 4955W        W66618  44.854  20.048   3.360
 4956W        W66619  35.460  40.514   2.225
 4957W        W66620   5.328   8.716  10.491
 4958W        W66621  27.627  17.222   1.362
 4959W        W66622   5.825   3.455  12.342
 4960W        W66623  31.937  44.985  11.868
 4961W        W66624  15.278  40.838   4.820
 4962W        W66625  27.494   8.730  13.330
 4963W        W66626   2.738   7.709  14.006
 4964W        W66627  33.379  16.660   2.377
 4965W        W66628   0.772  34.114  14.407
 4966W        W66629  30.939  43.330  11.017
 4967W        W66630  12.849  12.223   1.731
 4968W        W66631  40.410  17.696  11.444
 4969W        W66632  28.629  23.170  12.991
 4970W        W66633   3.864  27.083   0.893
 4971W        W66634  18.648  21.641   0.322
 4972W        W66635  32.023   8.241   2.868
 4973W        W66636  10.845  34.548   2.261
 4974W        W66637  24.003   6.680   0.855
 4975W        W66638   9.295   2.369   3.848
 4976W        W66639  20.099   9.659   3.266
 4977W        W66640  14.176  37.982  14.430
 4978W        W66641   5.285   1.909  14.335
 4979W        W66642  19.566  41.479   3.253
 4980W        W66643  11.796  26.689  14.790
 4981W        W66644   8.704  20.106  14.360
 4982W        W66645   7.885   3.326  12.411
 4983W        W66646  25.694  22.623   5.126
 4984W        W66647   3.806   1.976  11.518
 4985W        W66648  32.450   4.732  13.407
 4986W        W66649   8.363   7.382   3.322
 4987W        W66650  11.281  31.024   4.135
 4988W        W66651  38.933  22.735   2.240
 4989W        W66652  20.618  16.249   5.206
 4990W        W66653  10.285   0.289  13.002
 4991W        W66654   8.310  35.470  12.975
 4992W        W66655  34.923  27.192   1.873
 4993W        W66656   8.281  18.215  13.952
 4994W        W66657  42.358  24.640   1.295
 4995W        W66658  28.616  26.024  11.975
 4996W        W66659   4.369  44.806   3.208
 4997W        W66660  24.181  31.055   0.364
 4998W        W66661  39.044  39.370  13.816
 4999W        W66662  12.176  34.523  11.104
 5000W        W66663  34.083  16.626   0.815
 5001W        W66664  10.852  42.901   3.772
 5002W        W66665  42.932  14.817   3.311
 5003W        W66666  12.213  21.670  10.536
 5004W        W66667  43.376  14.286   0.965
 5005W        W66668  18.194  13.608  12.855
 5006W        W66669  33.121  10.286   4.133
 5007W        W66670   6.272  39.877   1.773
 5008W        W66671   4.900  11.769   4.154
 5009W        W66672  41.378  44.778   3.800
 5010W        W66673   4.829  41.999  13.313
 5011W        W66674  27.469  38.975   2.696
 5012W        W66675  40.957  12.191   1.300
 5013W        W66676  40.385   7.253  14.009
 5014W        W66677   4.253   1.424   4.667
 5015W        W66678  41.946  34.577   2.381
 5016W        W66679  29.465  18.617  14.018
 5017W        W66680  38.365  22.226  13.471
 5018W        W66681  20.241  17.264  13.812
 5019W        W66682  29.005  24.074   1.916
 5020W        W66683  40.327   1.276   2.773
 5021W        W66684   9.744   7.326  11.889
 5022W        W66685  27.524  25.143  13.922
 5023W        W66686  33.534  34.576   1.856
 5024W        W66687  11.154   6.882   2.815
 5025W        W66688  44.773  27.007  11.004
 5026W        W66689  44.375  27.967   1.840
 5027W        W66690  43.873  22.030   1.282
 5028W        W66691  41.314  30.931  14.372
 5029W        W66692   4.447  10.854  10.482
 5030W        W66693  27.137  28.616  14.911
 5031W        W66694   3.773   9.689  10.469
 5032W        W66695  26.503   8.214  11.929
 5033W        W66696  43.377  11.631  14.780
 5034W        W66697  37.044  30.462   1.308
 5035W        W66698  34.383  30.163   3.151
 5036W        W66699  35.981   4.417   3.329
 5037W        W66700   1.906  16.607   1.912
 5038W        W66701  16.581  38.953   4.118
 5039W        W66702  33.605  31.936   3.737
 5040W        W66703   6.677  16.623  12.515
 5041W        W66704  24.673  11.664  11.895
 5042W        W66705  27.496  23.224   4.688
 5043W        W66706  35.913  33.057  12.568
 5044W        W66707  38.368  29.021   0.375
 5045W        W66708  17.667  30.499  12.845
 5046W        W66709  19.560   4.221   3.793
 5047W        W66710  33.929  20.592   3.829
 5048W        W66711  13.214  28.483   0.283
 5049W        W66712   3.758  44.502   2.332
 5050W        W66713  31.118  10.721  12.540
 5051W        W66714   8.703  31.997   0.859
 5052W        W66715   6.339  31.151  12.465
 5053W        W66716  17.785  18.186  10.525
 5054W        W66717  32.074  42.008  13.325
 5055W        W66718   4.281  27.674  12.965
 5056W        W66719  18.222  23.724  12.535
 5057W        W66720  33.034   6.820  13.878
 5058W        W66721  29.521   7.268   2.380
 5059W        W66722   1.960  11.861  12.577
 5060W        W66723  18.765   0.901   1.427
 5061W        W66724  43.467  25.531  12.499
 5062W        W66725  39.492  21.736  13.495
 5063W        W66726  38.337  38.874   2.182
 5064W        W66727  17.239  14.254  14.021
 5065W        W66728  41.313  28.547   0.747
 5066W        W66729  28.112  34.114   4.644
 5067W        W66730  25.046  36.504  14.283
 5068W        W66731  24.688   7.243  14.502
 5069W        W66732  24.011  22.047  10.124
 5070W        W66733   3.233  37.410   1.256
 5071W        W66734  36.002  23.058   2.393
 5072W        W66735  29.437  15.666  11.039
 5073W        W66736  32.924  29.456   4.300
 5074W        W66737  21.751  32.401   0.466
 5075W        W66738  44.888  29.600  12.994
 5076W        W66739  35.018   3.785   3.749
 5077W        W66740  31.589   1.405   2.316
 5078W        W66741  13.799  43.409   3.352
 5079W        W66742  18.132  43.002   1.726
 5080W        W66743  26.602  26.982   3.170
 5081W        W66744   1.387  31.405   0.304
 5082W        W66745   9.731   6.406   1.441
 5083W        W66746   2.840   2.794   4.654
 5084W        W66747  37.953  35.480   4.799
 5085W        W66748   6.200  36.351   2.266
 5086W        W66749  28.003  25.158  14.894
 5087W        W66750   0.445  27.658  10.931
 5088W        W66751   5.339  29.469  11.419
 5089W        W66752  16.619  35.422  13.822
 5090W        W66753   8.231  31.109  14.809
 5091W        W66754   1.915  40.502   3.837
 5092W        W66755  28.457  30.083   3.767
 5093W        W66756  16.765  10.786   2.417
 5094W        W66757  28.547  42.924   2.282
 5095W        W66758   7.702  16.619   2.790
 5096W        W66759   1.918   1.445   1.446
 5097W        W66760  12.262  25.705   3.308
 5098W        W66761  28.177  16.144   1.268
 5099W        W66762  23.006  31.406   2.318
 5100W        W66763  43.495  19.566  13.442
 5101W        W66764   4.922  27.176   3.228
 5102W        W66765   7.401  33.506  14.374
 5103W        W66766  32.897  33.581  13.337
 5104W        W66767   9.358  11.789  12.443
 5105W        W66768  11.826  21.149  11.450
 5106W        W66769  15.121  21.072  10.596
 5107W        W66770  36.032  36.936  13.503
 5108W        W66771  11.236  14.651  11.990
 5109W        W66772  21.694  28.445   2.889
 5110W        W66773  34.489  10.657  10.417
 5111W        W66774  33.018  34.877  11.527
 5112W        W66775  33.494   7.750  12.537
 5113W        W66776  37.349   8.774   2.862
 5114W        W66777  22.726  10.711  14.335
 5115W        W66778  10.713   1.951  12.557
 5116W        W66779  23.675  22.533   0.822
 5117W        W66780   8.220   0.874  14.908
 5118W        W66781  23.240  15.688  11.390
 5119W        W66782  23.682  14.204   1.832
 5120W        W66783  29.445  27.517  14.804
 5121W        W66784  10.247   3.421   4.185
 5122W        W66785  31.004  25.184   2.700
 5123W        W66786  24.062  20.168  10.984
 5124W        W66787  26.029  42.805  11.508
 5125W        W66788   8.237   8.259  13.416
 5126W        W66789  29.037  10.199  10.486
 5127W        W66790  34.387  29.559  12.952
 5128W        W66791  24.012  34.078  13.328
 5129W        W66792  32.634  29.943   2.302
 5130W        W66793   6.743  41.978   0.369
 5131W        W66794  10.697  33.130   0.448
 5132W        W66795   9.338  26.475   1.210
 5133W        W66796   9.382  36.395   0.821
 5134W        W66797  20.272  39.871  10.103
 5135W        W66798   7.668   2.277   1.302
 5136W        W66799  14.768   0.418  14.970
 5137W        W66800  27.513  43.401  12.031
 5138W        W66801  39.556   9.700  13.492
 5139W        W66802  17.710  31.640   4.762
 5140W        W66803   8.273   3.328   4.248
 5141W        W66804  26.155  39.909  12.481
 5142W        W66805  19.241  21.060   0.891
 5143W        W66806  27.958  36.398   2.878
 5144W        W66807   8.845  10.265  13.513
 5145W        W66808   3.247  42.913   2.379
 5146W        W66809  29.463   4.838  14.331
 5147W        W66810  21.186   2.428  11.475
 5148W        W66811  14.590   7.340   0.467
 5149W        W66812  24.003   6.420   0.365
 5150W        W66813  30.142   9.258  11.433
 5151W        W66814  27.160   4.931  11.478
 5152W        W66815  36.999   0.828  10.561
 5153W        W66816  41.400  17.708  12.905
 5154W        W66817  14.809  14.201  12.366
 5155W        W66818   6.404  14.198  14.305
 5156W        W66819  43.438  23.178   4.837
 5157W        W66820  11.362  27.457   3.364
 5158W        W66821  39.490   7.218  12.044
 5159W        W66822   0.289  28.053   1.883
 5160W        W66823  25.517  29.643   0.294
 5161W        W66824  35.377  33.941  13.453
 5162W        W66825  27.005  11.758  13.025
 5163W        W66826  39.003   4.743   1.356
 5164W        W66827  16.796  25.667   0.314
 5165W        W66828  13.168  18.200  10.422
 5166W        W66829   4.204  23.617  11.022
 5167W        W66830  30.005  31.589  13.841
 5168W        W66831  26.972  12.732  13.901
 5169W        W66832  13.156  21.592   4.211
 5170W        W66833  12.835   2.888  12.426
 5171W        W66834  24.580  43.841  11.497
 5172W        W66835  26.562  11.764  11.894
 5173W        W66836  43.337  33.509   0.943
 5174W        W66837  16.266   5.913   4.616
 5175W        W66838  28.970  10.362  14.422
 5176W        W66839  21.644  20.705  12.017
 5177W        W66840  38.570   1.353   4.319
 5178W        W66841  18.552  29.601   4.251
 5179W        W66842  10.184  14.676  14.274
 5180W        W66843  21.565  32.011   0.809
 5181W        W66844  40.895  30.069  13.888
 5182W        W66845   7.385  15.643  13.421
 5183W        W66846   4.837  27.677  13.535
 5184W        W66847  39.506   2.933   2.705
 5185W        W66848  21.613  33.584   4.764
 5186W        W66849  40.915  16.303  11.982
 5187W        W66850  33.416  16.126   4.733
 5188W        W66851  36.461  30.143  12.862
 5189W        W66852   0.868   8.168  10.405
 5190W        W66853  18.192  37.553  11.945
 5191W        W66854  44.823   3.351  13.818
 5192W        W66855  43.867   3.342  13.378
 5193W        W66856  17.574   1.913   3.849
 5194W        W66857  35.010  33.593   2.267
 5195W        W66858  21.713  40.973   4.672
 5196W        W66859  18.599  17.739   2.344
 5197W        W66860  17.683  15.738   0.312
 5198W        W66861  41.973  13.274  12.438
 5199W        W66862   1.941  33.471  13.057
 5200W        W66863  38.357  18.173  14.441
 5201W        W66864  17.697  12.193  12.523
 5202W        W66865  30.947   3.761  11.943
 5203W        W66866  25.642   4.930   3.791
 5204W        W66867  16.582   3.344   3.385
 5205W        W66868  10.264   2.248   1.324
 5206W        W66869  39.881  19.201  10.559
 5207W        W66870  40.806   6.310   1.265
 5208W        W66871  20.143  43.945   1.818
 5209W        W66872  40.008  26.467  12.415
 5210W        W66873  36.481   5.302  12.866
 5211W        W66874   7.810   8.210  14.775
 5212W        W66875   4.904  28.516   3.165
 5213W        W66876  26.020   7.318   0.407
 5214W        W66877  26.100  32.437  11.073
 5215W        W66878  11.356  12.306   2.903
 5216W        W66879   7.203   6.921   2.237
 5217W        W66880  15.173  10.163  12.547
 5218W        W66881  13.234  15.620   2.357
 5219W        W66882  20.174   1.918   0.459
 5220W        W66883  33.448   7.875  13.795
 5221W        W66884   5.806  16.072  14.365
 5222W        W66885  28.447  34.486   4.810
 5223W        W66886  33.406  29.941  13.834
 5224W        W66887  33.999  18.066  12.527
 5225W        W66888  20.147  29.439  12.018
 5226W        W66889   0.282   1.861  10.475
 5227W        W66890  30.014  39.322  12.384
 5228W        W66891  39.530  36.875  11.427
 5229W        W66892  43.358  35.100  13.469
 5230W        W66893   3.813  16.605   0.753
 5231W        W66894  32.408  30.119   3.313
 5232W        W66895   8.309   9.702   0.847
 5233W        W66896  24.717  14.285   2.895
 5234W        W66897  44.879  32.097   5.191
 5235W        W66898  18.067  12.612   0.333
 5236W        W66899  25.653  23.999  11.098
 5237W        W66900   6.190  33.486  12.397
 5238W        W66901  16.286  19.679  11.975
 5239W        W66902  28.496   2.766   1.922
 5240W        W66903   5.222  32.927   2.289
 5241W        W66904  26.004  35.579   4.336
 5242W        W66905  19.740  34.429  14.029
 5243W        W66906  10.235  33.397   2.211
 5244W        W66907  17.116  30.015  10.950
 5245W        W66908  10.698  29.500   4.159
 5246W        W66909  41.999   2.862  14.849
 5247W        W66910  15.731  35.572  14.404
 5248W        W66911  34.418   2.401  14.373
 5249W        W66912  13.208  24.602   0.846
 5250W        W66913  13.733  21.188  10.461
 5251W        W66914   4.793  17.604  13.413
 5252W        W66915  13.108  33.584  13.412
 5253W        W66916  30.602   4.911   2.259
 5254W        W66917  21.241  23.121  13.017
 5255W        W66918  14.114  44.809   0.837
 5256W        W66919  38.457   3.283  13.349
 5257W        W66920  32.006  18.712  11.102
 5258W        W66921  11.699  21.657  11.590
 5259W        W66922  13.786  39.941   1.376
 5260W        W66923  27.497  15.807   2.711
 5261W        W66924  38.882   0.953  10.561
 5262W        W66925   2.929  21.251  12.385
 5263W        W66926  19.577  13.829   0.390
 5264W        W66927  18.648  26.061   4.241
 5265W        W66928   9.358  14.272   4.163
 5266W        W66929  35.946  24.606  14.287
 5267W        W66930   8.879  31.071   3.740
 5268W        W66931  32.631  33.915  13.493
 5269W        W66932   7.680  21.164   1.848
 5270W        W66933  19.699  16.641   1.862
 5271W        W66934   2.793  18.731  13.544
 5272W        W66935  43.295   2.275  14.467
 5273W        W66936  34.907  40.820  10.891
 5274W        W66937  26.513  19.229   2.663
 5275W        W66938  32.418   6.880   4.128
 5276W        W66939  31.048  34.931  13.796
 5277W        W66940  14.316  18.144  12.578
 5278W        W66941  15.276  42.404   2.194
 5279W        W66942  38.542   6.732  14.339
 5280W        W66943  35.484  43.819   1.224
 5281W        W66944  11.817  17.614   4.306
 5282W        W66945  27.181  32.619   1.901
 5283W        W66946  27.457  24.983  11.114
 5284W        W66947  44.299   3.832   2.257
 5285W        W66948   5.428  22.158   4.649
 5286W        W66949  36.937   9.854   3.636
 5287W        W66950   3.801  40.335  13.053
 5288W        W66951  44.010   6.869   2.289
 5289W        W66952  44.965  26.682   1.819
 5290W        W66953  12.744   4.382  10.406
 5291W        W66954  28.970  33.090  12.004
 5292W        W66955  35.875  42.806  13.525
 5293W        W66956  31.048  32.002   9.922
 5294W        W66957  33.917  13.727   1.249
 5295W        W66958  14.096  14.617   0.420
 5296W        W66959  36.437  26.579   5.126
 5297W        W66960  10.222  19.720   4.796
 5298W        W66961  16.244   6.876  13.320
 5299W        W66962   9.700  28.102  13.044
 5300W        W66963   7.255  18.635   4.604
 5301W        W66964  18.185  16.588   3.858
 5302W        W66965  11.153   6.867  10.518
 5303W        W66966  35.936  37.352   3.714
 5304W        W66967  42.437  28.942  10.503
 5305W        W66968  29.992  37.963  11.980
 5306W        W66969  14.724   5.253   3.856
 5307W        W66970  15.238  17.196  10.585
 5308W        W66971  14.751   2.462  11.038
 5309W        W66972  20.613   9.834   0.295
 5310W        W66973   7.702  30.628   1.287
 5311W        W66974   0.309  16.197   1.819
 5312W        W66975  37.076  35.525  13.828
 5313W        W66976  28.981   4.276  12.071
 5314W        W66977  41.822  37.480   3.724
 5315W        W66978  25.024   7.710   2.751
 5316W        W66979  32.038  30.437   1.446
 5317W        W66980  25.080   4.400  11.895
 5318W        W66981   4.417  14.180  14.507
 5319W        W66982  19.070  18.764  11.088
 5320W        W66983  40.372  24.057   3.729
 5321W        W66984  26.009  39.928   3.839
 5322W        W66985  16.671   0.494  10.567
 5323W        W66986  39.966   5.712   4.788
 5324W        W66987  18.091  31.007  10.453
 5325W        W66988  19.233  12.643   3.709
 5326W        W66989  41.343  33.501  13.362
 5327W        W66990  25.185  29.015  12.940
 5328W        W66991  40.505  44.446   4.283
 5329W        W66992  28.618  36.509  13.947
 5330W        W66993   4.294   6.872  12.444
 5331W        W66994  35.915   1.464   4.680
 5332W        W66995  40.025  26.084  13.888
 5333W        W66996   0.475  41.011   0.898
 5334W        W66997   6.705  19.065   0.952
 5335W        W66998  38.844  34.864   4.300
 5336W        W66999  35.036  10.269   1.310
 5337W        W67000  35.428  23.086   0.395
 5338W        W67001  41.354   5.749   2.784
 5339W        W67002   5.822  42.326  12.371
 5340W        W67003  41.381   4.222   4.787
 5341W        W67004  44.423   3.808   1.725
 5342W        W67005  41.455  21.512   0.276
 5343W        W67006  30.522  41.444   2.714
 5344W        W67007  39.413  42.929  14.281
 5345W        W67008  14.125  35.488  13.925
 5346W        W67009  12.329  34.546  11.900
 5347W        W67010  26.581  22.648   5.269
 5348W        W67011   0.761   2.845   3.339
 5349W        W67012  29.137   6.855   2.331
 5350W        W67013  38.383  38.051  10.510
 5351W        W67014   7.389  14.100  14.814
 5352W        W67015  29.156  12.841  10.978
 5353W        W67016  42.939  12.287  10.631
 5354W        W67017  17.159  13.220   2.885
 5355W        W67018  23.497  22.250   1.427
 5356W        W67019  24.016  11.329  10.082
 5357W        W67020  43.937   4.398   2.228
 5358W        W67021  34.926  40.474   0.880
 5359W        W67022  29.130  13.763   1.316
 5360W        W67023  29.159  19.124   3.310
 5361W        W67024  44.789  14.667   9.622
 5362W        W67025  39.398  22.038   2.804
 5363W        W67026  13.686  33.549   3.312
 5364W        W67027  11.308  36.913   9.581
 5365W        W67028  27.009  36.370   3.748
 5366W        W67029  10.789  35.437   3.738
 5367W        W67030  34.929  10.297  13.361
 5368W        W67031  21.728  20.083  14.470
 5369W        W67032  12.802  40.810   1.363
 5370W        W67033  36.902   1.781  10.954
 5371W        W67034   1.243  41.474   0.872
 5372W        W67035  17.167  22.717  13.327
 5373W        W67036   7.838   1.858  13.918
 5374W        W67037  11.336  40.305  14.448
 5375W        W67038   0.959  20.599  13.912
 5376W        W67039  35.962  33.957   4.653
 5377W        W67040  43.005  35.945  14.444
 5378W        W67041   4.940   9.320  14.513
 5379W        W67042   2.725  33.560   4.717
 5380W        W67043  38.974  10.224  10.449
 5381W        W67044   4.724  19.243  12.521
 5382W        W67045  15.683  33.093   3.833
 5383W        W67046  31.597   3.395  13.366
 5384W        W67047  35.362  10.155  14.453
 5385W        W67048   4.929  18.558  13.539
 5386W        W67049  10.381  10.669   1.395
 5387W        W67050  16.145  33.977  12.875
 5388W        W67051  39.433  33.922   4.284
 5389W        W67052  12.755  42.927   2.806
 5390W        W67053   2.266  24.723   1.907
 5391W        W67054  35.470  23.121  10.610
 5392W        W67055   9.378   2.260   3.245
 5393W        W67056  38.836  28.014   3.773
 5394W        W67057   6.282   7.321   1.705
 5395W        W67058  36.457  12.316  13.944
 5396W        W67059   6.851  15.708   4.602
 5397W        W67060   6.693   2.933  11.481
 5398W        W67061  41.335  25.992  13.328
 5399W        W67062   9.277  31.584   3.868
 5400W        W67063  37.394  36.544  12.047
 5401W        W67064  44.303  28.116   2.294
 5402W        W67065  43.862  17.262   1.758
 5403W        W67066   1.265  16.659  11.016
 5404W        W67067  33.608  28.465   3.650
 5405W        W67068  20.052   6.415   0.892
 5406W        W67069  42.502  34.371  12.565
 5407W        W67070  17.688  17.570   4.692
 5408W        W67071  41.495  41.515  13.901
 5409W        W67072  40.938  21.608   2.740
 5410W        W67073  29.521  41.854   0.851
 5411W        W67074  21.263  25.502   3.289
 5412W        W67075  41.923  11.280   1.789
 5413W        W67076  26.035  30.648   2.300
 5414W        W67077   0.396  28.569   4.198
 5415W        W67078  23.642  34.950  13.348
 5416W        W67079  21.180  24.699   5.113
 5417W        W67080  24.490   1.271   1.393
 5418W        W67081  23.173  20.042   3.245
 5419W        W67082  13.268  20.735  12.446
 5420W        W67083   1.905   2.340   3.325
 5421W        W67084   2.435   9.355  12.882
 5422W        W67085  20.651  25.684   4.618
 5423W        W67086  34.569  20.117   0.322
 5424W        W67087   7.250  28.966  13.870
 5425W        W67088  12.763  24.004  14.475
 5426W        W67089  24.108  17.783   0.349
 5427W        W67090  15.292  35.450  14.408
 5428W        W67091   1.822  38.978   1.315
 5429W        W67092  29.006  35.959  10.599
 5430W        W67093  28.953   6.707   3.701
 5431W        W67094  38.336  12.255   4.653
 5432W        W67095   7.238   7.197  11.459
 5433W        W67096  10.819  35.397  14.446
 5434W        W67097   5.373  19.210   0.752
 5435W        W67098  22.076   5.866  12.344
 5436W        W67099  17.199  25.492   0.388
 5437W        W67100  32.555   4.361   0.332
 5438W        W67101  19.640  30.455  13.442
 5439W        W67102  37.052   2.760  13.864
 5440W        W67103  22.635  15.622  11.987
 5441W        W67104  37.548  25.154   2.265
 5442W        W67105  34.015   2.794   0.804
 5443W        W67106  41.804   0.341   1.754
 5444W        W67107  26.523  38.979   4.288
 5445W        W67108   1.431  38.034   1.934
 5446W        W67109  11.677  42.370   2.367
 5447W        W67110  30.983  11.148   0.901
 5448W        W67111  35.590  12.651   4.766
 5449W        W67112  40.868   6.869   3.235
 5450W        W67113  41.378   9.757  10.465
 5451W        W67114  29.629  36.939   3.345
 5452W        W67115  17.208  38.975   2.221
 5453W        W67116  36.853  17.581   1.875
 5454W        W67117   1.765  43.350   4.317
 5455W        W67118  13.208  28.998   0.765
 5456W        W67119  16.665  23.067  10.482
 5457W        W67120   6.752  39.394   3.730
 5458W        W67121  35.080   6.252   2.690
 5459W        W67122  16.131  15.580   9.675
 5460W        W67123  36.044   4.818  11.570
 5461W        W67124  42.292  17.069  13.382
 5462W        W67125  22.517  37.018  13.456
 5463W        W67126  23.673  39.821   1.767
 5464W        W67127  44.982  14.158   1.310
 5465W        W67128  15.639  11.732  13.938
 5466W        W67129   5.897  11.159  11.023
 5467W        W67130  24.041   4.287   1.816
 5468W        W67131  15.275  30.430   4.794
 5469W        W67132  28.012  34.909  13.877
 5470W        W67133  18.689  29.587  10.025
 5471W        W67134   4.734  24.485  14.827
 5472W        W67135   4.380  34.436  14.359
 5473W        W67136  30.015  25.521   0.405
 5474W        W67137  40.988  23.028   3.203
 5475W        W67138   0.306   2.232   1.823
 5476W        W67139  40.880  23.022  13.530
 5477W        W67140  43.909  22.652   3.209
 5478W        W67141   6.312  16.716   0.825
 5479W        W67142  44.504  31.970  13.799
 5480W        W67143   1.925   0.747  13.847
 5481W        W67144  15.746  31.575  13.374
 5482W        W67145  35.008  37.874   2.342
 5483W        W67146  16.696  10.358   3.777
 5484W        W67147  42.880   4.839  14.498
 5485W        W67148  40.805  37.057  12.567
 5486W        W67149  22.081  19.260   2.251
 5487W        W67150  13.320  18.555   3.176
 5488W        W67151  27.679  39.897  13.850
 5489W        W67152  25.182  25.652  13.016
 5490W        W67153  29.013   0.974  14.835
 5491W        W67154  33.065  17.621  13.897
 5492W        W67155  38.032  26.027  10.579
 5493W        W67156  24.037  11.834   0.256
 5494W        W67157  20.056  22.518  13.820
 5495W        W67158  17.229   8.291  12.934
 5496W        W67159  12.201   3.835  11.583
 5497W        W67160   3.731  27.152  14.497
 5498W        W67161  39.900  38.854  13.515
 5499W        W67162  29.504  24.129   2.397
 5500W        W67163  20.187   2.780  14.761
 5501W        W67164   3.394  13.817  15.000
 5502W        W67165  18.130  18.071   4.749
 5503W        W67166  40.422  16.647   3.240
 5504W        W67167  43.279  21.598   1.318
 5505W        W67168  18.154  18.262   9.927
 5506W        W67169  24.668  21.727  13.885
 5507W        W67170  18.588  17.605  14.896
 5508W        W67171  20.079  35.432  14.359
 5509W        W67172   6.186  40.519  10.466
 5510W        W67173  41.440  19.065  12.004
 5511W        W67174  43.323  21.064   1.763
 5512W        W67175  36.542  38.388  13.511
 5513W        W67176   2.463  35.858  12.096
 5514W        W67177  30.058  31.005   3.303
 5515W        W67178  42.778  41.355   4.648
 5516W        W67179  15.823  42.879  14.362
 5517W        W67180  43.916  33.498   1.308
 5518W        W67181  42.312  15.106   0.944
 5519W        W67182   5.718   1.975  14.011
 5520W        W67183  32.457  16.307   1.868
 5521W        W67184   5.325  16.236   1.752
 5522W        W67185  25.655  24.121   0.421
 5523W        W67186   1.316  17.153   0.965
 5524W        W67187  35.385  21.095   4.191
 5525W        W67188  20.037  18.570  14.296
 5526W        W67189  16.198  33.981   1.703
 5527W        W67190   9.806   5.411   4.784
 5528W        W67191  19.160  44.766  13.385
 5529W        W67192  16.785  24.998   2.856
 5530W        W67193  30.620  39.971  12.002
 5531W        W67194  43.393  23.736  11.863
 5532W        W67195  12.259  21.601  12.371
 5533W        W67196  26.089  42.343   1.306
 5534W        W67197   5.423  32.953  12.466
 5535W        W67198  32.435  28.600  14.499
 5536W        W67199  31.064  38.838   1.719
 5537W        W67200  14.777  21.586  13.802
 5538W        W67201  21.054   2.433   1.384
 5539W        W67202   9.681  27.115   3.709
 5540W        W67203  25.128  19.073   1.765
 5541W        W67204  25.601  19.632   4.775
 5542W        W67205  42.372  40.839   0.750
 5543W        W67206  20.160  20.587  11.126
 5544W        W67207  17.653   6.201  13.466
 5545W        W67208  44.472  28.178  11.576
 5546W        W67209   4.719  26.206  10.645
 5547W        W67210  26.989   9.369   2.338
 5548W        W67211  24.178   4.837   2.262
 5549W        W67212  25.131  17.695  12.982
 5550W        W67213  39.418  23.223   2.857
 5551W        W67214   7.813  31.928  10.450
 5552W        W67215   2.342   6.233   4.306
 5553W        W67216  39.512  41.846   4.301
 5554W        W67217   8.177  21.662   0.920
 5555W        W67218  17.178  13.642   1.418
 5556W        W67219  13.249   2.731  11.508
 5557W        W67220  30.500  10.158  11.490
 5558W        W67221  28.479  21.257   0.460
 5559W        W67222  18.741  39.912   1.891
 5560W        W67223  38.960   0.306   3.820
 5561W        W67224  43.934  27.169   0.856
 5562W        W67225  24.086  36.844   3.854
 5563W        W67226   2.274  27.496   0.939
 5564W        W67227  13.823  39.963  13.330
 5565W        W67228  36.879  31.424  13.334
 5566W        W67229  36.570  19.543  12.452
 5567W        W67230   9.841  25.597  14.454
 5568W        W67231   3.852  44.356   3.835
 5569W        W67232  25.545  24.195   1.434
 5570W        W67233  41.042  23.635  10.943
 5571W        W67234   8.225  13.212   3.222
 5572W        W67235  11.820  16.106   1.701
 5573W        W67236   3.350  21.524  13.514
 5574W        W67237  16.257   8.657  11.866
 5575W        W67238  36.436   6.816  12.553
 5576W        W67239   0.322  35.960   2.197
 5577W        W67240  33.952   3.337   3.777
 5578W        W67241  17.791  30.441   3.261
 5579W        W67242   2.247  21.207   1.806
 5580W        W67243  37.870  25.073  11.016
 5581W        W67244   3.777  22.152   3.653
 5582W        W67245   3.718  20.589  13.351
 5583W        W67246   3.920  43.770  12.000
 5584W        W67247  14.109  43.807  13.972
 5585W        W67248  11.697   5.817   9.994
 5586W        W67249   4.802  11.357  14.475
 5587W        W67250  10.204  40.831   1.877
 5588W        W67251   9.792  24.563   3.670
 5589W        W67252  27.653  10.701   2.893
 5590W        W67253  33.883  24.006   0.942
 5591W        W67254  38.055   5.722   5.263
 5592W        W67255  41.979  18.167   4.116
 5593W        W67256  17.230  32.056  14.354
 5594W        W67257  10.381  37.477   4.294
 5595W        W67258  34.466   3.280  14.457
 5596W        W67259  27.044  12.670  12.548
 5597W        W67260  41.809   8.208  13.926
 5598W        W67261  32.926  14.787   3.221
 5599W        W67262  18.651  23.099   3.327
 5600W        W67263  41.432   0.341   4.205
 5601W        W67264   5.228  10.646   2.824
 5602W        W67265  27.539  34.082   4.351
 5603W        W67266  27.466   5.768  13.938
 5604W        W67267  22.539  33.383  10.422
 5605W        W67268  36.881   8.836  11.455
 5606W        W67269  24.510  10.821   4.760
 5607W        W67270   3.372  38.024   0.811
 5608W        W67271  27.606  39.327   1.401
 5609W        W67272  18.237  28.008   2.414
 5610W        W67273  12.248  42.521  12.430
 5611W        W67274  24.108   1.775  14.939
 5612W        W67275  43.324  20.620   4.656
 5613W        W67276  29.558  14.235   1.830
 5614W        W67277  14.811  18.684  13.956
 5615W        W67278   2.931  24.057  12.855
 5616W        W67279  30.553  23.526   2.354
 5617W        W67280  26.007  40.523  14.366
 5618W        W67281  33.920   4.324   0.730
 5619W        W67282  42.994   1.378  13.314
 5620W        W67283  32.129  37.424   4.258
 5621W        W67284  30.646  19.665   1.766
 5622W        W67285   8.849  43.330   3.207
 5623W        W67286  11.866  38.536  14.358
 5624W        W67287   5.720   2.350  13.048
 5625W        W67288  13.250  41.301  10.421
 5626W        W67289   8.252  34.085   4.727
 5627W        W67290  17.734  22.539  10.949
 5628W        W67291  18.727   0.321   3.176
 5629W        W67292  15.315  15.140   1.872
 5630W        W67293   7.321  24.973   1.869
 5631W        W67294  14.697  25.580   1.697
 5632W        W67295  31.612  27.641  11.938
 5633W        W67296  34.047  32.493  11.072
 5634W        W67297  12.188  12.160  11.040
 5635W        W67298  21.143   9.665   3.639
 5636W        W67299  25.478  32.890  14.937
 5637W        W67300   4.936  44.470   0.758
 5638W        W67301  26.645   6.346   3.734
 5639W        W67302   9.353  42.451  11.543
 5640W        W67303   4.807  10.312   2.687
 5641W        W67304  43.366  17.594   1.792
 5642W        W67305  13.672  28.153  13.416
 5643W        W67306  17.796   3.846   0.292
 5644W        W67307  17.074   5.803  12.963
 5645W        W67308  18.181  16.262  13.398
 5646W        W67309  23.065  16.223  14.020
 5647W        W67310  13.251   8.767  13.812
 5648W        W67311   7.675  27.997   2.899
 5649W        W67312  27.136  30.610  10.568
 5650W        W67313  40.504   7.885   2.704
 5651W        W67314  26.040  21.142  13.364
 5652W        W67315  38.378  34.547   4.625
 5653W        W67316  40.917  25.653  12.029
 5654W        W67317  22.579  24.637  10.518
 5655W        W67318   7.340  36.418  12.519
 5656W        W67319  15.185   9.340   4.160
 5657W        W67320  19.614   1.888  10.930
 5658W        W67321  15.666  11.864   0.394
 5659W        W67322   1.287  12.851  14.841
 5660W        W67323   8.751   8.382  11.058
 5661W        W67324   0.328  38.344  13.425
 5662W        W67325   5.847   8.192   2.361
 5663W        W67326   5.317  23.062  12.545
 5664W        W67327  17.089  34.464  14.864
 5665W        W67328  14.135  26.013   3.831
 5666W        W67329  40.315  12.639   2.664
 5667W        W67330  13.116  32.015  14.859
 5668W        W67331  23.067  34.926  13.053
 5669W        W67332  33.918   5.378  14.378
 5670W        W67333  26.556  30.415  12.558
 5671W        W67334   5.410  38.427  14.437
 5672W        W67335  10.760  15.693   3.150
 5673W        W67336  21.234  30.655   1.419
 5674W        W67337  21.676   6.413  13.950
 5675W        W67338   9.779  23.078  12.918
 5676W        W67339  26.134  25.967   2.294
 5677W        W67340  27.183  33.071  11.556
 5678W        W67341  25.203   6.689  11.860
 5679W        W67342  41.912   3.751   1.212
 5680W        W67343  23.654  23.657  14.951
 5681W        W67344  39.836  29.606  12.517
 5682W        W67345  22.177   1.805   5.794
 5683W        W67346  44.909  13.179   5.600
 5684W        W67347  28.523  40.003   1.386
 5685W        W67348  30.018  25.518   3.275
 5686W        W67349  11.225   3.944  11.093
 5687W        W67350  33.018  42.467   0.907
 5688W        W67351  38.064  32.981   1.429
 5689W        W67352  44.832  41.508  14.306
 5690W        W67353  14.592  30.584  13.878
 5691W        W67354   9.788  12.694   0.782
 5692W        W67355  30.651  40.994   4.265
 5693W        W67356   0.281  36.052   1.896
 5694W        W67357   6.694  42.031  12.470
 5695W        W67358  12.701  41.339   3.722
 5696W        W67359  44.935  43.021   4.120
 5697W        W67360  43.782  43.956   2.284
 5698W        W67361  37.366  42.901   2.812
 5699W        W67362   3.804  18.618   1.810
 5700W        W67363  19.591  20.219   0.904
 5701W        W67364  44.383  43.992   0.272
 5702W        W67365  23.200   6.829   3.748
 5703W        W67366  11.821  35.104  10.991
 5704W        W67367  16.172  30.925   2.399
 5705W        W67368  21.750  32.596   4.208
 5706W        W67369  37.071  12.348   4.699
 5707W        W67370  11.305  42.372  13.458
 5708W        W67371  15.812  27.481  10.489
 5709W        W67372  17.581  10.721  10.472
 5710W        W67373  36.936  26.697  13.963
 5711W        W67374  17.082  34.470   4.634
 5712W        W67375  43.330  13.706   1.331
 5713W        W67376  23.029  10.226   3.807
 5714W        W67377  27.013  38.398   3.309
 5715W        W67378   5.278  15.106  12.513
 5716W        W67379   4.388  19.571   1.879
 5717W        W67380  31.630  17.149  11.868
 5718W        W67381  42.302  27.533   0.355
 5719W        W67382   9.170  16.264   4.714
 5720W        W67383  18.582   4.871   9.974
 5721W        W67384  19.039  28.469   1.256
 5722W        W67385  17.730  41.939   4.179
 5723W        W67386  43.278  34.482  10.571
 5724W        W67387  21.576  31.979  10.967
 5725W        W67388  20.672  33.970   1.861
 5726W        W67389  29.057   8.797  11.511
 5727W        W67390  28.540  38.884  13.438
 5728W        W67391  33.892   5.338  12.827
 5729W        W67392  41.413  19.634   2.362
 5730W        W67393  31.977  22.107   4.125
 5731W        W67394  27.081  27.619   3.149
 5732W        W67395  37.031   4.884   3.268
 5733W        W67396   1.733  35.072  13.005
 5734W        W67397  30.089  14.332  14.826
 5735W        W67398  37.385  22.026   4.608
 5736W        W67399  18.214  32.113   0.814
 5737W        W67400   1.894  42.895  14.502
 5738W        W67401  44.811  37.062  12.881
 5739W        W67402  39.955   6.746   3.256
 5740W        W67403  31.611  25.191  13.935
 5741W        W67404  18.716  28.638  10.992
 5742W        W67405  16.308  20.669   0.954
 5743W        W67406  33.006  31.041   3.278
 5744W        W67407  43.900  18.238  12.399
 5745W        W67408  44.813  14.154   3.686
 5746W        W67409  18.228  39.396  10.905
 5747W        W67410  42.347  41.381   4.153
 5748W        W67411   6.849  26.130   3.152
 5749W        W67412   2.848  25.002  13.985
 5750W        W67413  42.301   4.944  12.364
 5751W        W67414  33.118  30.644   3.641
 5752W        W67415   2.859  17.729  11.486
 5753W        W67416  17.218   0.984   1.355
 5754W        W67417  37.007  36.070   3.860
 5755W        W67418  11.819  11.349   4.819
 5756W        W67419  22.164  35.869  13.799
 5757W        W67420   2.470  34.977   4.299
 5758W        W67421  34.402  11.746  14.357
 5759W        W67422  16.645  44.974  14.435
 5760W        W67423   3.738   3.865   3.386
 5761W        W67424  14.173  36.418   0.799
 5762W        W67425  12.265  20.690   1.284
 5763W        W67426   9.329  12.176   1.835
 5764W        W67427   8.362   5.226   4.723
 5765W        W67428  25.182  10.324   5.173
 5766W        W67429   2.344  11.222  12.072
 5767W        W67430  21.511   9.806  12.068
 5768W        W67431  30.943  26.674   1.234
 5769W        W67432  34.610  17.155   4.729
 5770W        W67433  25.086  17.801  14.844
 5771W        W67434  44.777  16.200   3.760
 5772W        W67435  11.831  11.263  14.380
 5773W        W67436  18.573  29.084   1.301
 5774W        W67437  14.186   6.694   0.270
 5775W        W67438  17.247  38.049   5.583
 5776W        W67439  12.139   8.352   1.391
 5777W        W67440   8.318  17.135   2.697
 5778W        W67441  38.977  33.919  14.027
 5779W        W67442  28.622  34.880   0.907
 5780W        W67443  35.490  19.593  10.568
 5781W        W67444  29.014  17.592   0.404
 5782W        W67445  30.598  22.215  11.042
 5783W        W67446  33.967  17.690   3.865
 5784W        W67447   4.417   2.467   2.764
 5785W        W67448  29.628   6.889  12.829
 5786W        W67449  26.663  42.860   4.345
 5787W        W67450   4.370  32.912   0.279
 5788W        W67451  31.520  22.619   1.318
 5789W        W67452  11.245  22.648   2.831
 5790W        W67453  44.505  21.027   1.278
 5791W        W67454   9.740  34.989  13.402
 5792W        W67455  12.264  10.859   3.777
 5793W        W67456   5.263  30.915  13.339
 5794W        W67457  25.167  39.813   2.349
 5795W        W67458  14.246  33.437   0.462
 5796W        W67459  15.688  28.588   1.751
 5797W        W67460  13.636  29.586  11.900
 5798W        W67461  10.312  40.900   1.306
 5799W        W67462  14.749  20.147   1.442
 5800W        W67463  37.002  26.560  14.319
 5801W        W67464   9.262   0.912   2.374
 5802W        W67465  15.737  40.990  12.873
 5803W        W67466  23.705  30.641  14.027
 5804W        W67467  22.054  20.675   2.396
 5805W        W67468  21.175  11.139  11.990
 5806W        W67469  43.481  24.131   4.140
 5807W        W67470  30.427   7.338   4.116
 5808W        W67471  15.130  13.290  11.569
 5809W        W67472  16.766   6.340   0.882
 5810W        W67473  16.737  31.908  12.932
 5811W        W67474  39.967   4.927  13.881
 5812W        W67475  19.227  44.910   2.802
 5813W        W67476  25.656  29.589   3.666
 5814W        W67477  30.011  23.076  11.413
 5815W        W67478   9.162  25.155   2.268
 5816W        W67479  31.921  13.229   1.733
 5817W        W67480  19.107  44.412   0.830
 5818W        W67481   5.700   8.274  14.432
 5819W        W67482   5.742  37.573  13.314
 5820W        W67483   2.232   2.881   2.318
 5821W        W67484  16.129  37.580   9.668
 5822W        W67485   4.767  25.067  11.027
 5823W        W67486  40.382  12.778  14.358
 5824W        W67487  19.105  33.610   1.831
 5825W        W67488  24.220  20.522  11.034
 5826W        W67489  10.158  36.857  14.782
 5827W        W67490  43.936  20.578  12.367
 5828W        W67491  28.172   8.368  14.342
 5829W        W67492  16.089   7.408   0.388
 5830W        W67493   1.304  26.134  13.984
 5831W        W67494   1.762   3.889  12.549
 5832W        W67495   8.737  35.932  11.864
 5833W        W67496  43.403  29.144  14.887
 5834W        W67497  39.540  16.083  10.531
 5835W        W67498  43.323  14.238  12.972
 5836W        W67499  37.476  15.627   2.336
 5837W        W67500  24.084  20.030   1.437
 5838W        W67501  12.331  14.141  12.502
 5839W        W67502  27.623  35.916  12.429
 5840W        W67503  16.208  12.684  12.986
 5841W        W67504  23.541   4.886  11.968
 5842W        W67505  30.454  29.004  14.758
 5843W        W67506  26.517   8.395   4.687
 5844W        W67507  36.979  23.492   2.347
 5845W        W67508   0.931   5.865  10.630
 5846W        W67509   7.821  44.440   0.815
 5847W        W67510  19.221  31.578  13.879
 5848W        W67511  27.954   4.332   1.447
 5849W        W67512  27.953  34.405  11.514
 5850W        W67513   8.712  16.263  13.424
 5851W        W67514  40.508  44.414  13.421
 5852W        W67515  38.030  38.358  14.013
 5853W        W67516  18.764  39.904   3.830
 5854W        W67517  16.696  37.948  14.379
 5855W        W67518   3.374   6.310   3.353
 5856W        W67519  26.472  21.201   3.237
 5857W        W67520   8.315  44.851   2.713
 5858W        W67521  44.484  14.160   3.183
 5859W        W67522   5.390   7.377   0.918
 5860W        W67523  14.803  40.533  12.876
 5861W        W67524  35.576  34.384   3.353
 5862W        W67525   2.770  43.479   2.779
 5863W        W67526  29.645  35.535  13.349
 5864W        W67527  34.955  22.680   0.780
 5865W        W67528   1.918   1.425  14.915
 5866W        W67529  39.016   7.714  13.337
 5867W        W67530   7.769  30.996  11.887
 5868W        W67531  20.663  12.251  12.009
 5869W        W67532  15.712  31.637  14.871
 5870W        W67533  18.205  37.340   1.244
 5871W        W67534  42.288   0.879   0.923
 5872W        W67535  31.941  40.510  14.905
 5873W        W67536  11.724  44.001   1.922
 5874W        W67537   3.445  29.000   4.326
 5875W        W67538  25.112  11.337   3.670
 5876W        W67539  41.885  39.935  12.530
 5877W        W67540  29.097  36.894   2.884
 5878W        W67541  37.959  23.724  13.442
 5879W        W67542  29.146  30.135  10.510
 5880W        W67543   0.777   8.811  14.828
 5881W        W67544  20.158  18.066  12.906
 5882W        W67545  13.264  42.379   4.774
 5883W        W67546   0.904  27.485  14.432
 5884W        W67547  33.386  10.717   0.344
 5885W        W67548  38.396  37.552  10.417
 5886W        W67549   9.254  37.921   1.928
 5887W        W67550  32.000  19.673   3.377
 5888W        W67551  19.741  23.665   3.148
 5889W        W67552  10.223  33.559  12.439
 5890W        W67553  17.563  27.566   2.326
 5891W        W67554  44.848  42.962  14.929
 5892W        W67555  38.461  22.514   4.727
 5893W        W67556  44.844   4.388  11.870
 5894W        W67557  43.779  33.551   1.726
 5895W        W67558   3.774   6.844  13.496
 5896W        W67559  42.480  20.090  12.442
 5897W        W67560  20.548  39.839  11.975
 5898W        W67561  25.548  23.234   0.898
 5899W        W67562   3.800   0.794  11.415
 5900W        W67563  23.531  23.199   5.204
 5901W        W67564  28.119   5.833   0.440
 5902W        W67565   9.231   9.807  10.905
 5903W        W67566  42.478  12.320   9.628
 5904W        W67567  40.353  27.498  12.513
 5905W        W67568   9.352   4.275   1.823
 5906W        W67569  37.884  25.608   0.405
 5907W        W67570  31.626  39.899   1.415
 5908W        W67571   6.288  24.485   1.880
 5909W        W67572  17.070  16.722   2.841
 5910W        W67573  30.537  21.729  12.846
 5911W        W67574  25.035  20.767  11.538
 5912W        W67575   7.314  14.139   0.961
 5913W        W67576  34.087  10.879  14.479
 5914W        W67577   9.736  17.119  12.416
 5915W        W67578  15.083   5.290   0.432
 5916W        W67579  34.610   5.887  12.536
 5917W        W67580  11.846  20.221  10.600
 5918W        W67581  24.066  10.658  13.837
 5919W        W67582  33.988  40.386   3.741
 5920W        W67583   3.420  37.930  13.361
 5921W        W67584  10.332  25.601   3.830
 5922W        W67585  18.666   6.275   0.739
 5923W        W67586  15.244  23.701  11.054
 5924W        W67587   2.226  33.016  14.431
 5925W        W67588   6.887  43.316   4.213
 5926W        W67589   8.879  13.198  12.528
 5927W        W67590  44.758   3.945  11.600
 5928W        W67591  27.511  16.147  13.537
 5929W        W67592   0.455  29.020  12.836
 5930W        W67593  18.113   9.271  11.941
 5931W        W67594  29.943  23.162  10.963
 5932W        W67595   1.308  44.265   2.213
 5933W        W67596   8.252  38.504  10.575
 5934W        W67597  18.648  14.775  11.064
 5935W        W67598   6.849  27.193   0.420
 5936W        W67599  41.907   5.220   1.716
 5937W        W67600   6.795  30.462  10.409
 5938W        W67601  10.304   7.185  14.278
 5939W        W67602   9.185  14.787   1.897
 5940W        W67603   4.347   0.856  12.021
 5941W        W67604  35.069  23.185  11.441
 5942W        W67605   0.474   2.879  12.881
 5943W        W67606  25.647  15.793  10.529
 5944W        W67607  27.558   3.871   1.331
 5945W        W67608  20.559  29.490  14.499
 5946W        W67609  26.102  44.934   3.690
 5947W        W67610  22.114   8.689   2.675
 5948W        W67611  32.604  18.165   0.753
 5949W        W67612  38.832  21.145   3.191
 5950W        W67613  44.434   4.714  13.460
 5951W        W67614  20.040  14.694   0.249
 5952W        W67615  29.026   4.749   1.815
 5953W        W67616  34.469  22.584  13.474
 5954W        W67617   5.241   2.469  13.451
 5955W        W67618  32.107  43.350   3.708
 5956W        W67619  31.954  17.618  14.017
 5957W        W67620  30.440  11.241  11.541
 5958W        W67621  12.720   1.436   1.798
 5959W        W67622  30.620  14.141  14.967
 5960W        W67623  26.479  33.521  12.825
 5961W        W67624  19.164  38.477   4.148
 5962W        W67625  40.820  39.919   1.289
 5963W        W67626  39.426  43.791  11.513
 5964W        W67627  21.591   9.326   2.316
 5965W        W67628   3.389  15.317   3.870
 5966W        W67629  30.090  27.458   0.940
 5967W        W67630  20.529  40.856   4.611
 5968W        W67631   0.757  23.023  14.930
 5969W        W67632  12.761  21.540   3.261
 5970W        W67633   0.893  33.484  14.779
 5971W        W67634   3.373  28.013  12.580
 5972W        W67635   4.899  14.811  13.007
 5973W        W67636  36.492  14.818   1.814
 5974W        W67637  14.695  29.425  12.539
 5975W        W67638   2.233   7.275  10.637
 5976W        W67639  35.515  29.593   3.732
 5977W        W67640  25.541  38.017   4.151
 5978W        W67641   2.876  21.237   4.654
 5979W        W67642  35.054  10.229  14.996
 5980W        W67643  11.280   9.309  14.783
 5981W        W67644  39.556   3.744   2.874
 5982W        W67645  27.489  13.745  14.481
 5983W        W67646  17.700  33.421   3.776
 5984W        W67647  31.904   3.217  10.924
 5985W        W67648  14.212   8.746   4.317
 5986W        W67649   5.778  36.916   4.654
 5987W        W67650   6.814  19.089  10.625
 5988W        W67651   6.397  32.100  10.128
 5989W        W67652  36.516  16.787  13.312
 5990W        W67653  42.289   9.223   0.439
 5991W        W67654  15.758   4.722  13.953
 5992W        W67655  27.643  21.020  12.561
 5993W        W67656  28.517  14.752  10.626
 5994W        W67657   7.282  30.055   2.272
 5995W        W67658  20.138   7.741  12.975
 5996W        W67659  24.720  32.583  10.628
 5997W        W67660  13.233  14.675   0.843
 5998W        W67661  17.802   0.808  14.504
 5999W        W67662  19.161  32.124  13.488
 6000W        W67663   2.332  30.964   0.400
 6001W        W67664  44.915  19.558   0.446
 6002W        W67665  36.403   1.895   0.788
 6003W        W67666  29.480  17.105  14.949
 6004W        W67667   0.453  31.915  10.985
 6005W        W67668   3.380  18.198  11.507
 6006W        W67669  40.981  21.205   4.814
 6007W        W67670  13.732   6.739   1.824
 6008W        W67671  36.036   2.396  13.318
 6009W        W67672  23.176  41.451  13.988
 6010W        W67673  42.925  32.448   2.854
 6011W        W67674   7.893  17.135   1.843
 6012W        W67675  22.582  10.708  13.841
 6013W        W67676   5.323  30.493   4.640
 6014W        W67677  19.658   9.393  13.924
 6015W        W67678   9.205  39.512   0.890
 6016W        W67679  18.631   1.829  13.326
 6017W        W67680  39.855   7.197  13.391
 6018W        W67681  44.908  31.430   4.770
 6019W        W67682  12.771  34.495   3.211
 6020W        W67683   1.933  19.700  12.040
 6021W        W67684   4.425  11.144   0.743
 6022W        W67685   0.787  34.897   1.244
 6023W        W67686  30.159  32.554   1.808
 6024W        W67687   1.360  26.068   1.929
 6025W        W67688  33.912  42.509  14.964
 6026W        W67689  32.122  20.661   0.283
 6027W        W67690  18.116  26.460  10.563
 6028W        W67691  25.696  14.142  11.467
 6029W        W67692  20.768  39.366   0.291
 6030W        W67693  24.648   1.907   3.298
 6031W        W67694  11.635  31.604  14.989
 6032W        W67695   2.277   2.408   2.893
 6033W        W67696  34.962  35.097  13.524
 6034W        W67697  17.609   5.237   2.339
 6035W        W67698  12.139  23.585   4.775
 6036W        W67699  31.502  23.987   4.202
 6037W        W67700  32.982  37.880  14.334
 6038W        W67701  26.583  43.324  12.379
 6039W        W67702  23.535  11.344  11.592
 6040W        W67703   2.415  36.878   3.178
 6041W        W67704  10.841  14.166  11.534
 6042W        W67705  36.404  23.721   2.208
 6043W        W67706  15.180  34.109   9.636
 6044W        W67707   7.377  20.254   1.882
 6045W        W67708  30.547  10.321  14.869
 6046W        W67709  42.521  19.650   3.683
 6047W        W67710   0.337  33.925   2.675
 6048W        W67711  22.610  31.034   0.293
 6049W        W67712  25.146   2.815   3.239
 6050W        W67713  20.768  35.885  10.615
 6051W        W67714  33.571  20.569   3.773
 6052W        W67715   0.988  32.106  13.350
 6053W        W67716  38.435   6.886  11.963
 6054W        W67717  40.309  26.470  11.419
 6055W        W67718   3.871  17.219   0.251
 6056W        W67719  41.520  24.080  11.982
 6057W        W67720  24.482  38.015  12.553
 6058W        W67721  26.004   2.899   1.700
 6059W        W67722  29.015  43.950  10.628
 6060W        W67723   5.422  14.776  12.351
 6061W        W67724   6.341   9.838  10.900
 6062W        W67725  36.484   7.870   5.095
 6063W        W67726  11.674   3.422   4.260
 6064W        W67727   5.872  37.861   3.716
 6065W        W67728   3.309  21.200  14.988
 6066W        W67729  32.892   8.709   1.359
 6067W        W67730  17.292   0.915   1.868
 6068W        W67731  29.984   8.669  12.450
 6069W        W67732  16.241  19.544  10.439
 6070W        W67733  15.779  35.508   0.293
 6071W        W67734  32.488   6.821   9.569
 6072W        W67735  12.683   6.710   1.438
 6073W        W67736   4.906  12.803  12.987
 6074W        W67737  22.132   9.170   3.675
 6075W        W67738  34.943  23.564   1.397
 6076W        W67739   4.362   0.821  12.392
 6077W        W67740   6.903  28.057  14.770
 6078W        W67741  26.180  24.046   0.852
 6079W        W67742  14.821  15.207   3.220
 6080W        W67743  26.009  15.580   4.311
 6081W        W67744  24.098  39.887  11.543
 6082W        W67745  26.037  13.775  11.884
 6083W        W67746  41.792  27.135  11.466
 6084W        W67747   8.268   8.395  10.510
 6085W        W67748  30.592  42.901   4.660
 6086W        W67749  13.658  19.602   0.845
 6087W        W67750  17.590  15.152  14.450
 6088W        W67751  44.865  36.855  10.533
 6089W        W67752  17.227   0.248   3.246
 6090W        W67753  26.671   5.418   2.404
 6091W        W67754  35.919  18.050  13.434
 6092W        W67755  36.046  35.412   0.822
 6093W        W67756  17.129  24.520   2.388
 6094W        W67757  17.783  35.078   1.365
 6095W        W67758  25.036   1.733   0.730
 6096W        W67759   0.328  30.967   3.787
 6097W        W67760  29.579   5.707  11.005
 6098W        W67761  25.015  21.606  11.503
 6099W        W67762  29.141  23.631   0.296
 6100W        W67763  39.926  41.970   3.753
 6101W        W67764  16.086  11.821  11.015
 6102W        W67765  11.624  21.034  11.893
 6103W        W67766  39.446  25.106  11.976
 6104W        W67767  40.987  17.750  14.514
 6105W        W67768  38.358  43.976  10.455
 6106W        W67769  11.824  44.902   2.297
 6107W        W67770   7.319  25.084   4.324
 6108W        W67771   3.432  15.111   3.226
 6109W        W67772  34.057  25.512   1.212
 6110W        W67773  31.046  13.137  10.594
 6111W        W67774   5.212  34.888  12.953
 6112W        W67775  33.419  27.602  14.956
 6113W        W67776  21.166   8.203   0.756
 6114W        W67777   0.412  33.597   1.421
 6115W        W67778  25.624   1.359   0.948
 6116W        W67779  38.424  35.960  11.528
 6117W        W67780  14.274  24.984  13.802
 6118W        W67781   3.862  41.805   2.866
 6119W        W67782  32.441  30.610   1.429
 6120W        W67783  44.834  15.098   2.345
 6121W        W67784  20.619  26.030   3.777
 6122W        W67785   6.272  17.305  14.841
 6123W        W67786  26.669  42.304  12.460
 6124W        W67787  23.683   8.189  14.372
 6125W        W67788  32.564  31.508   4.690
 6126W        W67789  37.998   4.814   3.207
 6127W        W67790  39.915  27.992   1.858
 6128W        W67791   3.283  26.599  10.065
 6129W        W67792  42.373   5.873  13.394
 6130W        W67793  10.712  29.624   1.375
 6131W        W67794  15.797   9.767  10.623
 6132W        W67795   4.366  22.660   4.710
 6133W        W67796  40.513  17.764  11.120
 6134W        W67797   0.409   0.823  10.634
 6135W        W67798   3.855  13.264   4.709
 6136W        W67799  36.864  40.367  11.122
 6137W        W67800   5.762  44.956   0.902
 6138W        W67801   2.235  12.341  12.979
 6139W        W67802  38.564  30.563  10.507
 6140W        W67803  32.500   6.187   3.866
 6141W        W67804  21.117  30.558  13.929
 6142W        W67805  26.984  36.081  13.442
 6143W        W67806  30.117  38.440  11.598
 6144W        W67807  40.492   7.203   3.365
 6145W        W67808  27.118  27.048  11.410
 6146W        W67809  35.451   6.261   1.391
 6147W        W67810  35.999  12.271  13.947
 6148W        W67811   8.330  32.907   1.803
 6149W        W67812  43.352  28.598   0.939
 6150W        W67813  20.209  19.203  11.028
 6151W        W67814  14.145  31.543   2.667
 6152W        W67815   9.203   0.778   3.347
 6153W        W67816  13.232  14.300  11.041
 6154W        W67817  30.457  17.660   3.384
 6155W        W67818   5.222   7.292   2.838
 6156W        W67819  40.894  40.337  14.977
 6157W        W67820  21.099   4.916  13.489
 6158W        W67821  33.111  18.652  10.128
 6159W        W67822  20.630  40.340  13.506
 6160W        W67823  34.486  41.994  14.023
 6161W        W67824  35.577  28.975  11.472
 6162W        W67825  18.604  42.327   1.366
 6163W        W67826  23.524  34.538   1.247
 6164W        W67827  35.088  34.370  11.535
 6165W        W67828  40.831  20.093   1.923
 6166W        W67829  20.616   4.881   1.265
 6167W        W67830  28.481  39.045  12.395
 6168W        W67831  39.354  30.643  12.888
 6169W        W67832  24.692   6.340   4.211
 6170W        W67833  11.261  16.183   3.825
 6171W        W67834  43.508  32.420   1.891
 6172W        W67835  38.332  19.188  11.502
 6173W        W67836  30.524  15.238   4.613
 6174W        W67837  43.907  14.260  12.536
 6175W        W67838   0.847   1.392   4.226
 6176W        W67839  26.201  44.282   1.335
 6177W        W67840   2.261   1.750  14.452
 6178W        W67841  44.387   4.208  12.380
 6179W        W67842  44.465  28.547  11.915
 6180W        W67843   2.912   2.743  13.866
 6181W        W67844  10.839  20.629   1.321
 6182W        W67845   0.420  35.883   4.792
 6183W        W67846  27.588  22.135   3.698
 6184W        W67847  42.472  32.524  12.873
 6185W        W67848  23.108  40.851  10.954
 6186W        W67849  16.653  29.174   2.820
 6187W        W67850  28.654  10.640  11.506
 6188W        W67851  11.639  17.754  13.942
 6189W        W67852  24.023  42.488  13.816
 6190W        W67853  12.762   6.410   2.680
 6191W        W67854  11.852  27.593  14.828
 6192W        W67855  22.657  22.014   4.605
 6193W        W67856  14.607  19.054   1.431
 6194W        W67857  40.519  42.990   4.263
 6195W        W67858  10.324   9.835  13.014
 6196W        W67859  31.442  34.984   1.844
 6197W        W67860  24.990   1.845  11.925
 6198W        W67861  38.073  30.602  14.280
 6199W        W67862  28.654   0.470  12.920
 6200W        W67863  30.938  21.021   9.997
 6201W        W67864  42.884   7.247  13.882
 6202W        W67865   1.863  37.981   3.859
 6203W        W67866  42.418   9.879  14.502
 6204W        W67867  11.150  25.066  10.583
 6205W        W67868  35.960  44.424   3.301
 6206W        W67869  26.633  32.124   4.208
 6207W        W67870   8.877  18.611   0.745
 6208W        W67871  12.618  13.348   1.252
 6209W        W67872  11.141  15.579   4.287
 6210W        W67873  37.900  20.095   3.820
 6211W        W67874  38.462   6.267   0.270
 6212W        W67875  19.196   7.249  12.998
 6213W        W67876  27.018   5.196  10.511
 6214W        W67877   5.325  35.361   4.749
 6215W        W67878  27.078   0.400   1.872
 6216W        W67879   9.269  40.328   1.328
 6217W        W67880   9.392  17.120  10.891
 6218W        W67881  33.017  26.592   3.238
 6219W        W67882  44.419  41.823   0.882
 6220W        W67883  10.228   5.434  11.048
 6221W        W67884  30.019   8.348  14.431
 6222W        W67885  41.955  16.726  12.021
 6223W        W67886  26.652  31.608   2.279
 6224W        W67887   5.364  16.758  10.972
 6225W        W67888  11.254  16.265   0.279
 6226W        W67889  23.525   9.170   2.878
 6227W        W67890   1.930  18.105  11.536
 6228W        W67891  35.542  12.315   4.353
 6229W        W67892  25.695  23.178   4.170
 6230W        W67893   8.798  18.714   4.224
 6231W        W67894   8.238  14.810  14.841
 6232W        W67895   3.291  15.755   2.812
 6233W        W67896   4.716  26.124  13.381
 6234W        W67897  37.856  13.828  14.781
 6235W        W67898  28.553  21.718   3.739
 6236W        W67899  18.703  24.680  12.457
 6237W        W67900  18.184  29.656   4.832
 6238W        W67901   7.176  42.315   0.335
 6239W        W67902   7.815  40.929  11.431
 6240W        W67903   5.342  32.445   1.335
 6241W        W67904  39.910  32.992   2.760
 6242W        W67905  40.329  20.132   1.718
 6243W        W67906   8.833  12.672  10.972
 6244W        W67907   7.332  20.547   3.347
 6245W        W67908  24.143  10.651   4.157
 6246W        W67909   5.301  27.980  12.871
 6247W        W67910  31.510  33.981  12.561
 6248W        W67911   6.765   9.865   2.813
 6249W        W67912  31.564  39.907   3.797
 6250W        W67913   9.668  19.268  11.526
 6251W        W67914  19.132   9.332   4.286
 6252W        W67915  19.752  29.577   4.150
 6253W        W67916  37.529  24.111   3.836
 6254W        W67917  21.755  42.462   3.717
 6255W        W67918  30.422  36.579   4.633
 6256W        W67919  35.580   3.448  11.892
 6257W        W67920   2.416  15.798  10.592
 6258W        W67921  16.188  38.377  12.007
 6259W        W67922  36.945  31.015  13.504
 6260W        W67923  13.320   1.418   3.867
 6261W        W67924  36.556   1.874   3.283
 6262W        W67925  31.586  35.869  12.849
 6263W        W67926   0.330   0.959   4.218
 6264W        W67927  30.009  15.303  10.536
 6265W        W67928  35.387  11.757  11.603
 6266W        W67929  32.410  28.628   2.391
 6267W        W67930   6.854  31.528   4.721
 6268W        W67931  13.266  28.169  14.417
 6269W        W67932  24.094  42.863  11.908
 6270W        W67933  11.302  21.058  13.898
 6271W        W67934  40.463   2.886  11.545
 6272W        W67935  28.055  37.430   3.807
 6273W        W67936   9.792  23.003  13.525
 6274W        W67937  10.640   0.313  11.117
 6275W        W67938  12.116  12.812  11.494
 6276W        W67939  39.334  13.342   1.909
 6277W        W67940  32.471   9.312  13.518
 6278W        W67941  11.653  36.564   5.226
 6279W        W67942  40.379  27.115  12.563
 6280W        W67943   7.305   5.796   3.381
 6281W        W67944  34.003   3.879   5.692
 6282W        W67945  28.665  43.873   0.483
 6283W        W67946  18.570  14.621  14.890
 6284W        W67947  15.740   1.265  14.859
 6285W        W67948  28.679  18.721  11.070
 6286W        W67949  20.227   7.711  11.052
 6287W        W67950  26.577  30.659  14.013
 6288W        W67951  31.977  23.525   3.733
 6289W        W67952   8.770  32.064   2.198
 6290W        W67953  16.088  15.656  10.017
 6291W        W67954  34.411  42.836   1.698
 6292W        W67955  39.822   1.937  10.893
 6293W        W67956  22.643  16.653  12.506
 6294W        W67957  15.792  32.994  11.420
 6295W        W67958   6.703  20.570   3.155
 6296W        W67959  30.112  30.033   2.399
 6297W        W67960  15.762  12.745   3.251
 6298W        W67961  27.638  33.905  13.441
 6299W        W67962  17.696  10.786  13.877
 6300W        W67963   3.335  19.140  11.893
 6301W        W67964  15.281  22.220  12.993
 6302W        W67965   0.764  25.124   1.782
 6303W        W67966  18.244  31.626  11.049
 6304W        W67967  26.598  31.058  14.279
 6305W        W67968  44.908   4.937   1.813
 6306W        W67969  13.691  31.991   3.712
 6307W        W67970   6.815  15.278  11.862
 6308W        W67971  24.995  18.568   1.349
 6309W        W67972  28.648  43.771   4.288
 6310W        W67973   2.233   5.847  11.605
 6311W        W67974   6.250   4.418   2.236
 6312W        W67975  39.537  14.209  14.515
 6313W        W67976  23.504   4.724   5.788
 6314W        W67977   3.372  11.768   1.745
 6315W        W67978  19.723  14.117   4.153
 6316W        W67979  13.126  26.590  10.619
 6317W        W67980  17.621  35.094  12.550
 6318W        W67981  11.739  40.346   0.391
 6319W        W67982  30.651  40.416   2.269
 6320W        W67983  41.957   4.334   2.690
 6321W        W67984  38.923  39.560  14.513
 6322W        W67985   2.951   9.335   2.886
 6323W        W67986  44.755  31.404  11.384
 6324W        W67987  31.069  20.535  12.455
 6325W        W67988  38.990  10.199  13.013
 6326W        W67989  31.407   6.770   4.247
 6327W        W67990  22.573  13.140   5.105
 6328W        W67991  35.918   9.844  14.313
 6329W        W67992  33.956   8.726  13.816
 6330W        W67993   6.425  40.994  11.422
 6331W        W67994  31.482  41.843  11.951
 6332W        W67995  43.381   2.943   2.354
 6333W        W67996  14.643  44.292  14.950
 6334W        W67997  29.083  19.120   0.829
 6335W        W67998  25.066  23.052  12.383
 6336W        W67999  39.966   1.425  11.013
 6337W        W68000  18.112  22.096  13.372
 6338W        W68001   0.343   5.220   0.827
 6339W        W68002  18.235   2.895   2.273
 6340W        W68003   3.845   3.863   2.241
 6341W        W68004  25.552  33.626   3.282
 6342W        W68005   5.267   5.852   2.802
 6343W        W68006   2.267  27.454   2.207
 6344W        W68007  11.723   3.439   4.687
 6345W        W68008  26.016  25.637  14.850
 6346W        W68009  37.388   9.735  14.289
 6347W        W68010  30.068  24.044   2.860
 6348W        W68011   6.262  35.426   2.858
 6349W        W68012   8.322  25.579   1.364
 6350W        W68013   5.754   2.394   2.253
 6351W        W68014  36.946   5.278   4.682
 6352W        W68015  23.223  19.596   0.433
 6353W        W68016  42.957  14.122   0.273
 6354W        W68017   8.681  37.468   3.348
 6355W        W68018   5.433  31.087  13.857
 6356W        W68019   0.959  31.975  11.612
 6357W        W68020  34.008   4.260   4.118
 6358W        W68021  31.074  24.693  13.925
 6359W        W68022  38.548  34.985  11.986
 6360W        W68023  27.649  36.935   0.843
 6361W        W68024  26.555  24.712  12.392
 6362W        W68025  26.057  26.575  11.563
 6363W        W68026  13.118   8.827   5.158
 6364W        W68027  24.132   1.351  10.930
 6365W        W68028  27.639  25.136  12.393
 6366W        W68029  42.861  21.251   2.339
 6367W        W68030  26.135   9.703   3.324
 6368W        W68031  27.064  43.876  11.882
 6369W        W68032  31.616  16.161  13.542
 6370W        W68033  25.125  36.350   2.699
 6371W        W68034  40.348  31.064  12.364
 6372W        W68035  16.176   3.223   3.840
 6373W        W68036  41.028  11.850  11.085
 6374W        W68037   1.330  14.238   4.615
 6375W        W68038  38.499  29.007  11.414
 6376W        W68039   1.970  28.981   1.802
 6377W        W68040  27.454  18.273  12.088
 6378W        W68041  12.348  35.576  11.447
 6379W        W68042  14.176  38.561  10.603
 6380W        W68043  34.394  33.492   2.209
 6381W        W68044  29.625   6.754  11.004
 6382W        W68045  11.797   4.377   9.955
 6383W        W68046  13.826  31.142   0.252
 6384W        W68047  15.649  14.704   2.737
 6385W        W68048  10.801  18.708  14.387
 6386W        W68049  44.418  17.703  14.818
 6387W        W68050   2.808  29.978  13.880
 6388W        W68051  31.449  35.092   3.746
 6389W        W68052   9.165  28.180   1.890
 6390W        W68053  37.367   4.743   1.747
 6391W        W68054  40.546  25.531   0.883
 6392W        W68055  42.854   8.370   2.897
 6393W        W68056  17.094  37.577  13.955
 6394W        W68057  18.258   7.379   4.731
 6395W        W68058  35.434  40.340  10.639
 6396W        W68059  11.293   7.170   1.413
 6397W        W68060   5.906  32.403  11.546
 6398W        W68061  33.042  31.015  12.350
 6399W        W68062  35.964  27.095  10.575
 6400W        W68063   7.772  34.038  14.930
 6401W        W68064  26.588  37.383  12.063
 6402W        W68065  12.819  29.461  12.941
 6403W        W68066  20.274  43.983  10.412
 6404W        W68067  34.496  32.523   3.829
 6405W        W68068  21.651  18.579   2.239
 6406W        W68069  19.702  36.469  13.820
 6407W        W68070   5.403  38.354   2.841
 6408W        W68071  31.449   0.281   2.819
 6409W        W68072  35.519   1.376   2.670
 6410W        W68073  42.419  36.984   4.637
 6411W        W68074  18.711  13.156  10.491
 6412W        W68075   5.285  35.587   4.299
 6413W        W68076  21.736   9.732   1.330
 6414W        W68077   2.833  25.164   4.312
 6415W        W68078   5.920  17.138   1.917
 6416W        W68079  44.811  10.146  14.942
 6417W        W68080  25.635  23.108   2.711
 6418W        W68081  12.133  41.797   2.734
 6419W        W68082  15.620  20.267  13.394
 6420W        W68083  37.073  30.092  14.810
 6421W        W68084   6.362  21.181   0.408
 6422W        W68085   3.722   3.842  13.994
 6423W        W68086  21.732  44.274  11.950
 6424W        W68087   3.905   3.829  11.523
 6425W        W68088   9.164  35.870   1.348
 6426W        W68089  15.585  32.892   4.222
 6427W        W68090  12.788  15.814  11.052
 6428W        W68091  28.464   0.322   0.767
 6429W        W68092  23.239  11.814  13.461
 6430W        W68093  16.179  23.128  13.937
 6431W        W68094  27.193  41.974  13.971
 6432W        W68095   8.683   4.795  14.957
 6433W        W68096  43.011  43.438  11.573
 6434W        W68097  27.066  40.948  11.109
 6435W        W68098  23.604   7.343  13.853
 6436W        W68099  12.805   7.785  11.375
 6437W        W68100  23.584   2.777   0.295
 6438W        W68101  29.043  36.384   4.176
 6439W        W68102  20.615  30.640  13.014
 6440W        W68103  27.138  22.158  12.929
 6441W        W68104  43.418  30.596   4.758
 6442W        W68105   0.424  19.677   4.158
 6443W        W68106  20.123  10.639  10.594
 6444W        W68107   4.252  16.613   2.220
 6445W        W68108  11.135   7.754   0.957
 6446W        W68109  27.087   3.713  10.554
 6447W        W68110   1.239   6.828  13.951
 6448W        W68111  17.287  41.036  12.492
 6449W        W68112  11.309  36.924   3.200
 6450W        W68113  10.237   7.910   1.260
 6451W        W68114  31.115   1.270   4.316
 6452W        W68115  15.279  15.286   3.654
 6453W        W68116   2.266  32.408  14.412
 6454W        W68117  15.157   3.295  14.987
 6455W        W68118  15.728  32.094   1.333
 6456W        W68119  25.098  12.779   4.237
 6457W        W68120  20.746  44.307   3.229
 6458W        W68121  24.102  11.687   1.438
 6459W        W68122  26.514   6.754   2.229
 6460W        W68123  21.567  29.992   4.836
 6461W        W68124  42.946  23.581  12.096
 6462W        W68125  32.458   3.420  11.401
 6463W        W68126  16.707  38.553   1.820
 6464W        W68127  34.586  38.958   3.801
 6465W        W68128   7.268  30.024   1.327
 6466W        W68129   4.247   3.782  12.060
 6467W        W68130  32.064  33.438   2.704
 6468W        W68131  40.311  22.595  11.957
 6469W        W68132   0.375   8.842   2.689
 6470W        W68133  22.735  26.140   3.257
 6471W        W68134  36.400  37.963  12.556
 6472W        W68135  20.568  11.861  11.874
 6473W        W68136  33.609  44.784   2.832
 6474W        W68137  35.084  11.291   0.826
 6475W        W68138  39.418  34.387  13.893
 6476W        W68139  16.602  29.973   2.322
 6477W        W68140  42.374   8.294  14.015
 6478W        W68141  18.119  27.630  14.346
 6479W        W68142  29.943  10.273   1.289
 6480W        W68143  20.146  12.812  13.891
 6481W        W68144  33.585  11.780  14.400
 6482W        W68145  43.924  41.305  14.288
 6483W        W68146  44.755  34.604  13.857
 6484W        W68147   2.374   2.267   4.601
 6485W        W68148  23.591  38.527  12.000
 6486W        W68149  21.173  43.505  11.465
 6487W        W68150   2.439  16.663   1.694
 6488W        W68151   9.195   2.815  13.055
 6489W        W68152   6.807  10.633   1.737
 6490W        W68153  26.097  15.747   1.256
 6491W        W68154  24.637  42.487  13.947
 6492W        W68155   6.900  38.381   3.220
 6493W        W68156  43.964  17.205   5.147
 6494W        W68157  41.951  42.946   2.379
 6495W        W68158   1.796  43.868  11.007
 6496W        W68159  41.933   3.731  11.080
 6497W        W68160  32.452  22.657   4.762
 6498W        W68161  30.065  18.748   0.734
 6499W        W68162  19.139  12.156   2.697
 6500W        W68163  26.989  18.055  14.295
 6501W        W68164  18.154  43.862  14.500
 6502W        W68165  26.032  30.919   2.378
 6503W        W68166  21.543  38.405   1.417
 6504W        W68167  10.250  27.068   1.931
 6505W        W68168  34.546  40.465  11.963
 6506W        W68169   6.199  17.711   0.740
 6507W        W68170  30.049  40.049  14.305
 6508W        W68171  31.098  21.076  13.346
 6509W        W68172  23.716  39.983  14.454
 6510W        W68173  24.992  27.653  14.861
 6511W        W68174   8.706  29.145   4.607
 6512W        W68175  28.117  23.612   4.193
 6513W        W68176  24.191  12.610   5.228
 6514W        W68177  34.594  41.342  12.460
 6515W        W68178  32.975   7.871  11.429
 6516W        W68179  43.272  36.036  13.426
 6517W        W68180  32.420  24.662   2.393
 6518W        W68181   4.333  26.610  10.604
 6519W        W68182  41.900  14.198  13.950
 6520W        W68183  37.845  41.488  14.454
 6521W        W68184  23.177  27.583   0.275
 6522W        W68185  14.622  12.620   0.829
 6523W        W68186  20.047  10.159  14.434
 6524W        W68187  14.826  17.176   3.725
 6525W        W68188  12.220  12.276  11.381
 6526W        W68189   0.475  40.361   4.351
 6527W        W68190  34.568  30.110   4.796
 6528W        W68191  31.555   8.678   3.152
 6529W        W68192  40.494  11.664   0.472
 6530W        W68193  17.095  42.479  12.344
 6531W        W68194  13.679  32.926  13.445
 6532W        W68195   8.886   9.331  10.591
 6533W        W68196  27.625   6.882   3.831
 6534W        W68197  30.444   6.756  11.454
 6535W        W68198  14.783  40.883  13.538
 6536W        W68199  19.086   2.757  11.579
 6537W        W68200  25.019  18.607  10.483
 6538W        W68201  40.373  42.010   3.231
 6539W        W68202  20.692   3.861   4.779
 6540W        W68203  24.160  44.473   4.681
 6541W        W68204  36.906  19.662   3.335
 6542W        W68205  26.017  10.821   1.317
 6543W        W68206  24.658  22.632  13.935
 6544W        W68207  23.124  43.461  12.889
 6545W        W68208   4.924  41.480  11.922
 6546W        W68209  36.485   1.289  14.916
 6547W        W68210  15.788  13.730   4.283
 6548W        W68211   3.433  14.312  12.394
 6549W        W68212  25.217   9.656  14.445
 6550W        W68213  13.658  22.736  14.444
 6551W        W68214  44.956   5.916   2.704
 6552W        W68215  30.560  16.173  12.556
 6553W        W68216  23.490  22.638   5.146
 6554W        W68217  37.075  32.454   2.225
 6555W        W68218  23.609  28.181  14.399
 6556W        W68219   4.318   0.953   3.642
 6557W        W68220  28.462   9.869  14.922
 6558W        W68221   7.864  12.272  12.575
 6559W        W68222  19.211   7.339  11.410
 6560W        W68223  13.728   4.759   0.418
 6561W        W68224   8.762  36.854   4.622
 6562W        W68225  34.031  28.127   0.315
 6563W        W68226   3.392  17.566  11.559
 6564W        W68227  20.238  37.076   0.823
 6565W        W68228  32.005  23.593   0.845
 6566W        W68229  36.900  25.528  13.318
 6567W        W68230   5.872  37.846   4.697
 6568W        W68231  36.902   8.200  13.031
 6569W        W68232  27.459  14.149   4.816
 6570W        W68233  12.240  12.156   2.815
 6571W        W68234  37.032   6.263  10.501
 6572W        W68235   3.745  33.538  14.466
 6573W        W68236  41.509  26.462   1.393
 6574W        W68237  29.151  40.404   5.267
 6575W        W68238  13.686  29.126  11.001
 6576W        W68239   6.275   4.835   9.923
 6577W        W68240  33.414   4.910  14.821
 6578W        W68241  21.075  15.139   1.279
 6579W        W68242  37.564  27.684  11.465
 6580W        W68243  24.647  36.077  14.847
 6581W        W68244   6.823  41.015   3.371
 6582W        W68245   5.257  32.064   9.947
 6583W        W68246  18.117   3.779   1.839
 6584W        W68247  29.979  27.507   4.648
 6585W        W68248   9.186  18.090  14.016
 6586W        W68249  13.821  25.048  11.046
 6587W        W68250  35.069  10.200   4.282
 6588W        W68251  16.635  18.142  12.384
 6589W        W68252  36.932   3.286   4.130
 6590W        W68253   8.285  19.108   0.342
 6591W        W68254  14.771  22.563   3.352
 6592W        W68255  14.614  31.435  13.405
 6593W        W68256  12.738  32.630  11.073
 6594W        W68257   0.967   9.349  10.004
 6595W        W68258  37.559  29.953   1.775
 6596W        W68259  37.502   5.927  10.542
 6597W        W68260  33.550   1.770   2.196
 6598W        W68261  18.718  30.063  10.588
 6599W        W68262  19.562  36.080   3.166
 6600W        W68263  35.000  33.495   4.269
 6601W        W68264  22.180   9.264   0.260
 6602W        W68265  32.996  41.496   1.926
 6603W        W68266  42.781   7.205   1.917
 6604W        W68267  31.538  44.291  13.369
 6605W        W68268  25.526  12.308   4.700
 6606W        W68269  21.235   9.161  13.818
 6607W        W68270  21.151  35.105  11.594
 6608W        W68271  14.600  30.994   0.928
 6609W        W68272  20.165  35.391   1.298
 6610W        W68273  40.929  44.381   4.204
 6611W        W68274  28.442   2.264   0.780
 6612W        W68275  40.843   8.722   0.807
 6613W        W68276  36.576  21.255  10.026
 6614W        W68277  27.545   7.713   2.716
 6615W        W68278   9.272  39.851   4.599
 6616W        W68279  29.120  34.480   3.718
 6617W        W68280  34.863  11.132   1.789
 6618W        W68281  12.211  11.299  12.836
 6619W        W68282  24.153  23.637   5.300
 6620W        W68283  41.472   4.738   2.235
 6621W        W68284  28.602  44.006   1.831
 6622W        W68285  33.984  13.262  12.385
 6623W        W68286   4.338  21.020  14.324
 6624W        W68287  42.365  44.320  10.522
 6625W        W68288  29.583   2.333  11.379
 6626W        W68289   7.717  28.090   3.661
 6627W        W68290   4.225  35.104  10.564
 6628W        W68291   4.877  42.854   1.707
 6629W        W68292  17.196   3.445   9.979
 6630W        W68293  17.074  43.323   0.345
 6631W        W68294   4.745   7.696  10.500
 6632W        W68295  33.946  41.865  12.031
 6633W        W68296  42.294  44.281  13.858
 6634W        W68297   5.911  13.603   2.213
 6635W        W68298  16.189  29.098  13.040
 6636W        W68299   6.873  31.931   1.869
 6637W        W68300  10.735   7.800   3.166
 6638W        W68301  44.406  33.442   5.203
 6639W        W68302  44.880  30.551  12.372
 6640W        W68303  24.111  39.034   1.925
 6641W        W68304  20.672   1.925  13.463
 6642W        W68305  17.684   0.295   4.624
 6643W        W68306   8.740  12.273  14.439
 6644W        W68307   1.917  27.017  11.395
 6645W        W68308  41.296  26.114  12.888
 6646W        W68309  24.228  21.564   1.703
 6647W        W68310  27.446  12.708   4.181
 6648W        W68311  38.849  34.880   2.903
 6649W        W68312  17.565  17.174  12.470
 6650W        W68313  36.555  32.049  14.364
 6651W        W68314  22.151  32.491   0.451
 6652W        W68315  41.329   1.837  13.339
 6653W        W68316   8.312  31.598   0.770
 6654W        W68317  43.802  17.777   4.146
 6655W        W68318  14.788  43.292  13.929
 6656W        W68319  10.855  11.131  13.791
 6657W        W68320  10.335   9.367   2.282
 6658W        W68321  37.485  16.768  12.506
 6659W        W68322   1.273  44.863  11.019
 6660W        W68323  32.969  17.572   2.875
 6661W        W68324  35.407  15.272  14.001
 6662W        W68325  29.464  30.451   1.331
 6663W        W68326  25.556   3.431  10.010
 6664W        W68327  21.589   9.890  11.489
 6665W        W68328   4.809  22.157  12.431
 6666W        W68329  39.535  11.733  11.007
 6667W        W68330  29.638  21.637  12.087
 6668W        W68331  28.036  22.692   4.823
 6669W        W68332   1.330  13.290  12.576
 6670W        W68333  32.429  10.169  14.428
 6671W        W68334  23.678  31.089   0.310
 6672W        W68335  20.039  22.996  13.443
 6673W        W68336  37.011   9.337   0.894
 6674W        W68337  42.852  19.113  11.856
 6675W        W68338  40.936  22.086  12.453
 6676W        W68339  16.282  35.961  11.010
 6677W        W68340   4.446   9.179  11.116
 6678W        W68341  14.183  10.733   2.354
 6679W        W68342   3.825  36.592  11.934
 6680W        W68343  22.243  13.328  13.062
 6681W        W68344  20.580  29.035   3.271
 6682W        W68345   0.952   7.861  13.490
 6683W        W68346   2.838  24.645  11.964
 6684W        W68347  16.242  33.960   4.134
 6685W        W68348   0.249   3.282   1.870
 6686W        W68349   0.926  37.845  12.918
 6687W        W68350   3.889  25.220   3.734
 6688W        W68351  16.278  42.026   1.738
 6689W        W68352  34.508  28.554  10.935
 6690W        W68353  12.139   5.862  14.965
 6691W        W68354  36.979  19.703  12.861
 6692W        W68355  22.687  26.092  13.407
 6693W        W68356   2.457  23.040   3.720
 6694W        W68357  10.756  28.121  14.860
 6695W        W68358   2.942  26.029  13.990
 6696W        W68359  28.436  16.092  13.483
 6697W        W68360  12.741  36.072   2.866
 6698W        W68361  36.022  32.553  13.035
 6699W        W68362  14.274  17.680  14.991
 6700W        W68363  17.131  32.094  14.876
 6701W        W68364  32.060  12.759  13.385
 6702W        W68365  10.212   9.265  13.510
 6703W        W68366  38.380  27.096  11.394
 6704W        W68367   9.218  10.321   0.876
 6705W        W68368  17.224   2.769   9.959
 6706W        W68369  20.523  23.089   3.339
 6707W        W68370  39.904  17.697   2.218
 6708W        W68371  16.807  23.074   2.265
 6709W        W68372  11.156   7.749  10.937
 6710W        W68373   3.886  44.305   4.302
 6711W        W68374  29.592   0.429  13.918
 6712W        W68375   0.273   6.846   1.768
 6713W        W68376  42.490   6.223   5.656
 6714W        W68377   7.793  33.462   3.230
 6715W        W68378  39.495  37.980   2.236
 6716W        W68379  21.131   9.719   0.784
 6717W        W68380  26.673  39.808  12.974
 6718W        W68381   9.315  28.048  12.898
 6719W        W68382  38.419  24.610  13.990
 6720W        W68383   8.223  41.327  13.816
 6721W        W68384  14.624  23.000  14.913
 6722W        W68385  13.668   1.297   0.928
 6723W        W68386  40.345  12.627  11.383
 6724W        W68387  20.756  26.137   4.731
 6725W        W68388  22.587  19.281  10.480
 6726W        W68389  30.088  44.010  14.422
 6727W        W68390   6.235  43.311   0.813
 6728W        W68391  19.596   2.823   5.195
 6729W        W68392  35.031   8.281   5.709
 6730W        W68393  12.755   8.333  13.011
 6731W        W68394  31.489  19.200  12.498
 6732W        W68395  37.852  42.935  11.032
 6733W        W68396  21.230  21.122   4.258
 6734W        W68397  17.255  20.137   2.791
 6735W        W68398   6.379  37.845  13.885
 6736W        W68399  39.819  33.454   2.335
 6737W        W68400  10.158   8.225   0.282
 6738W        W68401  19.620  29.996   3.185
 6739W        W68402  24.669  42.012  12.902
 6740W        W68403   9.232   7.839   0.770
 6741W        W68404  16.260  18.091  14.802
 6742W        W68405  14.166  28.613  14.480
 6743W        W68406  40.378  23.668  14.942
 6744W        W68407  19.565  31.034   1.888
 6745W        W68408   5.687  18.060   3.850
 6746W        W68409  36.850  27.535   4.602
 6747W        W68410  17.688  20.079   2.753
 6748W        W68411  29.549  17.797   0.318
 6749W        W68412  19.137  22.674   2.363
 6750W        W68413  19.136  21.111  12.572
 6751W        W68414  20.132  23.730  13.977
 6752W        W68415  33.432   5.863  13.863
 6753W        W68416  27.051   0.988  12.044
 6754W        W68417   7.322  35.479  12.948
 6755W        W68418  24.492  20.681  14.487
 6756W        W68419   2.887   7.202  13.499
 6757W        W68420  41.471  35.591  11.582
 6758W        W68421   6.752  11.682   1.266
 6759W        W68422  21.226  38.988  11.114
 6760W        W68423  22.605  44.918  12.451
 6761W        W68424   3.850  40.492  11.978
 6762W        W68425  19.260  32.932   0.284
 6763W        W68426  33.514  43.859   0.962
 6764W        W68427  28.944  16.251   3.756
 6765W        W68428  43.484  40.916   0.339
 6766W        W68429  34.608  22.652   3.733
 6767W        W68430  31.412  12.344   0.467
 6768W        W68431  24.651   0.988  10.483
 6769W        W68432   0.834   6.890  14.435
 6770W        W68433  11.214  39.356  12.884
 6771W        W68434  35.569  11.738   3.756
 6772W        W68435  43.819  19.593  11.393
 6773W        W68436  17.680  41.947  13.064
 6774W        W68437  21.255  26.593   4.259
 6775W        W68438  40.851   3.433  12.474
 6776W        W68439  25.117   0.341   2.779
 6777W        W68440  14.187  11.215  13.389
 6778W        W68441   2.947  15.167   2.777
 6779W        W68442   2.885   8.691  13.973
 6780W        W68443  17.588  17.138  14.926
 6781W        W68444   6.383  42.812  13.357
 6782W        W68445  10.153  20.197   1.406
 6783W        W68446  39.402   3.905  13.443
 6784W        W68447  29.948   2.354  10.631
 6785W        W68448  13.668  24.611  13.052
 6786W        W68449  43.345   6.321   9.597
 6787W        W68450   9.354  27.458  12.994
 6788W        W68451  38.908   8.715  10.149
 6789W        W68452  15.151  40.034   2.845
 6790W        W68453   2.435  11.275  14.316
 6791W        W68454  20.705   4.235   4.704
 6792W        W68455  27.454  21.645   0.884
 6793W        W68456  17.752  38.905   0.802
 6794W        W68457  44.468  16.182   4.246
 6795W        W68458  15.271  14.174   0.820
 6796W        W68459   0.825  23.017   4.712
 6797W        W68460  21.625   1.333  11.931
 6798W        W68461   1.264   7.731  14.995
 6799W        W68462  10.833  44.962  10.645
 6800W        W68463   9.355  26.161  14.884
 6801W        W68464   0.795  29.106  11.950
 6802W        W68465  39.557  36.389  10.585
 6803W        W68466  26.626  22.024  10.643
 6804W        W68467  10.747  17.182  10.635
 6805W        W68468   4.739   4.417  12.891
 6806W        W68469  11.656  40.805   3.345
 6807W        W68470  44.439  42.941  13.796
 6808W        W68471   4.883  21.222   0.472
 6809W        W68472  13.195  38.902  12.964
 6810W        W68473  12.634  20.222   1.262
 6811W        W68474   1.444   1.952  10.417
 6812W        W68475  23.011   6.800   1.933
 6813W        W68476  26.989  42.874   0.293
 6814W        W68477  32.029   9.319   4.728
 6815W        W68478  13.319  42.899   3.292
 6816W        W68479  43.843  42.523   3.791
 6817W        W68480  36.893  34.467  10.561
 6818W        W68481   6.335  30.101   3.257
 6819W        W68482  14.801  16.588   4.666
 6820W        W68483  15.637  42.001   0.431
 6821W        W68484  19.073  32.135  14.449
 6822W        W68485  25.490  31.406  11.542
 6823W        W68486   0.755   7.881   1.923
 6824W        W68487  28.523  39.943   2.667
 6825W        W68488  18.153  13.344  12.476
 6826W        W68489  18.661  14.834   1.868
 6827W        W68490  33.588  11.297  12.346
 6828W        W68491   0.874   2.436   4.319
 6829W        W68492  25.654   2.853   3.802
 6830W        W68493  19.131  14.658   3.835
 6831W        W68494  12.212  13.764   0.885
 6832W        W68495  33.958  24.480  11.923
 6833W        W68496   2.838  21.079   4.224
 6834W        W68497  10.374   3.717  14.444
 6835W        W68498  28.170  43.375   3.173
 6836W        W68499  19.607  22.180  13.524
 6837W        W68500  29.035  34.011  12.096
 6838W        W68501  16.083  33.003  12.399
 6839W        W68502  43.889   8.193  12.385
 6840W        W68503  36.084  28.963   4.153
 6841W        W68504  12.620   2.255  10.487
 6842W        W68505  13.314  29.961  14.833
 6843W        W68506  24.087  26.595   2.243
 6844W        W68507  37.478  23.609   4.784
 6845W        W68508  12.804  19.238  12.568
 6846W        W68509  27.187  32.596   3.329
 6847W        W68510  39.921   0.981   4.241
 6848W        W68511  22.157  14.783  11.043
 6849W        W68512  16.645   3.868  13.942
 6850W        W68513  30.006  37.985  14.835
 6851W        W68514  27.953   0.268   0.261
 6852W        W68515   6.230  26.963   0.760
 6853W        W68516  37.480  33.001  13.905
 6854W        W68517  18.757  27.640  11.120
 6855W        W68518  26.997  12.634   0.471
 6856W        W68519   1.430   4.723   3.846
 6857W        W68520  17.210  29.997  14.402
 6858W        W68521  39.857  11.218  10.516
 6859W        W68522  28.091  42.389   3.270
 6860W        W68523  26.996  33.529  13.922
 6861W        W68524  43.003  26.645  11.122
 6862W        W68525  16.611  44.386  11.579
 6863W        W68526  34.056  39.028   4.795
 6864W        W68527  27.144   0.422  13.834
 6865W        W68528  42.290   6.865   5.575
 6866W        W68529  38.995  22.563  12.886
 6867W        W68530  14.765  24.184  11.122
 6868W        W68531  24.976  40.427   1.744
 6869W        W68532   2.334  39.318   0.927
 6870W        W68533  28.510  36.457   3.783
 6871W        W68534  36.880  31.014  13.819
 6872W        W68535   0.813   3.865  13.385
 6873W        W68536  33.600  29.471  14.967
 6874W        W68537   2.898  15.311  13.992
 6875W        W68538   2.731  42.527   3.852
 6876W        W68539  23.167  37.419   2.244
 6877W        W68540  11.862  38.409   4.114
 6878W        W68541  30.099   3.237  12.888
 6879W        W68542   9.224  41.390   2.698
 6880W        W68543  34.417  34.053  13.795
 6881W        W68544  20.184  40.021   0.414
 6882W        W68545  42.342  38.030  11.600
 6883W        W68546  39.864  28.564   1.771
 6884W        W68547   1.961  23.038   2.722
 6885W        W68548   2.874  18.645  10.524
 6886W        W68549  12.327   9.155   2.734
 6887W        W68550  37.930  31.510  10.935
 6888W        W68551  21.745  38.919  11.467
 6889W        W68552   9.855  41.991  14.373
 6890W        W68553  33.458  20.149   0.420
 6891W        W68554   2.953  23.205  14.310
 6892W        W68555   9.764  33.049  14.442
 6893W        W68556  10.218   7.799  12.018
 6894W        W68557   7.353  12.729  13.331
 6895W        W68558  14.651  42.892  12.462
 6896W        W68559  19.691  36.986  10.451
 6897W        W68560  10.633  12.129   0.880
 6898W        W68561  40.841   7.183   1.922
 6899W        W68562  10.732  40.402  13.883
 6900W        W68563  31.580  29.968  10.965
 6901W        W68564  30.031   6.900  12.401
 6902W        W68565  28.480  23.188   0.417
 6903W        W68566  44.378  22.048   0.849
 6904W        W68567  11.196   9.688   1.731
 6905W        W68568  35.863  17.651  13.867
 6906W        W68569  13.221  31.573  14.874
 6907W        W68570  32.601  25.110   1.231
 6908W        W68571  20.048  29.492   1.449
 6909W        W68572  25.647  41.985  11.387
 6910W        W68573  41.849   1.922  10.442
 6911W        W68574  17.166  40.004  12.972
 6912W        W68575   1.308  18.777  10.986
 6913W        W68576  16.626  13.764  10.963
 6914W        W68577   2.844  31.005  10.417
 6915W        W68578  18.698  32.394   4.693
 6916W        W68579  11.722   9.296   0.946
 6917W        W68580  23.498   5.721   3.376
 6918W        W68581  26.639  43.899  12.049
 6919W        W68582   9.694  36.040   1.769
 6920W        W68583   0.831  33.570   3.765
 6921W        W68584  34.543  21.632  12.491
 6922W        W68585  25.528  14.263   3.763
 6923W        W68586  30.104  29.659   4.158
 6924W        W68587   7.172  15.085   1.835
 6925W        W68588   5.852  27.605   4.300
 6926W        W68589  31.586  29.953  12.452
 6927W        W68590  16.584  41.944   2.776
 6928W        W68591  39.382  35.927  12.847
 6929W        W68592  28.943  29.466   1.362
 6930W        W68593  12.693  14.750  10.942
 6931W        W68594  29.125  31.561   2.381
 6932W        W68595   4.701  10.172  13.055
 6933W        W68596   1.276  31.941   5.298
 6934W        W68597  26.702   1.807  14.927
 6935W        W68598  19.210  35.982   2.346
 6936W        W68599  44.356  39.427  11.017
 6937W        W68600  11.168   5.194  11.501
 6938W        W68601   3.880  27.197  12.499
 6939W        W68602   5.873  10.646   2.277
 6940W        W68603  15.125  39.048   4.741
 6941W        W68604   3.857  22.508   2.306
 6942W        W68605  16.609  17.605   3.312
 6943W        W68606  44.985  15.753  14.398
 6944W        W68607  11.790  43.515   0.943
 6945W        W68608  28.182  35.890  13.020
 6946W        W68609  20.706   7.783  14.414
 6947W        W68610  18.175   9.834   4.735
 6948W        W68611   5.297  36.514  11.564
 6949W        W68612   0.275  31.545   0.438
 6950W        W68613  12.144   7.685   2.827
 6951W        W68614  37.050  27.183   3.812
 6952W        W68615  16.272  21.084   3.283
 6953W        W68616  27.031  20.563   3.706
 6954W        W68617   8.683  11.166   3.298
 6955W        W68618  17.747  19.765  12.984
 6956W        W68619  27.115   8.171   3.228
 6957W        W68620  16.761   9.174   0.250
 6958W        W68621   9.796  14.118  13.441
 6959W        W68622  26.154  15.091  12.046
 6960W        W68623  20.554  37.412   3.824
 6961W        W68624  39.509  31.920   0.481
 6962W        W68625  36.525  43.284  14.357
 6963W        W68626   9.305  33.594  14.339
 6964W        W68627  44.403  44.914   4.748
 6965W        W68628  34.113  11.636  10.011
 6966W        W68629  25.084   7.906   0.353
 6967W        W68630  26.591  42.481  10.585
 6968W        W68631   8.182  36.534   3.781
 6969W        W68632  18.131   1.344  14.484
 6970W        W68633  32.412   5.930  11.126
 6971W        W68634  26.034  37.556  14.980
 6972W        W68635  36.493  16.174  14.348
 6973W        W68636   7.787  11.304  14.388
 6974W        W68637  33.895  31.093  11.559
 6975W        W68638  42.906  24.537   3.168
 6976W        W68639  31.985  29.478  12.834
 6977W        W68640  15.796  10.852   3.661
 6978W        W68641  23.599  44.844  12.951
 6979W        W68642   9.816  29.670  10.628
 6980W        W68643  14.640  22.209   3.781
 6981W        W68644   2.828   1.927  12.028
 6982W        W68645   6.755  18.106  11.606
 6983W        W68646  35.039  38.558   1.396
 6984W        W68647  25.616  37.045   1.210
 6985W        W68648   3.259  17.646   4.682
 6986W        W68649  13.232  33.059  10.619
 6987W        W68650  30.915  38.523   4.620
 6988W        W68651  14.242   7.894   0.257
 6989W        W68652  21.569  36.932   3.187
 6990W        W68653  30.645  22.127  14.336
 6991W        W68654  31.416  34.978  12.026
 6992W        W68655  11.323  14.831  12.446
 6993W        W68656  37.905  44.821  13.321
 6994W        W68657  30.473  37.932   1.792
 6995W        W68658   5.256  15.591   1.381
 6996W        W68659   3.818  17.730  14.030
 6997W        W68660   3.940  15.109  13.417
 6998W        W68661  16.133  17.276  11.859
 6999W        W68662  32.988  33.575   1.786
 7000W        W68663  18.171  17.091   3.729
 7001W        W68664   2.891  35.587  12.908
 7002W        W68665   9.784  41.383  11.068
 7003W        W68666  40.505   4.335  12.924
 7004W        W68667  32.544  34.028  12.400
 7005W        W68668  17.591  24.008  11.969
 7006W        W68669   1.858  12.814  10.468
 7007W        W68670  25.691  43.427  14.818
 7008W        W68671   4.820   5.789  10.582
 7009W        W68672   5.331  24.068  13.014
 7010W        W68673   8.299   5.818  10.928
 7011W        W68674  31.594  19.559   0.862
 7012W        W68675  25.546  33.950  11.885
 7013W        W68676  33.508   0.865   3.688
 7014W        W68677  11.218  22.649   0.780
 7015W        W68678  32.059  36.052  11.920
 7016W        W68679  41.893  42.339  14.811
 7017W        W68680  23.574  28.627  10.413
 7018W        W68681   2.756  24.609  12.875
 7019W        W68682  20.613  31.068  14.515
 7020W        W68683  18.586   9.355   1.861
 7021W        W68684  14.731   4.354   0.466
 7022W        W68685   8.820  34.003  13.804
 7023W        W68686  39.391  31.900   2.270
 7024W        W68687   2.406  17.241   0.446
 7025W        W68688  42.394  18.154   4.717
 7026W        W68689  23.168  17.767  12.089
 7027W        W68690  32.972  11.300  12.557
 7028W        W68691   2.913  11.165   3.283
 7029W        W68692  32.113  34.556  12.060
 7030W        W68693  40.462   8.692  13.407
 7031W        W68694   7.778  13.164  14.442
 7032W        W68695  25.636   0.962   0.477
 7033W        W68696  34.573  24.116   1.323
 7034W        W68697  43.955  12.694  11.474
 7035W        W68698  25.704  17.073  13.795
 7036W        W68699  24.588  41.951   1.847
 7037W        W68700  44.010   0.927   3.867
 7038W        W68701  43.457  13.610   3.164
 7039W        W68702  32.453  23.032   9.472
 7040W        W68703   8.271  37.880  11.401
 7041W        W68704  14.332  34.598  14.418
 7042W        W68705   4.250  14.202   0.444
 7043W        W68706  34.980  43.774  12.522
 7044W        W68707  12.734  21.643   4.759
 7045W        W68708  21.202  18.566  13.872
 7046W        W68709   3.362   5.899   2.672
 7047W        W68710  20.231  40.328  11.976
 7048W        W68711  29.002  22.184  11.062
 7049W        W68712   7.276  30.605   2.818
 7050W        W68713   4.418  22.631  12.969
 7051W        W68714  39.856  42.978  11.935
 7052W        W68715  12.355  14.232   3.743
 7053W        W68716  33.984  42.964  13.980
 7054W        W68717  18.055  17.663   2.289
 7055W        W68718   4.822  44.441  12.024
 7056W        W68719  17.255  42.930   9.938
 7057W        W68720  16.283   0.446  11.937
 7058W        W68721   4.886   5.354  13.427
 7059W        W68722  28.163  31.648  12.081
 7060W        W68723  33.584  36.413  13.504
 7061W        W68724  27.114  23.549   2.183
 7062W        W68725  15.089  38.335   4.733
 7063W        W68726  17.628   2.363  12.019
 7064W        W68727  36.506  19.153   0.305
 7065W        W68728   2.405  16.272  13.356
 7066W        W68729   0.443  11.864   3.644
 7067W        W68730  10.649   1.350   2.752
 7068W        W68731   5.236  20.261   2.312
 7069W        W68732  41.419  20.601   2.836
 7070W        W68733  35.990  19.280   0.869
 7071W        W68734  43.012  33.104   2.249
 7072W        W68735  17.288  17.617   1.907
 7073W        W68736  27.520  43.925  11.590
 7074W        W68737  29.055   9.864   3.354
 7075W        W68738  29.581   7.893   5.291
 7076W        W68739   7.219   7.821  11.997
 7077W        W68740  18.545  16.242   2.300
 7078W        W68741  18.640  12.134   1.384
 7079W        W68742  14.235  19.620  11.411
 7080W        W68743  33.124  28.064  14.994
 7081W        W68744  39.989  23.640  11.078
 7082W        W68745  18.137  31.511   1.210
 7083W        W68746  35.569  27.669  10.456
 7084W        W68747  32.052  37.992  11.540
 7085W        W68748  11.777  15.162  11.509
 7086W        W68749  40.052  28.633  13.901
 7087W        W68750   3.270   1.368  10.896
 7088W        W68751  21.161  11.751  10.554
 7089W        W68752  42.976  44.433  14.430
 7090W        W68753  43.878   6.275  12.918
 7091W        W68754  31.007  15.118   1.900
 7092W        W68755  19.756   0.851   1.697
 7093W        W68756  25.513  25.473  12.975
 7094W        W68757  14.194   3.867  11.474
 7095W        W68758  40.368   7.825  12.368
 7096W        W68759  15.323  11.289   3.774
 7097W        W68760  18.576  40.853  11.943
 7098W        W68761  25.632   9.882  12.085
 7099W        W68762  37.906  22.678   0.388
 7100W        W68763  42.790  42.365  11.875
 7101W        W68764   4.940  12.756   2.886
 7102W        W68765  20.106  20.227   1.349
 7103W        W68766  41.833  35.942  13.956
 7104W        W68767  38.556  43.970  14.884
 7105W        W68768  35.427   5.852   2.664
 7106W        W68769  43.927   1.460  10.980
 7107W        W68770   2.450  11.686  13.458
 7108W        W68771   3.910  20.667   0.904
 7109W        W68772  37.033   1.872  14.916
 7110W        W68773  21.029  34.406   0.811
 7111W        W68774  39.471   5.237   4.214
 7112W        W68775  24.631   3.931  14.916
 7113W        W68776  19.537  14.761  11.527
 7114W        W68777  23.535  13.736  14.018
 7115W        W68778  26.580  39.327   1.893
 7116W        W68779  44.807   8.730  13.792
 7117W        W68780  16.273  17.292  13.340
 7118W        W68781  13.805   4.874  12.378
 7119W        W68782  37.857  42.428   1.244
 7120W        W68783  32.141  34.558   3.863
 7121W        W68784  35.504  42.299  10.437
 7122W        W68785  15.776  19.729   3.232
 7123W        W68786  36.995  40.017  12.889
 7124W        W68787  16.765  24.523   2.214
 7125W        W68788  34.963  25.148  14.825
 7126W        W68789  26.601  33.601  12.484
 7127W        W68790  34.439   2.839  12.550
 7128W        W68791  17.302  19.662   1.326
 7129W        W68792  25.063  44.404  13.438
 7130W        W68793  42.340  43.994  12.919
 7131W        W68794   7.302  22.139   1.251
 7132W        W68795  15.184  15.111   4.210
 7133W        W68796  41.039  10.645  12.866
 7134W        W68797   2.917  11.757  11.399
 7135W        W68798  12.648  31.461   3.377
 7136W        W68799  32.980  38.543  14.300
 7137W        W68800  13.724  14.272  10.488
 7138W        W68801  41.497  33.906  12.084
 7139W        W68802  31.509  12.798   3.323
 7140W        W68803  38.065  19.615   5.312
 7141W        W68804  38.961   7.685   1.912
 7142W        W68805  16.732  18.176  14.505
 7143W        W68806  10.835  16.762   0.942
 7144W        W68807   2.722   5.361  13.334
 7145W        W68808  36.099  29.019   1.849
 7146W        W68809  42.798  10.311  10.918
 7147W        W68810  16.248  15.242   0.476
 7148W        W68811  27.115  38.845   0.905
 7149W        W68812  13.175  44.305   2.733
 7150W        W68813   8.268   0.986  13.409
 7151W        W68814  25.085  13.275   3.729
 7152W        W68815   2.791  35.430  10.608
 7153W        W68816   2.383   5.307   4.798
 7154W        W68817  14.724  15.102   2.732
 7155W        W68818  28.958   2.265   0.952
 7156W        W68819  13.318  23.558   3.342
 7157W        W68820  42.995  16.291   2.769
 7158W        W68821   7.813  33.097   3.648
 7159W        W68822   6.862  29.630   0.781
 7160W        W68823   9.843  21.616  14.911
 7161W        W68824  12.166   8.364   0.342
 7162W        W68825  19.697  32.636  13.461
 7163W        W68826  11.253   4.403  11.935
 7164W        W68827  26.040   6.327  10.990
 7165W        W68828  31.558   5.228   0.375
 7166W        W68829  11.325   0.815   1.798
 7167W        W68830   0.763  38.974   0.396
 7168W        W68831  14.258  44.414  10.482
 7169W        W68832  14.242  43.811  13.356
 7170W        W68833  30.910   7.892  12.876
 7171W        W68834  22.205  35.525  11.428
 7172W        W68835  17.061   3.722   4.117
 7173W        W68836  25.612  37.910  14.018
 7174W        W68837   7.831  25.179   1.872
 7175W        W68838   1.343  22.060  14.488
 7176W        W68839  43.951   5.242   4.613
 7177W        W68840  24.495  12.342   2.184
 7178W        W68841  15.282   6.298  10.480
 7179W        W68842  14.263  21.747   1.298
 7180W        W68843  20.585  23.695   0.742
 7181W        W68844  34.481   0.410  11.980
 7182W        W68845  11.837  38.490   4.813
 7183W        W68846  19.118  40.450  14.917
 7184W        W68847  10.257  10.209  11.949
 7185W        W68848  20.685  41.491   4.753
 7186W        W68849  22.517  16.794   0.309
 7187W        W68850  14.641  30.953   3.651
 7188W        W68851  23.145  17.128   1.791
 7189W        W68852  13.231  35.560  12.456
 7190W        W68853   7.283  37.034   3.855
 7191W        W68854   6.715  42.326  13.868
 7192W        W68855  25.626  26.542   3.655
 7193W        W68856  31.995  38.002  13.458
 7194W        W68857  38.546  15.203   0.826
 7195W        W68858  17.280   6.913   4.810
 7196W        W68859  28.492  30.074   1.390
 7197W        W68860   5.717  20.057  14.806
 7198W        W68861  18.742  27.595  12.073
 7199W        W68862   9.360  40.484   2.227
 7200W        W68863  44.298  25.177  13.338
 7201W        W68864  23.004  33.389   1.928
 7202W        W68865  10.338  33.058  11.886
 7203W        W68866  42.970   5.852   3.195
 7204W        W68867   2.464  44.890  11.973
 7205W        W68868  17.106  44.275   1.406
 7206W        W68869  44.810  25.117  10.575
 7207W        W68870   4.829   2.861  14.458
 7208W        W68871   8.671  13.256  12.021
 7209W        W68872  37.359  23.017   1.896
 7210W        W68873   6.251   3.408   2.373
 7211W        W68874  42.492  27.568  14.016
 7212W        W68875  19.088  38.962  14.813
 7213W        W68876  39.943  27.158   4.633
 7214W        W68877   7.281  13.257   3.706
 7215W        W68878  41.948  12.278   0.345
 7216W        W68879   5.351   4.892   4.619
 7217W        W68880  22.717  43.012  10.083
 7218W        W68881  19.695  39.943  14.346
 7219W        W68882  42.808  21.700   1.228
 7220W        W68883   0.293  31.898  13.928
 7221W        W68884  35.041  41.921   3.383
 7222W        W68885  27.629  27.118   3.245
 7223W        W68886  32.529  39.342  13.058
 7224W        W68887  34.006   5.795  14.331
 7225W        W68888  28.029  11.134  13.901
 7226W        W68889  26.136  20.757  10.437
 7227W        W68890  20.633  11.264   2.299
 7228W        W68891  34.507  30.589  11.605
 7229W        W68892   6.851  19.189  13.849
 7230W        W68893  20.209  15.612  11.055
 7231W        W68894  31.902  15.148  11.124
 7232W        W68895  10.662  28.645  10.953
 7233W        W68896  42.360  41.892  14.455
 7234W        W68897  12.264   9.254   4.268
 7235W        W68898   8.265  36.578  12.372
 7236W        W68899  28.492   2.882   4.812
 7237W        W68900   9.844   2.917   3.328
 7238W        W68901  11.165  10.653  13.870
 7239W        W68902  31.097  16.770  10.501
 7240W        W68903  16.195   6.897  12.969
 7241W        W68904  37.884   0.819  12.013
 7242W        W68905  12.194   1.461   3.228
 7243W        W68906  18.662  30.152   4.655
 7244W        W68907  35.942   8.276   0.313
 7245W        W68908  43.948  23.207   2.266
 7246W        W68909  38.892  30.478  12.463
 7247W        W68910  34.614   7.813   3.653
 7248W        W68911   0.363  30.530   4.796
 7249W        W68912  14.233  30.506  11.445
 7250W        W68913  36.868  27.085  14.315
 7251W        W68914  44.777   2.739  14.915
 7252W        W68915  19.100  43.379  14.871
 7253W        W68916   6.892   6.412  12.923
 7254W        W68917   1.299  10.355   1.222
 7255W        W68918  34.972  16.570   2.680
 7256W        W68919   1.834  17.063   1.219
 7257W        W68920  34.050   9.213   1.935
 7258W        W68921  36.462   0.959   3.362
 7259W        W68922  24.598   7.856   4.730
 7260W        W68923  32.985  19.604  10.407
 7261W        W68924  36.578  16.227  11.026
 7262W        W68925  18.280  35.498   3.242
 7263W        W68926  44.944  25.014   4.603
 7264W        W68927  15.746  28.629   4.656
 7265W        W68928  22.507  37.362  10.991
 7266W        W68929  24.227   5.425  12.530
 7267W        W68930  21.611  40.440   4.176
 7268W        W68931   4.272  25.680   3.744
 7269W        W68932  29.083  16.679  11.086
 7270W        W68933  40.853  16.253  12.356
 7271W        W68934  11.741  39.366  14.474
 7272W        W68935  19.200  21.067  13.937
 7273W        W68936  14.102  28.522   3.723
 7274W        W68937  31.631  37.072  13.042
 7275W        W68938  30.010  17.233   0.866
 7276W        W68939  40.930  12.737   1.254
 7277W        W68940  37.873  23.183   0.761
 7278W        W68941   8.714   7.844  13.547
 7279W        W68942  10.752  13.818   1.322
 7280W        W68943  13.267  10.853  13.539
 7281W        W68944  44.870   9.648  13.944
 7282W        W68945  20.090  35.946  11.963
 7283W        W68946   6.228   5.906   3.663
 7284W        W68947  37.025  41.455  12.033
 7285W        W68948   3.413  35.473  13.944
 7286W        W68949  21.215   2.352  14.355
 7287W        W68950  26.614  24.560  10.629
 7288W        W68951  21.020  33.969   1.768
 7289W        W68952  36.563   5.237   4.798
 7290W        W68953  19.072  22.509  14.868
 7291W        W68954   7.302   7.387   0.768
 7292W        W68955  17.284  32.594   2.799
 7293W        W68956  20.741   1.311   1.699
 7294W        W68957  25.706  21.103   1.880
 7295W        W68958  11.643  37.525  13.492
 7296W        W68959  13.770   6.682  12.952
 7297W        W68960  35.495   3.327  11.110
 7298W        W68961  32.413  20.234   0.738
 7299W        W68962  24.650  35.866  13.520
 7300W        W68963  42.436  44.329   0.733
 7301W        W68964  23.139  35.581  11.989
 7302W        W68965  12.258  13.262   0.429
 7303W        W68966  27.610   1.901   3.222
 7304W        W68967   4.921  43.017  14.409
 7305W        W68968  23.499  32.989  14.864
 7306W        W68969  14.636  19.547   4.814
 7307W        W68970  37.843  24.222   1.747
 7308W        W68971  16.617  32.054  13.462
 7309W        W68972  26.070  11.837   2.292
 7310W        W68973  40.816  23.984   3.312
 7311W        W68974  25.122  16.207  10.408
 7312W        W68975  17.103  21.133   0.784
 7313W        W68976  27.677   6.214  13.507
 7314W        W68977   4.776  40.908  12.079
 7315W        W68978  39.964   1.272   1.418
 7316W        W68979   8.674   4.383   2.236
 7317W        W68980  25.978  44.274   0.337
 7318W        W68981  19.736  43.017  14.449
 7319W        W68982   8.738  10.819  14.446
 7320W        W68983   9.179  15.609  12.996
 7321W        W68984   1.800  25.195   4.733
 7322W        W68985  40.524  10.839   1.368
 7323W        W68986  13.315  37.456   3.306
 7324W        W68987  23.629  29.455   1.844
 7325W        W68988  41.423  28.028  12.932
 7326W        W68989  44.461   4.332   2.215
 7327W        W68990   1.947  14.813   1.802
 7328W        W68991  22.149  30.492  14.011
 7329W        W68992  23.027  14.118   0.816
 7330W        W68993  26.120  42.961  11.090
 7331W        W68994   0.274  17.722   2.723
 7332W        W68995  16.222  36.575  11.905
 7333W        W68996   0.795  23.169  13.930
 7334W        W68997  18.673   1.431  10.901
 7335W        W68998   4.296  21.144  12.917
 7336W        W68999   8.386  35.090   2.776
 7337W        W69000  25.061  36.921   2.711
 7338W        W69001  18.746  39.422   0.764
 7339W        W69002  32.025  12.850   0.872
 7340W        W69003   8.396   9.834   4.625
 7341W        W69004  30.505  21.019   2.681
 7342W        W69005  20.249   2.894  14.014
 7343W        W69006  28.595  27.009   4.751
 7344W        W69007  44.456  21.124  13.050
 7345W        W69008  31.623  25.979   2.853
 7346W        W69009   2.795  30.141  12.029
 7347W        W69010  26.596  27.654  14.996
 7348W        W69011  43.434  21.026  13.318
 7349W        W69012   6.823   8.679  14.329
 7350W        W69013  36.503   7.884  13.464
 7351W        W69014  37.488  13.230   2.786
 7352W        W69015  40.813  26.565   9.994
 7353W        W69016  21.206   9.308  12.048
 7354W        W69017  30.139  38.393  10.470
 7355W        W69018   7.244  41.440  11.552
 7356W        W69019  24.127  13.136   4.249
 7357W        W69020   1.265  38.487   3.777
 7358W        W69021   3.443   7.894   1.731
 7359W        W69022  37.577  32.036  14.361
 7360W        W69023   6.742  30.476  11.452
 7361W        W69024  18.200   8.191  11.384
 7362W        W69025   6.743  39.977  14.459
 7363W        W69026  33.942  13.265   0.301
 7364W        W69027  35.003  36.547   3.153
 7365W        W69028   6.688  27.609   2.359
 7366W        W69029  41.018  10.237  13.411
 7367W        W69030  25.010  28.533   0.873
 7368W        W69031  23.725  35.874  13.825
 7369W        W69032  36.526  13.641  12.014
 7370W        W69033  31.972  41.409  12.550
 7371W        W69034  11.345  36.509  12.372
 7372W        W69035  18.201  32.081  13.995
 7373W        W69036  12.699  22.076   0.861
 7374W        W69037  18.278  13.839   0.335
 7375W        W69038  44.439  39.414  13.791
 7376W        W69039  42.451  31.067  14.944
 7377W        W69040  12.778  22.660  13.946
 7378W        W69041  35.419  34.477  14.965
 7379W        W69042  31.098  10.658   4.636
 7380W        W69043  33.557  18.235   4.686
 7381W        W69044  43.857  25.150   1.706
 7382W        W69045  34.441  15.635   2.394
 7383W        W69046  36.978  38.005   1.789
 7384W        W69047  12.333   6.750   0.260
 7385W        W69048   0.744  24.716   2.248
 7386W        W69049   8.876  12.662   4.341
 7387W        W69050  10.635  36.847   4.187
 7388W        W69051  21.189  20.161  12.371
 7389W        W69052  17.273  43.986   3.230
 7390W        W69053  15.776   8.169  13.375
 7391W        W69054  19.158  21.539   2.280
 7392W        W69055   2.797  21.065   1.310
 7393W        W69056  32.054  43.828   4.811
 7394W        W69057  21.616  21.225   1.893
 7395W        W69058  14.214  27.107   0.846
 7396W        W69059  26.540  44.930   3.656
 7397W        W69060   1.877  25.202  12.377
 7398W        W69061   2.950   2.380  12.488
 7399W        W69062   8.755  17.264   4.266
 7400W        W69063  12.206  25.126  12.823
 7401W        W69064  18.172  42.510  13.356
 7402W        W69065  43.787  19.716  13.394
 7403W        W69066  18.702  39.818   2.700
 7404W        W69067  35.556  41.881   1.440
 7405W        W69068  16.291  23.171   1.250
 7406W        W69069  11.795  18.267   4.663
 7407W        W69070  31.437  27.946   0.461
 7408W        W69071  35.975  26.572  10.950
 7409W        W69072  21.214   3.936  14.993
 7410W        W69073  21.121   0.428   3.357
 7411W        W69074   2.780  40.389  12.042
 7412W        W69075  37.035  31.615   4.147
 7413W        W69076  26.504  43.287   2.694
 7414W        W69077  35.578  32.405  10.980
 7415W        W69078   0.478  12.771  14.853
 7416W        W69079   0.362  27.635  11.502
 7417W        W69080  33.449  41.912  13.337
 7418W        W69081  37.072  29.061   4.332
 7419W        W69082  30.471  35.938   1.258
 7420W        W69083   4.787  40.336  11.942
 7421W        W69084  39.326  25.125  12.355
 7422W        W69085   2.399  39.407  10.460
 7423W        W69086  23.149   8.334  11.947
 7424W        W69087  23.230  29.601  14.971
 7425W        W69088   1.367  35.407  13.479
 7426W        W69089  29.637  44.796   3.159
 7427W        W69090  23.653  19.154   3.253
 7428W        W69091  15.309  34.105   3.236
 7429W        W69092   9.811  18.571  12.077
 7430W        W69093  42.804   5.222   0.447
 7431W        W69094  34.902  30.958   1.888
 7432W        W69095  32.930   0.488  13.520
 7433W        W69096  43.821   3.247  14.773
 7434W        W69097   7.412  29.025   2.295
 7435W        W69098  23.003  36.457   0.448
 7436W        W69099  44.828  25.191  13.506
 7437W        W69100  30.048   9.870   1.723
 7438W        W69101  17.073  44.368   1.742
 7439W        W69102  18.233  22.745  11.414
 7440W        W69103  24.184  18.105  13.980
 7441W        W69104  41.481  24.150  14.511
 7442W        W69105   8.282  29.565  12.982
 7443W        W69106  28.454  35.902  13.017
 7444W        W69107  12.620  14.749  11.558
 7445W        W69108  15.816  21.162  11.474
 7446W        W69109   6.907  30.968   0.472
 7447W        W69110  25.575  43.822  14.361
 7448W        W69111  18.614  20.250  11.474
 7449W        W69112  41.855  31.998   2.714
 7450W        W69113  41.463  39.916   3.765
 7451W        W69114  31.146  41.293   2.754
 7452W        W69115  11.195  29.470   3.734
 7453W        W69116  26.156   2.241  14.797
 7454W        W69117  15.738  11.702   0.895
 7455W        W69118  10.286  30.951  13.442
 7456W        W69119   1.474  21.111  12.965
 7457W        W69120   6.200   8.394  11.521
 7458W        W69121  28.959  11.760  13.998
 7459W        W69122  27.023  22.525  11.508
 7460W        W69123  24.994   8.841   2.777
 7461W        W69124  22.717   1.853   5.137
 7462W        W69125  41.967  32.592  13.370
 7463W        W69126  16.128  20.639  13.904
 7464W        W69127  12.623  19.182   2.187
 7465W        W69128  31.123  14.196   1.307
 7466W        W69129  16.238   4.362   0.911
 7467W        W69130  29.591  17.663   3.148
 7468W        W69131   7.223  28.061   0.925
 7469W        W69132  26.653   2.463  13.915
 7470W        W69133  15.233  29.015  11.935
 7471W        W69134   6.716  19.095   0.388
 7472W        W69135   3.286  34.385   3.179
 7473W        W69136  40.333  23.546   0.289
 7474W        W69137  38.909  29.088   4.804
 7475W        W69138  26.165  33.555   0.413
 7476W        W69139   9.868  39.472  13.518
 7477W        W69140   0.268   3.876   2.673
 7478W        W69141   7.711  19.556   3.200
 7479W        W69142  41.913  40.003  10.450
 7480W        W69143  31.952  24.072  11.859
 7481W        W69144  13.769   7.853  11.513
 7482W        W69145  33.076  39.859   3.851
 7483W        W69146  14.289  34.404   2.394
 7484W        W69147   6.264  11.845  13.356
 7485W        W69148  15.176  26.646   2.855
 7486W        W69149   0.333  15.097  11.598
 7487W        W69150  40.534  37.980   2.298
 7488W        W69151  38.328  19.628   0.305
 7489W        W69152   6.272  28.532   0.930
 7490W        W69153  19.061  38.829   3.865
 7491W        W69154  20.030   7.341   0.343
 7492W        W69155  23.593  17.225  14.328
 7493W        W69156  18.115  29.166   1.336
 7494W        W69157   6.350  34.600   0.276
 7495W        W69158  11.241  11.145  10.546
 7496W        W69159  34.428  34.552  13.317
 7497W        W69160   0.431  19.044  13.501
 7498W        W69161  14.151  42.985   3.350
 7499W        W69162   2.370  10.310  12.884
 7500W        W69163  19.235  19.706  14.765
 7501W        W69164   6.802  22.038  13.815
 7502W        W69165  44.453   0.274   3.767
 7503W        W69166  10.699   9.775  12.929
 7504W        W69167  44.316  13.282  12.476
 7505W        W69168  11.766  43.390  12.854
 7506W        W69169   7.826  39.937  13.942
 7507W        W69170  43.360  21.194   4.320
 7508W        W69171  40.832   5.931  13.895
 7509W        W69172   0.364  37.043   0.383
 7510W        W69173   9.171  37.962   3.636
 7511W        W69174   1.471  33.414  13.922
 7512W        W69175  10.355   9.245   1.295
 7513W        W69176  14.107  16.690   2.235
 7514W        W69177  34.913  26.114  11.053
 7515W        W69178  24.581  12.167   3.382
 7516W        W69179   0.381  12.221  13.892
 7517W        W69180   1.461  26.469   4.705
 7518W        W69181  38.898  32.627  11.515
 7519W        W69182  27.656  27.965  14.424
 7520W        W69183  17.617   5.688  14.945
 7521W        W69184  38.915  31.628   2.715
 7522W        W69185  37.461  23.182  11.443
 7523W        W69186  11.245  12.169  14.866
 7524W        W69187  43.814  20.127  13.829
 7525W        W69188  44.408  16.636  12.394
 7526W        W69189  18.068  34.985   4.783
 7527W        W69190  38.454  30.135  13.991
 7528W        W69191  39.390  33.435  11.371
 7529W        W69192  43.946  26.174  10.928
 7530W        W69193   3.867  29.601  10.894
 7531W        W69194  18.186  32.512   2.792
 7532W        W69195  32.969  19.075   0.855
 7533W        W69196  35.449  23.153  11.490
 7534W        W69197  19.670  20.076   1.211
 7535W        W69198   5.231  25.547   1.894
 7536W        W69199  35.069  43.419   0.899
 7537W        W69200  18.272   9.338   4.159
 7538W        W69201  41.831   8.821  12.519
 7539W        W69202  38.956  21.653   1.731
 7540W        W69203  39.551  11.856  14.420
 7541W        W69204  27.017   4.441   1.860
 7542W        W69205  34.999   7.670  10.467
 7543W        W69206  41.977  16.077   3.810
 7544W        W69207  11.360  11.291  12.020
 7545W        W69208  23.508   0.440   4.276
 7546W        W69209  13.124  44.989  12.384
 7547W        W69210  14.801  22.153   1.853
 7548W        W69211  19.240  16.198   3.792
 7549W        W69212  15.149  19.760   0.457
 7550W        W69213  23.606   2.279  14.513
 7551W        W69214  25.094  19.181  12.502
 7552W        W69215  29.130  42.949   5.252
 7553W        W69216   2.905  32.504   4.670
 7554W        W69217  13.302  35.908   3.731
 7555W        W69218  18.105  40.406  12.023
 7556W        W69219  10.685  35.548  10.924
 7557W        W69220  20.567   5.263   2.256
 7558W        W69221  41.941  39.503   1.761
 7559W        W69222   7.861  11.733  10.504
 7560W        W69223  29.162  10.198  11.865
 7561W        W69224  10.302  26.059   3.847
 7562W        W69225  21.062  39.503   0.474
 7563W        W69226  10.215  43.416   4.153
 7564W        W69227  16.129   8.725   3.148
 7565W        W69228   8.361  23.671  14.877
 7566W        W69229  39.941   8.281   4.249
 7567W        W69230   6.284  32.594   4.212
 7568W        W69231  15.137   5.323   2.782
 7569W        W69232  19.755  34.532  10.626
 7570W        W69233   3.374  37.537  12.956
 7571W        W69234  31.021   8.691  12.028
 7572W        W69235  30.506  20.119   0.790
 7573W        W69236   4.208  32.962  11.005
 7574W        W69237  25.070  22.553  10.067
 7575W        W69238  31.919  27.024  12.486
 7576W        W69239   5.883  11.797  10.889
 7577W        W69240  36.376  11.665  13.947
 7578W        W69241  12.654  29.972   1.388
 7579W        W69242  41.537   4.849  10.963
 7580W        W69243  44.456   1.788  13.792
 7581W        W69244  41.510  12.628  11.476
 7582W        W69245   8.768  44.294  14.331
 7583W        W69246  36.970  35.388   3.685
 7584W        W69247   5.906  44.912   1.754
 7585W        W69248  31.613  20.191   0.823
 7586W        W69249  32.397  39.481   4.159
 7587W        W69250   9.874   4.233   0.406
 7588W        W69251   6.284  31.041   3.853
 7589W        W69252  27.948  19.059   4.159
 7590W        W69253  36.591  32.616  13.987
 7591W        W69254  10.691  18.193  12.517
 7592W        W69255  20.634  43.796   4.769
 7593W        W69256   7.365  15.219  13.344
 7594W        W69257   8.319  17.641   4.614
 7595W        W69258  39.335  37.484   2.335
 7596W        W69259   6.369  23.236  14.862
 7597W        W69260  38.016   4.293  13.821
 7598W        W69261  39.903   4.324   4.259
 7599W        W69262  44.800   8.852  12.521
 7600W        W69263  16.101  29.957   2.804
 7601W        W69264  41.479   5.933   1.255
 7602W        W69265  44.767  26.201  14.009
 7603W        W69266  25.967  37.424  14.483
 7604W        W69267   7.254   3.220   2.841
 7605W        W69268  10.854  23.206  13.791
 7606W        W69269  32.460   1.242  14.423
 7607W        W69270  13.819  20.757  13.389
 7608W        W69271  43.807  20.223   4.646
 7609W        W69272  39.058  35.563   0.437
 7610W        W69273   7.191  20.185  13.309
 7611W        W69274  26.075  27.154   3.778
 7612W        W69275  38.474  40.367  10.609
 7613W        W69276  39.529  23.519  11.433
 7614W        W69277   7.807  10.703   4.312
 7615W        W69278   7.879  32.134   3.667
 7616W        W69279  16.286   9.809  13.007
 7617W        W69280  40.040   5.788   0.761
 7618W        W69281  44.774  24.590  12.409
 7619W        W69282  31.405  33.561  12.531
 7620W        W69283  16.789   2.825  10.504
 7621W        W69284  18.184  13.822  10.542
 7622W        W69285  21.575  25.103   5.189
 7623W        W69286  32.110  10.683  11.886
 7624W        W69287  18.650   8.404  14.810
 7625W        W69288  35.359  13.747   1.924
 7626W        W69289  24.081  22.168  14.309
 7627W        W69290  31.607  33.095  14.444
 7628W        W69291  31.901  31.928   5.224
 7629W        W69292  36.970   4.810   0.343
 7630W        W69293  21.240  34.009  14.379
 7631W        W69294  14.680   5.397   4.733
 7632W        W69295  11.664  19.601  10.453
 7633W        W69296  34.866  38.887   5.144
 7634W        W69297  41.467   2.337  10.497
 7635W        W69298  25.166  17.707  11.112
 7636W        W69299  25.016  26.113   2.844
 7637W        W69300  27.525   1.758   3.794
 7638W        W69301  21.714   8.723  14.930
 7639W        W69302  36.048  35.396   4.751
 7640W        W69303  40.327  30.012   1.732
 7641W        W69304  10.762  15.768   4.350
 7642W        W69305  16.613  41.506  14.964
 7643W        W69306   3.431  13.610   2.274
 7644W        W69307  10.219  28.144   3.299
 7645W        W69308   9.287  38.959  10.920
 7646W        W69309  41.514  28.439   4.221
 7647W        W69310  20.218  24.602   1.310
 7648W        W69311  35.989  29.963  14.001
 7649W        W69312  35.467  14.183  12.995
 7650W        W69313  34.414   5.339  14.291
 7651W        W69314   4.730  16.603  14.856
 7652W        W69315   7.400  36.002  13.457
 7653W        W69316   2.945  26.463  12.051
 7654W        W69317  14.835  11.721  12.971
 7655W        W69318  40.908   7.851   2.790
 7656W        W69319  21.563  36.383   2.303
 7657W        W69320  31.477  19.264   2.892
 7658W        W69321   7.373   7.373   3.697
 7659W        W69322  38.336  31.528   3.218
 7660W        W69323   0.751   0.273  11.406
 7661W        W69324   0.428  29.144  14.964
 7662W        W69325  35.947  34.460   3.743
 7663W        W69326  18.193  29.038  12.454
 7664W        W69327  26.662   7.789   2.686
 7665W        W69328  13.282  14.096  11.898
 7666W        W69329  44.960  36.982  12.563
 7667W        W69330   5.852   5.791  12.961
 7668W        W69331  12.714   7.225   1.755
 7669W        W69332  25.038  20.064   2.819
 7670W        W69333  10.634   5.927   4.149
 7671W        W69334  29.035  17.075   1.262
 7672W        W69335  44.957  32.065  11.459
 7673W        W69336  31.401   8.776   4.345
 7674W        W69337   0.470   7.731  10.113
 7675W        W69338  10.291  32.527   0.482
 7676W        W69339  26.173  18.580   2.686
 7677W        W69340   6.747   2.911   0.846
 7678W        W69341  26.672  11.181   2.894
 7679W        W69342  22.145   4.213   3.809
 7680W        W69343  38.071  36.064  13.474
 7681W        W69344   8.386  37.058  14.779
 7682W        W69345   5.761  39.060  13.518
 7683W        W69346  19.165   0.488  14.406
 7684W        W69347  35.907  16.729  13.861
 7685W        W69348  32.048  25.219   2.901
 7686W        W69349  42.355  12.801   3.831
 7687W        W69350  27.558  22.672   0.341
 7688W        W69351  12.623   0.951  11.071
 7689W        W69352  17.294   9.794  13.478
 7690W        W69353   8.185  31.945   4.694
 7691W        W69354  23.003  32.472  11.044
 7692W        W69355  25.665  38.526   9.655
 7693W        W69356  14.616   1.366   3.252
 7694W        W69357  37.980  34.878  14.275
 7695W        W69358  23.235   3.386   4.166
 7696W        W69359  37.349  30.015   4.698
 7697W        W69360  18.714  13.767   4.208
 7698W        W69361  43.788  22.033   2.223
 7699W        W69362   1.864  15.749  14.363
 7700W        W69363  10.207  44.835   2.246
 7701W        W69364  35.399  26.598  14.912
 7702W        W69365  23.996  24.130  12.542
 7703W        W69366  18.721   8.733   2.304
 7704W        W69367   6.237  17.120  11.071
 7705W        W69368  30.053  38.002  12.353
 7706W        W69369  24.089  30.084   0.749
 7707W        W69370  27.459  43.852   0.417
 7708W        W69371  43.842  35.978   4.126
 7709W        W69372  20.682   9.675   3.871
 7710W        W69373  29.164  30.952  12.435
 7711W        W69374  30.959  20.573  14.865
 7712W        W69375  27.152  17.184  11.463
 7713W        W69376   1.811  40.933   2.903
 7714W        W69377  24.185  34.563   4.326
 7715W        W69378  38.052  40.836  11.595
 7716W        W69379   1.299   8.248  14.911
 7717W        W69380  16.588   0.292   0.874
 7718W        W69381  30.153  22.604  13.040
 7719W        W69382  10.819  39.918  13.976
 7720W        W69383  39.925  17.731  14.338
 7721W        W69384  27.601  28.612   2.845
 7722W        W69385   3.881  24.533   4.314
 7723W        W69386  44.293  36.845  12.984
 7724W        W69387  41.412  43.402  10.545
 7725W        W69388  42.033  19.548  10.942
 7726W        W69389  32.502  35.856   4.322
 7727W        W69390   7.754  30.036  11.594
 7728W        W69391  42.858  31.902  10.431
 7729W        W69392   5.359   7.218  13.038
 7730W        W69393  21.752  29.658   0.333
 7731W        W69394   9.798  22.209  11.582
 7732W        W69395  13.309  29.429  10.984
 7733W        W69396  14.272   4.215  14.952
 7734W        W69397  15.816  33.411   2.383
 7735W        W69398   6.854   4.418  12.341
 7736W        W69399  18.282  19.261  10.608
 7737W        W69400  31.144  29.087   1.741
 7738W        W69401   1.863  29.098  14.478
 7739W        W69402  14.759  40.435  14.863
 7740W        W69403  39.846  40.986  13.060
 7741W        W69404   0.861  17.728  14.373
 7742W        W69405  15.692  32.105  12.980
 7743W        W69406  40.507  43.895   0.848
 7744W        W69407  25.515  44.299   2.902
 7745W        W69408  19.158  29.613   4.285
 7746W        W69409  26.688  18.600   3.216
 7747W        W69410  22.081  29.161   3.755
 7748W        W69411   3.803   0.820   4.634
 7749W        W69412  30.636  15.195  14.811
 7750W        W69413  36.084  14.339  10.944
 7751W        W69414  18.707  16.718   4.341
 7752W        W69415  16.165  44.369   0.838
 7753W        W69416   4.731  15.688  11.425
 7754W        W69417  19.584  30.006   1.896
 7755W        W69418  23.625  19.079  10.922
 7756W        W69419  12.640   9.325  12.851
 7757W        W69420  25.151  21.045   3.629
 7758W        W69421  37.841  11.708  12.575
 7759W        W69422   2.228  29.034   2.834
 7760W        W69423  14.231  26.057   2.342
 7761W        W69424  11.791  17.751   3.851
 7762W        W69425  30.040  33.497   4.784
 7763W        W69426  21.529  10.681  11.507
 7764W        W69427   2.321  24.711  13.498
 7765W        W69428  13.317  17.739  12.525
 7766W        W69429   7.792  29.044  11.990
 7767W        W69430  15.083  15.223  14.919
 7768W        W69431  22.148  26.073   1.865
 7769W        W69432  35.101  36.055  11.109
 7770W        W69433  40.005  44.268  11.065
 7771W        W69434  32.088  23.226   3.746
 7772W        W69435  23.679  13.783  14.764
 7773W        W69436  36.877  29.045   4.627
 7774W        W69437   6.409  25.157   3.195
 7775W        W69438   4.270  36.491   2.337
 7776W        W69439  30.949  39.896   0.927
 7777W        W69440  22.126  12.157   0.468
 7778W        W69441  34.614  20.161  12.576
 7779W        W69442  23.226  11.827  13.914
 7780W        W69443  40.546  30.577   1.445
 7781W        W69444  43.776   6.215  13.378
 7782W        W69445  21.527  13.254  12.954
 7783W        W69446  14.634  18.624  12.558
 7784W        W69447   2.434  40.959  12.976
 7785W        W69448   4.218  12.306   4.692
 7786W        W69449  26.462   9.199   1.320
 7787W        W69450  36.941   4.242   3.659
 7788W        W69451  16.712  43.807  14.338
 7789W        W69452   5.367  34.411  14.891
 7790W        W69453  22.187  36.413   0.909
 7791W        W69454   7.306  10.840  11.526
 7792W        W69455  28.513  34.569   1.880
 7793W        W69456  26.520  36.419   1.331
 7794W        W69457  13.297  16.618  11.424
 7795W        W69458  15.806   7.706  14.336
 7796W        W69459  30.560  41.418   0.729
 7797W        W69460  23.009   7.325  14.948
 7798W        W69461  13.236   4.415  14.920
 7799W        W69462  36.397   0.478  14.281
 7800W        W69463  41.380  10.767  11.090
 7801W        W69464  14.284  20.664   2.282
 7802W        W69465  41.851   4.364   3.669
 7803W        W69466  35.927  15.289  14.312
 7804W        W69467  13.241  24.606  11.595
 7805W        W69468  16.584  11.668   2.265
 7806W        W69469  44.951  28.019   3.632
 7807W        W69470  12.703  41.418  12.399
 7808W        W69471   4.227  43.008  12.953
 7809W        W69472  38.515  10.331  14.960
 7810W        W69473  12.769  41.860   0.355
 7811W        W69474  16.652  28.955  12.934
 7812W        W69475  22.134  25.474  14.846
 7813W        W69476   5.311  21.193   0.929
 7814W        W69477   4.751   0.410   4.677
 7815W        W69478  24.022  27.526  10.484
 7816W        W69479  10.714  19.663  10.437
 7817W        W69480  32.529  33.001  13.816
 7818W        W69481   0.867  44.769   1.437
 7819W        W69482   7.716   8.716  14.950
 7820W        W69483  23.559  10.211  10.432
 7821W        W69484  10.230  41.983   2.798
 7822W        W69485  29.016  24.129   2.863
 7823W        W69486  16.586  43.812  13.858
 7824W        W69487  39.400  23.539   5.132
 7825W        W69488  13.745  11.178   1.410
 7826W        W69489   3.758  44.323  12.483
 7827W        W69490  32.030  15.683  10.621
 7828W        W69491   4.720   1.318  11.916
 7829W        W69492  31.023   9.174  13.932
 7830W        W69493  34.085  42.460   4.708
 7831W        W69494  43.896  25.032   2.857
 7832W        W69495  36.060  39.909   1.748
 7833W        W69496  13.324  12.706  14.512
 7834W        W69497  21.567  25.057  13.386
 7835W        W69498  19.085   9.186  13.408
 7836W        W69499  36.388  18.068   1.233
 7837W        W69500  20.041  11.715  11.945
 7838W        W69501  29.540  36.901   2.800
 7839W        W69502  20.228  40.912   4.652
 7840W        W69503  23.530  27.127   3.756
 7841W        W69504  20.643  28.486   4.335
 7842W        W69505  16.282  27.497  12.341
 7843W        W69506  12.834  20.130  10.546
 7844W        W69507  16.204  20.574   3.846
 7845W        W69508  24.529  37.537  12.893
 7846W        W69509  13.625  24.537   0.301
 7847W        W69510   6.725   9.794   3.666
 7848W        W69511  25.656  26.024   3.803
 7849W        W69512   8.758  20.613  11.493
 7850W        W69513  31.896   4.292  11.490
 7851W        W69514  40.371  29.525   4.131
 7852W        W69515  12.202  42.881   3.650
 7853W        W69516  25.640   5.199   1.346
 7854W        W69517  35.020  13.753   4.352
 7855W        W69518  42.813  32.961  14.995
 7856W        W69519  18.777  32.945  12.025
 7857W        W69520  10.858  37.527   2.709
 7858W        W69521  24.991   0.981  10.905
 7859W        W69522  16.288  13.245   5.780
 7860W        W69523   7.726  25.146   5.158
 7861W        W69524  33.409  24.157  13.048
 7862W        W69525  39.510  16.743  13.466
 7863W        W69526  30.440  42.868   2.364
 7864W        W69527  27.096  33.893  14.947
 7865W        W69528  31.918  31.938  14.424
 7866W        W69529  12.709   2.241   0.448
 7867W        W69530  18.582   0.873  13.390
 7868W        W69531  42.298  18.173  11.108
 7869W        W69532  21.607  23.196  13.840
 7870W        W69533  44.934  20.585  12.941
 7871W        W69534  39.007  35.420   3.845
 7872W        W69535   3.386   4.368  13.847
 7873W        W69536   1.964  44.921   0.804
 7874W        W69537  42.519  37.447  12.366
 7875W        W69538  26.122  24.033  12.348
 7876W        W69539  37.419   7.279   4.332
 7877W        W69540  39.844  12.192   2.315
 7878W        W69541  23.199  32.897   2.741
 7879W        W69542  38.351   1.754  12.506
 7880W        W69543  39.437  21.051   0.935
 7881W        W69544  35.001  12.747   1.894
 7882W        W69545  30.635  17.737  11.557
 7883W        W69546  44.372  25.488   2.396
 7884W        W69547  12.360   2.393  12.884
 7885W        W69548  38.028  43.285   4.291
 7886W        W69549  36.913  14.721   0.950
 7887W        W69550   8.804  42.901  11.430
 7888W        W69551   4.295  36.090   3.186
 7889W        W69552  38.922  13.135  13.910
 7890W        W69553  41.998  36.903   4.626
 7891W        W69554  33.493   5.792   0.810
 7892W        W69555  31.471  43.867  14.284
 7893W        W69556  14.232  29.656   1.728
 7894W        W69557  25.545  25.116  14.458
 7895W        W69558  38.405  14.227   4.661
 7896W        W69559  20.094  40.969   3.740
 7897W        W69560  10.807  19.780   4.643
 7898W        W69561  27.059  41.886   5.279
 7899W        W69562  26.678   2.867   0.361
 7900W        W69563  38.526  31.975  11.432
 7901W        W69564  38.457  18.101   1.914
 7902W        W69565  37.908  18.107   2.888
 7903W        W69566  18.057  42.782  12.496
 7904W        W69567  25.095  15.309  13.838
 7905W        W69568  29.108  40.389   3.191
 7906W        W69569  30.502  42.438  14.317
 7907W        W69570  23.010   5.373  12.538
 7908W        W69571   5.244  36.468  13.913
 7909W        W69572   4.334   4.210   4.766
 7910W        W69573  36.004   2.826  12.037
 7911W        W69574   2.298  38.353   0.344
 7912W        W69575  23.089  28.134   3.765
 7913W        W69576  25.986   0.300  13.400
 7914W        W69577  34.918  11.681  11.375
 7915W        W69578  43.502  21.174   4.763
 7916W        W69579  39.873   1.974   2.195
 7917W        W69580  12.206  36.504   4.347
 7918W        W69581   4.739  16.763   2.880
 7919W        W69582  25.536   1.881  13.464
 7920W        W69583  36.911  23.509   0.297
 7921W        W69584  29.089  36.079  11.008
 7922W        W69585  38.528   6.719   2.323
 7923W        W69586  19.140  25.585   3.150
 7924W        W69587  11.803   5.297  11.859
 7925W        W69588  21.616  43.351   1.882
 7926W        W69589  22.162  32.461  12.022
 7927W        W69590   3.725  17.563   2.664
 7928W        W69591  14.261   3.384   3.803
 7929W        W69592  10.290  10.681  12.553
 7930W        W69593   8.332  44.440   0.740
 7931W        W69594  26.061  27.948  14.772
 7932W        W69595   1.299  36.960  12.497
 7933W        W69596   1.365  37.049  14.343
 7934W        W69597  26.104  28.109  11.061
 7935W        W69598  39.526   1.856   4.116
 7936W        W69599  10.798  44.918  10.957
 7937W        W69600  36.910  14.275   3.225
 7938W        W69601  25.040  28.975   0.251
 7939W        W69602  40.495  36.432   3.708
 7940W        W69603  35.364   6.870   2.325
 7941W        W69604  20.566  16.205  13.899
 7942W        W69605  25.996  13.161  14.509
 7943W        W69606   8.260  20.075  14.883
 7944W        W69607  18.213  42.845  10.904
 7945W        W69608   7.382  44.347  13.491
 7946W        W69609   4.772   5.722   3.194
 7947W        W69610  35.859  17.765  14.451
 7948W        W69611  22.505  31.103   2.813
 7949W        W69612   5.850  25.128  14.492
 7950W        W69613   1.307  19.552  12.450
 7951W        W69614   2.809   8.692   4.741
 7952W        W69615   1.351   3.267  10.959
 7953W        W69616  39.830  42.432   2.781
 7954W        W69617   0.365  10.371  10.073
 7955W        W69618  19.117  38.507   3.796
 7956W        W69619  32.053   6.762  14.498
 7957W        W69620  44.447  41.839  13.849
 7958W        W69621  19.216   1.852  12.452
 7959W        W69622  14.624   1.973  10.042
 7960W        W69623  19.117   4.325   2.686
 7961W        W69624   4.785   2.338  10.606
 7962W        W69625  29.591  18.748  13.518
 7963W        W69626   0.471  39.373   3.713
 7964W        W69627  24.621  18.104   0.390
 7965W        W69628  18.171  27.447   3.272
 7966W        W69629  17.253  25.562  14.406
 7967W        W69630  15.584  20.194  11.390
 7968W        W69631  34.497  10.755   0.803
 7969W        W69632  14.229  14.813  10.527
 7970W        W69633  21.585  23.240   0.465
 7971W        W69634   1.777  20.719  13.810
 7972W        W69635  26.682  42.394  14.354
 7973W        W69636  23.044  39.836   4.700
 7974W        W69637  27.465  34.031   2.271
 7975W        W69638  17.121  16.622  14.488
 7976W        W69639  41.035  27.066  13.909
 7977W        W69640   9.700  32.963  14.905
 7978W        W69641  27.063  24.009  12.385
 7979W        W69642  14.311  30.649  12.946
 7980W        W69643  23.125  38.333  14.422
 7981W        W69644  23.609  38.840   4.207
 7982W        W69645  17.092  35.022  10.431
 7983W        W69646  37.975  18.209   0.926
 7984W        W69647  16.571  42.929   0.856
 7985W        W69648   5.753   6.232  12.371
 7986W        W69649  36.384  44.962   1.917
 7987W        W69650   4.728   2.389   1.267
 7988W        W69651  16.098  34.371   3.697
 7989W        W69652  36.844  15.791   3.371
 7990W        W69653  22.705   9.729  11.378
 7991W        W69654  14.207  18.078  10.487
 7992W        W69655  30.953  18.628  12.899
 7993W        W69656  37.047  23.189   3.810
 7994W        W69657  15.644  31.101   0.336
 7995W        W69658  31.596  24.548  14.454
 7996W        W69659  24.499   9.703   4.146
 7997W        W69660  29.662  30.005  13.383
 7998W        W69661   7.798   8.711  13.002
 7999W        W69662   5.228  32.957  10.408
 8000W        W69663   9.763  19.751  13.027
 8001W        W69664   0.813  42.321  13.814
 8002W        W69665  21.557  27.092   9.577
 8003W        W69666   6.718  23.022  14.861
 8004W        W69667  28.120  38.068  14.356
 8005W        W69668  35.924  12.273  14.334
 8006W        W69669  16.709  12.777  11.492
 8007W        W69670  16.747   8.842   0.775
 8008W        W69671  22.507  17.797   1.324
 8009W        W69672  14.216   1.824   2.307
 8010W        W69673  11.751  20.268   0.852
 8011W        W69674   7.803  38.843   4.282
 8012W        W69675  20.740  27.565  14.863
 8013W        W69676   7.854  15.230  12.040
 8014W        W69677  32.056  39.558  11.023
 8015W        W69678   2.832   7.676  12.014
 8016W        W69679  29.999  30.973  11.375
 8017W        W69680  24.594  39.378  13.932
 8018W        W69681   3.417  14.268   4.603
 8019W        W69682  34.605  10.816  12.000
 8020W        W69683  22.712  33.054   4.792
 8021W        W69684  44.473  41.482  10.458
 8022W        W69685   0.953  24.624   4.729
 8023W        W69686  34.595  40.861  13.861
 8024W        W69687   2.953  28.668  11.036
 8025W        W69688  36.043  15.717   0.421
 8026W        W69689   8.272   3.349  11.575
 8027W        W69690   1.410  23.643   2.844
 8028W        W69691  42.389   6.879  14.489
 8029W        W69692  19.052  16.681   1.305
 8030W        W69693   7.772  29.081   0.914
 8031W        W69694  35.361  37.926  13.968
 8032W        W69695  31.021  13.660   0.737
 8033W        W69696  37.464  11.809   2.365
 8034W        W69697  17.173  33.893   4.143
 8035W        W69698  33.112  36.365  13.825
 8036W        W69699  31.413   9.823   2.689
 8037W        W69700  13.289  35.984  11.922
 8038W        W69701  41.428  36.018  14.910
 8039W        W69702  28.491  28.122  11.065
 8040W        W69703  33.106  23.690  11.994
 8041W        W69704  40.415  11.759   4.223
 8042W        W69705  20.220  36.562  11.054
 8043W        W69706  42.829  43.946  10.945
 8044W        W69707  42.460   7.841   0.304
 8045W        W69708  10.684  13.812  12.476
 8046W        W69709   2.344  34.900   0.840
 8047W        W69710  35.076  42.988  10.083
 8048W        W69711   2.245  34.606   0.287
 8049W        W69712  11.632   0.413  11.911
 8050W        W69713  23.679  14.250  14.006
 8051W        W69714   1.345  11.633  12.392
 8052W        W69715  17.121  23.122   1.374
 8053W        W69716  15.198  17.572  12.056
 8054W        W69717   1.258  11.213  11.586
 8055W        W69718  19.261   6.888   3.265
 8056W        W69719  38.402  42.897  14.947
 8057W        W69720   9.680  14.803  11.603
 8058W        W69721   8.713  16.309  12.930
 8059W        W69722   4.352  11.176  11.992
 8060W        W69723   2.824  12.294   4.260
 8061W        W69724  13.185  33.981   4.264
 8062W        W69725  20.048  29.949  11.455
 8063W        W69726   2.418  35.570   3.264
 8064W        W69727   8.197  14.792   4.667
 8065W        W69728   8.243  24.554   3.670
 8066W        W69729  27.131  30.623  14.788
 8067W        W69730   4.909  35.422  14.442
 8068W        W69731  39.873  27.141  10.568
 8069W        W69732   3.416   0.438  11.416
 8070W        W69733   5.781  11.653   0.856
 8071W        W69734   2.267   8.734   0.841
 8072W        W69735   5.335  23.110  13.850
 8073W        W69736   8.363  15.184   4.753
 8074W        W69737  16.265  36.903  13.809
 8075W        W69738   9.171  10.182  13.988
 8076W        W69739   5.348  26.169   2.358
 8077W        W69740  43.384   2.806  13.324
 8078W        W69741  34.514  43.511  12.950
 8079W        W69742  37.972  44.754  12.935
 8080W        W69743  34.104   5.313   9.607
 8081W        W69744  36.923   1.936  13.024
 8082W        W69745  19.696  29.647  13.828
 8083W        W69746  40.454  20.543   4.832
 8084W        W69747  19.569  35.390   1.215
 8085W        W69748  41.021  24.034  13.886
 8086W        W69749   8.794  22.193   2.693
 8087W        W69750  37.424   7.728  12.975
 8088W        W69751  33.102   9.369  12.987
 8089W        W69752  44.988  21.685  12.039
 8090W        W69753  43.953  17.264   3.839
 8091W        W69754   7.352  32.912   4.338
 8092W        W69755  15.094  23.217   1.449
 8093W        W69756   2.906  32.064   1.335
 8094W        W69757  21.224  31.989  14.360
 8095W        W69758  15.685  18.050   0.942
 8096W        W69759  12.654  27.583   0.376
 8097W        W69760  12.790  10.804   4.715
 8098W        W69761  19.744   3.339   1.719
 8099W        W69762  26.621  16.807   2.795
 8100W        W69763  21.047  17.771   0.324
 8101W        W69764   6.320  39.404  12.085
 8102W        W69765  31.518  18.791  14.372
 8103W        W69766  31.523  21.586  13.343
 8104W        W69767  18.590  44.789  13.454
 8105W        W69768  39.452   9.236   2.340
 8106W        W69769  19.731   4.353  14.792
 8107W        W69770  20.627   9.206   3.745
 8108W        W69771  39.980   1.334   3.846
 8109W        W69772  37.516   4.433  13.499
 8110W        W69773  35.875  14.656  13.054
 8111W        W69774  37.532  22.621  11.381
 8112W        W69775   4.708  19.096   3.282
 8113W        W69776   4.286  15.603   2.183
 8114W        W69777  10.365  20.552  12.850
 8115W        W69778  38.995   3.350   0.891
 8116W        W69779  25.500  41.359  12.076
 8117W        W69780  12.137  29.106  14.027
 8118W        W69781  44.339  39.532   4.153
 8119W        W69782  35.941   6.381  11.568
 8120W        W69783   9.319  19.161   1.308
 8121W        W69784   2.728  10.868   2.818
 8122W        W69785  17.791  41.433   3.709
 8123W        W69786   4.906  26.996  12.014
 8124W        W69787  10.286  37.472  14.927
 8125W        W69788   1.482  30.431  11.539
 8126W        W69789  28.596  10.208   1.399
 8127W        W69790  23.081  37.504  14.026
 8128W        W69791  12.196   9.789  12.076
 8129W        W69792  27.037  33.415   1.290
 8130W        W69793  21.741  15.811   3.357
 8131W        W69794  25.660  29.018   2.372
 8132W        W69795  42.422   0.283  10.891
 8133W        W69796   6.902   0.435  12.878
 8134W        W69797  11.231  18.716  10.554
 8135W        W69798  14.650   8.222   1.743
 8136W        W69799  38.455   2.850  14.921
 8137W        W69800  31.092  20.076  12.447
 8138W        W69801  16.812   9.316  14.279
 8139W        W69802  35.550  16.663  14.423
 8140W        W69803  10.716   4.852   2.226
 8141W        W69804  24.031  17.210  13.476
 8142W        W69805  11.653   0.826   2.380
 8143W        W69806  25.182  20.608   0.850
 8144W        W69807  43.875  28.547   4.755
 8145W        W69808  15.633  15.207  11.016
 8146W        W69809  18.754  23.158   4.771
 8147W        W69810  19.546   1.396  10.565
 8148W        W69811  38.548  13.625  14.431
 8149W        W69812  31.646  31.561   3.814
 8150W        W69813  36.936  10.327   0.728
 8151W        W69814  41.533  21.532   2.688
 8152W        W69815  31.647  31.589  11.058
 8153W        W69816  20.645  17.712   2.841
 8154W        W69817  21.627   0.876  14.791
 8155W        W69818  42.852  33.119  11.017
 8156W        W69819  13.167  13.603   3.692
 8157W        W69820  38.869  29.470   3.858
 8158W        W69821  25.555  41.974   0.355
 8159W        W69822  25.176  19.594  14.290
 8160W        W69823  11.185   4.837  13.494
 8161W        W69824  36.467  30.569  10.616
 8162W        W69825  42.970  33.553  11.924
 8163W        W69826  28.121   2.471   4.699
 8164W        W69827  26.525  15.219  13.935
 8165W        W69828   0.928   1.274  11.890
 8166W        W69829  14.318  37.494  12.418
 8167W        W69830  44.956  19.259   1.302
 8168W        W69831   3.341  33.392  12.445
 8169W        W69832  25.604   0.373  10.471
 8170W        W69833   9.807  39.375   1.346
 8171W        W69834  40.410  41.859  11.059
 8172W        W69835  41.441   9.685   3.380
 8173W        W69836  10.866   5.323  13.912
 8174W        W69837  29.934   3.767  13.814
 8175W        W69838  39.064   4.238   3.824
 8176W        W69839  21.189  18.701   3.253
 8177W        W69840  25.683  30.109   1.389
 8178W        W69841  17.748  42.410  10.501
 8179W        W69842  35.567  33.574  10.456
 8180W        W69843  19.569  31.128  13.517
 8181W        W69844   4.817   8.274  10.966
 8182W        W69845  35.407   4.786  12.972
 8183W        W69846  19.596  29.017  13.895
 8184W        W69847  23.514  40.048  13.860
 8185W        W69848  29.563  11.624   2.265
 8186W        W69849   7.277  30.972   0.457
 8187W        W69850  33.441  22.106   4.204
 8188W        W69851  20.142   0.344  11.986
 8189W        W69852  29.560   6.202   4.664
 8190W        W69853  42.876  17.269  10.507
 8191W        W69854  31.493   8.720  10.981
 8192W        W69855  40.349  14.639   0.292
 8193W        W69856  38.969   2.299  10.941
 8194W        W69857  33.943   6.867  14.328
 8195W        W69858  40.940  29.562   2.341
 8196W        W69859  16.804   3.873   0.802
 8197W        W69860  12.304   6.728  13.424
 8198W        W69861  44.912  44.399   3.844
 8199W        W69862  37.571   0.346  10.514
 8200W        W69863  22.159  25.603  12.017
 8201W        W69864  35.932  25.139  10.460
 8202W        W69865   9.178  17.260  13.338
 8203W        W69866  25.106  11.782   3.178
 8204W        W69867  43.887  17.204  11.126
 8205W        W69868  28.649  15.740  11.004
 8206W        W69869  38.533  12.791  11.535
 8207W        W69870  41.436   6.418  14.447
 8208W        W69871  17.113  18.597  10.499
 8209W        W69872  39.385  12.342   3.715
 8210W        W69873  41.470  30.072  14.418
 8211W        W69874  28.639  10.346   0.343
 8212W        W69875  34.384  43.955  14.282
 8213W        W69876  27.182  22.008   3.353
 8214W        W69877  13.685  32.471   3.382
 8215W        W69878  23.041  15.194  13.043
 8216W        W69879  16.079  34.089   1.213
 8217W        W69880  15.140  41.935   2.871
 8218W        W69881   7.813  19.568   1.311
 8219W        W69882  30.927  42.953  14.007
 8220W        W69883   9.239  25.677  11.983
 8221W        W69884   5.436  38.963  12.072
 8222W        W69885   4.317   4.303  14.766
 8223W        W69886   9.238  24.104   1.702
 8224W        W69887   7.715  18.548   0.262
 8225W        W69888  28.579  43.809   4.768
 8226W        W69889  14.276  10.297   2.250
 8227W        W69890   4.287  18.667  11.551
 8228W        W69891  27.650   2.828  10.627
 8229W        W69892  27.625  18.126  13.054
 8230W        W69893  11.149   4.255  14.836
 8231W        W69894  20.091  39.439   4.598
 8232W        W69895   9.322  22.995  10.534
 8233W        W69896  32.898   6.852  13.043
 8234W        W69897  10.251   0.447   9.988
 8235W        W69898  31.631  32.049   4.316
 8236W        W69899   0.349  24.004  12.985
 8237W        W69900   8.189   8.737   2.383
 8238W        W69901  30.113  28.969   4.230
 8239W        W69902  19.768  15.582   5.794
 8240W        W69903  19.236  39.950   2.227
 8241W        W69904  40.534  38.915  13.406
 8242W        W69905  33.569   0.936  14.964
 8243W        W69906  16.789  32.409  14.776
 8244W        W69907  21.672  24.511   5.125
 8245W        W69908  23.059  35.444   1.414
 8246W        W69909  16.133  17.628   1.361
 8247W        W69910  15.307  30.643   0.249
 8248W        W69911  26.617  24.155   2.250
 8249W        W69912   0.481  26.620   0.795
 8250W        W69913  10.366   8.694   3.337
 8251W        W69914  22.171  34.442   1.865
 8252W        W69915  30.063  29.655   1.747
 8253W        W69916   5.348  24.568   3.757
 8254W        W69917  11.127   0.979   0.291
 8255W        W69918  36.473  25.565  11.959
 8256W        W69919  37.426  35.869   2.342
 8257W        W69920  25.604  26.659  13.858
 8258W        W69921  15.633  17.659   0.288
 8259W        W69922   0.755  40.038   0.749
 8260W        W69923  25.209  25.195   2.409
 8261W        W69924  21.534  14.809  12.075
 8262W        W69925  14.641   7.741   2.776
 8263W        W69926  39.871  39.334   0.960
 8264W        W69927  44.406  21.542  12.021
 8265W        W69928   0.963  31.998  10.624
 8266W        W69929   2.855  16.168   0.449
 8267W        W69930   0.432   3.399   1.360
 8268W        W69931   8.359  38.377   3.333
 8269W        W69932  16.574  13.680   4.282
 8270W        W69933  44.850  27.558  13.015
 8271W        W69934   0.770  10.248  13.817
 8272W        W69935  42.386  32.131   0.848
 8273W        W69936  35.967  21.623   0.934
 8274W        W69937  14.798   0.985   4.702
 8275W        W69938  40.372  30.015   0.301
 8276W        W69939  33.448  13.783  13.435
 8277W        W69940  35.960   0.849  11.086
 8278W        W69941  25.134  23.036  14.934
 8279W        W69942  10.359  17.700   4.212
 8280W        W69943  10.872  33.404  11.951
 8281W        W69944  25.113  24.070  14.366
 8282W        W69945  24.120  20.185  14.928
 8283W        W69946  38.554  33.892   3.159
 8284W        W69947   0.433  32.442  11.106
 8285W        W69948  31.110   0.281  14.973
 8286W        W69949  44.009  42.911  11.502
 8287W        W69950  10.774  25.620  13.472
 8288W        W69951   2.290  31.630   4.695
 8289W        W69952   1.455  14.745   1.808
 8290W        W69953  41.393  31.489   3.294
 8291W        W69954   4.297  21.523  14.430
 8292W        W69955  18.163   1.296  14.861
 8293W        W69956  20.093  25.000   3.678
 8294W        W69957  26.002  25.713   3.702
 8295W        W69958  15.656  12.128  13.395
 8296W        W69959  40.913  20.206   3.308
 8297W        W69960  23.086   6.764  13.860
 8298W        W69961   1.477   8.884  12.027
 8299W        W69962  38.565   7.357   3.708
 8300W        W69963  12.803  38.530   1.850
 8301W        W69964  11.319  34.443  13.042
 8302W        W69965  30.459  21.712   4.259
 8303W        W69966  11.339  18.076   4.606
 8304W        W69967   7.706  24.591   4.661
 8305W        W69968  12.685  18.768  14.349
 8306W        W69969   3.860  23.569  10.120
 8307W        W69970   9.741  24.058  14.031
 8308W        W69971  40.020  19.750   1.701
 8309W        W69972  34.919  14.613  11.908
 8310W        W69973  10.147   1.371  11.569
 8311W        W69974  36.022  21.126  11.994
 8312W        W69975  42.832  17.720   3.676
 8313W        W69976  32.558   7.730   3.815
 8314W        W69977  21.553  11.127   3.322
 8315W        W69978   0.774  39.492   4.763
 8316W        W69979  34.983  12.267  11.537
 8317W        W69980  38.928   4.390  12.852
 8318W        W69981  37.363   5.301  14.829
 8319W        W69982  28.971  33.399   0.921
 8320W        W69983  36.459  19.710   0.458
 8321W        W69984   0.821  30.091  12.358
 8322W        W69985  20.060  13.257   2.324
 8323W        W69986   9.196  14.738  14.369
 8324W        W69987  32.909  21.541  11.540
 8325W        W69988  14.781  40.405  14.416
 8326W        W69989  15.259  19.663  12.565
 8327W        W69990  36.357  13.673   2.308
 8328W        W69991   8.172  44.449   2.868
 8329W        W69992  20.269  22.088   1.254
 8330W        W69993  14.175  16.602   1.826
 8331W        W69994  36.348   9.186  13.450
 8332W        W69995   3.270  42.424  11.495
 8333W        W69996  43.832  26.572  12.421
 8334W        W69997  31.906  25.197  14.339
 8335W        W69998  37.508  23.666  13.441
 8336W        W69999  43.347  23.178   0.913
 8337W        W70000   3.314  30.048  14.469
 8338W        W70001  19.125  25.001  14.827
 8339W        W70002  15.652  31.063   0.941
 8340W        W70003  33.052  43.386   2.366
 8341W        W70004   5.226   8.794   3.204
 8342W        W70005  23.552  26.510  13.931
 8343W        W70006   4.297  16.090  11.486
 8344W        W70007  35.962  28.103   1.875
 8345W        W70008  22.016  41.528  13.448
 8346W        W70009  18.618  25.095  14.828
 8347W        W70010   8.705  35.087  14.417
 8348W        W70011  11.751  30.474  11.519
 8349W        W70012  16.585  19.082  13.988
 8350W        W70013   9.772  13.671   4.293
 8351W        W70014  27.553  20.263  10.556
 8352W        W70015  24.599  11.648   0.938
 8353W        W70016  19.643  22.520  10.982
 8354W        W70017  28.563  38.985   3.193
 8355W        W70018  21.039  42.353   4.268
 8356W        W70019  13.239  20.622  11.949
 8357W        W70020  43.827  43.443  11.987
 8358W        W70021  36.903   3.460  10.973
 8359W        W70022  33.448  25.488  13.910
 8360W        W70023  36.540  22.683  13.910
 8361W        W70024   1.368  20.712  13.800
 8362W        W70025  34.866  20.690  14.948
 8363W        W70026  17.202  30.650  11.519
 8364W        W70027  42.967  39.439  14.812
 8365W        W70028  42.841  27.993  14.355
 8366W        W70029   3.854  35.937   0.861
 8367W        W70030  25.014  29.460   4.226
 8368W        W70031  15.256  18.125   0.283
 8369W        W70032  29.445  41.963  11.944
 8370W        W70033   8.245  26.626   0.467
 8371W        W70034  11.248  19.734  12.949
 8372W        W70035   2.346  10.735  12.968
 8373W        W70036  27.036   7.846   4.164
 8374W        W70037  22.086  26.097   1.252
 8375W        W70038  16.190  33.048  13.307
 8376W        W70039  38.976  40.016  13.844
 8377W        W70040  39.907  41.030  14.819
 8378W        W70041   9.218  28.645   2.856
 8379W        W70042  16.596  20.662  11.514
 8380W        W70043  24.519  40.527  11.881
 8381W        W70044  30.010  32.485   2.269
 8382W        W70045  19.229  24.142   3.846
 8383W        W70046   1.813  10.228   1.247
 8384W        W70047  41.430  21.665   1.706
 8385W        W70048  17.223  19.774   1.910
 8386W        W70049  17.559  14.104   0.738
 8387W        W70050  34.079   5.792  11.971
 8388W        W70051  27.686  11.251  13.934
 8389W        W70052  35.491  15.648  13.834
 8390W        W70053  29.447  24.074  12.991
 8391W        W70054  33.965   0.859   0.272
 8392W        W70055  17.099  11.141   3.691
 8393W        W70056  33.584  21.138  10.934
 8394W        W70057   0.837  39.386  13.402
 8395W        W70058  15.769  32.130   2.856
 8396W        W70059  33.982  32.482   2.262
 8397W        W70060  25.033  23.513  14.916
 8398W        W70061  24.097  32.045   3.257
 8399W        W70062  24.028  29.170  13.028
 8400W        W70063  26.017  41.383  12.432
 8401W        W70064  26.030   9.727   0.801
 8402W        W70065  21.084  30.945  11.077
 8403W        W70066  38.981  44.441   9.968
 8404W        W70067  25.076  17.122  11.404
 8405W        W70068  25.661  29.601  14.867
 8406W        W70069  37.837  33.935   2.858
 8407W        W70070  32.006   9.180  12.930
 8408W        W70071   1.877  42.896  11.387
 8409W        W70072  42.781  43.455  14.348
 8410W        W70073   3.874  17.180   4.716
 8411W        W70074  17.167  35.995   3.749
 8412W        W70075  35.858  41.463  14.027
 8413W        W70076   2.725   5.269   0.811
 8414W        W70077  29.566  27.046   3.837
 8415W        W70078   3.872  34.510  13.013
 8416W        W70079  31.950   0.315   1.281
 8417W        W70080  27.049  14.627  13.837
 8418W        W70081  20.536  30.606  11.587
 8419W        W70082  15.695  37.380   2.866
 8420W        W70083  29.503   4.945   3.150
 8421W        W70084   4.214  11.280  10.973
 8422W        W70085  28.008   8.683  14.773
 8423W        W70086  29.450  27.084  11.981
 8424W        W70087  18.762   2.380   0.314
 8425W        W70088  13.623  39.881   2.809
 8426W        W70089  29.634  33.907  11.490
 8427W        W70090  36.517  11.324   3.647
 8428W        W70091  10.282  28.489  14.301
 8429W        W70092  23.530  19.671   2.842
 8430W        W70093   0.911  38.830   4.171
 8431W        W70094  12.752  43.291  12.868
 8432W        W70095  23.162  25.217   0.830
 8433W        W70096   9.333  35.409  13.859
 8434W        W70097  23.500  21.217   3.281
 8435W        W70098   6.806  30.955  14.426
 8436W        W70099  31.627  30.558   4.290
 8437W        W70100   5.839   7.404  14.815
 8438W        W70101  22.632  25.159  12.062
 8439W        W70102  10.373   0.399  12.351
 8440W        W70103  24.000   1.934  10.045
 8441W        W70104   4.359  29.985   3.750
 8442W        W70105   3.950  40.381   3.770
 8443W        W70106  29.545   3.333   3.381
 8444W        W70107   7.670  41.331   0.304
 8445W        W70108  28.003   5.397  11.019
 8446W        W70109  38.953  32.970  10.431
 8447W        W70110  14.282  28.486   1.889
 8448W        W70111  15.315  38.503   1.303
 8449W        W70112  33.928  34.037   1.298
 8450W        W70113  26.505   8.874   2.759
 8451W        W70114  11.314   3.292  12.826
 8452W        W70115  35.550  22.625  14.766
 8453W        W70116  31.004   8.366   2.703
 8454W        W70117  28.481  39.458  13.336
 8455W        W70118  20.693  32.921  14.311
 8456W        W70119   3.715   0.984  12.542
 8457W        W70120  34.984   9.761   3.649
 8458W        W70121   9.676  30.945   4.777
 8459W        W70122  22.558  29.097  14.978
 8460W        W70123  37.928  40.817   3.791
 8461W        W70124  31.081  32.019   2.189
 8462W        W70125  39.048  21.046   4.793
 8463W        W70126  29.161   7.188   3.192
 8464W        W70127  34.554  21.040  10.967
 8465W        W70128   4.896  20.546  11.100
 8466W        W70129  18.664  18.181  13.420
 8467W        W70130  43.504  30.652  14.764
 8468W        W70131   4.786  20.174   2.898
 8469W        W70132  41.495  18.702   1.381
 8470W        W70133  19.701  14.108   1.828
 8471W        W70134  20.228  20.661   2.839
 8472W        W70135  18.696   0.839   1.887
 8473W        W70136  30.971   4.300   1.321
 8474W        W70137  14.707  34.919  13.983
 8475W        W70138   2.804  34.495  14.473
 8476W        W70139  41.019  17.237  13.382
 8477W        W70140   3.848  19.167   1.827
 8478W        W70141  33.912   1.332  14.280
 8479W        W70142  40.836  38.881   3.845
 8480W        W70143  28.090  25.638  12.521
 8481W        W70144   7.184  43.402  12.421
 8482W        W70145  30.424  12.776   1.242
 8483W        W70146  11.318  30.453   0.878
 8484W        W70147  14.795  34.525   0.362
 8485W        W70148   6.378   2.731   1.278
 8486W        W70149  19.213   9.806  12.884
 8487W        W70150  40.350  23.667  10.095
 8488W        W70151  10.785  11.687  12.012
 8489W        W70152  30.654   4.289  10.593
 8490W        W70153  34.997  36.407   4.265
 8491W        W70154  26.542  11.768   4.350
 8492W        W70155  24.617  33.611   3.757
 8493W        W70156  38.033  21.579   3.752
 8494W        W70157  10.207  17.171   3.322
 8495W        W70158  40.453  32.087  11.445
 8496W        W70159  26.686   0.751   2.299
 8497W        W70160  26.551   8.351  13.797
 8498W        W70161  43.881  16.576  13.059
 8499W        W70162  42.458  44.505   3.640
 8500W        W70163   7.865  37.381   0.361
 8501W        W70164  12.854  29.151  13.987
 8502W        W70165  24.630  42.789   4.329
 8503W        W70166  32.995  30.424  10.444
 8504W        W70167  12.184   0.438   4.292
 8505W        W70168  30.546  12.835  10.988
 8506W        W70169  42.862  21.038   1.334
 8507W        W70170  38.906  23.109  14.491
 8508W        W70171  32.461  34.046   2.752
 8509W        W70172  25.178  18.601   4.745
 8510W        W70173  37.011  38.943  10.466
 8511W        W70174  10.790   4.876   1.329
 8512W        W70175  37.432  43.460  11.523
 8513W        W70176  33.020  38.570   3.807
 8514W        W70177  29.008  26.161  14.444
 8515W        W70178  25.039  26.009  13.849
 8516W        W70179  15.305  40.862   3.711
 8517W        W70180  24.045  13.769  13.335
 8518W        W70181   9.769   5.390   2.269
 8519W        W70182   8.803  20.273   4.142
 8520W        W70183  10.370  21.180   0.746
 8521W        W70184  11.148  35.994   1.880
 8522W        W70185  14.268  41.451  10.558
 8523W        W70186   2.431   8.899   3.751
 8524W        W70187  32.496  29.982  10.443
 8525W        W70188   7.785   3.918  10.892
 8526W        W70189   0.299  28.624  12.422
 8527W        W70190   4.321  11.342  14.803
 8528W        W70191  16.221  23.539   2.286
 8529W        W70192  24.537  40.866  14.282
 8530W        W70193  18.292   4.320  14.823
 8531W        W70194  41.858  13.126  10.999
 8532W        W70195  25.994  35.925  14.356
 8533W        W70196  33.624  13.820   1.865
 8534W        W70197  28.455  42.979  10.925
 8535W        W70198  44.381  44.963  12.872
 8536W        W70199  26.481  11.789  14.971
 8537W        W70200  14.291   1.263   1.828
 8538W        W70201  43.413  27.087   3.701
 8539W        W70202  31.897  13.114   4.191
 8540W        W70203   5.401   4.439  13.012
 8541W        W70204  33.020  11.273  13.880
 8542W        W70205   0.944  15.326   3.193
 8543W        W70206  17.209  20.561  12.523
 8544W        W70207  36.875  42.385   1.410
 8545W        W70208   3.218   0.303  12.475
 8546W        W70209  43.501   5.823   4.342
 8547W        W70210  22.521  26.660  10.923
 8548W        W70211   5.850  22.505  11.405
 8549W        W70212  33.432  10.816   5.276
 8550W        W70213  33.432  13.630   3.644
 8551W        W70214  39.953  42.962   4.809
 8552W        W70215  36.918  30.086   1.827
 8553W        W70216  14.288  23.182  12.079
 8554W        W70217  39.460  24.973  14.935
 8555W        W70218  31.590   4.246  14.282
 8556W        W70219  38.328  12.339  12.998
 8557W        W70220  36.841   1.811   4.635
 8558W        W70221   0.469   8.263   2.783
 8559W        W70222  16.601  15.718  13.371
 8560W        W70223  41.917   0.790  14.989
 8561W        W70224  43.445  44.846   2.868
 8562W        W70225  34.464  42.024  10.891
 8563W        W70226  21.664  23.134  11.399
 8564W        W70227   8.821  20.709   3.836
 8565W        W70228  40.006  10.247   2.336
 8566W        W70229  41.802   0.268   2.252
 8567W        W70230  21.733  23.655  11.121
 8568W        W70231  37.466  15.776   1.854
 8569W        W70232   5.701   9.829  12.877
 8570W        W70233  12.633  24.069  13.940
 8571W        W70234  12.138  28.986  14.317
 8572W        W70235   1.834  11.798  11.898
 8573W        W70236  24.109  16.193  11.856
 8574W        W70237  14.600  10.206   3.217
 8575W        W70238  37.495  12.188   4.335
 8576W        W70239   5.913   2.270  14.782
 8577W        W70240  44.485   6.246  10.989
 8578W        W70241  24.586  21.584  12.340
 8579W        W70242  36.507  33.927   0.898
 8580W        W70243  27.118  36.508  14.796
 8581W        W70244  19.074  34.013   4.134
 8582W        W70245  29.517  43.458   0.287
 8583W        W70246  29.574  14.229  13.061
 8584W        W70247  24.039  26.160   3.315
 8585W        W70248   9.262  14.260  11.500
 8586W        W70249  17.063  34.536   0.329
 8587W        W70250  14.133  33.608   4.319
 8588W        W70251  31.116  36.460  12.859
 8589W        W70252  15.125  23.688   4.309
 8590W        W70253  33.411  25.690   1.240
 8591W        W70254  37.018   8.198   5.277
 8592W        W70255  12.204  18.596  13.999
 8593W        W70256  37.442  26.138  10.439
 8594W        W70257  42.888  44.813  10.474
 8595W        W70258  38.559  18.231  11.385
 8596W        W70259  34.015  38.074  11.118
 8597W        W70260   0.985  44.975   3.198
 8598W        W70261   0.842  17.274  11.407
 8599W        W70262  10.721  24.073   0.392
 8600W        W70263  38.516  32.564   4.120
 8601W        W70264  40.873  39.947  11.471
 8602W        W70265  10.808  33.940   0.367
 8603W        W70266  27.134  29.425  13.041
 8604W        W70267  36.357  10.772   3.255
 8605W        W70268  39.553   8.894  11.571
 8606W        W70269  10.221   6.697  13.874
 8607W        W70270  31.436  38.509   3.850
 8608W        W70271   0.789  37.439  10.440
 8609W        W70272   5.701  28.154  14.937
 8610W        W70273   3.352  16.268   3.696
 8611W        W70274   9.742  14.298   2.416
 8612W        W70275  28.987   8.826  14.493
 8613W        W70276   3.393   8.769  12.426
 8614W        W70277  17.155  15.173  13.437
 8615W        W70278  27.164  15.691   2.866
 8616W        W70279   7.819  43.930   2.732
 8617W        W70280  14.129  44.940   1.448
 8618W        W70281  31.122   9.184   0.746
 8619W        W70282  27.536  35.926   2.179
 8620W        W70283  21.592  40.964  13.953
 8621W        W70284  23.205  42.509  12.954
 8622W        W70285  11.768  18.084   3.203
 8623W        W70286  15.719  24.678   1.437
 8624W        W70287  28.471   3.444   3.233
 8625W        W70288  16.633   7.174   0.413
 8626W        W70289  10.746  42.473  14.411
 8627W        W70290  38.377  42.521  10.435
 8628W        W70291   1.318  40.454  14.852
 8629W        W70292  43.835  34.001  12.385
 8630W        W70293  31.514  22.574  13.934
 8631W        W70294  38.416  20.651   0.307
 8632W        W70295  37.423  40.386  11.989
 8633W        W70296  33.053  34.424  11.546
 8634W        W70297  25.127  25.178  12.366
 8635W        W70298  22.043  39.884  11.875
 8636W        W70299   0.278  15.608   4.655
 8637W        W70300  19.708   3.343   4.139
 8638W        W70301  10.828  28.587  13.340
 8639W        W70302  35.913  39.333  12.566
 8640W        W70303  15.622  38.978   0.288
 8641W        W70304  13.310  12.834   5.176
 8642W        W70305  37.516   8.165  11.476
 8643W        W70306  44.342  32.474  10.581
 8644W        W70307  30.469  42.775  13.407
 8645W        W70308  28.150  30.423  10.445
 8646W        W70309  25.509  12.349   2.742
 8647W        W70310   4.409   7.330   3.326
 8648W        W70311  23.074  14.286   1.320
 8649W        W70312  22.631   9.764  12.395
 8650W        W70313  41.007   5.337   3.298
 8651W        W70314  20.153  38.992  11.890
 8652W        W70315  31.948  14.248  12.024
 8653W        W70316  18.073  20.723   2.903
 8654W        W70317  24.122  19.551   2.395
 8655W        W70318  31.468  28.680  14.902
 8656W        W70319  43.378  27.524   4.695
 8657W        W70320  39.837   7.256   0.916
 8658W        W70321  30.064  20.092  13.449
 8659W        W70322  30.469  17.647  12.978
 8660W        W70323   6.352  30.414  12.388
 8661W        W70324  44.801  31.641   1.765
 8662W        W70325  12.150  11.794  14.988
 8663W        W70326  24.538  14.134   3.798
 8664W        W70327   4.702   0.450  12.875
 8665W        W70328   7.679  36.934  11.892
 8666W        W70329  22.538  16.700  14.342
 8667W        W70330  25.026  11.783  12.519
 8668W        W70331  23.568  41.292   5.175
 8669W        W70332  19.187   5.366  13.983
 8670W        W70333  19.193   3.883   1.232
 8671W        W70334   5.208  42.797   3.147
 8672W        W70335  27.651  32.487   2.871
 8673W        W70336  42.325  21.624  12.848
 8674W        W70337  41.384  27.964   1.783
 8675W        W70338  15.279   5.689   4.730
 8676W        W70339   0.861  33.074   2.796
 8677W        W70340   1.777  37.376  10.534
 8678W        W70341  12.357  16.180  14.335
 8679W        W70342  18.670  35.360  11.541
 8680W        W70343  32.391   1.809  14.401
 8681W        W70344  15.250  28.956   4.602
 8682W        W70345  41.437  30.435   3.760
 8683W        W70346  35.929  10.354  14.427
 8684W        W70347   4.882  31.637  14.908
 8685W        W70348  16.197  30.107  14.965
 8686W        W70349  12.245  39.494   3.698
 8687W        W70350   6.379  38.852  10.063
 8688W        W70351  19.041   2.296  14.514
 8689W        W70352  21.521  39.934   0.854
 8690W        W70353  22.548  34.030  12.511
 8691W        W70354  33.613  37.493   5.198
 8692W        W70355   4.847  40.348  14.393
 8693W        W70356  20.573  20.600   3.353
 8694W        W70357   5.311  44.272   3.267
 8695W        W70358  30.064  21.664  14.864
 8696W        W70359  31.110  28.538   4.341
 8697W        W70360  30.528   0.820  12.093
 8698W        W70361  21.189  41.825   0.828
 8699W        W70362  32.027  26.125  12.045
 8700W        W70363  34.872  17.173  13.946
 8701W        W70364  18.693  31.018   1.410
 8702W        W70365   1.275  30.602   3.730
 8703W        W70366  21.512   9.174   3.723
 8704W        W70367  13.617  10.355   3.698
 8705W        W70368  17.096  39.064   0.893
 8706W        W70369  29.973  23.123   4.316
 8707W        W70370   1.262  20.044  12.059
 8708W        W70371  42.429  41.888  10.455
 8709W        W70372  20.541  23.117  14.762
 8710W        W70373  36.361  22.058   1.866
 8711W        W70374  13.699  16.230  12.049
 8712W        W70375  29.085  44.868  11.609
 8713W        W70376  29.544  30.505  11.440
 8714W        W70377  33.535  29.656  11.498
 8715W        W70378   3.814  40.490   4.643
 8716W        W70379  20.678   3.954  11.120
 8717W        W70380  27.615  35.538  13.889
 8718W        W70381  28.123  13.731  12.563
 8719W        W70382  22.050  43.012   2.372
 8720W        W70383  19.095  11.274  12.517
 8721W        W70384   3.347  25.207  10.517
 8722W        W70385  20.165  34.107  13.475
 8723W        W70386   9.830  11.861  14.803
 8724W        W70387  39.495  35.088   0.317
 8725W        W70388   2.906  19.685  14.373
 8726W        W70389  36.944   0.794   3.367
 8727W        W70390  21.038  39.000   5.265
 8728W        W70391  39.049   7.299  12.085
 8729W        W70392  34.387  17.655   3.645
 8730W        W70393   6.776  18.100   1.698
 8731W        W70394  34.009  20.593  11.934
 8732W        W70395  35.873  24.080  10.988
 8733W        W70396  31.075  21.047  14.487
 8734W        W70397  24.695  31.531  12.903
 8735W        W70398  16.707  29.470  13.354
 8736W        W70399   3.907  14.097   3.787
 8737W        W70400  44.841  29.134   2.233
 8738W        W70401  22.253  43.902   3.646
 8739W        W70402   2.283  42.448  12.447
 8740W        W70403   1.926  42.033  14.011
 8741W        W70404   4.402  39.471   4.742
 8742W        W70405  39.827   4.324  13.533
 8743W        W70406  18.729  32.061   1.346
 8744W        W70407  42.283  19.584   3.322
 8745W        W70408   6.880   2.935  13.054
 8746W        W70409   8.685  13.214  14.967
 8747W        W70410  34.088  25.105  13.013
 8748W        W70411  14.170  39.319   3.279
 8749W        W70412  20.207  16.802   0.934
 8750W        W70413  36.542  32.488   0.322
 8751W        W70414   8.333  28.080   3.341
 8752W        W70415   6.284  25.147  14.872
 8753W        W70416  14.659   8.169  12.892
 8754W        W70417   8.702  43.455  14.790
 8755W        W70418  13.756   9.301   3.219
 8756W        W70419  43.870  38.559  11.404
 8757W        W70420  41.393   6.825   3.759
 8758W        W70421   4.378   3.942   2.182
 8759W        W70422   9.385  23.138  12.004
 8760W        W70423  10.177  35.918  11.870
 8761W        W70424  19.682  44.396  14.462
 8762W        W70425   7.322  28.042   3.240
 8763W        W70426   2.814  19.205  12.038
 8764W        W70427  30.470  29.486   3.713
 8765W        W70428  17.155  35.546  12.899
 8766W        W70429   1.263   3.294   1.295
 8767W        W70430  24.977  31.635   1.339
 8768W        W70431  10.747   9.794   4.806
 8769W        W70432  20.066  11.659   4.660
 8770W        W70433  39.406  27.190   0.469
 8771W        W70434  41.502  23.720  11.911
 8772W        W70435  12.319  16.132  12.005
 8773W        W70436  37.496  16.805   0.437
 8774W        W70437  24.122  10.227   2.718
 8775W        W70438   2.358  23.104   1.801
 8776W        W70439   0.744  21.632   3.157
 8777W        W70440  23.612   5.825  14.874
 8778W        W70441   0.255   6.793  12.572
 8779W        W70442  10.220  15.765  14.912
 8780W        W70443  23.151  18.787   3.324
 8781W        W70444  20.732  14.181  14.938
 8782W        W70445  17.700  33.419   2.751
 8783W        W70446  11.779  39.524   9.593
 8784W        W70447  22.144  16.655  13.373
 8785W        W70448  39.496  14.769   3.353
 8786W        W70449  35.407  15.704   3.782
 8787W        W70450  12.314  10.786   1.762
 8788W        W70451   0.452  28.167  14.399
 8789W        W70452  17.153  13.675  12.984
 8790W        W70453  43.303  35.383  12.066
 8791W        W70454  14.125  17.764  14.336
 8792W        W70455   3.844   5.230   2.731
 8793W        W70456  19.230  35.576  14.019
 8794W        W70457  24.130   8.346  12.505
 8795W        W70458  35.976   6.221   2.185
 8796W        W70459  39.943  11.843   4.734
 8797W        W70460  29.458  24.141  13.915
 8798W        W70461  33.512   0.929   3.206
 8799W        W70462  38.483  35.079  12.456
 8800W        W70463  32.966  32.429   1.895
 8801W        W70464  35.537   9.159   4.136
 8802W        W70465  15.272  27.130   2.325
 8803W        W70466  18.083  37.572  14.769
 8804W        W70467  36.552  22.597  12.944
 8805W        W70468  40.369  24.010   2.882
 8806W        W70469  37.883  32.057  10.989
 8807W        W70470  23.127  34.504   3.168
 8808W        W70471  10.320   1.381  13.006
 8809W        W70472  32.073  31.454   2.180
 8810W        W70473  17.114  16.813   4.737
 8811W        W70474  39.871  10.157   0.741
 8812W        W70475  12.187  42.982   4.646
 8813W        W70476  44.368  29.607   1.855
 8814W        W70477  21.697  37.077  14.911
 8815W        W70478  21.087  31.045   2.818
 8816W        W70479  42.966  34.987  14.443
 8817W        W70480  26.472  33.451   2.368
 8818W        W70481   5.312  10.159   2.388
 8819W        W70482  39.813   8.189   4.716
 8820W        W70483  27.672  17.606  12.442
 8821W        W70484   6.284  40.958  14.366
 8822W        W70485  19.701  36.939  12.523
 8823W        W70486  13.744   0.412  14.952
 8824W        W70487  16.131  28.435   0.902
 8825W        W70488  29.938  40.537   5.251
 8826W        W70489   3.307   2.456   0.825
 8827W        W70490  27.000  30.133   4.674
 8828W        W70491  29.106  31.036   1.446
 8829W        W70492  34.939   0.812   5.194
 8830W        W70493  10.283  20.707  14.499
 8831W        W70494  31.532  32.392  14.337
 8832W        W70495  36.560   0.326   3.155
 8833W        W70496  24.493  35.381   0.829
 8834W        W70497  36.038  42.289   4.775
 8835W        W70498  23.604  21.207  13.906
 8836W        W70499  16.584  20.750   1.399
 8837W        W70500   2.805  38.570  10.968
 8838W        W70501   7.701  41.503  11.095
 8839W        W70502   9.852  23.557   3.836
 8840W        W70503  32.437  20.066  11.510
 8841W        W70504  14.668  27.188   3.799
 8842W        W70505  24.996  23.158   2.865
 8843W        W70506  25.008  37.521   2.351
 8844W        W70507  16.169   4.766   0.730
 8845W        W70508  34.525  13.228   0.919
 8846W        W70509  22.106  44.322  13.479
 8847W        W70510  31.587   4.909   0.344
 8848W        W70511  10.195  36.372   1.213
 8849W        W70512  37.491  29.045   1.271
 8850W        W70513  20.269  39.914   1.274
 8851W        W70514   6.345  39.943  12.515
 8852W        W70515  18.221  39.926   4.774
 8853W        W70516  27.074  35.916  12.894
 8854W        W70517   7.806   2.933  13.934
 8855W        W70518  41.938  38.498  13.378
 8856W        W70519  19.268  44.264  14.373
 8857W        W70520  41.960  12.157  11.497
 8858W        W70521  36.976  11.743  12.936
 8859W        W70522  15.631  11.341  13.853
 8860W        W70523  25.177  35.567  11.501
 8861W        W70524  23.678  14.660  13.469
 8862W        W70525  40.354  23.591   2.381
 8863W        W70526  21.754   7.750   0.286
 8864W        W70527  40.829   0.958   2.268
 8865W        W70528  33.984  38.057  14.923
 8866W        W70529  41.003  34.944  14.424
 8867W        W70530  43.825   2.398   3.188
 8868W        W70531  36.381  27.190   3.701
 8869W        W70532  18.608  29.643   2.260
 8870W        W70533  39.848  33.921   0.412
 8871W        W70534   3.923  33.437  13.391
 8872W        W70535  26.474  12.644  13.373
 8873W        W70536  10.193   2.391   4.777
 8874W        W70537  32.493  40.432  12.937
 8875W        W70538  21.715  10.261   4.190
 8876W        W70539  15.130  31.995   0.904
 8877W        W70540   0.290  39.976   0.380
 8878W        W70541  15.092   7.353  14.493
 8879W        W70542   8.367  18.264   1.221
 8880W        W70543  18.083  28.573   2.721
 8881W        W70544   7.388  35.080   2.790
 8882W        W70545  19.729  28.449   2.813
 8883W        W70546   5.845  44.900   3.836
 8884W        W70547   7.315  14.114   0.408
 8885W        W70548  35.940  24.627  13.809
 8886W        W70549  22.617  23.508  10.478
 8887W        W70550  41.474  35.493   1.330
 8888W        W70551  15.202   1.919   0.789
 8889W        W70552  10.318  29.096   3.662
 8890W        W70553  37.012   7.388  12.955
 8891W        W70554  44.331  31.009  13.430
 8892W        W70555   6.401   3.450  14.899
 8893W        W70556  38.397  12.234   4.190
 8894W        W70557  43.380  30.948   2.739
 8895W        W70558   8.286   6.776  12.925
 8896W        W70559   1.873  12.711   2.315
 8897W        W70560  15.234   2.401   4.143
 8898W        W70561   7.192  15.184   4.184
 8899W        W70562  17.625  34.515  11.465
 8900W        W70563  29.149  43.859   4.751
 8901W        W70564  23.146  25.029   1.815
 8902W        W70565  10.775  16.628  13.983
 8903W        W70566  30.518  18.078   3.153
 8904W        W70567  25.663  13.658  13.370
 8905W        W70568  29.569  26.036   4.268
 8906W        W70569  42.494  30.525  11.010
 8907W        W70570  19.189  20.198  10.904
 8908W        W70571   7.242  28.074  14.391
 8909W        W70572  13.262  16.122  14.340
 8910W        W70573   2.230   8.797  14.291
 8911W        W70574  13.695   4.398   2.215
 8912W        W70575   8.303  43.343   2.786
 8913W        W70576   8.211  29.584  10.528
 8914W        W70577  11.283  10.780   3.247
 8915W        W70578  18.562  19.120  11.566
 8916W        W70579  13.680   4.303   0.849
 8917W        W70580  29.009  26.672   5.192
 8918W        W70581  28.642  30.595   1.720
 8919W        W70582  14.131   5.895   2.188
 8920W        W70583  23.214  19.219   2.885
 8921W        W70584   0.308  11.804  13.347
 8922W        W70585  13.757   5.828  14.883
 8923W        W70586  22.147  20.225  10.451
 8924W        W70587  27.634  14.238  11.024
 8925W        W70588  35.602  43.316  10.491
 8926W        W70589  31.609  18.770  12.906
 8927W        W70590   8.686  39.351   0.959
 8928W        W70591  28.670  28.117  12.379
 8929W        W70592  44.804  25.509   3.151
 8930W        W70593  11.145  11.810   0.769
 8931W        W70594  38.567  42.807   0.816
 8932W        W70595  43.832   1.776  10.912
 8933W        W70596  18.695  31.560  12.461
 8934W        W70597  44.816  10.752   0.348
 8935W        W70598   8.222   4.230  11.939
 8936W        W70599  40.885  36.947  14.884
 8937W        W70600  10.648   0.784   0.763
 8938W        W70601  42.911  20.053  11.501
 8939W        W70602  35.938  10.304  12.412
 8940W        W70603  16.600  33.406  11.017
 8941W        W70604  23.617  29.017  12.451
 8942W        W70605   2.438   0.836   1.892
 8943W        W70606  18.584   4.905  10.560
 8944W        W70607   2.263  19.535  10.529
 8945W        W70608  37.933   7.209  13.513
 8946W        W70609  41.824  31.951   4.133
 8947W        W70610  32.426  13.268   4.225
 8948W        W70611  28.673  11.846  12.469
 8949W        W70612   2.277  29.446  11.890
 8950W        W70613  13.209   5.383  10.570
 8951W        W70614  29.523  28.583   1.918
 8952W        W70615  31.421  37.930  13.322
 8953W        W70616  12.355  14.289  13.437
 8954W        W70617  18.155  39.836  12.341
 8955W        W70618  34.102  10.877  13.942
 8956W        W70619  42.484   4.841  13.412
 8957W        W70620  34.514  12.229   2.280
 8958W        W70621   2.236  43.310   0.299
 8959W        W70622  29.530  29.573  13.911
 8960W        W70623  34.009  13.208  10.894
 8961W        W70624   4.775   3.838  12.037
 8962W        W70625  20.722  34.514   0.325
 8963W        W70626  26.045  12.812   1.808
 8964W        W70627  44.780  15.720   1.787
 8965W        W70628  14.138  24.982  13.478
 8966W        W70629  33.898  38.955  10.959
 8967W        W70630  21.522  11.863   3.787
 8968W        W70631  25.064  31.916  12.441
 8969W        W70632  31.934  29.046   3.763
 8970W        W70633  31.468  16.107  14.363
 8971W        W70634  25.203   2.374  12.074
 8972W        W70635   7.752   7.296   0.846
 8973W        W70636   0.352  11.768   0.759
 8974W        W70637  12.634  34.998   4.712
 8975W        W70638  16.292   2.286   3.717
 8976W        W70639  34.565  14.623  12.061
 8977W        W70640  32.410  12.630  10.628
 8978W        W70641  18.096  32.121  12.998
 8979W        W70642  24.534  31.539  11.010
 8980W        W70643  43.785  31.063  11.021
 8981W        W70644  36.077   6.213  12.911
 8982W        W70645  23.654  30.926  14.387
 8983W        W70646  33.444  23.706  10.583
 8984W        W70647   6.416   3.786  13.396
 8985W        W70648  24.020  19.265   4.605
 8986W        W70649  28.054  11.866   2.762
 8987W        W70650  13.114  21.045   5.234
 8988W        W70651  32.606   5.399   4.717
 8989W        W70652  15.786  42.517   4.821
 8990W        W70653  41.989   2.876  14.013
 8991W        W70654  22.598  40.506   3.700
 8992W        W70655  16.628  21.176  14.923
 8993W        W70656   5.920   0.984   4.687
 8994W        W70657   7.760  23.034   1.865
 8995W        W70658  11.759  33.466  10.951
 8996W        W70659  29.979  21.701   4.314
 8997W        W70660   9.349  24.646  14.941
 8998W        W70661   4.219  11.279   0.369
 8999W        W70662  29.152  35.375   3.744
 9000W        W70663  43.350  33.578   1.749
 9001W        W70664  12.701  38.901   1.447
 9002W        W70665  13.318  42.031   4.710
 9003W        W70666  43.982   5.744   3.643
 9004W        W70667   8.208  33.000   4.266
 9005W        W70668  38.886  39.477   5.199
 9006W        W70669  28.453   5.710   0.851
 9007W        W70670  15.699  41.293   1.754
 9008W        W70671   9.812  16.227   3.372
 9009W        W70672   1.237  40.437  12.999
 9010W        W70673  14.824  18.656  14.799
 9011W        W70674   2.471   1.795  11.881
 9012W        W70675  12.631  25.703   1.762
 9013W        W70676  30.458  26.650  11.027
 9014W        W70677  27.974  15.616  13.514
 9015W        W70678  39.055  31.956  13.311
 9016W        W70679  10.346  37.545   2.813
 9017W        W70680  35.376   9.868  14.871
 9018W        W70681  11.373  38.348   4.223
 9019W        W70682  27.940  25.205  11.984
 9020W        W70683   7.755  13.833   0.435
 9021W        W70684  36.079  22.524   4.188
 9022W        W70685  25.030  42.961   2.669
 9023W        W70686   0.780   0.754   1.730
 9024W        W70687   0.975  28.962  11.478
 9025W        W70688  21.030  34.429   3.636
 9026W        W70689  20.692  34.546  13.844
 9027W        W70690  31.030   7.289  11.907
 9028W        W70691  17.682  16.188  11.999
 9029W        W70692  28.994  38.397  12.832
 9030W        W70693  29.144   7.675  10.594
 9031W        W70694   2.724  39.884   2.879
 9032W        W70695  42.937  27.008  13.334
 9033W        W70696   5.794  31.404   1.351
 9034W        W70697  27.178  34.613  11.441
 9035W        W70698  23.628  13.615   1.785
 9036W        W70699  17.702  28.441  14.492
 9037W        W70700  10.766  22.174   2.411
 9038W        W70701  31.511  19.260   2.235
 9039W        W70702  14.596  30.649  11.573
 9040W        W70703  32.014  27.189  10.609
 9041W        W70704   0.287  22.123  10.992
 9042W        W70705  37.892  11.775  10.554
 9043W        W70706  11.201  43.885   4.173
 9044W        W70707  19.195  11.836   1.440
 9045W        W70708  26.632   0.760  12.433
 9046W        W70709  42.375   1.438  13.972
 9047W        W70710  24.065  38.973   0.326
 9048W        W70711   2.747   7.746  10.536
 9049W        W70712   2.740   4.817   2.185
 9050W        W70713   6.757  21.219  14.901
 9051W        W70714  34.404   7.822  11.918
 9052W        W70715  27.031  30.481  14.030
 9053W        W70716  36.484  28.997   3.172
 9054W        W70717  17.227  24.554  13.402
 9055W        W70718  20.235   8.215  13.004
 9056W        W70719  10.696  29.098  13.482
 9057W        W70720  37.504  18.274  14.362
 9058W        W70721  42.839   5.215   1.757
 9059W        W70722   0.286   6.874  11.386
 9060W        W70723  37.352  42.336   4.325
 9061W        W70724  17.705  12.818   5.575
 9062W        W70725  16.237  44.876  12.555
 9063W        W70726   2.856  20.657   1.273
 9064W        W70727  39.521  15.577  13.530
 9065W        W70728   6.240  23.023  12.515
 9066W        W70729   8.813  24.617   2.353
 9067W        W70730  25.068  39.972   1.849
 9068W        W70731  28.591  29.439  13.997
 9069W        W70732  13.255  38.543   1.323
 9070W        W70733  26.598  29.957  13.368
 9071W        W70734  11.868  37.430  10.153
 9072W        W70735  31.147   9.793  11.116
 9073W        W70736  12.176  24.480  13.008
 9074W        W70737   8.829   1.964  14.873
 9075W        W70738   0.306   9.238   3.322
 9076W        W70739  27.008  11.149   2.661
 9077W        W70740  28.640  44.262  12.055
 9078W        W70741  41.417  23.608  13.407
 9079W        W70742   0.797  27.543   4.830
 9080W        W70743  25.211  24.084  13.497
 9081W        W70744  14.117  39.454  13.895
 9082W        W70745  25.192  39.055   3.821
 9083W        W70746  30.031  38.568   1.405
 9084W        W70747  11.647  17.617  14.854
 9085W        W70748   2.818   9.815   3.166
 9086W        W70749   2.360  27.117  14.370
 9087W        W70750  28.586  39.990   4.210
 9088W        W70751   8.167  43.464  14.359
 9089W        W70752  10.730  37.923  13.862
 9090W        W70753  19.558  30.908  14.321
 9091W        W70754  29.649  28.058   1.839
 9092W        W70755  21.529   5.353   1.758
 9093W        W70756  36.851  40.914   1.284
 9094W        W70757  11.281  27.016   4.759
 9095W        W70758   4.247  38.429   0.953
 9096W        W70759  13.136  39.868   9.994
 9097W        W70760  16.732  26.034   3.829
 9098W        W70761   9.774  30.456  13.356
 9099W        W70762  32.604  26.984  13.823
 9100W        W70763   4.365  40.867   4.720
 9101W        W70764  10.652   2.771   0.775
 9102W        W70765  31.103  39.825   2.889
 9103W        W70766  20.541  10.638  11.490
 9104W        W70767  30.104  10.217  11.456
 9105W        W70768  39.373  29.997  13.544
 9106W        W70769  44.444  32.411   1.767
 9107W        W70770  23.141  44.796  11.551
 9108W        W70771  28.068  43.407   0.424
 9109W        W70772  24.696  42.968  13.004
 9110W        W70773   5.425  42.374   0.275
 9111W        W70774   7.752  41.459   4.632
 9112W        W70775  24.221  44.491  13.863
 9113W        W70776  40.508  20.606  13.345
 9114W        W70777  22.691   3.883  10.934
 9115W        W70778  13.321  11.706   3.646
 9116W        W70779  20.056  40.331   4.340
 9117W        W70780  11.140  29.571  11.983
 9118W        W70781   7.328  11.205  12.447
 9119W        W70782  42.365   3.810  11.917
 9120W        W70783   0.287   5.819  14.916
 9121W        W70784  12.252   5.785   1.925
 9122W        W70785  20.245  42.518   1.850
 9123W        W70786  34.967  35.073  12.979
 9124W        W70787   4.874   0.307  13.522
 9125W        W70788  13.265  34.399  14.914
 9126W        W70789  19.764  25.169  10.934
 9127W        W70790  21.213   6.290   0.855
 9128W        W70791  19.692  20.737   0.831
 9129W        W70792   2.443   6.842  12.031
 9130W        W70793  19.042   3.417  13.364
 9131W        W70794   9.284  40.920   4.211
 9132W        W70795  20.053  21.741  12.978
 9133W        W70796   9.160  18.075   4.326
 9134W        W70797  16.665  14.193   1.788
 9135W        W70798   2.274  36.942  14.465
 9136W        W70799  31.591  25.482  13.791
 9137W        W70800  32.629  42.017   4.726
 9138W        W70801   8.403  36.866  13.976
 9139W        W70802  23.038  23.535   4.216
 9140W        W70803  37.501  15.583   4.664
 9141W        W70804   6.687   4.267   1.280
 9142W        W70805   7.178  37.577  11.902
 9143W        W70806  12.749  31.096   0.893
 9144W        W70807  44.761  11.776   1.860
 9145W        W70808  10.166  29.666   4.319
 9146W        W70809   1.268  40.917  12.388
 9147W        W70810  14.186  21.654   0.851
 9148W        W70811  38.554  40.391  14.384
 9149W        W70812  42.485  44.829  10.552
 9150W        W70813  12.254  17.654  13.353
 9151W        W70814  26.031   6.320  13.544
 9152W        W70815  11.718   9.224   3.658
 9153W        W70816  13.112  29.507  13.859
 9154W        W70817  28.148  12.674  12.469
 9155W        W70818  19.761   9.808   1.419
 9156W        W70819  38.822  33.426   2.773
 9157W        W70820   5.898   4.888  11.589
 9158W        W70821  30.436  14.745   0.856
 9159W        W70822   4.316   0.770  13.319
 9160W        W70823  38.447  16.655   3.854
 9161W        W70824  34.512  25.680   1.279
 9162W        W70825  13.706  21.702  11.530
 9163W        W70826   9.717   1.247   4.627
 9164W        W70827  34.588  42.991  14.290
 9165W        W70828  24.976  19.190  12.901
 9166W        W70829  17.661  14.626  12.878
 9167W        W70830  11.137   9.725  11.462
 9168W        W70831  14.754   7.328  10.974
 9169W        W70832  24.510  24.004   3.308
 9170W        W70833  19.698  43.821  12.976
 9171W        W70834  37.955  30.067  10.422
 9172W        W70835  26.615  44.447   3.168
 9173W        W70836  26.047  17.637   3.153
 9174W        W70837  20.651  17.241   2.775
 9175W        W70838  11.184  35.394   3.755
 9176W        W70839  36.563  42.306  12.941
 9177W        W70840  23.513  44.407   0.928
 9178W        W70841  29.948  18.142   0.935
 9179W        W70842  35.476  10.872  11.387
 9180W        W70843   7.410   2.905   4.285
 9181W        W70844   7.680  28.004   3.204
 9182W        W70845  26.621  23.517  11.117
 9183W        W70846   7.732  21.595  14.276
 9184W        W70847   8.769  20.655  12.419
 9185W        W70848  25.541  34.090   3.354
 9186W        W70849  24.495  39.541  14.323
 9187W        W70850  43.849  33.528   3.316
 9188W        W70851   5.239  29.981   3.299
 9189W        W70852  42.389  15.657   4.651
 9190W        W70853  29.450  17.304  13.374
 9191W        W70854  14.110   7.677   0.881
 9192W        W70855  16.228  36.538  10.462
 9193W        W70856  24.594  21.201   1.719
 9194W        W70857  39.976   4.812   0.375
 9195W        W70858  30.125   6.311  11.551
 9196W        W70859  27.563  44.970   1.924
 9197W        W70860  15.581  25.508  12.017
 9198W        W70861  31.543  20.110  10.941
 9199W        W70862  42.348  22.206  14.899
 9200W        W70863  38.429  35.436   4.615
 9201W        W70864   5.854  21.637   2.765
 9202W        W70865  40.359  38.383  11.606
 9203W        W70866  31.023  41.485  12.824
 9204W        W70867  27.090  25.502   3.163
 9205W        W70868  33.431   6.325  12.050
 9206W        W70869  12.275  17.662   1.291
 9207W        W70870  43.892  14.230  12.963
 9208W        W70871  37.527  12.764  11.938
 9209W        W70872  38.927  42.482  14.441
 9210W        W70873  27.135   4.746   1.223
 9211W        W70874  31.898  30.445   4.652
 9212W        W70875   2.417  43.832   0.266
 9213W        W70876  33.981   3.815   4.324
 9214W        W70877  44.878  11.248  10.515
 9215W        W70878  30.050  22.149   0.801
 9216W        W70879  33.429  10.849  11.855
 9217W        W70880  24.616  17.603   1.790
 9218W        W70881   8.700   1.922  12.969
 9219W        W70882  15.612  27.592   0.360
 9220W        W70883   6.312  37.913  12.885
 9221W        W70884  22.027  32.418   3.164
 9222W        W70885   4.332  40.933   2.739
 9223W        W70886  16.638  29.460  11.527
 9224W        W70887   3.393  37.468   4.705
 9225W        W70888  10.331  41.370  12.456
 9226W        W70889   9.197   1.827   1.898
 9227W        W70890  36.548  11.652   9.942
 9228W        W70891  15.809  43.423   0.453
 9229W        W70892  14.095  36.448   2.881
 9230W        W70893   8.364  18.720   0.404
 9231W        W70894   2.859  21.571  12.840
 9232W        W70895  15.740  16.726  13.548
 9233W        W70896  27.457  28.633  10.472
 9234W        W70897  11.190  21.223  11.119
 9235W        W70898  35.954  33.540   3.296
 9236W        W70899  30.926  31.412   3.222
 9237W        W70900  36.487  24.704   4.786
 9238W        W70901  40.927   6.333   5.704
 9239W        W70902  16.611   5.256   4.209
 9240W        W70903  15.128  39.420  11.883
 9241W        W70904  14.683  19.084  12.989
 9242W        W70905  21.059   3.361   0.744
 9243W        W70906  14.301  18.214  11.938
 9244W        W70907   7.176  33.389  11.498
 9245W        W70908  41.476   3.432  10.424
 9246W        W70909  44.490  36.974  13.448
 9247W        W70910  42.390   7.725   2.340
 9248W        W70911  42.825   9.844   5.145
 9249W        W70912   1.311   8.371  13.848
 9250W        W70913  21.513  42.414   0.857
 9251W        W70914  12.292  11.343   1.396
 9252W        W70915  27.087  38.861  10.929
 9253W        W70916  18.779   7.700  12.050
 9254W        W70917   8.810  42.025   3.745
 9255W        W70918   7.307  18.767   5.193
 9256W        W70919  30.499   0.320  13.062
 9257W        W70920  15.217  23.183   4.322
 9258W        W70921  39.415  30.007  12.840
 9259W        W70922  32.425  28.076  10.973
 9260W        W70923  43.329  18.146  14.277
 9261W        W70924   5.698  29.567   0.826
 9262W        W70925  33.043  26.040  11.895
 9263W        W70926  17.253  30.022   4.698
 9264W        W70927   1.893  10.835   2.677
 9265W        W70928  31.028   7.801  11.986
 9266W        W70929  18.693  12.657   4.649
 9267W        W70930  10.728  34.045   2.298
 9268W        W70931  12.324   6.229  13.926
 9269W        W70932   4.860  16.770   3.834
 9270W        W70933  37.463  19.089  12.424
 9271W        W70934  38.374  27.588   4.140
 9272W        W70935  40.419  42.016  12.035
 9273W        W70936  26.143  15.161   0.456
 9274W        W70937  32.947  35.047   0.880
 9275W        W70938   6.385  25.978  11.025
 9276W        W70939  43.900  36.587  12.535
 9277W        W70940  26.618  13.301  13.966
 9278W        W70941  28.546  32.451  10.622
 9279W        W70942  31.062  18.732  11.980
 9280W        W70943   7.835  32.051  10.027
 9281W        W70944  34.397  25.569  11.027
 9282W        W70945  25.176   5.198   4.184
 9283W        W70946  23.502   7.241   0.412
 9284W        W70947   9.647   3.309   1.216
 9285W        W70948  29.976  42.840   1.865
 9286W        W70949  19.708  21.727   2.736
 9287W        W70950  10.785  42.927  10.527
 9288W        W70951  43.381  19.213   0.787
 9289W        W70952  25.545   4.775   2.398
 9290W        W70953   7.253  31.936  12.979
 9291W        W70954  25.088   6.360   4.307
 9292W        W70955  23.660  32.585   3.157
 9293W        W70956  34.396  17.708  10.522
 9294W        W70957  38.536  19.728  11.607
 9295W        W70958  38.459   4.766  11.930
 9296W        W70959  15.767   3.333   2.244
 9297W        W70960  21.577  17.785   0.797
 9298W        W70961  14.324   1.476   0.346
 9299W        W70962   6.340  43.350   4.798
 9300W        W70963   0.760   9.359   5.181
 9301W        W70964  11.236  30.913   4.758
 9302W        W70965  26.655   0.843   4.738
 9303W        W70966  41.335  36.456  14.948
 9304W        W70967  23.526  20.557  11.918
 9305W        W70968   0.805  26.625  14.961
 9306W        W70969  36.364   0.373   4.159
 9307W        W70970  29.624   8.754  13.828
 9308W        W70971  35.881  44.443   0.253
 9309W        W70972  21.037  27.598  11.061
 9310W        W70973  36.099   4.413  10.580
 9311W        W70974  40.048  34.108   1.352
 9312W        W70975  34.490  41.807   0.475
 9313W        W70976  35.081  11.748  12.570
 9314W        W70977  44.465   3.246   5.315
 9315W        W70978  38.000  37.984   4.214
 9316W        W70979   2.302  21.150   3.826
 9317W        W70980   9.680  19.775   1.860
 9318W        W70981  33.449  43.817  13.356
 9319W        W70982  11.665  23.005  12.567
 9320W        W70983  40.899  39.445  11.875
 9321W        W70984   6.863  36.086   1.417
 9322W        W70985  13.665  40.468   3.675
 9323W        W70986  14.778  33.917  14.849
 9324W        W70987  44.840   1.324  10.413
 9325W        W70988   3.862  17.079   3.293
 9326W        W70989   3.260  44.405   2.699
 9327W        W70990   6.194  32.979  12.387
 9328W        W70991   7.768   5.397   3.216
 9329W        W70992  39.429  16.229  14.907
 9330W        W70993   5.402   7.316  11.488
 9331W        W70994  10.877  33.024   3.237
 9332W        W70995   3.389  21.086   5.273
 9333W        W70996   2.960  23.018  11.856
 9334W        W70997  15.140  32.531  14.980
 9335W        W70998  42.492   9.375   1.440
 9336W        W70999  44.265  27.655  12.963
 9337W        W71000  10.814  30.567  11.466
 9338W        W71001   1.404   1.872   4.677
 9339W        W71002  38.531   4.881   3.715
 9340W        W71003   7.233  23.116   2.215
 9341W        W71004  37.054   5.766  10.924
 9342W        W71005  19.542  34.910  10.506
 9343W        W71006  36.556  20.729  13.501
 9344W        W71007   3.885  41.392   5.143
 9345W        W71008  44.954  15.656   0.766
 9346W        W71009  11.205  34.409  11.941
 9347W        W71010  23.579  12.146   0.371
 9348W        W71011  40.472  15.764  14.909
 9349W        W71012  23.606  30.500   0.866
 9350W        W71013  13.203  38.923   4.268
 9351W        W71014  39.519  22.057  14.990
 9352W        W71015  39.437  37.857  13.492
 9353W        W71016  19.135  13.349  13.490
 9354W        W71017   2.896   8.365   1.867
 9355W        W71018  17.107  17.684  13.971
 9356W        W71019  11.284  12.317  10.554
 9357W        W71020  38.834   9.168   4.642
 9358W        W71021  26.043   7.198   2.266
 9359W        W71022  31.630   4.862  13.529
 9360W        W71023  32.532  27.650   4.807
 9361W        W71024  18.246  43.367  11.901
 9362W        W71025   6.225  26.553  12.565
 9363W        W71026  33.494  13.196  12.090
 9364W        W71027  23.203  38.422  11.988
 9365W        W71028  36.903  16.165  11.035
 9366W        W71029  28.119   0.396   2.407
 9367W        W71030  43.369  28.466   0.357
 9368W        W71031  12.832  42.339   2.757
 9369W        W71032  36.424  39.932   0.340
 9370W        W71033  36.864  44.281  13.437
 9371W        W71034   5.344   3.255   4.641
 9372W        W71035  25.112  11.358  11.016
 9373W        W71036   2.450  29.633   2.681
 9374W        W71037   2.724  35.395   2.818
 9375W        W71038  26.664  19.697  10.461
 9376W        W71039  30.509   4.286  12.457
 9377W        W71040   3.341  28.599   0.266
 9378W        W71041  11.138  26.955  14.331
 9379W        W71042  43.471  37.379   1.821
 9380W        W71043  24.160  11.637   3.728
 9381W        W71044  17.246  31.002  14.910
 9382W        W71045  41.465  33.600  14.340
 9383W        W71046  41.038  42.992  11.111
 9384W        W71047  31.472  28.675   0.756
 9385W        W71048  23.018  39.557   2.820
 9386W        W71049  35.888   7.257   2.870
 9387W        W71050  36.374  33.440  11.939
 9388W        W71051  18.763  33.572   5.198
 9389W        W71052  23.189  24.083  11.372
 9390W        W71053  36.547  12.321  11.437
 9391W        W71054  38.407  37.844   0.298
 9392W        W71055  31.520  14.324   0.948
 9393W        W71056  43.469  26.065  11.947
 9394W        W71057  16.580   8.772   5.164
 9395W        W71058   5.427  23.220  12.031
 9396W        W71059  25.529  14.695  12.496
 9397W        W71060   2.276  20.141   4.816
 9398W        W71061  16.266  34.105  10.551
 9399W        W71062  21.217  28.588   4.306
 9400W        W71063  10.281  22.681   4.613
 9401W        W71064  28.098  24.187   4.175
 9402W        W71065  38.040  31.958   2.259
 9403W        W71066  24.091  43.403  11.577
 9404W        W71067  28.523  23.987   1.750
 9405W        W71068  41.307  31.911  10.638
 9406W        W71069  26.631  19.097   0.735
 9407W        W71070  26.526   9.790  10.084
 9408W        W71071   9.291  39.855   4.247
 9409W        W71072   3.397  11.656  10.598
 9410W        W71073  41.481  24.011  13.315
 9411W        W71074  41.012  31.931  14.477
 9412W        W71075  40.035   5.714  14.830
 9413W        W71076  10.376  31.979  13.339
 9414W        W71077  33.441  12.672   3.231
 9415W        W71078  29.013  26.497  11.583
 9416W        W71079  32.115  13.703  12.078
 9417W        W71080  24.988  14.215  14.797
 9418W        W71081  40.951  26.114  13.480
 9419W        W71082  43.366   0.823  10.051
 9420W        W71083  16.647  37.065  13.898
 9421W        W71084  28.137  36.878  12.985
 9422W        W71085  13.248  29.943   2.862
 9423W        W71086  14.824  44.419  11.071
 9424W        W71087  29.458  19.685   1.808
 9425W        W71088  15.655  23.585   9.972
 9426W        W71089   2.265  28.032  11.402
 9427W        W71090  19.162  27.124   0.268
 9428W        W71091  28.477   0.860  11.047
 9429W        W71092  38.888   4.278   4.224
 9430W        W71093   6.384   6.893  13.939
 9431W        W71094  34.027  39.907  13.792
 9432W        W71095  42.993  25.125   4.165
 9433W        W71096   6.684  22.584   1.777
 9434W        W71097  40.865  35.525  14.411
 9435W        W71098   3.793  12.614  13.041
 9436W        W71099   6.694  25.536   4.717
 9437W        W71100   9.682  24.481   4.342
 9438W        W71101  43.418  40.512  14.339
 9439W        W71102  10.343  24.172   0.838
 9440W        W71103  11.203  26.546   0.430
 9441W        W71104   5.243  23.712   5.257
 9442W        W71105  21.616  21.750   2.386
 9443W        W71106  16.666  31.947   0.347
 9444W        W71107  36.915  37.042   2.189
 9445W        W71108  14.190  17.254   1.238
 9446W        W71109   9.246  18.084  14.967
 9447W        W71110  19.131  38.386  12.555
 9448W        W71111  26.633   0.274  10.038
 9449W        W71112  13.714  26.650  13.518
 9450W        W71113  42.994  28.591   4.791
 9451W        W71114  23.683  33.967  13.997
 9452W        W71115  24.487  27.070   3.154
 9453W        W71116  34.893   0.272   0.314
 9454W        W71117  10.659   0.260  13.923
 9455W        W71118   8.873  29.113  14.355
 9456W        W71119   7.718  19.608  14.477
 9457W        W71120  20.696  43.486   2.873
 9458W        W71121   5.750  12.807   0.291
 9459W        W71122  31.496  15.813  13.545
 9460W        W71123  34.486  18.094   4.777
 9461W        W71124   2.741  35.860  12.933
 9462W        W71125   4.729   4.360   4.755
 9463W        W71126  42.914  38.868   2.865
 9464W        W71127  18.212  12.297  13.810
 9465W        W71128   9.798   7.741  12.991
 9466W        W71129  37.920  37.879   4.793
 9467W        W71130  23.040   9.818   4.837
 9468W        W71131  16.291  34.901   0.386
 9469W        W71132  17.279  18.104  13.869
 9470W        W71133   6.885  33.436  13.839
 9471W        W71134  39.044   1.759   0.823
 9472W        W71135  15.199  31.028   0.325
 9473W        W71136  19.701  18.638   4.600
 9474W        W71137  39.976  29.655   2.194
 9475W        W71138  41.458  33.063  12.559
 9476W        W71139  26.493  12.288  14.314
 9477W        W71140  26.641   0.340  13.992
 9478W        W71141  39.554   6.352   2.192
 9479W        W71142  43.308  21.062  10.976
 9480W        W71143  17.106  15.733   5.140
 9481W        W71144  42.399   2.828   3.750
 9482W        W71145  26.645  19.217   5.271
 9483W        W71146  11.703  28.588   0.861
 9484W        W71147  26.093   3.286   2.677
 9485W        W71148   4.731   3.292   0.443
 9486W        W71149  33.993  22.039  13.024
 9487W        W71150  43.501  35.956   3.194
 9488W        W71151   0.893  41.009  14.300
 9489W        W71152  33.920  43.968   4.345
 9490W        W71153  29.148  40.444   4.261
 9491W        W71154  40.878  10.315  12.044
 9492W        W71155   7.871  21.102   4.665
 9493W        W71156  18.723  20.722  10.421
 9494W        W71157  43.485  15.237   0.752
 9495W        W71158  26.701  20.617  10.556
 9496W        W71159  27.029  34.912  14.402
 9497W        W71160  40.997  44.909  14.791
 9498W        W71161  11.734  28.541  12.362
 9499W        W71162  42.455  32.625   4.336
 9500W        W71163  25.519  29.108  13.347
 9501W        W71164  30.465  30.585  13.438
 9502W        W71165  14.596  32.462  12.520
 9503W        W71166  16.752   3.227  13.054
 9504W        W71167  25.568  39.944   0.349
 9505W        W71168  29.004  24.006   3.765
 9506W        W71169  42.844  35.412  10.419
 9507W        W71170  41.450  30.463   1.911
 9508W        W71171  18.176  26.053  12.444
 9509W        W71172  28.551  12.666   1.316
 9510W        W71173  25.152  40.516  13.884
 9511W        W71174  33.463  17.292   0.740
 9512W        W71175  24.592  28.452  14.490
 9513W        W71176  18.558  11.185   4.620
 9514W        W71177  21.197  25.620  11.962
 9515W        W71178  13.119   1.810   1.891
 9516W        W71179   9.277  12.140   4.246
 9517W        W71180  15.261  38.325  14.484
 9518W        W71181  13.768  10.830   0.329
 9519W        W71182  20.734  10.760   3.383
 9520W        W71183  29.103   1.970   1.855
 9521W        W71184  32.131  19.725   5.149
 9522W        W71185  38.934   4.400   0.406
 9523W        W71186  32.458   0.319  10.953
 9524W        W71187  40.334  13.343   3.378
 9525W        W71188  34.028  36.969   3.775
 9526W        W71189  36.556  18.153  13.332
 9527W        W71190  13.258  33.584   2.736
 9528W        W71191  22.532  24.155  12.389
 9529W        W71192  19.222  42.476   1.855
 9530W        W71193  10.174  12.707  11.083
 9531W        W71194  40.996   5.341   2.284
 9532W        W71195  18.641  20.146   0.901
 9533W        W71196  10.853  15.307   1.387
 9534W        W71197  31.591  11.368   4.668
 9535W        W71198   0.358  14.770  11.027
 9536W        W71199  44.955  16.183   9.550
 9537W        W71200   0.821  34.912   2.272
 9538W        W71201  30.496  15.096  10.598
 9539W        W71202  34.474  44.412  11.941
 9540W        W71203   9.251  24.705   4.813
 9541W        W71204   4.764  29.089   4.289
 9542W        W71205  26.990  39.553  11.110
 9543W        W71206  36.559  17.286  14.455
 9544W        W71207  28.592   2.841  12.558
 9545W        W71208  15.301  30.910  13.063
 9546W        W71209  20.571  26.160   3.282
 9547W        W71210  21.692  42.319   4.177
 9548W        W71211   6.823  42.325   1.290
 9549W        W71212  13.267  36.415   0.315
 9550W        W71213  21.152   8.655   2.895
 9551W        W71214   3.308   6.687  13.440
 9552W        W71215  27.525  26.116   9.673
 9553W        W71216   5.311  40.983   1.924
 9554W        W71217  15.775  22.215   4.306
 9555W        W71218  30.620  17.223   1.718
 9556W        W71219  34.369   6.401   1.380
 9557W        W71220  41.292   5.731   4.823
 9558W        W71221  19.059  12.641  11.552
 9559W        W71222  26.112  13.187   0.759
 9560W        W71223  40.969  14.234   0.953
 9561W        W71224  15.281  29.096   1.404
 9562W        W71225   6.269   6.835  11.561
 9563W        W71226  26.702  35.107   3.803
 9564W        W71227  36.539   1.813  11.586
 9565W        W71228  22.082  24.540  11.978
 9566W        W71229  12.251   0.810  11.873
 9567W        W71230  12.619  12.747   2.843
 9568W        W71231  13.150  36.390  13.810
 9569W        W71232  29.114  37.474   2.343
 9570W        W71233  19.576  37.936  14.487
 9571W        W71234  40.907  31.999  12.904
 9572W        W71235   7.301  14.223  11.052
 9573W        W71236  16.693  17.666  11.558
 9574W        W71237   3.443  12.758  14.373
 9575W        W71238  24.193  21.600   2.731
 9576W        W71239  33.402  40.548   5.133
 9577W        W71240   9.860  39.820   2.840
 9578W        W71241  29.921  30.615   1.216
 9579W        W71242  12.337  36.419   3.258
 9580W        W71243  19.737  16.213   3.704
 9581W        W71244  15.096  12.313   2.852
 9582W        W71245   6.786  39.340  13.827
 9583W        W71246  32.078  43.438   5.200
 9584W        W71247   4.296  24.605   1.384
 9585W        W71248   1.927  21.170   0.254
 9586W        W71249  43.467  10.375   3.842
 9587W        W71250  14.324   1.974  14.474
 9588W        W71251  15.602  26.008  14.889
 9589W        W71252  43.998  33.887  11.919
 9590W        W71253  21.161  36.388  14.339
 9591W        W71254  43.457  19.755  14.955
 9592W        W71255  30.006   8.846  12.951
 9593W        W71256   9.293  12.767  13.486
 9594W        W71257  38.430   5.387  11.936
 9595W        W71258  22.689  12.711   1.333
 9596W        W71259  31.420  23.214  13.803
 9597W        W71260  19.598   1.356  13.455
 9598W        W71261  14.699  29.147  12.578
 9599W        W71262  20.571  32.454   0.483
 9600W        W71263   7.318  15.645   1.323
 9601W        W71264  38.448  24.589  13.438
 9602W        W71265  28.680   5.276  11.028
 9603W        W71266  43.452  23.728   0.348
 9604W        W71267  26.516  35.091  14.370
 9605W        W71268  30.533   8.257  13.525
 9606W        W71269  28.094   5.919  14.454
 9607W        W71270  31.123   2.397  13.851
 9608W        W71271  23.533   9.313   3.665
 9609W        W71272  16.214   4.928   3.155
 9610W        W71273   5.423  44.768   4.662
 9611W        W71274  38.039  43.463   3.318
 9612W        W71275   3.311   4.906   4.355
 9613W        W71276  19.191  24.222   4.193
 9614W        W71277   3.223  38.341  12.040
 9615W        W71278  16.658  11.233  11.609
 9616W        W71279  12.269  36.419   9.578
 9617W        W71280  22.140   7.223   0.821
 9618W        W71281  13.714  18.126  10.643
 9619W        W71282  13.619   5.796   4.763
 9620W        W71283  23.677   6.876  11.929
 9621W        W71284  22.192  28.511  12.992
 9622W        W71285  38.929  19.697  13.799
 9623W        W71286  15.648  12.185   1.714
 9624W        W71287  20.664   7.373   4.311
 9625W        W71288  16.646  11.146  11.986
 9626W        W71289  34.919  23.991   0.864
 9627W        W71290   1.914  10.215  11.408
 9628W        W71291   5.418  16.649   1.317
 9629W        W71292  43.309  12.286   2.189
 9630W        W71293  18.056  38.977  14.955
 9631W        W71294   0.449  41.936   2.665
 9632W        W71295  36.392  44.881  12.346
 9633W        W71296  36.544  26.648   3.211
 9634W        W71297   5.831   9.347  13.308
 9635W        W71298  21.190  21.740  14.946
 9636W        W71299  40.328  42.990   4.683
 9637W        W71300  43.508  30.978   2.228
 9638W        W71301  13.113  28.096   9.999
 9639W        W71302  41.364  12.770   4.751
 9640W        W71303  43.354  33.585  11.033
 9641W        W71304  27.598  22.539   1.726
 9642W        W71305  10.833   3.439   2.863
 9643W        W71306   4.222  30.000  12.439
 9644W        W71307  16.182   0.365   2.293
 9645W        W71308  27.953  38.373  12.984
 9646W        W71309  40.417  33.096   0.931
 9647W        W71310  14.225  41.498   2.399
 9648W        W71311   8.773  19.098  13.439
 9649W        W71312  29.488  24.183  14.887
 9650W        W71313  10.795  16.296  14.495
 9651W        W71314   5.376  23.692   3.174
 9652W        W71315  13.146  17.160   2.354
 9653W        W71316   6.761  33.408  12.476
 9654W        W71317  20.219  18.063  13.981
 9655W        W71318  43.822  44.008   1.773
 9656W        W71319  28.597   8.792   0.467
 9657W        W71320  32.451  25.154   5.120
 9658W        W71321  15.627  23.520  14.413
 9659W        W71322  25.571  10.876  14.951
 9660W        W71323  39.458  18.221   3.706
 9661W        W71324  10.193  43.472   1.344
 9662W        W71325  24.049  40.528   3.286
 9663W        W71326  26.009   7.342  13.999
 9664W        W71327  35.862  10.164  11.982
 9665W        W71328  27.028  30.002  11.391
 9666W        W71329  26.655  26.632   1.789
 9667W        W71330  23.519  37.964  12.558
 9668W        W71331  21.753  19.724  10.951
 9669W        W71332  10.370  24.564  11.609
 9670W        W71333   2.365  12.215  11.408
 9671W        W71334  40.387  39.011   4.147
 9672W        W71335  34.379   3.948  14.900
 9673W        W71336  41.500  25.645   2.377
 9674W        W71337  43.443   4.819   9.944
 9675W        W71338  33.891  23.559  11.013
 9676W        W71339  44.261  44.943  14.448
 9677W        W71340  17.145  30.140   0.376
 9678W        W71341  29.046  26.113  11.992
 9679W        W71342  21.034  13.208  14.999
 9680W        W71343  11.363  38.847  14.934
 9681W        W71344  22.193  13.819  10.993
 9682W        W71345  22.213   4.858  13.858
 9683W        W71346  26.117  11.146  14.941
 9684W        W71347  31.534  16.123  10.512
 9685W        W71348  17.573   3.433  13.369
 9686W        W71349  25.978  34.491   1.802
 9687W        W71350  20.172   8.277   3.290
 9688W        W71351  30.513  14.604  10.461
 9689W        W71352  43.452  16.722  14.849
 9690W        W71353  41.001  13.266   2.800
 9691W        W71354   7.252   4.262  10.922
 9692W        W71355   7.859   4.938  14.877
 9693W        W71356  30.111  20.213  14.831
 9694W        W71357  44.407   8.862  10.434
 9695W        W71358  19.573  33.562  13.439
 9696W        W71359  36.544  12.351  10.890
 9697W        W71360  32.890  39.885  10.963
 9698W        W71361  40.897  43.473  13.940
 9699W        W71362  16.212   3.427  10.025
 9700W        W71363  37.373  24.171  11.412
 9701W        W71364  31.433  29.143   1.722
 9702W        W71365  11.330  25.044  10.910
 9703W        W71366  31.002   2.723  10.558
 9704W        W71367  34.501  33.898   2.673
 9705W        W71368  34.895  35.946   5.136
 9706W        W71369   3.437  15.680   5.118
 9707W        W71370  11.720  41.298   4.287
 9708W        W71371  33.991  30.928  14.963
 9709W        W71372  13.776  21.603   3.287
 9710W        W71373  13.133  40.882   1.250
 9711W        W71374   1.808  32.577  13.851
 9712W        W71375  33.963  21.126   3.346
 9713W        W71376  31.144   4.723  14.768
 9714W        W71377   8.772  23.491  12.061
 9715W        W71378  25.022  21.119   4.279
 9716W        W71379  44.990  17.079  12.086
 9717W        W71380  23.224   5.717   5.192
 9718W        W71381   4.386  19.535  12.856
 9719W        W71382  17.585  35.533   3.790
 9720W        W71383   7.185  42.966   0.964
 9721W        W71384   7.202  25.650   1.935
 9722W        W71385  43.313  22.024  14.421
 9723W        W71386   0.411   3.874  11.528
 9724W        W71387  25.052   8.376   2.257
 9725W        W71388  10.210  36.586   2.255
 9726W        W71389  11.202  32.414  14.978
 9727W        W71390  40.325  39.530   3.186
 9728W        W71391   2.849  29.956  12.424
 9729W        W71392  13.152   3.915  14.319
 9730W        W71393  12.351   6.210   1.448
 9731W        W71394  10.251  39.864  13.426
 9732W        W71395  26.192   3.344  11.553
 9733W        W71396  25.182  11.729   2.260
 9734W        W71397   2.760  33.441   4.230
 9735W        W71398  25.694  18.157  14.975
 9736W        W71399  26.533  10.364  10.476
 9737W        W71400  38.396  42.979   4.242
 9738W        W71401  10.767   0.427  11.420
 9739W        W71402  14.144  31.532   4.650
 9740W        W71403   2.341  29.074   3.277
 9741W        W71404  29.500  41.430   1.237
 9742W        W71405   7.790  44.483   1.414
 9743W        W71406  37.046   9.696   0.323
 9744W        W71407   6.186  14.151   3.671
 9745W        W71408  31.616   1.972   1.421
 9746W        W71409  34.477  11.761   0.803
 9747W        W71410  21.099  36.462  11.532
 9748W        W71411  26.977  28.595  14.462
 9749W        W71412  12.261   8.735  12.508
 9750W        W71413  27.976  28.644   0.770
 9751W        W71414  14.616  35.932  11.021
 9752W        W71415  39.871  44.876  13.405
 9753W        W71416  29.443  34.950   3.178
 9754W        W71417  43.387   4.709  14.026
 9755W        W71418  28.633  34.063   2.893
 9756W        W71419  32.118  36.988  14.956
 9757W        W71420   4.227  13.251   3.154
 9758W        W71421  29.661  12.126  11.559
 9759W        W71422  21.218  38.909  14.937
 9760W        W71423   0.761   2.335   1.919
 9761W        W71424  16.290  36.910  12.377
 9762W        W71425  14.259  15.760   2.771
 9763W        W71426   0.841  39.454  10.914
 9764W        W71427  15.206   8.682  11.920
 9765W        W71428   2.429  14.591   3.340
 9766W        W71429  29.556  18.183   0.245
 9767W        W71430  27.504  27.196  13.412
 9768W        W71431  17.675  22.210  11.991
 9769W        W71432   8.209  23.505  11.888
 9770W        W71433   3.348  24.065  14.995
 9771W        W71434   7.878  33.557   4.839
 9772W        W71435  40.406  35.439  14.972
 9773W        W71436  22.041  10.151  14.509
 9774W        W71437  22.732   3.350  12.453
 9775W        W71438  16.163  13.816   2.816
 9776W        W71439  25.642  17.169   3.158
 9777W        W71440  10.695  32.949  14.873
 9778W        W71441  17.642  23.007  10.478
 9779W        W71442  38.998  26.511  14.443
 9780W        W71443   1.839   3.301   4.147
 9781W        W71444  13.697  15.719  11.026
 9782W        W71445  36.950  33.444  11.430
 9783W        W71446   1.348   5.893  10.404
 9784W        W71447   0.964   2.393   3.702
 9785W        W71448   7.351  19.218   2.320
 9786W        W71449  12.848  14.589   3.746
 9787W        W71450  28.605  16.268   3.670
 9788W        W71451  44.796   9.657   1.257
 9789W        W71452   9.221  22.588  10.960
 9790W        W71453  28.152  38.468  14.791
 9791W        W71454  43.484  44.472  11.442
 9792W        W71455  23.580  17.789   0.308
 9793W        W71456  18.635  43.827  11.871
 9794W        W71457  12.666  34.383   2.323
 9795W        W71458  14.627  37.339   9.935
 9796W        W71459  39.381  17.654   0.356
 9797W        W71460  33.401  13.147   4.723
 9798W        W71461  41.335  28.123   2.268
 9799W        W71462  43.370  13.675   2.238
 9800W        W71463  14.694   1.462   1.927
 9801W        W71464  15.326   3.774  14.335
 9802W        W71465   3.223  44.401  14.860
 9803W        W71466  13.348   4.397  12.021
 9804W        W71467  33.466  18.624   2.188
 9805W        W71468  30.544  12.336   0.878
 9806W        W71469  39.886  24.177  12.959
 9807W        W71470  43.322  28.605  11.566
 9808W        W71471  20.246  29.641   4.308
 9809W        W71472  28.494   4.447   4.130
 9810W        W71473   0.349  33.077   1.924
 9811W        W71474   2.784  24.494   4.762
 9812W        W71475  27.109  39.390   4.346
 9813W        W71476  13.130   5.767   4.243
 9814W        W71477  35.860   8.667   4.221
 9815W        W71478   1.408   2.326  11.039
 9816W        W71479  37.490  24.070  11.979
 9817W        W71480  25.139  14.163   1.284
 9818W        W71481  33.018  35.027  10.478
 9819W        W71482   5.739   9.865   0.778
 9820W        W71483  35.437  30.123   3.229
 9821W        W71484  34.613  39.925  12.392
 9822W        W71485  23.720  19.535   1.776
 9823W        W71486   3.725  21.144  11.558
 9824W        W71487  38.924  40.961  13.405
 9825W        W71488  26.521  14.330  12.044
 9826W        W71489  17.673  15.222   1.783
 9827W        W71490  30.519   1.762   1.880
 9828W        W71491  34.602  11.738   3.275
 9829W        W71492   7.340   2.731  10.918
 9830W        W71493  10.366   0.306  10.898
 9831W        W71494  11.754  11.239   2.272
 9832W        W71495  38.023  13.742   2.881
 9833W        W71496  17.068   0.425   4.613
 9834W        W71497  41.913  22.525   1.887
 9835W        W71498  38.948   9.713  11.409
 9836W        W71499   9.685  35.514   2.860
 9837W        W71500   3.373  33.108   2.198
 9838W        W71501  43.868  23.002   1.860
 9839W        W71502  40.024   3.790   1.904
 9840W        W71503  15.281  11.822  10.643
 9841W        W71504  27.070   3.827   3.270
 9842W        W71505  25.177  10.348  13.528
 9843W        W71506   3.728  27.478  10.940
 9844W        W71507  18.213  27.977   1.737
 9845W        W71508  27.074  31.519  13.519
 9846W        W71509  39.450   5.761   1.360
 9847W        W71510   5.259  29.634  13.924
 9848W        W71511   2.777  35.486   4.764
 9849W        W71512   4.721  33.441   5.253
 9850W        W71513   3.445  23.137   0.410
 9851W        W71514  30.559  23.590  12.555
 9852W        W71515   5.826  33.386  10.450
 9853W        W71516  17.153  42.513  13.505
 9854W        W71517   5.364  44.979   4.237
 9855W        W71518  21.640  19.591   4.190
 9856W        W71519  25.014   5.793  14.308
 9857W        W71520  24.106  28.026  13.425
 9858W        W71521  28.133  10.812   0.870
 9859W        W71522   9.267   1.928   2.199
 9860W        W71523   3.242  16.576  14.817
 9861W        W71524   9.704  32.962   1.349
 9862W        W71525  11.307  40.880  10.423
 9863W        W71526  20.244   6.233   1.262
 9864W        W71527  11.704   6.734  10.523
 9865W        W71528  42.498  17.742   3.234
 9866W        W71529   2.921  42.858   2.318
 9867W        W71530  43.307  13.204   1.283
 9868W        W71531  24.683  35.487  14.843
 9869W        W71532   7.678  22.207  10.974
 9870W        W71533  15.699  29.976   0.878
 9871W        W71534  23.680  29.552   4.169
 9872W        W71535  35.525   0.277  13.061
 9873W        W71536  21.047  44.264   3.741
 9874W        W71537  15.822  16.179   3.825
 9875W        W71538  33.433   6.881  12.080
 9876W        W71539  42.826  14.636   3.803
 9877W        W71540   4.290  20.046   4.265
 9878W        W71541   0.438  35.006   4.630
 9879W        W71542  29.120  14.723  12.372
 9880W        W71543  40.906   9.153   0.809
 9881W        W71544  38.856  40.328   2.351
 9882W        W71545  37.497   8.179   3.705
 9883W        W71546   8.274  10.756  12.939
 9884W        W71547  17.761  34.423   0.955
 9885W        W71548  32.968  44.884  10.453
 9886W        W71549   1.328   4.420   1.777
 9887W        W71550   5.933  24.673   4.647
 9888W        W71551   6.242   8.712  10.021
 9889W        W71552  29.012  13.714  12.971
 9890W        W71553  12.164   3.765  13.893
 9891W        W71554   5.899  26.628   1.797
 9892W        W71555  32.952  21.731   2.319
 9893W        W71556  40.338  18.235  14.844
 9894W        W71557   1.810  19.762   3.668
 9895W        W71558  24.096   6.246   1.733
 9896W        W71559  40.420  19.710   3.686
 9897W        W71560  18.107  20.525   3.251
 9898W        W71561  41.309  10.333  10.582
 9899W        W71562   6.824  36.930  12.869
 9900W        W71563  23.045  22.729   1.435
 9901W        W71564  26.485  29.997  12.522
 9902W        W71565  37.458  27.170  11.492
 9903W        W71566   3.410  24.227   3.320
 9904W        W71567   0.835  29.441   3.156
 9905W        W71568  32.606   0.817   0.244
 9906W        W71569  28.577  21.246   3.382
 9907W        W71570  42.450  26.553   1.818
 9908W        W71571  23.043  29.626   0.881
 9909W        W71572   8.885  21.584   2.344
 9910W        W71573  39.977   2.818  11.032
 9911W        W71574  29.615  33.908   2.411
 9912W        W71575   7.181  30.062   2.896
 9913W        W71576  14.237   5.225   4.278
 9914W        W71577  18.077  22.180   3.250
 9915W        W71578  32.472  33.886  14.427
 9916W        W71579  35.954   3.376  13.917
 9917W        W71580  16.317  19.175  13.803
 9918W        W71581  33.517  24.695   1.761
 9919W        W71582  27.648  25.081  13.489
 9920W        W71583   7.355  17.576  13.045
 9921W        W71584  16.765  25.026  11.471
 9922W        W71585  16.163   6.835  14.507
 9923W        W71586   4.222   7.776   1.391
 9924W        W71587  23.700  37.009   0.733
 9925W        W71588  21.093  21.030  11.076
 9926W        W71589   0.351  19.121  14.917
 9927W        W71590  25.086  19.724   0.281
 9928W        W71591   8.844  22.605  12.032
 9929W        W71592  28.124  10.296  10.480
 9930W        W71593  21.098  12.264  10.407
 9931W        W71594  37.400  26.042  13.309
 9932W        W71595  20.765  13.346   0.428
 9933W        W71596  43.926  21.722  11.391
 9934W        W71597  44.999   8.406  14.444
 9935W        W71598  13.340  19.716   2.763
 9936W        W71599  32.402  25.197  14.298
 9937W        W71600  43.503  18.780  13.843
 9938W        W71601  20.172   2.383   4.168
 9939W        W71602  12.315  34.101   4.640
 9940W        W71603  31.928  21.196   1.442
 9941W        W71604   4.828  34.564   1.383
 9942W        W71605  28.139  24.068   1.910
 9943W        W71606  21.253   2.754  13.949
 9944W        W71607  15.686  29.146   4.674
 9945W        W71608  23.066  32.599   3.275
 9946W        W71609  23.080  27.152   3.358
 9947W        W71610   2.853  37.051  11.892
 9948W        W71611   3.886  32.046   3.289
 9949W        W71612  20.200  20.196  10.412
 9950W        W71613  19.264  21.192  11.959
 9951W        W71614  20.679  31.578   2.885
 9952W        W71615  21.229  37.565  10.102
 9953W        W71616  38.034  33.026  12.348
 9954W        W71617   2.382  40.797  11.998
 9955W        W71618  23.573   6.687  12.866
 9956W        W71619  11.695  34.913   3.219
 9957W        W71620  25.598  35.527   2.824
 9958W        W71621   7.763  11.162   4.795
 9959W        W71622  28.065  32.579  14.783
 9960W        W71623  24.110  26.650  11.949
 9961W        W71624  26.574  41.816   3.813
 9962W        W71625   7.231  33.068  10.626
 9963W        W71626  22.545  18.241   0.418
 9964W        W71627  14.225  32.481  12.364
 9965W        W71628  33.103  25.620  11.039
 9966W        W71629  16.220  27.019   2.803
 9967W        W71630  41.514  34.522   2.866
 9968W        W71631  40.979  19.610   4.279
 9969W        W71632  21.735  19.655   1.876
 9970W        W71633  18.266  15.777   3.172
 9971W        W71634  31.061  25.574   3.776
 9972W        W71635  26.124  36.929   1.903
 9973W        W71636  20.055  21.681  13.450
 9974W        W71637  24.517  24.647   0.965
 9975W        W71638  19.045  20.100  14.024
 9976W        W71639   7.326  37.847  10.906
 9977W        W71640  19.578  34.064   3.684
 9978W        W71641   0.431  15.250  13.824
 9979W        W71642  12.157  41.014   1.413
 9980W        W71643  41.469  16.207  11.000
 9981W        W71644  25.474  43.331  12.353
 9982W        W71645  36.031  44.992  14.382
 9983W        W71646   3.764  28.939   2.263
 9984W        W71647  11.174  12.683   1.720
 9985W        W71648   6.740  11.820   2.675
 9986W        W71649  32.482  33.621  14.769
 9987W        W71650  12.271   4.772  12.875
 9988W        W71651  22.114  35.568  10.518
 9989W        W71652  19.094  40.514   3.286
 9990W        W71653  38.937  21.053  10.576
 9991W        W71654  14.277   3.331  14.849
 9992W        W71655  35.854  25.622  11.585
 9993W        W71656  28.123  39.010  11.039
 9994W        W71657   8.184  14.164  11.409
 9995W        W71658  16.809  19.260   2.798
 9996W        W71659   5.701  32.986  10.981
 9997W        W71660  29.605   9.191   2.388
 9998W        W71661  27.629  37.945   4.621
 9999W        W71662  28.681  43.912  14.494
10000W        W71663  20.243  28.515  12.574
10001W        W71664  16.709   6.919  13.975
10002W        W71665  15.216  26.072   2.415
10003W        W71666  25.096   5.425   4.809
10004W        W71667   6.850  26.987   3.870
10005W        W71668   8.288  21.605   3.817
10006W        W71669   6.752   7.818  13.449
10007W        W71670  10.725   4.713  10.478
10008W        W71671   5.827  22.634  12.878
10009W        W71672  43.430   0.874  14.778
10010W        W71673  31.088  17.305   3.723
10011W        W71674  23.730   8.901   1.441
10012W        W71675  20.029   3.949  11.554
10013W        W71676  34.372  40.493  12.455
10014W        W71677  20.243  30.080   0.312
10015W        W71678   9.188  31.496  13.346
10016W        W71679  25.127  18.081   4.662
10017W        W71680  10.341  23.069  11.975
10018W        W71681  16.657   2.393   1.437
10019W        W71682   3.278  15.108  13.441
10020W        W71683   0.299  35.984   1.287
10021W        W71684   9.322  22.084  13.897
10022W        W71685   1.379  21.630   0.883
10023W        W71686  20.657   1.299  11.975
10024W        W71687  28.118   3.252  10.158
10025W        W71688   7.850  32.516  12.509
10026W        W71689  22.618  21.734  13.018
10027W        W71690  18.662  38.980  11.983
10028W        W71691   3.794  42.802   1.776
10029W        W71692  33.976  36.556   1.809
10030W        W71693  38.445  13.332  13.797
10031W        W71694  29.948  38.415  14.473
10032W        W71695   1.895  34.368  11.519
10033W        W71696  27.673   3.348   3.858
10034W        W71697  10.166  26.521  11.576
10035W        W71698   8.351  30.013  12.882
10036W        W71699   3.755  29.439   3.725
10037W        W71700   8.309  38.047  13.318
10038W        W71701  27.197  44.852  13.984
10039W        W71702  36.841  27.522  14.303
10040W        W71703  17.099  43.323  11.067
10041W        W71704   2.906   8.709   1.911
10042W        W71705   0.408   3.389  13.489
10043W        W71706  35.430  18.576   4.771
10044W        W71707  13.605  15.189  14.473
10045W        W71708  16.585  34.408  14.927
10046W        W71709  42.961  31.049  13.906
10047W        W71710  20.239   6.682  13.913
10048W        W71711  27.017  42.425   0.250
10049W        W71712  17.610   0.373  12.524
10050W        W71713  28.144  16.615  10.956
10051W        W71714  40.903  34.380  10.912
10052W        W71715  37.898  32.623  14.474
10053W        W71716  34.020  38.930  11.985
10054W        W71717  12.142  19.054   2.724
10055W        W71718  43.798   7.237   0.336
10056W        W71719  34.056   5.889   0.771
10057W        W71720  26.490   1.407  12.470
10058W        W71721  28.966   8.190  12.529
10059W        W71722  42.316  37.077  12.020
10060W        W71723   0.266  11.655   1.809
10061W        W71724  42.374  17.766  13.424
10062W        W71725  12.761  33.454   4.126
10063W        W71726   8.310  21.602  13.520
10064W        W71727   4.727   2.839   3.356
10065W        W71728  40.455  16.317  11.019
10066W        W71729   1.936  43.791  14.510
10067W        W71730   7.186  36.373   4.259
10068W        W71731  22.612  16.802  10.491
10069W        W71732  29.594  37.434   2.372
10070W        W71733  27.187   8.362   1.781
10071W        W71734  25.673  30.601  10.891
10072W        W71735  30.138  33.444   0.434
10073W        W71736  42.427  36.422   0.318
10074W        W71737  22.061  25.180   4.777
10075W        W71738   0.424  31.439  12.575
10076W        W71739   9.781  43.818   2.760
10077W        W71740  29.020  15.719   1.308
10078W        W71741  26.593  33.424   0.261
10079W        W71742  36.523  43.507  13.025
10080W        W71743  21.676  28.993   4.122
10081W        W71744  21.026  13.689  14.946
10082W        W71745   0.866  27.974  12.914
10083W        W71746  34.615  29.458   2.367
10084W        W71747  18.112  24.132   2.861
10085W        W71748  16.730  39.373  14.388
10086W        W71749   6.715  26.030  10.606
10087W        W71750  44.778  42.299  12.006
10088W        W71751  43.373  18.055  13.875
10089W        W71752  17.578  27.625  14.778
10090W        W71753  33.592  30.137  11.401
10091W        W71754  21.178  20.677  10.577
10092W        W71755  25.055  42.794  11.379
10093W        W71756  10.819  20.253   0.778
10094W        W71757  30.140  42.972   2.816
10095W        W71758  24.601   6.381  14.513
10096W        W71759   0.395  30.920  11.898
10097W        W71760  20.603  29.047  10.527
10098W        W71761  42.405  16.723  10.935
10099W        W71762  43.769  44.283   0.254
10100W        W71763  16.306  29.662  10.479
10101W        W71764  16.308  17.068   3.838
10102W        W71765  30.479  15.697   0.278
10103W        W71766  26.685  17.601  11.402
10104W        W71767  18.569  37.876   4.679
10105W        W71768  37.440  18.281  10.464
10106W        W71769  20.694  31.474   0.272
10107W        W71770  24.223  32.947   2.264
10108W        W71771  16.652  12.151  14.516
10109W        W71772  29.643  39.894  12.350
10110W        W71773   0.874  19.258  14.880
10111W        W71774  10.755  16.702   3.850
10112W        W71775  30.436  16.191   1.846
10113W        W71776   6.289   7.884   2.313
10114W        W71777  29.986   1.878   1.347
10115W        W71778   2.471  43.373   4.187
10116W        W71779  27.004  12.127   2.679
10117W        W71780  32.553  30.645  13.409
10118W        W71781  30.471  34.014  11.915
10119W        W71782  13.728  23.625  10.460
10120W        W71783  32.481  28.582  14.858
10121W        W71784  30.613  44.787   1.891
10122W        W71785  32.947  23.639   3.196
10123W        W71786   3.849  28.080   4.264
10124W        W71787   8.859  14.312  11.019
10125W        W71788  30.993   9.701  14.278
10126W        W71789  16.078  22.633  13.333
10127W        W71790   4.773  24.142  14.400
10128W        W71791  38.912  25.146   5.319
10129W        W71792  14.296   2.296   2.773
10130W        W71793  20.654  14.737  10.896
10131W        W71794  29.606  10.669   2.389
10132W        W71795  16.567  31.106   3.263
10133W        W71796  18.155  37.016   2.392
10134W        W71797  21.605  22.191   3.838
10135W        W71798  23.055   9.790  12.580
10136W        W71799   6.922   8.720   2.792
10137W        W71800   1.911  14.749  10.569
10138W        W71801  25.049   0.799   4.197
10139W        W71802  36.406  15.733  10.021
10140W        W71803  28.113   1.454  12.910
10141W        W71804  24.999  34.038  13.467
10142W        W71805   4.910  38.961   4.807
10143W        W71806   4.884  10.148  12.364
10144W        W71807  42.797   0.489  11.895
10145W        W71808  44.324  16.097   3.297
10146W        W71809   2.845  36.486   3.221
10147W        W71810   2.316   7.798  13.939
10148W        W71811  43.500  19.719   3.159
10149W        W71812   0.856   8.380  12.402
10150W        W71813  11.741  31.000  12.983
10151W        W71814   5.709  43.424   1.271
10152W        W71815  34.904   3.235  12.007
10153W        W71816  27.639   9.206   1.875
10154W        W71817  36.409  42.482  11.497
10155W        W71818   4.924  39.526  14.993
10156W        W71819  29.994  12.696  11.948
10157W        W71820   8.802  35.455  14.867
10158W        W71821  29.497  33.051   0.399
10159W        W71822  11.181  22.113   0.455
10160W        W71823  28.571  36.932  13.944
10161W        W71824  23.133  28.586   2.371
10162W        W71825  12.673  33.113   1.352
10163W        W71826  13.136  18.143   3.681
10164W        W71827  37.996   1.461   3.706
10165W        W71828   6.730  10.368   0.435
10166W        W71829   8.294  20.756   2.721
10167W        W71830  16.178   1.376   2.664
10168W        W71831   0.417   8.347  11.391
10169W        W71832  16.685  19.729  12.840
10170W        W71833  42.290  15.671   3.676
10171W        W71834  40.350   7.687   0.329
10172W        W71835  44.467  38.846   4.274
10173W        W71836   3.227  10.877  13.473
10174W        W71837  20.547  17.660   0.355
10175W        W71838  22.619  17.179  14.499
10176W        W71839   7.217  30.486  13.798
10177W        W71840  15.712  31.525   1.238
10178W        W71841  40.545  24.067  13.035
10179W        W71842  19.571  36.584   4.646
10180W        W71843  13.809  40.799   5.725
10181W        W71844  15.758  16.798  14.510
10182W        W71845  29.983  41.997  10.083
10183W        W71846  42.022  19.128   0.326
10184W        W71847  36.351  24.691  11.860
10185W        W71848  29.038   8.817   4.830
10186W        W71849   5.873   3.278  12.935
10187W        W71850  16.319  40.020   1.311
10188W        W71851  26.081  25.005   0.431
10189W        W71852  10.163   0.919  12.451
10190W        W71853  23.151   1.934   3.770
10191W        W71854  13.247  24.009  13.062
10192W        W71855   2.458   3.783   2.365
10193W        W71856  28.435  21.532   4.634
10194W        W71857  29.052  11.362  13.309
10195W        W71858  28.623  16.667  10.457
10196W        W71859  35.504  23.205   3.145
10197W        W71860  19.545  18.274   1.374
10198W        W71861  11.760  25.128  12.519
10199W        W71862   6.699  17.729  10.643
10200W        W71863  39.972  28.939  12.415
10201W        W71864  10.301  16.083   3.378
10202W        W71865  24.553  24.076  11.447
10203W        W71866  13.170  12.249  11.437
10204W        W71867   0.462  21.707  12.519
10205W        W71868  33.453  17.215  14.405
10206W        W71869  30.571  28.636   0.401
10207W        W71870  35.033  17.176   0.877
10208W        W71871  10.147   0.905   4.231
10209W        W71872  42.518  32.636   1.808
10210W        W71873  43.301  24.587   1.354
10211W        W71874   9.286  37.946   0.895
10212W        W71875  43.836   0.467  10.628
10213W        W71876  14.821  25.209  14.381
10214W        W71877  19.542   4.875   0.310
10215W        W71878   2.726  35.097  14.513
10216W        W71879  26.193   7.895   4.787
10217W        W71880  41.536  28.130   3.667
10218W        W71881  30.015  28.643  14.981
10219W        W71882  10.259  12.304   3.253
10220W        W71883  19.772   3.262  10.997
10221W        W71884  40.854  16.789   3.713
10222W        W71885   7.181  43.384  14.905
10223W        W71886  12.304  28.940   0.833
10224W        W71887  31.535  43.784  13.504
10225W        W71888   6.918  29.549   1.370
10226W        W71889   7.357  23.635   2.193
10227W        W71890  41.973  36.886  10.508
10228W        W71891  10.811  10.830   4.117
10229W        W71892  23.232   5.278   4.661
10230W        W71893  36.431   2.868  12.873
10231W        W71894  15.743  37.860   0.892
10232W        W71895  26.564   3.882  14.950
10233W        W71896  42.367  38.568   3.683
10234W        W71897  10.364  19.571  11.101
10235W        W71898  30.034  18.272  12.885
10236W        W71899  15.645  25.009   3.666
10237W        W71900  40.044  29.667  13.898
10238W        W71901  18.264  11.804  14.997
10239W        W71902  26.628  13.652  12.517
10240W        W71903  21.642  42.425   4.662
10241W        W71904  39.545   3.389   2.366
10242W        W71905  34.459  11.285   3.295
10243W        W71906  17.603   4.311   2.726
10244W        W71907  42.499   0.848  14.473
10245W        W71908  25.571  36.470  12.033
10246W        W71909  15.327   1.796  14.828
10247W        W71910   6.719   1.449  11.106
10248W        W71911  18.232   8.691   4.649
10249W        W71912   0.872  29.669   0.954
10250W        W71913  41.310  11.206   4.210
10251W        W71914  31.609   9.338   1.357
10252W        W71915  13.208   6.203   0.295
10253W        W71916   8.255   8.689   2.717
10254W        W71917  44.926  16.135   1.344
10255W        W71918   8.347   6.751   4.712
10256W        W71919   4.424  16.580  14.452
10257W        W71920  18.121   5.744   1.420
10258W        W71921  30.456  12.685  14.881
10259W        W71922  33.467  35.994   0.335
10260W        W71923  19.254   1.482   0.258
10261W        W71924  26.206  16.101   1.230
10262W        W71925  22.061  20.675   3.203
10263W        W71926   2.372  24.572  11.974
10264W        W71927   4.291  37.462   2.290
10265W        W71928  27.042  36.955  12.492
10266W        W71929  22.722  30.607  14.854
10267W        W71930   0.797   5.237   4.814
10268W        W71931  16.616  23.526  12.373
10269W        W71932  26.600  30.489   2.703
10270W        W71933  11.262   7.668   4.130
10271W        W71934  26.023   1.735   0.890
10272W        W71935  24.023   9.680   0.962
10273W        W71936   0.765  41.021  12.496
10274W        W71937  16.181   1.813   4.145
10275W        W71938   5.255   7.719  14.953
10276W        W71939  14.698  32.428  11.925
10277W        W71940  22.652  27.948   5.277
10278W        W71941  41.796  33.450   3.265
10279W        W71942  32.999  39.024   0.928
10280W        W71943  13.711  22.144   4.821
10281W        W71944  12.242  32.066   3.769
10282W        W71945   0.408  20.246  11.057
10283W        W71946  43.308  19.699  11.580
10284W        W71947  39.421  42.996  13.035
10285W        W71948  44.265  31.468   1.750
10286W        W71949  21.603   2.886   1.334
10287W        W71950   9.196  28.457  12.392
10288W        W71951  33.404  16.144  10.519
10289W        W71952  16.129  33.516  12.574
10290W        W71953  27.514  15.255  14.343
10291W        W71954  17.717  20.550   1.895
10292W        W71955  22.695  32.022   1.834
10293W        W71956  27.102  18.662  14.327
10294W        W71957  14.597   8.666  10.129
10295W        W71958  15.178  23.686  10.611
10296W        W71959  35.547  16.100   2.724
10297W        W71960  26.072  38.910   5.130
10298W        W71961  30.522  39.950  11.038
10299W        W71962  21.220  25.474  10.552
10300W        W71963  26.605  12.627   1.426
10301W        W71964  12.249   4.206  14.781
10302W        W71965   5.811  22.163   3.276
10303W        W71966  24.009  37.832   1.357
10304W        W71967   5.322  19.546   1.374
10305W        W71968  42.412  28.183  14.394
10306W        W71969  15.253  39.348   4.666
10307W        W71970  25.645   4.725  11.489
10308W        W71971   6.750  40.536   1.930
10309W        W71972   9.350   5.308   0.951
10310W        W71973   8.855  33.532   4.326
10311W        W71974  38.949  11.629   3.777
10312W        W71975  43.393  38.408  12.899
10313W        W71976  18.628  11.295   2.727
10314W        W71977  27.496  30.972  14.306
10315W        W71978  11.304  43.021  13.360
10316W        W71979  38.447  35.030   0.283
10317W        W71980  13.748   2.391   4.216
10318W        W71981  29.161  14.786  14.773
10319W        W71982  18.669  21.689   1.441
10320W        W71983  33.569  34.413  14.861
10321W        W71984  28.176  21.096   3.685
10322W        W71985  32.511   6.922   5.680
10323W        W71986  14.735  42.314  11.421
10324W        W71987  17.282  30.099  13.414
10325W        W71988  19.160  14.636  11.588
10326W        W71989  25.547  43.935  13.929
10327W        W71990  22.018  28.499  11.497
10328W        W71991  33.470  13.802   1.213
10329W        W71992  28.142  17.241  14.914
10330W        W71993  37.835  41.023  12.839
10331W        W71994  16.788  21.612   3.294
10332W        W71995  40.467  23.135  12.879
10333W        W71996  10.216  19.074  14.331
10334W        W71997  33.530  26.560   3.744
10335W        W71998  22.524  28.158  14.510
10336W        W71999  27.595   3.378   0.476
10337W        W72000   1.777  28.118  10.942
10338W        W72001   4.877  28.936   5.282
10339W        W72002  27.540  42.460   1.338
10340W        W72003  40.408  17.559   4.757
10341W        W72004  18.589  24.509   0.907
10342W        W72005   0.879  32.558  12.456
10343W        W72006   2.765  41.312  14.891
10344W        W72007  17.685  29.461   1.768
10345W        W72008  10.372  30.432   3.780
10346W        W72009  36.873   0.429   4.676
10347W        W72010  25.161  34.987   3.816
10348W        W72011  25.577  16.284  10.628
10349W        W72012  16.072   4.753  12.978
10350W        W72013  31.142  27.594  14.760
10351W        W72014  19.576  20.218   3.312
10352W        W72015  18.167  31.939  13.324
10353W        W72016  43.977  40.408  10.427
10354W        W72017  18.645   2.916  13.455
10355W        W72018  14.663   9.389  11.551
10356W        W72019   9.671  39.921   3.699
10357W        W72020  21.034  33.027   5.304
10358W        W72021  22.687  27.618   4.296
10359W        W72022  14.589  20.714   0.904
10360W        W72023  14.323  25.470   4.331
10361W        W72024  44.832  14.306   5.302
10362W        W72025   2.239   0.933   4.702
10363W        W72026   4.297  13.782  14.387
10364W        W72027  18.782  30.101  11.403
10365W        W72028  30.457  41.398  13.794
10366W        W72029  11.322   4.353  11.418
10367W        W72030  42.329  28.458  11.087
10368W        W72031   4.795  22.165   3.250
10369W        W72032   1.850  34.078   0.401
10370W        W72033  16.593  17.695   4.241
10371W        W72034  33.884  43.505  10.899
10372W        W72035  33.039  41.432  11.108
10373W        W72036   5.360  21.541  11.124
10374W        W72037  28.117  36.356   3.293
10375W        W72038  30.139  41.922   0.867
10376W        W72039  18.549   4.410   2.235
10377W        W72040  34.958  39.809  14.376
10378W        W72041   3.350   7.376  14.938
10379W        W72042  36.497   8.698  13.323
10380W        W72043  11.197  24.636   1.385
10381W        W72044  23.724  39.909  10.957
10382W        W72045  42.865   0.408   1.261
10383W        W72046  41.969   2.424   4.732
10384W        W72047  33.459   1.412  12.526
10385W        W72048   9.773  13.316   2.889
10386W        W72049  26.073  23.234  14.333
10387W        W72050  10.283  37.010   3.315
10388W        W72051  24.547   7.331  13.491
10389W        W72052  15.731  26.014  13.965
10390W        W72053  19.147  38.428   3.230
10391W        W72054   7.179  43.971   0.384
10392W        W72055  11.706   1.358  14.866
10393W        W72056  11.678  21.043  13.425
10394W        W72057  39.328  29.040   4.326
10395W        W72058  11.820   7.858  14.977
10396W        W72059  16.583  42.876  10.994
10397W        W72060  23.004  33.605  14.017
10398W        W72061  21.639  40.919   3.667
10399W        W72062   1.761  21.546   3.756
10400W        W72063   6.774  22.519   0.278
10401W        W72064  12.635  19.278  12.861
10402W        W72065  30.130  25.209   0.779
10403W        W72066  22.209  13.740   2.784
10404W        W72067  21.096  18.553  13.460
10405W        W72068   7.173  37.005  11.486
10406W        W72069  16.607  43.424   1.351
10407W        W72070  23.548   2.469   1.400
10408W        W72071   2.720  30.957   1.814
10409W        W72072   2.768  37.575  13.938
10410W        W72073  18.648  19.672  10.891
10411W        W72074  34.084   5.259  10.983
10412W        W72075  17.300  40.351  13.499
10413W        W72076  41.029  37.357   1.813
10414W        W72077  21.594  16.670  10.082
10415W        W72078  21.726  23.600   4.238
10416W        W72079   4.339  21.624  12.393
10417W        W72080  34.055  17.101  13.521
10418W        W72081  16.124  20.669   0.354
10419W        W72082   8.783  34.427   2.251
10420W        W72083   4.937  31.581   0.927
10421W        W72084  38.901  15.188  10.617
10422W        W72085  17.223  33.598   3.659
10423W        W72086  43.507  20.750   3.205
10424W        W72087  15.189   9.324   3.804
10425W        W72088  17.782  31.611   0.766
10426W        W72089  37.843  27.130   1.717
10427W        W72090  31.467  27.597  10.599
10428W        W72091  33.939   3.847  10.926
10429W        W72092  17.297   6.427  14.893
10430W        W72093  26.119  22.110   0.882
10431W        W72094  35.464  27.966  12.855
10432W        W72095   5.915  40.947  10.984
10433W        W72096  23.680  20.062  13.515
10434W        W72097  28.678   3.775  12.416
10435W        W72098   1.916  15.642   0.806
10436W        W72099  30.497  33.022  12.091
10437W        W72100   1.855  44.850   0.277
10438W        W72101   0.876  16.729   0.455
10439W        W72102   4.424  25.056  12.535
10440W        W72103  36.406  24.093   0.892
10441W        W72104  28.016   7.182   4.133
10442W        W72105  43.987  37.983  11.937
10443W        W72106   9.700  33.513   1.292
10444W        W72107  23.610  40.409   2.224
10445W        W72108  37.926   0.963  14.901
10446W        W72109  39.824   7.720   4.791
10447W        W72110  32.013   1.468   0.407
10448W        W72111  32.993  30.645   4.254
10449W        W72112   3.822  39.958  13.844
10450W        W72113   8.210  25.189   5.284
10451W        W72114   6.851   0.840  14.282
10452W        W72115  11.366  15.084   1.327
10453W        W72116  31.093  20.630  14.341
10454W        W72117   7.898  38.455   0.926
10455W        W72118   1.468   7.883  11.438
10456W        W72119  27.964  20.221   3.233
10457W        W72120  24.173  25.702   2.758
10458W        W72121   6.368   2.319  14.966
10459W        W72122  15.819  15.580   3.197
10460W        W72123  39.362   1.834   1.893
10461W        W72124  18.119  17.721   1.425
10462W        W72125   6.913   5.714   0.958
10463W        W72126  36.875  26.954  10.555
10464W        W72127  18.629  38.832   3.870
10465W        W72128  36.533  44.836   0.464
10466W        W72129  24.093  24.616  11.919
10467W        W72130  23.081  28.601  14.904
10468W        W72131  29.089  23.111   3.288
10469W        W72132  30.094  15.652  11.539
10470W        W72133  12.317  12.350   4.282
10471W        W72134  37.402  33.068   1.788
10472W        W72135  31.465  44.459  12.015
10473W        W72136  26.019  36.001   3.638
10474W        W72137  16.196  32.098  13.876
10475W        W72138  41.948  41.354   9.992
10476W        W72139  41.386  36.360  12.961
10477W        W72140  41.950  16.689   2.186
10478W        W72141  34.076  14.737   0.379
10479W        W72142   5.928  11.307  11.877
10480W        W72143   6.737  26.589  11.457
10481W        W72144  34.508   6.721  13.528
10482W        W72145  26.513  39.449   4.635
10483W        W72146   2.790  19.779  13.809
10484W        W72147  19.052  32.415   2.749
10485W        W72148  28.136  13.183  10.584
10486W        W72149  13.825   7.227   5.151
10487W        W72150   0.919   2.757   4.607
10488W        W72151  22.740  41.932   0.899
10489W        W72152  11.157  43.353   1.794
10490W        W72153  26.156  14.828   2.208
10491W        W72154   5.854  44.286   0.843
10492W        W72155  33.990  44.393   4.812
10493W        W72156   7.743  36.860  14.897
10494W        W72157  37.886   8.251   4.805
10495W        W72158  43.386  44.427  14.013
10496W        W72159   1.732  30.459   4.154
10497W        W72160  30.926  16.786   3.384
10498W        W72161  18.735  40.808   1.790
10499W        W72162  36.448  44.763  10.506
10500W        W72163  15.296  38.949   3.170
10501W        W72164   3.819  36.501  13.896
10502W        W72165  40.366  34.468  14.986
10503W        W72166   4.377  14.216   4.736
10504W        W72167  19.746  14.159   2.691
10505W        W72168  28.501  25.468  11.062
10506W        W72169   8.372  29.501   1.701
10507W        W72170   5.762  43.460   1.798
10508W        W72171   0.460  20.228   0.345
10509W        W72172  42.323  28.555   2.720
10510W        W72173  32.008  32.533   2.879
10511W        W72174  21.601  44.416  12.495
10512W        W72175   8.694  14.763   1.266
10513W        W72176  35.044  28.075  13.361
10514W        W72177  20.239  14.173  11.459
10515W        W72178   1.417  13.661  12.468
10516W        W72179  27.042  20.611  14.483
10517W        W72180  43.320  42.447   1.916
10518W        W72181   9.342   2.336   4.202
10519W        W72182  11.138  25.057   0.263
10520W        W72183  43.901  43.817  10.894
10521W        W72184  28.117  22.026   0.862
10522W        W72185   0.303  13.654  12.972
10523W        W72186  24.537   8.279   2.716
10524W        W72187  17.560  16.258  13.405
10525W        W72188  15.643  39.898  13.959
10526W        W72189  36.899  35.075   3.291
10527W        W72190   4.720   2.942   0.427
10528W        W72191  26.469  20.645   4.264
10529W        W72192  21.199  44.968  10.587
10530W        W72193  33.002  27.127   2.864
10531W        W72194  35.452   3.426  12.912
10532W        W72195  10.774  28.053   2.690
10533W        W72196  43.371  18.636  11.996
10534W        W72197  28.000  19.765   0.293
10535W        W72198  39.966   9.380  10.615
10536W        W72199  37.870  30.136  12.426
10537W        W72200  26.682  13.694   4.325
10538W        W72201  32.131   4.705  12.383
10539W        W72202  37.993   8.870   0.963
10540W        W72203  31.614  12.221   0.756
10541W        W72204  31.079   2.368   1.369
10542W        W72205  18.064  15.592   2.298
10543W        W72206   5.317  14.623   4.230
10544W        W72207  24.623  41.372   0.901
10545W        W72208  22.650  21.036   3.340
10546W        W72209  17.775  44.871   0.357
10547W        W72210   4.820  38.403  11.375
10548W        W72211  43.427  10.832   0.256
10549W        W72212   5.397  17.129   3.283
10550W        W72213  14.114   5.888   0.744
10551W        W72214  20.146  29.611  10.478
10552W        W72215   8.371  26.680  10.930
10553W        W72216  39.449  38.845  13.418
10554W        W72217  23.990  29.615   9.998
10555W        W72218   2.910  21.730   0.826
10556W        W72219  17.751   0.854  11.857
10557W        W72220   0.933  37.843  12.573
10558W        W72221  18.760  18.126   1.696
10559W        W72222  22.105  14.234  10.448
10560W        W72223   5.881  30.986   2.367
10561W        W72224  34.511   9.810   9.491
10562W        W72225  33.905  23.031   1.922
10563W        W72226  13.251   0.808  12.404
10564W        W72227  43.017   8.841  13.002
10565W        W72228  11.339  28.079  11.116
10566W        W72229  37.074  22.540   4.774
10567W        W72230   3.296  38.863   0.312
10568W        W72231  12.745   6.290  12.018
10569W        W72232  24.556  23.207  11.074
10570W        W72233  37.855   9.646   4.799
10571W        W72234   0.466  18.287  12.526
10572W        W72235   0.807  21.028  13.061
10573W        W72236  16.731  41.983   1.782
10574W        W72237  11.292   6.305  13.953
10575W        W72238  12.350  35.899  11.947
10576W        W72239   7.220  35.569   1.313
10577W        W72240   9.201  34.564  11.594
10578W        W72241  23.735  18.233  12.528
10579W        W72242   7.843  28.156  11.992
10580W        W72243  10.342  17.092   0.811
10581W        W72244  34.042  41.446   1.316
10582W        W72245  31.500  33.510   0.748
10583W        W72246   3.231  16.076  11.531
10584W        W72247   0.433  24.107  11.097
10585W        W72248  43.464  23.693   3.159
10586W        W72249  40.870  38.013  10.997
10587W        W72250  21.621  40.812   0.784
10588W        W72251  14.664  11.811   4.750
10589W        W72252  42.466  31.642   1.261
10590W        W72253  41.318  10.639  13.499
10591W        W72254  21.248  22.572   4.711
10592W        W72255   4.914  42.991   2.828
10593W        W72256  12.172   7.326   0.742
10594W        W72257  13.740  44.467  13.007
10595W        W72258  21.551  34.078   1.805
10596W        W72259  41.846  27.632  13.806
10597W        W72260  15.704   6.268   3.799
10598W        W72261  30.504  27.065  10.936
10599W        W72262  38.384  10.300  14.350
10600W        W72263  44.434  36.994  13.832
10601W        W72264  40.456  10.377  10.492
10602W        W72265  16.239  21.187  12.025
10603W        W72266  42.914  21.519   4.133
10604W        W72267  38.419  28.627   4.341
10605W        W72268   9.156  24.021   0.328
10606W        W72269   8.657  12.362   4.741
10607W        W72270  16.274  22.205  13.320
10608W        W72271  36.844  15.181   1.758
10609W        W72272  30.540  16.582  11.977
10610W        W72273  16.711  42.789   5.094
10611W        W72274  40.920  25.476  14.956
10612W        W72275  42.427  22.143   1.812
10613W        W72276  31.043  21.577   2.702
10614W        W72277  21.548  31.982  14.438
10615W        W72278  38.985  16.634   2.199
10616W        W72279   9.797  36.495  11.869
10617W        W72280  36.912  14.677  12.049
10618W        W72281  12.159  25.624  13.384
10619W        W72282  31.031  26.023   2.813
10620W        W72283   6.681  11.137   4.278
10621W        W72284  43.967   7.893   1.912
10622W        W72285  44.952   6.789  14.980
10623W        W72286  38.927  42.437   2.215
10624W        W72287  31.124  42.824  12.838
10625W        W72288   0.859  34.076  12.361
10626W        W72289  24.191  29.991   4.319
10627W        W72290  37.910   3.404  12.411
10628W        W72291  42.905  40.500  14.937
10629W        W72292  29.573  36.023   3.758
10630W        W72293  19.667  15.147   3.334
10631W        W72294   4.331  42.809  10.036
10632W        W72295  18.052  44.350   4.802
10633W        W72296  24.075  18.182   4.280
10634W        W72297  26.490  40.947   1.356
10635W        W72298  31.482  14.755  13.877
10636W        W72299  20.656  35.930   0.284
10637W        W72300   1.808  18.709   1.219
10638W        W72301  16.108  34.592  12.578
10639W        W72302  12.681  35.594   3.647
10640W        W72303  19.641   5.706  14.784
10641W        W72304  14.677  11.749   2.321
10642W        W72305  17.279   9.297   2.225
10643W        W72306   8.813  18.260   0.332
10644W        W72307   4.733  27.070   2.275
10645W        W72308  39.316  21.168  13.871
10646W        W72309  15.121  18.289   1.291
10647W        W72310  11.792   7.192   2.314
10648W        W72311  31.431   7.845  11.049
10649W        W72312   8.207  22.016  12.368
10650W        W72313  40.033  14.155   0.814
10651W        W72314  22.542  44.816   1.445
10652W        W72315   1.873  13.171  13.888
10653W        W72316  28.623  30.492  12.388
10654W        W72317  42.859   9.365   1.794
10655W        W72318  17.707  44.493   4.237
10656W        W72319  28.501   3.941  11.376
10657W        W72320  44.361  29.094  13.536
10658W        W72321  38.029  17.690  11.103
10659W        W72322  38.505  43.932   4.161
10660W        W72323  12.649  21.528  13.048
10661W        W72324   8.665  14.636   4.223
10662W        W72325  22.109  15.797  14.308
10663W        W72326  30.085  26.554   1.408
10664W        W72327   0.353  38.421  11.567
10665W        W72328   8.326  27.588  13.820
10666W        W72329  21.145   6.812  14.928
10667W        W72330  42.513  41.955   3.271
10668W        W72331  19.229  15.238  12.417
10669W        W72332  22.522  14.629   4.168
10670W        W72333  21.611  20.607  14.010
10671W        W72334  39.912  22.082   0.776
10672W        W72335  23.634  24.068   1.235
10673W        W72336   4.889  25.170   1.372
10674W        W72337  41.802   4.366  12.503
10675W        W72338  29.631  10.646   3.206
10676W        W72339   4.800   3.919  11.396
10677W        W72340  25.711  34.883   3.790
10678W        W72341  35.861  18.715   0.964
10679W        W72342   3.714  20.754   0.329
10680W        W72343   4.870  12.828  13.903
10681W        W72344  42.018  11.128   0.905
10682W        W72345  18.218  40.400  10.997
10683W        W72346   5.850  41.906   3.148
10684W        W72347  25.191  41.854   5.116
10685W        W72348   1.264   5.770   1.222
10686W        W72349  10.637  41.464  14.360
10687W        W72350   7.265  24.620  11.008
10688W        W72351  42.011  44.264  11.049
10689W        W72352  40.952  18.790   1.842
10690W        W72353  36.057  17.191  10.947
10691W        W72354   0.813  27.141  12.972
10692W        W72355   2.791  24.689  11.593
10693W        W72356  44.779   3.844   2.667
10694W        W72357  35.870  37.994  12.478
10695W        W72358   7.799  27.053  12.018
10696W        W72359  12.740   7.229  13.450
10697W        W72360  19.668  18.090  13.928
10698W        W72361  13.130  26.109   2.812
10699W        W72362  25.143  39.512  11.465
10700W        W72363   9.788   2.283  11.857
10701W        W72364  36.591  37.835  12.045
10702W        W72365  28.143   8.894   3.840
10703W        W72366  30.449   4.789  11.603
10704W        W72367   1.899  24.049   0.888
10705W        W72368  13.822  39.978  14.880
10706W        W72369  17.569  17.242  14.399
10707W        W72370   4.751   9.376   2.780
10708W        W72371  38.492  17.088  12.061
10709W        W72372  27.624  23.148  11.401
10710W        W72373  24.542  13.620  14.487
10711W        W72374  31.475  39.330  11.054
10712W        W72375  41.510   7.405  10.505
10713W        W72376   3.282  33.884   4.748
10714W        W72377   7.675  26.558  12.968
10715W        W72378  23.141  16.730   4.601
10716W        W72379  20.626  38.891   1.841
10717W        W72380   9.388   3.856   2.286
10718W        W72381  22.181  43.934  13.060
10719W        W72382  40.934  24.996   2.691
10720W        W72383  16.713  19.695   4.771
10721W        W72384  42.374  15.257  13.341
10722W        W72385  27.524  11.252  11.604
10723W        W72386  26.563   3.755  12.515
10724W        W72387   7.252  19.745   3.267
10725W        W72388  40.981  22.033  13.357
10726W        W72389   2.756  25.602   3.791
10727W        W72390  37.853   9.655  13.327
10728W        W72391   8.795  29.525  10.581
10729W        W72392  31.459  41.830  14.892
10730W        W72393   3.344  19.659   9.970
10731W        W72394  32.938  44.958  13.533
10732W        W72395  18.192  34.599   4.158
10733W        W72396  31.108   0.878  13.468
10734W        W72397  36.975   8.284   0.958
10735W        W72398  11.830  17.114  14.372
10736W        W72399  43.983  22.543   4.299
10737W        W72400  10.219  44.877  12.356
10738W        W72401  32.885  15.772  14.412
10739W        W72402   8.324  10.826  10.935
10740W        W72403   1.824  22.012   4.719
10741W        W72404  19.605  15.725  14.854
10742W        W72405  27.581  18.192  14.816
10743W        W72406  16.259  20.092   1.697
10744W        W72407  12.777   0.443  12.529
10745W        W72408   3.337  18.119  13.487
10746W        W72409  14.099   7.678  10.587
10747W        W72410   3.305  17.793   2.370
10748W        W72411  26.033  44.490  12.974
10749W        W72412   6.369   0.754  10.513
10750W        W72413   6.400  44.778   3.320
10751W        W72414  18.075  32.391   1.262
10752W        W72415  41.313   1.781   2.337
10753W        W72416  29.590  40.532  11.925
10754W        W72417  11.692   3.345  13.883
10755W        W72418  28.512  22.218   2.403
10756W        W72419  13.236  28.510   1.413
10757W        W72420  36.479  20.562  10.631
10758W        W72421   6.254  37.339   4.314
10759W        W72422  20.035   1.391   0.316
10760W        W72423  19.237   5.689  14.899
10761W        W72424  28.176  33.086   4.193
10762W        W72425  13.310  14.590  11.059
10763W        W72426  43.337   0.836  12.945
10764W        W72427  40.835  11.652  14.968
10765W        W72428  29.063   4.877  10.947
10766W        W72429  21.735  11.324   2.388
10767W        W72430  25.561   4.923   3.288
10768W        W72431  32.928  27.182  14.927
10769W        W72432  19.580  39.425  14.301
10770W        W72433  44.861  44.945  11.513
10771W        W72434  41.018  32.003   4.122
10772W        W72435  19.699  14.660  12.039
10773W        W72436   6.198  19.150  13.878
10774W        W72437  39.325  30.920   2.707
10775W        W72438  34.419  42.817   0.863
10776W        W72439   2.832  41.954  10.937
10777W        W72440  17.263  11.214  10.512
10778W        W72441  17.788  30.044   2.885
10779W        W72442  30.132  42.310  14.324
10780W        W72443   0.268  14.624   1.750
10781W        W72444  42.020   2.328   0.836
10782W        W72445  36.876  39.553  14.809
10783W        W72446  40.524  17.566   0.246
10784W        W72447  26.663  29.483   4.296
10785W        W72448  38.397  32.450  12.465
10786W        W72449  40.484  27.623   4.792
10787W        W72450  24.517  35.008   4.689
10788W        W72451  40.961  19.582   2.299
10789W        W72452  20.723   7.892   3.813
10790W        W72453  38.467  39.017  13.890
10791W        W72454  35.483  38.523   4.119
10792W        W72455  21.753   6.413   1.287
10793W        W72456  11.666  12.772   0.955
10794W        W72457   6.873  10.259   4.316
10795W        W72458  44.314  34.048   1.266
10796W        W72459  18.637  10.332  11.981
10797W        W72460  42.939  43.491  14.917
10798W        W72461  42.303   1.324   0.808
10799W        W72462  19.043  22.158   4.255
10800W        W72463  20.216  16.590  12.072
10801W        W72464   4.343   0.459   3.684
10802W        W72465  20.524   5.248  12.091
10803W        W72466  10.853  40.855  14.459
10804W        W72467  41.331  19.252  13.397
10805W        W72468  18.109   7.803   2.268
10806W        W72469  28.512   7.176   2.902
10807W        W72470  19.563  33.919   0.414
10808W        W72471  37.084  19.185   4.140
10809W        W72472   2.440  18.061  10.636
10810W        W72473  15.661  36.389   2.858
10811W        W72474  28.059  41.405   2.890
10812W        W72475  43.481   5.821   1.376
10813W        W72476  33.512   5.413   1.327
10814W        W72477  15.634   3.309   3.728
10815W        W72478  17.147  35.871   2.310
10816W        W72479  29.623  23.657  10.957
10817W        W72480  29.601  29.982  11.419
10818W        W72481  17.222   4.833  10.053
10819W        W72482  19.196   3.890  14.461
10820W        W72483  40.942  23.713  12.076
10821W        W72484  22.172  14.600  14.989
10822W        W72485  12.255  25.049  11.495
10823W        W72486  24.032  42.857  14.852
10824W        W72487  30.649   0.408  14.931
10825W        W72488   3.224   5.701   0.465
10826W        W72489  10.642  26.628   0.331
10827W        W72490  39.920  14.679   2.863
10828W        W72491  25.201   0.893   1.377
10829W        W72492  24.107  23.133   3.795
10830W        W72493  12.358  21.641   0.250
10831W        W72494   3.269  16.810  13.005
10832W        W72495   5.727   7.410   3.804
10833W        W72496  39.050  25.059   0.927
10834W        W72497   6.271  27.541  13.927
10835W        W72498   1.780  37.037  10.933
10836W        W72499  38.822  20.046   1.756
10837W        W72500  15.145  38.063   3.367
10838W        W72501  41.911  39.019  12.994
10839W        W72502  11.818  26.480  10.010
10840W        W72503   5.899   9.396   4.333
10841W        W72504  44.377  16.602   2.368
10842W        W72505  19.134  20.720   3.368
10843W        W72506  30.606  17.579  14.361
10844W        W72507  19.685  44.862   2.666
10845W        W72508  33.068  17.674  10.507
10846W        W72509  21.110  35.528  10.926
10847W        W72510  42.379  23.106   3.717
10848W        W72511  25.058  36.003  12.888
10849W        W72512   5.736  28.653   0.890
10850W        W72513  15.742  13.635  12.463
10851W        W72514  21.556   1.803   4.173
10852W        W72515  43.415  34.579   0.276
10853W        W72516  29.935   2.945   3.797
10854W        W72517  26.977  17.665   0.796
10855W        W72518  17.688  37.921   0.877
10856W        W72519  35.949  15.668   3.819
10857W        W72520  32.885  31.617  10.579
10858W        W72521  15.756  36.468  12.473
10859W        W72522  27.159  38.969   3.793
10860W        W72523  34.378  31.415   4.617
10861W        W72524  25.508  37.357  10.002
10862W        W72525  31.918   4.796   2.744
10863W        W72526   0.784  26.666   5.202
10864W        W72527  31.049  20.040  13.334
10865W        W72528   9.773  30.161   0.901
10866W        W72529  16.581  19.678   0.335
10867W        W72530   3.397   0.878   4.662
10868W        W72531  44.833   3.325   0.435
10869W        W72532  19.053  26.612  14.904
10870W        W72533  20.129   6.906   1.291
10871W        W72534  31.500  38.551  12.423
10872W        W72535  37.070  39.428   4.781
10873W        W72536  42.367  29.998   3.350
10874W        W72537   3.889  20.205  13.030
10875W        W72538  36.350  41.879  11.429
10876W        W72539  38.341  11.180  11.855
10877W        W72540   5.253  36.395  10.631
10878W        W72541  24.628   8.395   4.325
10879W        W72542  31.981  39.819  13.926
10880W        W72543  20.657  24.597  10.538
10881W        W72544   7.801  16.176  11.464
10882W        W72545  19.174   1.390   2.323
10883W        W72546   5.825   3.455   4.657
10884W        W72547  13.712  41.392   4.786
10885W        W72548   3.289  19.571  13.429
10886W        W72549  14.721   5.710   4.787
10887W        W72550  38.355  38.957   0.956
10888W        W72551  24.668  11.751  13.915
10889W        W72552  41.859  40.857  11.385
10890W        W72553  30.557   9.260  13.060
10891W        W72554  28.450  43.478  12.043
10892W        W72555  19.058  15.152   3.384
10893W        W72556  29.530  38.834   4.310
10894W        W72557  20.536  42.336  14.921
10895W        W72558  37.839  16.692  12.844
10896W        W72559  38.062  29.078   2.238
10897W        W72560  44.904  32.132   1.223
10898W        W72561  30.103  42.327   3.370
10899W        W72562   6.382  28.641  13.327
10900W        W72563  32.037  13.646  13.791
10901W        W72564  30.974  20.594  12.855
10902W        W72565  17.759  37.898  10.603
10903W        W72566  29.625  42.926  14.933
10904W        W72567  11.740  15.634  10.020
10905W        W72568  11.197  24.191  11.536
10906W        W72569  36.426   1.740  13.402
10907W        W72570  22.152   5.407   2.403
10908W        W72571  37.394  33.410   3.318
10909W        W72572  43.275  27.097  13.968
10910W        W72573  20.205  22.024   3.287
10911W        W72574  11.648  15.679  11.971
10912W        W72575  42.931  17.751   4.125
10913W        W72576  30.456  10.735   1.847
10914W        W72577  37.447  29.667   0.769
10915W        W72578   7.231   7.873   2.717
10916W        W72579  21.570   8.893   2.262
10917W        W72580  10.849  35.067  10.893
10918W        W72581   3.820  34.102   2.396
10919W        W72582  36.427  17.652  11.032
10920W        W72583  34.886  11.744  13.319
10921W        W72584  12.771  36.918  12.442
10922W        W72585  18.692  20.596   0.308
10923W        W72586  40.378  34.920  10.457
10924W        W72587  40.460  23.010  13.533
10925W        W72588  18.192  42.985  14.021
10926W        W72589  16.145  31.938   1.890
10927W        W72590   2.346  44.269  10.033
10928W        W72591  39.038  34.005   1.373
10929W        W72592  23.578  20.528   2.776
10930W        W72593  20.590  20.643  13.438
10931W        W72594  28.012  43.819  11.063
10932W        W72595  44.335  42.843  12.502
10933W        W72596  11.863  13.604  12.409
10934W        W72597  28.643  23.671  11.903
10935W        W72598   3.873  29.069   3.794
10936W        W72599  15.280  23.999   0.811
10937W        W72600  30.626  37.526  13.840
10938W        W72601   0.983  16.594  12.522
10939W        W72602  38.004  26.123   0.439
10940W        W72603  34.098  21.210  11.574
10941W        W72604  17.172  18.259   0.382
10942W        W72605  25.629  12.709  10.992
10943W        W72606  35.428  16.275   4.196
10944W        W72607   6.747  35.361  13.356
10945W        W72608  15.774  25.617   4.793
10946W        W72609  24.032  24.163  10.025
10947W        W72610  38.033  29.478  11.462
10948W        W72611   2.760   2.267   3.825
10949W        W72612   3.872  20.640   2.691
10950W        W72613  12.285   1.786   0.285
10951W        W72614  26.098  39.433   0.934
10952W        W72615  17.086  42.969  11.909
10953W        W72616  38.531  11.332  13.410
10954W        W72617  28.933   0.968   1.846
10955W        W72618   1.901   2.301  13.863
10956W        W72619  22.684  35.036   0.393
10957W        W72620  28.537  35.907  14.843
10958W        W72621  20.124  10.357  11.507
10959W        W72622  16.641  37.347  14.895
10960W        W72623  20.121  41.370   1.304
10961W        W72624  10.844  42.359   3.666
10962W        W72625  18.215  30.925   0.348
10963W        W72626  39.491  17.775  12.871
10964W        W72627  32.035  42.434   0.759
10965W        W72628  33.606  32.087  12.485
10966W        W72629  10.830  37.835   1.301
10967W        W72630  14.333  26.977  14.801
10968W        W72631  43.501  36.391  11.489
10969W        W72632  21.206  25.159   5.275
10970W        W72633   3.819  13.634   2.799
10971W        W72634  26.647  37.083  10.583
10972W        W72635  12.645  39.841  12.982
10973W        W72636  19.766  28.483  12.080
10974W        W72637  14.710   0.830   2.210
10975W        W72638  18.273   7.776  13.325
10976W        W72639  13.785  13.806  10.887
10977W        W72640   4.866  26.585   3.318
10978W        W72641  40.845   0.873  10.473
10979W        W72642  37.896  12.630  12.025
10980W        W72643  18.258  16.769  10.620
10981W        W72644  28.563  17.709   3.339
10982W        W72645  22.217   2.806   1.833
10983W        W72646  34.502  29.152   3.339
10984W        W72647  11.645  25.662  10.601
10985W        W72648  34.512  34.889  13.525
10986W        W72649  24.534  23.676   9.673
10987W        W72650  14.311  37.449  12.064
10988W        W72651  28.440  42.821   1.828
10989W        W72652  18.133  25.666  14.861
10990W        W72653  32.938  26.482  13.948
10991W        W72654   3.719  43.312  10.581
10992W        W72655  30.117  39.346  12.067
10993W        W72656   5.214   8.179   4.229
10994W        W72657  20.735  27.995  12.034
10995W        W72658  20.691  28.118   1.337
10996W        W72659  32.959  34.459  12.965
10997W        W72660  13.120  13.312   1.375
10998W        W72661   9.309   7.909   3.745
10999W        W72662  42.887  33.407   1.360
11000W        W72663   7.415  28.547  13.484
11001W        W72664  18.191  16.662   0.856
11002W        W72665  29.101  13.130  11.559
11003W        W72666  35.389  39.526  11.542
11004W        W72667  20.555   4.729   0.931
11005W        W72668  35.585   1.772  12.832
11006W        W72669  35.086  12.738  10.523
11007W        W72670  16.152  20.232  10.643
11008W        W72671  42.382  17.790   3.762
11009W        W72672   1.258  12.332  13.983
11010W        W72673  38.564   9.779   2.781
11011W        W72674  40.452   0.264  11.501
11012W        W72675  28.130   6.237   3.206
11013W        W72676  15.638  34.394   3.248
11014W        W72677   6.730  24.060   0.800
11015W        W72678   0.949  14.593  12.081
11016W        W72679  25.997  20.148   1.727
11017W        W72680   3.857  31.966  10.491
11018W        W72681  11.192  32.955  12.914
11019W        W72682  34.418  21.754  12.875
11020W        W72683  22.582  38.481   0.446
11021W        W72684  23.174  40.881   1.251
11022W        W72685  28.027  34.097  14.395
11023W        W72686   8.270  43.919  12.047
11024W        W72687  38.379  25.125  11.898
11025W        W72688  20.705  19.768  11.420
11026W        W72689  41.906  22.022  13.040
11027W        W72690  41.349  27.192  12.566
11028W        W72691  16.651  20.146   4.208
11029W        W72692  18.129  18.296  11.608
11030W        W72693  25.044  20.062  14.870
11031W        W72694  40.990  44.404  14.979
11032W        W72695  23.121  39.477   9.657
11033W        W72696  23.604   9.372  13.465
11034W        W72697  11.229  14.251   3.812
11035W        W72698  26.475  19.249  13.343
11036W        W72699  39.380  11.264   1.710
11037W        W72700  10.830   9.329   2.858
11038W        W72701  11.690   5.232  11.037
11039W        W72702  32.594  31.007   0.747
11040W        W72703  40.966  18.574  11.859
11041W        W72704  39.968  25.010  10.945
11042W        W72705  13.196  38.024   0.803
11043W        W72706  39.397  12.119   1.879
11044W        W72707   1.764  33.427   5.269
11045W        W72708   6.299  18.230  14.309
11046W        W72709   8.370   2.271  11.981
11047W        W72710  13.184  15.273  13.803
11048W        W72711   6.734  31.414  13.320
11049W        W72712  32.555  37.939   4.277
11050W        W72713  43.851  36.439  11.433
11051W        W72714  26.073   0.825   0.756
11052W        W72715  17.181  28.993   3.793
11053W        W72716  13.712  25.003   4.200
11054W        W72717  37.984  23.056  13.369
11055W        W72718  25.067  28.000  12.832
11056W        W72719   8.740   9.736  12.015
11057W        W72720  44.903  43.335   2.317
11058W        W72721   4.418  32.967   4.789
11059W        W72722  42.483   5.708  13.981
11060W        W72723  42.345  31.085   2.199
11061W        W72724  41.312   7.792  11.508
11062W        W72725   8.750  43.972   2.290
11063W        W72726  32.497  19.766   0.371
11064W        W72727  44.934   0.784   3.849
11065W        W72728  24.111  34.055  13.810
11066W        W72729  42.517  22.561  14.440
11067W        W72730  24.088  13.135   4.694
11068W        W72731  20.149  39.321  11.037
11069W        W72732  20.579   5.426  11.093
11070W        W72733  25.617   6.330  12.841
11071W        W72734  32.118  17.579   3.276
11072W        W72735  37.424  33.936   3.149
11073W        W72736   0.260  21.042  10.625
11074W        W72737  43.964  11.266   5.098
11075W        W72738   3.333  24.509  14.361
11076W        W72739  19.121  39.033  11.460
11077W        W72740  28.030   6.359   2.305
11078W        W72741   3.750  17.211   2.295
11079W        W72742  26.604  27.029  12.534
11080W        W72743  41.497  38.518  12.069
11081W        W72744  19.042   4.370   4.758
11082W        W72745  31.599  43.009   2.236
11083W        W72746  37.003  37.955  10.903
11084W        W72747  13.207  33.552   2.339
11085W        W72748  22.733   1.421  11.894
11086W        W72749  33.972  35.461  11.930
11087W        W72750  30.969  18.593   4.691
11088W        W72751   9.155   2.341  11.465
11089W        W72752  20.628  29.951   1.888
11090W        W72753  40.398  40.947   0.801
11091W        W72754  25.651   3.443   0.789
11092W        W72755  29.642  23.120  10.564
11093W        W72756  10.234  40.950  12.446
11094W        W72757  13.307  27.166  10.513
11095W        W72758  10.353   1.954   4.615
11096W        W72759   8.384  15.083  13.410
11097W        W72760  19.779  15.652  13.409
11098W        W72761  24.552  19.702   1.341
11099W        W72762  12.257  20.725   4.740
11100W        W72763   3.319  36.548  10.635
11101W        W72764   1.285  21.120  10.464
11102W        W72765  41.972  24.616   3.349
11103W        W72766  32.908  25.087  12.970
11104W        W72767  24.119   6.848   9.991
11105W        W72768  34.404  18.784   1.816
11106W        W72769  43.826   8.394   0.461
11107W        W72770   7.792  15.236   2.184
11108W        W72771  34.471  17.700   3.383
11109W        W72772  20.054  27.155   1.285
11110W        W72773  36.460  11.341   3.231
11111W        W72774  39.391   2.324  11.994
11112W        W72775  42.811  20.189  14.289
11113W        W72776  18.751   9.771  13.419
11114W        W72777   5.227   0.917   1.277
11115W        W72778  33.910  41.329  13.839
11116W        W72779  29.547  32.038   3.813
11117W        W72780  14.336  16.748   4.632
11118W        W72781  31.933  20.264   2.891
11119W        W72782  10.730   4.420   4.689
11120W        W72783  12.203   1.251   0.916
11121W        W72784  12.198  13.238   4.152
11122W        W72785  15.234  18.182  13.984
11123W        W72786  44.894  16.694  14.339
11124W        W72787  41.527  15.256  10.611
11125W        W72788   0.399  29.551   2.831
11126W        W72789  36.363  31.405   0.854
11127W        W72790  17.699  38.443   1.226
11128W        W72791  23.734  31.558   2.697
11129W        W72792  13.248  39.881   5.142
11130W        W72793  40.463  17.210   2.354
11131W        W72794  37.960  13.846   0.439
11132W        W72795  29.649   8.232  10.595
11133W        W72796  39.023  44.431  12.470
11134W        W72797  16.653  15.261  13.853
11135W        W72798  23.540  18.127   3.733
11136W        W72799  40.324   6.699  11.109
11137W        W72800  15.579  33.123   0.429
11138W        W72801  34.954  29.663  11.541
11139W        W72802  28.115  26.953  12.856
11140W        W72803  37.464  22.044  11.928
11141W        W72804  14.207  21.683   3.359
11142W        W72805   3.287  29.600   1.768
11143W        W72806  25.210   0.851  11.549
11144W        W72807  17.681  13.624  13.428
11145W        W72808   0.890  25.992   2.203
11146W        W72809  23.502  16.762   1.748
11147W        W72810  38.387   8.855  12.903
11148W        W72811   0.885  20.274  13.859
11149W        W72812  20.133  22.236   2.704
11150W        W72813   7.825  36.910   2.846
11151W        W72814   1.768  44.472   2.207
11152W        W72815   9.193  31.988  12.890
11153W        W72816  42.890  14.319  13.449
11154W        W72817   4.216  39.379   1.870
11155W        W72818  28.044  10.757  11.983
11156W        W72819  13.661  17.691  13.793
11157W        W72820  19.595  16.141  14.826
11158W        W72821  36.362  28.980   4.256
11159W        W72822  10.643  11.856   1.390
11160W        W72823  20.535  43.276  11.491
11161W        W72824  40.923  24.634  12.349
11162W        W72825  35.962   4.743   2.258
11163W        W72826  22.222  32.112   0.464
11164W        W72827  30.434  33.497   3.177
11165W        W72828  25.479  25.611  14.487
11166W        W72829  43.892  28.177   4.755
11167W        W72830  13.127  32.902   3.629
11168W        W72831  18.660  32.966  11.556
11169W        W72832  26.504   8.895  12.992
11170W        W72833  38.419  27.583   4.708
11171W        W72834  23.683  31.446  11.044
11172W        W72835  38.421  19.265  10.558
11173W        W72836  18.231   2.903  12.419
11174W        W72837  44.269  37.831   2.193
11175W        W72838  29.988  44.803   0.763
11176W        W72839  28.662  36.876   1.240
11177W        W72840  29.457  33.018  13.355
11178W        W72841  38.468   9.707   2.368
11179W        W72842   9.698  23.126  10.982
11180W        W72843  34.959  37.369   3.685
11181W        W72844  21.141  18.104   4.689
11182W        W72845  31.133  29.662  14.426
11183W        W72846   9.777  19.614   0.843
11184W        W72847  41.035  41.857  12.374
11185W        W72848  44.953  34.503   4.230
11186W        W72849   1.787  14.627   3.200
11187W        W72850   7.758  33.085  11.982
11188W        W72851  18.141   8.364   1.716
11189W        W72852   6.810  28.036   4.258
11190W        W72853  42.466  13.150  14.286
11191W        W72854  20.584  24.048  12.892
11192W        W72855  33.456  13.106  14.364
11193W        W72856   6.265  12.821  13.048
11194W        W72857   5.201  21.710   1.774
11195W        W72858  36.466  16.319   1.438
11196W        W72859  25.052  12.808  14.458
11197W        W72860   4.931  10.275   4.782
11198W        W72861  31.485  42.007   2.765
11199W        W72862  31.926   6.684  11.513
11200W        W72863  27.188  14.168  14.382
11201W        W72864  25.505  41.809   2.685
11202W        W72865  35.575  12.185  13.385
11203W        W72866  23.144  21.169  12.375
11204W        W72867  26.151  43.941  14.386
11205W        W72868   1.344  31.443   2.246
11206W        W72869   8.223  27.992  12.569
11207W        W72870  13.618  34.977  14.366
11208W        W72871  40.332  37.868   2.697
11209W        W72872  13.773   3.444  11.374
11210W        W72873  16.779  38.340   0.731
11211W        W72874  32.128   3.777   0.352
11212W        W72875  10.673  13.731  12.998
11213W        W72876   4.910  20.143   4.770
11214W        W72877  19.234  41.825  12.457
11215W        W72878  33.497   0.970  13.983
11216W        W72879  36.859  23.085   4.834
11217W        W72880  15.581  11.710  11.498
11218W        W72881   1.444  28.133  14.292
11219W        W72882  24.179  22.682  11.456
11220W        W72883  33.532  40.959   4.311
11221W        W72884  27.117  16.102  14.370
11222W        W72885  37.045  20.740  12.902
11223W        W72886   1.938  24.725   4.666
11224W        W72887  26.474   8.356  14.315
11225W        W72888  31.407  24.987   0.771
11226W        W72889  42.902   6.193   5.751
11227W        W72890  10.330  36.885   9.937
11228W        W72891   2.438   2.843  13.057
11229W        W72892  25.001  24.600  10.901
11230W        W72893  22.605  15.235  13.922
11231W        W72894   1.311  42.031  14.967
11232W        W72895   3.845  22.238   2.855
11233W        W72896  25.146  28.615   4.599
11234W        W72897   7.249   4.916   5.186
11235W        W72898  33.111  25.577  11.373
11236W        W72899   9.391   7.687  13.391
11237W        W72900  20.723  38.419  14.886
11238W        W72901  22.527  16.157   3.868
11239W        W72902   2.755  36.004   3.745
11240W        W72903  30.600  22.147  11.552
11241W        W72904  41.907  34.587   1.806
11242W        W72905  37.030  42.487  12.889
11243W        W72906  22.612  26.982   4.736
11244W        W72907   4.930  42.471   3.312
11245W        W72908  38.500  34.500  14.475
11246W        W72909  19.656  35.435  12.928
11247W        W72910  13.697  33.546  14.340
11248W        W72911  16.739  12.838   1.383
11249W        W72912  41.996   9.739  10.897
11250W        W72913  44.372  27.619   1.409
11251W        W72914   3.843  29.078  14.313
11252W        W72915   5.900   5.269  10.572
11253W        W72916  14.299  23.535   1.821
11254W        W72917  38.405   0.258  12.491
11255W        W72918  36.550   1.402  11.920
11256W        W72919  35.581   1.835  13.839
11257W        W72920   1.943   1.854  10.424
11258W        W72921  18.219   7.248  12.052
11259W        W72922  26.188   5.744   3.221
11260W        W72923  43.765  33.063   2.354
11261W        W72924   7.192  20.727  14.963
11262W        W72925  17.301  30.628  14.884
11263W        W72926   3.731  13.627  11.588
11264W        W72927  24.624  40.395  13.893
11265W        W72928  21.708  33.920  14.275
11266W        W72929  19.127  13.670   4.175
11267W        W72930  16.690  23.666  14.386
11268W        W72931  23.713  23.199  14.411
11269W        W72932  41.380  17.555   1.736
11270W        W72933  35.928  34.865  12.088
11271W        W72934   6.745  42.016  11.547
11272W        W72935  31.407  30.496   0.930
11273W        W72936  39.943  31.131   0.829
11274W        W72937  10.677   3.730   4.808
11275W        W72938  26.195  22.583   1.343
11276W        W72939  33.976   2.891   1.840
11277W        W72940  44.917  18.271   2.874
11278W        W72941   5.203  31.929  12.962
11279W        W72942   4.862  42.997  10.538
11280W        W72943  36.983   5.358   2.843
11281W        W72944  35.490  27.196   2.401
11282W        W72945   4.787  35.543   1.700
11283W        W72946  29.525  33.545  14.307
11284W        W72947  17.652  15.289   1.302
11285W        W72948  16.216  39.835   4.214
11286W        W72949  35.109  39.505  14.334
11287W        W72950  30.499  25.653   3.718
11288W        W72951  21.223  11.754  13.434
11289W        W72952  28.087  40.835  13.811
11290W        W72953  21.614  39.402   3.696
11291W        W72954  22.589  37.383   3.312
11292W        W72955  13.168   6.762   0.448
11293W        W72956  21.521  18.677  10.484
11294W        W72957  35.507   4.936   2.363
11295W        W72958  13.242  14.719   3.387
11296W        W72959  16.132   9.301   0.890
11297W        W72960   4.838   6.744   2.844
11298W        W72961   7.849   6.822   2.274
11299W        W72962  18.108  38.954   3.750
11300W        W72963  19.243   1.293   4.779
11301W        W72964  12.154  35.544  12.537
11302W        W72965  42.497  44.966   2.360
11303W        W72966   9.700  39.022   0.755
11304W        W72967  42.444  43.828  11.072
11305W        W72968  29.579  41.443   1.830
11306W        W72969   4.852  19.634  11.535
11307W        W72970   8.665  18.648  14.870
11308W        W72971  16.172  17.220  13.982
11309W        W72972  28.584  44.932   2.835
11310W        W72973   7.363  19.284  10.948
11311W        W72974   1.802  44.327  14.988
11312W        W72975  15.273  26.183   4.143
11313W        W72976  32.953  32.426   4.656
11314W        W72977  24.142  10.230  14.978
11315W        W72978  34.898  44.298  12.086
11316W        W72979  10.279  43.391  10.599
11317W        W72980   5.925   0.381   1.908
11318W        W72981  10.661  11.759   9.921
11319W        W72982  13.786  36.557   1.418
11320W        W72983  20.264   9.254   4.180
11321W        W72984  21.132   1.900   5.319
11322W        W72985  14.162   1.333   1.375
11323W        W72986  36.418   7.697  14.969
11324W        W72987  38.841  20.104  11.969
11325W        W72988   2.826  19.725   1.896
11326W        W72989  38.503  13.840  12.425
11327W        W72990   7.702  31.471  14.799
11328W        W72991  25.065   8.201   2.691
11329W        W72992  21.204  17.282  12.861
11330W        W72993  32.942  14.204   0.874
11331W        W72994  35.979  13.629  11.465
11332W        W72995  22.236  41.452   4.685
11333W        W72996  32.071  35.379   3.858
11334W        W72997  28.185  29.989  14.765
11335W        W72998  21.218   8.786   1.377
11336W        W72999   8.300  32.623   2.243
11337W        W73000  22.540  40.319  14.985
11338W        W73001  24.051   1.376   4.792
11339W        W73002   9.289  41.343   4.338
11340W        W73003  14.698  43.942  11.062
11341W        W73004  18.255   2.818  13.873
11342W        W73005  15.239  34.522  13.799
11343W        W73006  16.073  37.944  14.311
11344W        W73007  11.814  38.338   0.435
11345W        W73008   6.751  32.104   2.752
11346W        W73009  24.013  17.269  10.117
11347W        W73010   1.868  19.252  10.929
11348W        W73011  42.324  27.108   1.711
11349W        W73012  13.348  12.667   2.809
11350W        W73013   6.813  23.052  11.434
11351W        W73014  19.198  28.157   1.893
11352W        W73015  21.084  31.038   3.175
11353W        W73016  15.199  24.660  11.500
11354W        W73017   6.329  28.674  14.776
11355W        W73018   4.328   0.325   0.809
11356W        W73019  38.906  19.245  13.537
11357W        W73020  21.101  23.620   5.265
11358W        W73021   1.956  27.179   3.709
11359W        W73022  41.864  36.094   3.161
11360W        W73023   8.267   3.780  13.481
11361W        W73024   4.866  38.909   3.670
11362W        W73025  37.487  13.338   5.149
11363W        W73026  38.830  39.429  10.980
11364W        W73027   8.200  31.465   3.188
11365W        W73028  10.265  25.162   4.204
11366W        W73029  25.040  32.593  14.318
11367W        W73030  20.058  24.014  13.933
11368W        W73031  42.989  29.464   1.226
11369W        W73032   4.231  30.929  10.405
11370W        W73033   7.237  35.507   2.317
11371W        W73034  21.634  17.225   1.728
11372W        W73035   6.357  26.526  14.325
11373W        W73036  29.450  41.408  12.580
11374W        W73037  30.053   4.285  13.959
11375W        W73038  37.428  29.569  10.542
11376W        W73039   6.217  21.610   3.201
11377W        W73040   7.187  29.963   4.783
11378W        W73041  14.692  38.556  12.423
11379W        W73042   4.352  29.968  12.855
11380W        W73043  18.663  16.194   4.622
11381W        W73044   5.242  19.052   1.919
11382W        W73045  28.039  33.127   1.282
11383W        W73046  35.104  17.244  10.592
11384W        W73047  27.030  17.072  14.493
11385W        W73048  20.088  28.989   3.249
11386W        W73049  29.527  42.943  10.073
11387W        W73050   6.420  41.811  11.079
11388W        W73051  15.669  42.869  10.569
11389W        W73052  21.758   4.703   1.752
11390W        W73053   9.884  26.091  10.540
11391W        W73054  12.780  20.048  14.929
11392W        W73055  35.961  39.420  13.381
11393W        W73056   1.826  12.220  12.486
11394W        W73057  23.701   6.392  13.430
11395W        W73058  17.765  40.508  12.459
11396W        W73059  31.584   3.326   4.210
11397W        W73060  16.683  11.769  12.485
11398W        W73061  13.240  12.653   1.875
11399W        W73062  23.614   3.885   1.806
11400W        W73063  22.585   3.354   4.329
11401W        W73064  13.259  14.287   1.849
11402W        W73065  31.996  31.562  14.419
11403W        W73066  28.142  12.199   0.894
11404W        W73067  20.649  35.596   2.724
11405W        W73068  44.990   1.762  12.499
11406W        W73069  24.683   8.781  12.576
11407W        W73070  32.008   0.250   2.271
11408W        W73071  25.186  22.041   0.446
11409W        W73072   8.324  10.221  14.354
11410W        W73073  10.761  36.989  10.950
11411W        W73074  10.746  38.353   1.279
11412W        W73075   8.163  15.734   4.649
11413W        W73076  17.773  14.717  11.475
11414W        W73077  13.685  11.338   2.233
11415W        W73078  12.128  13.112  11.871
11416W        W73079  44.881  35.572   3.316
11417W        W73080   6.389  29.588   2.297
11418W        W73081  34.369  36.971   0.412
11419W        W73082  27.108  23.568   3.770
11420W        W73083  36.452  16.091  14.992
11421W        W73084  42.350   8.315   0.895
11422W        W73085  40.390  10.702  10.111
11423W        W73086   7.756  29.612  14.443
11424W        W73087  13.120  44.924   4.750
11425W        W73088  29.597  42.498  11.956
11426W        W73089   2.404  43.833   4.610
11427W        W73090  43.770  36.066   1.747
11428W        W73091   1.880  36.067   0.873
11429W        W73092  13.313  41.825  13.332
11430W        W73093  44.910  29.651  14.418
11431W        W73094  28.127  43.394  11.099
11432W        W73095  36.885  35.368  14.486
11433W        W73096  25.527  10.683   2.193
11434W        W73097  23.571  27.970   4.133
11435W        W73098  31.049  14.638   2.849
11436W        W73099  30.585  31.983  11.427
11437W        W73100  27.195  14.818  10.603
11438W        W73101  20.261  16.103  10.921
11439W        W73102  29.622  27.541  12.536
11440W        W73103  15.211  41.036  10.146
11441W        W73104  15.786  17.101   4.297
11442W        W73105   4.918  34.390   3.753
11443W        W73106  24.128  25.474   0.346
11444W        W73107  16.633  42.404  10.554
11445W        W73108   2.794   9.285  14.283
11446W        W73109  31.931  44.837  12.911
11447W        W73110  20.625  23.544  13.956
11448W        W73111   3.254  10.273   5.224
11449W        W73112   1.403  24.664   4.613
11450W        W73113  35.027  42.296  11.978
11451W        W73114   9.322  21.083  13.536
11452W        W73115  14.774  22.716  10.533
11453W        W73116  31.909  17.288   5.259
11454W        W73117  42.976  18.691   1.445
11455W        W73118  26.037  42.983  13.027
11456W        W73119  28.980  10.841   4.238
11457W        W73120  24.483  41.418   2.684
11458W        W73121  39.494   0.357  12.043
11459W        W73122  22.132  30.093  11.010
11460W        W73123  26.009   8.205  11.435
11461W        W73124  17.091  34.581   2.812
11462W        W73125   1.410   6.796   1.734
11463W        W73126  30.658  24.722   1.886
11464W        W73127   1.439  42.805  13.900
11465W        W73128  38.434  41.403  13.321
11466W        W73129  21.555  25.488   5.318
11467W        W73130  26.135  14.686  13.340
11468W        W73131  25.592  18.083  13.978
11469W        W73132  16.652  18.695  10.899
11470W        W73133  32.038  39.328  12.404
11471W        W73134  20.623  37.049  12.858
11472W        W73135  36.034  15.301  12.982
11473W        W73136  40.842  31.538  12.876
11474W        W73137  28.531  40.813   2.365
11475W        W73138  26.593  40.921   9.450
11476W        W73139  32.886  22.116   5.099
11477W        W73140  31.437  31.404  14.498
11478W        W73141  33.575  18.276   0.309
11479W        W73142  34.396  39.415  12.406
11480W        W73143  43.888   5.233  10.110
11481W        W73144  13.685  38.407   4.756
11482W        W73145  17.798  15.729   0.852
11483W        W73146   7.823  41.984  12.407
11484W        W73147  24.562   2.400  14.400
11485W        W73148   6.219  39.003   3.770
11486W        W73149  38.029  39.914   2.675
11487W        W73150   5.772  35.383   4.274
11488W        W73151   5.831  15.680   3.345
11489W        W73152  33.537  27.108  14.934
11490W        W73153   7.685   9.347   0.778
11491W        W73154  31.106  17.760  13.330
11492W        W73155  40.015  25.678  12.853
11493W        W73156  32.886   3.942   2.835
11494W        W73157  14.282  14.243  13.861
11495W        W73158  18.740   1.359  11.973
11496W        W73159  44.808   2.264   1.284
11497W        W73160  18.292  13.796   0.735
11498W        W73161  30.934  16.296   3.776
11499W        W73162  38.393  33.009  14.849
11500W        W73163   1.431   3.827  12.952
11501W        W73164  33.551  33.463  13.914
11502W        W73165  44.914  16.072   2.875
11503W        W73166  13.728   1.249   1.313
11504W        W73167  14.302  36.354   4.258
11505W        W73168  39.334  18.088   4.613
11506W        W73169  19.122  42.299  12.088
11507W        W73170  38.386  22.092   3.737
11508W        W73171  34.898  27.536   4.624
11509W        W73172  25.135   8.895   3.638
11510W        W73173  37.831   8.665  10.017
11511W        W73174  30.049  31.644   2.337
11512W        W73175  15.213  20.752  13.816
11513W        W73176  29.655   9.689  12.373
11514W        W73177  31.971  35.394  12.829
11515W        W73178  12.329  16.245   1.857
11516W        W73179  33.064  40.853  13.523
11517W        W73180   2.356  10.335   1.451
11518W        W73181   3.286  12.627   0.368
11519W        W73182  44.877  39.997  11.061
11520W        W73183  10.779  13.348   1.715
11521W        W73184  27.626   7.356   2.892
11522W        W73185   4.781  19.713  10.890
11523W        W73186  42.351  13.203  13.523
11524W        W73187  40.852   6.392  13.463
11525W        W73188  31.994  16.588   1.428
11526W        W73189  22.034  44.432   0.889
11527W        W73190  41.498  25.033   3.269
11528W        W73191   2.725  33.400  12.914
11529W        W73192  33.394  29.441  12.876
11530W        W73193  44.817  39.927  13.541
11531W        W73194  35.432   0.925  10.996
11532W        W73195   1.470  41.322   2.254
11533W        W73196   1.273  18.586  13.908
11534W        W73197  26.996  44.776   3.257
11535W        W73198   4.332  44.502  14.374
11536W        W73199  36.852   7.334   2.718
11537W        W73200  13.676  28.677   1.440
11538W        W73201  29.152  26.472   1.796
11539W        W73202  30.436  11.830   4.187
11540W        W73203  20.166   0.319  12.948
11541W        W73204  10.338  28.647  11.433
11542W        W73205  42.907  41.041  13.812
11543W        W73206  16.645  12.768  13.875
11544W        W73207   6.777   2.359  14.330
11545W        W73208  39.377  40.333   4.639
11546W        W73209  34.514  41.373   0.283
11547W        W73210  16.129  22.186  14.897
11548W        W73211  17.715  41.536  12.872
11549W        W73212   9.153  30.463  13.891
11550W        W73213   1.978  12.127  13.968
11551W        W73214  10.231   5.426   4.328
11552W        W73215  16.108  43.411   2.319
11553W        W73216  18.685  36.525   3.719
11554W        W73217   2.305   2.277  13.887
11555W        W73218  20.068  26.513  10.888
11556W        W73219  31.612   2.943  11.920
11557W        W73220   1.306  19.765   0.954
11558W        W73221   6.395  18.115  13.985
11559W        W73222  12.177  43.370  10.970
11560W        W73223  24.220  31.973  14.030
11561W        W73224   4.799   0.310   0.879
11562W        W73225  42.804  25.481  13.852
11563W        W73226  10.143  28.487  12.361
11564W        W73227   7.756   7.796  12.869
11565W        W73228  40.476   6.305   2.179
11566W        W73229  37.027  32.026  11.463
11567W        W73230  13.690   7.898   0.460
11568W        W73231   0.371  33.511   3.729
11569W        W73232  29.152  17.777   0.749
11570W        W73233  40.800   6.821  11.430
11571W        W73234  40.447  21.023  13.940
11572W        W73235  15.798   4.337  10.897
11573W        W73236   2.839  21.049  14.957
11574W        W73237  42.905  38.326  14.980
11575W        W73238  33.407  14.139  11.420
11576W        W73239   8.866  21.110  12.087
11577W        W73240  44.326  31.053   0.957
11578W        W73241  27.494  39.819   0.265
11579W        W73242  31.030   0.848   1.794
11580W        W73243   3.270  36.569   1.259
11581W        W73244  26.044  21.728   4.658
11582W        W73245  18.585  12.660  11.573
11583W        W73246  11.153   7.898  11.487
11584W        W73247  25.697   9.386   2.265
11585W        W73248  36.483   6.308  13.548
11586W        W73249  26.632  43.313  10.439
11587W        W73250  18.218  28.515   4.151
11588W        W73251  19.165   7.757  13.393
11589W        W73252  23.023   5.699  14.303
11590W        W73253  13.670  36.871  12.861
11591W        W73254  43.009  13.183   3.776
11592W        W73255  39.812  25.471  10.490
11593W        W73256  23.207   6.690   4.323
11594W        W73257  21.614  23.007   3.210
11595W        W73258  28.669   6.773   1.853
11596W        W73259  43.382  27.168  11.869
11597W        W73260  31.968  44.433   0.891
11598W        W73261  24.107  44.877   0.476
11599W        W73262  35.090  31.627   4.241
11600W        W73263   7.373  42.397   4.291
11601W        W73264  22.689   6.315  10.416
11602W        W73265  27.457  36.437   0.260
11603W        W73266   9.867   9.694   0.391
11604W        W73267  42.902  43.368   4.265
11605W        W73268  33.961   6.369  13.401
11606W        W73269  10.343  19.095  14.783
11607W        W73270  37.389  23.682  14.427
11608W        W73271   0.845  27.541   9.938
11609W        W73272  16.638  15.151  12.415
11610W        W73273  16.710  24.716   1.372
11611W        W73274   7.180  21.581  12.461
11612W        W73275  39.989   2.462   1.295
11613W        W73276   5.247  13.161  13.813
11614W        W73277  42.934  34.598  11.032
11615W        W73278  28.673  15.677   0.474
11616W        W73279  15.159  14.201   1.854
11617W        W73280  38.864  16.162  11.444
11618W        W73281   2.391  37.851  11.601
11619W        W73282  42.490  20.556   3.749
11620W        W73283   9.716  42.780  12.898
11621W        W73284  21.136  25.623   2.764
11622W        W73285  26.091  37.875   1.399
11623W        W73286  39.882  36.464   3.357
11624W        W73287   4.239  23.723  10.570
11625W        W73288  40.021  15.259  10.605
11626W        W73289   4.884  26.670  13.818
11627W        W73290  42.349   2.809  13.873
11628W        W73291  21.134  40.535   2.316
11629W        W73292  32.045  34.097  11.045
11630W        W73293  15.088  14.118  10.057
11631W        W73294  32.966  43.499  14.345
11632W        W73295   5.758  15.291  14.937
11633W        W73296  30.057   8.174   2.240
11634W        W73297  23.643  15.200   0.297
11635W        W73298  15.596   4.239   4.128
11636W        W73299  13.705   9.841   3.858
11637W        W73300  22.010   1.371   2.310
11638W        W73301  12.655  29.957   0.288
11639W        W73302   9.326  27.538  10.431
11640W        W73303  28.677  21.117  13.484
11641W        W73304  23.668  27.626  13.341
11642W        W73305  30.499  37.843  11.121
11643W        W73306  11.178  23.131  14.291
11644W        W73307   8.170  23.110  10.405
11645W        W73308   5.423  18.628  10.427
11646W        W73309  17.587   3.354  12.900
11647W        W73310   5.311   0.986  11.532
11648W        W73311   2.740  42.857  10.079
11649W        W73312  30.507  16.081   0.427
11650W        W73313  21.065  35.020   0.955
11651W        W73314  44.888  40.356  11.983
11652W        W73315  22.652   0.856  14.992
11653W        W73316  41.533  36.427  11.001
11654W        W73317  38.933  16.096   2.231
11655W        W73318  40.448  42.406  13.902
11656W        W73319  20.083   7.904   0.451
11657W        W73320  37.931  38.048  12.575
11658W        W73321  42.019   5.267  13.058
11659W        W73322  21.752  20.754   0.252
11660W        W73323  10.374  41.303   3.373
11661W        W73324   4.346  31.984   0.775
11662W        W73325  29.120  37.542   5.312
11663W        W73326  22.729  40.385   4.181
11664W        W73327  32.424  32.632   0.844
11665W        W73328   2.375  10.697  14.953
11666W        W73329  44.797  19.044  14.367
11667W        W73330   2.773  20.617  10.959
11668W        W73331  26.995  33.101   4.160
11669W        W73332  17.619  20.659  11.095
11670W        W73333  28.177  13.326   3.632
11671W        W73334  41.949  15.178   4.819
11672W        W73335   4.926  30.622  11.060
11673W        W73336  12.764  42.891   4.240
11674W        W73337  41.398  30.023   4.327
11675W        W73338  24.046  19.275   3.335
11676W        W73339   6.216  42.917  10.001
11677W        W73340  19.727   7.876   2.772
11678W        W73341  44.824  36.555  12.086
11679W        W73342  33.626   4.869   3.271
11680W        W73343  31.511  30.453  13.841
11681W        W73344  42.430  11.787   9.600
11682W        W73345   6.326  26.494  10.466
11683W        W73346  11.129  32.014   0.891
11684W        W73347  25.648  35.525   1.243
11685W        W73348  41.809  36.450  10.519
11686W        W73349  43.891  38.348   1.711
11687W        W73350  13.124  37.387  14.967
11688W        W73351  36.868  21.716   0.305
11689W        W73352   0.774  40.818   3.375
11690W        W73353  43.353   5.764   0.449
11691W        W73354  10.175  30.990  12.836
11692W        W73355   8.211  23.550   4.667
11693W        W73356  32.954  19.554   4.274
11694W        W73357  10.749   4.830  12.491
11695W        W73358   1.918  31.001   2.376
11696W        W73359  23.044   2.854  10.966
11697W        W73360  43.928   6.789   3.678
11698W        W73361  30.647  25.491   0.340
11699W        W73362   8.404  32.499   1.322
11700W        W73363  34.494   1.762  14.505
11701W        W73364  34.959  44.010   0.424
11702W        W73365  18.754  44.355  10.054
11703W        W73366  30.463  32.569  12.966
11704W        W73367  35.593  40.953   4.779
11705W        W73368  27.595  23.636   0.364
11706W        W73369  29.171   8.821   3.651
11707W        W73370  33.480   6.212   9.607
11708W        W73371  29.435  11.182  12.883
11709W        W73372  27.478  36.064  14.351
11710W        W73373  44.372  35.053  14.303
11711W        W73374  13.172  37.369   2.744
11712W        W73375   3.395   6.190  11.925
11713W        W73376  11.633   3.381   1.711
11714W        W73377  38.500  23.605  11.527
11715W        W73378  37.875  19.097  12.500
11716W        W73379  11.840  31.459  11.864
11717W        W73380  29.454  21.066  12.844
11718W        W73381   9.324  24.611   2.711
11719W        W73382  37.469  37.995   1.215
11720W        W73383  41.987  10.363   1.904
11721W        W73384  19.213  17.723  10.966
11722W        W73385   6.204  29.037  11.410
11723W        W73386  34.418   4.844   2.721
11724W        W73387  22.607  10.837  13.477
11725W        W73388  10.240  38.508  14.317
11726W        W73389  24.533  32.116  14.816
11727W        W73390   2.755  32.506   0.896
11728W        W73391  37.521  35.896   0.777
11729W        W73392  17.677  16.652  14.822
11730W        W73393  21.094  42.307  12.523
11731W        W73394  40.422  27.151  12.009
11732W        W73395  40.517  41.936  14.992
11733W        W73396  25.617  44.391   0.281
11734W        W73397  29.039  28.166  10.592
11735W        W73398  20.135  14.696   0.936
11736W        W73399   6.241  16.111  13.354
11737W        W73400  34.382   6.283   3.289
11738W        W73401  38.444  35.563   0.831
11739W        W73402  17.562  27.990   4.665
11740W        W73403  16.114  13.822  13.494
11741W        W73404  25.546   1.346  11.880
11742W        W73405  28.126  26.612  10.072
11743W        W73406  13.832  42.404   3.263
11744W        W73407  27.074  15.781   0.393
11745W        W73408  40.468  34.455  13.432
11746W        W73409  33.946  43.322   2.274
11747W        W73410   1.310  43.464   3.260
11748W        W73411  44.798   5.689   3.319
11749W        W73412  27.660   4.431  11.377
11750W        W73413  41.333   7.848   0.480
11751W        W73414   8.364  41.786   2.351
11752W        W73415  23.544  20.584   1.907
11753W        W73416  22.734  15.228   1.820
11754W        W73417   0.380  41.870   0.260
11755W        W73418  44.949  19.657   0.811
11756W        W73419   3.922  10.144  14.962
11757W        W73420  11.223   8.253  11.877
11758W        W73421   3.943  26.120  14.768
11759W        W73422  29.090  37.983   3.654
11760W        W73423  41.316  43.812  10.497
11761W        W73424  18.270  16.286   5.301
11762W        W73425   6.413  32.455   1.811
11763W        W73426  27.545  20.232  12.491
11764W        W73427   2.392   3.242  14.009
11765W        W73428  21.596  19.770  12.015
11766W        W73429  32.636  35.511  14.775
11767W        W73430   7.303  41.383   3.254
11768W        W73431  44.921   6.889  13.369
11769W        W73432  10.327  43.270  12.891
11770W        W73433  30.436   0.774   0.252
11771W        W73434   1.336   4.417  11.429
11772W        W73435  20.680  39.398   2.849
11773W        W73436  16.138  25.990   1.865
11774W        W73437  26.695  18.750   0.746
11775W        W73438  23.649  34.412   2.327
11776W        W73439   8.298  10.223  12.494
11777W        W73440  33.131   6.302  13.907
11778W        W73441  30.539  25.020   3.636
11779W        W73442  40.341   2.836  11.021
11780W        W73443  33.472  23.516  10.144
11781W        W73444  31.521  10.635  11.918
11782W        W73445   2.304  18.119   2.311
11783W        W73446  29.649  18.698   4.235
11784W        W73447   5.315  19.673  14.965
11785W        W73448  11.229   0.329  11.562
11786W        W73449  21.673  28.120  14.510
11787W        W73450  34.539  23.037  13.030
11788W        W73451  22.089  20.220   4.237
11789W        W73452  42.000  30.481   5.313
11790W        W73453  21.699  30.037   1.383
11791W        W73454  17.209  40.014  11.373
11792W        W73455  26.059  32.627  10.442
11793W        W73456  31.588  22.738  11.562
11794W        W73457  23.193  43.473   0.415
11795W        W73458  20.618  42.294  13.797
11796W        W73459  19.234  12.177  11.571
11797W        W73460  35.071  30.014   3.822
11798W        W73461  39.930  40.810  14.294
11799W        W73462  15.766  25.691   1.299
11800W        W73463  16.102   5.312  13.848
11801W        W73464  23.584  17.617   0.747
11802W        W73465   6.393  10.837   1.345
11803W        W73466  18.224  39.035  13.391
11804W        W73467  34.914  19.598  10.155
11805W        W73468   4.250  40.440  10.450
11806W        W73469  15.239  32.021   2.387
11807W        W73470  28.654  19.580   2.717
11808W        W73471   3.333  36.511  13.488
11809W        W73472  38.907  43.847   0.954
11810W        W73473  21.635   2.953   0.416
11811W        W73474   2.777  33.444  14.024
11812W        W73475  14.689  26.179   0.311
11813W        W73476  18.750  10.865   3.348
11814W        W73477  24.051  21.556  10.540
11815W        W73478  17.267  35.498   4.620
11816W        W73479   3.429  25.553   2.690
11817W        W73480  40.982  32.458  12.364
11818W        W73481  36.026  25.083  13.340
11819W        W73482  23.993  35.100  13.792
11820W        W73483  11.215  24.008   4.799
11821W        W73484  38.341  25.696   2.333
11822W        W73485  38.533  10.353   1.819
11823W        W73486  29.600  37.963   1.263
11824W        W73487  41.514  23.995  14.010
11825W        W73488  15.716  24.633  11.599
11826W        W73489  38.878  16.132   2.790
11827W        W73490   1.241  35.894   2.261
11828W        W73491  31.448  38.431   4.717
11829W        W73492  33.084  29.584   1.845
11830W        W73493  21.551  34.994   4.717
11831W        W73494   7.887  28.010  13.002
11832W        W73495  14.158  27.512  10.949
11833W        W73496  34.073  42.363  11.376
11834W        W73497  17.688   4.424   0.879
11835W        W73498  23.079  11.321  13.538
11836W        W73499   2.730   2.825  10.907
11837W        W73500  34.009  27.490   2.366
11838W        W73501  22.084  36.536  12.362
11839W        W73502   8.239  12.226  14.466
11840W        W73503   6.676  19.157  14.419
11841W        W73504   4.208  11.294  14.376
11842W        W73505   2.820   9.655   0.822
11843W        W73506  39.987  38.005   1.784
11844W        W73507  30.483  13.295   2.662
11845W        W73508   3.356  38.061  10.493
11846W        W73509   5.429  28.988   1.711
11847W        W73510  30.594  18.188   0.291
11848W        W73511  28.113   1.906   0.921
11849W        W73512  25.678   4.258   3.662
11850W        W73513   9.182   9.365   4.719
11851W        W73514  11.864  16.586  13.437
11852W        W73515  43.964  39.047  11.386
11853W        W73516  33.907  28.461  12.009
11854W        W73517  20.261  18.278  12.051
11855W        W73518  35.901  19.239  14.992
11856W        W73519   4.320  26.609  12.877
11857W        W73520  17.738  32.415   4.280
11858W        W73521  31.011  25.025  12.456
11859W        W73522  44.885  19.240   4.221
11860W        W73523  34.538  36.351  13.537
11861W        W73524  41.370  17.178   1.896
11862W        W73525  15.163  14.142   5.091
11863W        W73526   5.839   5.305  11.484
11864W        W73527  13.190  16.197   0.461
11865W        W73528  36.921  26.076  13.329
11866W        W73529  41.517  18.568  13.386
11867W        W73530  30.937  35.921   3.670
11868W        W73531  23.650  12.277   3.801
11869W        W73532  32.993  40.918  14.489
11870W        W73533  39.980  36.476  11.912
11871W        W73534   4.731  15.180   4.132
11872W        W73535  27.007  29.146  11.421
11873W        W73536  43.882  18.556   0.327
11874W        W73537  44.475  39.863  12.530
11875W        W73538   2.432  10.725  13.914
11876W        W73539  26.189   8.246   3.840
11877W        W73540   5.288   3.364  13.321
11878W        W73541  38.354  20.687  13.960
11879W        W73542  39.482  39.457   0.872
11880W        W73543  11.791  41.345   5.125
11881W        W73544  13.782  13.124  12.016
11882W        W73545   5.732  16.280   4.176
11883W        W73546  28.008  12.227   4.664
11884W        W73547  14.828  31.143  11.457
11885W        W73548  33.488  40.326  12.504
11886W        W73549   8.739  14.334   4.703
11887W        W73550   6.376  29.430   0.906
11888W        W73551   0.878  20.232  12.965
11889W        W73552   0.252  26.651  14.836
11890W        W73553   9.864  29.153   2.739
11891W        W73554  32.616   3.913  14.811
11892W        W73555  12.749  28.965   2.878
11893W        W73556  24.667  37.442  13.535
11894W        W73557  34.473   9.151   1.344
11895W        W73558   9.755  33.540   4.169
11896W        W73559  37.993  35.376  13.008
11897W        W73560  12.181   1.861   3.340
11898W        W73561  10.809   2.927  13.903
11899W        W73562   4.447  23.656   0.367
11900W        W73563  17.722  25.623   2.749
11901W        W73564  24.532  30.123   0.461
11902W        W73565  43.455   2.249  11.386
11903W        W73566  32.069  34.471  11.014
11904W        W73567  37.941  21.526  10.532
11905W        W73568  27.047  16.308  13.806
11906W        W73569  23.165  26.096   1.788
11907W        W73570   6.255  33.901  12.002
11908W        W73571   5.726  18.139  12.385
11909W        W73572  14.800  19.272   3.321
11910W        W73573  33.382  15.622  13.469
11911W        W73574  32.637  12.186   0.842
11912W        W73575  17.275  13.688   0.892
11913W        W73576  16.287  10.384   0.795
11914W        W73577  14.708   7.814   3.303
11915W        W73578   6.416  33.978  12.878
11916W        W73579  14.646  24.662   1.893
11917W        W73580  28.494  38.426  11.013
11918W        W73581  18.745  35.521   1.884
11919W        W73582   5.820  17.564   2.824
11920W        W73583   6.818  26.205   0.869
11921W        W73584  20.216  14.274   4.241
11922W        W73585   5.242  11.332   2.198
11923W        W73586  39.354  23.189  12.450
11924W        W73587  21.033  16.689  11.500
11925W        W73588  40.832  25.998  11.613
11926W        W73589   5.710  11.760   3.851
11927W        W73590  16.245  33.625   0.282
11928W        W73591  42.500  10.693   4.628
11929W        W73592  12.285   7.209   1.838
11930W        W73593   6.864  11.337  11.048
11931W        W73594  13.175  15.088   0.870
11932W        W73595  41.533  40.545   0.418
11933W        W73596  32.987   2.839  13.847
11934W        W73597  38.497  41.912  13.528
11935W        W73598  36.993  18.266   2.321
11936W        W73599  31.647  44.847  13.814
11937W        W73600  44.441   0.981   4.238
11938W        W73601  40.051   1.797  11.562
11939W        W73602  32.437  26.459  10.595
11940W        W73603  25.555  10.730  11.950
11941W        W73604  28.464  43.475  14.379
11942W        W73605  38.532  12.677   1.361
11943W        W73606  23.066  40.375   4.698
11944W        W73607  26.056   7.722   0.435
11945W        W73608  34.034  17.700  11.873
11946W        W73609  15.746  37.409   1.735
11947W        W73610  44.803  22.070   1.750
11948W        W73611  38.327   9.228   0.364
11949W        W73612  36.421  36.943   4.316
11950W        W73613  15.107  41.511   4.346
11951W        W73614  20.239  41.934   3.268
11952W        W73615   8.682  18.067   3.638
11953W        W73616   2.319  25.535   2.722
11954W        W73617  30.123  21.214  10.408
11955W        W73618   8.862  32.515  13.879
11956W        W73619   9.325  15.611   1.867
11957W        W73620   7.320   8.336  12.932
11958W        W73621  13.792  28.659  12.051
11959W        W73622  26.158  38.504  14.292
11960W        W73623  10.367  43.894   2.821
11961W        W73624  20.646  12.734  14.407
11962W        W73625  28.128  34.528  12.007
11963W        W73626  35.428  41.343  14.012
11964W        W73627  25.987   3.418   0.793
11965W        W73628  33.928  32.906   2.362
11966W        W73629  13.131  19.716  13.922
11967W        W73630   1.890  24.228   1.882
11968W        W73631  31.020  18.142  10.483
11969W        W73632  12.302  15.128   2.181
11970W        W73633   5.760  17.152   2.325
11971W        W73634   0.306  38.327   4.726
11972W        W73635  11.730  18.252   5.233
11973W        W73636   1.248  34.083   1.758
11974W        W73637  31.944   1.441  12.537
11975W        W73638  24.546  35.358  12.900
11976W        W73639  33.579  35.059   0.467
11977W        W73640  13.196  18.230   2.882
11978W        W73641   6.335  33.571   4.231
11979W        W73642  33.978  27.130   3.352
11980W        W73643  19.780  30.148   1.401
11981W        W73644  39.809  33.460  11.395
11982W        W73645  29.542   5.888   0.821
11983W        W73646   6.796  38.992  10.946
11984W        W73647  43.326   8.704   0.830
11985W        W73648  33.989  21.713  12.423
11986W        W73649  19.544  17.246  13.366
11987W        W73650  38.982  13.780  10.528
11988W        W73651  26.576  41.940  12.065
11989W        W73652  37.871  43.004  14.860
11990W        W73653  42.314  36.047  13.847
11991W        W73654  10.317   5.395   1.285
11992W        W73655  28.581  39.479   2.246
11993W        W73656  37.479  25.021   1.787
11994W        W73657   7.822  28.521  14.880
11995W        W73658  11.817  28.084   0.872
11996W        W73659   4.779  26.656   4.143
11997W        W73660  28.120   5.219  10.500
11998W        W73661  11.668   4.810  10.588
11999W        W73662  14.821  34.058   3.671
12000W        W73663  42.293  22.694  11.997
12001W        W73664  31.909   0.324  14.007
12002W        W73665  17.594  23.587   2.359
12003W        W73666  15.095  33.041   1.795
12004W        W73667   8.369  26.610  10.455
12005W        W73668  41.850  36.889  11.999
12006W        W73669  21.057  28.183   2.418
12007W        W73670  35.007  34.871  11.968
12008W        W73671  43.275  23.732  14.929
12009W        W73672   0.290  17.718  13.035
12010W        W73673  22.597   8.265   3.799
12011W        W73674  29.082   8.745   4.287
12012W        W73675   5.261  17.688   3.270
12013W        W73676  11.129   0.380  10.613
12014W        W73677  33.078  35.548  13.532
12015W        W73678   0.275   0.777  12.973
12016W        W73679   6.255  42.803   4.151
12017W        W73680  15.688   1.276   2.776
12018W        W73681   4.787   5.698   2.748
12019W        W73682  19.162   6.316   2.740
12020W        W73683  43.342  34.033   4.612
12021W        W73684  19.155  29.639  14.368
12022W        W73685  41.900  40.810  10.941
12023W        W73686  33.097  36.412   2.700
12024W        W73687   7.350  41.403  12.874
12025W        W73688   9.886   6.388   2.887
12026W        W73689  39.994  11.715   2.796
12027W        W73690  27.188  29.148   2.776
12028W        W73691  11.774  39.449  12.348
12029W        W73692  19.280  17.790  12.088
12030W        W73693   3.246  27.085   3.305
12031W        W73694  35.970  30.106  10.497
12032W        W73695  42.987  36.541  13.398
12033W        W73696   4.276  37.529  14.923
12034W        W73697   2.242  22.145  10.914
12035W        W73698   3.713  32.505  12.840
12036W        W73699  14.731  27.082   2.867
12037W        W73700  42.983  35.077   2.389
12038W        W73701   5.874  17.580  14.912
12039W        W73702  24.710  39.464   4.836
12040W        W73703   4.245  12.748   4.169
12041W        W73704   4.826  38.384   0.259
12042W        W73705  13.315  21.190  11.938
12043W        W73706  19.134  34.464  13.949
12044W        W73707   3.927   3.314  12.837
12045W        W73708  12.239  27.507  10.913
12046W        W73709   8.720  41.293  12.089
12047W        W73710  34.038  29.128  13.431
12048W        W73711   4.258  30.581  11.030
12049W        W73712  19.273  43.908  14.277
12050W        W73713   6.252  17.776   3.353
12051W        W73714  14.308  44.272  14.361
12052W        W73715  12.636  24.544   3.378
12053W        W73716  33.481  11.274   1.838
12054W        W73717  17.242  43.390   2.792
12055W        W73718  24.700   9.835   2.790
12056W        W73719   0.474  35.580   1.858
12057W        W73720  28.510  17.708  12.515
12058W        W73721  40.511  36.984  12.952
12059W        W73722  34.392  18.120  14.935
12060W        W73723  43.968  27.591  12.378
12061W        W73724   0.358  31.467  11.494
12062W        W73725   1.838  44.456  10.954
12063W        W73726  39.815  13.623   3.712
12064W        W73727  38.017  23.609  12.554
12065W        W73728  37.440   9.792   4.650
12066W        W73729   2.439  17.587  13.030
12067W        W73730  23.632  15.690   2.207
12068W        W73731   4.334  17.253   4.678
12069W        W73732   7.276  16.750  11.464
12070W        W73733  10.206  35.447  11.961
12071W        W73734   2.746  40.394  14.376
12072W        W73735  42.964  12.270  13.453
12073W        W73736  25.978  14.685   2.700
12074W        W73737  37.984  10.188  12.462
12075W        W73738  34.887  44.875   2.402
12076W        W73739   5.321  41.960   0.936
12077W        W73740  44.805  18.184   2.223
12078W        W73741  25.630  27.977   3.382
12079W        W73742  31.134  17.134  12.568
12080W        W73743  33.490   8.402   2.669
12081W        W73744  10.311  12.748   1.797
12082W        W73745  38.910  44.969  12.910
12083W        W73746  37.846   0.819  13.356
12084W        W73747  16.812  41.929  14.762
12085W        W73748  22.181  25.115  13.983
12086W        W73749   8.391   3.394   2.680
12087W        W73750  30.033  31.473   4.195
12088W        W73751  10.829  11.177   3.371
12089W        W73752  39.936  19.745  13.543
12090W        W73753  27.642   2.862  14.383
12091W        W73754   3.408  21.205   0.827
12092W        W73755   9.213   2.768  13.997
12093W        W73756  12.692   9.273  10.406
12094W        W73757  23.594  16.143   1.351
12095W        W73758  22.563  14.601   0.904
12096W        W73759   5.277  12.667   1.321
12097W        W73760  29.099  15.693   1.695
12098W        W73761  18.643  33.962   0.400
12099W        W73762  13.720  26.179   0.273
12100W        W73763  43.911   4.733  10.982
12101W        W73764  12.760   7.786   1.804
12102W        W73765  34.494  43.432  10.896
12103W        W73766  27.115  35.914  10.914
12104W        W73767   6.794  27.678  13.856
12105W        W73768   1.753  11.722  13.410
12106W        W73769  44.272  13.257   0.857
12107W        W73770   4.269  39.499  12.523
12108W        W73771  25.699  19.255   4.675
12109W        W73772   5.376  33.480   1.831
12110W        W73773  19.142  33.476  14.376
12111W        W73774  26.496  18.269  12.888
12112W        W73775  13.162  21.549   3.383
12113W        W73776  23.991   4.925  11.970
12114W        W73777  22.051  15.192  11.522
12115W        W73778   3.740  17.608  14.430
12116W        W73779  38.553  28.036  12.395
12117W        W73780  27.138  20.661  12.460
12118W        W73781  32.545   3.260   3.759
12119W        W73782  20.118   6.365  13.399
12120W        W73783  13.679   5.909   2.245
12121W        W73784   1.793  42.444  11.415
12122W        W73785  44.356   2.312  11.504
12123W        W73786  39.014   5.875   2.785
12124W        W73787  13.170  25.073  11.129
12125W        W73788  32.948   7.818   3.302
12126W        W73789  34.013  32.414   4.208
12127W        W73790   8.200  35.996   4.313
12128W        W73791   2.890  29.050  13.498
12129W        W73792   8.779  11.685  14.970
12130W        W73793  31.105   5.434   1.877
12131W        W73794   0.960  28.164  10.894
12132W        W73795  18.174  28.544  14.809
12133W        W73796   8.212  37.852   1.922
12134W        W73797   0.439  16.266  12.067
12135W        W73798   2.250  17.568  14.766
12136W        W73799  11.835  43.001  10.043
12137W        W73800  20.209  23.529  14.378
12138W        W73801  29.493   5.310   3.219
12139W        W73802  44.366  13.171  13.342
12140W        W73803  12.773  29.638  14.964
12141W        W73804  41.449  23.016   0.933
12142W        W73805  33.461  18.787  13.905
12143W        W73806  32.609  34.487  13.802
12144W        W73807  19.601   4.768  10.955
12145W        W73808  24.599  17.213   2.368
12146W        W73809   7.842  33.399  11.970
12147W        W73810  10.310   6.829  11.032
12148W        W73811   2.830  10.330   0.739
12149W        W73812  31.076  35.993  10.099
12150W        W73813  34.493  26.995   0.923
12151W        W73814  41.348  27.684  13.929
12152W        W73815  16.149  24.069   0.483
12153W        W73816  10.216  14.173   3.310
12154W        W73817  28.668  31.069  12.885
12155W        W73818  23.012   6.773   4.654
12156W        W73819  32.518  10.865  13.039
12157W        W73820  24.179  34.008   3.820
12158W        W73821   3.228  43.430  13.347
12159W        W73822  14.199  17.111   4.770
12160W        W73823   0.463  12.737  12.067
12161W        W73824  16.664  19.638   2.786
12162W        W73825   9.322  22.045   2.273
12163W        W73826   9.199  44.398   0.280
12164W        W73827  20.273  18.619   0.428
12165W        W73828  32.061  13.136  10.620
12166W        W73829  37.350  21.724   2.331
12167W        W73830  27.062   8.216   2.737
12168W        W73831   5.287  33.985   2.835
12169W        W73832  23.656  43.005  11.378
12170W        W73833  10.339   2.412  14.847
12171W        W73834   9.737  26.569   4.769
12172W        W73835   2.324  36.999  12.558
12173W        W73836  11.170  23.174   4.721
12174W        W73837  29.939   1.334  10.512
12175W        W73838   7.888   0.829  13.534
12176W        W73839  15.595   9.335  12.343
12177W        W73840  26.181   0.406  12.456
12178W        W73841  10.366   6.873  10.021
12179W        W73842  12.121  34.569  13.346
12180W        W73843  11.684   4.721  14.015
12181W        W73844  14.286  21.519   4.784
12182W        W73845   7.328  36.412   4.763
12183W        W73846  22.637  16.727   3.822
12184W        W73847   9.335  39.921  13.425
12185W        W73848  27.103  20.121   1.311
12186W        W73849   5.312   9.733   1.366
12187W        W73850  44.498  18.718  14.345
12188W        W73851  26.536   9.284  14.862
12189W        W73852   9.314  36.457   3.252
12190W        W73853  24.609   3.217   3.241
12191W        W73854  31.495   0.471  13.796
12192W        W73855  39.326  42.897  13.802
12193W        W73856  28.524  20.031   4.822
12194W        W73857  16.702  36.366  14.284
12195W        W73858   5.846  31.004  14.014
12196W        W73859  15.701   2.234   4.300
12197W        W73860  19.140  28.647  10.619
12198W        W73861  39.551  32.533   3.642
12199W        W73862  28.104  44.754   0.313
12200W        W73863  42.800  28.669  13.010
12201W        W73864  15.749   3.391   1.221
12202W        W73865  38.505  16.752  12.912
12203W        W73866  36.365  27.953   2.781
12204W        W73867   6.289  11.782  11.405
12205W        W73868  12.176   0.250  11.980
12206W        W73869  34.400  24.080  11.552
12207W        W73870  13.170  16.089  12.395
12208W        W73871   5.327  27.971  14.789
12209W        W73872  23.724   8.256   0.816
12210W        W73873  33.539  24.069   4.615
12211W        W73874  28.111  13.277  12.864
12212W        W73875   3.405  42.939   2.896
12213W        W73876  44.935  41.799   1.931
12214W        W73877  16.774  34.490   0.831
12215W        W73878  14.132   3.222  14.007
12216W        W73879   5.767  22.724  14.504
12217W        W73880  35.593  37.502   4.663
12218W        W73881  38.059  12.155  11.034
12219W        W73882   2.764  44.789   0.380
12220W        W73883   9.220  12.159   1.375
12221W        W73884  31.105  30.070  13.331
12222W        W73885   0.789  24.678  11.385
12223W        W73886  27.660  14.760   4.709
12224W        W73887  18.259  22.061  11.905
12225W        W73888  13.652   5.762  14.474
12226W        W73889  32.924  17.244   4.179
12227W        W73890   4.769   5.338  10.570
12228W        W73891  41.891   9.188  11.562
12229W        W73892  23.661   4.872   2.865
12230W        W73893   9.218  25.123  11.882
12231W        W73894  31.053   5.860  12.984
12232W        W73895   6.779  22.680  10.910
12233W        W73896  35.919  40.474  14.023
12234W        W73897  15.782   8.662  13.002
12235W        W73898  15.135  25.120  13.382
12236W        W73899   0.757  10.757   1.793
12237W        W73900   2.227  17.230   3.708
12238W        W73901  13.700  12.680  14.419
12239W        W73902  24.136  36.040   1.398
12240W        W73903  24.627  20.631   1.413
12241W        W73904  32.993   5.405  14.467
12242W        W73905  13.282  37.978  10.632
12243W        W73906  31.416  27.557  14.407
12244W        W73907   5.413  30.594  10.515
12245W        W73908   3.877  38.424   4.818
12246W        W73909  40.535   1.855  10.535
12247W        W73910  17.786   8.800  11.380
12248W        W73911  16.180  32.538   3.655
12249W        W73912  33.122   2.405   3.773
12250W        W73913  42.808  42.976  10.632
12251W        W73914  37.403  30.937   3.853
12252W        W73915  21.537  31.065  10.479
12253W        W73916  18.606  22.045  13.809
12254W        W73917   0.925  40.850   1.880
12255W        W73918   3.717  23.698  13.541
12256W        W73919   5.311  24.709  13.882
12257W        W73920  25.576  22.026  13.369
12258W        W73921  33.119   4.241   2.710
12259W        W73922  18.153   0.864   4.764
12260W        W73923  10.653   0.309   2.725
12261W        W73924  34.555  20.726   3.861
12262W        W73925  34.530  16.287   3.180
12263W        W73926  11.736  31.958   0.476
12264W        W73927  15.776  25.189  12.941
12265W        W73928   3.814  38.496  13.475
12266W        W73929  42.335  23.524  13.420
12267W        W73930  10.816  28.528   2.352
12268W        W73931  27.637  30.163  14.862
12269W        W73932  22.174   9.363   1.845
12270W        W73933  41.403   6.745  11.025
12271W        W73934  17.800  24.038   4.149
12272W        W73935  23.715  32.931  10.575
12273W        W73936  21.579  12.297  12.348
12274W        W73937  16.205   1.426   4.129
12275W        W73938  27.480  18.288   2.236
12276W        W73939  43.409  40.947  13.909
12277W        W73940  23.056  18.255  14.019
12278W        W73941  34.580   4.328  14.869
12279W        W73942  14.317  35.877   1.357
12280W        W73943   6.201  27.541   2.238
12281W        W73944  38.946   0.326   5.294
12282W        W73945  24.187  36.366   2.859
12283W        W73946  42.280   9.277  14.432
12284W        W73947  43.011   5.380  12.514
12285W        W73948   0.307  43.908   3.221
12286W        W73949  34.542  16.669   1.876
12287W        W73950  21.697  29.608  14.796
12288W        W73951  23.114  18.258   1.808
12289W        W73952  39.353   1.765  11.426
12290W        W73953  13.639  23.219   3.698
12291W        W73954   9.805  39.934  11.440
12292W        W73955   4.445  24.198   3.809
12293W        W73956  38.948  37.036  14.010
12294W        W73957  39.558  18.189   1.862
12295W        W73958  25.991  33.424  12.496
12296W        W73959   7.884  17.107  10.901
12297W        W73960  14.126  32.907  13.307
12298W        W73961   0.764  33.950   0.318
12299W        W73962  13.611  33.072   2.695
12300W        W73963  15.298  39.330  11.385
12301W        W73964  20.614  20.153  12.423
12302W        W73965  41.316  16.688  11.869
12303W        W73966  13.112  13.743   1.853
12304W        W73967  41.359  13.778  12.976
12305W        W73968  44.303  44.984   2.232
12306W        W73969  26.659  37.844  13.460
12307W        W73970  26.067   7.860  11.947
12308W        W73971   3.371   1.738  14.851
12309W        W73972  10.149  30.152   3.639
12310W        W73973  42.475  25.037   3.708
12311W        W73974  23.195  10.290   3.297
12312W        W73975  43.407  44.272  13.343
12313W        W73976   1.796  28.571  10.960
12314W        W73977  11.127  31.937   4.171
12315W        W73978  41.947  25.546  12.572
12316W        W73979   9.769  38.512  12.850
12317W        W73980   2.800  21.552  12.447
12318W        W73981  25.687   8.866  14.311
12319W        W73982  21.554   1.739   1.831
12320W        W73983  32.922  33.588  12.860
12321W        W73984  31.918  33.451  14.420
12322W        W73985  40.918  14.249  13.019
12323W        W73986  31.531  34.111  14.462
12324W        W73987  37.393  34.401   2.808
12325W        W73988  23.143  35.051  12.392
12326W        W73989   5.870   1.430   2.197
12327W        W73990  29.667   0.897   0.764
12328W        W73991  29.463  41.830   4.734
12329W        W73992   4.724   1.338  12.940
12330W        W73993  10.813   1.289   2.341
12331W        W73994  18.261  14.691   1.704
12332W        W73995  20.685   2.849  13.399
12333W        W73996  39.477   5.805  11.483
12334W        W73997  16.248  37.855  10.470
12335W        W73998   5.850  27.972  13.476
12336W        W73999  22.073  37.363  13.430
12337W        W74000   6.196  10.748  14.358
12338W        W74001  40.392  11.715  14.938
12339W        W74002  35.051  17.654  13.011
12340W        W74003  11.182  33.000  12.429
12341W        W74004  25.666  19.657   0.876
12342W        W74005  30.538  27.497   2.249
12343W        W74006  32.051  12.804   4.616
12344W        W74007  11.161  30.007  11.538
12345W        W74008  42.929   5.752  13.934
12346W        W74009  31.010  32.083   2.854
12347W        W74010   0.289   0.983  11.041
12348W        W74011  24.672  27.542   4.146
12349W        W74012  37.875   9.328   0.934
12350W        W74013  33.433   7.731   0.285
12351W        W74014  28.186  29.538  11.387
12352W        W74015   3.852  42.793   2.260
12353W        W74016  42.388  20.549  14.505
12354W        W74017  37.470  34.379  12.931
12355W        W74018  19.141  11.369   3.301
12356W        W74019  34.380  40.977   4.227
12357W        W74020  19.237  25.141   2.736
12358W        W74021  37.349  35.953   3.241
12359W        W74022   8.780  25.616  10.469
12360W        W74023  38.946  30.131  11.905
12361W        W74024  39.046  12.803  14.423
12362W        W74025  33.993  32.933   3.223
12363W        W74026  33.451  32.035  13.029
12364W        W74027   1.864  36.547   3.659
12365W        W74028   5.289   1.977   0.940
12366W        W74029   5.738  33.107   2.211
12367W        W74030  11.214   7.408  11.949
12368W        W74031  31.417   2.949  14.020
12369W        W74032   0.950  37.038   1.736
12370W        W74033  17.154  23.649   5.104
12371W        W74034   3.757  41.010   1.923
12372W        W74035  15.785   9.704  12.859
12373W        W74036  28.481  16.736   2.229
12374W        W74037   6.770  10.636   4.273
12375W        W74038   0.788   7.758  14.354
12376W        W74039   4.279  17.202   1.870
12377W        W74040  36.417   7.326  12.455
12378W        W74041  41.947  23.553   0.300
12379W        W74042  26.533   7.329  12.893
12380W        W74043   3.317   1.902  11.478
12381W        W74044  44.799  31.915  12.867
12382W        W74045  30.645  44.361  13.838
12383W        W74046   4.357  32.106   4.835
12384W        W74047  18.764  18.117   3.175
12385W        W74048  23.555  14.281  13.513
12386W        W74049  14.646  24.160   2.735
12387W        W74050  31.563  28.992   2.191
12388W        W74051   9.235   9.342  13.481
12389W        W74052  32.976  39.515  14.806
12390W        W74053  37.947  28.613   1.767
12391W        W74054   0.404  30.107   0.406
12392W        W74055   6.690  24.634   0.394
12393W        W74056  30.590  41.338  13.506
12394W        W74057  24.161  18.117   0.783
12395W        W74058  28.051  15.175   4.686
12396W        W74059  17.759  33.079   4.180
12397W        W74060  19.061  39.985  11.522
12398W        W74061  22.521   7.201   0.343
12399W        W74062  26.174  23.065   4.703
12400W        W74063  17.066  33.897   2.307
12401W        W74064  39.060  32.533  13.895
12402W        W74065   0.390   7.834   1.280
12403W        W74066  10.341  38.521   1.328
12404W        W74067  16.767  23.688  11.880
12405W        W74068  10.266  21.261  10.453
12406W        W74069  40.441   7.808   4.353
12407W        W74070  25.578  20.247  14.319
12408W        W74071   3.292  26.693   1.876
12409W        W74072   2.279  15.242  13.359
12410W        W74073  27.150  36.415   0.412
12411W        W74074   3.773  20.185   1.274
12412W        W74075  21.740  29.590   1.794
12413W        W74076  24.030  39.840  12.024
12414W        W74077  26.595  15.656   3.323
12415W        W74078  18.629  10.213  10.452
12416W        W74079   7.880  20.266  11.004
12417W        W74080  37.070  24.594   0.928
12418W        W74081   1.764  31.919  14.385
12419W        W74082  44.451  27.980  12.934
12420W        W74083  18.131  35.967  10.935
12421W        W74084  14.311  24.663   0.822
12422W        W74085   2.367  37.914   2.243
12423W        W74086  25.182  39.970   3.808
12424W        W74087  41.805  12.184   5.103
12425W        W74088  27.462  24.537  12.064
12426W        W74089  12.190  36.434   2.356
12427W        W74090  26.120  37.929   2.683
12428W        W74091  40.318  14.279  12.557
12429W        W74092   4.828  36.552   0.769
12430W        W74093  40.355   0.415   1.842
12431W        W74094  29.124  30.442  13.956
12432W        W74095   6.305   2.306   1.257
12433W        W74096  38.869  17.726  12.908
12434W        W74097  42.894   5.306  10.025
12435W        W74098  26.183  33.474   1.282
12436W        W74099  22.628  10.803  11.525
12437W        W74100  11.697   4.706  12.869
12438W        W74101   3.714  28.493   0.795
12439W        W74102  21.598  32.574   2.237
12440W        W74103   1.260   8.401  12.387
12441W        W74104  34.611  15.766  11.509
12442W        W74105   3.304  15.781   1.733
12443W        W74106  39.444  31.078   3.637
12444W        W74107  10.847   0.826  11.454
12445W        W74108  13.766  15.225  10.633
12446W        W74109  18.746  37.884  12.356
12447W        W74110  32.547  38.480   0.310
12448W        W74111  10.298  13.692  10.986
12449W        W74112  36.389  13.707   4.797
12450W        W74113  14.110  28.933   0.329
12451W        W74114  40.993  41.862   3.305
12452W        W74115  32.424   0.342   2.354
12453W        W74116   1.464  35.497  14.391
12454W        W74117   9.376  14.628   3.755
12455W        W74118  34.538  44.273   2.672
12456W        W74119  25.068  18.645  12.926
12457W        W74120  26.162   0.878  13.376
12458W        W74121  34.950   6.322  12.486
12459W        W74122   4.935   4.444  14.918
12460W        W74123  10.722  33.875  14.302
12461W        W74124  16.255  10.835  12.093
12462W        W74125   2.347  36.428   4.271
12463W        W74126   6.838  25.651   3.288
12464W        W74127  29.499  21.050   4.719
12465W        W74128  12.851   2.417  11.877
12466W        W74129   0.311   5.862   1.721
12467W        W74130  43.940   2.309   1.441
12468W        W74131  42.481  12.806  10.924
12469W        W74132   9.878  11.823   1.446
12470W        W74133   3.763  11.690  14.365
12471W        W74134  13.258  16.226   2.873
12472W        W74135   5.297  32.049  10.488
12473W        W74136  26.136  31.420  12.380
12474W        W74137  22.209  34.615  11.128
12475W        W74138  33.451   0.964  12.924
12476W        W74139  21.137  20.143  12.950
12477W        W74140  11.828  15.232  12.453
12478W        W74141  23.053  26.101  11.989
12479W        W74142  20.123  21.110   3.754
12480W        W74143  38.326   5.768   1.733
12481W        W74144  39.372  44.858  12.355
12482W        W74145  36.909  27.512   0.755
12483W        W74146  36.425   9.254   0.958
12484W        W74147  27.030  41.903   3.332
12485W        W74148  11.194  26.541  14.975
12486W        W74149  15.281  10.730   1.927
12487W        W74150  14.728  26.020   3.795
12488W        W74151   6.301  39.518  13.878
12489W        W74152  28.985   6.185  14.792
12490W        W74153   9.341  22.606  14.375
12491W        W74154  34.419  25.111   3.839
12492W        W74155   9.193   5.780   4.717
12493W        W74156  13.336  29.948  10.549
12494W        W74157   5.367  36.940  13.426
12495W        W74158   8.388  28.015  11.898
12496W        W74159  29.449  38.998   3.378
12497W        W74160  15.690  20.702  12.426
12498W        W74161  26.959  11.289  14.351
12499W        W74162  41.791  15.793  13.850
12500W        W74163   3.856  22.604   0.437
12501W        W74164  44.920   1.249  13.449
12502W        W74165  43.344   3.280  13.436
12503W        W74166  30.496   8.685   5.185
12504W        W74167  23.495  39.521   1.258
12505W        W74168  16.168  29.608  10.983
12506W        W74169  44.959  30.646   2.825
12507W        W74170  23.601  19.064   4.339
12508W        W74171   3.245  40.021   2.802
12509W        W74172  32.576  43.950   3.680
12510W        W74173  15.646  31.961   1.759
12511W        W74174  28.147   7.332   2.259
12512W        W74175  40.981  30.063   3.748
12513W        W74176  29.074  14.119   1.219
12514W        W74177  29.020   2.928  10.489
12515W        W74178  18.606  20.542  12.565
12516W        W74179   7.674  42.805   0.869
12517W        W74180  35.078  44.408   4.302
12518W        W74181   8.380   4.403  10.966
12519W        W74182  42.284  16.313   3.825
12520W        W74183  32.487   7.804   0.448
12521W        W74184  10.869  14.146   3.286
12522W        W74185  38.019  39.993  12.420
12523W        W74186  34.526   1.267   0.764
12524W        W74187  13.137  11.732   5.216
12525W        W74188  30.034  16.762   4.762
12526W        W74189  12.231   2.860   3.293
12527W        W74190   8.355   5.909   0.837
12528W        W74191  28.097  37.855  14.880
12529W        W74192   9.381  23.205   3.327
12530W        W74193   2.849   0.482  13.366
12531W        W74194  23.203  19.074  10.933
12532W        W74195  15.622  34.995  10.553
12533W        W74196   1.356   2.829  14.790
12534W        W74197   6.309   2.851   0.794
12535W        W74198  18.697  42.399  14.032
12536W        W74199  36.381  44.973  13.865
12537W        W74200  21.567   0.474   3.745
12538W        W74201  41.353  10.289   3.318
12539W        W74202  16.568  43.515   0.305
12540W        W74203  21.033  36.431   0.776
12541W        W74204  26.679  44.261   0.388
12542W        W74205  15.714  28.942  12.037
12543W        W74206   5.790  28.654   2.183
12544W        W74207  44.470  43.992   0.953
12545W        W74208  28.982  27.973   4.115
12546W        W74209  14.105  40.494   0.803
12547W        W74210  17.094  16.076  12.996
12548W        W74211  10.245  13.648  12.473
12549W        W74212  34.078  34.007  12.889
12550W        W74213  33.400  21.597   1.711
12551W        W74214  35.581  23.554  14.990
12552W        W74215  34.960   4.861   2.826
12553W        W74216  42.379  18.757   3.344
12554W        W74217  37.393  36.358   1.445
12555W        W74218  18.054  20.218  12.390
12556W        W74219  29.547  11.864   2.661
12557W        W74220  20.687  38.939  14.375
12558W        W74221   7.848  37.576   5.228
12559W        W74222   7.188  19.544  12.468
12560W        W74223   1.977  41.797   4.201
12561W        W74224   0.765  43.390   2.391
12562W        W74225  41.925  44.407  14.821
12563W        W74226  11.340  40.371   3.199
12564W        W74227  31.549   9.247  10.602
12565W        W74228  24.666  11.135   3.160
12566W        W74229  40.988   6.357   5.251
12567W        W74230  43.843  42.811   2.875
12568W        W74231   9.233  25.610  13.998
12569W        W74232  33.539   4.324   3.373
12570W        W74233  15.113  34.915   2.325
12571W        W74234  44.360  10.144  14.836
12572W        W74235   5.420  42.446   4.138
12573W        W74236  20.523  44.959  10.904
12574W        W74237  14.809  44.455  10.456
12575W        W74238  40.405  16.255   3.652
12576W        W74239  16.739   5.773  14.516
12577W        W74240   1.781  18.053   3.687
12578W        W74241  28.616  37.481   3.308
12579W        W74242  14.331  18.657  13.449
12580W        W74243   2.766  24.221  11.497
12581W        W74244  22.224  25.663   3.746
12582W        W74245   8.220  38.443  11.513
12583W        W74246  33.073  37.504   0.897
12584W        W74247  32.577   9.847   2.218
12585W        W74248  26.964  31.105   1.257
12586W        W74249   7.864  15.605  12.466
12587W        W74250  33.052  23.586   2.741
12588W        W74251  14.202  40.386  14.467
12589W        W74252   2.343   9.852   0.935
12590W        W74253  32.018  35.924   1.743
12591W        W74254   4.935  26.119   1.261
12592W        W74255   4.210  13.764  11.534
12593W        W74256  28.064  23.580  12.073
12594W        W74257   9.178   9.816   0.741
12595W        W74258  29.526  17.663   2.764
12596W        W74259   6.747  35.106  11.973
12597W        W74260  25.994   5.934  11.018
12598W        W74261  16.630  37.889   0.459
12599W        W74262  37.836  26.494  11.867
12600W        W74263  17.284  24.713   9.975
12601W        W74264  33.459  21.098  14.379
12602W        W74265  15.769   5.923   3.269
12603W        W74266   1.442  15.750   3.790
12604W        W74267  44.872  41.898  11.529
12605W        W74268  12.657  42.838  14.374
12606W        W74269  15.765  15.757  12.896
12607W        W74270  21.251  23.059   3.377
12608W        W74271   5.757  19.197   2.317
12609W        W74272  14.809  33.626  14.389
12610W        W74273  33.489  13.845  13.999
12611W        W74274  44.757  35.401   3.651
12612W        W74275  14.194  12.727  10.006
12613W        W74276  35.007  14.741   4.145
12614W        W74277  35.075  22.055  12.944
12615W        W74278  13.654   2.880   2.341
12616W        W74279  11.723  35.084  11.862
12617W        W74280  39.484   4.848   1.372
12618W        W74281   6.320  40.492  14.313
12619W        W74282  25.494  21.180  10.069
12620W        W74283   0.321  31.410  14.430
12621W        W74284   7.409  39.544   2.668
12622W        W74285  20.040  28.591  13.882
12623W        W74286   1.463  27.609   2.686
12624W        W74287   5.836   2.442   3.383
12625W        W74288  12.205  10.693   2.247
12626W        W74289  41.849  25.002  12.893
12627W        W74290  12.740  12.680  13.942
12628W        W74291  20.556  19.563   4.322
12629W        W74292  44.856   2.308  11.478
12630W        W74293  14.166   9.266  10.511
12631W        W74294  33.088  24.013  14.338
12632W        W74295  18.214  32.051   2.195
12633W        W74296  27.151  31.053  12.454
12634W        W74297  17.064   8.848   3.670
12635W        W74298  24.150  11.735  12.546
12636W        W74299  40.049  28.178  12.356
12637W        W74300  22.501  42.856  12.532
12638W        W74301  41.811  21.610  12.349
12639W        W74302  30.630  14.186   1.918
12640W        W74303  20.078   9.362   2.702
12641W        W74304  36.418  32.990   1.371
12642W        W74305  17.096  35.467  10.640
12643W        W74306  31.496   9.181   4.215
12644W        W74307  13.739  27.659   3.202
12645W        W74308  32.978  34.997  12.495
12646W        W74309  22.609  21.101  11.941
12647W        W74310  16.097   3.452  12.345
12648W        W74311  17.603  24.696  11.880
12649W        W74312   0.982  11.367  11.534
12650W        W74313   7.355  31.013   1.771
12651W        W74314   5.257  19.616   0.454
12652W        W74315  40.541   8.322  14.974
12653W        W74316  37.579  14.720   0.871
12654W        W74317  33.912  43.413  12.991
12655W        W74318   4.285  15.578   3.382
12656W        W74319  20.762  22.532  10.574
12657W        W74320  16.792  22.603  10.514
12658W        W74321   2.772  25.548   0.868
12659W        W74322  19.205  22.068   2.339
12660W        W74323  26.550  11.717   5.286
12661W        W74324   7.222  34.484  13.057
12662W        W74325   8.855  35.525  12.933
12663W        W74326  29.661  43.321   3.631
12664W        W74327  27.572  10.774   0.888
12665W        W74328  44.483  17.145  14.811
12666W        W74329  28.679  25.058  11.039
12667W        W74330   4.876  37.913  13.998
12668W        W74331  32.590  42.905   4.646
12669W        W74332  27.489  15.663  14.335
12670W        W74333  33.967  25.971  13.990
12671W        W74334  43.786  35.026   0.459
12672W        W74335  14.175   7.784  13.902
12673W        W74336   1.923  35.060   3.870
12674W        W74337  15.296  23.143   0.729
12675W        W74338  12.234  31.071  12.995
12676W        W74339  24.558  43.973  14.996
12677W        W74340   6.404  23.233  14.413
12678W        W74341  17.784   8.726   4.706
12679W        W74342   3.858  29.034  13.400
12680W        W74343  24.490  39.912   0.783
12681W        W74344  31.496  29.424  12.895
12682W        W74345  13.636   2.249  14.030
12683W        W74346  27.690  12.638  13.058
12684W        W74347  28.953  18.605  13.798
12685W        W74348  29.091  13.701  10.438
12686W        W74349  11.252  22.040   2.832
12687W        W74350  36.494   9.150  13.935
12688W        W74351  27.139  33.479  13.408
12689W        W74352  12.620  36.513  12.575
12690W        W74353  35.922   4.419   0.414
12691W        W74354   2.823  12.205  12.923
12692W        W74355  39.449  35.386  11.406
12693W        W74356  21.588   6.885   3.269
12694W        W74357  16.122  12.340  10.561
12695W        W74358  12.725  38.421  13.347
12696W        W74359  35.916  34.894   2.878
12697W        W74360  37.412   2.404  11.922
12698W        W74361   9.352   9.720   1.313
12699W        W74362  40.361  33.466  14.298
12700W        W74363  34.479  28.545   2.254
12701W        W74364  37.047  33.561   0.781
12702W        W74365  10.343  31.951   2.878
12703W        W74366  37.837   3.393   3.233
12704W        W74367  30.519  24.047   4.741
12705W        W74368   8.285  18.160  14.849
12706W        W74369  34.522   5.395   1.313
12707W        W74370  22.067   8.784  12.951
12708W        W74371  22.505  12.745  10.053
12709W        W74372  35.509  24.656   4.313
12710W        W74373  15.670   1.776  14.484
12711W        W74374  33.026  30.655   2.379
12712W        W74375  43.958  16.220   0.854
12713W        W74376   2.280  26.460   3.742
12714W        W74377  34.030  33.459  11.609
12715W        W74378  38.877  42.513   0.815
12716W        W74379   5.688  16.667  11.486
12717W        W74380  25.087  12.835  11.594
12718W        W74381  28.055  35.904  11.588
12719W        W74382   7.242  10.670   0.739
12720W        W74383  42.813  26.079  11.048
12721W        W74384  34.406  11.373  14.850
12722W        W74385  13.268  39.837  11.045
12723W        W74386  12.611   6.327  14.511
12724W        W74387  12.220  11.235   4.118
12725W        W74388  32.535  30.959  14.302
12726W        W74389   5.215   0.387   1.380
12727W        W74390  12.704  14.682   0.760
12728W        W74391  11.816   9.676  13.378
12729W        W74392  10.715  34.035   3.727
12730W        W74393  35.512   3.913   4.688
12731W        W74394  28.653  37.950   0.367
12732W        W74395  11.814  36.518  13.330
12733W        W74396   8.282  34.393  11.556
12734W        W74397  21.676  14.729   5.099
12735W        W74398  42.310  28.621   3.822
12736W        W74399  23.593  36.470   3.736
12737W        W74400  38.853  40.840  12.893
12738W        W74401  22.687  14.679  12.048
12739W        W74402  22.518  21.604   2.798
12740W        W74403  39.556   8.671   4.330
12741W        W74404  19.095   6.805   4.778
12742W        W74405  22.605  39.914   2.268
12743W        W74406  40.333  13.655  12.556
12744W        W74407  33.589  32.606   5.094
12745W        W74408  27.173  40.314   0.729
12746W        W74409  41.987  23.729   4.252
12747W        W74410  26.986  29.939   2.761
12748W        W74411  40.046  16.077  10.467
12749W        W74412  29.062  17.663   2.388
12750W        W74413  44.932   2.867  14.319
12751W        W74414  19.215  19.086  13.467
12752W        W74415  39.843  42.783  13.469
12753W        W74416  15.152  32.065  10.522
12754W        W74417  25.149  15.737  14.445
12755W        W74418   0.748  32.916   0.364
12756W        W74419  37.001  17.158  14.793
12757W        W74420  41.957  37.566  10.464
12758W        W74421  25.026   6.207   5.146
12759W        W74422   0.841  41.512   1.350
12760W        W74423  43.791  28.971   3.720
12761W        W74424  19.662  16.221  11.894
12762W        W74425  11.673  15.258  13.949
12763W        W74426   8.293  20.529  11.012
12764W        W74427  18.662  41.822  14.364
12765W        W74428  43.954  25.977   4.787
12766W        W74429  19.738  38.544   2.384
12767W        W74430  44.275  11.244   4.191
12768W        W74431  18.237  23.994  13.053
12769W        W74432  22.232  10.336   3.264
12770W        W74433  34.421  16.235   3.757
12771W        W74434  10.366  17.291   2.672
12772W        W74435  29.977  17.656   3.712
12773W        W74436  33.973  34.924   4.354
12774W        W74437   9.179   1.952   4.132
12775W        W74438  22.682  41.520  14.923
12776W        W74439  39.868  26.120   4.820
12777W        W74440  19.099  43.310  14.295
12778W        W74441  23.591   7.394   4.332
12779W        W74442  38.955  33.403   0.759
12780W        W74443  20.107  24.164   0.463
12781W        W74444  16.121  19.238   1.711
12782W        W74445   3.272  11.767   2.367
12783W        W74446  44.289  28.658  14.957
12784W        W74447  16.622  32.887  12.847
12785W        W74448  43.409  11.177   2.806
12786W        W74449  34.866  11.360   4.176
12787W        W74450  35.984   6.209   0.944
12788W        W74451  25.703  10.781  13.323
12789W        W74452  23.717  15.739   1.922
12790W        W74453  19.627  19.590   4.284
12791W        W74454   4.261  14.259  13.890
12792W        W74455   3.242  18.183   4.631
12793W        W74456  18.295  10.369  10.551
12794W        W74457  38.368  14.609  13.973
12795W        W74458  33.071   3.774  10.997
12796W        W74459  18.737  16.137   0.789
12797W        W74460  28.074  34.496   0.345
12798W        W74461  32.107  18.619  11.490
12799W        W74462  44.380  19.203  14.001
12800W        W74463   3.339  34.968   5.300
12801W        W74464  18.737   3.368   2.850
12802W        W74465  40.806   8.234   1.729
12803W        W74466  41.039  29.005  13.964
12804W        W74467  27.603  18.559  14.431
12805W        W74468  18.583   7.667   2.282
12806W        W74469  33.000  11.776   2.417
12807W        W74470  22.207  25.573   2.217
12808W        W74471  26.600  40.000   0.297
12809W        W74472   7.830  36.926   3.666
12810W        W74473  35.874  17.127  12.853
12811W        W74474  15.147  20.104   0.320
12812W        W74475   1.903   1.861   4.299
12813W        W74476  10.301  30.085  10.434
12814W        W74477  44.873  23.566   4.616
12815W        W74478  32.584  13.271   4.740
12816W        W74479  37.533  25.069  14.442
12817W        W74480  25.543  12.817  12.965
12818W        W74481  40.881  32.999   3.786
12819W        W74482   3.740   1.321   0.445
12820W        W74483  39.531  32.619   4.702
12821W        W74484  17.188  41.447  14.028
12822W        W74485   8.654  25.567   3.634
12823W        W74486   6.701  12.702  14.906
12824W        W74487  20.529  35.911   2.666
12825W        W74488   9.315   2.923  13.446
12826W        W74489  34.470  25.010  14.805
12827W        W74490  37.546  38.337  13.903
12828W        W74491   5.356   9.304  11.006
12829W        W74492  35.956   3.838  13.330
12830W        W74493  10.819  18.725   2.842
12831W        W74494   4.282  14.619  11.424
12832W        W74495  18.149  26.638  10.126
12833W        W74496   3.711  10.172  11.022
12834W        W74497  16.721   0.936   0.767
12835W        W74498  40.463  33.392   3.861
12836W        W74499  36.984  32.124  12.340
12837W        W74500  26.504  14.593  13.359
12838W        W74501  21.595  32.503  12.074
12839W        W74502   2.437   2.371  11.493
12840W        W74503  15.249  27.541  13.854
12841W        W74504  27.520  41.350   1.317
12842W        W74505  12.646  29.173   1.294
12843W        W74506  13.334   8.360   2.207
12844W        W74507  28.091  23.490   1.263
12845W        W74508  33.001   2.956   1.360
12846W        W74509  35.567  38.484  11.085
12847W        W74510  16.279   7.743   0.457
12848W        W74511  21.615  24.681   0.871
12849W        W74512  42.809  42.484   3.648
12850W        W74513  28.523  32.049  12.392
12851W        W74514   4.741  38.067  11.099
12852W        W74515  11.372  38.850  12.382
12853W        W74516  19.060   9.805  11.948
12854W        W74517  10.187  42.429  14.959
12855W        W74518   3.305  43.441  12.847
12856W        W74519   2.245  41.867   4.150
12857W        W74520  26.647  20.113  14.878
12858W        W74521   7.911   5.375   0.346
12859W        W74522  27.597  39.494   4.296
12860W        W74523  38.834  20.646  12.043
12861W        W74524  36.865  39.861   3.799
12862W        W74525  14.163  11.241  13.875
12863W        W74526  43.936  21.080   4.188
12864W        W74527  19.707  38.860  10.993
12865W        W74528  22.727  33.512  14.358
12866W        W74529  35.876  21.222   1.416
12867W        W74530  42.435  42.418   2.753
12868W        W74531  44.834  21.021   0.274
12869W        W74532  39.496  21.592  13.895
12870W        W74533   8.815  22.041   2.383
12871W        W74534  30.441  28.681  12.889
12872W        W74535   2.857  14.709  12.903
12873W        W74536  26.099   3.760  13.381
12874W        W74537  28.012  23.629   1.721
12875W        W74538   8.665  28.180  11.553
12876W        W74539  41.988  16.117   4.755
12877W        W74540   9.326  11.288  12.446
12878W        W74541  21.561  11.305   1.312
12879W        W74542  29.526   4.859  10.611
12880W        W74543  15.643  20.162  12.418
12881W        W74544  39.893   1.238   4.756
12882W        W74545  21.262  14.329  12.542
12883W        W74546  39.398   8.261  14.943
12884W        W74547   0.413  22.148   3.277
12885W        W74548  14.240   7.386   1.363
12886W        W74549  41.811  21.224   4.707
12887W        W74550   3.260  42.879  11.457
12888W        W74551  26.688   9.348   1.800
12889W        W74552   2.339  30.040  11.435
12890W        W74553  41.461  11.772   0.745
12891W        W74554  44.451  41.816   4.272
12892W        W74555   0.469  20.139   1.364
12893W        W74556  31.453  24.510   0.440
12894W        W74557  16.777   0.816  10.533
12895W        W74558   4.243  35.359   3.867
12896W        W74559  16.091  37.432  13.848
12897W        W74560  22.636   2.447   4.216
12898W        W74561  18.736   9.198  11.032
12899W        W74562  25.196  34.408   4.795
12900W        W74563  20.639  42.329   1.800
12901W        W74564  14.203  25.589   1.912
12902W        W74565  42.931  25.623   4.680
12903W        W74566  36.383  10.170   1.370
12904W        W74567  14.632  36.496   1.250
12905W        W74568  41.506  38.504   1.888
12906W        W74569  40.342   5.915   2.711
12907W        W74570  32.991  38.027   3.772
12908W        W74571  12.244  27.141  14.352
12909W        W74572  11.740   1.358  12.378
12910W        W74573  12.132  39.409  12.844
12911W        W74574  37.432  16.605  13.316
12912W        W74575  18.235  20.194  11.611
12913W        W74576   4.337  32.058  12.459
12914W        W74577  42.444   2.427  12.026
12915W        W74578   0.383   9.189   1.246
12916W        W74579  44.397  44.854   9.948
12917W        W74580  32.591  12.142  11.129
12918W        W74581  18.277  13.792   1.909
12919W        W74582   3.954  24.569  10.925
12920W        W74583  36.969  39.500   3.366
12921W        W74584   3.357  37.437  14.420
12922W        W74585  30.445  37.891  12.357
12923W        W74586  41.861  32.512   0.915
12924W        W74587  35.452   7.901  14.431
12925W        W74588  39.983  11.318  12.512
12926W        W74589   7.354  14.589   4.599
12927W        W74590  25.504  23.085  10.600
12928W        W74591  36.349  37.032   0.282
12929W        W74592  30.424  18.674   0.462
12930W        W74593  31.536   1.372  11.408
12931W        W74594   6.285  42.842  13.949
12932W        W74595  26.675  27.653   1.874
12933W        W74596   0.961  19.668   3.369
12934W        W74597  25.683   9.171   0.934
12935W        W74598  21.657   1.942   0.317
12936W        W74599  43.831   4.908   0.925
12937W        W74600   6.313   5.762   1.235
12938W        W74601   6.273  24.024   0.294
12939W        W74602  40.416  18.155  14.005
12940W        W74603  36.410   6.307   1.449
12941W        W74604  11.777  34.893   0.249
12942W        W74605   5.272   6.272   0.346
12943W        W74606  38.046  20.739   1.419
12944W        W74607   9.881  36.097  10.938
12945W        W74608  15.136  11.757   4.230
12946W        W74609   9.241   6.728   5.182
12947W        W74610   2.404  10.695  10.962
12948W        W74611   2.816   1.448  12.527
12949W        W74612   9.162  31.098   2.287
12950W        W74613  16.280   9.318  14.359
12951W        W74614  16.576  38.070  12.884
12952W        W74615  15.791   3.453   1.782
12953W        W74616  32.555  30.997  14.932
12954W        W74617  16.130  38.024   5.320
12955W        W74618  39.470  26.034   2.820
12956W        W74619  37.966   8.356  11.099
12957W        W74620   2.309  29.499  13.936
12958W        W74621  44.391  17.194   3.739
12959W        W74622  21.649   0.478   1.443
12960W        W74623   3.281   5.253   1.823
12961W        W74624   3.394  34.484  12.372
12962W        W74625  40.391   2.373   0.430
12963W        W74626   5.853  19.669   1.339
12964W        W74627  13.283  31.149   4.142
12965W        W74628  30.648   9.220  11.554
12966W        W74629  22.709  11.801   4.143
12967W        W74630  21.029  24.207  10.927
12968W        W74631  27.154  44.770   4.601
12969W        W74632   7.763   9.721   1.324
12970W        W74633  31.435   8.846  12.341
12971W        W74634  33.130  44.355  14.939
12972W        W74635  23.540  16.765  14.499
12973W        W74636   6.872  23.142   4.831
12974W        W74637  40.877  21.119  13.429
12975W        W74638  23.026  27.615   4.309
12976W        W74639  18.747   3.365   1.362
12977W        W74640  36.969  39.908   4.640
12978W        W74641  10.311  28.121  12.518
12979W        W74642  12.808  25.026   0.875
12980W        W74643  35.061  12.164   3.145
12981W        W74644  10.159  36.547  10.917
12982W        W74645   8.328  12.143  11.121
12983W        W74646   3.788  43.806   1.839
12984W        W74647  44.843  23.144   2.403
12985W        W74648  17.098  29.639   4.689
12986W        W74649  27.680  28.503   3.868
12987W        W74650  13.621  22.629   1.698
12988W        W74651   2.832  16.633  14.983
12989W        W74652  41.427  28.103  14.365
12990W        W74653   9.330   8.396   0.864
12991W        W74654  16.105  23.002  13.457
12992W        W74655  42.453  26.135  13.879
12993W        W74656  37.367   3.729   1.881
12994W        W74657  10.204   7.381  13.389
12995W        W74658  41.907   2.867   3.759
12996W        W74659  23.054  15.098  14.289
12997W        W74660  28.669   9.718  10.929
12998W        W74661  19.752  30.595   2.322
12999W        W74662  26.004  41.819   3.146
13000W        W74663  17.751   1.360  13.538
13001W        W74664  43.379  31.988  13.344
13002W        W74665   8.794  28.010  14.433
13003W        W74666  39.492   5.854  11.964
13004W        W74667  31.645  26.696   2.321
13005W        W74668  21.566  21.552  12.554
13006W        W74669  28.093   8.898   4.753
13007W        W74670  31.919   2.761  14.461
13008W        W74671  32.087   6.236  13.394
13009W        W74672  33.078  29.450   3.150
13010W        W74673  26.104  43.919  11.900
13011W        W74674  30.531  27.491  13.929
13012W        W74675   3.892  14.593   0.801
13013W        W74676   9.321  15.291  14.513
13014W        W74677  37.057  25.546  13.816
13015W        W74678  26.964  13.131   1.798
13016W        W74679   3.816   5.248  13.421
13017W        W74680  34.983   5.696  12.580
13018W        W74681  16.248  38.851  13.064
13019W        W74682   2.436  21.587  12.842
13020W        W74683  39.818  21.189  11.476
13021W        W74684  38.002  41.871  12.001
13022W        W74685  40.524  34.597   0.420
13023W        W74686  22.646   2.346  13.388
13024W        W74687  28.481  14.148   0.254
13025W        W74688  34.068  20.696   2.855
13026W        W74689  39.407  11.144  14.472
13027W        W74690  15.621  24.692   5.099
13028W        W74691  18.725  15.236   4.141
13029W        W74692  28.148   2.465   1.717
13030W        W74693  14.714  36.084   5.305
13031W        W74694  35.978  20.766  13.491
13032W        W74695  44.006  29.444  14.967
13033W        W74696  38.824  38.428   2.756
13034W        W74697  42.824  43.945  10.541
13035W        W74698  20.262  43.412   3.197
13036W        W74699   7.833   3.946  12.418
13037W        W74700  23.099  34.575  12.565
13038W        W74701  23.136   2.962   0.946
13039W        W74702  30.642   9.367  12.535
13040W        W74703  25.657   7.768   3.171
13041W        W74704  12.304   5.400   3.834
13042W        W74705   0.986  28.613  13.931
13043W        W74706   1.347   6.821   3.319
13044W        W74707  24.689  18.764  12.013
13045W        W74708  32.968  14.138  14.441
13046W        W74709  26.990   4.934   4.688
13047W        W74710  30.071   8.694  10.592
13048W        W74711  13.761   9.867  14.443
13049W        W74712  37.536  14.628  13.008
13050W        W74713  44.869  42.919   5.197
13051W        W74714  28.953  16.136   2.861
13052W        W74715  40.395  29.637   3.789
13053W        W74716  37.048  15.712  10.979
13054W        W74717  21.635  15.241  12.929
13055W        W74718  20.157  32.582   1.870
13056W        W74719  43.777   4.912   3.698
13057W        W74720  40.309  43.901  14.277
13058W        W74721  34.972  39.854  11.052
13059W        W74722  14.628  37.570   0.883
13060W        W74723   1.272   3.273   0.403
13061W        W74724  23.670   3.889  13.967
13062W        W74725  43.294  24.089  12.453
13063W        W74726  22.062   1.316  11.891
13064W        W74727  24.086  12.743  11.514
13065W        W74728  18.584   8.863  13.928
13066W        W74729  11.784  41.298  14.914
13067W        W74730  20.250  41.390   2.691
13068W        W74731  15.202   4.773  12.563
13069W        W74732  13.743  26.973   2.258
13070W        W74733  17.268  16.600  10.901
13071W        W74734   0.409   3.318  11.894
13072W        W74735  12.760  14.252   2.669
13073W        W74736  32.618  26.664  14.855
13074W        W74737  28.622   1.849  10.971
13075W        W74738   3.289  33.507  14.381
13076W        W74739  40.868  33.896   3.294
13077W        W74740  37.531  14.722   4.269
13078W        W74741   4.895  24.091  12.979
13079W        W74742  25.573  41.419   0.894
13080W        W74743  11.338  36.985  14.778
13081W        W74744  44.971  29.630   3.171
13082W        W74745  44.944  13.828   0.881
13083W        W74746  28.615   7.259   3.243
13084W        W74747  40.963  18.233  11.941
13085W        W74748  13.627  35.567   1.930
13086W        W74749  23.204  17.091   0.280
13087W        W74750  25.495   4.411  12.397
13088W        W74751  37.343  13.730   1.330
13089W        W74752  28.964  40.984  14.497
13090W        W74753   6.341  32.596   1.277
13091W        W74754  11.243   8.282   4.740
13092W        W74755   6.920  35.451  10.490
13093W        W74756  37.075  28.176  13.860
13094W        W74757   4.890  39.869  10.062
13095W        W74758  17.696  41.432   2.708
13096W        W74759   9.275  22.543   0.394
13097W        W74760   0.355  14.680  11.551
13098W        W74761  33.087  43.938  12.432
13099W        W74762  22.735  16.154   0.907
13100W        W74763  26.585  43.407  10.961
13101W        W74764   0.371  39.985  11.994
13102W        W74765  20.056  28.603   1.344
13103W        W74766   1.867  22.688   2.331
13104W        W74767  20.757  14.636  11.943
13105W        W74768  37.362  34.916  14.774
13106W        W74769   4.426  29.524   2.310
13107W        W74770  14.760  36.920   4.674
13108W        W74771  42.470  20.075   3.677
13109W        W74772  21.162  22.175   1.269
13110W        W74773  26.099  16.234   3.376
13111W        W74774  19.053   3.436   2.213
13112W        W74775   9.245  39.888   0.913
13113W        W74776  44.965  30.012  13.985
13114W        W74777  20.210  37.448   0.285
13115W        W74778   9.657  28.084  12.508
13116W        W74779  32.560  38.568   4.726
13117W        W74780  23.516  40.374   4.242
13118W        W74781  28.183  38.965  12.431
13119W        W74782  17.195  42.343   1.367
13120W        W74783  41.998  33.487  10.080
13121W        W74784  22.189  28.074   4.174
13122W        W74785  32.090   9.881   0.929
13123W        W74786  33.554  40.331  12.900
13124W        W74787  36.013  23.677   1.385
13125W        W74788  10.302  13.282   2.201
13126W        W74789  39.871  26.575   0.288
13127W        W74790  19.231  37.031  12.572
13128W        W74791  39.499  33.102   0.461
13129W        W74792  22.078  14.181   4.742
13130W        W74793   7.377  15.629  14.361
13131W        W74794  23.127   5.319  11.126
13132W        W74795  40.458   1.840  14.477
13133W        W74796  30.480   0.478  14.338
13134W        W74797  28.950  44.293  13.034
13135W        W74798  18.616  43.914   2.314
13136W        W74799  39.993  38.506  10.454
13137W        W74800  41.405   0.864   3.375
13138W        W74801  39.865   2.470  13.936
13139W        W74802  26.049  23.581   2.382
13140W        W74803   5.209  43.347  12.854
13141W        W74804  18.707  25.980   4.732
13142W        W74805  30.412  30.119  13.968
13143W        W74806  39.961  19.774   0.848
13144W        W74807  40.432  19.098  10.405
13145W        W74808  32.567  23.186   0.432
13146W        W74809  37.454  25.651   3.240
13147W        W74810   5.892   9.371   1.906
13148W        W74811  39.486   7.417   4.789
13149W        W74812   0.810  16.669   2.772
13150W        W74813  33.609  16.100  13.851
13151W        W74814  41.872  16.649  10.428
13152W        W74815   3.363  24.097   2.713
13153W        W74816  26.197   7.406  14.392
13154W        W74817   7.718   9.234  13.867
13155W        W74818  32.453  39.818   3.764
13156W        W74819  39.430  32.081   2.830
13157W        W74820  13.767  15.803   4.794
13158W        W74821   2.806  34.599   2.365
13159W        W74822  26.199  13.289  11.863
13160W        W74823  41.394   3.272  13.379
13161W        W74824  36.078  35.470   1.748
13162W        W74825  34.920  21.693   0.770
13163W        W74826  13.620  23.630   0.380
13164W        W74827  31.046  44.978   3.681
13165W        W74828  43.926  14.669  12.873
13166W        W74829  23.999  34.484  11.950
13167W        W74830  43.315   3.913   3.328
13168W        W74831  31.928   0.488  12.886
13169W        W74832   7.873  43.011   4.662
13170W        W74833  11.723  27.589  10.542
13171W        W74834   8.365  30.065  12.389
13172W        W74835  18.124  40.515   1.807
13173W        W74836  20.272  39.956  13.331
13174W        W74837  24.133  43.434  12.418
13175W        W74838  40.333  37.485  12.430
13176W        W74839   7.217  16.118  11.919
13177W        W74840  11.171  36.456  11.904
13178W        W74841   3.733  25.026  14.488
13179W        W74842  19.683   9.861  14.940
13180W        W74843  38.069  36.526   3.853
13181W        W74844  13.323  16.707   3.226
13182W        W74845  28.177  30.098  11.115
13183W        W74846  24.718  23.568   1.927
13184W        W74847  26.062  30.159  13.907
13185W        W74848  35.390  15.605  13.405
13186W        W74849  11.154  30.987   2.269
13187W        W74850  19.596  15.212  12.441
13188W        W74851  35.885  35.538  13.517
13189W        W74852  38.000  31.487  13.329
13190W        W74853   4.794  33.590   2.344
13191W        W74854  17.649  35.502  13.391
13192W        W74855  29.108  19.737  14.925
13193W        W74856  42.295   6.358   4.330
13194W        W74857  21.236   3.949   2.832
13195W        W74858   6.704   5.319   2.764
13196W        W74859  25.520  44.846  10.514
13197W        W74860  33.437  25.579   0.830
13198W        W74861  11.215  11.853  14.892
13199W        W74862   4.812  44.900   4.196
13200W        W74863  12.243  17.125   1.394
13201W        W74864  12.195   2.319  11.484
13202W        W74865  41.478  34.951  13.499
13203W        W74866  36.589   3.401   0.885
13204W        W74867  16.297  43.409  14.391
13205W        W74868  41.482  29.482   0.477
13206W        W74869   9.377  25.542   3.307
13207W        W74870  11.830  12.203   1.704
13208W        W74871   9.318  33.986   3.632
13209W        W74872  33.610  25.536   3.831
13210W        W74873  15.621  21.136   3.317
13211W        W74874   1.886  13.279  14.870
13212W        W74875  37.949   5.260   2.223
13213W        W74876   8.307  25.574  10.640
13214W        W74877  26.029  21.164  12.985
13215W        W74878   4.858  35.036  11.485
13216W        W74879   3.801  14.672  13.926
13217W        W74880  42.957  40.339   3.181
13218W        W74881   7.863  42.865  11.939
13219W        W74882  35.079  34.479  14.395
13220W        W74883  35.901  11.701  13.407
13221W        W74884  17.189  10.664   1.398
13222W        W74885   5.775   5.201  13.922
13223W        W74886  20.137   0.831  11.577
13224W        W74887   9.774  34.864   4.800
13225W        W74888  36.942  33.957  11.412
13226W        W74889  38.358  10.829  11.024
13227W        W74890  32.491  19.584   5.691
13228W        W74891  38.928  25.533   1.760
13229W        W74892  38.035   0.347  13.799
13230W        W74893  18.772   4.237  11.069
13231W        W74894  31.644  27.096   1.841
13232W        W74895  12.758  11.858  14.007
13233W        W74896  37.405   0.458  11.916
13234W        W74897  11.285  27.646  14.310
13235W        W74898  36.888  39.455   1.866
13236W        W74899  33.982   5.826   5.141
13237W        W74900  10.816  15.620  11.991
13238W        W74901  41.928  16.271  14.397
13239W        W74902   7.679  23.676  11.461
13240W        W74903  32.011  39.864   1.315
13241W        W74904  30.531   4.223   1.709
13242W        W74905  16.239   3.437  14.962
13243W        W74906  29.094  43.780   1.411
13244W        W74907  23.726  32.393   2.218
13245W        W74908  17.781   7.831  13.317
13246W        W74909  38.000  33.966  11.438
13247W        W74910  26.159   6.428  14.827
13248W        W74911  25.004  10.186  14.472
13249W        W74912  38.011   9.373   4.344
13250W        W74913  25.655  38.823  13.024
13251W        W74914   4.701  18.656  10.531
13252W        W74915  15.788  36.061   1.401
13253W        W74916  28.014  34.111  12.443
13254W        W74917  36.846   4.723  10.530
13255W        W74918  21.237  34.044  13.406
13256W        W74919  37.077  14.322  11.886
13257W        W74920   1.250  38.558  11.127
13258W        W74921  26.591  17.115  14.817
13259W        W74922   3.457  44.812   0.780
13260W        W74923  22.642  28.951   0.883
13261W        W74924  22.579  33.418   3.364
13262W        W74925  36.920  44.323  14.780
13263W        W74926  40.887  14.317  14.468
13264W        W74927   8.161  12.316   2.750
13265W        W74928  15.578  31.109   4.193
13266W        W74929  38.902  34.885   1.220
13267W        W74930  10.671  26.489  12.844
13268W        W74931   6.920  31.904  11.894
13269W        W74932  42.834  26.520  11.880
13270W        W74933  18.546  43.406  10.959
13271W        W74934  37.532  10.763   3.268
13272W        W74935  17.636  33.939   0.905
13273W        W74936  43.794  32.928  14.783
13274W        W74937  30.967  21.513  14.811
13275W        W74938   9.880  32.578   2.238
13276W        W74939  31.633  25.656  14.976
13277W        W74940  29.481   1.767   0.332
13278W        W74941  25.503  23.670  11.957
13279W        W74942  42.869   5.299  10.633
13280W        W74943  40.949  42.980  13.062
13281W        W74944  28.527  37.086  14.502
13282W        W74945  21.237  27.655   0.338
13283W        W74946  36.480  44.469   5.109
13284W        W74947  16.105  39.539  13.545
13285W        W74948  38.393  31.615  14.443
13286W        W74949  15.180  39.426   3.153
13287W        W74950  23.010  29.482  13.426
13288W        W74951  28.435  11.226   4.671
13289W        W74952  19.557   9.200   5.100
13290W        W74953   5.427  27.669  12.453
13291W        W74954   9.880  27.601   1.709
13292W        W74955  40.535  13.176   4.749
13293W        W74956  36.543  42.525   0.321
13294W        W74957  35.974  14.260   3.250
13295W        W74958  43.877  41.524   4.616
13296W        W74959   2.422  16.572  14.512
13297W        W74960   2.317  32.473  10.904
13298W        W74961  26.024   0.930   1.338
13299W        W74962   5.859  39.014  11.519
13300W        W74963  27.558   4.341  13.480
13301W        W74964  10.726  33.087  14.324
13302W        W74965   0.446  16.087   4.615
13303W        W74966   9.673  38.402   1.271
13304W        W74967  40.892   2.726   0.907
13305W        W74968  18.164   7.886  14.896
13306W        W74969  18.063  34.952   2.728
13307W        W74970  28.154  42.377   2.755
13308W        W74971  19.096  24.990  12.846
13309W        W74972   1.896  22.039  10.467
13310W        W74973  22.714   2.324  10.640
13311W        W74974   4.790  38.044  13.482
13312W        W74975  29.147   5.833   1.257
13313W        W74976   2.955  34.492  11.894
13314W        W74977  28.112  39.012   0.350
13315W        W74978  44.427  10.820   2.715
13316W        W74979  10.334  38.554   3.827
13317W        W74980   2.801  33.550   1.929
13318W        W74981  35.952  44.913  13.325
13319W        W74982  40.955  39.323   3.269
13320W        W74983  18.200  19.636   2.277
13321W        W74984  19.056  41.823   3.317
13322W        W74985  42.839  34.372  14.346
13323W        W74986  30.556  21.062   0.467
13324W        W74987  21.701  32.525  13.445
13325W        W74988  26.534  27.948  14.285
13326W        W74989  20.768  14.633   5.595
13327W        W74990  18.547  12.227   4.724
13328W        W74991  44.270  29.464  12.989
13329W        W74992  13.246  11.229   3.776
13330W        W74993   5.246   6.218  11.531
13331W        W74994  28.489  11.627   4.803
13332W        W74995  29.528  35.397  11.478
13333W        W74996  40.807  23.572   4.828
13334W        W74997  16.697   9.683  10.945
13335W        W74998  21.518  30.135   4.209
13336W        W74999  23.619  44.952  14.790
13337W        W75000   9.228  41.038  11.594
13338W        W75001  29.615  30.910   1.885
13339W        W75002  42.010  31.634   2.799
13340W        W75003   9.806  27.584   4.681
13341W        W75004  33.005   5.769   3.674
13342W        W75005  27.085   3.859   2.319
13343W        W75006  30.026  36.437  14.841
13344W        W75007   4.750  25.145   0.479
13345W        W75008  37.544  40.027  10.995
13346W        W75009  28.083  11.735   5.083
13347W        W75010   7.878  19.150   4.349
13348W        W75011  22.674  15.745   0.445
13349W        W75012  10.650   7.755   0.854
13350W        W75013  39.514  30.551  11.405
13351W        W75014  38.519  35.487   3.322
13352W        W75015   1.880  27.468   1.875
13353W        W75016  20.176  20.264   1.741
13354W        W75017  26.573  16.114  12.363
13355W        W75018   3.925  12.207  11.046
13356W        W75019   3.945  33.020  11.528
13357W        W75020   6.257   8.370   2.393
13358W        W75021   7.722  17.282  11.976
13359W        W75022  43.516  10.749  13.980
13360W        W75023  20.621   2.912   3.737
13361W        W75024   1.376  32.961  14.458
13362W        W75025  12.702  44.485  14.905
13363W        W75026   0.305  27.560   4.133
13364W        W75027   9.288  35.862   4.671
13365W        W75028  25.171  36.923  13.871
13366W        W75029  27.493  34.456  10.917
13367W        W75030   5.726  30.479   2.258
13368W        W75031  10.346  34.564   3.847
13369W        W75032  43.476  42.890  14.332
13370W        W75033  17.563  29.616  13.802
13371W        W75034   3.389  31.030   2.682
13372W        W75035  30.613   8.207   1.432
13373W        W75036  43.773  26.174   0.380
13374W        W75037  32.099   1.305   3.160
13375W        W75038  21.581  30.148  14.931
13376W        W75039  37.894   4.797   0.265
13377W        W75040   1.949  20.588   2.204
13378W        W75041   2.270  32.614   4.335
13379W        W75042  10.163  20.666   4.124
13380W        W75043  34.464  22.045   3.375
13381W        W75044  33.405  15.090  14.510
13382W        W75045  38.474  18.778   0.840
13383W        W75046  30.918   7.842   2.837
13384W        W75047  12.293  10.732  10.011
13385W        W75048   5.194  17.306  14.978
13386W        W75049  43.943  37.979   1.408
13387W        W75050  30.079  24.055  13.442
13388W        W75051  27.197  15.195  12.903
13389W        W75052  12.714  28.458   2.849
13390W        W75053  17.222  43.969   2.688
13391W        W75054   9.786  10.295  11.885
13392W        W75055  34.930  31.081  12.979
13393W        W75056   0.843  39.420  13.951
13394W        W75057   9.273   4.400   2.410
13395W        W75058   0.351   5.909   0.466
13396W        W75059  18.675  41.991  14.025
13397W        W75060  23.573  29.567   2.289
13398W        W75061  32.139  27.171   2.724
13399W        W75062  26.650  11.154  13.459
13400W        W75063  33.595  35.061   4.672
13401W        W75064  16.071  37.475   5.659
13402W        W75065  20.741  23.568   4.305
13403W        W75066   4.342  36.559  14.840
13404W        W75067  25.983   6.215   2.761
13405W        W75068  23.714   7.756  13.905
13406W        W75069  20.572  20.726  10.919
13407W        W75070  22.153  42.447  11.546
13408W        W75071  14.782   8.318   2.228
13409W        W75072  29.516  12.253   0.376
13410W        W75073  32.025  26.002   3.830
13411W        W75074  26.983  37.864  13.408
13412W        W75075  28.041  35.026   3.684
13413W        W75076  33.392  44.965   0.737
13414W        W75077  40.830  34.588  13.843
13415W        W75078  17.061   7.371   5.092
13416W        W75079  30.451  19.222   0.289
13417W        W75080  40.862  40.919  13.052
13418W        W75081  27.498   9.366  13.032
13419W        W75082  26.560  29.556  14.870
13420W        W75083  43.775  30.067  11.515
13421W        W75084  10.294  31.108  10.576
13422W        W75085   3.347  43.493   4.705
13423W        W75086  12.291  15.279  11.593
13424W        W75087  38.486  32.570   4.639
13425W        W75088  21.181  29.581  10.595
13426W        W75089   0.357  30.037   1.327
13427W        W75090  10.326   8.820  14.909
13428W        W75091  24.101   2.439   3.165
13429W        W75092  20.029  32.427   4.671
13430W        W75093  36.022  25.603   4.753
13431W        W75094  40.432  34.604   1.861
13432W        W75095  15.752  23.534   1.381
13433W        W75096  15.227  19.261  13.798
13434W        W75097  43.852  17.732  14.346
13435W        W75098  37.983  11.157  14.845
13436W        W75099  28.149  20.116   3.752
13437W        W75100  13.726   8.671  13.034
13438W        W75101   7.840   1.785   0.792
13439W        W75102  29.565  18.165  11.570
13440W        W75103  35.099  11.646   5.296
13441W        W75104  36.489  17.094   3.354
13442W        W75105  35.068  10.237  11.397
13443W        W75106  33.550   7.735   4.795
13444W        W75107  34.020  30.581   4.132
13445W        W75108  25.010  17.124  10.906
13446W        W75109  24.564  14.324   1.297
13447W        W75110  38.499   4.236  11.095
13448W        W75111   9.710   8.334  14.866
13449W        W75112  40.547   8.848  10.895
13450W        W75113  39.039  39.360   1.802
13451W        W75114  38.881  20.558  11.082
13452W        W75115  28.940  13.127   1.259
13453W        W75116  31.639  19.632   3.147
13454W        W75117  18.072  34.936   3.339
13455W        W75118  30.914  27.657  11.025
13456W        W75119  26.962  30.586   1.398
13457W        W75120   9.707   1.899  11.390
13458W        W75121  13.303  25.036   1.262
13459W        W75122  17.285  24.512   0.868
13460W        W75123  25.561  29.965   4.749
13461W        W75124  15.156  34.418  12.078
13462W        W75125  24.177  20.662   1.440
13463W        W75126   1.936  16.638   0.782
13464W        W75127  39.035   2.760   2.796
13465W        W75128  21.204  19.683  10.953
13466W        W75129  44.780   4.402   1.242
13467W        W75130   9.343  34.096  11.476
13468W        W75131  15.803  24.715   4.234
13469W        W75132  15.821  36.363   0.260
13470W        W75133  17.271   5.409   1.861
13471W        W75134  27.657   5.230  14.866
13472W        W75135   2.908  28.175   0.782
13473W        W75136  24.176  15.592   2.691
13474W        W75137  21.725  39.914   3.731
13475W        W75138  29.057  36.396   0.437
13476W        W75139   7.283   3.826  14.027
13477W        W75140  38.982   9.372   1.928
13478W        W75141   9.764   4.283   2.702
13479W        W75142   6.356  19.231  13.430
13480W        W75143   0.464  17.160   4.676
13481W        W75144  29.979  10.645   2.225
13482W        W75145  14.132  24.563   1.368
13483W        W75146  27.689   7.838   0.854
13484W        W75147   7.398  36.551  11.855
13485W        W75148  14.242  11.239  11.559
13486W        W75149  27.468  25.635   3.268
13487W        W75150  43.833  44.348   0.891
13488W        W75151  13.156  29.498   0.255
13489W        W75152  17.662  41.946  15.000
13490W        W75153  42.475   2.386  12.508
13491W        W75154  23.046  44.942   9.627
13492W        W75155  36.841   2.457   0.413
13493W        W75156  44.946  19.718  10.477
13494W        W75157  15.216  16.311  10.005
13495W        W75158  30.064  25.673  12.402
13496W        W75159   4.207  13.229  14.995
13497W        W75160   1.380  38.463   3.384
13498W        W75161  20.031  19.188  13.533
13499W        W75162   5.860  26.017  13.509
13500W        W75163  32.019  26.497  11.381
13501W        W75164  37.080  18.206  10.617
13502W        W75165  23.160  43.909  13.368
13503W        W75166  35.105  38.915   1.317
13504W        W75167  34.376  23.140   1.449
13505W        W75168  32.898   4.906   1.221
13506W        W75169   7.400  42.963   1.406
13507W        W75170   0.272  27.478  11.898
13508W        W75171  22.136  30.907  14.915
13509W        W75172  26.565   6.282  13.960
13510W        W75173  26.975  23.508  14.785
13511W        W75174  43.767  15.660   4.119
13512W        W75175  43.340  16.654  10.963
13513W        W75176   4.449  10.734   1.771
13514W        W75177  23.078  19.075   4.227
13515W        W75178  26.695   0.874  13.494
13516W        W75179  16.743  33.957   1.245
13517W        W75180  14.245   4.846  12.916
13518W        W75181   9.854  20.553  14.802
13519W        W75182  33.938   7.850   1.722
13520W        W75183   1.916  34.596   1.411
13521W        W75184  18.060  44.810  14.788
13522W        W75185  36.397  24.998   4.726
13523W        W75186  28.039  44.876   1.381
13524W        W75187  20.168  15.234  13.021
13525W        W75188   1.289  11.197  11.915
13526W        W75189  21.220   5.700   0.888
13527W        W75190  37.062   5.277  12.981
13528W        W75191  14.595  23.216   4.346
13529W        W75192  32.420  29.068   0.957
13530W        W75193  11.711  26.647   2.305
13531W        W75194  10.804   3.245  12.499
13532W        W75195   0.360   2.870   0.314
13533W        W75196  26.032  13.202   4.242
13534W        W75197  29.020  21.078   3.262
13535W        W75198  20.537  18.237  10.506
13536W        W75199  19.759  37.546   4.331
13537W        W75200  37.405  44.374  14.921
13538W        W75201  22.697  23.653  13.925
13539W        W75202  38.823   1.783   3.652
13540W        W75203   7.743  34.591   1.924
13541W        W75204  44.007  27.574   4.610
13542W        W75205  19.568  16.249   1.745
13543W        W75206  25.684  36.503   4.300
13544W        W75207  30.519  24.130   2.677
13545W        W75208  11.218  19.176  14.285
13546W        W75209   2.720  44.364   1.387
13547W        W75210  32.000  11.340  11.072
13548W        W75211  21.727  15.742  11.586
13549W        W75212   1.290  18.212   0.909
13550W        W75213   9.251  31.420  11.951
13551W        W75214  38.496  21.210  13.976
13552W        W75215  31.078  42.868  13.531
13553W        W75216  17.114   5.240  10.146
13554W        W75217  18.632   3.947  10.548
13555W        W75218  13.645   7.292   5.728
13556W        W75219   5.879  28.037  10.912
13557W        W75220   6.922  34.110   1.889
13558W        W75221  32.008  28.505   4.628
13559W        W75222  23.037  10.185   0.303
13560W        W75223  42.327  36.527   1.731
13561W        W75224   4.738  16.609   4.150
13562W        W75225  33.077  20.051   3.629
13563W        W75226  34.492  26.067  10.512
13564W        W75227   5.278  33.449   4.128
13565W        W75228   8.679  29.133   2.343
13566W        W75229  28.059   3.295  12.031
13567W        W75230  40.480   4.811  14.393
13568W        W75231  19.217  40.303   3.846
13569W        W75232  30.524  43.899  12.991
13570W        W75233  28.493  21.138  14.384
13571W        W75234   6.869  28.934   1.817
13572W        W75235   7.872  35.001  14.818
13573W        W75236  29.515  32.470  11.557
13574W        W75237  33.086  43.511  13.363
13575W        W75238  31.545  25.628   0.751
13576W        W75239  11.715  37.076  11.514
13577W        W75240   7.310  27.031  14.466
13578W        W75241  20.152  35.003   4.777
13579W        W75242   3.345  20.645  11.373
13580W        W75243  29.445   2.269  12.546
13581W        W75244  29.498  24.489   4.328
13582W        W75245   2.327   6.371   1.294
13583W        W75246   4.872  26.993   0.791
13584W        W75247  24.497  44.763   4.280
13585W        W75248   8.388  14.128   4.306
13586W        W75249   9.655  32.515   2.664
13587W        W75250  18.236  26.053   4.148
13588W        W75251  19.731  39.849   0.416
13589W        W75252  30.601  20.761  10.039
13590W        W75253  37.392   7.768   0.272
13591W        W75254  35.992   3.805  11.552
13592W        W75255   8.376  39.860   4.181
13593W        W75256   4.698  10.751   0.455
13594W        W75257  26.956  40.528  14.455
13595W        W75258  13.323  35.593  10.592
13596W        W75259  16.292   7.374  12.429
13597W        W75260  39.000  39.452   2.903
13598W        W75261   5.833  32.626   1.430
13599W        W75262   2.359   2.817   1.329
13600W        W75263  10.235   7.709  13.027
13601W        W75264  22.223  33.421   3.315
13602W        W75265   8.379  19.058   2.824
13603W        W75266  27.446  36.945  12.481
13604W        W75267   2.901   5.353   1.283
13605W        W75268   9.321   3.370  13.547
13606W        W75269  17.674  31.500   3.384
13607W        W75270  21.129  41.435   3.250
13608W        W75271  31.499  16.221   3.295
13609W        W75272  14.726  15.723  12.067
13610W        W75273  33.464  39.390  11.972
13611W        W75274  13.248  22.080   3.155
13612W        W75275  32.415  32.497  11.096
13613W        W75276  27.028   5.214  14.459
13614W        W75277  11.180  40.923   3.803
13615W        W75278  24.582   4.919  14.837
13616W        W75279  35.069  13.712  11.975
13617W        W75280   7.305  44.976   4.731
13618W        W75281  10.868  31.966   9.975
13619W        W75282  31.575  33.592  13.017
13620W        W75283  43.463  43.428   0.419
13621W        W75284  44.278  22.237   3.776
13622W        W75285  30.982  42.329  13.034
13623W        W75286  17.259  27.566   1.416
13624W        W75287  23.537   9.825  11.948
13625W        W75288  17.605  39.505   9.617
13626W        W75289  39.957  39.513  12.381
13627W        W75290  10.787   9.725  11.497
13628W        W75291   0.311  24.161   0.753
13629W        W75292   1.752  41.521  13.337
13630W        W75293  44.284  31.103  10.482
13631W        W75294  13.115  15.141  12.519
13632W        W75295   4.743  34.388   4.233
13633W        W75296  11.828  17.250   4.329
13634W        W75297  20.090  27.950  11.103
13635W        W75298  35.423  41.817   2.727
13636W        W75299  25.974  28.524   0.434
13637W        W75300   1.253  43.270  12.491
13638W        W75301  20.230  40.414   0.476
13639W        W75302  20.702  26.046  14.823
13640W        W75303  15.787  13.166   2.203
13641W        W75304  17.304  27.082   3.271
13642W        W75305  18.588  28.579   3.223
13643W        W75306  13.323  26.063  11.585
13644W        W75307  33.991  11.661  12.430
13645W        W75308  40.353   1.248  13.836
13646W        W75309  22.664  26.153   2.322
13647W        W75310  44.283   3.894  11.983
13648W        W75311   1.828  10.777  13.028
13649W        W75312   0.394  34.954  14.337
13650W        W75313  21.683  26.002  14.333
13651W        W75314   8.858  44.500   0.292
13652W        W75315  37.941   9.235  11.080
13653W        W75316  33.515  26.098  14.342
13654W        W75317  39.891   8.306  11.603
13655W        W75318  40.476  11.791   0.948
13656W        W75319  25.111  38.041   4.607
13657W        W75320  17.669  11.223   1.337
13658W        W75321   0.982  25.073   0.955
13659W        W75322   5.370   8.210  10.476
13660W        W75323   5.362   3.862   0.308
13661W        W75324  18.133  13.264  14.316
13662W        W75325  22.554  11.183  12.079
13663W        W75326  13.105   6.764   2.662
13664W        W75327  20.262  23.584   2.267
13665W        W75328   9.673  33.042   4.251
13666W        W75329  33.424  12.176  12.017
13667W        W75330   6.808  35.038   4.691
13668W        W75331  18.066  38.909   2.251
13669W        W75332  43.289  10.820  11.407
13670W        W75333  35.376   4.891  12.042
13671W        W75334  40.445  32.430   3.783
13672W        W75335  13.680  10.696   1.832
13673W        W75336  27.134  23.069  13.480
13674W        W75337  32.476  14.320   3.640
13675W        W75338  32.617  24.650   4.217
13676W        W75339   5.343   4.857  11.608
13677W        W75340   8.898   9.388  14.821
13678W        W75341  30.611  34.572  13.404
13679W        W75342   5.805  27.555   2.875
13680W        W75343   1.392  16.568   2.241
13681W        W75344  32.942  26.134   3.190
13682W        W75345  20.686  42.346   3.688
13683W        W75346   0.377  41.831   4.152
13684W        W75347  15.190  27.147   0.742
13685W        W75348  25.981  11.844   0.340
13686W        W75349  18.245  37.874  12.954
13687W        W75350   0.765  34.475  13.970
13688W        W75351   8.406  33.396  13.831
13689W        W75352   6.330  39.893  14.878
13690W        W75353   9.790   9.756   0.945
13691W        W75354   2.286  24.976   4.274
13692W        W75355   1.374  13.764  11.544
13693W        W75356   5.206  23.618   4.275
13694W        W75357  38.860  18.106   4.639
13695W        W75358   2.837  40.964   4.188
13696W        W75359  28.995   3.345   2.683
13697W        W75360  35.917  12.842  12.078
13698W        W75361  33.891  17.220   2.191
13699W        W75362  23.537  44.464  14.427
13700W        W75363   3.410  30.040   0.832
13701W        W75364   2.361  20.065  12.365
13702W        W75365  35.931  29.981  10.894
13703W        W75366  11.725  12.149   0.777
13704W        W75367  31.928  33.045   1.758
13705W        W75368  32.513  29.936   4.688
13706W        W75369   3.366   1.882   2.345
13707W        W75370  39.474  21.187   3.152
13708W        W75371  29.515   3.339  13.887
13709W        W75372  34.044  31.152   0.373
13710W        W75373  40.884   8.673   5.167
13711W        W75374  32.016   3.366  11.902
13712W        W75375   9.230   1.302   1.263
13713W        W75376   9.885  35.458  11.982
13714W        W75377  29.585  32.971   3.163
13715W        W75378  34.531  20.172   2.368
13716W        W75379  29.986  43.840  10.619
13717W        W75380  22.705  32.967  12.482
13718W        W75381  16.609  23.491  12.870
13719W        W75382  37.393  12.311   3.284
13720W        W75383  21.667  10.369  12.832
13721W        W75384  23.199   2.280   3.296
13722W        W75385   3.746   5.744   2.736
13723W        W75386  21.101   6.735  13.441
13724W        W75387   4.380  14.240   3.191
13725W        W75388   8.396  33.963  13.971
13726W        W75389  29.091   6.885   4.226
13727W        W75390  41.372  36.520   2.388
13728W        W75391  15.257   9.836   3.852
13729W        W75392  36.461  41.833  10.430
13730W        W75393  43.975  17.065   9.966
13731W        W75394  20.672  16.634   3.245
13732W        W75395  24.111  39.524  11.522
13733W        W75396   9.794  27.126   2.841
13734W        W75397   7.788   9.292   1.365
13735W        W75398  37.983  25.517  12.403
13736W        W75399   8.233   0.782  11.115
13737W        W75400   5.269  11.333   2.856
13738W        W75401  35.447   0.432   2.728
13739W        W75402   4.854  43.365  10.944
13740W        W75403  35.414  27.041   2.772
13741W        W75404  31.414  32.406  10.925
13742W        W75405  23.157  32.023  14.938
13743W        W75406  38.997   6.221   2.202
13744W        W75407  21.147   6.751  13.994
13745W        W75408  36.422  34.997  10.029
13746W        W75409  28.470  11.169  14.962
13747W        W75410  11.806  30.602   2.402
13748W        W75411  31.020   2.359  11.533
13749W        W75412   5.775  19.579  11.999
13750W        W75413  19.241  13.213  10.575
13751W        W75414   9.782  25.506  14.017
13752W        W75415   6.252   5.917  11.561
13753W        W75416  33.954  29.129  10.565
13754W        W75417  25.672  39.349  11.035
13755W        W75418  12.796  41.399   0.278
13756W        W75419  10.774  10.695  13.939
13757W        W75420  40.920   8.680   2.822
13758W        W75421  34.412   3.435  11.871
13759W        W75422   7.327  39.955   0.737
13760W        W75423  17.087  23.124  13.381
13761W        W75424   0.292  27.602  13.880
13762W        W75425  38.444   5.826   4.190
13763W        W75426  33.997  33.451   0.914
13764W        W75427  29.059  33.982   0.343
13765W        W75428  33.601  11.130   0.471
13766W        W75429   0.775   2.795   1.735
13767W        W75430   6.393   9.299  11.910
13768W        W75431  14.339  39.503   5.803
13769W        W75432  43.959  36.925   0.478
13770W        W75433  36.887  10.246   1.732
13771W        W75434   0.897  33.434  10.548
13772W        W75435  10.733  22.661   4.268
13773W        W75436  34.443  27.080   3.761
13774W        W75437   5.750  36.557   0.254
13775W        W75438  31.100  41.912   1.348
13776W        W75439   6.695  39.407   3.172
13777W        W75440  20.267  14.660  14.393
13778W        W75441   0.345   1.424  14.384
13779W        W75442  43.418  17.795   2.764
13780W        W75443  36.411   0.393  12.837
13781W        W75444  21.618  27.692  14.296
13782W        W75445  13.693   2.892   2.788
13783W        W75446  13.250   2.231  13.389
13784W        W75447  32.409  39.852  11.466
13785W        W75448  13.821  39.330   1.731
13786W        W75449  43.437  39.007   3.355
13787W        W75450  18.059  32.970  14.791
13788W        W75451  24.198   1.912   2.787
13789W        W75452  41.459  26.531   4.339
13790W        W75453  10.280   9.252   2.716
13791W        W75454  44.818  37.087   0.929
13792W        W75455  41.922  35.948   1.403
13793W        W75456   4.284   9.229  12.567
13794W        W75457  35.581   9.286   0.919
13795W        W75458  41.900  31.422   0.850
13796W        W75459  18.219  17.239  13.794
13797W        W75460  39.544  44.761  13.343
13798W        W75461   4.430   7.748  13.336
13799W        W75462  31.083   7.854   4.282
13800W        W75463   6.781  35.069   1.274
13801W        W75464  44.465   2.822  11.395
13802W        W75465  29.573  31.619   1.417
13803W        W75466  25.662  39.044  10.055
13804W        W75467   9.364  10.786   2.279
13805W        W75468  12.656  40.321   3.852
13806W        W75469  18.119  27.548  11.443
13807W        W75470  44.825   7.283  11.503
13808W        W75471  12.119  39.944   1.330
13809W        W75472  44.415  36.474   1.746
13810W        W75473  31.497   9.187  12.531
13811W        W75474   2.950  18.623   4.748
13812W        W75475   8.767  32.105  10.626
13813W        W75476  18.689   2.255  14.970
13814W        W75477   6.872  13.719  14.345
13815W        W75478  25.988  24.636   2.874
13816W        W75479  28.019  15.155  10.507
13817W        W75480  15.193  35.020   0.309
13818W        W75481  37.417  32.457   2.381
13819W        W75482  30.448  33.482  12.560
13820W        W75483  18.250  16.156   3.293
13821W        W75484  41.328  22.029   0.248
13822W        W75485  26.061  27.584  14.012
13823W        W75486  23.734  26.638  10.077
13824W        W75487  29.096  42.872  11.104
13825W        W75488  24.018  16.750  14.314
13826W        W75489   9.320  40.382  14.776
13827W        W75490   4.263  11.215   3.682
13828W        W75491  25.217  22.155  14.283
13829W        W75492  27.673  11.284   3.205
13830W        W75493  42.396  23.081  11.997
13831W        W75494   8.368  20.091  10.604
13832W        W75495  26.972   6.772  14.934
13833W        W75496   4.785  28.945  12.416
13834W        W75497  35.516  39.467   2.903
13835W        W75498  10.270  25.626  12.064
13836W        W75499   0.937  40.343   2.199
13837W        W75500  37.860  13.743   4.600
13838W        W75501  44.288   4.223   0.419
13839W        W75502  43.869  20.769  11.096
13840W        W75503   7.711   8.335  10.518
13841W        W75504  10.728  19.234   4.116
13842W        W75505   6.840  11.351   3.731
13843W        W75506  14.650  20.236   3.335
13844W        W75507  30.427  38.421   0.933
13845W        W75508  39.318  32.107  12.029
13846W        W75509  14.262   4.855  12.415
13847W        W75510  12.842  32.625   1.413
13848W        W75511   4.910  28.589   0.950
13849W        W75512   9.364  24.618   0.939
13850W        W75513  36.902  13.136  10.580
13851W        W75514  33.412   4.886  12.436
13852W        W75515  19.239   5.715   0.889
13853W        W75516   0.270  42.451  11.006
13854W        W75517  34.066  35.399   1.707
13855W        W75518  41.909   4.799  12.385
13856W        W75519  28.059  24.004   3.859
13857W        W75520  35.411  43.304   3.723
13858W        W75521   3.719   2.454   1.861
13859W        W75522  39.031   0.476  12.990
13860W        W75523  17.580  12.126  11.883
13861W        W75524  17.777  13.245  13.511
13862W        W75525   3.301  31.936  12.438
13863W        W75526  44.285  25.965   0.920
13864W        W75527  30.475  17.577  13.805
13865W        W75528  20.574  14.260   2.797
13866W        W75529   4.723  34.580  11.982
13867W        W75530   0.858  29.662   3.831
13868W        W75531  39.921  32.423   4.813
13869W        W75532  39.063   4.273  11.375
13870W        W75533  22.583   6.199   1.837
13871W        W75534  24.199   2.780   3.346
13872W        W75535  35.570  40.382  11.512
13873W        W75536   6.912  23.233  14.007
13874W        W75537  25.494  30.099   2.272
13875W        W75538  31.008  38.895  13.968
13876W        W75539   4.393  22.691  10.531
13877W        W75540  10.785  25.017  11.530
13878W        W75541  44.976  10.727  13.855
13879W        W75542  41.379  41.960  12.399
13880W        W75543  22.110  40.841  11.571
13881W        W75544   1.467  12.675   0.868
13882W        W75545   8.393  18.119   2.837
13883W        W75546  30.485  10.791   0.363
13884W        W75547  14.724  20.235   1.852
13885W        W75548  24.553  37.942  13.443
13886W        W75549  16.310  19.185  14.817
13887W        W75550   4.727  10.189   0.923
13888W        W75551  29.490   5.293  13.024
13889W        W75552   2.432   6.332  13.454
13890W        W75553  32.502  26.032  14.475
13891W        W75554  26.976  38.030  10.146
13892W        W75555  39.041  42.018   4.775
13893W        W75556  15.633  13.233  10.507
13894W        W75557   9.646   9.259  13.999
13895W        W75558   5.348  28.520  11.973
13896W        W75559  13.291  35.988  13.410
13897W        W75560  25.154  35.525   4.800
13898W        W75561  19.282  43.313   0.299
13899W        W75562   5.714  13.228   3.861
13900W        W75563   4.869  24.497   2.801
13901W        W75564   8.859   6.773   1.367
13902W        W75565   9.768  32.081   1.921
13903W        W75566  12.261  37.422   2.810
13904W        W75567   1.741  39.945  11.536
13905W        W75568  33.089   4.896   3.239
13906W        W75569  15.147  13.643   9.583
13907W        W75570  39.921  39.827   3.162
13908W        W75571  43.366  10.636  14.781
13909W        W75572  26.477  32.596  13.516
13910W        W75573  34.966  20.196  13.957
13911W        W75574  16.278  18.614  14.455
13912W        W75575   4.774  30.492   0.907
13913W        W75576  44.009  33.026  12.969
13914W        W75577  27.510  11.179  14.917
13915W        W75578  23.661  35.398  14.763
13916W        W75579  31.627  14.252   0.447
13917W        W75580  31.512  34.555  12.536
13918W        W75581  37.904   5.309  12.094
13919W        W75582   0.435  13.153  10.160
13920W        W75583   1.915  36.442   0.936
13921W        W75584  32.494  37.566   3.287
13922W        W75585  26.097   9.704   2.853
13923W        W75586  14.277  40.464   1.805
13924W        W75587  28.179  26.617  11.594
13925W        W75588  35.445  39.823   0.246
13926W        W75589   0.315   8.365  12.418
13927W        W75590  28.588  39.958   0.257
13928W        W75591  16.254  28.659   2.779
13929W        W75592  26.646  44.977  14.323
13930W        W75593  14.641  16.073   1.714
13931W        W75594  35.868  39.040  13.888
13932W        W75595  12.312  33.495  14.378
13933W        W75596  27.190   1.264   1.307
13934W        W75597  25.189  36.504   5.252
13935W        W75598   0.853   0.427   1.926
13936W        W75599  11.835  40.813  13.038
13937W        W75600   0.854  29.522   1.282
13938W        W75601  40.809  42.443   1.849
13939W        W75602  41.497  15.603  12.570
13940W        W75603  13.129  41.425  11.053
13941W        W75604  41.909  35.889  10.465
13942W        W75605  30.156  24.169   3.246
13943W        W75606   0.409  30.135  10.616
13944W        W75607   5.266  44.410  13.315
13945W        W75608  44.270  27.528   0.458
13946W        W75609   3.781  11.643   4.120
13947W        W75610  30.918  15.107   1.264
13948W        W75611  18.168  24.223  13.358
13949W        W75612  21.515  41.922   1.739
13950W        W75613  39.391   7.887  13.860
13951W        W75614  17.583  35.056  13.491
13952W        W75615  28.125  22.534  14.919
13953W        W75616   1.376  17.245   4.132
13954W        W75617  20.197  15.702   1.229
13955W        W75618   5.251   2.834   0.884
13956W        W75619   0.403  21.597   2.333
13957W        W75620  39.041  32.946   1.812
13958W        W75621  31.579  35.468  11.014
13959W        W75622   1.473   0.332   3.208
13960W        W75623  41.493  36.905   0.460
13961W        W75624   0.287  43.916  13.946
13962W        W75625  12.851  24.980   4.723
13963W        W75626   1.742  33.489  10.454
13964W        W75627  40.861  27.605   0.929
13965W        W75628  22.115  15.095  11.029
13966W        W75629  29.653  34.482  10.975
13967W        W75630   3.749   6.301  13.031
13968W        W75631   1.852   0.895   0.898
13969W        W75632  20.671  10.702   4.259
13970W        W75633   5.838  15.225   2.827
13971W        W75634  25.085   5.330  11.474
13972W        W75635   3.427  27.559  14.473
13973W        W75636  21.673  25.529  11.594
13974W        W75637  42.999  29.517  11.407
13975W        W75638  30.032  44.503   1.824
13976W        W75639  27.976  24.665  12.545
13977W        W75640  37.022  40.938   1.853
13978W        W75641  11.710  36.862   5.169
13979W        W75642  23.234  34.466  11.421
13980W        W75643  43.858  29.979   3.192
13981W        W75644  22.169  21.752   0.252
13982W        W75645   3.868   7.781   4.287
13983W        W75646  20.766  34.465   1.251
13984W        W75647  14.704  10.806  11.378
13985W        W75648  33.431  28.468   1.736
13986W        W75649  20.064  10.785  13.448
13987W        W75650  16.589  17.096  13.889
13988W        W75651  39.929   6.257   4.127
13989W        W75652  14.718  35.046  11.927
13990W        W75653  31.066  27.601   3.702
13991W        W75654  35.937  42.514  12.448
13992W        W75655   8.883   8.320  12.447
13993W        W75656   9.702  17.127   2.740
13994W        W75657  15.166  34.485   0.413
13995W        W75658  34.896   9.165   3.699
13996W        W75659  27.632  22.219  12.022
13997W        W75660   1.318  19.682   3.721
13998W        W75661  39.829   8.837  14.382
13999W        W75662   3.353  20.699   1.720
14000W        W75663   0.890  10.311   3.755
14001W        W75664  24.490   0.493   4.215
14002W        W75665  21.597  17.162   9.954
14003W        W75666   7.403   8.688   0.901
14004W        W75667  29.613  17.110  13.865
14005W        W75668  21.692   9.209  14.887
14006W        W75669  27.518   0.485   1.850
14007W        W75670  10.811   6.741   4.799
14008W        W75671  36.992  18.609   3.768
14009W        W75672   7.898   1.778   3.847
14010W        W75673  24.022   1.371   2.276
14011W        W75674  20.271  28.158   0.339
14012W        W75675   9.262  16.251   2.700
14013W        W75676  21.259  28.617   0.846
14014W        W75677   6.749   1.257  11.889
14015W        W75678  27.681  10.322  12.999
14016W        W75679   4.937  11.233   3.633
14017W        W75680   2.849  33.120   0.376
14018W        W75681  24.551  29.535   0.726
14019W        W75682  42.411  17.210  14.011
14020W        W75683  23.703  30.136   4.731
14021W        W75684  32.901  34.937  11.868
14022W        W75685  27.062  14.649   2.781
14023W        W75686  43.274  33.093  11.388
14024W        W75687  33.387   4.817  13.449
14025W        W75688  17.785  37.440   3.369
14026W        W75689  32.519   7.770  13.311
14027W        W75690  42.341  24.990  13.870
14028W        W75691  14.107  35.434   5.129
14029W        W75692   2.785   0.955   2.685
14030W        W75693  25.509  23.124  11.462
14031W        W75694  44.347  20.127   0.842
14032W        W75695  24.715  43.936  12.355
14033W        W75696  11.851  24.173  12.549
14034W        W75697   1.466  35.981   0.928
14035W        W75698  14.171  11.314  11.927
14036W        W75699  28.181   4.868  13.880
14037W        W75700  21.555  13.257   2.238
14038W        W75701  23.212   0.488   2.379
14039W        W75702   3.831  30.156  12.345
14040W        W75703   5.211   3.352  11.437
14041W        W75704  31.904  25.521   0.430
14042W        W75705   1.836  33.415  13.878
14043W        W75706  21.709  22.014   2.362
14044W        W75707  34.922  39.430   3.191
14045W        W75708   9.332  24.593   1.935
14046W        W75709   4.738  28.955  13.836
14047W        W75710   1.283   6.719   0.929
14048W        W75711   0.392   0.923  14.290
14049W        W75712  18.585   9.195  13.351
14050W        W75713  39.945  13.657   1.339
14051W        W75714  38.860  42.974  11.393
14052W        W75715   3.892  12.162   1.258
14053W        W75716  35.524  28.033   3.812
14054W        W75717  19.274  17.712   4.604
14055W        W75718  27.565  16.260  14.779
14056W        W75719  18.755  23.497   1.715
14057W        W75720   6.886  22.248   3.250
14058W        W75721  36.990  20.760  12.456
14059W        W75722  34.957  35.080  14.400
14060W        W75723  25.055  35.602  13.040
14061W        W75724  36.422  39.412   2.337
14062W        W75725  24.512  24.583  13.940
14063W        W75726  11.861  26.145   0.783
14064W        W75727   0.415   1.850   0.808
14065W        W75728  26.956  33.622  10.907
14066W        W75729  19.142  42.916   3.743
14067W        W75730  22.223   3.366  11.414
14068W        W75731  35.565  18.706   3.312
14069W        W75732  42.919   6.221  10.614
14070W        W75733  40.340  18.102   4.331
14071W        W75734   1.733  20.052  12.035
14072W        W75735  43.961  24.028  13.944
14073W        W75736   3.732  36.996   4.209
14074W        W75737   1.752  23.550  10.609
14075W        W75738   2.943  11.238  11.878
14076W        W75739   3.270   8.292   0.820
14077W        W75740  23.595  13.801  11.077
14078W        W75741   7.674  21.147   2.316
14079W        W75742  40.469   9.714   4.609
14080W        W75743  10.142   6.329   2.344
14081W        W75744  22.506  26.694   3.788
14082W        W75745  16.625  16.759  12.416
14083W        W75746  27.591  12.687  14.920
14084W        W75747  35.474  17.198  14.355
14085W        W75748  15.208  25.218   3.163
14086W        W75749  26.100  16.613   0.364
14087W        W75750   6.881  21.142  13.968
14088W        W75751  43.295  14.616  11.465
14089W        W75752   6.881  39.471   4.155
14090W        W75753  42.990  19.768  10.566
14091W        W75754   5.345  37.405  11.877
14092W        W75755   3.254   6.793   3.746
14093W        W75756  30.956  37.028   4.293
14094W        W75757  39.916  12.799   2.879
14095W        W75758  37.386  11.795  12.543
14096W        W75759  43.363  30.159   4.221
14097W        W75760   6.407  13.833  13.867
14098W        W75761   1.480   3.846   4.209
14099W        W75762  22.724  20.090   0.890
14100W        W75763  35.400  20.089   3.797
14101W        W75764  32.465   3.862  10.443
14102W        W75765  29.487  11.853   4.249
14103W        W75766  30.100  31.523   4.680
14104W        W75767  23.167  27.479  12.435
14105W        W75768   5.233  21.735  10.437
14106W        W75769  13.746   0.333   3.314
14107W        W75770  19.055  29.512   3.745
14108W        W75771  28.117  18.549  12.345
14109W        W75772   3.909  20.254  14.278
14110W        W75773  31.413  27.677   2.897
14111W        W75774  39.840  13.744  14.479
14112W        W75775  26.699  22.051   0.784
14113W        W75776  35.054  14.158   0.379
14114W        W75777  11.626  44.342   0.924
14115W        W75778   1.774  38.013   1.228
14116W        W75779   0.419  28.665   1.279
14117W        W75780  37.044   3.883  13.898
14118W        W75781   8.341   6.841  11.878
14119W        W75782  41.957  24.171  13.879
14120W        W75783  18.724  21.584   0.864
14121W        W75784   6.197  22.682  13.863
14122W        W75785   9.720  29.437  13.924
14123W        W75786  25.705  30.448   3.159
14124W        W75787  22.540  23.639  14.808
14125W        W75788  28.114  18.274  12.948
14126W        W75789  39.546  36.053  14.493
14127W        W75790  19.169  25.531  12.926
14128W        W75791  12.116  18.551   2.889
14129W        W75792   0.771   0.424   2.777
14130W        W75793   9.814  12.276  12.877
14131W        W75794  32.021   8.352  14.311
14132W        W75795  40.323  42.998   3.637
14133W        W75796  42.850  25.529  14.416
14134W        W75797   9.307  34.579  12.986
14135W        W75798  29.543  43.839   3.706
14136W        W75799  27.484  33.121   1.438
14137W        W75800  10.250  23.060  14.935
14138W        W75801  27.989  21.705  11.382
14139W        W75802  30.503  14.320  11.977
14140W        W75803  23.555  33.043   0.257
14141W        W75804  41.873  32.503   1.255
14142W        W75805  41.345   5.427  13.055
14143W        W75806  20.145  44.441   1.302
14144W        W75807  32.108  43.291  12.379
14145W        W75808   6.855  40.924  10.446
14146W        W75809  16.216  34.967   3.665
14147W        W75810  33.518  19.587  11.867
14148W        W75811  14.178  19.612   3.206
14149W        W75812   3.428  14.689   3.664
14150W        W75813  29.997  18.284  10.638
14151W        W75814   1.260  34.063   1.324
14152W        W75815  11.222  37.450   5.137
14153W        W75816  22.597   2.764  10.506
14154W        W75817   3.424   4.893  14.884
14155W        W75818  44.815  30.434   3.646
14156W        W75819  32.046  22.107  13.349
14157W        W75820  39.535  36.961   1.433
14158W        W75821  31.912  16.089   1.868
14159W        W75822  24.537   2.322   2.202
14160W        W75823  11.291  39.489  13.983
14161W        W75824  15.207  11.779  12.914
14162W        W75825  39.476   5.337   1.712
14163W        W75826   7.239  23.584  10.479
14164W        W75827  40.808  32.599  13.021
14165W        W75828   4.927  25.712   3.318
14166W        W75829  35.410  31.630  13.926
14167W        W75830  15.229  24.571   0.933
14168W        W75831   7.246  41.394  11.992
14169W        W75832  34.424  37.008   4.119
14170W        W75833  13.238  41.860  11.042
14171W        W75834  20.544  31.578  10.414
14172W        W75835  15.279  39.943  11.946
14173W        W75836  12.731   0.442   4.197
14174W        W75837  24.093  43.829   1.222
14175W        W75838  16.087   6.278  13.497
14176W        W75839  33.044  12.699   4.602
14177W        W75840  17.711   6.406   0.885
14178W        W75841  34.064  13.235  13.964
14179W        W75842  13.327   0.346  10.469
14180W        W75843  44.301  38.950  12.883
14181W        W75844  10.338  14.829   4.292
14182W        W75845  27.591  21.116   2.707
14183W        W75846   8.879   1.947  13.969
14184W        W75847  29.458  18.219   3.755
14185W        W75848  20.037  31.978   5.284
14186W        W75849  27.045  21.199   1.235
14187W        W75850  28.540  38.979  13.029
14188W        W75851  32.625  38.924   3.218
14189W        W75852  25.469   8.212   4.249
14190W        W75853  10.212  38.910   0.916
14191W        W75854  15.683  25.989  12.975
14192W        W75855   2.809   6.415   0.817
14193W        W75856  35.071   6.921   2.204
14194W        W75857   3.727  37.466  11.487
14195W        W75858  35.548  10.753   1.291
14196W        W75859  19.220  33.034   1.317
14197W        W75860  32.618  36.062   2.877
14198W        W75861  11.244  11.735  13.038
14199W        W75862  17.741  21.112   3.197
14200W        W75863  12.839   7.803  13.993
14201W        W75864  12.708  18.114   4.728
14202W        W75865  34.023  25.530   2.818
14203W        W75866  12.147  38.869  14.956
14204W        W75867  21.520  24.553   2.416
14205W        W75868  41.441  27.048   3.341
14206W        W75869  20.206  40.401  12.395
14207W        W75870  19.139  23.027  12.037
14208W        W75871  39.022   8.755   4.161
14209W        W75872  44.380  19.642   0.257
14210W        W75873  13.811  34.963   3.727
14211W        W75874  16.296   5.306   2.769
14212W        W75875  21.075  14.676   3.294
14213W        W75876  30.997  28.100   4.729
14214W        W75877  22.570  32.905  14.390
14215W        W75878  33.965   2.931  13.543
14216W        W75879   5.845   7.685  11.526
14217W        W75880   6.254   3.728  13.039
14218W        W75881  26.952  26.143   3.377
14219W        W75882   3.455  40.397   5.304
14220W        W75883  23.000  19.179  11.897
14221W        W75884   9.786  24.085  14.794
14222W        W75885  44.953   9.756  13.034
14223W        W75886  42.510   2.406   4.677
14224W        W75887  25.571  27.192  11.544
14225W        W75888  38.462   9.772  13.908
14226W        W75889  18.164  26.078   3.695
14227W        W75890   8.381  38.062  10.583
14228W        W75891   4.283  19.070  14.282
14229W        W75892  36.529  22.705  14.445
14230W        W75893  34.895   9.661   0.336
14231W        W75894  21.555  19.041   1.218
14232W        W75895  23.579   1.767  14.927
14233W        W75896  11.170  23.068  14.955
14234W        W75897  12.714  43.871  12.464
14235W        W75898  29.002  38.880  11.545
14236W        W75899  21.669   5.746  14.865
14237W        W75900   3.734  39.064  14.393
14238W        W75901  14.128  34.063   1.337
14239W        W75902   8.873  40.815  13.010
14240W        W75903  33.600  16.291  11.991
14241W        W75904  10.357  40.858   3.276
14242W        W75905  29.475   0.753   5.252
14243W        W75906  14.777   8.196   0.914
14244W        W75907  16.073  30.958   1.444
14245W        W75908   5.774  43.831   2.893
14246W        W75909  25.165  40.825  12.048
14247W        W75910  21.044  41.809   4.244
14248W        W75911  10.674  17.197   1.898
14249W        W75912  27.061  12.619   0.832
14250W        W75913   6.823  16.582  12.927
14251W        W75914  21.087  44.805   2.797
14252W        W75915  34.496  19.214   4.142
14253W        W75916   7.342  41.939   3.330
14254W        W75917  21.749  16.083   3.727
14255W        W75918  13.623   8.790  11.961
14256W        W75919  26.633  15.742  14.320
14257W        W75920   9.702  44.766  12.516
14258W        W75921   3.376  40.987  11.533
14259W        W75922  13.186  19.684  14.832
14260W        W75923  35.447   2.249  11.965
14261W        W75924   8.359  20.685   3.223
14262W        W75925  16.760  34.886  10.608
14263W        W75926  40.952  40.014  11.098
14264W        W75927   6.710  16.248  13.925
14265W        W75928  31.436  38.570   0.845
14266W        W75929  38.465  10.778  12.537
14267W        W75930   5.208  37.344  12.565
14268W        W75931   5.360  25.030  10.565
14269W        W75932  41.404  19.690   5.301
14270W        W75933   2.390  18.749  11.121
14271W        W75934   1.757   4.862  11.440
14272W        W75935  14.163  19.688  14.934
14273W        W75936  12.167  35.550   4.301
14274W        W75937  15.580  43.900   1.375
14275W        W75938  35.953  42.796  11.084
14276W        W75939  18.673   1.888  12.957
14277W        W75940   3.359  40.418   3.848
14278W        W75941  31.920  27.650  12.402
14279W        W75942  39.324  16.226  13.949
14280W        W75943  43.845   5.262   3.772
14281W        W75944  42.293  37.084  12.989
14282W        W75945  40.830   7.758  13.059
14283W        W75946  24.083  23.720   0.434
14284W        W75947   4.875   5.285   4.767
14285W        W75948  37.966   6.861  13.857
14286W        W75949  16.654   6.428   3.193
14287W        W75950  42.002   3.346  14.004
14288W        W75951  14.806   0.301   5.163
14289W        W75952  23.628   2.917  14.867
14290W        W75953  42.845  29.927  13.493
14291W        W75954  21.245   0.771  10.627
14292W        W75955  39.547  39.353  11.463
14293W        W75956   4.281   3.864  10.917
14294W        W75957   7.875  30.447  12.909
14295W        W75958   8.659  41.894  11.453
14296W        W75959   8.247  32.891  13.426
14297W        W75960  33.107   9.667  14.895
14298W        W75961   4.937  44.390   0.452
14299W        W75962  26.489   4.341   1.695
14300W        W75963  18.134  27.595   3.824
14301W        W75964   8.778  42.293   2.799
14302W        W75965  15.213  36.929   0.777
14303W        W75966  44.397  42.319  14.346
14304W        W75967  24.156   3.237   3.201
14305W        W75968  42.995  30.450  11.982
14306W        W75969  24.171  12.318  11.041
14307W        W75970  21.180  15.698   1.864
14308W        W75971  43.452  25.074  14.761
14309W        W75972   8.207  39.935   1.829
14310W        W75973  26.107  44.906  14.963
14311W        W75974  14.114  41.882  11.036
14312W        W75975  43.764  13.194  11.883
14313W        W75976   2.818  31.109  14.334
14314W        W75977  12.614   7.214   9.955
14315W        W75978  39.965  34.585  14.500
14316W        W75979  24.529  19.698  14.513
14317W        W75980  12.257  28.159  12.862
14318W        W75981  32.404  41.446  13.517
14319W        W75982   6.770  10.219  11.933
14320W        W75983  30.933  38.894   4.216
14321W        W75984   8.217  26.516  13.389
14322W        W75985  20.272  29.071  13.492
14323W        W75986  33.061  31.491  11.034
14324W        W75987   5.206  18.718   0.847
14325W        W75988   2.376  42.946  14.004
14326W        W75989  14.281  33.997  13.338
14327W        W75990  22.698  13.677  13.913
14328W        W75991  38.457  36.978   0.792
14329W        W75992  42.970  35.076  12.057
14330W        W75993  37.902  20.620   3.182
14331W        W75994   6.384  35.100   2.247
14332W        W75995  27.050  12.651   4.330
14333W        W75996  17.126   8.801  12.513
14334W        W75997  41.464  27.513  14.884
14335W        W75998  29.019  28.613   2.243
14336W        W75999  30.532  41.443  11.906
14337W        W76000  10.870  25.645  14.276
14338W        W76001   6.919  39.006   2.664
14339W        W76002  43.485   3.858  13.468
14340W        W76003  33.561  21.065  11.581
14341W        W76004  17.255  31.019   0.733
14342W        W76005  39.960   8.860   0.925
14343W        W76006  17.162  25.054   4.325
14344W        W76007  27.458  30.548  11.010
14345W        W76008  17.690   9.357  14.285
14346W        W76009  25.146   6.279   2.374
14347W        W76010  18.616   9.739   4.802
14348W        W76011  39.893   2.786   0.955
14349W        W76012  14.124  41.928   3.649
14350W        W76013   5.308  11.351  10.913
14351W        W76014  31.975  36.396   1.766
14352W        W76015  39.040  10.264   3.268
14353W        W76016   5.887  31.620  13.335
14354W        W76017  18.288   0.274   2.278
14355W        W76018  35.892  22.127   2.806
14356W        W76019  36.899  36.356   3.301
14357W        W76020  12.824  38.518   2.829
14358W        W76021  37.516  44.779  13.469
14359W        W76022  32.550  38.463  13.945
14360W        W76023  23.652  33.517   3.262
14361W        W76024  19.110   8.233  13.893
14362W        W76025   4.912  38.437  13.441
14363W        W76026  21.035  23.676   2.717
14364W        W76027  42.778  13.324  12.557
14365W        W76028  25.509   6.808  10.557
14366W        W76029  18.791  15.641  14.968
14367W        W76030  11.852   2.893  11.561
14368W        W76031  40.861  35.971   1.296
14369W        W76032  20.619  11.712  13.424
14370W        W76033  12.220  12.841  12.515
14371W        W76034  32.020   5.235   0.788
14372W        W76035  25.591   2.427  10.527
14373W        W76036  34.508  42.527   2.413
14374W        W76037  20.721  28.449  12.862
14375W        W76038   0.396  13.733   0.301
14376W        W76039  18.290   6.251  13.370
14377W        W76040   1.782   3.903  12.051
14378W        W76041  15.167   8.661   2.414
14379W        W76042  20.755  13.644  11.445
14380W        W76043  30.010  11.626   1.863
14381W        W76044  44.308  30.147   4.619
14382W        W76045  40.403  42.974   0.282
14383W        W76046  17.308  39.497  14.913
14384W        W76047  18.226  43.387   4.753
14385W        W76048  40.847  10.757  11.467
14386W        W76049  43.829  16.273  14.486
14387W        W76050  38.058  19.058   2.303
14388W        W76051  38.926  24.077  12.862
14389W        W76052  31.435   4.433   3.282
14390W        W76053  44.849  41.879  14.797
14391W        W76054  18.644  26.185   3.725
14392W        W76055  11.727  23.040   0.327
14393W        W76056  39.464  13.786   9.534
14394W        W76057  21.701  11.350  14.291
14395W        W76058   3.440  34.400  11.439
14396W        W76059   1.926   6.350   1.759
14397W        W76060   7.386  39.844  10.620
14398W        W76061  13.227  33.100   2.358
14399W        W76062  34.536  39.451  13.317
14400W        W76063  26.459  19.728   1.245
14401W        W76064   3.893  30.618  12.954
14402W        W76065  43.454  44.975   3.778
14403W        W76066  44.332  36.546   2.278
14404W        W76067  21.120   0.803  13.895
14405W        W76068  36.958  22.072  13.424
14406W        W76069  28.930  11.746   0.858
14407W        W76070  28.618  40.829   0.915
14408W        W76071  36.072  22.532  13.000
14409W        W76072  18.592  11.332   4.305
14410W        W76073   1.244  23.082  13.342
14411W        W76074  25.126   0.801  13.940
14412W        W76075  10.864  36.428   3.171
14413W        W76076  33.101   7.273   3.187
14414W        W76077   4.215  34.933  10.962
14415W        W76078   5.809  41.861  12.939
14416W        W76079  28.507  17.164   1.310
14417W        W76080  31.097  19.617   0.295
14418W        W76081  18.066  24.010   1.216
14419W        W76082  36.937  22.740  10.934
14420W        W76083  31.484   5.910  14.819
14421W        W76084  32.520  43.817   3.304
14422W        W76085  37.532   2.438   1.881
14423W        W76086  18.748  14.265   1.355
14424W        W76087  41.297  27.968   0.269
14425W        W76088  43.474  31.088   1.211
14426W        W76089  24.048   1.838   1.761
14427W        W76090  21.700  41.483   4.189
14428W        W76091  13.112  31.482   3.163
14429W        W76092  11.737  10.372   1.827
14430W        W76093  41.337  31.152   4.669
14431W        W76094  11.864  35.883  14.283
14432W        W76095  25.523  26.170  12.450
14433W        W76096  25.544  41.523   2.351
14434W        W76097  25.085   7.845   0.728
14435W        W76098   3.379   5.227   3.355
14436W        W76099   2.340  32.961   1.269
14437W        W76100  41.485  22.116  10.581
14438W        W76101  18.570   8.174  12.444
14439W        W76102   1.782   4.218   4.835
14440W        W76103  15.814  43.939  14.957
14441W        W76104  11.212  35.406  12.919
14442W        W76105  16.715  32.961  14.833
14443W        W76106  31.647  25.217   0.438
14444W        W76107  30.653  18.647  14.436
14445W        W76108  23.612  29.127  14.409
14446W        W76109  27.537  38.955   4.637
14447W        W76110   7.720  17.223   3.159
14448W        W76111  11.731  18.280  12.356
14449W        W76112  13.306  18.644   2.290
14450W        W76113   7.327   4.298   0.967
14451W        W76114   8.290   2.952  14.434
14452W        W76115   9.328  24.706   0.365
14453W        W76116  40.932  27.663  13.505
14454W        W76117  14.753  23.494   3.801
14455W        W76118  43.410   2.762  14.315
14456W        W76119   2.342  21.543   1.239
14457W        W76120  17.623   9.296   1.764
14458W        W76121   0.384  44.764   4.197
14459W        W76122   4.719  14.720  14.306
14460W        W76123  42.443   8.396   1.790
14461W        W76124  43.481  23.559   1.342
14462W        W76125  11.686  43.799   2.381
14463W        W76126  18.071  10.778  13.438
14464W        W76127  17.668  25.099  10.990
14465W        W76128  30.466  12.181   2.886
14466W        W76129   8.719  33.396  11.084
14467W        W76130  37.079  35.890  11.539
14468W        W76131  28.035   0.399   3.636
14469W        W76132  30.052  27.038   2.264
14470W        W76133   7.301  13.817   3.661
14471W        W76134  28.003  11.157  12.061
14472W        W76135  36.583  17.294  11.393
14473W        W76136  37.457  33.072   2.340
14474W        W76137  29.431  19.609  13.949
14475W        W76138   1.914   0.461  11.464
14476W        W76139   4.431  42.455  12.460
14477W        W76140  17.266  21.208  13.403
14478W        W76141   1.259  13.755   3.351
14479W        W76142  39.914  16.105  11.522
14480W        W76143   6.818  16.724   0.325
14481W        W76144   8.875  36.531  14.498
14482W        W76145  11.307  28.984  11.406
14483W        W76146  27.955  41.417  11.585
14484W        W76147  16.773   2.452   2.704
14485W        W76148  22.700  41.302   5.221
14486W        W76149  21.678  25.513  14.851
14487W        W76150  10.252  26.692  10.644
14488W        W76151  44.453   6.759   3.722
14489W        W76152  36.006   4.871   4.210
14490W        W76153  39.811  41.005  10.633
14491W        W76154  26.471   4.809  13.474
14492W        W76155   8.863  22.192  12.968
14493W        W76156  32.502  18.287   5.603
14494W        W76157   1.923  37.966  14.006
14495W        W76158  16.241  17.297  11.050
14496W        W76159  37.401  32.033   2.677
14497W        W76160  10.361  27.593  13.040
14498W        W76161  30.426  26.543   2.733
14499W        W76162   6.191  32.996  14.482
14500W        W76163  20.629  22.158  10.948
14501W        W76164  37.008  25.471  14.412
14502W        W76165   3.434  31.069   0.314
14503W        W76166   2.855  12.306  12.022
14504W        W76167  30.022  23.213  12.835
14505W        W76168  39.331  14.678  12.358
14506W        W76169  27.659  26.533  12.916
14507W        W76170  21.190  32.979  11.015
14508W        W76171  20.728  32.563  14.426
14509W        W76172  18.087  38.502   4.812
14510W        W76173   9.297   5.203   2.865
14511W        W76174  29.095  24.618   0.938
14512W        W76175  16.165  42.504   2.836
14513W        W76176  44.923   6.279   2.845
14514W        W76177  11.162  26.018   3.201
14515W        W76178  26.605  34.087  13.798
14516W        W76179  37.416  32.399  12.086
14517W        W76180  19.573  12.255  11.547
14518W        W76181  16.111   2.868   0.482
14519W        W76182   7.712  19.077   2.700
14520W        W76183  12.238  36.355  12.014
14521W        W76184  38.571  15.600   2.892
14522W        W76185  23.064   7.790  14.953
14523W        W76186  43.365  35.470  12.836
14524W        W76187  17.760  35.471  11.572
14525W        W76188  28.052  38.384   0.841
14526W        W76189  13.746  21.168   3.828
14527W        W76190  17.175   6.417   4.284
14528W        W76191  38.002  42.942  12.912
14529W        W76192  12.643  39.400  14.823
14530W        W76193  20.684  20.634  11.489
14531W        W76194  11.788  25.091   5.304
14532W        W76195  20.131  41.808   1.337
14533W        W76196   0.805  37.949  10.449
14534W        W76197  27.079  10.293   3.238
14535W        W76198  43.822   5.411  10.905
14536W        W76199  25.178  29.927  11.063
14537W        W76200  32.926   8.184  14.942
14538W        W76201  33.881  17.567   5.597
14539W        W76202  20.723  22.196  13.998
14540W        W76203  25.081  33.985   3.790
14541W        W76204   0.840  28.130  14.463
14542W        W76205   2.412  34.100  10.630
14543W        W76206  39.841  18.057  13.828
14544W        W76207  36.061  38.359  10.555
14545W        W76208   3.710  17.595   0.338
14546W        W76209  24.537   3.827   2.200
14547W        W76210  41.962  20.750   3.862
14548W        W76211  30.605  17.792   2.667
14549W        W76212  42.846  30.563  14.501
14550W        W76213  27.029  11.658  10.481
14551W        W76214  13.748  17.724   2.749
14552W        W76215  24.593  34.932   1.363
14553W        W76216  37.407  33.571   5.126
14554W        W76217  16.597  19.598   1.433
14555W        W76218   0.932  42.514   2.336
14556W        W76219  38.061  26.147   1.431
14557W        W76220  31.054   6.862   1.249
14558W        W76221  43.428  13.185   2.349
14559W        W76222  22.527  29.457  10.551
14560W        W76223   0.364  42.794  10.514
14561W        W76224  32.621  16.166  12.871
14562W        W76225   2.848  16.121   0.930
14563W        W76226  16.764  42.860   2.302
14564W        W76227  14.833  11.627   2.899
14565W        W76228  40.317  20.733  12.922
14566W        W76229  18.172  38.998  11.544
14567W        W76230   2.793   6.806   2.307
14568W        W76231  17.113  20.116   4.804
14569W        W76232   6.807   7.203  12.021
14570W        W76233   2.354  26.095  10.581
14571W        W76234  28.678  28.010  14.837
14572W        W76235  12.774  16.808   0.859
14573W        W76236  16.643  44.345   3.268
14574W        W76237  26.545  34.078   1.729
14575W        W76238  11.170  20.171   4.249
14576W        W76239   3.915   8.873   0.811
14577W        W76240  11.817   7.414  11.875
14578W        W76241  16.686   4.927   2.893
14579W        W76242  18.612  15.745   3.845
14580W        W76243  29.082   7.694  13.477
14581W        W76244   3.902  14.677   3.159
14582W        W76245  12.168  18.598   1.850
14583W        W76246  43.865  26.132   2.314
14584W        W76247  11.680  10.276   5.287
14585W        W76248   6.763  43.960  14.032
14586W        W76249  33.496  18.571  12.940
14587W        W76250   4.447  43.917   4.678
14588W        W76251  39.449   7.200   2.181
14589W        W76252  38.360  16.598  11.078
14590W        W76253  25.572  38.436  10.444
14591W        W76254  30.426  19.226   1.882
14592W        W76255  33.920  11.260   1.794
14593W        W76256  14.807  28.006  12.549
14594W        W76257  24.108  36.044  13.471
14595W        W76258  12.144  25.062   2.812
14596W        W76259  13.686  16.221   1.913
14597W        W76260  17.611  20.541  11.403
14598W        W76261  18.624  26.544   0.394
14599W        W76262  27.665  23.171   2.348
14600W        W76263  35.922   1.804   2.827
14601W        W76264  44.858  34.020   1.824
14602W        W76265  41.457  15.116  13.874
14603W        W76266  39.908  17.160   1.451
14604W        W76267  28.128  27.471   3.265
14605W        W76268   3.298  21.699   3.677
14606W        W76269  44.489  38.437   0.893
14607W        W76270  35.366  29.520   2.742
14608W        W76271  31.419  14.197   4.254
14609W        W76272  31.573  21.568   5.227
14610W        W76273  11.369  17.780  12.352
14611W        W76274   2.259  15.673  10.039
14612W        W76275  43.279  18.232   1.748
14613W        W76276  33.472  26.014   1.828
14614W        W76277  23.556  18.750   0.270
14615W        W76278  21.533   1.404  12.369
14616W        W76279   2.761  15.776   0.480
14617W        W76280  39.019  25.575   5.294
14618W        W76281  11.660  30.597   3.240
14619W        W76282  19.188  24.573   0.335
14620W        W76283   9.310   4.773   0.755
14621W        W76284   5.876  37.527   3.674
14622W        W76285   8.269  24.682   4.771
14623W        W76286  21.677  37.950   4.788
14624W        W76287  40.978  17.578  12.555
14625W        W76288   5.217  28.132  12.500
14626W        W76289   3.256  30.520  11.927
14627W        W76290  36.507  22.619   5.319
14628W        W76291  10.651  19.151   4.769
14629W        W76292  25.642  34.615   1.418
14630W        W76293  18.578  25.494   3.775
14631W        W76294  41.529  20.685  13.490
14632W        W76295  13.699  23.145  11.976
14633W        W76296  22.119  11.143  11.863
14634W        W76297   8.752  23.591   4.706
14635W        W76298   2.275   4.898   3.216
14636W        W76299   0.950   0.826  10.472
14637W        W76300  11.703  14.130   1.752
14638W        W76301  23.092  39.943   2.839
14639W        W76302  25.527  39.952   3.210
14640W        W76303  36.034  16.618  10.463
14641W        W76304  18.101   5.805  13.501
14642W        W76305  12.258  37.904   4.690
14643W        W76306  42.287   6.679   4.666
14644W        W76307  20.132   7.202   2.282
14645W        W76308  26.026  13.109   0.350
14646W        W76309  24.146  34.974   4.346
14647W        W76310  22.638  24.021  11.103
14648W        W76311   9.156  38.864  14.990
14649W        W76312   3.879   6.814   1.697
14650W        W76313   1.390  44.455  10.480
14651W        W76314  41.826  36.973   3.654
14652W        W76315  43.020  43.279   2.896
14653W        W76316  31.913  32.538  10.439
14654W        W76317  17.126  43.012  12.529
14655W        W76318   6.754  24.070  12.985
14656W        W76319   7.739  39.355  12.542
14657W        W76320  37.530  42.974   0.331
14658W        W76321  38.458  35.913   3.771
14659W        W76322  38.870  28.023  11.516
14660W        W76323   4.845  12.212   4.200
14661W        W76324   4.933  36.053   1.769
14662W        W76325   7.785  23.040  13.409
14663W        W76326  32.020   4.301   1.906
14664W        W76327  16.161  25.085  14.008
14665W        W76328  17.672  42.891   3.195
14666W        W76329  22.630  37.432   5.197
14667W        W76330  23.105  34.084  12.057
14668W        W76331   1.466  22.586   4.215
14669W        W76332  43.875  36.526   4.201
14670W        W76333   1.744  26.150  14.802
14671W        W76334   8.757  18.220  10.502
14672W        W76335   6.708   0.797   4.618
14673W        W76336   9.710  40.954   2.309
14674W        W76337  20.047  30.927  13.374
14675W        W76338   9.865  11.307   1.229
14676W        W76339  41.004  14.258  12.436
14677W        W76340  28.059  26.639   1.324
14678W        W76341  14.699   4.429   3.763
14679W        W76342  42.879   0.347  10.924
14680W        W76343  11.770  18.069  14.317
14681W        W76344  11.740  36.472  12.859
14682W        W76345  29.666  29.520  12.855
14683W        W76346  17.170   3.422  13.418
14684W        W76347  36.383  15.235  13.053
14685W        W76348  40.973  27.106  13.341
14686W        W76349   3.868  37.446  14.765
14687W        W76350  35.410   5.706  11.120
14688W        W76351  22.222  32.040  11.963
14689W        W76352  19.558  21.692  14.873
14690W        W76353  14.136  31.595  14.409
14691W        W76354  12.272  43.462   4.255
14692W        W76355  11.268  23.114  11.602
14693W        W76356  39.389  27.609   4.735
14694W        W76357   6.246   4.851   0.753
14695W        W76358  37.889  21.260  13.835
14696W        W76359  36.470  36.042   2.858
14697W        W76360   4.852   2.348   2.878
14698W        W76361  31.495  19.574  13.936
14699W        W76362  42.912  26.085  10.622
14700W        W76363   2.275  43.802   2.772
14701W        W76364   8.300  44.009  12.460
14702W        W76365  31.575   2.956  14.893
14703W        W76366  16.757  34.875  14.781
14704W        W76367   5.254  19.039  11.440
14705W        W76368  11.278   0.484   2.268
14706W        W76369  12.350  32.079   3.237
14707W        W76370  43.444  32.533   1.408
14708W        W76371   4.882  44.442  10.903
14709W        W76372  29.163   5.875   2.824
14710W        W76373   7.340  37.021   0.249
14711W        W76374  34.001  19.246   0.384
14712W        W76375  31.900  28.030   0.469
14713W        W76376  18.735  11.755  14.378
14714W        W76377  31.587  38.494   0.284
14715W        W76378  41.349  11.178  11.070
14716W        W76379  40.333  42.413   2.761
14717W        W76380  38.409   3.244   0.326
14718W        W76381  36.921   4.827   3.631
14719W        W76382   6.871   7.753  11.882
14720W        W76383  32.489   9.255  10.917
14721W        W76384  15.240   7.296   2.192
14722W        W76385  35.063   0.956  14.808
14723W        W76386  15.761  10.167   5.162
14724W        W76387   1.822  16.130   2.210
14725W        W76388   6.683  22.594  13.424
14726W        W76389   2.832  28.592   1.325
14727W        W76390   8.264  22.242  11.881
14728W        W76391  15.330  40.041  14.339
14729W        W76392  30.609  30.600   0.466
14730W        W76393   6.315  22.103  13.388
14731W        W76394  41.444   1.310  12.446
14732W        W76395  39.488  21.709   0.824
14733W        W76396  41.821  38.966  13.821
14734W        W76397   5.261  27.159   1.902
14735W        W76398  21.635   9.847  12.963
14736W        W76399  25.135  29.051  12.065
14737W        W76400  42.909  12.170  11.041
14738W        W76401  34.079  15.757   1.895
14739W        W76402  12.136  38.494   2.248
14740W        W76403  26.970   2.360  11.555
14741W        W76404  32.010  21.069   1.865
14742W        W76405   4.450  23.195  14.987
14743W        W76406  40.895   4.711   2.688
14744W        W76407   9.314  42.374  14.964
14745W        W76408  42.378  23.511  11.561
14746W        W76409   6.327   1.843   4.710
14747W        W76410   4.784   3.392   1.329
14748W        W76411  11.864  16.786  10.566
14749W        W76412   7.884  36.468  12.033
14750W        W76413  34.042  10.714   2.846
14751W        W76414   4.362  34.044   1.858
14752W        W76415  43.951  42.424   2.691
14753W        W76416  19.611   3.847  12.064
14754W        W76417  15.111  35.070  11.921
14755W        W76418  38.871   5.833   4.314
14756W        W76419  29.925  19.138   9.989
14757W        W76420  33.956  10.190  14.308
14758W        W76421   7.416   2.936   1.822
14759W        W76422  39.017   8.789   2.859
14760W        W76423  13.329   9.679   3.220
14761W        W76424   6.366  30.009  11.059
14762W        W76425  17.170  38.451  10.602
14763W        W76426  30.529  23.034   9.603
14764W        W76427  30.414  20.575   4.140
14765W        W76428  23.101  23.091   3.765
14766W        W76429  28.516  31.564   3.274
14767W        W76430   1.761   5.427   1.773
14768W        W76431  33.407   9.362  13.510
14769W        W76432   0.854   9.813  12.912
14770W        W76433  39.472   2.449  14.516
14771W        W76434   2.896  10.360   1.708
14772W        W76435   6.363  40.022   3.709
14773W        W76436  27.957  25.527   1.700
14774W        W76437  32.052   7.253   2.193
14775W        W76438  28.950  33.947  14.874
14776W        W76439  24.981   2.913   1.220
14777W        W76440  11.728  10.743  11.486
14778W        W76441   0.439  12.740   5.271
14779W        W76442  26.548  20.191  10.504
14780W        W76443  30.600   2.735   4.796
14781W        W76444   5.764   5.785  13.907
14782W        W76445   3.246  35.442  11.068
14783W        W76446   6.888  35.092   2.891
14784W        W76447  22.564  17.621  14.391
14785W        W76448  27.486  27.018   1.718
14786W        W76449   0.952  44.261   4.352
14787W        W76450  32.980  18.584   4.838
14788W        W76451  32.040   2.833   2.783
14789W        W76452  14.217   1.285  10.513
14790W        W76453  44.416  39.517   4.662
14791W        W76454  31.152  25.218   3.689
14792W        W76455  14.311  21.048   3.223
14793W        W76456  44.377  15.147   2.346
14794W        W76457  29.031  21.055   2.313
14795W        W76458  16.300  33.431   0.756
14796W        W76459   9.284  15.204  10.969
14797W        W76460  27.678  13.800  10.558
14798W        W76461  40.040  10.332   1.764
14799W        W76462  30.106  33.036  13.333
14800W        W76463  36.861  29.980  11.995
14801W        W76464  41.965  30.492   0.820
14802W        W76465  14.237  23.524  14.498
14803W        W76466  11.735  17.557  10.410
14804W        W76467   3.229  42.368   0.441
14805W        W76468   7.721  14.184  11.009
14806W        W76469   3.797  36.909  12.476
14807W        W76470  28.012  23.501  14.515
14808W        W76471   4.843  26.600   2.730
14809W        W76472  19.537  43.480   0.313
14810W        W76473  30.048  33.596  10.447
14811W        W76474  21.155  44.903  10.901
14812W        W76475  24.097   4.785   4.220
14813W        W76476  34.438  42.909   4.264
14814W        W76477  23.699  43.499  10.930
14815W        W76478  12.179  13.217   3.255
14816W        W76479  39.428  30.536   1.821
14817W        W76480  16.262  25.139  10.929
14818W        W76481  39.526   8.264  11.055
14819W        W76482  25.124  39.497   4.148
14820W        W76483  25.665  43.350   0.265
14821W        W76484  35.598  39.956  10.533
14822W        W76485   2.787  12.149   3.378
14823W        W76486  41.805  18.613  10.492
14824W        W76487   8.403  11.169  13.849
14825W        W76488  38.437  18.736  13.847
14826W        W76489  27.092  28.073  12.970
14827W        W76490  26.168   5.858   2.822
14828W        W76491  24.663  12.796   2.891
14829W        W76492  38.405  20.627   2.348
14830W        W76493  22.680  24.697  10.925
14831W        W76494  19.266  12.829  11.041
14832W        W76495   5.761  15.092  12.072
14833W        W76496  26.100  11.844   0.742
14834W        W76497   8.186  40.826   3.751
14835W        W76498  36.389   2.886   2.190
14836W        W76499  33.522  15.764   3.764
14837W        W76500   5.231  38.845  10.142
14838W        W76501  28.173  12.136  12.957
14839W        W76502  15.265  37.933  14.317
14840W        W76503  16.583   7.333  11.545
14841W        W76504  31.093   9.332  10.486
14842W        W76505  24.530  25.121   1.797
14843W        W76506  15.175  28.003  14.904
14844W        W76507   9.181  29.001   2.877
14845W        W76508  44.804  19.713   2.726
14846W        W76509  44.335  10.702   4.137
14847W        W76510  10.254  38.330   2.330
14848W        W76511  23.546  25.510   3.829
14849W        W76512  32.602   1.444  11.950
14850W        W76513  13.159  43.501  11.034
14851W        W76514  11.675  14.651   4.202
14852W        W76515  12.238  44.421  11.954
14853W        W76516  32.539  12.176   4.697
14854W        W76517  18.662  22.505   3.170
14855W        W76518  25.487   1.288  10.975
14856W        W76519  39.913  39.929   4.615
14857W        W76520   5.210  23.643  13.930
14858W        W76521  11.353  41.984   2.229
14859W        W76522  10.704  37.890   2.186
14860W        W76523  18.196  20.706  10.941
14861W        W76524  28.552  17.136  14.940
14862W        W76525  14.602  12.669   0.342
14863W        W76526   6.902   5.231  12.462
14864W        W76527  10.362  17.718   3.864
14865W        W76528  11.660  12.147  13.408
14866W        W76529  41.905  19.232   0.886
14867W        W76530  14.731   2.835   2.711
14868W        W76531  23.684  27.985   2.258
14869W        W76532  12.667  31.613  12.942
14870W        W76533  21.574  11.179  14.025
14871W        W76534  16.643  15.229   3.738
14872W        W76535   8.363  18.126   4.227
14873W        W76536  29.621  33.503  10.024
14874W        W76537  25.043   3.900  12.029
14875W        W76538  34.039  38.022  12.837
14876W        W76539   8.715  17.705   2.753
14877W        W76540  12.355  31.582   4.626
14878W        W76541  20.708  32.483   2.245
14879W        W76542  40.363  25.054  12.826
14880W        W76543  21.113   5.397   1.758
14881W        W76544  28.034  25.537   3.789
14882W        W76545  38.000  41.517  11.030
14883W        W76546  25.613  36.908  11.867
14884W        W76547  21.742  38.420  13.825
14885W        W76548  42.460  27.645   1.341
14886W        W76549  35.369  15.601  12.367
14887W        W76550  20.039  32.564  13.853
14888W        W76551  31.513  12.174  14.306
14889W        W76552  13.247  39.891  11.873
14890W        W76553  44.357  44.467   0.835
14891W        W76554  41.931  10.735  11.939
14892W        W76555  22.524  29.067  14.355
14893W        W76556   6.897  30.067   0.851
14894W        W76557   8.660  32.917  11.554
14895W        W76558   4.339  41.487  12.941
14896W        W76559  15.589  33.010   0.912
14897W        W76560  29.132   4.314  14.381
14898W        W76561  10.180  20.217  12.028
14899W        W76562  25.151  40.872   3.265
14900W        W76563  36.049   9.395   4.211
14901W        W76564  36.886  25.118   3.183
14902W        W76565  41.412  43.876   0.810
14903W        W76566  42.967   1.342  12.086
14904W        W76567  25.532  20.238   1.815
14905W        W76568  19.119   9.704   4.263
14906W        W76569  15.287  15.633  13.375
14907W        W76570  28.574   2.806   2.673
14908W        W76571  40.872  33.465   1.919
14909W        W76572  12.357  37.000   2.800
14910W        W76573  26.464  37.462   2.360
14911W        W76574  39.922  20.733   1.746
14912W        W76575  24.634  41.872  14.394
14913W        W76576  17.081  32.525   3.226
14914W        W76577   2.294  32.922   3.636
14915W        W76578  13.138  13.172  13.485
14916W        W76579   1.457  38.018  12.081
14917W        W76580   4.860   5.397  13.995
14918W        W76581  10.186  24.513   1.788
14919W        W76582  36.349   8.797  11.964
14920W        W76583   9.762  39.877  14.946
14921W        W76584   9.393  33.500   4.763
14922W        W76585  35.062  12.820   2.798
14923W        W76586  29.541  35.598  13.841
14924W        W76587   1.335  25.219   0.320
14925W        W76588  11.754   2.441   2.312
14926W        W76589   2.342   4.838  10.449
14927W        W76590  41.472  26.675  12.521
14928W        W76591  17.247  44.969   4.661
14929W        W76592  11.271   6.718   3.297
14930W        W76593  24.049   7.910  14.452
14931W        W76594  10.824  24.589  14.835
14932W        W76595  38.371  36.379  11.013
14933W        W76596  33.037  43.404   2.706
14934W        W76597   1.253  28.458   2.824
14935W        W76598  19.675  22.592   2.776
14936W        W76599  34.446  23.508   1.731
14937W        W76600   0.838  19.615  11.867
14938W        W76601  18.187  23.597   4.148
14939W        W76602  38.062   2.402   2.749
14940W        W76603  35.978  38.071  13.006
14941W        W76604  21.692  20.150   2.746
14942W        W76605  26.060  14.757  12.896
14943W        W76606  19.256  20.727  11.890
14944W        W76607   1.307  39.891   0.299
14945W        W76608  20.075  44.932   3.291
14946W        W76609  15.820   8.668   3.689
14947W        W76610  36.527  16.631   3.281
14948W        W76611  11.156  40.533   1.309
14949W        W76612  16.159   0.453  12.915
14950W        W76613  34.532  28.500  12.853
14951W        W76614  41.898  12.825   1.386
14952W        W76615   3.817  39.480  14.281
14953W        W76616  11.225  22.508   4.800
14954W        W76617   6.423  42.494   4.730
14955W        W76618  21.148  15.207   0.959
14956W        W76619  33.969   8.751  14.861
14957W        W76620  43.288  10.740   4.306
14958W        W76621  31.478  17.084  12.978
14959W        W76622  16.186   3.711   0.796
14960W        W76623  22.187   1.382  14.395
14961W        W76624  36.092  34.576   1.884
14962W        W76625   5.693  24.105  13.825
14963W        W76626   9.649  19.096  14.485
14964W        W76627  20.551  41.985  12.953
14965W        W76628  42.793   6.862   0.892
14966W        W76629   3.285  17.599  10.947
14967W        W76630  32.951   3.928   0.837
14968W        W76631   3.359  14.674   2.183
14969W        W76632  30.149   0.428   4.599
14970W        W76633  38.824  14.812  11.110
14971W        W76634  40.340  32.992   2.370
14972W        W76635  29.573  39.486   2.382
14973W        W76636   2.454  33.048   4.758
14974W        W76637   5.232  44.799   1.883
14975W        W76638  11.203  40.028   1.698
14976W        W76639  40.336  19.563  10.422
14977W        W76640  42.001   4.925  12.998
14978W        W76641  13.216  14.783  12.394
14979W        W76642  33.617   5.413  11.574
14980W        W76643  12.671  15.125  13.324
14981W        W76644  16.783  35.596   2.801
14982W        W76645   8.806  11.732   0.958
14983W        W76646  44.436  17.557  12.449
14984W        W76647  30.078   6.844   3.751
14985W        W76648   7.191  37.517  14.454
14986W        W76649   5.753   5.854  12.527
14987W        W76650  11.737  13.291  11.870
14988W        W76651  20.578  10.202   2.318
14989W        W76652   5.770  36.567   2.402
14990W        W76653  26.124  42.810   1.871
14991W        W76654  30.939  12.179  11.120
14992W        W76655  14.623  38.840   9.608
14993W        W76656  25.132  34.429  14.395
14994W        W76657  35.083  16.615  12.488
14995W        W76658   1.349  22.565  10.498
14996W        W76659  26.670   2.781   3.356
14997W        W76660  32.453  29.105  12.463
14998W        W76661  42.983  11.267  10.933
14999W        W76662  24.636  43.460   3.261
15000W        W76663  17.261  19.592   2.835
15001W        W76664  42.477   1.471   4.621
15002W        W76665   1.368  26.637  12.553
15003W        W76666  16.780  43.951  13.512
15004W        W76667   1.828  10.857  13.910
15005W        W76668  39.863  10.749  12.008
15006W        W76669  33.902   7.413  13.310
15007W        W76670  32.956   7.716   4.789
15008W        W76671  17.141  40.950   3.870
15009W        W76672  29.585   0.867   1.378
15010W        W76673   8.851  34.108  14.777
15011W        W76674  24.092  38.844  13.397
15012W        W76675  20.060  25.079   2.828
15013W        W76676  16.161  12.150  13.328
15014W        W76677  13.345  26.122  14.859
15015W        W76678  41.368  23.511   3.707
15016W        W76679  11.862  24.090   0.798
15017W        W76680  44.372  18.677  12.531
15018W        W76681  32.017  28.073  14.846
15019W        W76682  39.951   0.982  12.483
15020W        W76683   3.234  25.977  14.867
15021W        W76684  44.862  31.007  13.317
15022W        W76685  38.832  44.788   4.119
15023W        W76686  40.515  21.027   5.116
15024W        W76687  16.689  44.278  12.906
15025W        W76688   5.371  13.758   3.756
15026W        W76689   0.755  13.790   2.256
15027W        W76690  40.360  28.648  12.921
15028W        W76691  31.602  30.637  12.071
15029W        W76692  20.708  37.008  13.347
15030W        W76693  42.957  44.918   1.816
15031W        W76694   5.393  21.558   2.750
15032W        W76695   4.388  44.757   4.615
15033W        W76696   9.791   0.273   1.738
15034W        W76697  39.882  26.500  14.391
15035W        W76698   6.251  17.679  10.463
15036W        W76699  42.445  24.174  14.516
15037W        W76700  31.056  17.802  14.509
15038W        W76701  17.704  39.519   1.821
15039W        W76702  22.206  35.572   0.816
15040W        W76703  34.980  32.416  12.345
15041W        W76704  15.128  18.696  14.766
15042W        W76705  20.670   7.267  14.965
15043W        W76706  22.208  31.046  14.470
15044W        W76707  40.923   9.196  10.464
15045W        W76708  31.539  17.704  11.464
15046W        W76709  17.602  12.818   4.278
15047W        W76710  20.662  21.206   3.665
15048W        W76711   8.173  39.335  11.000
15049W        W76712  20.643   6.339  14.830
15050W        W76713  31.963  11.166   4.337
15051W        W76714  17.720  35.590   0.868
15052W        W76715   4.398  11.847   1.896
15053W        W76716  34.015  25.002   1.825
15054W        W76717  42.453  26.537   2.685
15055W        W76718  36.974  41.011   3.665
15056W        W76719   9.797  13.806  10.992
15057W        W76720  34.919   4.405  14.358
15058W        W76721  28.443  14.235  14.001
15059W        W76722  36.509  31.064  13.544
15060W        W76723   9.843  15.189   0.279
15061W        W76724  42.830   5.318  14.884
15062W        W76725  16.252   8.787   4.719
15063W        W76726  19.758  24.211  13.434
15064W        W76727  31.131  21.706  10.161
15065W        W76728  41.972  17.284  10.471
15066W        W76729   6.302  25.652  13.343
15067W        W76730  11.259   4.301   1.427
15068W        W76731  25.613  28.997   1.431
15069W        W76732   3.240   9.695   4.772
15070W        W76733  38.933  42.869   0.368
15071W        W76734  12.648  11.318  14.485
15072W        W76735  16.196  33.599   9.981
15073W        W76736  12.727  13.651   2.887
15074W        W76737  42.776   7.382  11.425
15075W        W76738  27.965  32.927  12.000
15076W        W76739   2.845  40.341   1.308
15077W        W76740  17.295  21.172  13.992
15078W        W76741   1.935  29.941   2.360
15079W        W76742  21.151  13.683  13.449
15080W        W76743  42.438  12.612   1.253
15081W        W76744   4.923  28.589  13.827
15082W        W76745  42.500  37.425  11.584
15083W        W76746  21.078  16.670  10.516
15084W        W76747  25.524  25.629  13.817
15085W        W76748  15.747  19.145  12.343
15086W        W76749  24.684  17.657  12.367
15087W        W76750  39.371  20.147  13.951
15088W        W76751  43.836  44.477   3.768
15089W        W76752   7.196  38.423   0.279
15090W        W76753  29.667   4.287   3.840
15091W        W76754  36.046  35.936  13.349
15092W        W76755   0.903  35.363  12.368
15093W        W76756  29.022  32.633   0.474
15094W        W76757  13.273  27.622  11.599
15095W        W76758  23.579   9.855   2.381
15096W        W76759  12.770  36.375  13.998
15097W        W76760  27.515  21.702   2.306
15098W        W76761  19.061  15.124  12.938
15099W        W76762  22.213  32.129   3.765
15100W        W76763  31.030  10.718  13.914
15101W        W76764  40.838  27.461  11.426
15102W        W76765  40.042  17.776  13.393
15103W        W76766  41.800  23.129   0.760
15104W        W76767   4.238   4.892   4.641
15105W        W76768  11.215  26.177  14.320
15106W        W76769   6.213  38.391  14.413
15107W        W76770  34.926  37.500   1.868
15108W        W76771   3.925  34.575   4.225
15109W        W76772   6.923   3.294  12.405
15110W        W76773  35.069  36.967   4.641
15111W        W76774  30.561   1.271  12.890
15112W        W76775  24.625   0.250   0.910
15113W        W76776  14.767  28.553  13.014
15114W        W76777   4.926   4.913   3.149
15115W        W76778   1.895  37.452   2.389
15116W        W76779   5.785  15.628   4.739
15117W        W76780  13.163  20.766  14.372
15118W        W76781  40.921  41.932  12.897
15119W        W76782  18.675   5.282   0.245
15120W        W76783  31.574   1.441   0.403
15121W        W76784  40.472  15.123  11.040
15122W        W76785  40.804  17.624   1.223
15123W        W76786  21.673  32.400   1.845
15124W        W76787  43.805  29.980   4.131
15125W        W76788  22.009  40.530   3.165
15126W        W76789  10.269  19.630   1.931
15127W        W76790   2.793  41.861   3.687
15128W        W76791  12.177  41.921  13.310
15129W        W76792  19.572  22.113   1.735
15130W        W76793  26.193  29.934   2.355
15131W        W76794  16.808  36.084   0.243
15132W        W76795  25.991  28.000   3.176
15133W        W76796  16.308  25.079   1.702
15134W        W76797  13.180  44.913   2.206
15135W        W76798  13.263  40.311  14.913
15136W        W76799  15.313  26.457  12.863
15137W        W76800  17.276   5.226   4.745
15138W        W76801  21.535  31.581   1.447
15139W        W76802  19.040   5.317   1.357
15140W        W76803  17.640  20.111  14.302
15141W        W76804  32.425  39.986   3.377
15142W        W76805  39.521   7.363  13.049
15143W        W76806  31.944   8.691   1.292
15144W        W76807  43.387   5.829  13.389
15145W        W76808   4.368  15.739   3.736
15146W        W76809   4.294  28.517   0.331
15147W        W76810  35.553  23.089   1.695
15148W        W76811  17.127  38.547  12.553
15149W        W76812  23.998   5.325   1.249
15150W        W76813  22.668  12.293  14.946
15151W        W76814  14.306  43.790   4.603
15152W        W76815  27.600  23.211   1.933
15153W        W76816  42.465   3.449  10.927
15154W        W76817  25.125  41.337   1.861
15155W        W76818  43.892  19.127  13.310
15156W        W76819  43.859  23.610   3.710
15157W        W76820  20.066  16.746  13.061
15158W        W76821  35.427  29.539  11.048
15159W        W76822  10.775  20.196   2.805
15160W        W76823  30.656  24.554  12.838
15161W        W76824   4.211  27.131  13.472
15162W        W76825   8.752  27.613  14.511
15163W        W76826  13.308   8.250   0.959
15164W        W76827  27.567  14.272  13.357
15165W        W76828  43.306  43.904  10.946
15166W        W76829  23.727  39.001  10.450
15167W        W76830  40.864  33.613   4.676
15168W        W76831  34.430  32.961   1.408
15169W        W76832  31.005  14.308  12.020
15170W        W76833  27.452   0.937  10.905
15171W        W76834  33.931  10.875  11.397
15172W        W76835  18.074  18.608   5.119
15173W        W76836  20.736  29.939  12.400
15174W        W76837  21.094  41.447   2.183
15175W        W76838  34.408  13.610  12.010
15176W        W76839  32.046  12.240   4.708
15177W        W76840  42.945  16.151   3.636
15178W        W76841  41.450  16.762  13.525
15179W        W76842  17.275  17.660  12.985
15180W        W76843  30.503  20.045  10.049
15181W        W76844  11.276  33.602  12.897
15182W        W76845  24.995  33.034  12.842
15183W        W76846  37.490  20.215  13.891
15184W        W76847  42.392  24.998  10.933
15185W        W76848  42.855  40.825   1.818
15186W        W76849  18.272   5.361   2.742
15187W        W76850  24.556   4.378  11.940
15188W        W76851   6.808  30.570   4.717
15189W        W76852  16.183  40.533  13.353
15190W        W76853   3.335   3.224  11.593
15191W        W76854   2.438  20.063   3.799
15192W        W76855  42.786  44.372  10.992
15193W        W76856  29.505  26.546   5.232
15194W        W76857  42.985  32.076  11.463
15195W        W76858  33.983  19.190   3.166
15196W        W76859  11.203   2.753  10.915
15197W        W76860  20.253   4.699  11.535
15198W        W76861  22.235   9.305  14.311
15199W        W76862  12.800  44.998   2.858
15200W        W76863  35.587   9.157   2.689
15201W        W76864  31.027  14.608   3.780
15202W        W76865  12.844  13.805  11.528
15203W        W76866  26.530  11.812  11.445
15204W        W76867  37.883  39.524  10.999
15205W        W76868  10.328  18.233  14.820
15206W        W76869   9.824  38.362   2.200
15207W        W76870  41.348   9.671  13.394
15208W        W76871  30.629  39.377  14.497
15209W        W76872  44.383  37.536  13.477
15210W        W76873  40.801  42.300  13.038
15211W        W76874  30.948  43.407  11.451
15212W        W76875  16.656   8.397  14.997
15213W        W76876  32.990  13.782  12.963
15214W        W76877  41.355  42.287  12.388
15215W        W76878  40.989   1.783  14.348
15216W        W76879  21.734  20.534   4.663
15217W        W76880  22.102   6.315   4.645
15218W        W76881   5.913  36.869  14.401
15219W        W76882  26.128  29.136  14.847
15220W        W76883   9.715  40.956   0.365
15221W        W76884  28.495  38.363   0.331
15222W        W76885   8.259  16.740  13.024
15223W        W76886  19.695  39.526  11.608
15224W        W76887  40.933   8.806  13.417
15225W        W76888  29.998  16.084  14.312
15226W        W76889   5.864  42.494  12.880
15227W        W76890  31.496  27.619  11.599
15228W        W76891  33.398  29.424   3.850
15229W        W76892  25.699   6.764   3.735
15230W        W76893  36.013  14.119   2.255
15231W        W76894  25.197   4.414   4.809
15232W        W76895  19.622  21.645   3.718
15233W        W76896  29.492  12.344  12.032
15234W        W76897  38.431   8.200   4.697
15235W        W76898  39.935   2.804   4.833
15236W        W76899  32.105  15.309  13.445
15237W        W76900  18.579  13.757   9.928
15238W        W76901  24.149  14.699  12.356
15239W        W76902  41.350  30.604   4.351
15240W        W76903  36.557   6.261   4.616
15241W        W76904  23.996  38.327  14.995
15242W        W76905  39.929  21.236   4.618
15243W        W76906  15.262   7.392   2.829
15244W        W76907   3.763  41.431  11.013
15245W        W76908  18.741  41.506   2.726
15246W        W76909  29.955   9.849  11.894
15247W        W76910  42.502  10.724   2.861
15248W        W76911  18.209  15.223   0.329
15249W        W76912  28.168   9.777   1.766
15250W        W76913  16.612  42.485   3.631
15251W        W76914  10.296   1.440   3.262
15252W        W76915  34.522  28.454  13.868
15253W        W76916   8.668  44.852   0.282
15254W        W76917  30.162  39.433   2.368
15255W        W76918  26.613  29.013  14.857
15256W        W76919  34.517  31.916  11.044
15257W        W76920  15.699  16.312   1.817
15258W        W76921  31.591  24.098  13.040
15259W        W76922  36.087  28.134  13.433
15260W        W76923  32.024   9.832   3.323
15261W        W76924  11.735  37.931  12.521
15262W        W76925   8.361  14.829   3.639
15263W        W76926  37.574  31.140  12.994
15264W        W76927  35.470  28.589  12.543
15265W        W76928  23.503  43.903  12.367
15266W        W76929  27.055  36.955   0.896
15267W        W76930  40.412  22.207  11.547
15268W        W76931   7.298   2.931   2.722
15269W        W76932   2.815  36.525   2.829
15270W        W76933  14.756  38.343   2.665
15271W        W76934  30.476  31.094   4.320
15272W        W76935  14.754  37.894   5.643
15273W        W76936  41.798  16.639  13.467
15274W        W76937  22.708  41.402  14.444
15275W        W76938  10.745  33.110   3.815
15276W        W76939  23.667  41.832  12.501
15277W        W76940  37.449  30.432  10.592
15278W        W76941  19.611  39.023  11.971
15279W        W76942  33.600  10.715   1.422
15280W        W76943  42.366   5.216   1.701
15281W        W76944   4.297  15.262   2.178
15282W        W76945  32.608  32.561  12.509
15283W        W76946  38.047   8.746   3.685
15284W        W76947  30.575  22.672  11.476
15285W        W76948  19.046  29.934  12.893
15286W        W76949   6.408  42.920   2.380
15287W        W76950  22.999  18.056   4.312
15288W        W76951  42.334  19.554  13.370
15289W        W76952   5.261  44.856  13.412
15290W        W76953  13.284  31.957  12.087
15291W        W76954  26.661  18.097   3.294
15292W        W76955  17.206  17.798   1.390
15293W        W76956  25.661  39.064  13.909
15294W        W76957  33.015  10.321   0.262
15295W        W76958  38.353  29.082   4.688
15296W        W76959  32.899  18.755   3.181
15297W        W76960  11.134  31.065   0.944
15298W        W76961  30.925  24.994  10.106
15299W        W76962   2.243   7.392  11.499
15300W        W76963   8.247  13.669   2.826
15301W        W76964  36.467   2.434   3.777
15302W        W76965   7.717   4.207  13.367
15303W        W76966  12.631  35.492  13.447
15304W        W76967  19.733   6.367  14.296
15305W        W76968  12.717  43.868  14.350
15306W        W76969  31.532  41.813  10.581
15307W        W76970   4.251  20.230  14.894
15308W        W76971   4.351  42.991   1.923
15309W        W76972  13.765  41.321   4.289
15310W        W76973  13.772   3.410  12.405
15311W        W76974  26.626  12.824   9.976
15312W        W76975  22.680   9.883   0.891
15313W        W76976   2.230  14.283   0.418
15314W        W76977   9.236  10.355   1.232
15315W        W76978  36.582  38.550  14.376
15316W        W76979  33.911   8.231  12.571
15317W        W76980   8.746  21.540  11.040
15318W        W76981  43.390  38.348   4.791
15319W        W76982   1.940  13.835   2.299
15320W        W76983   8.202  41.993   1.733
15321W        W76984  16.733   1.882  14.939
15322W        W76985  15.097  36.408   0.406
15323W        W76986   5.911  43.456   3.814
15324W        W76987  24.212   3.796   1.415
15325W        W76988  20.247  20.747  11.933
15326W        W76989  24.021   0.404   0.819
15327W        W76990   8.838  14.737  14.275
15328W        W76991  16.293  11.146  11.933
15329W        W76992   7.765  38.819   1.349
15330W        W76993  20.096  32.068  12.993
15331W        W76994   6.233  24.606  11.929
15332W        W76995  33.535  25.965  12.828
15333W        W76996   7.289  31.907  10.414
15334W        W76997   1.244  42.450   4.254
15335W        W76998  15.812  34.934  13.873
15336W        W76999  21.644  41.854   4.667
15337W        W77000  22.071  35.577   3.262
15338W        W77001  15.720  17.801  10.043
15339W        W77002  17.593  13.236  14.817
15340W        W77003  32.619   2.844  13.952
15341W        W77004  40.801  40.853   4.186
15342W        W77005  43.840  16.245   1.926
15343W        W77006  40.346  28.177   0.390
15344W        W77007  40.808  17.663  13.933
15345W        W77008  41.386   9.385  12.072
15346W        W77009  26.037  17.801  13.792
15347W        W77010  22.059  21.249   2.196
15348W        W77011  20.560  40.452   4.119
15349W        W77012   3.760  22.190   0.782
15350W        W77013   3.856   2.457  13.308
15351W        W77014  39.464   5.787  10.978
15352W        W77015   9.279  10.173  11.525
15353W        W77016   3.892  35.545   1.871
15354W        W77017  33.413   4.844   1.701
15355W        W77018  26.031  23.186  11.023
15356W        W77019  31.477  23.196   0.795
15357W        W77020   6.319  20.230   3.182
15358W        W77021   5.931  43.924   3.652
15359W        W77022   6.682  37.525  11.595
15360W        W77023  30.979   1.863  12.074
15361W        W77024  40.359  38.001  11.043
15362W        W77025  16.184  19.067   4.683
15363W        W77026  10.327  19.545   4.153
15364W        W77027   0.409   7.357   0.918
15365W        W77028  27.180  43.276   3.321
15366W        W77029  20.176  43.384  14.949
15367W        W77030  28.041  39.977   4.670
15368W        W77031  27.546  34.387   1.429
15369W        W77032  17.130  34.088  10.443
15370W        W77033  27.658  20.028   4.783
15371W        W77034  21.636  36.015  13.965
15372W        W77035   9.831   1.412   2.297
15373W        W77036  37.365  17.212  13.975
15374W        W77037  30.659  21.639   2.358
15375W        W77038  15.184  10.672  13.916
15376W        W77039  31.402  12.850  12.449
15377W        W77040   4.239   5.898  14.874
15378W        W77041  31.491  21.135   2.712
15379W        W77042  31.625  31.987   0.948
15380W        W77043  22.144  31.943  10.978
15381W        W77044  30.011  36.378   0.380
15382W        W77045   1.878  42.998  14.766
15383W        W77046   5.905   9.859   1.913
15384W        W77047  28.123  40.931  12.987
15385W        W77048  31.022  43.481   1.870
15386W        W77049  37.932  40.457   2.198
15387W        W77050  24.480   2.741   0.811
15388W        W77051   3.282  25.526   0.330
15389W        W77052  35.059   9.692   4.178
15390W        W77053   0.812   6.896  13.362
15391W        W77054   8.227  31.610   4.280
15392W        W77055  28.132  19.284   3.151
15393W        W77056   6.209  29.498   3.219
15394W        W77057  11.157  43.968  11.916
15395W        W77058  25.692  14.648  13.363
15396W        W77059  12.735   6.745   4.232
15397W        W77060  33.452   2.234   2.371
15398W        W77061  38.375  19.676   2.234
15399W        W77062  14.663  16.249   1.278
15400W        W77063  44.825  25.645   0.476
15401W        W77064   8.801  12.173  11.600
15402W        W77065   9.156  29.508   1.230
15403W        W77066  30.127  15.139   4.162
15404W        W77067  27.646  43.834   4.160
15405W        W77068  15.732  11.187   9.981
15406W        W77069   3.864   2.866  14.403
15407W        W77070   0.879  11.283  10.133
15408W        W77071  33.098   6.230   9.576
15409W        W77072  42.304  29.550   3.329
15410W        W77073  44.855  41.889  14.002
15411W        W77074  42.009   2.281   2.295
15412W        W77075   1.315  28.604   3.158
15413W        W77076  40.861   6.408  13.995
15414W        W77077  26.991  34.891   3.333
15415W        W77078  22.686  44.950   3.279
15416W        W77079   5.923   0.792  11.950
15417W        W77080   9.367  11.143   1.220
15418W        W77081  36.942  44.353   4.644
15419W        W77082  21.557  16.743   0.430
15420W        W77083  44.300   9.792  14.025
15421W        W77084  35.529  12.854  13.534
15422W        W77085  25.603  23.994   4.790
15423W        W77086  42.433  20.648   2.303
15424W        W77087   1.280   7.409   3.821
15425W        W77088  41.863  15.182   9.981
15426W        W77089  14.316  16.177   0.345
15427W        W77090  39.880  14.824   4.704
15428W        W77091  39.368  30.624  11.943
15429W        W77092   4.405  32.483   2.749
15430W        W77093  34.455   0.949   3.648
15431W        W77094  36.457   2.472   2.234
15432W        W77095  37.532   8.771  14.333
15433W        W77096  15.701  30.036   4.601
15434W        W77097  18.278  28.594   2.216
15435W        W77098  43.888   0.976  11.473
15436W        W77099   6.394  41.841  14.832
15437W        W77100  35.392   2.415  10.542
15438W        W77101  12.713  36.424   1.718
15439W        W77102  27.542  24.109   1.922
15440W        W77103   3.255  34.584   1.388
15441W        W77104  27.498   7.873  12.466
15442W        W77105  18.264  44.390   2.725
15443W        W77106  19.663  18.617  12.398
15444W        W77107  22.249   7.746   1.928
15445W        W77108  34.985  14.668   1.731
15446W        W77109  30.995  31.470  13.314
15447W        W77110  41.881  20.620   1.756
15448W        W77111  25.526  30.514   1.413
15449W        W77112  28.445  29.933   4.796
15450W        W77113  38.841  14.775  12.869
15451W        W77114   0.336  28.605   4.755
15452W        W77115  43.875   3.935   4.128
15453W        W77116  25.476   5.299  13.447
15454W        W77117  24.656  44.389   3.829
15455W        W77118  17.706  33.056   2.878
15456W        W77119  12.839  43.319   3.700
15457W        W77120  25.028   3.816   4.250
15458W        W77121  27.186  33.070  12.425
15459W        W77122  37.983  22.164  13.307
15460W        W77123  42.881  42.962  14.356
15461W        W77124  43.851  15.586   0.892
15462W        W77125  39.063  39.553   4.717
15463W        W77126  33.523   5.890  13.313
15464W        W77127  34.398  18.157  10.989
15465W        W77128  28.991  28.531   1.779
15466W        W77129   7.353  31.931   1.273
15467W        W77130  43.458  29.985   3.750
15468W        W77131   2.899  23.567   2.294
15469W        W77132  38.040  30.034  14.955
15470W        W77133  33.404  44.324   1.427
15471W        W77134  39.379  25.678   3.260
15472W        W77135  17.676  31.006   1.414
15473W        W77136   5.739   7.855  12.577
15474W        W77137  25.564   6.873  11.497
15475W        W77138   1.365  35.491   1.881
15476W        W77139  10.732  27.017   3.383
15477W        W77140  28.169   6.243   1.709
15478W        W77141  28.635  26.592   1.798
15479W        W77142  30.437  37.550   4.180
15480W        W77143  20.199  39.445  13.534
15481W        W77144  44.888  17.576   4.213
15482W        W77145  30.415  28.110   2.709
15483W        W77146  29.942  34.058  13.856
15484W        W77147  24.535  22.683   0.358
15485W        W77148  33.046  24.010   1.901
15486W        W77149  42.456  37.884   0.822
15487W        W77150   8.183  27.197   3.676
15488W        W77151  38.547  24.642   0.398
15489W        W77152  37.890  27.636   2.359
15490W        W77153  36.349   5.421  12.045
15491W        W77154  11.259   2.398   0.297
15492W        W77155  43.337  26.661   1.274
15493W        W77156  27.021   5.386   3.662
15494W        W77157  29.507  37.516   2.761
15495W        W77158  32.992  27.963   3.208
15496W        W77159  16.681   3.359   0.793
15497W        W77160  19.698  38.899  12.564
15498W        W77161  18.128  25.704  14.022
15499W        W77162  33.390  25.144  12.895
15500W        W77163  28.111  21.694  10.623
15501W        W77164  24.119  12.133  12.362
15502W        W77165  25.979  39.507   4.201
15503W        W77166  21.605  31.043   3.344
15504W        W77167  40.332  21.708  12.355
15505W        W77168  39.330  13.794   0.761
15506W        W77169  11.270   1.460  13.931
15507W        W77170  13.299  35.447   4.610
15508W        W77171  25.620  18.260  10.899
15509W        W77172  10.305  22.656   3.155
15510W        W77173   1.408  30.144  10.533
15511W        W77174  30.634  21.575   4.760
15512W        W77175  16.172  20.249   3.774
15513W        W77176  31.543   2.249  11.877
15514W        W77177  20.111  27.562  14.473
15515W        W77178  23.128   4.834   3.836
15516W        W77179   9.395  36.940   2.406
15517W        W77180  19.558  30.958   3.716
15518W        W77181  14.177  22.514   3.161
15519W        W77182  24.572  27.064  10.100
15520W        W77183  35.477  23.106   0.940
15521W        W77184   7.290  13.279  11.612
15522W        W77185  43.506  16.705   9.602
15523W        W77186  35.429  17.565   1.333
15524W        W77187  44.905  16.280  11.045
15525W        W77188  10.786   9.254   5.319
15526W        W77189  19.276  28.986   3.329
15527W        W77190  12.255   3.940   2.380
15528W        W77191  41.328  13.661   3.840
15529W        W77192   7.411   6.718  12.470
15530W        W77193   5.692  29.555   3.677
15531W        W77194   7.688  34.556   2.348
15532W        W77195   4.352  16.232  11.043
15533W        W77196  12.147  29.943   3.674
15534W        W77197  11.721  16.752   4.207
15535W        W77198   0.455   2.439  12.493
15536W        W77199  43.943  15.242   0.789
15537W        W77200  18.088   7.869   3.635
15538W        W77201  21.226  14.127   2.791
15539W        W77202  40.401  24.479  10.531
15540W        W77203  10.150   8.721  13.035
15541W        W77204   1.436  43.781   0.876
15542W        W77205  10.845  43.789   4.284
15543W        W77206  39.336  24.697  12.429
15544W        W77207  26.675   3.356  14.899
15545W        W77208  34.933   4.924  12.832
15546W        W77209   0.893  28.995  14.407
15547W        W77210   4.277  20.106  12.900
15548W        W77211   2.881   9.662  12.993
15549W        W77212  35.877  19.258  12.888
15550W        W77213  21.731  35.385   0.277
15551W        W77214  30.011  26.976  11.083
15552W        W77215  36.855   4.383  13.032
15553W        W77216   0.434   4.258   0.302
15554W        W77217  26.954  34.374  12.883
15555W        W77218   7.885  15.292  12.424
15556W        W77219  31.932   3.356   4.774
15557W        W77220  13.161  20.071  14.295
15558W        W77221  29.482  43.473  14.866
15559W        W77222  17.560  37.516  14.474
15560W        W77223  12.345  31.483  13.028
15561W        W77224  12.770  35.409   0.787
15562W        W77225  31.929  39.928  11.563
15563W        W77226  25.211  36.357  13.441
15564W        W77227  17.652  37.457  12.358
15565W        W77228  13.231  25.556   3.178
15566W        W77229   6.344  15.794   2.753
15567W        W77230   7.783  15.183  11.504
15568W        W77231  29.976  41.958  10.412
15569W        W77232  39.981  17.706   3.246
15570W        W77233  25.099   4.244  11.410
15571W        W77234  23.720  35.439  12.068
15572W        W77235   9.203   1.314   0.342
15573W        W77236  24.986   0.758  14.452
15574W        W77237  29.950  34.038  10.942
15575W        W77238   3.766  30.593   0.326
15576W        W77239  43.943  12.808  10.486
15577W        W77240  35.538  22.046  12.823
15578W        W77241   6.365  41.954   1.394
15579W        W77242  22.069  11.165  13.828
15580W        W77243  26.144  10.290  10.040
15581W        W77244  26.117  20.134  13.910
15582W        W77245   2.468  19.189  14.458
15583W        W77246  40.448  17.077  11.001
15584W        W77247  33.947  11.816   4.285
15585W        W77248  42.834  28.631  10.518
15586W        W77249  29.436  25.100  13.487
15587W        W77250  17.682  18.089  11.980
15588W        W77251  12.160  19.071   3.254
15589W        W77252  13.271  21.520   0.399
15590W        W77253  23.553  17.224   4.777
15591W        W77254  39.430   8.783   3.729
15592W        W77255  27.524  32.989  10.630
15593W        W77256  12.201  40.902  11.427
15594W        W77257   5.810  16.777  10.924
15595W        W77258  12.268  41.314  10.931
15596W        W77259  27.122  38.374  10.590
15597W        W77260  10.780   1.782  14.028
15598W        W77261   3.759  27.982   1.764
15599W        W77262  20.692   1.405  11.026
15600W        W77263  43.944   9.323  12.446
15601W        W77264  10.204  34.065  14.286
15602W        W77265  25.040  33.005  11.508
15603W        W77266  12.814  23.678  12.467
15604W        W77267  22.585  10.659  11.027
15605W        W77268  12.117   7.694   1.363
15606W        W77269   9.281  39.842   2.233
15607W        W77270   0.266  23.646  11.864
15608W        W77271  10.846  18.261   3.200
15609W        W77272  10.849  16.588  12.467
15610W        W77273  26.965  17.178   2.305
15611W        W77274   2.279  31.991   3.662
15612W        W77275   5.736  44.757  10.555
15613W        W77276  33.943   5.353  11.568
15614W        W77277  30.441  30.538   0.945
15615W        W77278  33.445  41.419   0.936
15616W        W77279  36.408  26.650  12.986
15617W        W77280  44.381  27.522  14.799
15618W        W77281  19.639  15.772  12.448
15619W        W77282   7.791  37.458  10.088
15620W        W77283  11.709  10.873   4.338
15621W        W77284   3.920  39.880   2.890
15622W        W77285  36.482  41.017   2.224
15623W        W77286  11.672  21.060   0.737
15624W        W77287  26.642  27.128   4.667
15625W        W77288  20.584  16.629  10.583
15626W        W77289  43.956  44.430  10.632
15627W        W77290   2.385   1.414   0.338
15628W        W77291  27.183   1.824   1.841
15629W        W77292  39.851  35.879  14.829
15630W        W77293  44.821  40.544  11.445
15631W        W77294  19.585  24.134  10.584
15632W        W77295  21.227  26.558  14.916
15633W        W77296  27.575   5.879   2.879
15634W        W77297  33.522   5.344  14.994
15635W        W77298  43.404   5.715  11.418
15636W        W77299  39.488   3.335   0.780
15637W        W77300   6.208  15.140   0.839
15638W        W77301  33.488   8.711  12.872
15639W        W77302  20.094  26.576  14.001
15640W        W77303  10.656   6.888   4.190
15641W        W77304   7.766  31.429   0.397
15642W        W77305   5.802  31.495   4.159
15643W        W77306  23.140   2.418  11.486
15644W        W77307  40.033   3.247   0.763
15645W        W77308   9.695  39.476  12.012
15646W        W77309  33.047   2.419  13.479
15647W        W77310  33.122  17.663  12.381
15648W        W77311  22.090   9.850   2.409
15649W        W77312  22.169  26.098   4.748
15650W        W77313   6.231  36.030   3.799
15651W        W77314   8.770   0.330  11.589
15652W        W77315   2.937  43.964  13.450
15653W        W77316  21.639  43.390  11.444
15654W        W77317  33.532  44.885  12.083
15655W        W77318  24.029  33.470  10.118
15656W        W77319  36.952  21.175   4.116
15657W        W77320  36.560  34.967  13.426
15658W        W77321  21.721  17.213   0.889
15659W        W77322  26.125  28.490   4.810
15660W        W77323  41.955   1.299  12.545
15661W        W77324   8.365  23.709   4.143
15662W        W77325  14.598  19.588   2.240
15663W        W77326  32.419  31.618   0.302
15664W        W77327  15.089   9.260  12.952
15665W        W77328  20.534  19.162   3.252
15666W        W77329  37.049   4.280  10.412
15667W        W77330   7.300  20.271  12.461
15668W        W77331  39.446  33.908  11.567
15669W        W77332  14.734  22.689  12.492
15670W        W77333  19.718  28.552  10.917
15671W        W77334  22.644  27.149  14.891
15672W        W77335  37.353  11.160  14.980
15673W        W77336  37.402  28.590  12.988
15674W        W77337   4.407   5.932   1.310
15675W        W77338  38.059  15.253  12.528
15676W        W77339  31.531  37.382  11.897
15677W        W77340   2.805  11.210   1.700
15678W        W77341  30.474   4.394   2.225
15679W        W77342   6.210  13.784   2.207
15680W        W77343  29.621  13.304   3.822
15681W        W77344   4.872  24.197   4.304
15682W        W77345  41.991  23.238   4.153
15683W        W77346   3.455  23.107  11.472
15684W        W77347  12.740  18.223  14.951
15685W        W77348  23.025  41.033  12.951
15686W        W77349  22.503  24.701  14.334
15687W        W77350  25.116  43.464   4.644
15688W        W77351  26.026  29.604   1.755
15689W        W77352  42.356  38.503  10.405
15690W        W77353  13.644   8.207  12.843
15691W        W77354  32.538  33.392   3.363
15692W        W77355  23.202  38.953   1.394
15693W        W77356  15.205  20.075   3.713
15694W        W77357  41.370  20.245   2.827
15695W        W77358  28.570  20.537   2.241
15696W        W77359  29.467   8.700   3.760
15697W        W77360  22.603   2.275  11.578
15698W        W77361   1.835  10.765   3.866
15699W        W77362  34.503  11.701   4.623
15700W        W77363   1.349  39.401   4.710
15701W        W77364  30.598   3.884  11.045
15702W        W77365   1.402  10.771   0.301
15703W        W77366  17.213  11.215   3.308
15704W        W77367  27.502  31.962  12.948
15705W        W77368   9.841  43.411   1.445
15706W        W77369   4.728  26.469  13.422
15707W        W77370  30.033  16.083   4.704
15708W        W77371  14.139  28.473   3.204
15709W        W77372  21.744   5.693   0.830
15710W        W77373  11.752  42.527   0.770
15711W        W77374  32.526  15.115  11.600
15712W        W77375  25.034  25.026  12.989
15713W        W77376   0.826  17.673  12.988
15714W        W77377  24.506  14.791  10.432
15715W        W77378  42.419  44.353  12.480
15716W        W77379  21.544  41.300  12.505
15717W        W77380   7.756  26.462   1.419
15718W        W77381  21.689  29.518   4.634
15719W        W77382  10.774  26.046   0.388
15720W        W77383  16.117  25.215  14.364
15721W        W77384  10.646   6.197   1.424
15722W        W77385  11.211   2.810  11.480
15723W        W77386   7.688  24.173   3.708
15724W        W77387   8.690  34.025   4.267
15725W        W77388  34.538  38.477  12.891
15726W        W77389  24.662  10.204  13.359
15727W        W77390  36.948   9.215   4.343
15728W        W77391  14.589  22.690  11.376
15729W        W77392  36.005  23.061  12.431
15730W        W77393  31.137   8.355  12.512
15731W        W77394   9.265  24.589   2.270
15732W        W77395  23.057   4.205  14.315
15733W        W77396  19.171  10.303   3.669
15734W        W77397  26.543   4.404  14.335
15735W        W77398  15.245  19.714  12.828
15736W        W77399   8.195  35.504  13.507
15737W        W77400  16.214   9.754   2.394
15738W        W77401  25.063   6.187  14.011
15739W        W77402  21.088  11.367  11.457
15740W        W77403  27.664  24.568   0.785
15741W        W77404   3.735  40.423  14.285
15742W        W77405  13.716  37.437  14.883
15743W        W77406  34.120  12.745  10.548
15744W        W77407  18.789  30.978  13.427
15745W        W77408  14.808  41.952   0.455
15746W        W77409  18.588  30.997  12.572
15747W        W77410  10.830  21.139  11.506
15748W        W77411   2.945  22.558   1.322
15749W        W77412  37.452  35.569  14.817
15750W        W77413  35.581  23.711   0.907
15751W        W77414  27.188  16.587  11.376
15752W        W77415  10.192  23.146  13.517
15753W        W77416  11.314  30.443  11.522
15754W        W77417  26.650  43.498   5.129
15755W        W77418  25.693  24.207   3.712
15756W        W77419  11.678  14.278   1.302
15757W        W77420  14.775   0.268  12.414
15758W        W77421  22.532  10.652   0.314
15759W        W77422  21.589  17.694   3.783
15760W        W77423  29.489  10.321   5.305
15761W        W77424  23.676   3.457  13.375
15762W        W77425   1.241  27.962  14.869
15763W        W77426  25.198  10.311   3.746
15764W        W77427  17.720  44.267  10.503
15765W        W77428  19.108  14.169  12.571
15766W        W77429  43.365  31.596   4.300
15767W        W77430  21.524   8.750  11.444
15768W        W77431  41.296  30.942  12.345
15769W        W77432  27.598   7.871  10.567
15770W        W77433  25.529  35.931   0.859
15771W        W77434  34.598  33.946  11.379
15772W        W77435   2.726   6.698  14.809
15773W        W77436   1.392   6.270   4.318
15774W        W77437   0.928   0.402   0.779
15775W        W77438  34.903  20.054   3.664
15776W        W77439  28.631  25.048   0.282
15777W        W77440   9.805  31.025   2.690
15778W        W77441  23.700  33.401   4.270
15779W        W77442   7.197  12.684   1.406
15780W        W77443   9.256   0.865  12.348
15781W        W77444  22.716  11.850   2.366
15782W        W77445  18.138  13.159  10.900
15783W        W77446   7.759  14.713   2.866
15784W        W77447   2.795  22.643  13.393
15785W        W77448  36.530  37.442  11.565
15786W        W77449  10.676  20.224   1.748
15787W        W77450   4.932  18.145  13.879
15788W        W77451  33.129  35.553   3.686
15789W        W77452  26.510  20.078  12.991
15790W        W77453  32.107   2.228  11.891
15791W        W77454  42.821   3.246   0.742
15792W        W77455  24.533  33.554   1.451
15793W        W77456   1.878  39.056   0.250
15794W        W77457  35.565   9.287   5.140
15795W        W77458  11.696  16.667   3.166
15796W        W77459  23.135  37.347  12.446
15797W        W77460  12.321  41.830   1.768
15798W        W77461  32.912  34.917   1.295
15799W        W77462  30.050  23.563   3.191
15800W        W77463  14.695   5.788  14.433
15801W        W77464   6.814  42.791  10.538
15802W        W77465  27.568  19.758   1.729
15803W        W77466  17.080  12.652  12.505
15804W        W77467  31.004  32.953   4.737
15805W        W77468  20.146   9.698  11.473
15806W        W77469  24.625  19.235   1.245
15807W        W77470   1.822   7.196  12.339
15808W        W77471  14.774  44.417   3.827
15809W        W77472   1.292   3.717   2.705
15810W        W77473  11.170  38.490  12.969
15811W        W77474  30.048  37.383   0.790
15812W        W77475  31.907  19.630  13.360
15813W        W77476  42.410  10.703   9.503
15814W        W77477   1.918   6.748  14.994
15815W        W77478  43.805  41.995  14.906
15816W        W77479   3.359  26.007  12.966
15817W        W77480  32.969  40.427   0.418
15818W        W77481   1.306  18.265   0.322
15819W        W77482  39.530   3.836   0.861
15820W        W77483  25.185   6.293   3.760
15821W        W77484  35.875   2.465   2.267
15822W        W77485  16.275  40.012  13.412
15823W        W77486  41.002  21.214   2.713
15824W        W77487   2.821  17.259   4.761
15825W        W77488  35.371  12.309   2.335
15826W        W77489   5.706   2.819  14.501
15827W        W77490  26.601  39.494  12.860
15828W        W77491  15.144  42.938   3.865
15829W        W77492  38.887  36.890   2.795
15830W        W77493  19.571  29.940  11.551
15831W        W77494  24.482  40.486   2.193
15832W        W77495  10.360  28.062  14.818
15833W        W77496  11.694  30.136   3.818
15834W        W77497   0.918  44.859   3.653
15835W        W77498  19.739  33.563  14.290
15836W        W77499  31.008  37.964   3.729
15837W        W77500  41.873  30.576  14.408
15838W        W77501  26.458  22.610   3.313
15839W        W77502  14.704  29.487   0.410
15840W        W77503  24.695   8.805   1.412
15841W        W77504  11.161  13.799  14.465
15842W        W77505  13.746   4.418  13.832
15843W        W77506  40.393  35.418   3.374
15844W        W77507  23.592   4.705  11.565
15845W        W77508  20.213  10.775   4.660
15846W        W77509  35.484  17.230   4.319
15847W        W77510  36.047   0.790  14.422
15848W        W77511  12.769  13.779   4.199
15849W        W77512  32.071  23.127   4.169
15850W        W77513  17.735  33.941  14.970
15851W        W77514   4.282  33.519   4.120
15852W        W77515  23.586  34.541  14.011
15853W        W77516  41.309   1.386  11.453
15854W        W77517   2.845  23.731  13.947
15855W        W77518   0.266  21.087  12.861
15856W        W77519  10.236  15.150   2.270
15857W        W77520   6.326  14.288   4.772
15858W        W77521  32.594  33.507  11.029
15859W        W77522  33.110   1.888   4.780
15860W        W77523   3.439  42.433  10.130
15861W        W77524  26.954  27.987  10.135
15862W        W77525  33.464   3.361   2.877
15863W        W77526   9.218   9.340   3.317
15864W        W77527  23.108  27.453   0.750
15865W        W77528  37.871  12.743   3.155
15866W        W77529  20.054  39.499   0.353
15867W        W77530  13.811   6.407  10.453
15868W        W77531  21.231  10.758   4.688
15869W        W77532  36.014  41.473   2.755
15870W        W77533  18.143  33.910  10.639
15871W        W77534  39.827  38.937   4.620
15872W        W77535  10.177  41.955   0.764
15873W        W77536   9.282   7.359   0.937
15874W        W77537  28.086  33.898   2.259
15875W        W77538  39.057  38.824  10.547
15876W        W77539  31.604   0.807   4.632
15877W        W77540  23.073   6.185  12.879
15878W        W77541  17.275  26.680  14.907
15879W        W77542   0.866  11.184  14.906
15880W        W77543  42.962   1.297   0.327
15881W        W77544   6.343  17.306  14.444
15882W        W77545  30.949   6.754  13.853
15883W        W77546   9.304  27.051  14.323
15884W        W77547   7.700  36.448  14.364
15885W        W77548  27.986  34.481  10.970
15886W        W77549  15.218  28.613   4.196
15887W        W77550   7.189   3.757   0.418
15888W        W77551  27.615  10.271   3.730
15889W        W77552  29.999  30.546   4.645
15890W        W77553  26.687  11.737   0.776
15891W        W77554  12.617  29.969   2.663
15892W        W77555   9.663  34.984  11.557
15893W        W77556  19.181  38.871  14.026
15894W        W77557  27.687  40.418  11.435
15895W        W77558  44.336  11.777  11.981
15896W        W77559  29.923  15.272  11.561
15897W        W77560  43.461   2.871  12.962
15898W        W77561  23.095  41.298   5.202
15899W        W77562  43.805  41.915  10.569
15900W        W77563   5.363  10.308   1.920
15901W        W77564  27.024  18.107   3.767
15902W        W77565  16.237  40.869  11.898
15903W        W77566  41.025   0.936  14.450
15904W        W77567   5.723  24.723  12.568
15905W        W77568  41.946  26.502  14.998
15906W        W77569  42.920  30.439  10.598
15907W        W77570  39.321  17.673   2.321
15908W        W77571   1.324  10.697  10.489
15909W        W77572  24.562  42.395   2.832
15910W        W77573  37.954  19.284   0.949
15911W        W77574  34.024  20.055   3.185
15912W        W77575  10.840  26.478  13.832
15913W        W77576   2.245  30.504  10.035
15914W        W77577  27.186  33.021  14.785
15915W        W77578  44.371  34.035  13.802
15916W        W77579  39.014  28.584   9.967
15917W        W77580  23.241  26.198  13.852
15918W        W77581  20.081  12.805   0.447
15919W        W77582   2.381  37.884  14.974
15920W        W77583   3.411  27.059  11.901
15921W        W77584  18.645  15.235   4.621
15922W        W77585  26.196  13.234  13.915
15923W        W77586   8.785  16.612   0.904
15924W        W77587  14.136  40.998   3.812
15925W        W77588  34.085  21.255  10.986
15926W        W77589  29.098  16.149   3.201
15927W        W77590  30.449  19.767  11.608
15928W        W77591  29.134  18.570  10.999
15929W        W77592   7.389  26.604   0.270
15930W        W77593  23.725   0.493  13.434
15931W        W77594  37.050  33.503   3.327
15932W        W77595   2.399  14.776  12.926
15933W        W77596   8.688  28.466   4.780
15934W        W77597   7.269   1.941   2.676
15935W        W77598  42.991  24.543  12.060
15936W        W77599  22.120  23.513  11.388
15937W        W77600  31.504  27.541   1.287
15938W        W77601  18.077  21.702  13.828
15939W        W77602  13.645   0.377  13.055
15940W        W77603  25.585  42.878  11.993
15941W        W77604  23.613  13.760  14.488
15942W        W77605  28.178   5.239  12.094
15943W        W77606  24.065  15.087   4.774
15944W        W77607  22.663   2.905   4.699
15945W        W77608  16.309  17.209   2.887
15946W        W77609  42.409  43.925   2.801
15947W        W77610  20.610  24.529  13.846
15948W        W77611  19.684  32.454  14.760
15949W        W77612  42.983  36.538   4.602
15950W        W77613  28.078  21.160   0.831
15951W        W77614  40.302  36.592   2.361
15952W        W77615  12.279  27.665  13.051
15953W        W77616   9.886   5.433   2.864
15954W        W77617  28.665  39.884  10.916
15955W        W77618  43.863  35.525   2.728
15956W        W77619  28.000  41.991  13.860
15957W        W77620  10.772   6.769  10.137
15958W        W77621  15.140   9.200   0.967
15959W        W77622  14.608  37.028   2.861
15960W        W77623  35.483  30.514  13.822
15961W        W77624  20.135  38.373   2.379
15962W        W77625  14.781   6.403  14.871
15963W        W77626  41.502  35.406   1.731
15964W        W77627  34.597  20.557   1.772
15965W        W77628  30.420  32.630  14.007
15966W        W77629   3.290  33.580   4.166
15967W        W77630   7.854  18.691  13.036
15968W        W77631  30.657  27.579   4.231
15969W        W77632  25.571  16.146   4.836
15970W        W77633  31.624  23.576  10.453
15971W        W77634  13.320  19.588  14.323
15972W        W77635   3.323  39.430  12.580
15973W        W77636  21.236  35.085   4.777
15974W        W77637  30.962  24.655   2.852
15975W        W77638  32.039  18.193   3.218
15976W        W77639  15.321  38.840  13.419
15977W        W77640  23.044  10.749  11.859
15978W        W77641  39.522  24.999   1.740
15979W        W77642  33.447   6.370  14.339
15980W        W77643  20.661  26.513  10.099
15981W        W77644  30.510  21.554  13.370
15982W        W77645  40.863  34.516  11.457
15983W        W77646  22.615  23.649  12.978
15984W        W77647   9.786  15.615  12.063
15985W        W77648  20.115  11.844   0.940
15986W        W77649  28.160   1.255   4.792
15987W        W77650  39.854   4.755  12.443
15988W        W77651  26.208  22.521  13.832
15989W        W77652  29.471  28.649  14.369
15990W        W77653  28.459  34.927  13.889
15991W        W77654  17.701  30.616  11.419
15992W        W77655  32.017  42.339   3.158
15993W        W77656  16.140   9.381   3.346
15994W        W77657  23.576  23.552  11.082
15995W        W77658  15.580  38.849  11.028
15996W        W77659  36.516  17.596   1.902
15997W        W77660   6.354  37.853  13.455
15998W        W77661  12.757  34.402   4.618
15999W        W77662  44.468  33.596  10.594
16000W        W77663  42.309   6.419   0.340
16001W        W77664  19.702  18.559  10.990
16002W        W77665   4.335   0.369   2.381
16003W        W77666  34.508  35.508   4.290
16004W        W77667  29.553  35.394  10.553
16005W        W77668   4.768   1.272   4.301
16006W        W77669  33.887  27.033   2.669
16007W        W77670  42.974  41.030   0.760
16008W        W77671  32.551  24.504  10.440
16009W        W77672  32.506  42.352  14.855
16010W        W77673   9.734   6.808   3.758
16011W        W77674   2.886  40.431  12.339
16012W        W77675  17.144   0.756   4.686
16013W        W77676   7.311  35.887  11.881
16014W        W77677  35.521   0.853  13.479
16015W        W77678   8.239  29.051   1.928
16016W        W77679  39.509  38.389  13.386
16017W        W77680   3.375  31.053   2.321
16018W        W77681  22.064   9.780  13.026
16019W        W77682  38.375   4.709  10.496
16020W        W77683  27.626   8.374  13.856
16021W        W77684   6.422   5.298   1.335
16022W        W77685   2.388  14.254   4.697
16023W        W77686   2.449   0.336  13.995
16024W        W77687  14.727  18.112  13.335
16025W        W77688  34.911  27.083   3.275
16026W        W77689  29.116  33.496  14.319
16027W        W77690  33.989   3.928   3.331
16028W        W77691  27.117  37.959   1.374
16029W        W77692  30.647  10.798  10.526
16030W        W77693   4.734  14.822   3.803
16031W        W77694  40.906  13.294  11.413
16032W        W77695  14.613  22.178  12.368
16033W        W77696   4.311  29.967   3.184
16034W        W77697  19.215  41.538   3.779
16035W        W77698  11.305   4.304   4.743
16036W        W77699  27.549  14.172   2.211
16037W        W77700  16.705  35.037   4.135
16038W        W77701  13.277  30.939  12.407
16039W        W77702  40.388  26.051  12.464
16040W        W77703  37.835  34.985  13.521
16041W        W77704  11.743   0.754  12.368
16042W        W77705  30.418   0.390  12.470
16043W        W77706  11.755  36.526  10.943
16044W        W77707  30.138   8.705   3.770
16045W        W77708  32.485  43.878   0.737
16046W        W77709  33.101  25.562   4.659
16047W        W77710  31.421  38.510   3.352
16048W        W77711  39.027  39.459  14.923
16049W        W77712   4.752  33.968   4.219
16050W        W77713  25.136  41.438  11.897
16051W        W77714  18.663  36.359   2.830
16052W        W77715  35.859  41.968  11.908
16053W        W77716  28.019  44.336   1.714
16054W        W77717  12.734  19.234  14.929
16055W        W77718  16.789  20.185   3.678
16056W        W77719  16.251   4.329  14.317
16057W        W77720  35.580   2.930  11.991
16058W        W77721  36.359   4.717  13.481
16059W        W77722  39.456   1.309  12.405
16060W        W77723  23.104  27.960  12.824
16061W        W77724   2.956  15.647  12.849
16062W        W77725  25.506  10.250   1.780
16063W        W77726   7.748   2.309   4.783
16064W        W77727  41.803  38.377  13.001
16065W        W77728  23.043  30.150   4.642
16066W        W77729  12.243  15.329  13.936
16067W        W77730   7.327   1.758   1.746
16068W        W77731  43.818  15.733   1.287
16069W        W77732  36.989  18.693   0.932
16070W        W77733  26.528  10.253   3.757
16071W        W77734   7.335  32.501   4.124
16072W        W77735  42.937   9.212   5.286
16073W        W77736  40.972  20.761  11.484
16074W        W77737   1.368  34.028  13.024
16075W        W77738  30.097  41.818  14.029
16076W        W77739  19.194  24.638   0.754
16077W        W77740  35.404  11.781  13.522
16078W        W77741  12.346  10.295   0.270
16079W        W77742   5.350  34.997   0.386
16080W        W77743  27.106  37.063   1.357
16081W        W77744  26.193   4.733  11.027
16082W        W77745  25.648  13.114   0.441
16083W        W77746  28.931  15.619  10.896
16084W        W77747  32.945  25.196  14.280
16085W        W77748  40.492   9.347  12.441
16086W        W77749  28.938  25.497  12.532
16087W        W77750  29.084  13.128   2.418
16088W        W77751  18.178   3.783  11.418
16089W        W77752  37.978  34.047  11.866
16090W        W77753  29.991  34.069  12.854
16091W        W77754   4.891   8.205   2.808
16092W        W77755  36.492  32.909   0.309
16093W        W77756  11.626  31.480  10.426
16094W        W77757  29.984   1.307  14.489
16095W        W77758  37.579  11.235  10.600
16096W        W77759  34.003  12.816   2.253
16097W        W77760  15.245   7.831  13.308
16098W        W77761  12.234   0.913  13.003
16099W        W77762  28.623   3.289   4.763
16100W        W77763  21.172   1.953   3.186
16101W        W77764  14.677  24.056   0.743
16102W        W77765  19.662  20.724  13.930
16103W        W77766   3.459   3.351  14.794
16104W        W77767   7.219  34.436  13.883
16105W        W77768  26.060  19.595  14.347
16106W        W77769  36.916  41.391   1.254
16107W        W77770  13.315   1.799   2.868
16108W        W77771  43.425  34.436  12.078
16109W        W77772  26.990   2.356  12.095
16110W        W77773  28.935  41.931  11.984
16111W        W77774   0.341  13.815  12.020
16112W        W77775  22.107  29.488   2.830
16113W        W77776  29.585  34.461   0.781
16114W        W77777   5.290  42.794   0.444
16115W        W77778  32.547  20.657   3.788
16116W        W77779  18.273  19.175   3.226
16117W        W77780   0.820  28.645   0.336
16118W        W77781   5.321  15.770   0.882
16119W        W77782  35.602  40.920   3.858
16120W        W77783  18.082  12.341   1.801
16121W        W77784  41.895  23.558   2.865
16122W        W77785   0.801  29.463  11.865
16123W        W77786  26.595  23.692   1.891
16124W        W77787  26.068  33.924   1.450
16125W        W77788   8.192  28.630   4.173
16126W        W77789  11.651  38.408  12.560
16127W        W77790  44.338  27.093  13.844
16128W        W77791  16.739  12.690  11.916
16129W        W77792  23.991  24.648  14.832
16130W        W77793  14.711  42.853  11.996
16131W        W77794   7.390  37.394  13.374
16132W        W77795  33.105  16.628  12.029
16133W        W77796   2.266  28.090   5.263
16134W        W77797  12.806  39.900  14.300
16135W        W77798   7.881  40.315  13.813
16136W        W77799  26.065  33.071  10.493
16137W        W77800  40.030   1.430   4.223
16138W        W77801  18.293  41.950   3.340
16139W        W77802   2.460  14.306   4.147
16140W        W77803   7.851  16.180   4.177
16141W        W77804   5.696  27.043  14.930
16142W        W77805   7.703  38.567   2.332
16143W        W77806  43.930  42.015   2.219
16144W        W77807  29.938   8.359  12.943
16145W        W77808   8.204  28.073  10.598
16146W        W77809  30.565  42.386   3.247
16147W        W77810  35.422  10.854   1.782
16148W        W77811  29.072   7.834   2.695
16149W        W77812  44.841   9.816  13.491
16150W        W77813  26.678  42.485   5.102
16151W        W77814   8.267  23.068  13.042
16152W        W77815   5.271  14.114  14.996
16153W        W77816  30.099  42.312  12.854
16154W        W77817  27.036  23.237  11.455
16155W        W77818  17.176  42.355   4.830
16156W        W77819  25.697  27.567   9.584
16157W        W77820  32.105  21.254  14.858
16158W        W77821  43.924  41.940  10.990
16159W        W77822  44.773  36.887   2.847
16160W        W77823  27.674  20.091   3.187
16161W        W77824  31.405  20.767  14.394
16162W        W77825  44.388  28.054   1.284
16163W        W77826  15.703  38.330   2.328
16164W        W77827  28.994  14.708   4.643
16165W        W77828   1.358  31.930  14.923
16166W        W77829  26.169  40.915   0.946
16167W        W77830  19.705   7.894  11.441
16168W        W77831  34.412  28.001  10.995
16169W        W77832   9.154  28.178   2.738
16170W        W77833  15.808  31.625  11.376
16171W        W77834  19.749   4.438  14.424
16172W        W77835  29.484   6.237  13.312
16173W        W77836  32.624  29.168   4.832
16174W        W77837   1.366  28.648   1.770
16175W        W77838   8.256   7.700   4.155
16176W        W77839  11.365  24.076  11.001
16177W        W77840  30.049  13.825   2.864
16178W        W77841  18.129  38.976  14.512
16179W        W77842   2.936  42.447   4.716
16180W        W77843  31.930  12.655  11.481
16181W        W77844   7.304  31.112  12.418
16182W        W77845  11.258   5.901  11.422
16183W        W77846   8.836  36.535  13.440
16184W        W77847  40.462  42.473   4.254
16185W        W77848  12.271  35.051   5.719
16186W        W77849  15.300  32.548   4.315
16187W        W77850  43.894   4.847  11.490
16188W        W77851  21.035   7.239  12.871
16189W        W77852  28.614  19.669  14.332
16190W        W77853   2.824  22.061  11.977
16191W        W77854  29.469  34.440  13.929
16192W        W77855  12.322   0.895  11.458
16193W        W77856  18.722   7.206   2.895
16194W        W77857  26.108  31.929   3.774
16195W        W77858  29.644  17.252   5.321
16196W        W77859  29.665  34.019   1.243
16197W        W77860  31.512  36.348  13.906
16198W        W77861  13.840   8.897   4.792
16199W        W77862   3.257  39.990  13.859
16200W        W77863   4.776  17.169  10.548
16201W        W77864  29.166  37.001  13.806
16202W        W77865   5.778  37.526   1.243
16203W        W77866  24.024  24.490  13.310
16204W        W77867   8.830  22.667   2.776
16205W        W77868  19.166  34.935  11.592
16206W        W77869  16.727  24.131   1.886
16207W        W77870  40.054  22.635   0.323
16208W        W77871  24.596   5.353  12.877
16209W        W77872  30.579  39.543  12.354
16210W        W77873   9.160  38.915  10.420
16211W        W77874  26.074  32.945   2.719
16212W        W77875   3.429  19.174   1.346
16213W        W77876  29.140  42.281  13.329
16214W        W77877  33.042  24.619   0.788
16215W        W77878  37.988  19.739   2.898
16216W        W77879  14.149  12.688  12.889
16217W        W77880  41.336  13.651   2.807
16218W        W77881  29.654  38.913   1.734
16219W        W77882  38.001  40.425  13.887
16220W        W77883  41.484  37.844  12.355
16221W        W77884  31.001  43.853  10.627
16222W        W77885  15.639  32.404  13.955
16223W        W77886   7.764  13.649   2.398
16224W        W77887  23.087  37.011   2.842
16225W        W77888   2.817  22.223  12.505
16226W        W77889  24.180  30.414  13.049
16227W        W77890  38.893  32.971   2.670
16228W        W77891  40.492  27.599  10.461
16229W        W77892  23.660   5.764  12.539
16230W        W77893  28.603  44.387   3.245
16231W        W77894  26.700   0.381  12.072
16232W        W77895  19.155  33.951   2.837
16233W        W77896  25.551  16.294   4.126
16234W        W77897  30.428  37.914  10.555
16235W        W77898  18.144  38.036  14.902
16236W        W77899  19.604  35.967   1.440
16237W        W77900  16.284   1.318   3.630
16238W        W77901  20.563   2.364   0.770
16239W        W77902  18.783  14.816  11.405
16240W        W77903  16.156  34.093  11.949
16241W        W77904  34.116  28.121   1.746
16242W        W77905   9.885   7.867  14.323
16243W        W77906  44.424  39.441   3.811
16244W        W77907  15.789  14.589  14.435
16245W        W77908  31.531   6.692   0.766
16246W        W77909  29.078   5.249  14.328
16247W        W77910   1.743  33.523   4.153
16248W        W77911   7.729   6.362  13.882
16249W        W77912  31.946  31.126   5.216
16250W        W77913   0.807   3.286   2.301
16251W        W77914  19.117   2.865  12.051
16252W        W77915  16.708   0.260  14.769
16253W        W77916  43.777  14.728  10.621
16254W        W77917  27.543  19.633  12.433
16255W        W77918  19.149  12.176  14.369
16256W        W77919  28.064   0.790   2.870
16257W        W77920  39.550  29.121  11.585
16258W        W77921  24.219   8.691  11.377
16259W        W77922   5.201  18.611  13.482
16260W        W77923  15.224   2.274  10.619
16261W        W77924  11.216   0.419   3.310
16262W        W77925  11.775  24.009   1.815
16263W        W77926  11.253  11.796  10.919
16264W        W77927  38.887  24.669   2.848
16265W        W77928  17.124   6.333  10.981
16266W        W77929  31.042  14.645  14.943
16267W        W77930  30.437  24.989  10.498
16268W        W77931  12.276  26.688   2.700
16269W        W77932  44.872  29.147  14.810
16270W        W77933   3.311  30.052  11.048
16271W        W77934   4.901   7.695   1.363
16272W        W77935  40.991  41.823  13.406
16273W        W77936   2.820  32.511  12.458
16274W        W77937  39.374   3.876  13.059
16275W        W77938  37.496  26.977   0.397
16276W        W77939   7.812   9.279  11.503
16277W        W77940  42.871   3.876   3.258
16278W        W77941  14.793  13.107   3.325
16279W        W77942   7.791  20.547  11.393
16280W        W77943   3.361  22.107  11.079
16281W        W77944  22.510  39.401   0.356
16282W        W77945  17.076  12.717  13.431
16283W        W77946  38.073   3.328  13.050
16284W        W77947   8.367  14.642  14.428
16285W        W77948   6.810  32.474   2.412
16286W        W77949   6.242   8.870   2.219
16287W        W77950  23.188   7.766   0.808
16288W        W77951  14.696  12.173  14.008
16289W        W77952  42.494  33.975  14.760
16290W        W77953  17.132   3.948  11.419
16291W        W77954  34.418  24.120   1.727
16292W        W77955  28.956  43.442   2.711
16293W        W77956  25.193  20.727  14.303
16294W        W77957  29.031  23.729  14.897
16295W        W77958  17.648   1.852  13.803
16296W        W77959   9.363  17.274  14.760
16297W        W77960   2.452  44.964   1.372
16298W        W77961  17.133  13.130  10.981
16299W        W77962  10.160  24.016   3.738
16300W        W77963  12.281  42.449  13.003
16301W        W77964   7.367   8.798  14.896
16302W        W77965  30.933  24.039   3.685
16303W        W77966  39.480   5.848  12.926
16304W        W77967  21.729   0.752   2.268
16305W        W77968  23.134  33.097  12.839
16306W        W77969   5.825   9.269   1.362
16307W        W77970  10.274   6.787   5.241
16308W        W77971  38.445  37.553  12.893
16309W        W77972  11.134   3.394   3.699
16310W        W77973  32.539  41.843  12.036
16311W        W77974  35.576  40.931   1.813
16312W        W77975   2.373  22.725  11.898
16313W        W77976  43.284  42.292  13.474
16314W        W77977  11.271  22.139   3.798
16315W        W77978  11.695  19.085  14.767
16316W        W77979  22.557  22.584  12.022
16317W        W77980  40.801  17.093  10.514
16318W        W77981  39.913  38.958   4.303
16319W        W77982  38.397   3.427  10.501
16320W        W77983  19.618  12.696   3.222
16321W        W77984  16.809   1.283  11.998
16322W        W77985  29.111   8.275   1.304
16323W        W77986  33.507  12.678  14.765
16324W        W77987  10.218  21.206  11.493
16325W        W77988  35.421   1.410  14.290
16326W        W77989  17.130  24.594  11.567
16327W        W77990  22.699   8.742   1.253
16328W        W77991  44.909  23.022  12.885
16329W        W77992  36.953  18.752  12.566
16330W        W77993  28.094   8.400  12.342
16331W        W77994  29.584  24.990   2.831
16332W        W77995  18.762  41.798  11.045
16333W        W77996   2.771  42.383  14.462
16334W        W77997  40.392  38.030  11.920
16335W        W77998  23.728   8.167  10.638
16336W        W77999  43.983  17.727  10.161
16337W        W78000  15.257  19.544   5.228
16338W        W78001  17.122   5.749   2.416
16339W        W78002   4.366  10.185   5.285
16340W        W78003   6.291  41.910   3.214
16341W        W78004  17.073  19.109  12.040
16342W        W78005   2.462  23.572  12.839
16343W        W78006   0.368   2.313   3.739
16344W        W78007  14.112   5.303   0.329
16345W        W78008  36.545   3.922   0.454
16346W        W78009  11.139  16.676   1.928
16347W        W78010  41.897  28.128   0.762
16348W        W78011   8.178   1.802   2.837
16349W        W78012  30.659  17.177  11.414
16350W        W78013   4.445   8.799   3.791
16351W        W78014  31.546  24.548  14.826
16352W        W78015  33.568  11.817  10.940
16353W        W78016  30.483  17.715   0.889
16354W        W78017  20.693  32.431   3.182
16355W        W78018  19.762   6.741   3.800
16356W        W78019   4.788  44.270   2.806
16357W        W78020  13.706  40.353   0.767
16358W        W78021  34.921  16.226   3.821
16359W        W78022   1.330   3.955  13.871
16360W        W78023  35.459   4.336   0.280
16361W        W78024  43.273  30.043  12.394
16362W        W78025   4.775   4.792   4.272
16363W        W78026  27.582  12.635   2.386
16364W        W78027  14.248  22.074   3.314
16365W        W78028  39.921  38.888  12.506
16366W        W78029  13.665  40.807  13.967
16367W        W78030  10.857  23.635  11.420
16368W        W78031  10.836  38.511   0.259
16369W        W78032  30.998  38.518   0.465
16370W        W78033  34.458  12.201  14.475
16371W        W78034  36.945  12.696  13.840
16372W        W78035   7.412   5.924  14.960
16373W        W78036  40.404   2.270  13.442
16374W        W78037  38.949  12.670  14.813
16375W        W78038   9.349  39.536   0.478
16376W        W78039   2.242  31.408   1.886
16377W        W78040  16.077  17.593   4.120
16378W        W78041   0.845  33.503  13.836
16379W        W78042  11.243   7.269  12.383
16380W        W78043  32.099  17.661   3.825
16381W        W78044  11.801   4.306  13.877
16382W        W78045  10.218  40.831  10.982
16383W        W78046  37.883   1.784  10.641
16384W        W78047  41.990  15.181  12.030
16385W        W78048  42.026  43.377   3.304
16386W        W78049   2.451  40.860   0.859
16387W        W78050  22.124  34.498  11.950
16388W        W78051  29.057  32.438   3.862
16389W        W78052  16.109  31.420   4.183
16390W        W78053  29.921  30.014  14.810
16391W        W78054  38.522   6.825  12.840
16392W        W78055  43.917   4.840   1.865
16393W        W78056  11.626  20.693  11.495
16394W        W78057  26.693  29.449   0.765
16395W        W78058  22.742  36.006   5.114
16396W        W78059   1.977   5.918  10.449
16397W        W78060  36.939   6.188  14.028
16398W        W78061  43.344  39.365  11.590
16399W        W78062  22.194   2.472  12.540
16400W        W78063  41.526  32.451   4.135
16401W        W78064  40.894  36.398   4.213
16402W        W78065  18.199  12.616   1.888
16403W        W78066  35.400  26.505  14.335
16404W        W78067  27.588  17.613  11.934
16405W        W78068   5.337   3.255  14.999
16406W        W78069  12.849  24.091   4.229
16407W        W78070  30.624  40.965   3.771
16408W        W78071   9.274  38.839   1.392
16409W        W78072  16.702  13.661   0.822
16410W        W78073  27.596  15.757  11.946
16411W        W78074   0.812   3.816  13.997
16412W        W78075   8.254  33.384  10.908
16413W        W78076  22.657  35.965   4.321
16414W        W78077  39.328  43.456  14.923
16415W        W78078  44.366   1.298   4.310
16416W        W78079  13.238   8.288  11.938
16417W        W78080  22.198  42.975   0.934
16418W        W78081  29.498   2.828   1.348
16419W        W78082  24.513  19.692  12.826
16420W        W78083  13.291  40.367  13.920
16421W        W78084  13.208  26.147  13.320
16422W        W78085   8.208   0.960  12.892
16423W        W78086  41.353  14.107   3.657
16424W        W78087  27.476  26.597   9.599
16425W        W78088  36.056   0.834  10.419
16426W        W78089  36.901  21.038   3.821
16427W        W78090   5.901   3.921  13.801
16428W        W78091  14.339  41.948  12.356
16429W        W78092  19.069   7.313  14.948
16430W        W78093   9.319  14.803   0.844
16431W        W78094  43.801  28.486   2.803
16432W        W78095   2.727  41.476   3.203
16433W        W78096  20.681   3.919   4.273
16434W        W78097  12.263  38.891   3.649
16435W        W78098   8.378  14.776  10.491
16436W        W78099   4.779   8.774   1.413
16437W        W78100  17.560  33.474  14.300
16438W        W78101  30.430  44.941  13.426
16439W        W78102   7.205  30.909  14.862
16440W        W78103  36.472  22.052   0.796
16441W        W78104   9.300  31.536   1.311
16442W        W78105  32.586  44.300   1.376
16443W        W78106  40.822  12.121   0.767
16444W        W78107  35.449  36.072  12.960
16445W        W78108  29.083   1.444  10.613
16446W        W78109  10.711  20.132  10.508
16447W        W78110   0.870   6.841  11.539
16448W        W78111  18.767  27.165   4.632
16449W        W78112  42.797  36.548  14.985
16450W        W78113  42.910  25.967   0.331
16451W        W78114  44.769  40.964   3.801
16452W        W78115   8.748  31.150   0.375
16453W        W78116  41.324   3.750  10.443
16454W        W78117  42.323   5.737  14.807
16455W        W78118  16.596  39.331  12.443
16456W        W78119  35.076   6.275  13.815
16457W        W78120  15.104  22.094  14.958
16458W        W78121  35.412  18.649  11.889
16459W        W78122  17.764   3.862  13.541
16460W        W78123  14.141   9.757  12.444
16461W        W78124  16.648  10.806   4.621
16462W        W78125  44.276  12.280  14.438
16463W        W78126  12.722  10.846   0.339
16464W        W78127  21.057  32.573  14.324
16465W        W78128  23.219  16.281   3.855
16466W        W78129  24.992  34.953   3.244
16467W        W78130  23.147  32.553   4.665
16468W        W78131  43.497  24.039  13.323
16469W        W78132  10.196  41.906   4.222
16470W        W78133  27.016  25.022  12.898
16471W        W78134  42.331  39.511   2.308
16472W        W78135   3.941  25.683  12.428
16473W        W78136  23.118  37.365   2.739
16474W        W78137  33.512  44.365   4.189
16475W        W78138  18.271  34.376  13.891
16476W        W78139  34.978  27.176  10.484
16477W        W78140  34.395  34.428   4.686
16478W        W78141  41.989  43.334  11.527
16479W        W78142  32.090  43.454   4.740
16480W        W78143  38.459  18.157   2.393
16481W        W78144  32.000  34.005   3.295
16482W        W78145  20.044  43.003  14.344
16483W        W78146  37.372  37.515   3.294
16484W        W78147  37.945  33.595  13.818
16485W        W78148  33.577  43.904   1.380
16486W        W78149  19.742  33.569   1.777
16487W        W78150  37.474  17.203   4.617
16488W        W78151  21.681  14.178   5.256
16489W        W78152  28.458  26.977   0.951
16490W        W78153   7.278  33.439  11.944
16491W        W78154  26.208  43.351  12.373
16492W        W78155  40.806  40.839  11.875
16493W        W78156  39.550  29.557  14.768
16494W        W78157  24.584  41.421  10.492
16495W        W78158   0.477  24.583  14.032
16496W        W78159  14.608   0.967   1.898
16497W        W78160  35.588  39.934  11.084
16498W        W78161  43.777   4.916   0.467
16499W        W78162  19.662  25.501  10.894
16500W        W78163  14.184  27.616  12.825
16501W        W78164   2.293  33.936  12.920
16502W        W78165  22.215  25.028   3.228
16503W        W78166  24.565  10.672  12.994
16504W        W78167  14.591  26.534  14.335
16505W        W78168  19.080  40.824   0.386
16506W        W78169  26.700  35.434   2.398
16507W        W78170   0.399  41.981  13.814
16508W        W78171   2.876  36.085   2.727
16509W        W78172  16.771   1.290  13.906
16510W        W78173   8.399  21.676   4.800
16511W        W78174  29.918  40.432  10.619
16512W        W78175  19.614   2.915   4.736
16513W        W78176  42.348  16.285  11.977
16514W        W78177  19.102  44.413  11.514
16515W        W78178  32.635  18.718  14.444
16516W        W78179  40.318  13.292  14.801
16517W        W78180  37.921  11.291   3.147
16518W        W78181  44.325  33.458   2.320
16519W        W78182  43.480  13.222  13.959
16520W        W78183  25.481  37.891  11.937
16521W        W78184  33.599  17.274  10.910
16522W        W78185  36.579  26.092  10.540
16523W        W78186  22.124  21.620  12.498
16524W        W78187  36.385  43.007   2.368
16525W        W78188  43.807  37.915   0.467
16526W        W78189  28.040  33.980   4.120
16527W        W78190  23.588  32.078   2.864
16528W        W78191  15.667  29.431  14.369
16529W        W78192  27.189   5.724   1.806
16530W        W78193  37.964  21.198  11.871
16531W        W78194  22.654  41.332  12.540
16532W        W78195  11.285   1.250  14.994
16533W        W78196  35.363  43.001  14.865
16534W        W78197  32.476  39.008   0.752
16535W        W78198   3.218  17.173   1.243
16536W        W78199  36.369   4.762  12.989
16537W        W78200  27.185   3.777  12.014
16538W        W78201   8.790  21.636   1.232
16539W        W78202  15.806   6.206  10.425
16540W        W78203  18.216  13.343   5.778
16541W        W78204  25.491  35.437   2.271
16542W        W78205  29.044  44.322   1.434
16543W        W78206  44.358  21.692  13.341
16544W        W78207  24.715  44.806  12.397
16545W        W78208   4.369  44.990  11.090
16546W        W78209   9.673  22.532   2.782
16547W        W78210  41.441   7.833   1.907
16548W        W78211  44.893  34.029   3.230
16549W        W78212   3.780  43.007   4.176
16550W        W78213  33.938   3.394   0.957
16551W        W78214  35.050  39.059  14.978
16552W        W78215  33.513  26.667  10.456
16553W        W78216   9.226   4.851  10.136
16554W        W78217  23.581  21.232   3.796
16555W        W78218  31.568   2.245  13.926
16556W        W78219   1.800   6.252  11.575
16557W        W78220  25.011  39.546  10.974
16558W        W78221   0.744   4.780  10.503
16559W        W78222   2.325  34.061   0.383
16560W        W78223  35.496  19.057   3.150
16561W        W78224  36.541  42.450   1.884
16562W        W78225   7.874   6.348   2.238
16563W        W78226  36.952  11.367   3.779
16564W        W78227   3.402  10.173  10.968
16565W        W78228  32.426  28.616   1.303
16566W        W78229  33.035   0.258  14.302
16567W        W78230  17.161  27.009   2.343
16568W        W78231  38.880  20.769  11.423
16569W        W78232   6.245  41.001   1.345
16570W        W78233  24.541  30.959   0.850
16571W        W78234  39.809  18.784  11.517
16572W        W78235  32.399   9.227   3.264
16573W        W78236  23.212  25.533  13.797
16574W        W78237   7.351  44.413   2.359
16575W        W78238   6.703  37.075  11.053
16576W        W78239  12.727  38.545  11.603
16577W        W78240  14.137  35.968  13.450
16578W        W78241  36.972   4.370   0.455
16579W        W78242  13.614  23.988  11.531
16580W        W78243  19.080  40.948   0.751
16581W        W78244  14.247  22.062  14.987
16582W        W78245  15.108  39.894  14.796
16583W        W78246  37.423   8.739   2.231
16584W        W78247  18.164   1.305   0.373
16585W        W78248   7.349   9.720  11.071
16586W        W78249  18.162  27.481   4.308
16587W        W78250  30.617  15.210  14.288
16588W        W78251  36.561  20.602   2.690
16589W        W78252  44.267  29.039   3.734
16590W        W78253  30.118  16.757   4.328
16591W        W78254  43.818  27.604  10.420
16592W        W78255  32.916  43.437  11.952
16593W        W78256  37.556  37.568  10.543
16594W        W78257  30.654  18.779  13.965
16595W        W78258  27.577  34.903   4.140
16596W        W78259  24.076  26.955   3.207
16597W        W78260  13.812  38.824  13.446
16598W        W78261  25.502  39.880  14.407
16599W        W78262  33.088  37.014   4.222
16600W        W78263  28.952   0.442  11.983
16601W        W78264  24.639  23.526   5.647
16602W        W78265  44.836   0.272   3.363
16603W        W78266  15.695  22.600  14.298
16604W        W78267  17.193  21.749   2.899
16605W        W78268  40.879  24.544   0.437
16606W        W78269  33.500   4.744   3.835
16607W        W78270   1.830  34.042   2.385
16608W        W78271  39.551  39.316   2.178
16609W        W78272  28.040  19.540  14.768
16610W        W78273  12.282  27.485   4.232
16611W        W78274  39.446  12.175  10.981
16612W        W78275  17.297  42.981   1.327
16613W        W78276   6.318   1.780  13.015
16614W        W78277  38.437   8.369  13.398
16615W        W78278  20.224  28.534  13.009
16616W        W78279  33.523  18.698   3.228
16617W        W78280  10.813  26.031   0.864
16618W        W78281  39.966  37.366   1.879
16619W        W78282   5.422  15.112   4.767
16620W        W78283   2.737  20.735  14.890
16621W        W78284  28.072  23.610   4.741
16622W        W78285  39.060  29.634   4.343
16623W        W78286   7.342  32.003  14.376
16624W        W78287  24.215  27.053  11.574
16625W        W78288  11.314  11.648  11.904
16626W        W78289   3.421  13.302  12.060
16627W        W78290  32.440  23.097  10.023
16628W        W78291  42.832  27.498   2.679
16629W        W78292  40.471  25.963  14.773
16630W        W78293  39.524  43.960   3.702
16631W        W78294  35.441  28.087  14.365
16632W        W78295   4.862  24.637   0.862
16633W        W78296  14.767   1.843   4.168
16634W        W78297  23.984  25.505   2.244
16635W        W78298  22.662  27.485  13.380
16636W        W78299  44.815   9.383   1.226
16637W        W78300  40.450   7.889  14.791
16638W        W78301  19.263   5.687   2.419
16639W        W78302   5.312  14.185  10.969
16640W        W78303  38.835   5.237  10.495
16641W        W78304   8.201  20.155  12.935
16642W        W78305  37.498  35.071  12.053
16643W        W78306  38.853   1.270   4.302
16644W        W78307  21.583  10.209  11.606
16645W        W78308  36.858  21.210   3.203
16646W        W78309  27.191   5.197   2.724
16647W        W78310  23.514  29.967  12.380
16648W        W78311  42.894  20.769  12.050
16649W        W78312  21.522  26.677  11.908
16650W        W78313  30.413  29.972  11.044
16651W        W78314   2.826  23.527  14.281
16652W        W78315   1.963   7.771   0.449
16653W        W78316  25.581  16.710  14.799
16654W        W78317  24.209  11.631  14.820
16655W        W78318  23.605   3.296  11.433
16656W        W78319  26.041   6.399  10.608
16657W        W78320  24.602  26.608   2.230
16658W        W78321  13.723   9.735   3.293
16659W        W78322  41.524  27.576  11.880
16660W        W78323  40.513  42.421   3.278
16661W        W78324  41.862  11.858   4.759
16662W        W78325  36.538   8.694  11.442
16663W        W78326  12.274  25.501  11.401
16664W        W78327  26.554  21.603   2.867
16665W        W78328  25.523  28.067  10.416
16666W        W78329  44.449  31.035   4.188
16667W        W78330   5.887   5.832  14.870
16668W        W78331  29.430  29.470   0.350
16669W        W78332   2.867  26.997   0.322
16670W        W78333  30.978  22.069  10.587
16671W        W78334  10.150   2.744  11.051
16672W        W78335  28.987  14.241   4.733
16673W        W78336   6.248  34.021   0.304
16674W        W78337   2.262  18.082  11.584
16675W        W78338  20.064  33.576  12.434
16676W        W78339  37.914   4.719  13.006
16677W        W78340  22.501   6.411  13.471
16678W        W78341   3.856  25.652  11.523
16679W        W78342  19.224   2.880  10.450
16680W        W78343  40.812   7.736   1.793
16681W        W78344  24.641  43.928   4.831
16682W        W78345  16.812  14.142   1.339
16683W        W78346  42.795  33.044   0.255
16684W        W78347   1.422  15.104   3.312
16685W        W78348  22.208   7.309  13.315
16686W        W78349  22.655  17.639  12.972
16687W        W78350  32.985  44.898   0.321
16688W        W78351  32.074  41.533   3.656
16689W        W78352  24.172  33.446   5.250
16690W        W78353  27.483  10.139   2.386
16691W        W78354  32.628  16.670   2.338
16692W        W78355   7.175  26.509  11.403
16693W        W78356  19.222   5.376  14.880
16694W        W78357  35.462  30.513  14.464
16695W        W78358  13.232  38.432   0.886
16696W        W78359  16.088  30.615   5.235
16697W        W78360  27.501  44.365   3.335
16698W        W78361   6.194  13.230  12.081
16699W        W78362  15.683  18.612   3.785
16700W        W78363  42.028  29.066  11.947
16701W        W78364  17.211  34.537   9.962
16702W        W78365  35.578  38.060  11.539
16703W        W78366  29.477  37.900  11.107
16704W        W78367  42.372  17.234  12.428
16705W        W78368  10.819   6.209   2.214
16706W        W78369   8.855  27.045  13.533
16707W        W78370   7.808  43.373  11.396
16708W        W78371  38.488   4.288   0.262
16709W        W78372  30.556  39.428  11.571
16710W        W78373  33.574   7.896  14.378
16711W        W78374  23.699  43.839   1.236
16712W        W78375  10.231  41.318   0.950
16713W        W78376  39.551  33.979   1.317
16714W        W78377   2.273  28.171  10.150
16715W        W78378  22.599  10.325  14.387
16716W        W78379  39.988  27.065  13.031
16717W        W78380  13.178  15.656   3.845
16718W        W78381  36.844  18.759   2.252
16719W        W78382  22.145  35.003  12.520
16720W        W78383  11.179   7.799  13.864
16721W        W78384  19.625  39.437   1.852
16722W        W78385  24.545  39.974   5.228
16723W        W78386  43.973  18.611  13.344
16724W        W78387  17.641  22.169  14.496
16725W        W78388  14.591   1.390   4.758
16726W        W78389  28.146  12.692  13.805
16727W        W78390  26.475  44.919   4.615
16728W        W78391  38.422  25.534  12.944
16729W        W78392  31.922   9.180  11.447
16730W        W78393   7.839  28.590   0.254
16731W        W78394  29.059  43.281   2.228
16732W        W78395  36.014  31.122  12.492
16733W        W78396  43.944  32.474   2.797
16734W        W78397  35.058  33.023   2.785
16735W        W78398  18.591   4.342   1.821
16736W        W78399  37.960  29.531  10.449
16737W        W78400  36.933   5.862   0.288
16738W        W78401  44.800  30.635   5.093
16739W        W78402   6.417   5.702   2.666
16740W        W78403  38.537  43.004  12.551
16741W        W78404  12.789  23.668  14.430
16742W        W78405  19.536  35.511  13.816
16743W        W78406  41.402  36.361   3.739
16744W        W78407  21.201   7.248  14.508
16745W        W78408  38.508   2.350  11.857
16746W        W78409  39.014  16.204   3.709
16747W        W78410  17.616  20.115  11.550
16748W        W78411   9.886  34.558   2.212
16749W        W78412   2.286  18.716   2.830
16750W        W78413   0.859  27.062  11.518
16751W        W78414  37.015  13.751   0.880
16752W        W78415  35.961  15.176   3.359
16753W        W78416  39.875  27.692   2.413
16754W        W78417  36.491  16.264   3.749
16755W        W78418  25.674   5.740  12.399
16756W        W78419  41.952  24.643  14.935
16757W        W78420  16.086  36.008   4.239
16758W        W78421   8.882  35.576   2.197
16759W        W78422  20.611  26.702  11.453
16760W        W78423   8.730  26.050  14.449
16761W        W78424  42.383  42.890  11.424
16762W        W78425   9.826  30.917  14.839
16763W        W78426   6.918  10.285  14.910
16764W        W78427   7.309  32.509  10.619
16765W        W78428  13.665  20.055   3.197
16766W        W78429  13.240  13.667  10.615
16767W        W78430  30.908  20.529   2.784
16768W        W78431  42.402   9.379   2.327
16769W        W78432  15.690   9.276   2.389
16770W        W78433  24.597  28.011  13.529
16771W        W78434  37.899  36.445   1.303
16772W        W78435  28.074  23.621   2.260
16773W        W78436  10.150   8.731   9.657
16774W        W78437   3.882  37.354   3.749
16775W        W78438   7.907  41.373  14.451
16776W        W78439  27.978  39.331   1.766
16777W        W78440   2.921   0.340   1.414
16778W        W78441  43.424   0.382   0.352
16779W        W78442   0.393  13.601   2.271
16780W        W78443  29.054  10.251   4.231
16781W        W78444   9.263   2.838   4.704
16782W        W78445  24.177  40.812   0.964
16783W        W78446  34.411  32.039  10.425
16784W        W78447  40.855  18.620   3.798
16785W        W78448  41.310  38.885  12.461
16786W        W78449  18.234  19.662   4.765
16787W        W78450  34.601  44.347   4.669
16788W        W78451  26.684   1.325   4.641
16789W        W78452  36.582  22.044  10.912
16790W        W78453  27.187  13.328  11.417
16791W        W78454  40.322  38.563  13.358
16792W        W78455  34.445  35.050   0.394
16793W        W78456  14.596   3.316   0.961
16794W        W78457  28.459  26.553   4.208
16795W        W78458  35.478  24.207   2.668
16796W        W78459  29.067  35.933  13.461
16797W        W78460  31.947  30.909  13.449
16798W        W78461  17.624  10.689   3.350
16799W        W78462  41.466   0.846   5.151
16800W        W78463  21.232  25.532  12.515
16801W        W78464   0.837  11.782   2.889
16802W        W78465  27.469  15.700  11.064
16803W        W78466   3.241   5.699   1.848
16804W        W78467  40.432  43.355  14.468
16805W        W78468  15.677  10.803  11.570
16806W        W78469  27.668  20.603   0.442
16807W        W78470  25.487  11.207  11.504
16808W        W78471  29.588  15.111  14.331
16809W        W78472  40.530  18.163   0.295
16810W        W78473  23.724   5.283   5.163
16811W        W78474  30.086  33.593   3.818
16812W        W78475  36.409  10.651   1.427
16813W        W78476  13.780  37.878   3.309
16814W        W78477   9.814   2.958   3.842
16815W        W78478  24.643  41.840  12.469
16816W        W78479  10.856  26.686   4.742
16817W        W78480  39.378  11.182   4.778
16818W        W78481  29.014  36.882  14.426
16819W        W78482  43.897  42.897   2.191
16820W        W78483  39.874  20.658   0.869
16821W        W78484  28.537  10.246  11.916
16822W        W78485   1.946  14.158   3.250
16823W        W78486   2.299  20.182  11.054
16824W        W78487  28.664  36.877  12.574
16825W        W78488   8.762  36.373   2.373
16826W        W78489  37.355  23.544   3.188
16827W        W78490  23.008  35.496  13.054
16828W        W78491  19.765  34.441  11.384
16829W        W78492  41.986  39.409  13.500
16830W        W78493  17.262  29.453  11.405
16831W        W78494  38.857   0.421  10.408
16832W        W78495  12.122  11.857   2.860
16833W        W78496  41.951  42.364  11.034
16834W        W78497  35.426  43.864   0.932
16835W        W78498  37.507  37.510   5.162
16836W        W78499  12.753  13.602  10.535
16837W        W78500   2.303   3.876   2.819
16838W        W78501  13.224  24.222  13.309
16839W        W78502  35.065   4.434   2.711
16840W        W78503  10.847  31.936  13.031
16841W        W78504  19.138  14.307   1.298
16842W        W78505  32.439  24.112   4.267
16843W        W78506  23.131  41.362  10.627
16844W        W78507  25.177  14.318  11.462
16845W        W78508  27.519  20.558  12.381
16846W        W78509  33.447  24.614  10.105
16847W        W78510  39.423  31.912   0.834
16848W        W78511  27.524  33.959  10.965
16849W        W78512  16.133  24.030  11.426
16850W        W78513   1.837  33.946  11.885
16851W        W78514   0.969  42.343   2.833
16852W        W78515  39.547   1.327   3.336
16853W        W78516  41.390  19.563  10.527
16854W        W78517  20.180   1.790  14.454
16855W        W78518  41.417  22.141   4.209
16856W        W78519  12.200   0.491   3.744
16857W        W78520  21.089  41.870  12.867
16858W        W78521  25.110  41.851   4.739
16859W        W78522  29.463  25.084   1.307
16860W        W78523  33.030   0.438   4.610
16861W        W78524  16.654   0.887  13.891
16862W        W78525  22.998   6.183  14.907
16863W        W78526   8.205   7.826  11.602
16864W        W78527  40.381  24.154  11.441
16865W        W78528  18.219  15.751   0.412
16866W        W78529  18.223  18.078   3.728
16867W        W78530  39.907  12.702  10.430
16868W        W78531  30.023  23.513  10.948
16869W        W78532  13.843  42.401   1.292
16870W        W78533  37.988  25.002  12.547
16871W        W78534  30.544  19.747  12.503
16872W        W78535  36.392  18.154  10.101
16873W        W78536  30.164   5.702  14.368
16874W        W78537  40.921  27.980   4.834
16875W        W78538  21.629  39.544  14.276
16876W        W78539  28.568  24.029   2.721
16877W        W78540  40.849  21.229  11.603
16878W        W78541  43.833  22.057   4.722
16879W        W78542  10.326  34.406  14.294
16880W        W78543  38.381  41.301  13.847
16881W        W78544  17.133   8.678   2.752
16882W        W78545  30.996  25.198  14.806
16883W        W78546  38.053  28.668   0.449
16884W        W78547  20.201  35.380   1.707
16885W        W78548  21.255   5.251   0.381
16886W        W78549  14.739   2.312   2.857
16887W        W78550  43.953  16.801  14.958
16888W        W78551  17.772  34.002  12.901
16889W        W78552  17.609  28.108  10.458
16890W        W78553   9.865   6.207   0.413
16891W        W78554  17.698  24.724  10.923
16892W        W78555  15.578  40.494   1.448
16893W        W78556  11.859  30.141   0.345
16894W        W78557  15.192  21.105   1.242
16895W        W78558  43.980  35.466   1.451
16896W        W78559  34.563  39.363  11.995
16897W        W78560  20.529  37.381   0.888
16898W        W78561  12.741  10.858   3.368
16899W        W78562  11.640  34.890   3.709
16900W        W78563   3.373  25.683  14.978
16901W        W78564  24.206   2.416   2.322
16902W        W78565   5.858  44.281   2.760
16903W        W78566  16.251  24.996  12.849
16904W        W78567  28.948  25.036  12.851
16905W        W78568  31.609  30.968   1.354
16906W        W78569  43.777  12.765   2.861
16907W        W78570  43.832  32.559  10.452
16908W        W78571  37.899   6.381  14.473
16909W        W78572  14.689  38.340  12.935
16910W        W78573  40.431   9.716  10.472
16911W        W78574   9.654   5.317  14.320
16912W        W78575  33.894  31.043  11.928
16913W        W78576  16.160  33.082   2.208
16914W        W78577  10.644  40.400   3.313
16915W        W78578  22.702  32.074   5.266
16916W        W78579  29.010  34.376   4.120
16917W        W78580  12.853  15.657  14.854
16918W        W78581   2.927  40.305   1.730
16919W        W78582  36.098  44.479  11.380
16920W        W78583  14.260  36.577  10.485
16921W        W78584  30.640  36.963   3.699
16922W        W78585  10.220  16.750   0.946
16923W        W78586   8.699  11.133  12.386
16924W        W78587   2.848  15.307  14.829
16925W        W78588  33.113  25.999  13.456
16926W        W78589   2.283  43.445   1.782
16927W        W78590  34.046  13.326  12.087
16928W        W78591   2.297  15.206   1.719
16929W        W78592   3.364  33.021  14.797
16930W        W78593  14.632  27.501   3.798
16931W        W78594  15.614  37.959   3.747
16932W        W78595  16.662   7.200   4.236
16933W        W78596  36.036   9.734  12.996
16934W        W78597  37.493  15.224   0.327
16935W        W78598  36.377   2.313   3.338
16936W        W78599  17.609  27.536  10.504
16937W        W78600  30.153  36.446   0.856
16938W        W78601  41.975  24.041  11.605
16939W        W78602   3.719  35.047  11.002
16940W        W78603  14.784  31.472  11.081
16941W        W78604   6.380  29.625   2.718
16942W        W78605  15.600  10.203   1.302
16943W        W78606  27.632  18.564  12.456
16944W        W78607  31.482  22.149  14.310
16945W        W78608  17.270  24.111   3.742
16946W        W78609  24.991  42.006  10.142
16947W        W78610  19.730  37.860  12.843
16948W        W78611  18.552   2.769   3.359
16949W        W78612  23.095   7.268   4.275
16950W        W78613  39.849  33.511   1.722
16951W        W78614  42.333  20.529   1.800
16952W        W78615   1.877  36.383  13.324
16953W        W78616  30.060  36.963  14.369
16954W        W78617   7.742  36.382   3.213
16955W        W78618   5.890  21.587   3.727
16956W        W78619  37.511  26.560  13.833
16957W        W78620  23.723  17.613   1.706
16958W        W78621  21.212   8.836  13.459
16959W        W78622   4.265  28.952  11.491
16960W        W78623  20.524   5.756  11.463
16961W        W78624  30.421  44.955   1.225
16962W        W78625  42.527   1.253  14.826
16963W        W78626  36.524  14.711  12.472
16964W        W78627  42.860   3.859   5.123
16965W        W78628  28.034   1.303   4.317
16966W        W78629  42.977  32.504  11.058
16967W        W78630  34.030  37.837   0.379
16968W        W78631   7.857  21.217  13.498
16969W        W78632  18.678  43.378  14.295
16970W        W78633  34.053  43.864  12.511
16971W        W78634  39.933  18.093   0.958
16972W        W78635  32.596  17.246   3.852
16973W        W78636  16.124  43.879   2.732
16974W        W78637  11.755  39.378   9.994
16975W        W78638  30.571   5.774   2.294
16976W        W78639   3.325  31.550   4.813
16977W        W78640  17.746  21.149  13.975
16978W        W78641  34.513  10.210   4.149
16979W        W78642   5.205  10.738  11.101
16980W        W78643  27.562   2.266  11.484
16981W        W78644   2.413  32.555  13.014
16982W        W78645   0.368  31.434  10.456
16983W        W78646  36.961  41.349   3.768
16984W        W78647  38.925  17.618   2.744
16985W        W78648   2.409  25.509  10.592
16986W        W78649  32.917  29.455  12.078
16987W        W78650  32.618  41.955   1.371
16988W        W78651  21.061   5.250   4.342
16989W        W78652  36.940  32.014   3.369
16990W        W78653  16.183   8.204   3.200
16991W        W78654  29.665  31.638   2.338
16992W        W78655  15.753  42.901  13.994
16993W        W78656   5.834  37.421   4.687
16994W        W78657   2.468   7.838  11.382
16995W        W78658  33.482   3.892   4.665
16996W        W78659  29.534  14.704  13.030
16997W        W78660  27.128  19.548  12.870
16998W        W78661  27.075  11.743   1.447
16999W        W78662  13.264  20.260  11.563
17000W        W78663  30.654  16.188  12.005
17001W        W78664  40.507  40.495  11.058
17002W        W78665   8.293  14.155   2.732
17003W        W78666   5.292   1.953  12.506
17004W        W78667  20.641  40.036  11.431
17005W        W78668  21.199  42.784  10.015
17006W        W78669  17.146  43.339  12.982
17007W        W78670  22.091  11.178  10.405
17008W        W78671   0.861  43.962   0.750
17009W        W78672  41.317  44.778   2.897
17010W        W78673   1.878   6.238   4.274
17011W        W78674  13.265  38.040  12.065
17012W        W78675  32.418  23.676  11.064
17013W        W78676  31.921  14.258   1.860
17014W        W78677   9.280  21.637  11.524
17015W        W78678  10.699  17.281   2.212
17016W        W78679  35.058  41.962  14.426
17017W        W78680  19.283  37.043  14.986
17018W        W78681  24.022   8.342   1.880
17019W        W78682   7.253  26.032   4.156
17020W        W78683  42.867  19.658  12.907
17021W        W78684  30.442  12.741  11.485
17022W        W78685  42.018   9.342   0.908
17023W        W78686  25.470   3.330   4.697
17024W        W78687  31.489  15.782   0.335
17025W        W78688   8.247  38.961   0.289
17026W        W78689  27.958  12.792   4.659
17027W        W78690   1.453  26.068   3.327
17028W        W78691   6.368  10.258   5.147
17029W        W78692  23.539   8.830  12.882
17030W        W78693  34.897  38.366   4.329
17031W        W78694  27.075   8.369  10.492
17032W        W78695  37.855  22.524  11.568
17033W        W78696  37.463  26.638   4.607
17034W        W78697   8.833  19.117  13.041
17035W        W78698  28.091  17.756   0.752
17036W        W78699  39.332  44.501  10.979
17037W        W78700  13.326  34.915   0.748
17038W        W78701  28.548  39.517   3.361
17039W        W78702  40.016  23.725   3.717
17040W        W78703   4.204  24.523  13.461
17041W        W78704  32.123   3.236   2.789
17042W        W78705  31.512   1.848   3.309
17043W        W78706  11.858  25.651  13.398
17044W        W78707  32.072  29.016  11.083
17045W        W78708  38.436   8.248   5.706
17046W        W78709   7.677  31.633   1.885
17047W        W78710   1.482  23.125   3.641
17048W        W78711  12.771   8.307   1.918
17049W        W78712  15.713  11.224   1.308
17050W        W78713  33.945  29.127   3.307
17051W        W78714  19.088  29.567   0.831
17052W        W78715   7.865   5.339  13.972
17053W        W78716   2.959   2.791  11.551
17054W        W78717  17.622  36.483   0.828
17055W        W78718   4.719  23.054   1.438
17056W        W78719  41.333  18.238  11.893
17057W        W78720  24.694   5.319  13.956
17058W        W78721  39.846  28.447   2.338
17059W        W78722  44.872   6.319  13.529
17060W        W78723  16.169  34.072  14.809
17061W        W78724  24.717  41.788   4.746
17062W        W78725  31.604  14.762   0.888
17063W        W78726  12.205  14.697  12.050
17064W        W78727  22.038   4.897   4.611
17065W        W78728   6.323   0.816  14.276
17066W        W78729  33.043   6.718   1.897
17067W        W78730  44.804  36.970   2.317
17068W        W78731  14.315  10.335   1.436
17069W        W78732  36.848  33.052   1.413
17070W        W78733  42.521   3.824   1.709
17071W        W78734  43.515   7.281  14.355
17072W        W78735  18.675  23.103   1.397
17073W        W78736   9.390  40.808   3.785
17074W        W78737   2.252   6.314  10.594
17075W        W78738   3.816   4.306  14.816
17076W        W78739  11.229  10.873  14.916
17077W        W78740  41.424  36.534  13.535
17078W        W78741  26.620  35.360   3.700
17079W        W78742  26.163  16.224   1.756
17080W        W78743  22.736  21.625  12.524
17081W        W78744   2.446  32.014   1.875
17082W        W78745   9.181  12.815  12.479
17083W        W78746  37.055  37.940  12.435
17084W        W78747  33.964   3.320   4.311
17085W        W78748  36.914  20.648  14.379
17086W        W78749  35.471   8.228   1.443
17087W        W78750  19.113  13.789  12.372
17088W        W78751   7.205  38.953  13.905
17089W        W78752  38.906  20.614   1.811
17090W        W78753   7.887  35.059  12.020
17091W        W78754  43.795  27.986  14.772
17092W        W78755  31.401  31.992   0.451
17093W        W78756  32.082  39.527   4.616
17094W        W78757  31.045  20.070   2.663
17095W        W78758  23.030  32.630   1.797
17096W        W78759  44.358   0.746   3.188
17097W        W78760   7.825  19.068   1.212
17098W        W78761  20.598  37.903   1.443
17099W        W78762  39.324  36.897  13.989
17100W        W78763  35.368  15.282  11.601
17101W        W78764  19.155  12.282   3.259
17102W        W78765  30.427  13.288  14.873
17103W        W78766   3.713   6.812   4.345
17104W        W78767   2.889  12.281   1.912
17105W        W78768   6.350  42.963   3.692
17106W        W78769   7.783  11.297  10.945
17107W        W78770  10.712  15.130  14.366
17108W        W78771   5.689  12.694  11.495
17109W        W78772  26.567  38.364   3.154
17110W        W78773  39.448  23.589   1.403
17111W        W78774   1.377  16.258   0.443
17112W        W78775  13.277   6.350  14.924
17113W        W78776  38.829  31.440   0.902
17114W        W78777  10.201  39.500  10.132
17115W        W78778  38.875  23.999  10.987
17116W        W78779  11.793  11.142  12.094
17117W        W78780  36.015  24.122   1.332
17118W        W78781  19.734  24.556  14.311
17119W        W78782  20.741  13.149  12.000
17120W        W78783  22.567  20.188  14.863
17121W        W78784  42.008   3.844   2.816
17122W        W78785  12.640  30.083  10.567
17123W        W78786   7.219   5.353   2.865
17124W        W78787   9.668  18.741  11.574
17125W        W78788  23.623   7.711   1.389
17126W        W78789   0.761   5.214   0.915
17127W        W78790  14.802  19.097   1.898
17128W        W78791   5.297  36.517  11.059
17129W        W78792  44.877  27.012   2.298
17130W        W78793   9.154  15.690   1.227
17131W        W78794  31.934  41.033   3.289
17132W        W78795  20.074  28.634  11.081
17133W        W78796   2.234  38.822   3.846
17134W        W78797  22.154  31.041   3.720
17135W        W78798  30.656   5.364   1.812
17136W        W78799   5.835  13.211  14.479
17137W        W78800  38.902   7.677   4.619
17138W        W78801  24.518  18.711  12.501
17139W        W78802  31.613   9.870  14.469
17140W        W78803  30.558   9.287  10.483
17141W        W78804  33.491  38.865  10.937
17142W        W78805  19.104   9.209   3.804
17143W        W78806  41.900   6.355  10.628
17144W        W78807  40.402  40.953   3.257
17145W        W78808  30.537   2.830  10.897
17146W        W78809  16.091   1.966  13.463
17147W        W78810  42.852  10.692  11.954
17148W        W78811   5.868   9.695  14.499
17149W        W78812   4.372   3.268  13.986
17150W        W78813  13.326  39.326  12.365
17151W        W78814   1.333   4.420   3.180
17152W        W78815   8.266  11.706  14.445
17153W        W78816  44.977  33.592  12.548
17154W        W78817   3.333  14.241   3.769
17155W        W78818  18.655  34.420  14.469
17156W        W78819  35.600  13.219  14.333
17157W        W78820   5.348   4.247   4.792
17158W        W78821  35.582  36.359  14.317
17159W        W78822  35.858  12.715   1.887
17160W        W78823  13.111  18.579  12.907
17161W        W78824   0.816  38.955   1.414
17162W        W78825   4.413  17.202  12.877
17163W        W78826  25.125  13.247   3.352
17164W        W78827   3.765  18.579  14.349
17165W        W78828  15.142  26.101   0.308
17166W        W78829   6.278  23.139  11.396
17167W        W78830   9.157   2.263   0.768
17168W        W78831  25.979  29.479   0.264
17169W        W78832  33.986  12.291   0.802
17170W        W78833  37.942  39.832  10.508
17171W        W78834   5.285  17.122   4.625
17172W        W78835  12.700  19.150   1.757
17173W        W78836  38.962  22.556  11.911
17174W        W78837  25.121  42.337   0.916
17175W        W78838  25.602  36.035   3.220
17176W        W78839  34.017  21.136   3.868
17177W        W78840  18.567   6.893   4.692
17178W        W78841  11.200   0.286  13.977
17179W        W78842  15.222  30.423   4.175
17180W        W78843   0.391   1.952  14.832
17181W        W78844  25.162   6.379  11.522
17182W        W78845  10.817  36.006  13.983
17183W        W78846  26.029  10.201   3.258
17184W        W78847  10.267  43.352   0.778
17185W        W78848  26.629  24.551   3.854
17186W        W78849   2.235   6.305  12.495
17187W        W78850  27.601   0.805   0.958
17188W        W78851  43.797  29.597  12.521
17189W        W78852   9.824   1.919   2.722
17190W        W78853  27.940  33.456   3.682
17191W        W78854  30.137   7.324   3.364
17192W        W78855  24.480  31.633   2.727
17193W        W78856  10.636  26.587   2.366
17194W        W78857  39.945   9.259   5.754
17195W        W78858  21.086  14.808  10.115
17196W        W78859  27.592   6.302  11.606
17197W        W78860  20.177   4.796   1.252
17198W        W78861  22.718  16.694  13.038
17199W        W78862  26.052  39.516   9.544
17200W        W78863  33.087   8.354   3.212
17201W        W78864  30.075  27.568   0.441
17202W        W78865  39.422   9.886  13.966
17203W        W78866   9.339  35.594   0.407
17204W        W78867  10.335  38.030   4.614
17205W        W78868  35.056  33.399  14.358
17206W        W78869  40.430  14.741  11.601
17207W        W78870   7.891  23.215  14.484
17208W        W78871  38.349   2.232  12.847
17209W        W78872   9.378  32.578  11.519
17210W        W78873  15.625  28.073  12.987
17211W        W78874  40.972   7.752  14.983
17212W        W78875  35.059  34.444  12.417
17213W        W78876  11.185   3.272   0.815
17214W        W78877  43.878  31.424  13.432
17215W        W78878  12.643  15.658  12.340
17216W        W78879  39.469  15.749  11.000
17217W        W78880  29.952  16.195  12.382
17218W        W78881  35.016  10.153   3.861
17219W        W78882  16.131  41.364   3.738
17220W        W78883   3.240   7.877  12.488
17221W        W78884  23.218  39.052  13.526
17222W        W78885  28.961   6.806  10.455
17223W        W78886  32.410   7.869   2.690
17224W        W78887  20.692  33.075   2.885
17225W        W78888  12.617  25.588  11.521
17226W        W78889  11.255  42.461   2.732
17227W        W78890  10.655   9.691   0.771
17228W        W78891  21.159  24.556  12.036
17229W        W78892  29.029  23.058  10.635
17230W        W78893   0.433   0.437   3.292
17231W        W78894  27.604   5.308   1.337
17232W        W78895  32.525  14.321  12.391
17233W        W78896   1.865  32.480  14.318
17234W        W78897  37.074  19.697   3.678
17235W        W78898  41.829   8.200  12.389
17236W        W78899   2.443  24.513   0.441
17237W        W78900  22.727  13.228   4.146
17238W        W78901   2.923  44.943   1.738
17239W        W78902   9.873  37.877  11.394
17240W        W78903  25.193  42.885   1.698
17241W        W78904   6.849  17.133  12.003
17242W        W78905  28.496  26.592   0.907
17243W        W78906   9.885   6.679   1.225
17244W        W78907   4.926   6.789   0.957
17245W        W78908  20.739  12.355  14.828
17246W        W78909  37.054  34.017  14.416
17247W        W78910   2.879  30.945   0.930
17248W        W78911  24.638   3.868   4.705
17249W        W78912  12.350  22.529  12.000
17250W        W78913  23.714  29.073   2.823
17251W        W78914  21.056  14.095  14.991
17252W        W78915  13.788  41.823   4.662
17253W        W78916  41.044  32.024   1.287
17254W        W78917  27.958   1.735   1.709
17255W        W78918  32.010  28.993   3.351
17256W        W78919   7.206   8.401   4.265
17257W        W78920  10.254  30.439   4.831
17258W        W78921  16.180  38.492   3.224
17259W        W78922  14.741  30.439   3.854
17260W        W78923  35.365  12.331  14.976
17261W        W78924  14.258  18.194  12.843
17262W        W78925  16.747   2.960  12.374
17263W        W78926  33.880   3.387   1.815
17264W        W78927  23.055  29.507   3.761
17265W        W78928  24.230   2.334   0.863
17266W        W78929  23.143  23.630  10.428
17267W        W78930  44.425  17.190  12.579
17268W        W78931  20.590   6.421   2.329
17269W        W78932  13.314  28.139   1.919
17270W        W78933  35.880  30.521  13.974
17271W        W78934  39.845  43.794   3.663
17272W        W78935  12.646  20.199   0.333
17273W        W78936  13.196  42.411   2.212
17274W        W78937   0.932   2.867  14.784
17275W        W78938  27.980  35.990   1.447
17276W        W78939   8.225  27.094   0.435
17277W        W78940  11.142  37.504  11.069
17278W        W78941  37.055  38.824  11.073
17279W        W78942  25.543   1.267   3.252
17280W        W78943  26.129  13.644   4.288
17281W        W78944   7.306  10.253  10.431
17282W        W78945  24.711  13.620  10.941
17283W        W78946   5.392  21.687   0.816
17284W        W78947  11.209   6.237  10.573
17285W        W78948  27.552  19.700   2.782
17286W        W78949   6.858  43.346  14.026
17287W        W78950  39.849  21.039   4.286
17288W        W78951  22.063  38.368   4.805
17289W        W78952  19.210  30.421   1.760
17290W        W78953  16.774   2.254   3.756
17291W        W78954  34.443   9.159   9.950
17292W        W78955  44.333   3.787   0.363
17293W        W78956  44.761  12.327   1.897
17294W        W78957   8.687  10.684  12.563
17295W        W78958   5.775   7.801   3.262
17296W        W78959  21.586   5.915   1.856
17297W        W78960  31.584   8.864  10.483
17298W        W78961  32.019  10.715  13.807
17299W        W78962  28.667  18.177   3.182
17300W        W78963  28.439  38.395   4.834
17301W        W78964  38.888  10.687  14.999
17302W        W78965  38.348  19.702   1.323
17303W        W78966  37.423  41.901   0.295
17304W        W78967  18.153  12.777   3.180
17305W        W78968   6.846  26.192   4.792
17306W        W78969  40.504  31.120   2.709
17307W        W78970  24.983  26.558  14.465
17308W        W78971  14.746  10.294  10.120
17309W        W78972   7.365  26.544   1.785
17310W        W78973  17.760  17.192   2.809
17311W        W78974  23.635  36.073   2.255
17312W        W78975  43.321  16.567  13.800
17313W        W78976  30.512   4.377   1.446
17314W        W78977  41.925  42.489  14.388
17315W        W78978  15.741  18.115  12.415
17316W        W78979  18.157  28.008  14.915
17317W        W78980   8.251  40.305   0.818
17318W        W78981  17.299   6.204  11.991
17319W        W78982  38.504   5.293  13.869
17320W        W78983  32.965  34.956   3.217
17321W        W78984  21.209  23.161   4.742
17322W        W78985  29.097  19.691  11.037
17323W        W78986  11.279  21.612   2.876
17324W        W78987   1.812  16.612  12.908
17325W        W78988  24.197   4.767   0.253
17326W        W78989  20.561  34.612  14.305
17327W        W78990  26.027  14.800  13.956
17328W        W78991   8.376  39.493  11.584
17329W        W78992  21.201  35.556   4.601
17330W        W78993  35.110  10.379  11.030
17331W        W78994  30.950  38.527  11.464
17332W        W78995   8.405  25.129   2.330
17333W        W78996   4.753  24.002  11.976
17334W        W78997   2.268  40.312  11.489
17335W        W78998   6.893  26.999  14.861
17336W        W78999  12.616  12.174  13.023
17337W        W79000   1.933  34.946   0.835
17338W        W79001  31.150   5.353   3.322
17339W        W79002   5.706   1.354  12.513
17340W        W79003  31.058  25.515  14.487
17341W        W79004   5.423  42.852  11.534
17342W        W79005   0.383  15.156   3.785
17343W        W79006  40.527  36.030  14.428
17344W        W79007  39.888  32.919   2.320
17345W        W79008  31.441   6.381   9.962
17346W        W79009  25.652  17.233  14.506
17347W        W79010  43.373  13.223  14.393
17348W        W79011  28.166  33.922  10.410
17349W        W79012  36.099  13.184   4.713
17350W        W79013  26.072  21.098  10.468
17351W        W79014  21.085   8.713  10.430
17352W        W79015  21.519  18.727  13.386
17353W        W79016  20.146  43.793   2.355
17354W        W79017  29.644  40.022  12.093
17355W        W79018  27.516   1.812  13.391
17356W        W79019  41.305  21.201  13.998
17357W        W79020  43.488   5.918   0.823
17358W        W79021  28.542  10.759  12.056
17359W        W79022  10.750  41.448   1.769
17360W        W79023  11.783  26.518   3.811
17361W        W79024  20.183  25.996   3.314
17362W        W79025   7.789  36.955   4.620
17363W        W79026  10.221  41.968   1.807
17364W        W79027   8.222  28.468  11.494
17365W        W79028   2.854  14.270   3.331
17366W        W79029  38.365  27.007  14.326
17367W        W79030   5.398  14.668  14.411
17368W        W79031  20.241  42.928  13.363
17369W        W79032  20.118   6.310  13.044
17370W        W79033  23.073  31.068   0.307
17371W        W79034  24.535  27.523   1.823
17372W        W79035  41.475  32.492  13.956
17373W        W79036  23.494  25.125   0.966
17374W        W79037  43.766  35.090  13.462
17375W        W79038   4.889   9.845  11.034
17376W        W79039  31.031   4.431  13.457
17377W        W79040  13.734  30.165   4.807
17378W        W79041  44.838   6.720   2.732
17379W        W79042  23.998   6.883   5.098
17380W        W79043   2.824  27.994   2.853
17381W        W79044  21.196  32.589   3.208
17382W        W79045   4.859   3.723   2.706
17383W        W79046   5.369  11.292  14.929
17384W        W79047  25.209   9.799  11.892
17385W        W79048   4.834  24.577   3.356
17386W        W79049  27.472   2.425  12.386
17387W        W79050   3.281   8.780  14.384
17388W        W79051  23.574   7.876   2.727
17389W        W79052   0.366   9.276   5.132
17390W        W79053  11.719  34.933  10.558
17391W        W79054  34.114  12.198   4.287
17392W        W79055  14.154  25.131   1.408
17393W        W79056   2.402  39.847   1.832
17394W        W79057  43.925  41.851  14.295
17395W        W79058  39.349  23.536  13.814
17396W        W79059  41.868  26.097   3.333
17397W        W79060   0.352   4.424   2.821
17398W        W79061  36.094  23.088  14.861
17399W        W79062  11.681   3.318  11.550
17400W        W79063  40.904  38.478  11.068
17401W        W79064  21.757   4.416  12.467
17402W        W79065  28.621  28.449  12.859
17403W        W79066   2.331  36.532  12.447
17404W        W79067   3.312  21.596  11.381
17405W        W79068  14.825   6.265  10.643
17406W        W79069  20.187  30.605   0.429
17407W        W79070  44.349   1.397  12.567
17408W        W79071  23.690  18.104   1.281
17409W        W79072   2.318  37.909  10.441
17410W        W79073  30.977  26.172  10.608
17411W        W79074  40.514  15.148  14.957
17412W        W79075  28.165  11.830   3.814
17413W        W79076  26.154  29.545  11.503
17414W        W79077   7.862  29.959   0.457
17415W        W79078  29.099  34.036   3.159
17416W        W79079  16.191  32.632   2.673
17417W        W79080   4.722  16.694  14.346
17418W        W79081  44.942  43.904  10.975
17419W        W79082  39.871  30.474   3.759
17420W        W79083  28.162  11.220   2.798
17421W        W79084  33.992  40.810   4.830
17422W        W79085  32.521  26.112   2.845
17423W        W79086  24.648  35.512   4.718
17424W        W79087  20.579  34.018   4.170
17425W        W79088   6.728  35.381   0.883
17426W        W79089  38.376  43.472  13.799
17427W        W79090  30.581  16.746  13.357
17428W        W79091  34.097  43.843  14.406
17429W        W79092   9.773   8.169  11.452
17430W        W79093  21.736   0.939  11.385
17431W        W79094  36.358  15.687   3.342
17432W        W79095  31.425  34.429  10.553
17433W        W79096  16.263  30.068   3.667
17434W        W79097  34.878  28.465   4.269
17435W        W79098  10.173   7.224  14.998
17436W        W79099  31.574  33.534   2.839
17437W        W79100  25.982  21.099  11.452
17438W        W79101  39.537  29.003   1.211
17439W        W79102  19.613  26.156  12.013
17440W        W79103  36.006  28.089   1.236
17441W        W79104   1.267  10.267  14.818
17442W        W79105  33.982   5.873  14.938
17443W        W79106  33.958   3.782  13.542
17444W        W79107   2.456  26.523   1.722
17445W        W79108   6.700  24.575   4.293
17446W        W79109  43.456   4.789   4.228
17447W        W79110  28.008   1.764  13.017
17448W        W79111  44.374  41.795  14.292
17449W        W79112  40.509  33.435   1.389
17450W        W79113  16.262  38.412   2.183
17451W        W79114  11.143   5.883   1.824
17452W        W79115  13.799  17.160   0.412
17453W        W79116  11.746  36.020  10.966
17454W        W79117  28.505  20.132   3.686
17455W        W79118  25.699  22.233  14.025
17456W        W79119  33.418  29.567   2.277
17457W        W79120  19.110  34.052  14.275
17458W        W79121  29.568  23.090  14.290
17459W        W79122  26.190  21.740  10.947
17460W        W79123  14.804  34.018  10.534
17461W        W79124  24.545   2.370  13.436
17462W        W79125  27.494  22.058  13.048
17463W        W79126  14.684  17.238  13.823
17464W        W79127   0.926   8.219   2.723
17465W        W79128  22.513  20.030   2.287
17466W        W79129  33.489  19.552  14.896
17467W        W79130   2.399  38.478  13.031
17468W        W79131  21.061  36.011  14.493
17469W        W79132   2.791   2.389  13.481
17470W        W79133  39.353  36.975  12.077
17471W        W79134  13.215  23.633   0.303
17472W        W79135   3.722   4.432   4.280
17473W        W79136  15.151  17.572   9.503
17474W        W79137  39.520   5.853   2.205
17475W        W79138  10.717  44.932  12.472
17476W        W79139  11.352   2.909   3.240
17477W        W79140  22.677  21.695  13.311
17478W        W79141   9.715   5.899  13.495
17479W        W79142  23.004   9.828  13.857
17480W        W79143  10.248  39.466  10.941
17481W        W79144  14.678   3.815  10.421
17482W        W79145  43.816  14.644   1.800
17483W        W79146  12.142  10.724   0.463
17484W        W79147  28.441   1.780   3.291
17485W        W79148   1.432  16.235  14.779
17486W        W79149  37.830  30.043  13.495
17487W        W79150  22.624   3.424   1.900
17488W        W79151  41.987  10.680   2.356
17489W        W79152   5.404  18.241   2.277
17490W        W79153  22.062  26.564   2.402
17491W        W79154  31.981  19.761  12.029
17492W        W79155  33.586  36.976  14.357
17493W        W79156  24.103  19.624   4.776
17494W        W79157   5.760   6.847   0.746
17495W        W79158  35.012   3.941   4.208
17496W        W79159  16.713  18.666   3.215
17497W        W79160  38.963  19.192  10.518
17498W        W79161  10.314  16.239  11.984
17499W        W79162  40.898  40.500  10.524
17500W        W79163  25.000   7.698   1.335
17501W        W79164  13.672  31.944  13.797
17502W        W79165  22.622  13.172  12.905
17503W        W79166  20.670  33.512  14.891
17504W        W79167  21.554   2.915   1.858
17505W        W79168  11.222  44.765   4.729
17506W        W79169  43.772  36.041   4.600
17507W        W79170   9.751  30.469  13.880
17508W        W79171  29.008  42.984   2.878
17509W        W79172  22.087  27.158  12.447
17510W        W79173  42.002  13.222  14.922
17511W        W79174  39.867  27.574  10.458
17512W        W79175  11.359  37.468   0.841
17513W        W79176   3.453  24.110   0.275
17514W        W79177  23.018   8.341  13.533
17515W        W79178  38.553  11.177  14.826
17516W        W79179  10.303  17.114   4.729
17517W        W79180   1.789  44.392   0.343
17518W        W79181   5.696  39.999   3.363
17519W        W79182   3.713  33.989  10.974
17520W        W79183  33.976  11.281  11.982
17521W        W79184  39.981  40.314  13.871
17522W        W79185  15.238  27.977  11.867
17523W        W79186  41.296   9.217  10.927
17524W        W79187   8.856  38.363   3.281
17525W        W79188  23.660  32.502   3.816
17526W        W79189  26.612  35.060  12.910
17527W        W79190  12.660  36.086   2.362
17528W        W79191  44.791  40.437  13.925
17529W        W79192  40.982  34.886  11.096
17530W        W79193  12.258  35.031  13.012
17531W        W79194   9.223  34.968  14.502
17532W        W79195  25.164  23.540   0.284
17533W        W79196   0.886  21.582   4.145
17534W        W79197  19.169  39.986   0.274
17535W        W79198  34.952  37.967   3.248
17536W        W79199   1.774   6.263   1.223
17537W        W79200  37.383  22.619   2.673
17538W        W79201   7.336  35.956   4.610
17539W        W79202  40.941  15.797   2.352
17540W        W79203  37.848  35.391  13.363
17541W        W79204  39.881  29.942   1.440
17542W        W79205   6.190  16.610  13.813
17543W        W79206  33.130  22.728  10.950
17544W        W79207  40.934   0.855   3.634
17545W        W79208  22.533  18.606   1.743
17546W        W79209  13.635   4.281  13.373
17547W        W79210  13.764  16.133  13.431
17548W        W79211  12.757  41.413  11.451
17549W        W79212  21.096   7.684   1.383
17550W        W79213  42.285   0.426  14.494
17551W        W79214   3.422  25.997   0.482
17552W        W79215  13.758   8.897   1.323
17553W        W79216   6.344   0.777   1.427
17554W        W79217  34.592  21.119  14.946
17555W        W79218  21.132  14.795  13.445
17556W        W79219  18.665  13.204   2.754
17557W        W79220  34.113  34.054  12.434
17558W        W79221  39.461  14.283   3.175
17559W        W79222  10.356  42.901  14.326
17560W        W79223  23.144   2.266  14.020
17561W        W79224  39.817  36.926   4.217
17562W        W79225  11.821   9.174   0.367
17563W        W79226  37.991   4.401   0.735
17564W        W79227  19.069  33.128  12.958
17565W        W79228   2.328   6.743   3.378
17566W        W79229  37.934  16.308  11.481
17567W        W79230   7.217  34.426  13.469
17568W        W79231  41.862  41.844   4.329
17569W        W79232  37.874  23.105  14.985
17570W        W79233  16.150  44.967  12.964
17571W        W79234  36.005  36.851  12.878
17572W        W79235  21.069  34.494  13.884
17573W        W79236  14.254  33.594  10.627
17574W        W79237  10.185  30.148  14.023
17575W        W79238  16.231  35.049   2.711
17576W        W79239  10.325  20.763   1.387
17577W        W79240  11.311   6.236   4.221
17578W        W79241   2.792  10.770   3.792
17579W        W79242  26.098   0.349  11.885
17580W        W79243  18.699   5.796   1.720
17581W        W79244   1.867  24.167   2.249
17582W        W79245  11.734  36.427  14.402
17583W        W79246   4.882  37.904   3.338
17584W        W79247  11.865  19.230  11.528
17585W        W79248  14.186  38.410   1.259
17586W        W79249   9.694   2.817   1.319
17587W        W79250  19.553  15.683  10.115
17588W        W79251   0.487  38.076  10.604
17589W        W79252  34.072  28.521   2.773
17590W        W79253   9.681  16.267  12.946
17591W        W79254  39.871  19.580   4.219
17592W        W79255  41.949   1.879   0.433
17593W        W79256  41.485   2.814   3.337
17594W        W79257  32.398  29.474  14.305
17595W        W79258  30.929   9.674   3.355
17596W        W79259  31.024  23.059  12.450
17597W        W79260  26.133   2.917  11.518
17598W        W79261   8.304   3.795  14.994
17599W        W79262  17.583  42.495  11.975
17600W        W79263  36.483  32.608  14.866
17601W        W79264  40.328  39.866  10.602
17602W        W79265  39.939  41.513   4.633
17603W        W79266  43.840  23.492  13.912
17604W        W79267  24.113  44.312   1.793
17605W        W79268  10.344  44.915   3.784
17606W        W79269  13.837  22.197  13.485
17607W        W79270  16.186  13.307   4.755
17608W        W79271   2.443   3.720  11.498
17609W        W79272  22.714  21.050   4.801
17610W        W79273   8.754  39.473   0.255
17611W        W79274   1.855   3.767   0.363
17612W        W79275  26.122  17.626  12.999
17613W        W79276   0.836  22.593   0.729
17614W        W79277  25.541  10.185   2.233
17615W        W79278  18.668  35.501  14.884
17616W        W79279  36.543   9.373  11.031
17617W        W79280  11.154  24.684   0.376
17618W        W79281  39.917  11.744  11.430
17619W        W79282   1.412   8.218  13.486
17620W        W79283   7.726  35.102  10.443
17621W        W79284   2.900  16.625   0.267
17622W        W79285  17.274  18.256  10.999
17623W        W79286  38.001   8.361   2.269
17624W        W79287   9.811  36.864   2.273
17625W        W79288  18.750  35.491   4.717
17626W        W79289  23.542  21.706   4.133
17627W        W79290  44.919  37.553  14.940
17628W        W79291  10.702  44.769   0.311
17629W        W79292  14.603  32.004  13.424
17630W        W79293  21.109  25.569  14.479
17631W        W79294   3.800  27.691   1.723
17632W        W79295  34.981  11.657   1.448
17633W        W79296  14.689   4.405   4.315
17634W        W79297  40.000  30.095   0.756
17635W        W79298  33.582  44.306   4.806
17636W        W79299   6.286   7.809  12.893
17637W        W79300  33.005   0.968  13.483
17638W        W79301   5.257  17.645  13.447
17639W        W79302  43.384  29.972  13.825
17640W        W79303  32.134  36.434   4.661
17641W        W79304  21.731   5.406  11.567
17642W        W79305  41.837   4.317   3.206
17643W        W79306  29.967  27.181   3.707
17644W        W79307  40.438  29.500  14.368
17645W        W79308  20.692  20.603  10.536
17646W        W79309  40.537  23.157  10.577
17647W        W79310  15.770   2.399   3.735
17648W        W79311   7.905  15.638  13.329
17649W        W79312   0.247  38.544   4.132
17650W        W79313  26.953  36.845   4.796
17651W        W79314  33.614  44.461   0.374
17652W        W79315  15.586   6.822   0.379
17653W        W79316  29.563  21.095  14.942
17654W        W79317   6.372  16.082   1.719
17655W        W79318   7.187  30.486   0.466
17656W        W79319  27.966  24.615   4.698
17657W        W79320   4.280  40.371  13.906
17658W        W79321  19.185  27.623   2.344
17659W        W79322  40.886  43.834  10.992
17660W        W79323  31.442   6.814  11.989
17661W        W79324  23.522   1.346   2.201
17662W        W79325  36.465  28.550  10.929
17663W        W79326  29.428  14.829   4.187
17664W        W79327  18.702  43.857  14.482
17665W        W79328  27.041  37.555  12.490
17666W        W79329  19.749  11.868  14.458
17667W        W79330  36.525  23.183  10.900
17668W        W79331   7.284  17.621   3.736
17669W        W79332  34.089  20.534   2.271
17670W        W79333  13.721  24.979   4.647
17671W        W79334  10.741  25.973   3.867
17672W        W79335   6.858  35.523  12.991
17673W        W79336  36.919  30.428   0.822
17674W        W79337  43.013  27.114  13.057
17675W        W79338  32.949  15.741  12.830
17676W        W79339  25.132   3.298   4.275
17677W        W79340  34.537  22.150   0.741
17678W        W79341  39.875  23.525  14.023
17679W        W79342  26.131  44.999  13.399
17680W        W79343  38.458  29.657  13.925
17681W        W79344   1.768   9.240  14.885
17682W        W79345  16.134   8.174   1.425
17683W        W79346   3.799  27.641   3.224
17684W        W79347  35.040   6.320   2.415
17685W        W79348  30.073   4.808  10.562
17686W        W79349  41.346  21.627  12.447
17687W        W79350  14.339  34.392   0.371
17688W        W79351  21.608  42.405   3.202
17689W        W79352  15.683  10.644   3.274
17690W        W79353   7.408  25.655  14.985
17691W        W79354   4.239  41.848  13.369
17692W        W79355  13.672  11.170   0.802
17693W        W79356  26.965  23.627  10.449
17694W        W79357  41.937   0.890  12.346
17695W        W79358   2.788  36.860   1.239
17696W        W79359  19.044   6.748  13.502
17697W        W79360  40.846   3.900  10.533
17698W        W79361  44.362  30.016   2.701
17699W        W79362   7.362  36.388  11.582
17700W        W79363  41.850  23.008   3.655
17701W        W79364  33.566   4.232   0.872
17702W        W79365  39.837  17.304   4.261
17703W        W79366  37.462  44.290   3.300
17704W        W79367  35.004  26.015  13.947
17705W        W79368  10.807   7.672  10.891
17706W        W79369   1.952  34.530   3.325
17707W        W79370  28.566  30.911   1.233
17708W        W79371   8.682  38.920   4.195
17709W        W79372  44.841  25.168   3.174
17710W        W79373  38.068  40.966  10.513
17711W        W79374  10.673  41.911   0.270
17712W        W79375   3.256  19.648   0.778
17713W        W79376  20.536   3.322   2.264
17714W        W79377  19.083  42.833  11.108
17715W        W79378   9.181  38.553   4.167
17716W        W79379  22.072  29.635  12.387
17717W        W79380  21.722  26.172  11.106
17718W        W79381   8.403  28.473   0.878
17719W        W79382  13.157  43.844  11.105
17720W        W79383  35.944  19.143  10.146
17721W        W79384  23.202  43.954   1.373
17722W        W79385  31.080  40.379  14.853
17723W        W79386  35.545   4.250   2.843
17724W        W79387  25.001   4.799   4.134
17725W        W79388  16.302  20.569  13.342
17726W        W79389  29.591  31.597  13.540
17727W        W79390  17.244  34.979   2.815
17728W        W79391   4.420  42.375   2.837
17729W        W79392  23.617  26.531   5.127
17730W        W79393  14.591  30.161   0.759
17731W        W79394  14.731  35.511   4.614
17732W        W79395  38.443  24.492  12.479
17733W        W79396  24.609   5.289   1.411
17734W        W79397  29.664   8.875   2.779
17735W        W79398  39.836  26.041   4.143
17736W        W79399  39.531  27.118   3.661
17737W        W79400   5.194  15.289  12.096
17738W        W79401  23.131  22.215  10.621
17739W        W79402  18.201  30.544   4.631
17740W        W79403  26.172   7.850   3.682
17741W        W79404   5.819  10.633  13.547
17742W        W79405  36.506  40.358   2.741
17743W        W79406  25.651  35.050  14.317
17744W        W79407  44.480  30.530   0.321
17745W        W79408   4.822   6.728  13.048
17746W        W79409  11.731   1.389  10.916
17747W        W79410   5.882  35.008   3.819
17748W        W79411  24.537   9.283   0.434
17749W        W79412  37.893  20.267  14.499
17750W        W79413  18.623  34.573  11.893
17751W        W79414  25.658  13.206   1.357
17752W        W79415   3.845  19.260   4.212
17753W        W79416  41.818   8.366   3.287
17754W        W79417  39.847  43.006   1.754
17755W        W79418   5.349  20.673   1.824
17756W        W79419  35.504   6.917   0.247
17757W        W79420  21.132  25.187  14.836
17758W        W79421  40.839  42.997   4.714
17759W        W79422  41.912  14.611  10.978
17760W        W79423  43.788  20.724   3.194
17761W        W79424  28.620   8.206  11.003
17762W        W79425  24.995  40.546  13.342
17763W        W79426   1.790   1.423  10.593
17764W        W79427   8.886   8.355   4.350
17765W        W79428  43.847  10.377   1.331
17766W        W79429  29.147   9.268  12.348
17767W        W79430  37.537  16.232  13.012
17768W        W79431  13.777  20.536   4.315
17769W        W79432  10.867  19.761  13.380
17770W        W79433  30.154  30.995   1.883
17771W        W79434  35.919   1.972  10.901
17772W        W79435  39.511  40.353   3.654
17773W        W79436  44.287  30.571   2.763
17774W        W79437  33.106  33.619   0.772
17775W        W79438  42.328  10.836  12.475
17776W        W79439  27.586  33.958   2.684
17777W        W79440  21.709   7.823   0.947
17778W        W79441   6.257  39.997   5.263
17779W        W79442   8.362  42.381   2.794
17780W        W79443   5.854  16.204  13.487
17781W        W79444  37.497   1.383   1.731
17782W        W79445   4.449  30.438   3.724
17783W        W79446  20.671  23.566  12.031
17784W        W79447  36.025  13.734  13.475
17785W        W79448   9.368  39.461  12.351
17786W        W79449  23.537   7.766   4.634
17787W        W79450  33.900  32.505   1.870
17788W        W79451  39.984  42.947   3.799
17789W        W79452   7.758  43.916  10.961
17790W        W79453   6.712  25.505   0.298
17791W        W79454  30.126  27.092  14.767
17792W        W79455  11.264  26.584   4.762
17793W        W79456  39.897   0.868   0.307
17794W        W79457  21.210  30.066   2.770
17795W        W79458  12.349  44.794  13.792
17796W        W79459  25.555   9.279  11.058
17797W        W79460  18.214  10.810  10.583
17798W        W79461  39.403  44.434  12.905
17799W        W79462   3.745  28.657   1.255
17800W        W79463  33.093  27.563   2.753
17801W        W79464  26.208  10.173   2.778
17802W        W79465   2.747   8.371  14.927
17803W        W79466  12.798  29.433   2.251
17804W        W79467  35.024  20.088  11.061
17805W        W79468  17.659  12.308   9.576
17806W        W79469  36.543  11.750  14.495
17807W        W79470  44.962  43.834   3.284
17808W        W79471   1.899  43.462   1.449
17809W        W79472  17.076  11.814  13.495
17810W        W79473  25.695  17.735   3.865
17811W        W79474  15.196  11.204   0.824
17812W        W79475  26.033  18.670   4.812
17813W        W79476  17.704  40.341  13.848
17814W        W79477  44.870  31.521  10.981
17815W        W79478  19.264  11.854  10.623
17816W        W79479   3.443   9.255   2.392
17817W        W79480  17.599  11.286   3.715
17818W        W79481   7.337  13.242   0.777
17819W        W79482  24.541  29.670  14.914
17820W        W79483  42.025   8.831   1.766
17821W        W79484  33.469  44.314  11.900
17822W        W79485  12.725  43.369  11.032
17823W        W79486  37.504  13.679  14.907
17824W        W79487  41.837  12.280   5.605
17825W        W79488  13.120  31.611  10.488
17826W        W79489  36.419   0.836   0.929
17827W        W79490   9.881  42.459  11.869
17828W        W79491  21.165  21.159   1.880
17829W        W79492   7.395   1.747  14.953
17830W        W79493   9.829   5.312  12.507
17831W        W79494  35.008   2.938   1.892
17832W        W79495  24.593  26.609  13.446
17833W        W79496  13.129  26.128   3.764
17834W        W79497  15.157   2.725   0.873
17835W        W79498  25.078   7.403  12.881
17836W        W79499  37.390  23.601   3.698
17837W        W79500   4.348  39.430  10.521
17838W        W79501  44.969  31.133  12.863
17839W        W79502  20.549  28.553  11.602
17840W        W79503  26.576  43.863  12.861
17841W        W79504   5.298   6.415  10.453
17842W        W79505   1.404  34.934  11.098
17843W        W79506  32.484   6.283  11.035
17844W        W79507   1.338  23.629  14.006
17845W        W79508  41.514  15.706   0.477
17846W        W79509  40.944  44.365   0.463
17847W        W79510  21.207  23.153   5.313
17848W        W79511  18.747  28.170  13.504
17849W        W79512   2.842  11.245  12.885
17850W        W79513  35.416   0.855   4.347
17851W        W79514  41.354  25.186   2.894
17852W        W79515   7.840  28.488  14.376
17853W        W79516  17.068   4.243   4.158
17854W        W79517  40.821   8.827   3.817
17855W        W79518   7.347   0.328   3.661
17856W        W79519   3.410  35.921   4.232
17857W        W79520   0.248   6.390  10.581
17858W        W79521  15.732  24.186  13.059
17859W        W79522  43.509  25.062   2.796
17860W        W79523  32.986  30.064   0.759
17861W        W79524  29.457   5.708   4.127
17862W        W79525  23.985  15.129   2.405
17863W        W79526  20.136  30.950   0.373
17864W        W79527   4.237  24.679  12.012
17865W        W79528  30.520  43.834   3.226
17866W        W79529  10.801  30.135   2.220
17867W        W79530   2.765  36.408  12.899
17868W        W79531  32.989  15.627  12.515
17869W        W79532   3.802  35.043   0.277
17870W        W79533   6.200  24.116   2.245
17871W        W79534  11.651  30.561  10.460
17872W        W79535  28.504  35.409   3.850
17873W        W79536  28.590   0.843  13.990
17874W        W79537  29.139  42.401  10.425
17875W        W79538  28.970  35.051   2.884
17876W        W79539  10.724  11.671   3.286
17877W        W79540  22.586  41.854  11.408
17878W        W79541  11.184   5.725   0.863
17879W        W79542  21.040  26.172   3.772
17880W        W79543   7.291  15.107  12.512
17881W        W79544  27.106  28.491   0.954
17882W        W79545  35.469  41.435  14.858
17883W        W79546  25.617  13.829  12.872
17884W        W79547   6.329  29.153   0.422
17885W        W79548   2.830  29.482   0.943
17886W        W79549  20.700  27.580   4.286
17887W        W79550  25.000  23.563  14.449
17888W        W79551  36.497  41.304   2.323
17889W        W79552  22.208  18.116   0.451
17890W        W79553  20.614  38.377  13.832
17891W        W79554  44.954  30.650   4.327
17892W        W79555   0.989  11.225   2.388
17893W        W79556  43.459  43.862   2.230
17894W        W79557  27.170  23.219  13.793
17895W        W79558  31.508  12.279   4.707
17896W        W79559   4.762  21.653   2.890
17897W        W79560  35.039   0.456  12.069
17898W        W79561  13.179  22.221  14.976
17899W        W79562  22.600  28.988   1.312
17900W        W79563  23.104  25.492   1.876
17901W        W79564  12.154  39.406  14.305
17902W        W79565  28.162  32.066   1.765
17903W        W79566  20.090  30.045   0.741
17904W        W79567  18.750  14.159  12.979
17905W        W79568  12.760  39.903   1.409
17906W        W79569  44.386  23.177  11.437
17907W        W79570   9.355  16.287  12.495
17908W        W79571  18.746  15.774   0.374
17909W        W79572  20.197  11.723   1.758
17910W        W79573   2.903  29.531   3.716
17911W        W79574  38.909  38.980   2.388
17912W        W79575  36.875  25.704  12.082
17913W        W79576   6.703  19.752  11.438
17914W        W79577  42.833  11.740   4.114
17915W        W79578  18.546   6.292   3.866
17916W        W79579  27.133  22.027   0.916
17917W        W79580  39.510  34.867   2.702
17918W        W79581  34.880   5.243   1.742
17919W        W79582   2.258  10.285  10.981
17920W        W79583   0.753  43.813  13.481
17921W        W79584  24.632  10.637   4.141
17922W        W79585   0.443   4.274   1.221
17923W        W79586   7.810  44.444   4.217
17924W        W79587  41.029  16.647  12.975
17925W        W79588   1.802  15.746   2.689
17926W        W79589  36.895  12.131  11.074
17927W        W79590  11.335   3.746   2.712
17928W        W79591   8.260  21.209  13.449
17929W        W79592  37.390  10.729   0.413
17930W        W79593  15.814  43.462  14.291
17931W        W79594  10.835  32.924  12.429
17932W        W79595  32.894  38.889   1.737
17933W        W79596  39.943  33.022   3.307
17934W        W79597  27.494  26.984  10.547
17935W        W79598   4.222  19.241   4.248
17936W        W79599  28.080  43.493   2.873
17937W        W79600   5.355  42.426   2.731
17938W        W79601  14.212   2.842  11.599
17939W        W79602  33.456  14.679  14.778
17940W        W79603  21.123   5.873   3.285
17941W        W79604   3.904   6.346   4.749
17942W        W79605  33.399   2.908  10.892
17943W        W79606  11.336  14.637   2.873
17944W        W79607  11.715  14.205   5.265
17945W        W79608  11.274   3.911  11.912
17946W        W79609  42.959  22.233   0.959
17947W        W79610  37.967  39.932   0.833
17948W        W79611  43.814  38.879   2.191
17949W        W79612  13.108   6.772   3.377
17950W        W79613  43.507  33.601  14.320
17951W        W79614  29.951  42.363   0.424
17952W        W79615  37.975  25.595  10.613
17953W        W79616   2.849  41.866   0.897
17954W        W79617   4.807  11.754  12.839
17955W        W79618  37.561  17.128  11.538
17956W        W79619  37.001  27.509   3.723
17957W        W79620  10.868   6.768   1.438
17958W        W79621  22.164  19.169  14.982
17959W        W79622  27.996  35.415  14.851
17960W        W79623  44.274  36.845   4.292
17961W        W79624  37.012  23.157  11.466
17962W        W79625  22.180  30.046   0.342
17963W        W79626  24.093   6.304  14.346
17964W        W79627  16.097  31.976  12.947
17965W        W79628   7.223  27.065  11.881
17966W        W79629  25.593  44.934  14.794
17967W        W79630  27.585  31.509  13.430
17968W        W79631  17.129  27.661  11.099
17969W        W79632  19.729  15.762   9.563
17970W        W79633  16.245  33.602   3.716
17971W        W79634  44.895  41.797   0.440
17972W        W79635   4.860   1.917  10.071
17973W        W79636  19.620  14.694  13.942
17974W        W79637  32.552  39.440  14.986
17975W        W79638  39.413  40.864  13.947
17976W        W79639  41.495  26.158   4.776
17977W        W79640   5.235  39.552  12.997
17978W        W79641   2.858  33.427  14.983
17979W        W79642   3.449  18.159  13.921
17980W        W79643   0.836  44.938  13.944
17981W        W79644  20.183   6.684   3.735
17982W        W79645   0.843  22.738  11.995
17983W        W79646  34.520   5.375  11.435
17984W        W79647  40.402  12.639   4.248
17985W        W79648   7.365   7.890  13.385
17986W        W79649  15.654  35.958   3.732
17987W        W79650  23.597  43.771  14.419
17988W        W79651  15.327  38.365  13.417
17989W        W79652  27.685  40.306  13.814
17990W        W79653   2.464   8.769  11.127
17991W        W79654  13.693  32.977   3.862
17992W        W79655  29.610  44.975  11.571
17993W        W79656  14.234  36.049   1.757
17994W        W79657  31.438  17.186  12.430
17995W        W79658  24.716  17.668  13.437
17996W        W79659  39.847  37.558   2.213
17997W        W79660  21.182  37.077  11.958
17998W        W79661  21.717  27.481   1.324
17999W        W79662  19.775  35.916  13.863
18000W        W79663  34.970  37.562  13.440
18001W        W79664  20.097  18.576  14.904
18002W        W79665  41.313  24.517  10.599
18003W        W79666  27.133  20.708   2.868
18004W        W79667  30.955  10.318   4.242
18005W        W79668  35.362  39.839  11.947
18006W        W79669  29.001  44.864   3.303
18007W        W79670   1.786   9.366  13.486
18008W        W79671  23.501  12.817  12.526
18009W        W79672   1.915  11.692  10.430
18010W        W79673  44.001  32.491  12.407
18011W        W79674  38.337  26.537   2.679
18012W        W79675   7.696  35.045   3.167
18013W        W79676  28.948  43.905  14.440
18014W        W79677  27.621  20.246   0.851
18015W        W79678  10.363  42.290   1.762
18016W        W79679  18.545  23.028  11.487
18017W        W79680  18.236  44.822  12.871
18018W        W79681   5.269  36.054  10.935
18019W        W79682  30.457  20.269   5.129
18020W        W79683  33.508  23.103  11.460
18021W        W79684  16.649  36.852  11.555
18022W        W79685  27.044  23.107   1.367
18023W        W79686  37.394  19.079   4.628
18024W        W79687  12.204  13.797   3.856
18025W        W79688  16.183  27.015   3.328
18026W        W79689  31.443  30.571   2.696
18027W        W79690  40.512  26.462   3.294
18028W        W79691   8.247  22.683  11.054
18029W        W79692  15.617   6.914   3.763
18030W        W79693   5.377  30.946  10.416
18031W        W79694  28.678  31.563  14.972
18032W        W79695  42.934  31.917   1.723
18033W        W79696  37.571  12.722  13.887
18034W        W79697  25.639  34.506   1.705
18035W        W79698  37.476  20.595   1.707
18036W        W79699  19.658  29.107   3.862
18037W        W79700  13.162  21.058  10.541
18038W        W79701  17.138  43.819  12.563
18039W        W79702  38.027  33.513   1.780
18040W        W79703  39.997  22.240  12.960
18041W        W79704  29.657  21.141  11.073
18042W        W79705  33.489  38.566   0.935
18043W        W79706  30.632  14.324  12.409
18044W        W79707   2.833  38.428  12.040
18045W        W79708  38.458  27.997  14.824
18046W        W79709  37.852  29.091  12.929
18047W        W79710  13.146  21.663   3.705
18048W        W79711  37.425  38.537   4.276
18049W        W79712  28.542   7.262  13.491
18050W        W79713   7.306  38.476   4.838
18051W        W79714   6.227  25.973   4.731
18052W        W79715   2.747  42.454  14.920
18053W        W79716  24.575  22.717  11.047
18054W        W79717  11.226  29.154   4.264
18055W        W79718  18.180  38.456  11.923
18056W        W79719  33.887  10.373  10.988
18057W        W79720  20.648  22.663  11.497
18058W        W79721  35.369  33.440  12.853
18059W        W79722  28.155   2.928   1.415
18060W        W79723  17.801   3.344   4.175
18061W        W79724  20.069  11.715  10.007
18062W        W79725  37.480  31.896   3.720
18063W        W79726  20.156   1.745   3.715
18064W        W79727  29.558  42.910  11.497
18065W        W79728  22.699  32.892   0.291
18066W        W79729  12.812  28.444   1.792
18067W        W79730   1.338  27.069   2.280
18068W        W79731  15.598   1.283   0.921
18069W        W79732   8.709  24.996  14.027
18070W        W79733   9.240  28.675  12.881
18071W        W79734   3.746  25.210  10.536
18072W        W79735  18.568  37.412   1.836
18073W        W79736  13.132  44.955  13.406
18074W        W79737  25.105   6.761  12.403
18075W        W79738  38.904  42.373  11.577
18076W        W79739  33.581  13.203   1.311
18077W        W79740  20.270  38.500  13.981
18078W        W79741  22.067  12.308  14.940
18079W        W79742  24.097   1.846  10.448
18080W        W79743  38.369  17.120  13.543
18081W        W79744  44.905  23.719   0.755
18082W        W79745  15.268  10.382   1.366
18083W        W79746  23.575   7.220   3.656
18084W        W79747  44.443  33.617  10.982
18085W        W79748  35.398   2.321   4.257
18086W        W79749  24.157  23.512   3.748
18087W        W79750  12.193   9.193  12.943
18088W        W79751  38.840  36.454   2.756
18089W        W79752  25.995  29.627   3.819
18090W        W79753  18.739  15.277   3.385
18091W        W79754  15.311  33.609   0.848
18092W        W79755   1.367  36.397   2.194
18093W        W79756  32.050  26.137  10.537
18094W        W79757  37.890  30.522  11.968
18095W        W79758  27.451  40.929   2.364
18096W        W79759  10.371  40.441   4.192
18097W        W79760  30.994  12.361   2.240
18098W        W79761  35.093  28.541   2.677
18099W        W79762  21.198  12.202   4.146
18100W        W79763   0.826   3.901  14.356
18101W        W79764  12.661  44.498   1.800
18102W        W79765  10.697  40.410  14.962
18103W        W79766  29.435   8.281   3.196
18104W        W79767   5.279   0.483   2.240
18105W        W79768  39.415  12.850  11.128
18106W        W79769  44.398  22.577   2.307
18107W        W79770  20.069  43.828   1.214
18108W        W79771  39.848  18.193  13.353
18109W        W79772  10.707   7.256  12.393
18110W        W79773   6.745  23.627   3.687
18111W        W79774  14.253   9.678  13.496
18112W        W79775  24.098  28.675   3.644
18113W        W79776   6.790  35.992   4.270
18114W        W79777  40.343  27.651  11.456
18115W        W79778  12.237  32.018  12.948
18116W        W79779   2.377   9.826  12.579
18117W        W79780  40.546  29.921  11.932
18118W        W79781   9.875  25.567  13.526
18119W        W79782  14.190  35.884   4.236
18120W        W79783  34.084  30.618  12.483
18121W        W79784  33.082  19.613   0.737
18122W        W79785  32.564   1.779   1.748
18123W        W79786  22.123  10.256  12.927
18124W        W79787  33.018  23.078  10.129
18125W        W79788  14.650   1.899  11.410
18126W        W79789  12.235  12.762  13.343
18127W        W79790  23.025  28.634   0.857
18128W        W79791  44.815   9.261  12.520
18129W        W79792  23.094  13.253  13.954
18130W        W79793  15.632  20.752  13.977
18131W        W79794  14.613  25.043   0.923
18132W        W79795   8.324   5.706  12.390
18133W        W79796  22.059  36.544  10.598
18134W        W79797  41.491  15.602   3.305
18135W        W79798  34.587  18.653   0.392
18136W        W79799  33.908  32.941   1.412
18137W        W79800  27.967  35.091   4.221
18138W        W79801  33.524  17.573  12.362
18139W        W79802  26.001   6.222  11.943
18140W        W79803  32.511   2.929   1.832
18141W        W79804  32.914  35.930  14.470
18142W        W79805  34.120   1.940   1.869
18143W        W79806  17.118  18.253   3.280
18144W        W79807   2.230  44.844   4.231
18145W        W79808  28.481  44.005  12.412
18146W        W79809  23.174  38.421   1.251
18147W        W79810  34.443  29.923  14.414
18148W        W79811  31.436  41.019  12.436
18149W        W79812   8.794  11.187  11.453
18150W        W79813  40.850  30.152   1.804
18151W        W79814  12.686  20.120   4.752
18152W        W79815  24.506  39.368   2.795
18153W        W79816  21.603  42.527  14.440
18154W        W79817  38.934   8.321   1.385
18155W        W79818   9.160   4.328  13.443
18156W        W79819  29.139  28.581   2.721
18157W        W79820   5.325  42.916   4.334
18158W        W79821   5.252  33.606   0.882
18159W        W79822   7.402  13.162   1.366
18160W        W79823  19.233  29.501  11.113
18161W        W79824  16.292  27.574  13.916
18162W        W79825  19.097  12.294   5.161
18163W        W79826  17.214   3.934   3.632
18164W        W79827   5.372  22.238   4.281
18165W        W79828  11.740  19.549  12.377
18166W        W79829  37.994  14.660   4.165
18167W        W79830  18.188  21.030  11.070
18168W        W79831  21.135  44.441   2.224
18169W        W79832  40.904  42.314   0.942
18170W        W79833  27.514  11.194  12.095
18171W        W79834  22.602  18.270   3.861
18172W        W79835   7.877  30.115  11.009
18173W        W79836  36.489  41.517  11.609
18174W        W79837  17.143   2.376  14.494
18175W        W79838   0.271  36.933   3.857
18176W        W79839  26.017  22.173  11.532
18177W        W79840  15.668   9.296   2.795
18178W        W79841  17.710  21.062  11.489
18179W        W79842  32.516  12.183   0.360
18180W        W79843  22.712  33.120   3.163
18181W        W79844   5.922  35.979  11.418
18182W        W79845  24.623  28.602  11.889
18183W        W79846  24.539  32.090  12.439
18184W        W79847   0.365  35.902   3.223
18185W        W79848  19.140  15.272   0.346
18186W        W79849  32.415  17.148   4.344
18187W        W79850  37.905  34.544  11.912
18188W        W79851  12.648  20.620  12.367
18189W        W79852  35.407  41.916   0.739
18190W        W79853  11.647   0.757   5.092
18191W        W79854   2.948  30.520   2.696
18192W        W79855  41.036  29.170  14.960
18193W        W79856  13.631   3.874   0.761
18194W        W79857  24.038  41.466  12.529
18195W        W79858  33.123  38.041   4.242
18196W        W79859  37.975  23.047  12.026
18197W        W79860   7.397  10.857   3.646
18198W        W79861   4.850  16.253   3.744
18199W        W79862  15.170  29.982  11.112
18200W        W79863  10.258   0.299   2.673
18201W        W79864  42.789  11.817  10.606
18202W        W79865  29.955  16.652   2.384
18203W        W79866  42.777  41.322   0.391
18204W        W79867  23.496  25.979   1.343
18205W        W79868  11.644  42.782   3.323
18206W        W79869  35.049  20.678   0.737
18207W        W79870  18.551   3.358   3.277
18208W        W79871  42.823  39.876   1.298
18209W        W79872  35.400   9.164  10.892
18210W        W79873  35.387  19.708  11.607
18211W        W79874  16.623  41.819  11.997
18212W        W79875  14.158  14.663   1.745
18213W        W79876  29.442  22.632   1.841
18214W        W79877   3.330  40.859  12.029
18215W        W79878  30.632  38.345   1.242
18216W        W79879  15.810  23.035  10.496
18217W        W79880  17.721  12.739  14.025
18218W        W79881   0.799   8.667   0.304
18219W        W79882   7.192  19.728   1.321
18220W        W79883  19.747  26.698  11.971
18221W        W79884  43.838  40.396  13.410
18222W        W79885   6.907   6.829  12.493
18223W        W79886  40.019  35.535  12.977
18224W        W79887  29.589   2.858  10.920
18225W        W79888   2.253  42.841  14.783
18226W        W79889   5.738  43.476   2.697
18227W        W79890  34.990  24.039   2.310
18228W        W79891  25.986  42.512  13.895
18229W        W79892  17.280   0.839   0.804
18230W        W79893  23.650   1.361  14.377
18231W        W79894   4.891  42.015  12.998
18232W        W79895   8.243  17.693   0.886
18233W        W79896  11.154  19.090   1.871
18234W        W79897  37.856  23.238   3.215
18235W        W79898  24.501  12.753   0.846
18236W        W79899  37.501  36.524   0.963
18237W        W79900  42.960  33.491  13.038
18238W        W79901   0.886  24.212   0.916
18239W        W79902  19.572  43.363  10.892
18240W        W79903   7.353  41.415   0.291
18241W        W79904   3.771  18.268  10.907
18242W        W79905  10.713  43.457   3.151
18243W        W79906  40.863  39.023  11.487
18244W        W79907   5.796  22.081   0.393
18245W        W79908   3.411  38.437  10.929
18246W        W79909  28.151  32.596   4.788
18247W        W79910  12.747  22.530  14.939
18248W        W79911  38.488  14.294   0.778
18249W        W79912  14.621  37.522  11.889
18250W        W79913  18.698  42.326   3.719
18251W        W79914  35.875  18.769  13.036
18252W        W79915  24.646   7.819  11.608
18253W        W79916   1.961  15.811  11.549
18254W        W79917  26.647  28.046  11.462
18255W        W79918   9.191  24.188   4.735
18256W        W79919   1.879  31.050  14.789
18257W        W79920  41.896  26.970  10.952
18258W        W79921  31.136   8.712  10.116
18259W        W79922   4.224  28.524   2.823
18260W        W79923  34.373  25.149  12.572
18261W        W79924  32.110  32.000   1.824
18262W        W79925  30.450  36.969   4.282
18263W        W79926  39.349  30.561   4.806
18264W        W79927   1.269  27.617   4.347
18265W        W79928  40.848  25.701   4.754
18266W        W79929   1.359  25.506   3.315
18267W        W79930  34.909  44.396   5.234
18268W        W79931  17.090   0.955   3.334
18269W        W79932   8.759  34.489  13.514
18270W        W79933   6.351   4.261  12.930
18271W        W79934  34.464   9.241  10.896
18272W        W79935  33.518  35.484   0.926
18273W        W79936  18.146  40.894  12.364
18274W        W79937   8.859   4.251  14.773
18275W        W79938  38.840  44.852  14.856
18276W        W79939  26.084  13.289   3.726
18277W        W79940  15.693  14.241   3.862
18278W        W79941  34.974   2.237   2.359
18279W        W79942  34.394  17.687  12.842
18280W        W79943   9.693  26.685  13.347
18281W        W79944   0.888  34.546   1.934
18282W        W79945  35.374  31.604  12.017
18283W        W79946  30.508  38.884   3.220
18284W        W79947   3.863  15.598  13.512
18285W        W79948  20.654  14.182  10.523
18286W        W79949  38.529  39.811  11.984
18287W        W79950  10.774  23.124   4.636
18288W        W79951  23.013  35.519  14.488
18289W        W79952  31.645  16.791  13.914
18290W        W79953  37.416  40.003  14.286
18291W        W79954  35.033  25.079  10.606
18292W        W79955  22.710  37.909  14.848
18293W        W79956  22.188  34.610  13.979
18294W        W79957  20.169  28.157  11.589
18295W        W79958  23.177  23.020  11.439
18296W        W79959  36.886  25.601  10.509
18297W        W79960  20.190  21.095  10.625
18298W        W79961  11.371  43.776  14.329
18299W        W79962  26.542  33.072   3.227
18300W        W79963   6.861  18.782  12.368
18301W        W79964  12.336  25.083  14.900
18302W        W79965  18.184  40.374  13.032
18303W        W79966  27.175  16.686  13.849
18304W        W79967  30.567  31.450  12.552
18305W        W79968   9.748  41.807   2.192
18306W        W79969   7.832   1.243   0.446
18307W        W79970  32.407   2.914   2.863
18308W        W79971  39.941  13.308  13.498
18309W        W79972  40.486  18.749   0.447
18310W        W79973  31.916  38.526  14.893
18311W        W79974  28.459   6.414   4.286
18312W        W79975  31.087   6.364   3.737
18313W        W79976   7.809  33.060  10.586
18314W        W79977   2.963  41.483   0.437
18315W        W79978  27.503  25.972  10.441
18316W        W79979  20.678   0.362   1.768
18317W        W79980  15.765  22.657   2.257
18318W        W79981  38.832  37.057   3.671
18319W        W79982  18.266   7.908   0.388
18320W        W79983  39.439  17.764   4.791
18321W        W79984  43.805  14.128   2.193
18322W        W79985  11.719  38.891   1.781
18323W        W79986  34.014  19.587   1.793
18324W        W79987  41.786  32.505  14.950
18325W        W79988  38.325  32.588  14.511
18326W        W79989   7.882  26.569   0.821
18327W        W79990   3.379   8.331  13.327
18328W        W79991  11.684   5.213   2.764
18329W        W79992  42.494  18.207   3.246
18330W        W79993  14.759  39.411   4.693
18331W        W79994   2.356  43.907   0.755
18332W        W79995  20.613   8.313   0.418
18333W        W79996  17.082  37.024  13.947
18334W        W79997  27.523  10.293  10.911
18335W        W79998  43.006  25.083  11.390
18336W        W79999  19.057  28.159   1.355
18337W        W80000   3.419  42.835   1.291
18338W        W80001  12.266  13.781   1.695
18339W        W80002  25.212   6.252   0.283
18340W        W80003  23.664  29.549   4.617
18341W        W80004  33.083   7.367   1.726
18342W        W80005  21.731  38.519  11.441
18343W        W80006  29.497  19.121   4.335
18344W        W80007  43.338  44.342  14.346
18345W        W80008  16.577  18.728  12.028
18346W        W80009  35.507  42.300   3.870
18347W        W80010   5.716  40.988  10.523
18348W        W80011   6.404   7.821   1.418
18349W        W80012   8.717   5.284  12.478
18350W        W80013  18.657  27.636   4.795
18351W        W80014  44.298  17.238   0.945
18352W        W80015  10.635   4.446  13.543
18353W        W80016   2.310  39.938  12.362
18354W        W80017  20.034  29.172  12.897
18355W        W80018  39.439  27.592   4.258
18356W        W80019  24.151   1.256   0.400
18357W        W80020  27.689  35.403   4.192
18358W        W80021  31.631  36.048  14.000
18359W        W80022  13.831   1.471   2.703
18360W        W80023  16.220   0.251  14.973
18361W        W80024   9.713   2.761   4.708
18362W        W80025  34.986  20.082   3.318
18363W        W80026   3.715   6.308   1.352
18364W        W80027  23.154  16.214   0.414
18365W        W80028   8.220  34.374  13.412
18366W        W80029  27.055  37.892  13.004
18367W        W80030  29.639  12.306   2.862
18368W        W80031  42.391  15.307  14.022
18369W        W80032  16.757  40.346   1.732
18370W        W80033  25.082  39.317  14.003
18371W        W80034  42.348   3.244   0.781
18372W        W80035  38.986  12.783  11.010
18373W        W80036   6.190  15.094   4.244
18374W        W80037  13.141  43.502   1.311
18375W        W80038  41.365  33.082  12.949
18376W        W80039   8.835   5.406   2.286
18377W        W80040   3.357  41.454  12.091
18378W        W80041  26.572   5.889   4.317
18379W        W80042  19.713  10.373   2.295
18380W        W80043   5.924   6.688  12.429
18381W        W80044  36.889  24.712   1.805
18382W        W80045  37.538  28.593  14.483
18383W        W80046  16.107  22.221   4.298
18384W        W80047  16.787  39.423   4.655
18385W        W80048  21.671  11.277   4.181
18386W        W80049  30.011  26.677  11.929
18387W        W80050   2.311  34.396   2.871
18388W        W80051   4.724  29.984   3.230
18389W        W80052   7.308  14.686  12.538
18390W        W80053  40.526  19.663  11.922
18391W        W80054  40.953  28.069  11.448
18392W        W80055  28.667  37.973   3.377
18393W        W80056   2.837   1.429   4.605
18394W        W80057  37.928  21.258  14.899
18395W        W80058  35.507  30.153  14.835
18396W        W80059  37.339  28.025   3.247
18397W        W80060  44.816   1.389  14.863
18398W        W80061   1.440  17.154  11.858
18399W        W80062  11.652   1.310  10.597
18400W        W80063  21.032  29.456  12.537
18401W        W80064  18.124  20.578   3.712
18402W        W80065  33.580  13.670  14.941
18403W        W80066  22.090  13.224   1.853
18404W        W80067  41.311  31.100  11.113
18405W        W80068  14.685  11.749  10.514
18406W        W80069   5.892  44.990  14.801
18407W        W80070  36.071  17.740  11.089
18408W        W80071  16.208  18.113  11.084
18409W        W80072   0.815  12.312   2.351
18410W        W80073  10.201  35.962   3.230
18411W        W80074  15.146  36.020  14.930
18412W        W80075  11.155  36.589   5.680
18413W        W80076  26.155   9.778  14.984
18414W        W80077  25.156  11.624  12.854
18415W        W80078  13.312   9.782  10.465
18416W        W80079   4.396   2.772  13.428
18417W        W80080  38.490   5.200  14.285
18418W        W80081   8.794   5.887  13.796
18419W        W80082   8.704   1.966   1.411
18420W        W80083  18.056  24.541   0.927
18421W        W80084  17.717  20.594  12.471
18422W        W80085  37.361  36.433   2.759
18423W        W80086  38.487  21.723   2.858
18424W        W80087  34.435  22.234  14.422
18425W        W80088   5.283   4.415   1.766
18426W        W80089   6.223   5.813   4.225
18427W        W80090  31.447  35.030  12.424
18428W        W80091  14.690  36.036   3.351
18429W        W80092   4.264  13.632   4.282
18430W        W80093  29.948  40.834  11.040
18431W        W80094  12.220  15.739   3.679
18432W        W80095  30.973  20.145   1.342
18433W        W80096   5.303  11.731  14.374
18434W        W80097  43.766  22.556  13.487
18435W        W80098  15.808  16.101   0.801
18436W        W80099  35.050  15.110   2.714
18437W        W80100  27.190   4.924  13.912
18438W        W80101  36.021  17.771   2.190
18439W        W80102  31.008  18.198  10.140
18440W        W80103  41.931  27.130  12.558
18441W        W80104  28.983  30.417   0.344
18442W        W80105  15.127   0.296  14.875
18443W        W80106  28.660  27.981  10.447
18444W        W80107  44.915  12.767  12.836
18445W        W80108  18.168  33.076   2.702
18446W        W80109  30.037  23.650   4.271
18447W        W80110  38.035  20.661   3.757
18448W        W80111  18.107  21.643  11.977
18449W        W80112  39.844  34.549  14.875
18450W        W80113  34.971   0.447   2.842
18451W        W80114  14.153  28.618   2.287
18452W        W80115  18.690  29.936   3.302
18453W        W80116  10.742  38.417  14.425
18454W        W80117   8.236  11.170   0.944
18455W        W80118   1.866  25.640  14.804
18456W        W80119  19.177  22.173   0.453
18457W        W80120  43.921  38.552  10.900
18458W        W80121  32.560  11.345   0.806
18459W        W80122  39.351  19.077   3.643
18460W        W80123  10.820  30.101  13.921
18461W        W80124  24.154  37.888   4.659
18462W        W80125  12.813  21.625   0.334
18463W        W80126   2.755  38.418   0.863
18464W        W80127   5.702  11.790   4.187
18465W        W80128  24.645  21.253  11.123
18466W        W80129  37.990  40.334  11.550
18467W        W80130  34.952  18.628  10.929
18468W        W80131   7.363  32.019  12.404
18469W        W80132  33.001   3.710   3.693
18470W        W80133  19.196  23.194  14.505
18471W        W80134  40.346   8.402   0.388
18472W        W80135  30.131   9.815   3.280
18473W        W80136  22.178  37.565   3.281
18474W        W80137  42.382  19.630  13.889
18475W        W80138  22.036  16.306   4.160
18476W        W80139   8.190  13.302  13.949
18477W        W80140   6.696  32.946  10.977
18478W        W80141  44.415  39.459  11.426
18479W        W80142  20.671  27.614  10.542
18480W        W80143   2.840   5.723   4.820
18481W        W80144  15.128  23.684   2.697
18482W        W80145  18.636   2.457  13.480
18483W        W80146   7.716  13.268   3.220
18484W        W80147  22.513   4.432   2.261
18485W        W80148   2.302  17.652   3.366
18486W        W80149  28.098  12.683  11.906
18487W        W80150  16.681   4.745   0.404
18488W        W80151  33.098  39.557  10.614
18489W        W80152   3.429  28.639   4.319
18490W        W80153  18.237  40.360   2.398
18491W        W80154  19.606  24.567  12.950
18492W        W80155  36.915  13.313  14.402
18493W        W80156  10.674  27.665  14.863
18494W        W80157   5.257  18.171   1.812
18495W        W80158  15.160  42.901   3.230
18496W        W80159  25.650   9.243   3.278
18497W        W80160  15.803  12.164   3.222
18498W        W80161  14.161  43.972   4.279
18499W        W80162   3.724  20.265   2.186
18500W        W80163  33.447   2.916  12.904
18501W        W80164   8.187  10.828   4.753
18502W        W80165   3.871   0.879   2.784
18503W        W80166   8.769   5.341   0.446
18504W        W80167  37.489  25.668  11.923
18505W        W80168  25.599   7.818  11.083
18506W        W80169  19.568  20.083  11.104
18507W        W80170  31.911  15.173  11.556
18508W        W80171  24.671   3.458   2.865
18509W        W80172   5.895  24.524  11.078
18510W        W80173  44.893  33.464  11.864
18511W        W80174   4.295  11.763   4.815
18512W        W80175  27.682  33.122  10.887
18513W        W80176   6.869  38.945  13.392
18514W        W80177  19.197  16.810   1.770
18515W        W80178  37.343  11.847   4.677
18516W        W80179   9.257  25.580   4.243
18517W        W80180   3.795   9.211   3.855
18518W        W80181  33.070  24.679  10.993
18519W        W80182  33.976  40.520  14.778
18520W        W80183  38.490   1.244  13.518
18521W        W80184   0.476   6.422   3.375
18522W        W80185  31.465   2.762  12.943
18523W        W80186  16.108  20.654  14.362
18524W        W80187   8.729   3.780   1.796
18525W        W80188  16.237   1.445  10.497
18526W        W80189  35.087  31.557   2.704
18527W        W80190  44.855  10.739  13.439
18528W        W80191   4.231  22.008  13.045
18529W        W80192  10.242  33.439  14.988
18530W        W80193   8.220  37.508  10.946
18531W        W80194   7.279  26.659  12.917
18532W        W80195  14.161  36.491   3.635
18533W        W80196  40.536  39.463   1.430
18534W        W80197  30.941  36.071  13.361
18535W        W80198  25.024  32.513  12.353
18536W        W80199  24.589  29.426  10.991
18537W        W80200  25.202  30.982   0.901
18538W        W80201  39.845  35.070   3.727
18539W        W80202  40.311  42.955   1.405
18540W        W80203  27.138  42.395  12.988
18541W        W80204   3.414   5.821   2.414
18542W        W80205   7.361   8.182   4.600
18543W        W80206  11.767  12.854  10.590
18544W        W80207   6.209   7.174   2.385
18545W        W80208  30.481  41.980   3.151
18546W        W80209  25.608   0.746   3.713
18547W        W80210  39.841  20.637   3.756
18548W        W80211  18.292  19.188  13.386
18549W        W80212  21.658  20.099  12.503
18550W        W80213  23.678  11.655  10.439
18551W        W80214   9.764  42.491   3.721
18552W        W80215  22.144  40.496   4.159
18553W        W80216  15.632   0.904  11.985
18554W        W80217  15.661  39.338   1.300
18555W        W80218   9.767  37.565  13.546
18556W        W80219  17.599  28.617  13.487
18557W        W80220   6.747  17.078  14.859
18558W        W80221   4.816  35.065  13.911
18559W        W80222   1.950  26.604  12.347
18560W        W80223  38.839   4.354  10.140
18561W        W80224  35.541  44.403  12.022
18562W        W80225   5.302  38.549   1.921
18563W        W80226   7.868  39.883   1.731
18564W        W80227   9.764  11.794  10.973
18565W        W80228  19.061  38.841  13.020
18566W        W80229   7.761  31.497  13.913
18567W        W80230  28.029  38.384   2.377
18568W        W80231  37.491   1.236  11.603
18569W        W80232  35.873  21.148  14.960
18570W        W80233  14.204  41.355   1.792
18571W        W80234  30.579  19.082  13.943
18572W        W80235  16.232  37.870  11.964
18573W        W80236   4.843  39.492   0.468
18574W        W80237   1.365  41.943   1.452
18575W        W80238  42.517  43.510  13.004
18576W        W80239   6.871  37.886  14.467
18577W        W80240  23.614  10.333  10.129
18578W        W80241  21.081  42.963  10.614
18579W        W80242  38.559  30.452  12.831
18580W        W80243  13.833  42.946  13.974
18581W        W80244   5.259  26.654   2.764
18582W        W80245   7.775  40.802  10.977
18583W        W80246  19.277  20.548   2.312
18584W        W80247  28.439  12.765  11.548
18585W        W80248  15.202   2.419  14.883
18586W        W80249  21.070   9.281  11.109
18587W        W80250  18.216   0.781  11.481
18588W        W80251   5.734  25.155  11.559
18589W        W80252  16.610  34.991   5.311
18590W        W80253  25.126  20.137   4.777
18591W        W80254  24.490  27.133   0.431
18592W        W80255  36.017  29.919   0.248
18593W        W80256  33.878  37.065  12.414
18594W        W80257  37.414   6.871  13.989
18595W        W80258   9.803  44.950  11.585
18596W        W80259  33.915  28.091   3.240
18597W        W80260  40.446   6.188  10.477
18598W        W80261  11.680  44.270  14.418
18599W        W80262  36.529  26.625   2.708
18600W        W80263  21.607  24.028  11.943
18601W        W80264  27.688  13.333  10.577
18602W        W80265  38.434   1.296  12.473
18603W        W80266  34.099  25.536   4.823
18604W        W80267   4.430  26.143   4.272
18605W        W80268  40.466  11.677   1.820
18606W        W80269   6.381  23.538   0.865
18607W        W80270  38.520  20.214  14.854
18608W        W80271  35.006   4.769   3.168
18609W        W80272  34.377   8.895  10.082
18610W        W80273  37.043   8.825  12.468
18611W        W80274   2.756  16.786   0.749
18612W        W80275  28.008   0.920  10.511
18613W        W80276  32.508  10.331  10.596
18614W        W80277  33.495  43.452   0.875
18615W        W80278   8.373   5.266   3.163
18616W        W80279  16.291  16.714   1.836
18617W        W80280  16.756  16.096   3.156
18618W        W80281  21.576  25.626   0.367
18619W        W80282  30.109  38.566   4.316
18620W        W80283  20.714  24.115  10.929
18621W        W80284  34.450  32.584  13.935
18622W        W80285  36.864  35.362   1.839
18623W        W80286  13.179   1.244   1.450
18624W        W80287  42.965  10.675  12.849
18625W        W80288   7.902  27.001   0.920
18626W        W80289  40.837  25.490   0.873
18627W        W80290   3.404  28.061  13.501
18628W        W80291  40.961  20.721   1.415
18629W        W80292  27.691  37.026  11.409
18630W        W80293  16.699  30.161   1.299
18631W        W80294  31.934  17.234  13.843
18632W        W80295  22.125  36.544   1.847
18633W        W80296   0.336  12.819   9.552
18634W        W80297   0.433  15.309  10.431
18635W        W80298  31.464  32.062   4.720
18636W        W80299  15.740  43.334   3.358
18637W        W80300   1.347  23.203  13.952
18638W        W80301  10.237   0.806  11.036
18639W        W80302  10.701  13.335  12.003
18640W        W80303  13.626  12.623   2.199
18641W        W80304  37.882  43.868   0.795
18642W        W80305  14.616  42.404   3.774
18643W        W80306  13.782   7.256   4.810
18644W        W80307  42.809   3.774   4.288
18645W        W80308  18.234  13.767  11.613
18646W        W80309  14.802  29.160   3.303
18647W        W80310  29.601   9.848   3.650
18648W        W80311   6.365   6.318  10.619
18649W        W80312   1.465   2.937  12.877
18650W        W80313   1.892  40.828   0.394
18651W        W80314  19.267  23.607   4.737
18652W        W80315   9.214  30.981  14.286
18653W        W80316   4.713  33.994  14.827
18654W        W80317  21.031   4.895   3.844
18655W        W80318   0.377  21.224   0.758
18656W        W80319  35.379  33.435  12.570
18657W        W80320  12.781  40.977  12.000
18658W        W80321  36.484   6.739   0.386
18659W        W80322  18.246  22.228   2.328
18660W        W80323   6.796  17.608   1.320
18661W        W80324   4.282  12.175  13.376
18662W        W80325   2.773  21.238   0.476
18663W        W80326  35.596  22.188  13.438
18664W        W80327  31.107  35.980  14.948
18665W        W80328  25.140  23.687  12.922
18666W        W80329  35.385  25.703   2.757
18667W        W80330  12.357  44.483   4.166
18668W        W80331  39.468   2.258  14.883
18669W        W80332  41.822  12.338   4.681
18670W        W80333  30.609  28.679   2.684
18671W        W80334  30.433   4.450   0.861
18672W        W80335  27.686  35.455   1.432
18673W        W80336  20.266  17.196   3.315
18674W        W80337  10.247   1.328  11.041
18675W        W80338  37.856  12.291   4.658
18676W        W80339  11.279  25.136   3.375
18677W        W80340  35.583  40.420  12.351
18678W        W80341   4.208  23.638   2.264
18679W        W80342  40.357  16.681  12.365
18680W        W80343   5.932  22.713  14.974
18681W        W80344  40.403  11.222   4.279
18682W        W80345  43.865  32.443   1.323
18683W        W80346   1.814  28.618   2.334
18684W        W80347   8.388  27.969  11.065
18685W        W80348  24.065  32.568   2.290
18686W        W80349  40.419  29.918  12.957
18687W        W80350  12.338  23.207   1.347
18688W        W80351  27.534  21.103  11.858
18689W        W80352  15.182  34.101   5.668
18690W        W80353   3.849   5.274   0.256
18691W        W80354  29.625  28.972   2.883
18692W        W80355  33.892   3.245  11.588
18693W        W80356  29.468  20.118  10.492
18694W        W80357  24.587  39.928  10.615
18695W        W80358  40.935  11.317  11.024
18696W        W80359  27.124  17.713   1.722
18697W        W80360   0.368  25.087  13.907
18698W        W80361  21.606   4.934  13.997
18699W        W80362  19.266  12.310   5.625
18700W        W80363   1.269  17.651   1.267
18701W        W80364  30.526   7.910  13.821
18702W        W80365  14.311   3.224   0.776
18703W        W80366  43.004  41.316  13.060
18704W        W80367  40.000  44.305  14.419
18705W        W80368   2.751  22.229   1.258
18706W        W80369  29.127  17.598   3.292
18707W        W80370  13.650  18.574  12.367
18708W        W80371  31.969   8.738   4.333
18709W        W80372  29.960   4.807   1.788
18710W        W80373  29.446  42.876   1.740
18711W        W80374  22.522  10.366  10.519
18712W        W80375  37.982  32.563   4.814
18713W        W80376  10.208  11.310   1.712
18714W        W80377  14.815   8.172  13.889
18715W        W80378  19.207  24.527   2.885
18716W        W80379   9.662  11.254  11.434
18717W        W80380   4.385  29.592   0.774
18718W        W80381  30.986  26.555   3.751
18719W        W80382  10.698  38.038   4.678
18720W        W80383  38.928  14.289   1.369
18721W        W80384  35.861  14.588   0.244
18722W        W80385  21.187  28.638  13.493
18723W        W80386   2.793   6.228  12.091
18724W        W80387  41.491  42.348   3.717
18725W        W80388  17.232  10.747   0.380
18726W        W80389  19.750  12.224  12.573
18727W        W80390   8.260  28.960  14.306
18728W        W80391  25.691   3.824   0.459
18729W        W80392  13.306  22.669  14.376
18730W        W80393  35.101  33.591  14.854
18731W        W80394  27.169  10.365   2.406
18732W        W80395   3.741  30.434  13.507
18733W        W80396   9.766  21.028  12.069
18734W        W80397   9.284  42.847  12.452
18735W        W80398   8.704  18.544   2.665
18736W        W80399  13.837  44.412  13.893
18737W        W80400  37.007  21.527  14.875
18738W        W80401   7.351   3.936   3.262
18739W        W80402  15.628  40.945   4.646
18740W        W80403  19.674  31.920   2.242
18741W        W80404  30.935  14.243   4.315
18742W        W80405   0.819  21.049  11.465
18743W        W80406  22.096  23.592   0.728
18744W        W80407  27.974  42.371   0.765
18745W        W80408  31.091  17.769  14.979
18746W        W80409  28.095  29.996   2.196
18747W        W80410  18.626   6.920  13.437
18748W        W80411  26.598   8.806   3.792
18749W        W80412  27.946   5.295   1.353
18750W        W80413  26.129  23.027   0.830
18751W        W80414  37.546   3.324   3.302
18752W        W80415  10.681  21.580   1.803
18753W        W80416  30.074  26.670  11.464
18754W        W80417   3.331  18.151   3.256
18755W        W80418   9.264   6.795  12.936
18756W        W80419  20.711  35.549   4.305
18757W        W80420  22.720  33.576   2.736
18758W        W80421  29.126   4.261   4.247
18759W        W80422   8.180  36.382   0.732
18760W        W80423  41.871  21.055   9.992
18761W        W80424  15.671  23.106  14.778
18762W        W80425  41.925  44.388  13.990
18763W        W80426  42.955  16.241  12.077
18764W        W80427  28.139  23.099   0.323
18765W        W80428  24.620   6.799   3.690
18766W        W80429  21.749  37.956   2.780
18767W        W80430  32.531  23.527  10.543
18768W        W80431   7.877  12.245   4.735
18769W        W80432  26.205   9.808   3.683
18770W        W80433  23.220  12.155  11.612
18771W        W80434   5.195  44.399  14.398
18772W        W80435  21.226  27.051   3.842
18773W        W80436  18.287  25.684   3.659
18774W        W80437  36.892  42.961   2.365
18775W        W80438   0.402  33.044  13.940
18776W        W80439  30.550   1.742  12.952
18777W        W80440   1.431  27.586  11.032
18778W        W80441   4.820  35.498   1.384
18779W        W80442  44.984  41.363  13.474
18780W        W80443   4.416  33.886   4.268
18781W        W80444  11.179   1.968   1.751
18782W        W80445  27.129  41.812   0.768
18783W        W80446  24.500  32.034   3.166
18784W        W80447  27.451  24.130   3.242
18785W        W80448  27.145  44.826   1.822
18786W        W80449  24.558   4.260   3.793
18787W        W80450   2.919  25.086   2.762
18788W        W80451  35.026  34.916   3.176
18789W        W80452   7.226  12.248  12.342
18790W        W80453  36.538  19.244  12.521
18791W        W80454  13.124  11.316   0.783
18792W        W80455  20.060  27.592   3.798
18793W        W80456  14.161   5.725  11.869
18794W        W80457  33.381  12.779   3.631
18795W        W80458  42.521   7.266   3.233
18796W        W80459  41.365  26.692   1.872
18797W        W80460  44.783  10.224   3.754
18798W        W80461  33.054  17.662   2.383
18799W        W80462   8.781  18.167   3.303
18800W        W80463  12.293  33.510   4.221
18801W        W80464  19.228  16.770   0.325
18802W        W80465  36.903  38.375  12.554
18803W        W80466  44.310   7.768   0.950
18804W        W80467  20.157  19.709   5.283
18805W        W80468  30.982  15.633   4.609
18806W        W80469  30.996   5.875   0.260
18807W        W80470  25.670  31.514   0.258
18808W        W80471  26.646  21.687  11.528
18809W        W80472  10.383  38.910  12.014
18810W        W80473  41.479   2.963  12.914
18811W        W80474  12.358  17.567   1.884
18812W        W80475   2.965   3.857  13.940
18813W        W80476  34.874  21.172  13.927
18814W        W80477  36.372  19.565   3.861
18815W        W80478   2.229  25.192   1.267
18816W        W80479  42.831  22.650   2.347
18817W        W80480  15.282  43.839  14.885
18818W        W80481  23.994   8.764   2.686
18819W        W80482  30.915  15.656  10.909
18820W        W80483  20.561   9.212  13.542
18821W        W80484  15.733  25.542  11.100
18822W        W80485  28.537  23.083  14.912
18823W        W80486  10.341  13.247  12.026
18824W        W80487   7.317  41.315  12.374
18825W        W80488  38.019  32.476   2.792
18826W        W80489  24.030   5.779  14.400
18827W        W80490  38.937  22.157  11.561
18828W        W80491  28.022   7.757  14.769
18829W        W80492  31.012   7.220   4.319
18830W        W80493  12.153  42.846  11.117
18831W        W80494  12.804  21.227  11.080
18832W        W80495  27.531   9.268   3.841
18833W        W80496  20.187  24.090  13.319
18834W        W80497  37.469  17.656   1.811
18835W        W80498   5.280  43.270  14.992
18836W        W80499  43.290  17.194  10.406
18837W        W80500   2.437  44.882   3.327
18838W        W80501  20.097  37.424  10.504
18839W        W80502   6.229  28.059   0.332
18840W        W80503  42.867  22.214   0.302
18841W        W80504  38.845  39.904   2.686
18842W        W80505  29.450  27.483   1.233
18843W        W80506  17.267  25.567   2.835
18844W        W80507  25.580  42.943  14.289
18845W        W80508  12.767   5.233   2.297
18846W        W80509  41.302   0.882   4.341
18847W        W80510  27.060  39.971   3.729
18848W        W80511  25.082   4.935   1.927
18849W        W80512  15.314  38.952  11.122
18850W        W80513  19.224  13.737  11.102
18851W        W80514   9.803  19.258  13.872
18852W        W80515  25.080   8.380  12.540
18853W        W80516  20.101  26.556  13.343
18854W        W80517  20.668   1.881   1.243
18855W        W80518  21.133  42.351  14.365
18856W        W80519   0.321  27.624   0.777
18857W        W80520  13.624  14.157   2.376
18858W        W80521  43.012   1.336  14.497
18859W        W80522   2.275  41.796   3.281
18860W        W80523   4.798  30.983  14.805
18861W        W80524  25.037  24.200  12.493
18862W        W80525  14.713  20.177  12.079
18863W        W80526   0.862  14.179  13.467
18864W        W80527   5.924  31.447  13.855
18865W        W80528  26.068  16.259   0.254
18866W        W80529  15.198  27.067  13.517
18867W        W80530  10.779  18.610  12.504
18868W        W80531  13.839  35.052   1.249
18869W        W80532   8.790  35.062  13.367
18870W        W80533  15.770  12.669  14.491
18871W        W80534  19.263  14.100  13.858
18872W        W80535   1.460  37.904  14.450
18873W        W80536  13.819  16.585   2.400
18874W        W80537   8.250  40.464   3.755
18875W        W80538  31.428   5.908   1.763
18876W        W80539   7.247  21.044   4.125
18877W        W80540  12.200  16.185   1.224
18878W        W80541  27.603  12.843  13.394
18879W        W80542  29.940   7.406   1.324
18880W        W80543  12.840   7.885  12.958
18881W        W80544  12.668  10.271  12.838
18882W        W80545  42.803  28.505  13.386
18883W        W80546   0.318  30.467   2.408
18884W        W80547  40.544  23.066   0.785
18885W        W80548  10.689   8.709   2.734
18886W        W80549   1.418  40.852  12.029
18887W        W80550  38.358   8.251  13.059
18888W        W80551  35.567  31.410  13.407
18889W        W80552  40.926  22.674  12.054
18890W        W80553  37.537  13.666  10.511
18891W        W80554  43.362   6.262   1.911
18892W        W80555  43.966  10.868   3.352
18893W        W80556  31.606  37.431  11.467
18894W        W80557  18.144  20.670  13.900
18895W        W80558  23.641   5.373  13.009
18896W        W80559   8.302   8.757  12.413
18897W        W80560  20.700  18.097   0.335
18898W        W80561  34.095  41.514  10.567
18899W        W80562  16.161   8.887   2.719
18900W        W80563  44.868  25.149  12.358
18901W        W80564  41.392   0.797   0.257
18902W        W80565  38.358  36.417   1.785
18903W        W80566  42.297  38.027  13.961
18904W        W80567   5.436   6.785   4.175
18905W        W80568   6.814   0.389   2.242
18906W        W80569  37.445  40.314  11.515
18907W        W80570  42.436  25.069   4.681
18908W        W80571  39.462   0.815   1.327
18909W        W80572  15.111   4.747   3.251
18910W        W80573  30.088  28.166  13.311
18911W        W80574  42.330   7.215  12.379
18912W        W80575  25.005  16.688  11.438
18913W        W80576  11.185  41.034   4.313
18914W        W80577   4.810  31.507   2.224
18915W        W80578  17.597  33.902   1.724
18916W        W80579  42.521  41.309   2.893
18917W        W80580  30.439  24.083  12.910
18918W        W80581  35.519  16.805   0.341
18919W        W80582  40.980  14.669  12.493
18920W        W80583   0.493  35.449   2.299
18921W        W80584  42.428  41.506  14.373
18922W        W80585  11.225  33.395   1.286
18923W        W80586   2.860   8.840   1.418
18924W        W80587  28.490  35.448  10.948
18925W        W80588  24.154  18.063   5.263
18926W        W80589  20.116  33.081   3.167
18927W        W80590  39.887  43.903  10.501
18928W        W80591  44.851  27.650   1.926
18929W        W80592   0.275   3.359   2.221
18930W        W80593  24.592  42.492  13.366
18931W        W80594  34.422  15.148  13.874
18932W        W80595  35.964  18.087  12.389
18933W        W80596  19.160  18.618  13.540
18934W        W80597  24.140  29.529  11.944
18935W        W80598  38.015  19.596  14.426
18936W        W80599  18.056  27.635  11.043
18937W        W80600  11.766  40.982  12.574
18938W        W80601  11.677  25.615  11.421
18939W        W80602  27.117  39.518  13.437
18940W        W80603   9.225   8.384  13.918
18941W        W80604  11.648  26.515  13.013
18942W        W80605  18.198  43.292  10.456
18943W        W80606  43.873   9.294  13.045
18944W        W80607  18.210  23.601  10.415
18945W        W80608  33.538  33.012  11.440
18946W        W80609  15.745   5.392  11.415
18947W        W80610  10.228  17.695  13.004
18948W        W80611   1.296  22.085  10.983
18949W        W80612  41.374  39.418  12.980
18950W        W80613  20.234  41.017   2.808
18951W        W80614  44.345  44.314  12.050
18952W        W80615  35.066  20.632  12.992
18953W        W80616  34.964  22.090  12.355
18954W        W80617  39.054  41.297   1.764
18955W        W80618  15.644  30.533  14.915
18956W        W80619  33.038  14.321  12.976
18957W        W80620  43.805  29.096  12.406
18958W        W80621  27.940  27.040  12.525
18959W        W80622  11.661  43.372  14.409
18960W        W80623  35.466   4.894  14.874
18961W        W80624  16.660  25.143   3.856
18962W        W80625  40.008  20.163  14.281
18963W        W80626  35.023  17.264   2.684
18964W        W80627  38.829  22.045   9.941
18965W        W80628  30.962  17.203   1.282
18966W        W80629   9.676  40.013  13.359
18967W        W80630  13.712  43.008  12.399
18968W        W80631  15.600   6.219  12.521
18969W        W80632  36.559  32.931  12.539
18970W        W80633  42.016  32.142  14.430
18971W        W80634  33.036  19.756  14.945
18972W        W80635  19.209  43.832  11.056
18973W        W80636   4.871  44.877  12.027
18974W        W80637  34.955  32.625  11.605
18975W        W80638  30.489  42.373  10.894
18976W        W80639  24.006   6.301   2.414
18977W        W80640  11.830   1.855   4.624
18978W        W80641   9.666  39.065  13.925
18979W        W80642  44.982   4.715   1.250
18980W        W80643  12.632  34.438  12.036
18981W        W80644  33.058  17.616  11.090
18982W        W80645  13.834  19.756  12.374
18983W        W80646  23.088  21.074   0.752
18984W        W80647  44.980  18.714  13.511
18985W        W80648  20.169  31.612  14.325
18986W        W80649   4.744   5.407  11.063
18987W        W80650   1.418   7.184  13.431
18988W        W80651  11.788  23.668   4.169
18989W        W80652  42.414  22.070   3.216
18990W        W80653   6.713  41.846  14.019
18991W        W80654  22.083  30.051   4.275
18992W        W80655  17.664   4.328  12.075
18993W        W80656  13.601   5.194   4.158
18994W        W80657  32.987  34.557  13.508
18995W        W80658  13.271   7.689   3.813
18996W        W80659  43.788   7.332  12.074
18997W        W80660   2.768   3.226  11.511
18998W        W80661  40.536   4.741   2.360
18999W        W80662  42.525  32.434  10.449
19000W        W80663   8.859  38.503  13.017
19001W        W80664  42.991  28.476  11.533
19002W        W80665  14.707  26.043   3.156
19003W        W80666   1.859  16.170  12.352
19004W        W80667   6.326   6.921   1.365
19005W        W80668  32.922   2.381  11.459
19006W        W80669  29.454  23.153   3.824
19007W        W80670  38.819   3.446   1.294
19008W        W80671  23.197  31.578   0.366
19009W        W80672  11.354  26.592   5.218
19010W        W80673  41.309   3.374   3.772
19011W        W80674   7.792   1.756  12.466
19012W        W80675  36.070  23.683  12.474
19013W        W80676  35.001  20.182   5.722
19014W        W80677   8.826  29.533  12.406
19015W        W80678  34.377   6.384  12.362
19016W        W80679  35.054  37.458  14.326
19017W        W80680  21.234  33.935  12.379
19018W        W80681   9.316   3.434   2.242
19019W        W80682  16.120   6.782  11.437
19020W        W80683  26.505   9.248  11.607
19021W        W80684  37.546  30.965  11.430
19022W        W80685  42.463  35.420  14.514
19023W        W80686  26.015  27.560   1.815
19024W        W80687  32.608  10.141  12.521
19025W        W80688  35.541   8.682  13.343
19026W        W80689  44.479  43.943   4.122
19027W        W80690  23.015  34.451   0.741
19028W        W80691  44.958  23.120   2.862
19029W        W80692  19.605   4.391   5.236
19030W        W80693   3.922  14.681  13.417
19031W        W80694  22.717  10.847  13.025
19032W        W80695   1.421  30.491  14.894
19033W        W80696  21.739  15.267   4.300
19034W        W80697  33.931  12.252  12.551
19035W        W80698  10.203  26.522   5.088
19036W        W80699   7.767  12.350   4.128
19037W        W80700  35.404  12.855  13.862
19038W        W80701   0.963  41.875   1.833
19039W        W80702   7.865  42.484  13.957
19040W        W80703  17.208  19.233  12.489
19041W        W80704  11.313  37.013   0.924
19042W        W80705  26.180  12.768  14.896
19043W        W80706   1.835   9.666   1.318
19044W        W80707   7.863  15.213   3.181
19045W        W80708  41.522  31.057  11.982
19046W        W80709   9.339  38.990  11.907
19047W        W80710  32.538   7.248  11.511
19048W        W80711  15.706  38.022   5.090
19049W        W80712   2.947  23.216   4.309
19050W        W80713  13.304  19.535  12.532
19051W        W80714  26.509  32.473  10.904
19052W        W80715   3.371  22.137   0.768
19053W        W80716  36.593  44.843   4.715
19054W        W80717  21.130  30.003  12.980
19055W        W80718  34.502  35.544  10.549
19056W        W80719  29.588  16.312  13.017
19057W        W80720  35.549  39.392   1.843
19058W        W80721  27.450  39.317  11.056
19059W        W80722  42.838   7.815   1.298
19060W        W80723   2.410  23.163   0.764
19061W        W80724   6.700   9.373  12.080
19062W        W80725  20.623   6.381   3.760
19063W        W80726   6.885   0.751   0.888
19064W        W80727   5.313  40.973  10.491
19065W        W80728  40.899  22.628  13.342
19066W        W80729  36.077  14.602   4.788
19067W        W80730  34.025  10.800  12.912
19068W        W80731  22.245  25.526   0.806
19069W        W80732  14.187   2.922  12.904
19070W        W80733   9.851  41.481  14.439
19071W        W80734   8.790  30.958  10.588
19072W        W80735  36.409  27.157  14.485
19073W        W80736  41.884  31.018  14.344
19074W        W80737  15.578  26.699   2.205
19075W        W80738  21.516  10.857  12.006
19076W        W80739  21.095   5.267  13.844
19077W        W80740   4.928  36.907  10.640
19078W        W80741  11.864  12.258  10.403
19079W        W80742  21.136   4.325   0.279
19080W        W80743  36.039  41.935   4.314
19081W        W80744  28.669   1.483  13.846
19082W        W80745  21.095  25.575  14.779
19083W        W80746  12.201  11.275  13.851
19084W        W80747  16.750  37.945  11.404
19085W        W80748  20.644   9.866  10.624
19086W        W80749  34.489  20.052  13.858
19087W        W80750  39.333  18.233  11.032
19088W        W80751   3.796  29.113   5.281
19089W        W80752  15.726   6.682   4.822
19090W        W80753   7.742  36.490  13.911
19091W        W80754  37.534  41.370   3.296
19092W        W80755  10.873  33.482   9.988
19093W        W80756  38.883  39.961  13.373
19094W        W80757  36.415   1.863  12.395
19095W        W80758  33.479  12.274  14.859
19096W        W80759   8.304  40.346   3.267
19097W        W80760  23.037  26.554  11.501
19098W        W80761   9.732  37.410  12.365
19099W        W80762  28.165  16.261  12.029
19100W        W80763  35.010  12.796   4.745
19101W        W80764  43.351   4.384   0.311
19102W        W80765  29.435  25.596   1.872
19103W        W80766  33.543  26.467   4.304
19104W        W80767  44.409  34.986   0.931
19105W        W80768   2.957  29.521   1.777
19106W        W80769   0.297  36.394   1.313
19107W        W80770   9.868  10.717   3.663
19108W        W80771  35.932  12.225   0.255
19109W        W80772  39.042  14.280   4.629
19110W        W80773  24.228  41.949   1.269
19111W        W80774   0.784   8.685  13.928
19112W        W80775  25.530   3.925   5.192
19113W        W80776  15.244  26.492   4.248
19114W        W80777  18.715  32.613   2.784
19115W        W80778  12.720  14.647   3.373
19116W        W80779   0.426   0.265  14.413
19117W        W80780   5.727  35.924  12.375
19118W        W80781  29.467  28.050  12.353
19119W        W80782  26.037  13.721  11.048
19120W        W80783  14.800  22.685   5.282
19121W        W80784  31.017  23.633   0.750
19122W        W80785   3.408   4.273   0.728
19123W        W80786  32.889  36.021  13.947
19124W        W80787  17.272  43.365  14.412
19125W        W80788  32.904  41.817  10.438
19126W        W80789  33.026  24.051  10.593
19127W        W80790  41.836  30.587  14.840
19128W        W80791  15.203  19.606   3.361
19129W        W80792   2.467   0.266  14.832
19130W        W80793  24.140   9.234   4.826
19131W        W80794  16.584  14.817  13.445
19132W        W80795  43.827  26.639  14.967
19133W        W80796  15.111  16.615  11.114
19134W        W80797  22.658   1.440   3.777
19135W        W80798  22.173  37.973  14.894
19136W        W80799  37.028  12.757  10.446
19137W        W80800  11.318  29.950  11.091
19138W        W80801   1.791  34.109   3.263
19139W        W80802  31.458   6.344  11.464
19140W        W80803  18.761   0.772  11.015
19141W        W80804  14.717  32.547   2.394
19142W        W80805   6.370  28.644  12.041
19143W        W80806   2.442  26.472   5.119
19144W        W80807   5.805  37.472  14.291
19145W        W80808  29.552  33.933  10.562
19146W        W80809   2.228  19.587   1.871
19147W        W80810   6.246  28.519  13.846
19148W        W80811  12.836  12.758  11.071
19149W        W80812   6.240  34.604  11.567
19150W        W80813  18.050   3.924  11.005
19151W        W80814   3.886  16.192   0.917
19152W        W80815  11.729   3.417   2.843
19153W        W80816  10.337  22.220  14.373
19154W        W80817   0.357  41.833   4.635
19155W        W80818  29.430  22.747   3.159
19156W        W80819   4.266  10.316  12.074
19157W        W80820  20.040   6.348   4.271
19158W        W80821  18.148  23.169   1.320
19159W        W80822   3.359  22.249   3.778
19160W        W80823  16.214  11.855   1.870
19161W        W80824   8.262  26.621  14.980
19162W        W80825   8.205  22.211   0.869
19163W        W80826  17.641  28.103  10.903
19164W        W80827   6.249  40.998   2.269
19165W        W80828  27.512  30.572   3.384
19166W        W80829  21.114  39.460   2.364
19167W        W80830  30.533  16.080   2.695
19168W        W80831  36.995  37.382   1.420
19169W        W80832  43.411  39.005  12.493
19170W        W80833  32.490  36.015  14.848
19171W        W80834  32.605   9.820   1.846
19172W        W80835  41.364  20.100   4.229
19173W        W80836  19.711  19.087  13.064
19174W        W80837   6.849  11.187  14.416
19175W        W80838   9.819  15.775   0.329
19176W        W80839  16.301  11.721  13.397
19177W        W80840   8.216  11.309   1.717
19178W        W80841  28.979  14.785   4.349
19179W        W80842  21.746   9.869  14.507
19180W        W80843  32.892  10.271   3.385
19181W        W80844  19.692  21.711   1.729
19182W        W80845  15.211  22.206   1.267
19183W        W80846  14.310   9.873   4.342
19184W        W80847  41.964  23.734  10.508
19185W        W80848  42.514  27.946  14.981
19186W        W80849  44.990  41.912  13.344
19187W        W80850  23.172   7.768  13.944
19188W        W80851  35.044  23.239   4.228
19189W        W80852  21.101  15.780  14.854
19190W        W80853  26.956  10.861  14.948
19191W        W80854  17.792  30.024   1.922
19192W        W80855  21.027  19.695  13.367
19193W        W80856   0.852  32.128   3.148
19194W        W80857  43.451  28.167  13.958
19195W        W80858  12.627   2.263   3.317
19196W        W80859  19.560  13.741   2.711
19197W        W80860  27.006  17.290   2.662
19198W        W80861  41.809  20.701   3.267
19199W        W80862  21.524  21.096   9.937
19200W        W80863  31.993  30.607   4.142
19201W        W80864  34.007  28.000   3.734
19202W        W80865  20.057  20.206  12.068
19203W        W80866  39.434  37.478  10.644
19204W        W80867  30.123   2.916  14.836
19205W        W80868  40.509  35.059  13.350
19206W        W80869   6.759  19.111  10.903
19207W        W80870  42.358  19.185   1.888
19208W        W80871  21.719   9.310  12.558
19209W        W80872  38.538  14.635   1.375
19210W        W80873   9.284  19.115   3.160
19211W        W80874  30.597  16.269   2.209
19212W        W80875  10.740  19.772  13.052
19213W        W80876  13.161  11.346  12.959
19214W        W80877   2.871  20.579  11.985
19215W        W80878  32.587  31.412  14.282
19216W        W80879  14.812  16.715   1.335
19217W        W80880   3.753  18.158   4.665
19218W        W80881  41.923  36.473   4.261
19219W        W80882  10.660   5.378   1.218
19220W        W80883  17.101  42.973   1.921
19221W        W80884  42.777  42.941   1.289
19222W        W80885  38.050  12.141  11.453
19223W        W80886  44.447  29.927   3.720
19224W        W80887  28.955  19.668   3.676
19225W        W80888  25.128  17.112   5.225
19226W        W80889  26.017  18.662  12.508
19227W        W80890  25.130  21.698   0.781
19228W        W80891  16.147   4.239   4.772
19229W        W80892   2.723   7.414   0.294
19230W        W80893  10.297   9.735   3.729
19231W        W80894   3.411   5.262   2.681
19232W        W80895  25.979  15.760  12.539
19233W        W80896  31.055  30.104  12.416
19234W        W80897  30.584   7.760   3.364
19235W        W80898  12.129  11.840  14.381
19236W        W80899  35.518  31.489  11.568
19237W        W80900  44.953   1.817   3.644
19238W        W80901  11.664  34.611   3.380
19239W        W80902  42.314  14.691  14.983
19240W        W80903   9.847   8.746   5.263
19241W        W80904  34.105  19.224  10.973
19242W        W80905  22.556  29.495   2.724
19243W        W80906   8.827  30.967   3.189
19244W        W80907  23.125  29.046  14.480
19245W        W80908  44.312  36.052  14.405
19246W        W80909  31.464   4.737  13.900
19247W        W80910   3.839   0.491   1.763
19248W        W80911  12.736   0.862   3.208
19249W        W80912  34.936   9.255  10.632
19250W        W80913  30.948  28.557   1.426
19251W        W80914   2.268  39.411   4.183
19252W        W80915   4.216  35.563  12.062
19253W        W80916  22.071  40.870  12.834
19254W        W80917  44.322  31.001  11.477
19255W        W80918   7.769   6.828  12.050
19256W        W80919   6.901  13.231  10.458
19257W        W80920  37.447  19.122  12.001
19258W        W80921  24.628  33.972  10.583
19259W        W80922   1.927  42.455  12.082
19260W        W80923  15.598  10.325  11.584
19261W        W80924   6.365   0.494   3.147
19262W        W80925  31.130  41.376  13.980
19263W        W80926  44.502   3.327  13.538
19264W        W80927   3.954   3.305   0.885
19265W        W80928  35.446  14.819   4.352
19266W        W80929  11.714  18.708  14.953
19267W        W80930  34.960  41.830  14.843
19268W        W80931  41.378   3.284  13.046
19269W        W80932  39.914  41.426  11.049
19270W        W80933  13.252   2.906   4.696
19271W        W80934  27.004  16.120   3.381
19272W        W80935  25.060  23.213  12.852
19273W        W80936  38.553  29.988  11.515
19274W        W80937   0.755   9.813  11.017
19275W        W80938  25.115   9.185   4.195
19276W        W80939  30.154  20.601   5.743
19277W        W80940  32.905  38.486   4.758
19278W        W80941   9.187  36.948   0.881
19279W        W80942  38.444   9.884   0.868
19280W        W80943   1.324  29.089  10.641
19281W        W80944  31.114  18.670   0.256
19282W        W80945   0.984  14.191   4.316
19283W        W80946  14.326  22.531   2.343
19284W        W80947   6.739  37.883   0.937
19285W        W80948  43.810  43.353   4.295
19286W        W80949  40.374  17.179  12.465
19287W        W80950  12.260  29.966   0.345
19288W        W80951  32.531  29.427   2.879
19289W        W80952  44.288  14.204  11.035
19290W        W80953  42.375  13.679   1.303
19291W        W80954  16.800   1.334   2.188
19292W        W80955  35.418  37.971   4.607
19293W        W80956  17.800  11.216   4.699
19294W        W80957  14.318  34.944   2.212
19295W        W80958  26.512  32.556   1.355
19296W        W80959  38.989  13.208   1.834
19297W        W80960  33.524   8.348   1.239
19298W        W80961  15.746  42.852  11.531
19299W        W80962  20.706  11.276  11.890
19300W        W80963   1.474  40.798   2.201
19301W        W80964  19.779   7.322   2.193
19302W        W80965  22.672  38.958   4.326
19303W        W80966  37.542  22.202  14.514
19304W        W80967   8.356   9.171  11.374
19305W        W80968  33.089  25.596   2.710
19306W        W80969  39.529  30.027   2.306
19307W        W80970  29.581  36.447   4.629
19308W        W80971   4.225  25.976   1.276
19309W        W80972   8.211  22.642  14.851
19310W        W80973  10.681  25.681  11.450
19311W        W80974  37.838  20.240  13.826
19312W        W80975  28.954  18.102  13.328
19313W        W80976  19.625  16.630   3.245
19314W        W80977   5.354  33.451  10.617
19315W        W80978  18.239  41.364   4.243
19316W        W80979  11.795   2.452  14.466
19317W        W80980  23.539  12.161  10.557
19318W        W80981  20.660  28.088   0.369
19319W        W80982  38.050   7.864   1.299
19320W        W80983  20.045  29.152  11.564
19321W        W80984  29.918  42.787  13.515
19322W        W80985  38.054  42.978   3.756
19323W        W80986  33.474  16.737   3.704
19324W        W80987  31.501  35.898   1.869
19325W        W80988   2.338  28.096  14.395
19326W        W80989  14.226  26.486   4.654
19327W        W80990  41.530   0.801  10.487
19328W        W80991  29.571  18.774  11.046
19329W        W80992  44.894  13.666   9.975
19330W        W80993  39.873  10.222  13.859
19331W        W80994  39.992  37.362   3.724
19332W        W80995  41.991   3.400  10.453
19333W        W80996  22.199  27.049  11.514
19334W        W80997  35.410  33.499   3.859
19335W        W80998  12.272  35.056   4.293
19336W        W80999  13.141  34.510   2.888
19337W        W81000  29.471  42.478   2.224
19338W        W81001  37.547  24.196  10.954
19339W        W81002  23.674  32.102   1.367
19340W        W81003  26.605   9.751  14.771
19341W        W81004   6.303   4.288  10.566
19342W        W81005  22.113  29.532   3.243
19343W        W81006   1.314  39.423  13.904
19344W        W81007   7.705  18.592  11.971
19345W        W81008  10.719   8.695  12.078
19346W        W81009  44.492   8.803  13.374
19347W        W81010  43.996  29.925  12.447
19348W        W81011  31.566  37.519   3.211
19349W        W81012  40.008  11.656  12.421
19350W        W81013   2.784   0.274   3.634
19351W        W81014   0.416  37.498  13.988
19352W        W81015  32.397  31.931   0.945
19353W        W81016  14.105   6.421   2.843
19354W        W81017   0.917  24.018  12.856
19355W        W81018  22.061   4.422  14.397
19356W        W81019  36.392  20.270   0.243
19357W        W81020  20.733   4.899   4.830
19358W        W81021   3.264  39.421  11.966
19359W        W81022  42.848  39.378  11.437
19360W        W81023  37.553   4.228  11.514
19361W        W81024  30.107  25.135  12.013
19362W        W81025   1.350  31.013  11.992
19363W        W81026  44.951  17.790   3.324
19364W        W81027  34.395   1.436  12.947
19365W        W81028  16.264   9.680  12.575
19366W        W81029  35.431  39.554  14.841
19367W        W81030  23.583   7.813  11.499
19368W        W81031  31.990   2.764   3.259
19369W        W81032  11.842  13.640  14.473
19370W        W81033  23.069   1.380  10.437
19371W        W81034  25.688   0.843  10.992
19372W        W81035  24.065  19.546  10.959
19373W        W81036  18.084  21.140   4.769
19374W        W81037  31.580   7.364  11.466
19375W        W81038   6.291   5.894  12.563
19376W        W81039   1.974  10.274   0.331
19377W        W81040  43.475  35.978  13.999
19378W        W81041  25.143  13.759  11.494
19379W        W81042   1.784  26.556  14.374
19380W        W81043  37.443  22.589   0.392
19381W        W81044  12.210  26.050  11.908
19382W        W81045  38.042  38.344   2.805
19383W        W81046  17.249  29.961  12.957
19384W        W81047   6.209   5.726  13.796
19385W        W81048  22.177   5.766   3.728
19386W        W81049  35.590  19.198  13.536
19387W        W81050   6.887  28.483  14.010
19388W        W81051  38.375  26.141   2.867
19389W        W81052  43.955  25.214  14.857
19390W        W81053  37.027   5.874  12.379
19391W        W81054  18.756  29.520   1.313
19392W        W81055  21.128  24.671  12.457
19393W        W81056  13.286  37.381   3.663
19394W        W81057  12.669  16.599   3.637
19395W        W81058  43.859  30.651   0.815
19396W        W81059  38.077  39.535   1.815
19397W        W81060  40.884  37.492   4.216
19398W        W81061  13.807  10.670  11.569
19399W        W81062   7.781   4.899  11.881
19400W        W81063   1.842  13.686  12.935
19401W        W81064  37.371  13.783  14.505
19402W        W81065   2.947   5.704  14.350
19403W        W81066  11.694  33.068   2.794
19404W        W81067  44.283  41.877   0.398
19405W        W81068  13.653   3.732   4.731
19406W        W81069  15.144  38.928   5.106
19407W        W81070  29.423  14.755   3.813
19408W        W81071  19.649  24.183  14.460
19409W        W81072   9.860  11.761   4.344
19410W        W81073  28.146  11.630  14.789
19411W        W81074   4.433   5.402  10.939
19412W        W81075  18.073  17.267   4.625
19413W        W81076  23.031  25.190   2.870
19414W        W81077   6.840  10.684   1.291
19415W        W81078  23.094   7.749  13.405
19416W        W81079  40.523  30.977   2.232
19417W        W81080  26.604  27.539  11.604
19418W        W81081  13.622   4.848   3.311
19419W        W81082  33.449  13.834  11.016
19420W        W81083   9.373  12.213  11.439
19421W        W81084  17.666  14.260  13.327
19422W        W81085  22.604  22.548  13.363
19423W        W81086  11.755  16.708  14.813
19424W        W81087  26.531  41.361   3.322
19425W        W81088  38.427  10.760   2.394
19426W        W81089  19.666  38.364  11.919
19427W        W81090  25.477  28.460  14.989
19428W        W81091   7.327  20.088   3.330
19429W        W81092  36.521  24.991   5.259
19430W        W81093   3.936   5.898  10.515
19431W        W81094  25.109  27.176   4.230
19432W        W81095  40.885  25.591  13.321
19433W        W81096   5.374   7.822  10.944
19434W        W81097   2.235  37.074   1.928
19435W        W81098   7.801   4.819  13.803
19436W        W81099  11.767   4.882   9.990
19437W        W81100  29.462  43.480  12.430
19438W        W81101  44.440  42.812   2.408
19439W        W81102  43.331   0.874  11.465
19440W        W81103  35.949  44.892   0.835
19441W        W81104  24.591  13.637  12.946
19442W        W81105  40.847  35.363  13.533
19443W        W81106  30.526  28.974  10.441
19444W        W81107  13.127   7.403   5.627
19445W        W81108  34.591  22.203  13.908
19446W        W81109  23.649  20.080  10.963
19447W        W81110  29.967  12.636   2.354
19448W        W81111  34.401  35.486   3.854
19449W        W81112  13.152  25.511  13.799
19450W        W81113  10.261  44.397   2.199
19451W        W81114  39.398   5.206   4.714
19452W        W81115   3.354  31.949   2.815
19453W        W81116  39.371  31.441   3.223
19454W        W81117  19.042  42.436   4.732
19455W        W81118  27.535   3.364   2.258
19456W        W81119  29.122  10.793  13.451
19457W        W81120  28.448  14.135  14.931
19458W        W81121  38.832  40.881  14.363
19459W        W81122  22.020  25.049   3.864
19460W        W81123  27.567  44.379  12.068
19461W        W81124  41.366  39.861  14.853
19462W        W81125   2.333   7.304  14.996
19463W        W81126  19.549  27.470   1.881
19464W        W81127  42.380  12.773   2.192
19465W        W81128  18.746  18.074   1.316
19466W        W81129  36.929  32.404   4.775
19467W        W81130   4.830  36.432   4.278
19468W        W81131  17.123  22.087   1.297
19469W        W81132  32.132  38.532   3.791
19470W        W81133   9.183  23.630  14.952
19471W        W81134  32.906  12.124  14.010
19472W        W81135  22.050  43.440  14.783
19473W        W81136  24.162   4.209  11.934
19474W        W81137  44.371  35.030   3.334
19475W        W81138  18.667   6.920  12.985
19476W        W81139  23.149  37.427   3.821
19477W        W81140  44.291  25.675  12.013
19478W        W81141  31.509  11.694   4.702
19479W        W81142  22.213   0.799   1.884
19480W        W81143   0.982  39.047  13.425
19481W        W81144  21.727   4.333  13.956
19482W        W81145  38.560  24.014  11.413
19483W        W81146   1.769  40.370  12.350
19484W        W81147   6.802  34.437  10.445
19485W        W81148  37.484   0.814  10.929
19486W        W81149  13.770  44.347   4.794
19487W        W81150   6.372   3.264   3.651
19488W        W81151  15.686  20.670  10.412
19489W        W81152  21.615  17.094  13.793
19490W        W81153   4.842   1.482   2.903
19491W        W81154  42.008   6.316  14.913
19492W        W81155  29.669  22.130   2.242
19493W        W81156  18.212   2.847  12.908
19494W        W81157   5.892  39.940  13.528
19495W        W81158   7.909  38.913  14.349
19496W        W81159  39.558  22.677  11.008
19497W        W81160   6.727  31.132   3.745
19498W        W81161  27.673  14.102  12.445
19499W        W81162   1.888   6.273   0.828
19500W        W81163  41.500   2.288   4.285
19501W        W81164   8.160  11.661  14.771
19502W        W81165  12.698  26.992   3.151
19503W        W81166  37.846  13.318  10.477
19504W        W81167   9.279  23.215  13.537
19505W        W81168  21.554   2.908  14.282
19506W        W81169  37.008  10.159   0.404
19507W        W81170  38.895   0.975  12.048
19508W        W81171  11.850  43.417  11.591
19509W        W81172  20.147  22.181   4.147
19510W        W81173  38.530   2.885   3.669
19511W        W81174  31.013  19.575  12.439
19512W        W81175  39.836   9.252   2.787
19513W        W81176  12.663  31.539  11.441
19514W        W81177  37.337  36.548  12.956
19515W        W81178  22.017  42.433  13.838
19516W        W81179   4.398  30.974  12.041
19517W        W81180  28.570   2.908   3.323
19518W        W81181   8.811  21.551   4.636
19519W        W81182  23.664  24.719   0.446
19520W        W81183  17.099  43.791  13.454
19521W        W81184  22.216   8.864  13.889
19522W        W81185  12.833   2.808   4.618
19523W        W81186  24.498   7.698  10.976
19524W        W81187   1.349  37.336   3.350
19525W        W81188  19.540  22.604  13.011
19526W        W81189  34.494  36.370   2.820
19527W        W81190  11.701  27.071   1.276
19528W        W81191   0.305  40.464  11.940
19529W        W81192  26.684   6.265   3.249
19530W        W81193  15.205  28.028   4.649
19531W        W81194  14.760  10.715   4.749
19532W        W81195  24.174  16.304  11.001
19533W        W81196  15.593  17.106   0.919
19534W        W81197  43.862  29.616  11.512
19535W        W81198  26.643  13.133   1.725
19536W        W81199  30.594  39.356   2.287
19537W        W81200  26.180   2.468   2.198
19538W        W81201  37.894  29.561  13.811
19539W        W81202  27.513   0.354  10.517
19540W        W81203  41.459  39.351  10.601
19541W        W81204  15.709  12.804   4.260
19542W        W81205  24.091  35.874   0.860
19543W        W81206  28.941  11.160  12.400
19544W        W81207   8.706   8.168   3.165
19545W        W81208   9.659   9.745   2.884
19546W        W81209   0.344  15.706   4.216
19547W        W81210  36.397  43.488   3.746
19548W        W81211  37.430   5.853  11.117
19549W        W81212  44.503  33.551  12.464
19550W        W81213  34.984   8.842   9.569
19551W        W81214   2.297  23.721   1.437
19552W        W81215  38.382  17.696  12.943
19553W        W81216   7.200  24.026   3.273
19554W        W81217   9.348  25.080   1.299
19555W        W81218  41.368  20.061   1.211
19556W        W81219  13.322   7.845  12.891
19557W        W81220  26.659  39.320   4.336
19558W        W81221   2.347  19.695  10.064
19559W        W81222  37.422  33.895   0.473
19560W        W81223  13.316  22.742   5.255
19561W        W81224  25.578  25.214   2.805
19562W        W81225  19.549  23.238   1.838
19563W        W81226   5.363  10.693   2.343
19564W        W81227  15.585  22.191  12.420
19565W        W81228  40.535  38.441   2.874
19566W        W81229  24.978   5.277  12.364
19567W        W81230  14.594  34.530  11.573
19568W        W81231  14.684  24.037  12.025
19569W        W81232  42.832  26.101  13.398
19570W        W81233  28.156  35.855   3.825
19571W        W81234  39.984  12.789   2.370
19572W        W81235  13.299  12.781   2.338
19573W        W81236  42.975  30.118   3.231
19574W        W81237   7.887   7.855  13.377
19575W        W81238  10.196  29.076  13.488
19576W        W81239  21.062  34.032   4.223
19577W        W81240  44.266   8.749  10.070
19578W        W81241  28.109  20.125  13.879
19579W        W81242  22.116   7.298   3.812
19580W        W81243  16.300  21.166   4.642
19581W        W81244  10.678  38.418  10.641
19582W        W81245  34.884  41.913  12.984
19583W        W81246  33.391   9.382   2.817
19584W        W81247  28.053  12.251  10.944
19585W        W81248  31.621  10.678  12.405
19586W        W81249  24.526  30.548   4.695
19587W        W81250  18.149  18.170  14.849
19588W        W81251   5.218   5.323   2.771
19589W        W81252   8.740  29.666  14.494
19590W        W81253  35.923  23.193   9.978
19591W        W81254   0.424  13.786   3.668
19592W        W81255  25.012  16.229   2.328
19593W        W81256   6.295   5.786   2.384
19594W        W81257   2.944  25.210  12.938
19595W        W81258  38.545  28.121  13.312
19596W        W81259  23.057  40.416  14.764
19597W        W81260  38.459  15.700  12.580
19598W        W81261  42.283  24.587   1.783
19599W        W81262  31.925  36.358   2.309
19600W        W81263  17.183   5.849  10.903
19601W        W81264  22.114  18.772   2.313
19602W        W81265   7.210  25.094  10.997
19603W        W81266   3.951  40.310   1.825
19604W        W81267  36.050  38.459   2.891
19605W        W81268  25.612  22.714   4.624
19606W        W81269  18.644  11.272   3.740
19607W        W81270   6.881  18.651  14.906
19608W        W81271  41.887  33.093  14.940
19609W        W81272   2.869  41.475   4.808
19610W        W81273  35.549  21.195  13.419
19611W        W81274   7.223  32.586   3.250
19612W        W81275  20.031  30.920  14.853
19613W        W81276  43.843  13.784   2.665
19614W        W81277  18.787   6.196   4.144
19615W        W81278   6.371  25.539  11.926
19616W        W81279  20.563  21.189   3.305
19617W        W81280   5.825  10.794  12.009
19618W        W81281  15.771  12.213  10.444
19619W        W81282  27.525  20.083   1.813
19620W        W81283  18.653  33.466  10.913
19621W        W81284   2.235   2.356   1.435
19622W        W81285   2.397  24.682   2.234
19623W        W81286  23.066   4.347   3.311
19624W        W81287   7.405  34.929  13.371
19625W        W81288   0.276   5.200  10.993
19626W        W81289  30.504  44.006   4.242
19627W        W81290  35.426  35.600  11.980
19628W        W81291  17.078   2.401  12.562
19629W        W81292   0.494  16.109   9.450
19630W        W81293  14.630  27.954  10.937
19631W        W81294  11.739  33.486   0.914
19632W        W81295  18.135  41.939   4.763
19633W        W81296  33.541  13.688   4.649
19634W        W81297  44.349  14.227   0.313
19635W        W81298  32.541  25.540   1.731
19636W        W81299  11.839  41.789  13.850
19637W        W81300  44.841  35.057   4.191
19638W        W81301  28.640  10.721  12.882
19639W        W81302  13.712  15.176   3.369
19640W        W81303  44.882  40.972  10.995
19641W        W81304  12.621  44.405   3.298
19642W        W81305  27.020  23.153  14.501
19643W        W81306  21.229  32.081   1.758
19644W        W81307   7.819  28.950   1.879
19645W        W81308  25.186  42.858   2.336
19646W        W81309  13.766  33.535   2.799
19647W        W81310  34.445  16.743   1.298
19648W        W81311  14.647  25.976   4.718
19649W        W81312  22.128  18.134   3.634
19650W        W81313   5.814   9.191   4.752
19651W        W81314  33.894  32.543  14.354
19652W        W81315  42.909  38.500  13.061
19653W        W81316  12.789  32.536   0.324
19654W        W81317  26.174  40.963   2.240
19655W        W81318  22.647  21.533  11.443
19656W        W81319  26.162  37.000   3.168
19657W        W81320   8.198  31.912  14.788
19658W        W81321  34.580  13.630  12.483
19659W        W81322  24.507  42.523   1.414
19660W        W81323  26.975  37.948  14.011
19661W        W81324  30.992  33.525   0.480
19662W        W81325  31.029  27.685  11.961
19663W        W81326  28.134  12.826   5.149
19664W        W81327   0.276   1.283   1.307
19665W        W81328  21.602  24.504  11.930
19666W        W81329  30.586   9.750  11.020
19667W        W81330  26.515   8.266  13.370
19668W        W81331  11.359  36.973  11.951
19669W        W81332  22.664   7.705  11.098
19670W        W81333   2.380  41.927  10.926
19671W        W81334  26.651  36.932  12.469
19672W        W81335  17.306  25.673  10.049
19673W        W81336  43.986  33.993  11.581
19674W        W81337  12.192  31.526  12.432
19675W        W81338  36.463   8.702  12.389
19676W        W81339  35.603   1.761  10.926
19677W        W81340  35.467   6.293  12.922
19678W        W81341  26.138  36.580  14.497
19679W        W81342   8.393  42.405   4.159
19680W        W81343  10.841  40.996  12.471
19681W        W81344   0.316  29.431   0.357
19682W        W81345   8.776  23.128   3.268
19683W        W81346  42.336  11.196   0.951
19684W        W81347  36.526  13.604   1.716
19685W        W81348  34.613  35.473  14.365
19686W        W81349   9.203  21.587   3.690
19687W        W81350  11.135  39.028   0.727
19688W        W81351  19.263  23.038   0.467
19689W        W81352  22.081  41.432   4.337
19690W        W81353  41.391  18.766   3.169
19691W        W81354  44.799  39.462   2.701
19692W        W81355  43.343   2.392  14.919
19693W        W81356  27.097  20.615   1.343
19694W        W81357  25.219  38.963   2.198
19695W        W81358  11.254  27.528  13.026
19696W        W81359  22.650  23.214  14.354
19697W        W81360  10.857  42.007  12.070
19698W        W81361  34.518   7.774  14.799
19699W        W81362  24.054  34.391   1.268
19700W        W81363   4.439  40.037  12.923
19701W        W81364  33.597  38.026   2.262
19702W        W81365   3.875  34.426  11.868
19703W        W81366  40.411  32.985   1.293
19704W        W81367   7.731  16.216   1.332
19705W        W81368   5.374  20.763  12.085
19706W        W81369  40.812   1.440  13.501
19707W        W81370  22.646  20.088   3.276
19708W        W81371  26.983  10.196   9.995
19709W        W81372  21.023  43.895  11.566
19710W        W81373  16.267   4.731  11.995
19711W        W81374  22.136  15.105  13.501
19712W        W81375  22.597  14.136  10.066
19713W        W81376  25.661  24.500   2.300
19714W        W81377  16.134  34.888  11.031
19715W        W81378  39.367  34.108  10.435
19716W        W81379   7.841  23.581   0.934
19717W        W81380   3.407  16.264   2.806
19718W        W81381  39.936   2.436   3.339
19719W        W81382  22.652  44.466   4.750
19720W        W81383  16.760  32.465   3.195
19721W        W81384  34.952  42.905   0.732
19722W        W81385   4.370  28.974   2.848
19723W        W81386  33.622  41.525   1.933
19724W        W81387   8.166  42.448   3.793
19725W        W81388  13.707  22.696   3.308
19726W        W81389  26.137  11.669   1.899
19727W        W81390  39.953  27.949   4.635
19728W        W81391  12.118  26.515  13.871
19729W        W81392  11.355  10.810   3.784
19730W        W81393   2.872  11.835  12.477
19731W        W81394  39.825  27.645   2.827
19732W        W81395   6.700   8.862  12.551
19733W        W81396  37.846  43.337  11.600
19734W        W81397  24.591   8.780  10.096
19735W        W81398   3.805  28.999   4.767
19736W        W81399  12.321  21.040   1.710
19737W        W81400  16.646   1.743   3.652
19738W        W81401   8.871   2.750  11.909
19739W        W81402  26.052  14.103   0.480
19740W        W81403  30.558  30.951   4.813
19741W        W81404  12.285  44.457  13.467
19742W        W81405   9.814  13.609   1.419
19743W        W81406   2.731  28.483   4.187
19744W        W81407  22.210   0.403   1.734
19745W        W81408  44.902  36.412   1.916
19746W        W81409  38.057   9.375   2.880
19747W        W81410   3.238  14.833  13.383
19748W        W81411  20.150  18.751   0.775
19749W        W81412  14.747  21.179   2.666
19750W        W81413  40.947  25.096  11.398
19751W        W81414  32.109  38.488  11.990
19752W        W81415  13.802  40.376  11.058
19753W        W81416  44.436  16.591   0.737
19754W        W81417  40.315   0.962  11.017
19755W        W81418  32.925   5.243   0.784
19756W        W81419  23.581  26.604  11.551
19757W        W81420  22.251   2.900  11.389
19758W        W81421  38.821  25.078   4.772
19759W        W81422  22.171  38.875  10.611
19760W        W81423   4.915  28.050   1.858
19761W        W81424  32.419  34.485   2.192
19762W        W81425  27.157  43.947  13.889
19763W        W81426  10.143  37.945  13.868
19764W        W81427   0.270  14.270   9.966
19765W        W81428  30.932  20.237   5.305
19766W        W81429  20.237  11.336  14.455
19767W        W81430  14.154  37.435   3.855
19768W        W81431  40.936  40.340   1.897
19769W        W81432  16.210  43.955   1.787
19770W        W81433   6.781  12.237  12.504
19771W        W81434  38.439  29.495  11.557
19772W        W81435  14.102  12.698  14.927
19773W        W81436  13.195  38.338  10.506
19774W        W81437  24.526  29.077  14.289
19775W        W81438  19.135  43.928   0.892
19776W        W81439  15.750  40.836  10.410
19777W        W81440  17.788  39.999  10.483
19778W        W81441  25.089  33.893  12.983
19779W        W81442   6.378  43.371  11.943
19780W        W81443  26.495  21.532   0.817
19781W        W81444   5.334  21.165  11.047
19782W        W81445  13.781   0.875   0.376
19783W        W81446  26.070  31.609  14.847
19784W        W81447   0.752  25.695  10.560
19785W        W81448  11.264   0.381   3.755
19786W        W81449  27.546  10.244   4.653
19787W        W81450  14.618  25.590   2.184
19788W        W81451  15.660  21.665   2.411
19789W        W81452  38.838  16.681  10.461
19790W        W81453  32.420  40.390  12.348
19791W        W81454  12.755  29.992   3.149
19792W        W81455  36.942   7.370  11.895
19793W        W81456  10.383  10.656  14.019
19794W        W81457  33.999  33.623   1.862
19795W        W81458  27.584   4.934  10.897
19796W        W81459   9.312  28.450   2.357
19797W        W81460  37.536  20.244   2.217
19798W        W81461  32.554  31.149  11.889
19799W        W81462   0.286  22.602   2.727
19800W        W81463  44.404  41.314  10.967
19801W        W81464  41.008   4.236   2.738
19802W        W81465   1.462  36.915   4.189
19803W        W81466  34.913  38.451   3.784
19804W        W81467   5.234  20.652   2.738
19805W        W81468   9.193  33.007  12.562
19806W        W81469  33.976  32.593   3.376
19807W        W81470  14.307  21.041   3.764
19808W        W81471   2.823  39.450  11.885
19809W        W81472  20.529  21.076  12.959
19810W        W81473  44.775  38.883   3.689
19811W        W81474  26.651  17.134   1.406
19812W        W81475  15.731  37.452  10.918
19813W        W81476  28.514  26.124   2.812
19814W        W81477  22.747   1.434   1.923
19815W        W81478  44.839  30.999   0.308
19816W        W81479  25.567  39.393   2.747
19817W        W81480  21.065  33.033  14.324
19818W        W81481  25.561   7.707  11.414
19819W        W81482  13.295  17.571   4.202
19820W        W81483  33.877  18.733  12.385
19821W        W81484   3.300  10.726   3.205
19822W        W81485  36.025  39.887  11.074
19823W        W81486  26.536  35.090  12.462
19824W        W81487  13.672  27.088  13.961
19825W        W81488  36.918   3.457  14.927
19826W        W81489  40.827  12.703  10.045
19827W        W81490  22.180   1.761  12.895
19828W        W81491  21.125   4.313   2.729
19829W        W81492  30.928  28.509  12.987
19830W        W81493  12.702   5.236  13.813
19831W        W81494   9.798  37.362   1.337
19832W        W81495   2.888  19.700   4.303
19833W        W81496  20.268  14.246   5.218
19834W        W81497   2.469  39.966  13.917
19835W        W81498  16.263  28.983  13.840
19836W        W81499  10.796   1.954   1.763
19837W        W81500  42.967  24.014   0.285
19838W        W81501   4.721  23.543   3.713
19839W        W81502  24.211   0.810  12.982
19840W        W81503  10.303   1.784  12.495
19841W        W81504  44.361  32.621   3.166
19842W        W81505  40.457   3.419  13.056
19843W        W81506  29.112  17.220   0.264
19844W        W81507   5.867  38.348  13.858
19845W        W81508   9.654  10.835   4.640
19846W        W81509  22.693  39.455   2.843
19847W        W81510   9.839  20.097   2.260
19848W        W81511   7.337  34.423   0.436
19849W        W81512  13.818  15.756  11.556
19850W        W81513  19.276   2.745  12.405
19851W        W81514  29.176  20.688  11.493
19852W        W81515  20.678  28.491   1.776
19853W        W81516  17.644  44.884   4.163
19854W        W81517  37.052  34.442   3.714
19855W        W81518  26.520  43.296   0.930
19856W        W81519  18.076  24.144  14.837
19857W        W81520  36.560   1.472   4.118
19858W        W81521  35.449  42.348  11.420
19859W        W81522  34.402  33.919   3.316
19860W        W81523  19.606  25.982   4.247
19861W        W81524  12.720  22.525   4.259
19862W        W81525  14.711  12.244   1.263
19863W        W81526  36.004  25.501  14.950
19864W        W81527  24.979  23.721   4.299
19865W        W81528   4.724  31.494   0.268
19866W        W81529   9.340   6.269  12.339
19867W        W81530  26.968  21.725   0.770
19868W        W81531  41.319  32.119  13.838
19869W        W81532  37.019  36.918   1.726
19870W        W81533  12.630  15.771  11.503
19871W        W81534  17.637  40.994  13.378
19872W        W81535  13.793   0.328   2.840
19873W        W81536  21.531  43.476  14.822
19874W        W81537  18.647  10.138  14.497
19875W        W81538   1.777  41.882  12.454
19876W        W81539  10.251  23.670   4.187
19877W        W81540  34.057   9.697  11.857
19878W        W81541  41.942  29.441   4.246
19879W        W81542  16.120  14.136   1.911
19880W        W81543  14.714  23.731  13.814
19881W        W81544  19.675  41.434   3.667
19882W        W81545  10.315  22.641  12.895
19883W        W81546   1.752  22.163   3.664
19884W        W81547  36.902  19.606  12.386
19885W        W81548  24.135  18.228   4.601
19886W        W81549  14.266  26.661   0.806
19887W        W81550  27.062  43.891   1.293
19888W        W81551  21.720  24.498   5.692
19889W        W81552  11.128  41.403  10.989
19890W        W81553  35.024  15.158  11.004
19891W        W81554  33.125  21.078  14.389
19892W        W81555  44.315   3.446  13.829
19893W        W81556  42.423  29.120   0.290
19894W        W81557   5.246  40.412   4.115
19895W        W81558   9.659  36.082   0.848
19896W        W81559   2.291  18.675  14.500
19897W        W81560  16.080  14.120  13.493
19898W        W81561  27.688   5.375   2.355
19899W        W81562  16.108  34.570  11.006
19900W        W81563  30.997  10.157   0.782
19901W        W81564  27.978  15.803   4.646
19902W        W81565  41.533  28.000   2.693
19903W        W81566   0.317  38.357  12.854
19904W        W81567  31.988  36.069  14.345
19905W        W81568  21.696   8.327  10.997
19906W        W81569  18.737  33.063  13.879
19907W        W81570  41.909   7.707  13.380
19908W        W81571  30.531   1.815  10.452
19909W        W81572  10.161  10.803   1.747
19910W        W81573  28.934  29.984   1.892
19911W        W81574   7.319  33.408  13.963
19912W        W81575  42.455   3.950   2.684
19913W        W81576   5.726  33.048   1.902
19914W        W81577  39.872   8.324  10.452
19915W        W81578  35.858   3.250   2.684
19916W        W81579  25.660   8.206  10.973
19917W        W81580  36.942   0.353   0.743
19918W        W81581  27.191  28.571   5.139
19919W        W81582  42.896  13.762   3.385
19920W        W81583   6.341  33.927  10.513
19921W        W81584   1.281  12.826   3.661
19922W        W81585  10.805  32.911   2.253
19923W        W81586  41.319  18.667   5.170
19924W        W81587  43.000   4.323   4.772
19925W        W81588  42.511   2.818  13.349
19926W        W81589  12.714  28.139  10.981
19927W        W81590  10.700  37.934   1.778
19928W        W81591   7.906  15.673  11.426
19929W        W81592   3.378  25.010   1.850
19930W        W81593  42.886   2.408   0.822
19931W        W81594  38.433  33.621  12.408
19932W        W81595   5.307   6.776  10.511
19933W        W81596  34.394  13.223   2.281
19934W        W81597  41.293   1.752   4.144
19935W        W81598  19.182  18.210  12.991
19936W        W81599   5.819  31.450   0.874
19937W        W81600  36.436   2.775  14.404
19938W        W81601   3.801  20.573  14.786
19939W        W81602   7.332  18.259   1.935
19940W        W81603  40.002  17.150  14.965
19941W        W81604  21.262  13.685  12.475
19942W        W81605   5.229  24.209  11.927
19943W        W81606   2.307   6.764  10.476
19944W        W81607  10.809   9.248   4.235
19945W        W81608   1.324  16.098   4.598
19946W        W81609   6.379  16.683  12.038
19947W        W81610   9.651  34.955   0.333
19948W        W81611  37.403  39.051   0.297
19949W        W81612  13.172   8.701  10.986
19950W        W81613  37.340  39.834   0.782
19951W        W81614   5.340  26.118  14.341
19952W        W81615  32.960   6.266   2.351
19953W        W81616  36.513  23.107  10.057
19954W        W81617   0.354   4.210   4.817
19955W        W81618   3.316  26.050   3.809
19956W        W81619  26.589  44.890   1.326
19957W        W81620  10.222  12.845  14.780
19958W        W81621  10.637  28.502   2.749
19959W        W81622  11.669  25.997   4.635
19960W        W81623   9.794  14.662   1.927
19961W        W81624  23.221  15.131   1.378
19962W        W81625  36.862   0.795   4.335
19963W        W81626  18.143  16.170  14.888
19964W        W81627   2.323  42.993   9.948
19965W        W81628  24.117   6.386  13.482
19966W        W81629   5.904  28.573  11.062
19967W        W81630   4.775  43.326  11.940
19968W        W81631  23.501   5.796   5.183
19969W        W81632  21.118  35.417  13.886
19970W        W81633  13.123  44.361  13.330
19971W        W81634  12.784   5.309   1.419
19972W        W81635  39.815   9.651   4.616
19973W        W81636  34.422  35.429   0.339
19974W        W81637  17.200  37.482   3.761
19975W        W81638  15.208   2.859   1.917
19976W        W81639  43.428   2.328   0.344
19977W        W81640   6.366   6.257  13.984
19978W        W81641   5.816  36.895  10.478
19979W        W81642  18.788  30.588   3.214
19980W        W81643  10.862   9.245  12.823
19981W        W81644   1.929  15.651  10.644
19982W        W81645  12.280  43.450  12.947
19983W        W81646   6.834  37.013  11.925
19984W        W81647  19.074  33.423  10.945
19985W        W81648  36.564  31.570   4.312
19986W        W81649  17.682  41.335  14.008
19987W        W81650  27.628  29.551   4.819
19988W        W81651  42.958  22.066   2.688
19989W        W81652  27.544  22.649   4.805
19990W        W81653   0.469   6.851   4.296
19991W        W81654  23.612   5.417  11.126
19992W        W81655  29.530   1.824  10.989
19993W        W81656   2.407  32.399   2.391
19994W        W81657  37.559  18.243   3.658
19995W        W81658  36.052  19.081   4.216
19996W        W81659   0.861   1.457   1.862
19997W        W81660   3.424  44.986   2.367
19998W        W81661  15.812  33.474  11.865
19999W        W81662  27.535   5.431   4.246
20000W        W81663   9.221  37.527   3.793
20001W        W81664  36.945   5.780  12.873
20002W        W81665   4.786  10.819  14.944
20003W        W81666  36.469  16.605  14.382
20004W        W81667  17.286  22.602   2.359
20005W        W81668  13.632  39.983   4.134
20006W        W81669   8.727  32.050  14.998
20007W        W81670   3.443  36.849   1.280
20008W        W81671   2.394   6.258  14.787
20009W        W81672  22.742  31.103   0.802
20010W        W81673  13.151   9.216  11.883
20011W        W81674  18.655  16.629   1.256
20012W        W81675  19.060  28.466   1.890
20013W        W81676  44.349  32.989   2.404
20014W        W81677   4.326  11.298   2.279
20015W        W81678  32.450  20.559  14.840
20016W        W81679   4.296  23.116   1.852
20017W        W81680  25.561  35.403  12.515
20018W        W81681   0.879  19.557  14.868
20019W        W81682   7.732  16.592  14.485
20020W        W81683  35.952  31.057  12.837
20021W        W81684  19.039  16.731   3.309
20022W        W81685   6.781  16.790   2.257
20023W        W81686  29.987  36.090  13.966
20024W        W81687  21.100  44.935  11.393
20025W        W81688  27.577  31.988   1.335
20026W        W81689   1.872  15.670   3.182
20027W        W81690  17.721  25.513  11.403
20028W        W81691  15.702   4.282  14.940
20029W        W81692   8.749  38.859  13.846
20030W        W81693  31.119  33.926  13.410
20031W        W81694  40.943  22.697  14.884
20032W        W81695  36.367  18.197  13.008
20033W        W81696  30.580   3.933   0.386
20034W        W81697  42.290  17.151  14.434
20035W        W81698  44.943  11.850   0.898
20036W        W81699  41.827  16.308   5.686
20037W        W81700  21.689   5.906  13.477
20038W        W81701   3.756   4.784  13.543
20039W        W81702  22.701  37.419  14.470
20040W        W81703  23.645  36.057  13.333
20041W        W81704  42.006   1.904   4.117
20042W        W81705  13.679  41.933  13.895
20043W        W81706  30.923  34.537  13.988
20044W        W81707  19.112  16.226   2.836
20045W        W81708  22.664   3.772   2.820
20046W        W81709   9.230  31.918   4.281
20047W        W81710  30.019  16.133  12.069
20048W        W81711  36.917  18.615  12.096
20049W        W81712   0.449  18.241   4.759
20050W        W81713   4.803  28.551  14.938
20051W        W81714  40.939  13.824  14.924
20052W        W81715  22.692  36.372  11.066
20053W        W81716  32.466  19.194  10.964
20054W        W81717  33.886  20.181   3.860
20055W        W81718  10.810  11.297   1.916
20056W        W81719  25.546  16.197   0.873
20057W        W81720  16.139   0.957   4.603
20058W        W81721   9.850  28.970  10.604
20059W        W81722  21.515  36.371  11.424
20060W        W81723   4.337  35.999  12.981
20061W        W81724  38.329  17.623  10.412
20062W        W81725   6.259  42.346  12.906
20063W        W81726   0.473  35.396  10.631
20064W        W81727  42.309  26.185  13.461
20065W        W81728  13.605  15.807   2.835
20066W        W81729  23.614  32.431   2.818
20067W        W81730  38.414  37.908   3.161
20068W        W81731  21.074  41.311   4.252
20069W        W81732  26.998  44.793  11.040
20070W        W81733  23.144  34.894   4.142
20071W        W81734   8.813  14.633  14.020
20072W        W81735  38.870  12.277  14.446
20073W        W81736  44.345   7.191   1.884
20074W        W81737  24.496   5.866   3.675
20075W        W81738  34.567   2.423   4.832
20076W        W81739  15.299  29.117  11.485
20077W        W81740  35.604  36.577   3.754
20078W        W81741   4.230  15.154  12.878
20079W        W81742   6.759   6.263   3.383
20080W        W81743  36.447  22.575  11.412
20081W        W81744  41.320  28.489  11.412
20082W        W81745  11.693   1.974   2.186
20083W        W81746   8.655   8.329  14.917
20084W        W81747  13.715  30.586  12.388
20085W        W81748  26.202   7.199   3.761
20086W        W81749  19.779  25.558  13.009
20087W        W81750  13.136  15.134   4.762
20088W        W81751  32.564   8.287  13.316
20089W        W81752   7.701  10.669   3.331
20090W        W81753  21.250  30.044   0.320
20091W        W81754   5.897  26.565   1.268
20092W        W81755   3.274  26.649  11.092
20093W        W81756  25.009  18.753   2.388
20094W        W81757   6.310  41.301   3.638
20095W        W81758  35.448  27.099   3.828
20096W        W81759   5.283   6.727   3.779
20097W        W81760   3.239   9.704  13.931
20098W        W81761  10.174  38.354   2.800
20099W        W81762   9.808  11.240   0.730
20100W        W81763  10.667  29.647   1.739
20101W        W81764   5.916   9.850  13.967
20102W        W81765  37.893  44.371   4.812
20103W        W81766  29.137  15.754  13.902
20104W        W81767  25.187  40.403   1.361
20105W        W81768  12.126  22.219  11.524
20106W        W81769  33.461  32.903  10.640
20107W        W81770  23.219  17.678  13.905
20108W        W81771  29.452  41.408   3.687
20109W        W81772  17.071  23.599  12.006
20110W        W81773  40.041  14.268   1.429
20111W        W81774  39.995   2.788  12.998
20112W        W81775  11.685  35.072   2.271
20113W        W81776  32.951  31.153   3.870
20114W        W81777  11.198  39.996   0.886
20115W        W81778  41.882  30.428  11.129
20116W        W81779  29.525   7.346   2.833
20117W        W81780   3.241  31.532  11.010
20118W        W81781  18.085  15.783  14.287
20119W        W81782  23.652   3.855  11.896
20120W        W81783  37.349  41.887  14.318
20121W        W81784  15.719   7.714   4.319
20122W        W81785  17.644  31.045  13.850
20123W        W81786  18.067  37.419   4.791
20124W        W81787  16.780  33.436  10.478
20125W        W81788  25.092   4.303  11.067
20126W        W81789  23.006  26.978  10.982
20127W        W81790  38.514  40.830  11.467
20128W        W81791   7.744   2.325   3.380
20129W        W81792  30.057  17.567  10.906
20130W        W81793   5.350  27.623  13.458
20131W        W81794  41.403  21.200  12.960
20132W        W81795  41.910  31.558  13.899
20133W        W81796  15.766  11.136   1.810
20134W        W81797  20.535  35.042  10.498
20135W        W81798  14.315  36.369  14.382
20136W        W81799  16.125  18.060   0.795
20137W        W81800  34.421  35.516   4.650
20138W        W81801  29.967   3.877   3.254
20139W        W81802  34.065   1.293   4.793
20140W        W81803   8.300  25.521   3.713
20141W        W81804  22.141  39.032   2.355
20142W        W81805  37.472  24.637  14.921
20143W        W81806  34.373  13.231   1.331
20144W        W81807  42.296  17.255   3.315
20145W        W81808   5.418  22.707   2.683
20146W        W81809  35.952   0.757   3.730
20147W        W81810  31.555   0.904   0.400
20148W        W81811   1.958  12.683  14.945
20149W        W81812  31.989  29.070   0.265
20150W        W81813  24.192  20.660  11.571
20151W        W81814  16.202   0.810  10.931
20152W        W81815  21.213   2.246  13.987
20153W        W81816   0.909  27.621   1.312
20154W        W81817  44.421   8.696  11.982
20155W        W81818  30.940  29.666  13.514
20156W        W81819  14.213  16.137   2.881
20157W        W81820  38.565  44.778  10.459
20158W        W81821  41.982  29.131  11.521
20159W        W81822  36.909  36.946  10.452
20160W        W81823  39.388   8.314  11.485
20161W        W81824  29.493  33.899   3.759
20162W        W81825  23.640   6.415  11.387
20163W        W81826  32.019   0.780  11.052
20164W        W81827  22.061  15.311   1.708
20165W        W81828  42.908  44.842  12.096
20166W        W81829  21.727  21.586  12.031
20167W        W81830  24.706  38.062  13.795
20168W        W81831  32.072  34.429   2.811
20169W        W81832  33.088  18.068   1.215
20170W        W81833   3.284   6.736  12.421
20171W        W81834   9.693  17.157   1.406
20172W        W81835  36.092   7.904   0.800
20173W        W81836  32.136  28.549  13.343
20174W        W81837  29.071  39.372   1.774
20175W        W81838   2.750  23.068  11.613
20176W        W81839  37.083  38.939   0.304
20177W        W81840  43.911  21.103   3.159
20178W        W81841  20.051  21.114  14.773
20179W        W81842  19.735  11.627  11.963
20180W        W81843  16.128  14.762  12.508
20181W        W81844  32.602  23.134  14.929
20182W        W81845   3.843  10.714  14.418
20183W        W81846  12.744  16.262  12.032
20184W        W81847   2.270  34.051   2.225
20185W        W81848  43.876  27.191  11.603
20186W        W81849  37.494  16.792  14.796
20187W        W81850  34.896   5.728  10.919
20188W        W81851  19.585  27.057  13.960
20189W        W81852  32.567  15.757  10.472
20190W        W81853  42.511  14.687   5.216
20191W        W81854  14.625   0.440   3.739
20192W        W81855  21.658  23.167  11.058
20193W        W81856  16.761  32.141   1.325
20194W        W81857   9.384   5.830  14.487
20195W        W81858   6.376   2.291   2.670
20196W        W81859  15.779  27.946  12.030
20197W        W81860  18.113  19.208   0.903
20198W        W81861   3.725  44.461  10.616
20199W        W81862  13.614  34.079  14.907
20200W        W81863  39.990  25.201   1.823
20201W        W81864  30.972  26.052   4.282
20202W        W81865   2.965  41.847   0.477
20203W        W81866  15.690   6.256  10.927
20204W        W81867   3.407   7.786  14.283
20205W        W81868  41.528  28.067  12.579
20206W        W81869  43.402  16.164  13.908
20207W        W81870  25.615  32.502   0.273
20208W        W81871   2.395  21.142   2.330
20209W        W81872  13.153  21.143   3.805
20210W        W81873  28.982   9.348  12.871
20211W        W81874   8.755  28.456   4.288
20212W        W81875   2.926  28.945  12.846
20213W        W81876  22.709  24.097   2.385
20214W        W81877  23.527  37.942   2.386
20215W        W81878   4.809  27.623   0.264
20216W        W81879  39.857  37.477   2.727
20217W        W81880  20.612  16.312  12.993
20218W        W81881  13.279  34.959  13.503
20219W        W81882  13.690   1.870  12.049
20220W        W81883  34.087   8.760   3.777
20221W        W81884   4.429  42.286  10.610
20222W        W81885  39.869   6.242  11.471
20223W        W81886  35.877   9.828   0.964
20224W        W81887  13.110   0.478   4.134
20225W        W81888   4.814  25.136  13.884
20226W        W81889  39.869  20.530  13.003
20227W        W81890  14.747   8.740  11.951
20228W        W81891   5.218  34.569   1.308
20229W        W81892  25.506  21.610   4.150
20230W        W81893   1.293   6.258   3.198
20231W        W81894  26.992  17.203   4.283
20232W        W81895  34.514  17.287  10.987
20233W        W81896  13.295   4.725   5.322
20234W        W81897  11.802  17.307  12.494
20235W        W81898   8.808   2.285   3.247
20236W        W81899   3.249   5.221  11.114
20237W        W81900  31.132  12.168  11.927
20238W        W81901  32.427   8.307   4.766
20239W        W81902  13.135  28.105  11.114
20240W        W81903  27.983  15.756   1.770
20241W        W81904  27.035   7.275   3.815
20242W        W81905   0.930  29.456   4.202
20243W        W81906  10.292  12.702  12.434
20244W        W81907   2.898  21.246   2.834
20245W        W81908  26.046   6.254   3.195
20246W        W81909  10.186  41.405  13.446
20247W        W81910  27.979  28.460  11.025
20248W        W81911  38.335  29.010   1.331
20249W        W81912  42.431  13.230   1.887
20250W        W81913  27.540  12.645   3.275
20251W        W81914  31.953  39.497  12.095
20252W        W81915  43.917  23.154   2.692
20253W        W81916  14.604   4.913   3.381
20254W        W81917  42.490  10.770   1.435
20255W        W81918   0.282  31.456  12.856
20256W        W81919  17.714  15.132  13.974
20257W        W81920  28.523  21.703  13.015
20258W        W81921  38.850  29.169  10.951
20259W        W81922  35.515   4.323  14.980
20260W        W81923  32.005  18.575  12.036
20261W        W81924   9.243  35.068   2.841
20262W        W81925  37.499   4.346   1.251
20263W        W81926  19.600  22.698  13.794
20264W        W81927   1.436  41.510   4.709
20265W        W81928   9.154   2.826   0.745
20266W        W81929  28.972  38.940  14.923
20267W        W81930   4.714  12.360  12.513
20268W        W81931  34.085  42.502  11.889
20269W        W81932  33.583  32.900  10.141
20270W        W81933  18.639  24.176   0.945
20271W        W81934  16.783  17.094  11.997
20272W        W81935  18.585  24.129   0.410
20273W        W81936   1.811   5.377  11.993
20274W        W81937  11.857   9.305   4.668
20275W        W81938  28.064  23.005  12.885
20276W        W81939  30.575  23.085   4.319
20277W        W81940  44.313  35.088  14.864
20278W        W81941  17.664  39.992   0.384
20279W        W81942  25.537  19.251  11.506
20280W        W81943   9.861   0.975   2.281
20281W        W81944  15.658  41.298   4.142
20282W        W81945  15.208  21.654   1.818
20283W        W81946  30.037  36.463  11.469
20284W        W81947  17.773   6.708  10.509
20285W        W81948  23.159  11.328  14.843
20286W        W81949  14.315  12.359   2.217
20287W        W81950  28.502   9.739   4.321
20288W        W81951   4.734  44.938  14.367
20289W        W81952  17.085   8.320   3.838
20290W        W81953  44.944  10.254  13.542
20291W        W81954  32.516  36.080  10.571
20292W        W81955  12.316  35.441  13.950
20293W        W81956  38.340  41.333  11.127
20294W        W81957  28.086  25.569  14.813
20295W        W81958  27.064  13.798   0.899
20296W        W81959   9.281  27.645  11.044
20297W        W81960  28.585  33.415  12.487
20298W        W81961  37.979   6.275  10.906
20299W        W81962   7.769   6.194   4.330
20300W        W81963  26.990   3.901   3.852
20301W        W81964  43.883  23.608   1.271
20302W        W81965  28.015   4.794  12.413
20303W        W81966  32.428  41.349   3.283
20304W        W81967  24.169   0.344  10.460
20305W        W81968  23.033  33.510   3.850
20306W        W81969   1.314  27.561   0.758
20307W        W81970  27.579  18.132  10.409
20308W        W81971   7.912   9.365   0.397
20309W        W81972  36.559   6.768  11.974
20310W        W81973  13.654  23.734  14.322
20311W        W81974  14.660  21.077   2.229
20312W        W81975  25.989  19.227   4.620
20313W        W81976  35.058  30.561   4.234
20314W        W81977  21.675  24.571  14.972
20315W        W81978  41.041  35.559   4.183
20316W        W81979  25.680  22.640  12.890
20317W        W81980  27.046  16.740  14.394
20318W        W81981  13.749  32.486   1.853
20319W        W81982  41.332  41.033   3.200
20320W        W81983  28.088  17.204  12.544
20321W        W81984  42.995   3.349  10.935
20322W        W81985  43.839  32.906   4.158
20323W        W81986  28.047  30.050  13.419
20324W        W81987  24.513  18.768   3.688
20325W        W81988  36.356  32.971  12.035
20326W        W81989  22.214  16.601   2.766
20327W        W81990   0.947  28.011   3.829
20328W        W81991  14.323  29.513   0.324
20329W        W81992   1.412  36.484  11.528
20330W        W81993  30.446  41.417   4.693
20331W        W81994   6.835   5.269  14.352
20332W        W81995   9.256  31.938  12.450
20333W        W81996  27.455   8.343  14.432
20334W        W81997   8.895  39.921  11.887
20335W        W81998  25.059  44.397  10.940
20336W        W81999   1.470  43.391  13.017
20337W        W82000  13.779  10.698  13.806
20338W        W82001  35.526  16.629  10.929
20339W        W82002  20.574  31.524   1.233
20340W        W82003   0.830  32.499   0.754
20341W        W82004  11.801  44.291  11.488
20342W        W82005   7.772  26.167  12.945
20343W        W82006  24.565  13.824  12.425
20344W        W82007   8.755  18.775  13.041
20345W        W82008  24.713  11.197  13.906
20346W        W82009   4.729   7.367   2.406
20347W        W82010   8.397  42.838  14.444
20348W        W82011   6.687  18.583  11.122
20349W        W82012   0.840  34.050  12.945
20350W        W82013  31.451  17.572   3.233
20351W        W82014  30.002  27.451   2.324
20352W        W82015  18.679  30.652  10.414
20353W        W82016  11.647  10.793  14.499
20354W        W82017  16.617   2.774  14.441
20355W        W82018  39.062  34.584   0.904
20356W        W82019  15.786  17.740   1.739
20357W        W82020  14.603  22.159   2.713
20358W        W82021  27.965  43.494  12.516
20359W        W82022  12.266   5.771  11.989
20360W        W82023  38.474  40.853   3.852
20361W        W82024  12.726  24.058   0.904
20362W        W82025  43.446   1.732  13.841
20363W        W82026   0.859  16.273   2.826
20364W        W82027  27.105  14.797  11.899
20365W        W82028   2.891  22.642   4.660
20366W        W82029  23.580  41.840   4.159
20367W        W82030  29.611   8.746  14.877
20368W        W82031  22.212   5.270  12.421
20369W        W82032   3.253  39.808  14.349
20370W        W82033  42.945   3.831  12.861
20371W        W82034  32.931  24.627  12.892
20372W        W82035  24.656  12.153  14.513
20373W        W82036   6.300  39.331   3.782
20374W        W82037  35.918  34.065   4.196
20375W        W82038   1.760  20.141  12.453
20376W        W82039  25.595  17.746  12.431
20377W        W82040  25.687   7.742  14.448
20378W        W82041  34.467  34.553   3.755
20379W        W82042   4.414  39.343  11.034
20380W        W82043  13.617  25.647  12.380
20381W        W82044   8.716  41.500  12.853
20382W        W82045  34.551   0.484   0.746
20383W        W82046  11.793   4.345  11.043
20384W        W82047  20.127   8.735   0.785
20385W        W82048  23.038   9.288   3.316
20386W        W82049  33.006  31.039   4.267
20387W        W82050  17.641  31.423   2.858
20388W        W82051  31.924   5.756  11.082
20389W        W82052   5.433   5.878  12.452
20390W        W82053  15.096  42.990   1.428
20391W        W82054  39.523  44.782  14.904
20392W        W82055  24.035  20.191  14.330
20393W        W82056  33.538   7.222   1.904
20394W        W82057  22.597  40.975   2.398
20395W        W82058  13.626  30.997  12.031
20396W        W82059  23.511   8.901   2.766
20397W        W82060   4.347  43.990  13.817
20398W        W82061  41.974   5.915  10.997
20399W        W82062  16.141  26.621   3.157
20400W        W82063  25.606  43.842   3.633
20401W        W82064  36.527   9.655  11.469
20402W        W82065  34.966  17.562  10.969
20403W        W82066  26.035  10.807  14.006
20404W        W82067  31.540   8.700   1.220
20405W        W82068  31.482  13.633  14.836
20406W        W82069  13.129  20.054  13.855
20407W        W82070  27.010  20.053  12.857
20408W        W82071  34.525  10.874   2.842
20409W        W82072  18.588   0.806  10.518
20410W        W82073  29.582  32.918   1.805
20411W        W82074  23.018  34.871  14.275
20412W        W82075  27.113  40.908   0.797
20413W        W82076  36.358   0.422   2.811
20414W        W82077  26.581  21.573   2.294
20415W        W82078  25.488  26.993  14.476
20416W        W82079  18.146   5.244  13.871
20417W        W82080  24.698  27.030  14.352
20418W        W82081  28.630   0.368   4.164
20419W        W82082  37.419  20.053   3.320
20420W        W82083  34.453  39.005   4.302
20421W        W82084  26.983  43.435   5.082
20422W        W82085  35.980  23.683  14.294
20423W        W82086   6.295  21.582  12.480
20424W        W82087  36.516  24.650  10.521
20425W        W82088   8.887  27.537   4.353
20426W        W82089  32.609  42.502  14.301
20427W        W82090  34.495  22.717  12.955
20428W        W82091  40.485  32.416   0.370
20429W        W82092  33.394  38.891   3.703
20430W        W82093  16.776  40.054   0.437
20431W        W82094  28.977  19.658  11.468
20432W        W82095   1.340   2.332   2.278
20433W        W82096  35.447   0.850  12.412
20434W        W82097  11.320   9.255  13.535
20435W        W82098  15.694  42.300  13.322
20436W        W82099  28.514  24.579   1.251
20437W        W82100  21.084  35.415  11.455
20438W        W82101   1.423  23.711   2.260
20439W        W82102  44.359  28.444   3.848
20440W        W82103  14.198  22.047  12.531
20441W        W82104   9.350  21.749  13.534
20442W        W82105  25.670  17.115  14.974
20443W        W82106  23.504  30.153  11.501
20444W        W82107   8.822  28.024  11.862
20445W        W82108  25.009  20.261   0.756
20446W        W82109   3.711  17.261   1.703
20447W        W82110  15.763   1.971   2.732
20448W        W82111  36.412   6.200   3.698
20449W        W82112  25.523  34.974  14.835
20450W        W82113  39.521  10.171  11.082
20451W        W82114  13.675  27.669   0.354
20452W        W82115   9.351  42.459   0.406
20453W        W82116  28.583  32.030  10.552
20454W        W82117  43.887  21.205  14.432
20455W        W82118   2.327  28.576   2.885
20456W        W82119  16.287   1.967  11.917
20457W        W82120  31.153  38.852   2.706
20458W        W82121   4.725  16.809   2.382
20459W        W82122  21.740  35.968  10.405
20460W        W82123  28.961  24.688   2.400
20461W        W82124  27.683  21.214   1.878
20462W        W82125  38.065   9.789   1.296
20463W        W82126  34.064  25.710  12.964
20464W        W82127  12.134   8.663   5.579
20465W        W82128  35.550   6.240  11.459
20466W        W82129   2.273  38.459   2.778
20467W        W82130   8.888  30.031  11.537
20468W        W82131  16.674   7.303   1.848
20469W        W82132  17.074   4.820   1.723
20470W        W82133  26.673  44.310   5.298
20471W        W82134   3.280  44.878  10.918
20472W        W82135  23.085  28.970   2.814
20473W        W82136  42.936  11.135   3.738
20474W        W82137  25.124   3.317   2.303
20475W        W82138  23.671  29.585   3.818
20476W        W82139   0.870  32.091   0.389
20477W        W82140  15.149  36.974   2.677
20478W        W82141  14.774   7.893   4.163
20479W        W82142  41.811  40.533   0.823
20480W        W82143  12.633   5.223  13.319
20481W        W82144  33.545  34.117   1.866
20482W        W82145  14.658  26.553  14.834
20483W        W82146  32.100  34.445   1.717
20484W        W82147   8.746  26.195   2.381
20485W        W82148  42.289   0.928   1.336
20486W        W82149  18.624   6.804  11.463
20487W        W82150  20.224   3.217   2.771
20488W        W82151  20.161  24.146   4.286
20489W        W82152  10.246  32.543  12.081
20490W        W82153  29.534  26.978   0.383
20491W        W82154  27.500  34.080  12.955
20492W        W82155   9.297  16.748  12.849
20493W        W82156  16.081   3.826   1.869
20494W        W82157  35.425   7.177  14.983
20495W        W82158  11.336   2.394   4.748
20496W        W82159  18.078  13.347   2.785
20497W        W82160  43.278   7.362  13.381
20498W        W82161  34.874  35.532  12.026
20499W        W82162  16.071  12.756   4.229
20500W        W82163  34.370  25.576  12.893
20501W        W82164  37.979  33.596   2.824
20502W        W82165  23.511  28.971   2.359
20503W        W82166  20.559   9.884   1.225
20504W        W82167  17.754   3.861  11.480
20505W        W82168  38.566   9.725  13.445
20506W        W82169  30.457  11.766  13.060
20507W        W82170  17.167   7.822   1.796
20508W        W82171   1.770  38.953  13.329
20509W        W82172  14.098   2.400   5.230
20510W        W82173   5.808  43.016   0.950
20511W        W82174  17.116  18.605  12.051
20512W        W82175  19.628   6.822  14.967
20513W        W82176   6.830  32.524   0.471
20514W        W82177  30.112  20.256  10.413
20515W        W82178  28.591   6.795  14.415
20516W        W82179  36.548  42.478  11.108
20517W        W82180  42.336  43.292   3.194
20518W        W82181  14.799   8.884   1.919
20519W        W82182  44.996  17.596   2.892
20520W        W82183  22.573  13.617   4.657
20521W        W82184   4.866   6.898   4.237
20522W        W82185  22.216  21.028  12.894
20523W        W82186  17.621  19.584  13.484
20524W        W82187  24.705  19.068  14.449
20525W        W82188   7.344  22.699   0.897
20526W        W82189  29.588   4.357   0.864
20527W        W82190  23.610  16.159   3.681
20528W        W82191  41.409  12.216   3.636
20529W        W82192  15.215  14.645   4.765
20530W        W82193  20.104   2.276   9.569
20531W        W82194  26.587  30.106   1.739
20532W        W82195  12.771  34.460  11.543
20533W        W82196  22.050  21.034   4.316
20534W        W82197  15.113   0.349   1.842
20535W        W82198  38.822  26.166   2.691
20536W        W82199  42.022  14.723   0.786
20537W        W82200  33.522  35.007   1.254
20538W        W82201   3.791  13.252   3.820
20539W        W82202  41.791  16.775  14.021
20540W        W82203  44.350  27.940   3.850
20541W        W82204  25.521  19.258  12.900
20542W        W82205  12.146  11.667   0.930
20543W        W82206   7.758   1.891   4.150
20544W        W82207  40.309  20.243   4.120
20545W        W82208  42.314  25.125  11.548
20546W        W82209  28.511  33.891  10.534
20547W        W82210  14.611  12.712   2.212
20548W        W82211  40.480  18.080   3.220
20549W        W82212  32.542  31.636   0.876
20550W        W82213  34.959   0.878  11.035
20551W        W82214   6.405  10.719  11.095
20552W        W82215  39.388  33.896  12.025
20553W        W82216  18.275  26.620  12.845
20554W        W82217   3.761  31.018  11.043
20555W        W82218   7.858  26.470   5.119
20556W        W82219  22.050  18.686   1.288
20557W        W82220  29.156   2.897  13.929
20558W        W82221  14.672  27.622   0.920
20559W        W82222  37.539   2.260  13.372
20560W        W82223   4.325   3.821   0.388
20561W        W82224  12.193  10.732  11.020
20562W        W82225   9.160  37.346   4.202
20563W        W82226  25.976  17.582   1.335
20564W        W82227   8.167   1.357   2.810
20565W        W82228   9.841   8.785  13.006
20566W        W82229  11.310  22.643  12.428
20567W        W82230   3.817  10.871  14.029
20568W        W82231  12.318  23.497   1.746
20569W        W82232  20.669  24.168  14.771
20570W        W82233  22.746  35.088  13.336
20571W        W82234  11.166  33.990   1.296
20572W        W82235  13.115   6.370  13.545
20573W        W82236  28.053  33.538  14.834
20574W        W82237   0.374  22.543  12.346
20575W        W82238  18.751  34.493  12.962
20576W        W82239  33.038   0.389  12.485
20577W        W82240   5.867   8.259  12.507
20578W        W82241  26.491  22.674  14.937
20579W        W82242  35.000  26.591   1.719
20580W        W82243  37.878   7.834   4.824
20581W        W82244   1.758  31.406  12.944
20582W        W82245  20.162  12.843  13.019
20583W        W82246  39.441  21.516  11.591
20584W        W82247  29.088  20.258  14.420
20585W        W82248  19.172   6.347  14.420
20586W        W82249   6.212  41.819  14.278
20587W        W82250  31.006  25.658   0.964
20588W        W82251  31.442  39.893  12.058
20589W        W82252  24.176  14.638  12.849
20590W        W82253   7.751  23.564   4.711
20591W        W82254  19.065  24.091  12.954
20592W        W82255  13.711  44.985  10.994
20593W        W82256   9.782   9.790  11.856
20594W        W82257  33.951  23.044   2.859
20595W        W82258  24.581   7.415   2.345
20596W        W82259  44.872  12.779   2.803
20597W        W82260   1.309   3.368  12.457
20598W        W82261   1.735  40.827   4.739
20599W        W82262   9.701  38.826  10.913
20600W        W82263  24.126   7.324  13.446
20601W        W82264  33.012  24.987   2.251
20602W        W82265   7.396  37.922   3.298
20603W        W82266  11.852  10.836  14.968
20604W        W82267  24.087   4.788  14.394
20605W        W82268  18.573   6.208   9.984
20606W        W82269  37.976  26.661   4.246
20607W        W82270  44.276   6.257   1.339
20608W        W82271  23.696   2.400  13.039
20609W        W82272  44.892  18.639   0.464
20610W        W82273  24.582  31.059   1.922
20611W        W82274  18.780   4.849  11.129
20612W        W82275  42.482  21.657   1.935
20613W        W82276  10.142  20.125  14.008
20614W        W82277  37.983  13.166   3.316
20615W        W82278  25.561  21.239  14.298
20616W        W82279  43.779  26.634  11.059
20617W        W82280  38.430  14.117   3.715
20618W        W82281  28.480  30.051  12.886
20619W        W82282  16.673   2.271   3.362
20620W        W82283   9.222  14.790  13.473
20621W        W82284   4.389   0.893  12.973
20622W        W82285  22.526   6.184  12.953
20623W        W82286  32.426  15.707   4.830
20624W        W82287  31.637   1.465   1.850
20625W        W82288   6.201  41.888   2.778
20626W        W82289  34.570  25.162  10.442
20627W        W82290  23.208  14.155  10.944
20628W        W82291  20.063  25.655   0.293
20629W        W82292  29.593  32.992  14.500
20630W        W82293   8.804   4.829  11.935
20631W        W82294  13.246  38.526   2.741
20632W        W82295  29.539  25.514  13.343
20633W        W82296  31.595  34.100  14.008
20634W        W82297  37.874  33.073   1.875
20635W        W82298  21.567  18.266   5.127
20636W        W82299   1.461  22.198  12.470
20637W        W82300   5.880  30.521  12.410
20638W        W82301   6.852  16.112   4.292
20639W        W82302  24.179  14.631   3.756
20640W        W82303  15.592  42.991   0.872
20641W        W82304   6.701  17.194  12.899
20642W        W82305  35.976  38.867  10.528
20643W        W82306  29.988   2.823   0.305
20644W        W82307  31.999   1.867  13.355
20645W        W82308   8.844   6.705  10.611
20646W        W82309  11.305  31.631  13.896
20647W        W82310  28.131  17.640  12.027
20648W        W82311  15.123  33.034  10.975
20649W        W82312  12.659  13.827   2.295
20650W        W82313  22.130  21.059   1.879
20651W        W82314  14.759  35.109  10.427
20652W        W82315   4.704  14.803  12.000
20653W        W82316  35.368   9.157   9.969
20654W        W82317  15.602   3.436   4.689
20655W        W82318   4.396   3.813   2.731
20656W        W82319  34.595  28.663   3.790
20657W        W82320  25.078  23.636   5.671
20658W        W82321  21.259  19.660   1.852
20659W        W82322  10.715  38.440   3.258
20660W        W82323  30.156   8.843  14.007
20661W        W82324   3.847  23.164  14.378
20662W        W82325  31.580  42.897  13.448
20663W        W82326   8.200  37.079  11.949
20664W        W82327   9.317  37.872  10.903
20665W        W82328  41.478   6.184   1.346
20666W        W82329   0.914  11.187   4.335
20667W        W82330  41.294   0.295   2.350
20668W        W82331   7.785   7.754   5.169
20669W        W82332  18.280   8.670  11.987
20670W        W82333  23.733  43.478  14.806
20671W        W82334  29.075   2.774   4.281
20672W        W82335   7.727   8.844   0.753
20673W        W82336   9.867   9.366  10.993
20674W        W82337  15.281  39.355   0.410
20675W        W82338   2.795  13.696   0.471
20676W        W82339  36.934   7.698  10.904
20677W        W82340  35.972  31.541   3.703
20678W        W82341  31.899  12.200   3.713
20679W        W82342   5.420  20.191   0.833
20680W        W82343   0.873   5.801  13.049
20681W        W82344  40.460  28.632   4.598
20682W        W82345   6.842  37.352   2.285
20683W        W82346   0.394   1.900   1.400
20684W        W82347  11.289  28.434  14.809
20685W        W82348  35.853  14.706   5.154
20686W        W82349  19.052  10.344  10.543
20687W        W82350  20.070  40.441  13.390
20688W        W82351  19.541  38.035  10.893
20689W        W82352  14.103  10.725  12.865
20690W        W82353  24.977  40.813  11.584
20691W        W82354  33.983  39.522  11.500
20692W        W82355   3.422  30.550  14.990
20693W        W82356  39.447  33.027  14.276
20694W        W82357  18.190  32.972  13.543
20695W        W82358  17.298  16.706   1.244
20696W        W82359  34.518   0.359   0.477
20697W        W82360  21.573   4.702   3.757
20698W        W82361  18.769  37.355   2.843
20699W        W82362  10.202  34.955  14.500
20700W        W82363  36.565  39.408  10.512
20701W        W82364  14.154  41.330  12.452
20702W        W82365  35.380  42.318   0.298
20703W        W82366  12.851  12.815   3.158
20704W        W82367  35.015  19.734  12.958
20705W        W82368  20.183   0.318  14.807
20706W        W82369  15.709  34.441  12.088
20707W        W82370  36.460   1.387  13.998
20708W        W82371  27.973  43.870   2.273
20709W        W82372  15.191  22.703   1.369
20710W        W82373  32.391  38.384   2.725
20711W        W82374  39.861  39.911  13.531
20712W        W82375  16.718  27.118  14.862
20713W        W82376  17.676   4.302  12.512
20714W        W82377   3.843   0.285   3.245
20715W        W82378  33.991  30.095  10.567
20716W        W82379  20.084  14.308   3.173
20717W        W82380  21.072  22.122  12.846
20718W        W82381  12.792  33.041   1.735
20719W        W82382  27.634  11.283   2.748
20720W        W82383  10.783   5.699  11.608
20721W        W82384  26.467  32.589   4.741
20722W        W82385   5.899  16.262  14.950
20723W        W82386  36.375  40.037   2.881
20724W        W82387  33.577  12.128  13.991
20725W        W82388   7.403  43.831  14.851
20726W        W82389  27.995  15.688  10.921
20727W        W82390  20.754   6.781   0.933
20728W        W82391  33.383  12.121   3.837
20729W        W82392  15.111   2.783   0.298
20730W        W82393  36.973  39.346   2.205
20731W        W82394  40.896  25.028  10.614
20732W        W82395  16.166  31.057   1.740
20733W        W82396  11.829  42.778  12.399
20734W        W82397   5.195  33.447   1.253
20735W        W82398   6.891  35.910   2.274
20736W        W82399  43.843   5.239   3.313
20737W        W82400   0.835   6.789   2.372
20738W        W82401  26.203  31.920  11.070
20739W        W82402  19.594  13.799  12.949
20740W        W82403  17.291  17.146  12.522
20741W        W82404  19.583  36.012   0.841
20742W        W82405  36.987  25.066   1.910
20743W        W82406  25.681  26.547  12.994
20744W        W82407   5.909  12.201   1.272
20745W        W82408  11.771  16.660  11.524
20746W        W82409  27.676   4.389   2.766
20747W        W82410   1.931  14.778  12.053
20748W        W82411  36.052  34.886   3.276
20749W        W82412  21.648  38.344  12.936
20750W        W82413  16.141  14.811  10.425
20751W        W82414   7.823   6.878   0.770
20752W        W82415  38.961  10.356  12.463
20753W        W82416  23.563  26.102  13.808
20754W        W82417  26.059   1.943   5.292
20755W        W82418   4.411  12.771  13.465
20756W        W82419  42.914   3.824   2.705
20757W        W82420  17.786  11.285   0.438
20758W        W82421  27.564   7.335  14.974
20759W        W82422   1.384  19.153   0.797
20760W        W82423  39.023  44.961   0.393
20761W        W82424  43.909   2.445   3.676
20762W        W82425  25.164  12.132   2.317
20763W        W82426  35.866  37.920  10.979
20764W        W82427  44.274  29.662   0.302
20765W        W82428  27.531  44.819   1.224
20766W        W82429  33.933   8.382  11.987
20767W        W82430  43.489  28.161   4.610
20768W        W82431  31.562  26.644  13.811
20769W        W82432  16.729  25.066   2.359
20770W        W82433  38.435   5.845  13.506
20771W        W82434  21.078  16.201   2.318
20772W        W82435  43.018  39.484   4.240
20773W        W82436  16.240  16.144  11.103
20774W        W82437  38.865  28.952   3.317
20775W        W82438  36.517  33.053  14.853
20776W        W82439  19.223  20.526   1.838
20777W        W82440  33.099   1.839   2.250
20778W        W82441   5.703  43.928  10.593
20779W        W82442  26.556  18.781  14.321
20780W        W82443  17.737  12.295   2.290
20781W        W82444  22.088  26.031  13.003
20782W        W82445  27.587  25.683  14.933
20783W        W82446  20.169  30.613   2.766
20784W        W82447   6.693   0.969  12.067
20785W        W82448  35.996  42.798   4.343
20786W        W82449  30.931   6.688  12.362
20787W        W82450  17.156   3.271  11.076
20788W        W82451  16.680  10.841  14.362
20789W        W82452  41.932  43.440  10.516
20790W        W82453   8.179  41.009  13.863
20791W        W82454  18.253   0.812  12.383
20792W        W82455  43.270  30.645   2.210
20793W        W82456  24.030  32.040   3.761
20794W        W82457  29.920  36.054  11.925
20795W        W82458   5.352   8.681   0.912
20796W        W82459  38.019   7.384  11.865
20797W        W82460  35.383  32.412  12.437
20798W        W82461  25.036  44.816  10.439
20799W        W82462  18.050  41.004   1.248
20800W        W82463  12.723  23.128   4.685
20801W        W82464  17.298  27.692   0.822
20802W        W82465  40.306  28.548  11.507
20803W        W82466  15.723  17.184  12.873
20804W        W82467  32.516  37.916   3.342
20805W        W82468  27.045  26.613   2.842
20806W        W82469  22.618   0.842   4.119
20807W        W82470  20.719  43.481  12.504
20808W        W82471  30.463  38.980   2.329
20809W        W82472  35.031   8.882   0.303
20810W        W82473   4.258  13.221  14.438
20811W        W82474  40.027  37.463  13.974
20812W        W82475   5.321  39.539   4.651
20813W        W82476  19.078  10.781   3.192
20814W        W82477   0.931   6.397  11.599
20815W        W82478  29.517   7.815  13.905
20816W        W82479   7.391  24.584   2.210
20817W        W82480  27.516  32.127  10.915
20818W        W82481  42.331  43.415   3.825
20819W        W82482  17.629  37.993   9.564
20820W        W82483  28.656   1.244   3.298
20821W        W82484  24.121  17.274  11.862
20822W        W82485   9.664  22.031   2.870
20823W        W82486  27.605  37.055   4.346
20824W        W82487  23.566  32.961   3.274
20825W        W82488  32.394   0.322  11.538
20826W        W82489  19.188  40.392   4.769
20827W        W82490  20.166  16.300   4.692
20828W        W82491  40.377  43.966  10.592
20829W        W82492   5.302  24.191   3.827
20830W        W82493  33.472  34.395  10.023
20831W        W82494  19.612   9.163   2.868
20832W        W82495  24.672   4.389  13.337
20833W        W82496  12.287  32.592   1.342
20834W        W82497  33.020   6.898   1.400
20835W        W82498  21.564  25.617   1.721
20836W        W82499  34.396  44.783  13.056
20837W        W82500  36.518  11.349   4.257
20838W        W82501  29.531  24.665  14.888
20839W        W82502   9.787  23.674  14.324
20840W        W82503  34.379  12.122  13.344
20841W        W82504  39.337  38.379  10.437
20842W        W82505  32.394  30.935  12.924
20843W        W82506   4.859  14.112   0.327
20844W        W82507   5.269   9.215  10.635
20845W        W82508  39.890  35.495  11.550
20846W        W82509  10.809  38.993   1.389
20847W        W82510  28.977  38.034   4.606
20848W        W82511  12.320   7.817  11.522
20849W        W82512  34.081  15.789   3.705
20850W        W82513  36.400  43.282   4.193
20851W        W82514  24.121  22.671  13.053
20852W        W82515  39.432   9.835   4.604
20853W        W82516  23.180   6.834   2.272
20854W        W82517  31.638  18.563  10.910
20855W        W82518  28.962  10.299  12.871
20856W        W82519   7.818  29.427   3.633
20857W        W82520  31.897   5.804  10.423
20858W        W82521  19.159   8.701   3.172
20859W        W82522  28.585  40.497  12.908
20860W        W82523  23.642  28.994  10.633
20861W        W82524  21.148  12.685   0.849
20862W        W82525   8.871  40.846   4.796
20863W        W82526  34.504  29.946  14.840
20864W        W82527  13.740  23.569  11.436
20865W        W82528  11.347   0.487  12.859
20866W        W82529  11.629  27.692  11.516
20867W        W82530  34.091  16.124  14.954
20868W        W82531  24.018  13.142  14.947
20869W        W82532  40.039  38.563   4.803
20870W        W82533   1.276  35.531  12.046
20871W        W82534  23.085  28.945   0.910
20872W        W82535   5.284  43.994  10.429
20873W        W82536  32.614  19.597   4.132
20874W        W82537  39.500  24.104   1.803
20875W        W82538  15.710   4.926  11.076
20876W        W82539   5.419  37.919  11.094
20877W        W82540   3.769  30.111  11.922
20878W        W82541  37.953  27.574  14.280
20879W        W82542  19.552  26.654  10.986
20880W        W82543  21.668  21.017  10.425
20881W        W82544  42.892  27.621   3.693
20882W        W82545   0.383  17.192   0.761
20883W        W82546  17.286  30.583   1.889
20884W        W82547  43.810  21.076  14.884
20885W        W82548  43.327  19.760   5.245
20886W        W82549  35.555  17.168   1.405
20887W        W82550  34.405   6.359  13.447
20888W        W82551  21.526  11.800  11.060
20889W        W82552  29.020  30.986   3.734
20890W        W82553  36.371  35.081  11.465
20891W        W82554  13.713  32.979   4.638
20892W        W82555  30.129  40.517   3.631
20893W        W82556  18.085  20.615   1.932
20894W        W82557  26.593  11.139   0.361
20895W        W82558  32.457  17.579   1.320
20896W        W82559  21.109  32.434   0.456
20897W        W82560  22.212   8.762  12.089
20898W        W82561   0.813  36.453  12.012
20899W        W82562  15.768  38.853   1.825
20900W        W82563   0.290   5.289   2.720
20901W        W82564   3.853   6.401   3.356
20902W        W82565  44.328  24.585   1.720
20903W        W82566  28.154  17.702   2.814
20904W        W82567  26.141  19.725  12.369
20905W        W82568  29.945  21.133   4.228
20906W        W82569  20.028  42.803  12.834
20907W        W82570  25.514   5.432  11.933
20908W        W82571  44.826  19.666   4.660
20909W        W82572  29.485  42.306   5.106
20910W        W82573  30.420  21.138  13.016
20911W        W82574  43.321   1.302   3.808
20912W        W82575  41.391  34.974  12.402
20913W        W82576  40.036  33.947  11.960
20914W        W82577  11.716  40.395  13.885
20915W        W82578   9.765  41.420   1.934
20916W        W82579  15.301  42.845  14.858
20917W        W82580  20.087   4.785  10.615
20918W        W82581  32.948  29.520  14.398
20919W        W82582   1.254  34.594  11.435
20920W        W82583  32.992  19.718   9.490
20921W        W82584  31.598  17.103   0.875
20922W        W82585  29.540  29.926  10.602
20923W        W82586   4.353  35.985  14.933
20924W        W82587   8.236   2.379   2.861
20925W        W82588  29.560   1.356  13.432
20926W        W82589  44.495   3.845   4.613
20927W        W82590  26.010   9.349   1.365
20928W        W82591  37.561  39.386  10.544
20929W        W82592  41.915   9.778  11.482
20930W        W82593  33.486  28.034  11.993
20931W        W82594  38.967  44.386   3.810
20932W        W82595  14.240  28.151   3.181
20933W        W82596  14.159  40.534  13.331
20934W        W82597  18.662  28.489  13.055
20935W        W82598  34.403  19.146   3.807
20936W        W82599  36.588  39.465   4.341
20937W        W82600  20.211  24.613   3.809
20938W        W82601  24.478  36.528  13.054
20939W        W82602  28.018  32.999  12.503
20940W        W82603  31.110   0.776   0.246
20941W        W82604  32.115  20.217   3.169
20942W        W82605  21.199   3.873   3.829
20943W        W82606   5.833  10.713   3.709
20944W        W82607  18.082   3.415  14.278
20945W        W82608  11.325   6.196  14.374
20946W        W82609  23.578  42.483  14.781
20947W        W82610   0.798  13.152  14.813
20948W        W82611  27.581  33.622   3.222
20949W        W82612  28.611  39.496  10.485
20950W        W82613  41.304  19.079  14.515
20951W        W82614   7.376  20.618  14.428
20952W        W82615  17.126  39.506   5.253
20953W        W82616  41.918   4.786   4.172
20954W        W82617  17.282  28.993  13.386
20955W        W82618  25.213   3.336   5.314
20956W        W82619  22.719  26.098  11.536
20957W        W82620  40.010  30.070   2.677
20958W        W82621  38.897  10.704  10.458
20959W        W82622  18.680  20.735  11.459
20960W        W82623  35.461  25.518   1.901
20961W        W82624  15.594  21.260  11.082
20962W        W82625  33.535  41.945  14.292
20963W        W82626  20.271   7.857   2.417
20964W        W82627  34.005   1.473   4.186
20965W        W82628  32.430  30.915   1.224
20966W        W82629  26.496  32.977   4.115
20967W        W82630   8.272  33.053   1.377
20968W        W82631  42.005  26.094  14.469
20969W        W82632  30.509   7.679  10.634
20970W        W82633  30.623  31.911  14.845
20971W        W82634  30.017  35.970   3.288
20972W        W82635  41.389  20.538  12.931
20973W        W82636  28.435  15.715   1.814
20974W        W82637  37.946   3.221   3.685
20975W        W82638  31.100  32.599   2.800
20976W        W82639  40.465  14.099  12.026
20977W        W82640   9.252   5.384  14.929
20978W        W82641   3.444  44.758  12.355
20979W        W82642   2.394  39.000   9.963
20980W        W82643  12.658  13.202  10.961
20981W        W82644  32.022  35.961   3.284
20982W        W82645   3.437  33.544   3.194
20983W        W82646  16.160  36.357   4.720
20984W        W82647  10.737   3.906   4.333
20985W        W82648   6.262  21.589   4.134
20986W        W82649  34.865  12.738  14.892
20987W        W82650  13.246  44.917   0.885
20988W        W82651   1.473  15.084   0.729
20989W        W82652   9.704  19.728   3.832
20990W        W82653  43.777   1.446  12.901
20991W        W82654   1.322  43.415  11.018
20992W        W82655  36.494   1.318  12.379
20993W        W82656   7.253  41.906   0.797
20994W        W82657   6.677  26.568  11.897
20995W        W82658  12.750   9.716   0.453
20996W        W82659  35.494  13.664   2.297
20997W        W82660  16.084  37.895   1.840
20998W        W82661  38.825   0.838   4.163
20999W        W82662  14.765  28.638  14.298
21000W        W82663  12.253  17.103   2.773
21001W        W82664  41.467  19.177   3.380
21002W        W82665   9.807  34.525  13.536
21003W        W82666  43.015  15.117   1.429
21004W        W82667  34.972  27.988   3.752
21005W        W82668  33.434  36.407   2.667
21006W        W82669   8.850  11.787   2.337
21007W        W82670  21.108  18.050  14.862
21008W        W82671   0.426   1.253  12.421
21009W        W82672  39.551   7.176  11.116
21010W        W82673  19.639  37.395   2.878
21011W        W82674   4.827  29.578  12.363
21012W        W82675  34.423   7.759  12.554
21013W        W82676  32.005  37.344   0.871
21014W        W82677  12.771   0.919  10.581
21015W        W82678  25.689  31.575  12.092
21016W        W82679  42.990   5.380   3.739
21017W        W82680  44.921   8.380   0.281
21018W        W82681  28.454   1.347  13.424
21019W        W82682  14.220  17.592   0.348
21020W        W82683   6.909  18.123  14.359
21021W        W82684  37.356   4.335   1.757
21022W        W82685  18.187   7.797  12.031
21023W        W82686  28.966  31.951  10.487
21024W        W82687  12.687  31.925   4.271
21025W        W82688  28.460  15.145   4.152
21026W        W82689  22.050   9.220  13.808
21027W        W82690   1.294  34.877  12.354
21028W        W82691  13.121  13.253   1.752
21029W        W82692  21.621   7.284  12.416
21030W        W82693   1.393   2.370   1.415
21031W        W82694  12.336  13.248   2.397
21032W        W82695  19.088  10.315  11.612
21033W        W82696  28.171  18.676   4.735
21034W        W82697  25.606  39.500  13.915
21035W        W82698  19.613  21.714   0.903
21036W        W82699  16.110  16.655  12.571
21037W        W82700  13.837  20.078   2.869
21038W        W82701  40.318  18.591   4.141
21039W        W82702  10.167  43.846   2.310
21040W        W82703  23.564  31.517  11.465
21041W        W82704  35.451  15.191  11.943
21042W        W82705  26.994  24.174   3.767
21043W        W82706  43.344   7.211  12.407
21044W        W82707  38.909  12.160   1.308
21045W        W82708   7.278   7.175  13.535
21046W        W82709  12.228  36.027   1.742
21047W        W82710  35.403  14.136   3.700
21048W        W82711  24.538  39.477  11.479
21049W        W82712  12.810  31.426  14.461
21050W        W82713  32.071  34.957   1.362
21051W        W82714   1.357  25.159   4.204
21052W        W82715  31.577  11.710   0.308
21053W        W82716   1.444  27.482  11.899
21054W        W82717  17.115   0.826  14.976
21055W        W82718  30.577  19.562   9.946
21056W        W82719  32.460  34.969  11.516
21057W        W82720  37.913  44.818   4.724
21058W        W82721  41.430  28.040  11.390
21059W        W82722  39.397   4.357   1.396
21060W        W82723  42.346   9.354   3.645
21061W        W82724   1.831  35.064  11.924
21062W        W82725  21.721  34.997   0.427
21063W        W82726  24.085  39.552   3.357
21064W        W82727  21.560  18.075   1.435
21065W        W82728  42.016  35.078  12.371
21066W        W82729  32.589  42.797   3.307
21067W        W82730  35.010   3.311   2.322
21068W        W82731   8.176  18.774   3.860
21069W        W82732  17.764  24.542  11.453
21070W        W82733  35.884  33.531   3.814
21071W        W82734   0.759  17.654  10.573
21072W        W82735   6.326  43.284  14.776
21073W        W82736  22.591  43.438   0.757
21074W        W82737   4.780  28.541   1.434
21075W        W82738  40.433  27.523  10.944
21076W        W82739  41.358  33.114  14.961
21077W        W82740  25.591   4.796  11.930
21078W        W82741   7.796  39.377  10.578
21079W        W82742   2.914   1.852  10.525
21080W        W82743  29.467  10.864  10.974
21081W        W82744  29.141  33.002   2.395
21082W        W82745   3.378  41.843   2.748
21083W        W82746  25.070  41.343  13.929
21084W        W82747  16.161  25.713  11.106
21085W        W82748   7.803  10.315   2.288
21086W        W82749   4.730  21.581   3.734
21087W        W82750  31.401   7.212   0.459
21088W        W82751  13.689  10.862  10.569
21089W        W82752  10.742  15.175   2.799
21090W        W82753   4.709   8.177  12.025
21091W        W82754   0.937  15.169  13.884
21092W        W82755  14.771  41.311  14.901
21093W        W82756  42.846  31.592  13.040
21094W        W82757  42.964  17.090  14.844
21095W        W82758  41.901   6.827  12.968
21096W        W82759   1.869  20.687  13.496
21097W        W82760  12.831  42.451  14.421
21098W        W82761  39.986   6.405  13.968
21099W        W82762   1.450  32.424   4.598
21100W        W82763  24.519  29.146   0.377
21101W        W82764  24.165  22.071  13.523
21102W        W82765   2.244  13.648   4.257
21103W        W82766  24.096  10.764  14.289
21104W        W82767  29.015   5.777  14.367
21105W        W82768  32.890  31.573  12.051
21106W        W82769  38.000   6.825  11.484
21107W        W82770  13.621  44.804   3.201
21108W        W82771  27.106  24.133  14.433
21109W        W82772  29.654  30.623   4.719
21110W        W82773  19.275  19.098  13.897
21111W        W82774   3.795   1.388  13.493
21112W        W82775  15.767  13.657   3.231
21113W        W82776  30.459  26.069   2.193
21114W        W82777   0.392  24.225   1.913
21115W        W82778  16.240  14.287  10.923
21116W        W82779   9.286  38.969  11.520
21117W        W82780  32.565  19.046   0.426
21118W        W82781  32.419  21.744   1.290
21119W        W82782  23.060  15.676   2.191
21120W        W82783  38.429  44.967  12.372
21121W        W82784  31.566  33.917   4.217
21122W        W82785  32.593  44.878  12.554
21123W        W82786  11.764   0.450  14.769
21124W        W82787  10.839  26.504   1.712
21125W        W82788   3.771  12.666  10.942
21126W        W82789  14.595  23.666   2.294
21127W        W82790   1.385   9.154  10.032
21128W        W82791  26.587  26.090  11.064
21129W        W82792   5.918  30.043  10.919
21130W        W82793  21.034  43.338   4.661
21131W        W82794  14.787  33.518   1.695
21132W        W82795  28.505   0.351  12.431
21133W        W82796  40.357  28.509  10.412
21134W        W82797  37.556  13.817  11.375
21135W        W82798  34.543  30.969  14.513
21136W        W82799  26.075  40.830   1.315
21137W        W82800  21.208  12.753   3.329
21138W        W82801  33.626  19.590  13.455
21139W        W82802  34.063  30.956  12.476
21140W        W82803   8.691  33.380  12.572
21141W        W82804  26.608   1.374   0.324
21142W        W82805   1.329  41.031   2.701
21143W        W82806  33.113  19.167   0.264
21144W        W82807   5.295   7.868   3.821
21145W        W82808   8.349  28.974   2.837
21146W        W82809  30.159  29.175  10.528
21147W        W82810  25.217  15.172  14.873
21148W        W82811  35.043  35.973  11.482
21149W        W82812  14.292   9.752  14.759
21150W        W82813  25.980   1.464  13.025
21151W        W82814   0.908   7.843   2.884
21152W        W82815  12.288  33.913  14.843
21153W        W82816   1.475   0.252   1.216
21154W        W82817  22.120  10.875  13.801
21155W        W82818   1.759  13.808  12.344
21156W        W82819   5.696  34.496  11.406
21157W        W82820   9.860   2.381   1.867
21158W        W82821   2.752   8.690   0.359
21159W        W82822   6.196  39.991  11.890
21160W        W82823  18.626   7.341   0.938
21161W        W82824  21.170  43.496  13.918
21162W        W82825   5.689  19.264  13.795
21163W        W82826  33.480  33.936  10.500
21164W        W82827  18.090  42.842   3.672
21165W        W82828  37.511  29.509  11.534
21166W        W82829  33.529  34.559   0.303
21167W        W82830  44.456  42.332  12.549
21168W        W82831  17.594  23.521  14.885
21169W        W82832  29.440   3.242  10.573
21170W        W82833   5.755  23.599  12.505
21171W        W82834  27.639  18.078  14.388
21172W        W82835  33.884  18.262  14.460
21173W        W82836  22.244  44.361   1.309
21174W        W82837  27.993  19.124  11.091
21175W        W82838  20.096  28.009  13.826
21176W        W82839   3.269  27.117  10.612
21177W        W82840  44.958   7.326   9.958
21178W        W82841  30.438  34.923   0.910
21179W        W82842  13.345  32.532   3.712
21180W        W82843  29.159  14.288   3.146
21181W        W82844  28.522  18.296   3.818
21182W        W82845  15.656  18.105   1.881
21183W        W82846  24.528  40.811   1.734
21184W        W82847  12.339  15.701  14.292
21185W        W82848  12.710  16.278   2.248
21186W        W82849  23.226  24.579   1.906
21187W        W82850  37.856  12.235   4.347
21188W        W82851  42.506  30.006  13.834
21189W        W82852  21.065  10.350  11.994
21190W        W82853  42.975  29.521  13.485
21191W        W82854  15.113  14.255  14.441
21192W        W82855  10.324  25.469   4.791
21193W        W82856  15.242  42.854  11.017
21194W        W82857  25.987  16.155   4.808
21195W        W82858  22.100  38.961   0.846
21196W        W82859  43.900   0.258   1.751
21197W        W82860  24.988   8.682   2.272
21198W        W82861  33.594   6.771  13.843
21199W        W82862  22.135  41.531   1.289
21200W        W82863  28.172  31.464   4.635
21201W        W82864  23.629   2.867   0.785
21202W        W82865   9.234  37.452   0.934
21203W        W82866  31.080  42.416   4.636
21204W        W82867   4.270  32.509  14.482
21205W        W82868  15.755   3.218   3.348
21206W        W82869  42.857   0.386   3.676
21207W        W82870   1.329   9.739   1.871
21208W        W82871  28.477  39.992  12.547
21209W        W82872  35.914  18.057  12.066
21210W        W82873  20.571  15.305  12.039
21211W        W82874  19.715  36.881   1.318
21212W        W82875  10.256  39.316   1.800
21213W        W82876  14.772  13.232   0.257
21214W        W82877  14.176  38.390   9.950
21215W        W82878  29.495  15.155   2.271
21216W        W82879  29.491  10.807   0.395
21217W        W82880  28.061  27.602  13.389
21218W        W82881  32.103  29.570  11.111
21219W        W82882  29.486   6.768  12.485
21220W        W82883  33.098  21.703  13.877
21221W        W82884   2.407  44.344  10.608
21222W        W82885  34.596  19.544  12.425
21223W        W82886   5.284  25.684   4.815
21224W        W82887  22.554  15.241   4.142
21225W        W82888  14.679  44.998  13.902
21226W        W82889   0.962  33.380   5.213
21227W        W82890  23.649  37.911   3.859
21228W        W82891  38.854  32.030  14.382
21229W        W82892  37.350   1.291  11.096
21230W        W82893  12.733  43.853   4.757
21231W        W82894  43.388   9.314   4.255
21232W        W82895   3.329  10.709  11.904
21233W        W82896  37.071  16.211  14.495
21234W        W82897   1.411  15.176   1.432
21235W        W82898  13.639  38.520   1.802
21236W        W82899  31.110   9.387  11.020
21237W        W82900  34.967  19.623   2.255
21238W        W82901   1.295  38.030   0.283
21239W        W82902  34.595  44.785   4.754
21240W        W82903  14.673  37.530  10.943
21241W        W82904  14.339  13.701  12.846
21242W        W82905  13.668  21.031  11.058
21243W        W82906  16.786  17.093   0.398
21244W        W82907  23.218   1.965   4.662
21245W        W82908  17.075  16.799  12.863
21246W        W82909  34.500  15.204  11.391
21247W        W82910  34.457  29.991   4.322
21248W        W82911  29.968  23.236   2.668
21249W        W82912  12.247  15.313   3.228
21250W        W82913  32.892  27.474   2.338
21251W        W82914  27.168  17.234   0.359
21252W        W82915  20.726  30.529  14.348
21253W        W82916  31.469  14.715   4.296
21254W        W82917  41.494  10.780  12.020
21255W        W82918  20.647  33.041  14.912
21256W        W82919  35.509  13.766  12.050
21257W        W82920  19.548  28.960  10.419
21258W        W82921  29.502  19.279   3.816
21259W        W82922  31.457  10.139   2.298
21260W        W82923   9.307  35.097   9.951
21261W        W82924  38.950  40.416  14.893
21262W        W82925   2.917   4.891  14.875
21263W        W82926   2.428  25.068   2.880
21264W        W82927  43.867  44.949   1.730
21265W        W82928  12.193  20.271   2.665
21266W        W82929  29.057  38.915   3.768
21267W        W82930  22.712  24.714  10.101
21268W        W82931  13.122  23.721   3.773
21269W        W82932  36.456  25.077   1.920
21270W        W82933   0.812  38.423  14.794
21271W        W82934  18.228  12.276  14.783
21272W        W82935  31.941  44.461   1.231
21273W        W82936  15.118  30.491   3.172
21274W        W82937  20.244  10.786   3.354
21275W        W82938   2.817  35.016  14.011
21276W        W82939  34.531   1.935  11.589
21277W        W82940  25.662   1.776  11.050
21278W        W82941  31.412   4.860   1.233
21279W        W82942  25.048   3.258  13.032
21280W        W82943  34.597  23.057   1.704
21281W        W82944  24.574  31.570   1.900
21282W        W82945  34.992  19.676   1.796
21283W        W82946   7.179   0.751   4.668
21284W        W82947  10.776  20.253  13.467
21285W        W82948  40.496  25.545   3.252
21286W        W82949  23.556  17.581  11.438
21287W        W82950   3.394  40.462  10.452
21288W        W82951   1.415  40.008  11.873
21289W        W82952  39.469  21.100   2.299
21290W        W82953   7.861  41.909  13.902
21291W        W82954   0.754   5.349   1.264
21292W        W82955   1.356  39.936   1.914
21293W        W82956  28.612   4.767  13.996
21294W        W82957   5.347  14.156  10.494
21295W        W82958   7.674  28.079  11.572
21296W        W82959  15.145  18.197  11.978
21297W        W82960  32.078   3.336   3.341
21298W        W82961  14.110  15.765   0.250
21299W        W82962  34.880   4.367  14.840
21300W        W82963  39.000  27.544  12.529
21301W        W82964  42.995  39.027  14.388
21302W        W82965  34.058   0.340  14.833
21303W        W82966  31.133  21.547   2.415
21304W        W82967   4.840   4.418   1.314
21305W        W82968   7.882  12.153  14.850
21306W        W82969  16.697  41.825  14.015
21307W        W82970  42.399  34.417  14.808
21308W        W82971  34.559  35.576  13.365
21309W        W82972   9.310   7.819   2.694
21310W        W82973  39.956   6.706  14.490
21311W        W82974  23.095   1.974  10.101
21312W        W82975  37.051  31.633   2.236
21313W        W82976  27.067  30.129   2.333
21314W        W82977  28.447  37.862  12.430
21315W        W82978  39.973   5.396   4.268
21316W        W82979  11.666  31.106  11.576
21317W        W82980   0.811  27.023  14.012
21318W        W82981  44.265  19.775  13.910
21319W        W82982   2.956  38.478   1.237
21320W        W82983  44.434  22.158   4.271
21321W        W82984  43.810   4.285  11.936
21322W        W82985  36.951  21.260  13.371
21323W        W82986  21.568  34.068  13.498
21324W        W82987  10.237  19.726   2.854
21325W        W82988   5.783  35.424  14.295
21326W        W82989  30.620  31.132  13.905
21327W        W82990  16.582  20.626   4.697
21328W        W82991  27.069  12.174  10.544
21329W        W82992   1.790  33.381   3.730
21330W        W82993  34.977  16.597  14.506
21331W        W82994  44.925  19.265  11.120
21332W        W82995  10.699   2.761   1.707
21333W        W82996  18.557  16.205  11.921
21334W        W82997  30.992  13.778  12.370
21335W        W82998  33.996   0.927   2.185
21336W        W82999  44.800  43.275  13.869
21337W        W83000  39.366  24.221  14.488
21338W        W83001  44.949  15.764   0.324
21339W        W83002  21.666  18.263   1.707
21340W        W83003  20.052  38.033   0.370
21341W        W83004  23.603  23.492   1.387
21342W        W83005  28.021  39.932   5.127
21343W        W83006  29.040   2.239   4.761
21344W        W83007   3.715   0.277  10.528
21345W        W83008  36.379  17.168   2.863
21346W        W83009   7.208  40.320   4.819
21347W        W83010   6.876  21.022   2.738
21348W        W83011  11.641   9.771   1.377
21349W        W83012  23.159  30.951   1.369
21350W        W83013  35.913  30.510  14.865
21351W        W83014  13.331  14.807   1.266
21352W        W83015  23.679  31.965  14.769
21353W        W83016  21.239  20.068   4.166
21354W        W83017  39.487  43.395  10.977
21355W        W83018  41.530  40.420  13.374
21356W        W83019  42.796   6.414  11.470
21357W        W83020  20.230   9.851   4.337
21358W        W83021  42.323  37.049   1.817
21359W        W83022  22.568  12.260   1.290
21360W        W83023  29.045  16.659  13.006
21361W        W83024  10.356  16.770   3.631
21362W        W83025  44.770  12.298  11.418
21363W        W83026  38.339  10.742  14.959
21364W        W83027   7.673  42.338  10.975
21365W        W83028   0.387  30.432   1.788
21366W        W83029  37.562  22.146   0.255
21367W        W83030   7.688  21.047  12.875
21368W        W83031  16.621  28.039  12.578
21369W        W83032  38.351  20.705  14.291
21370W        W83033  27.477   1.786   4.601
21371W        W83034   1.432  17.128   1.760
21372W        W83035  26.030  38.541   5.140
21373W        W83036   3.386  24.696   3.641
21374W        W83037  22.514  35.571  13.377
21375W        W83038  18.258  44.929   2.390
21376W        W83039  14.161  39.882   5.187
21377W        W83040  13.134  25.562   1.770
21378W        W83041  10.802  29.137   5.120
21379W        W83042  17.724  38.486   0.318
21380W        W83043  10.684  34.015   4.168
21381W        W83044  11.630   3.328   2.276
21382W        W83045  38.432   1.734  14.400
21383W        W83046   4.917  32.942   2.342
21384W        W83047   4.261  18.125   2.198
21385W        W83048  15.739  35.858   4.228
21386W        W83049  43.276   3.432  11.941
21387W        W83050  18.723  11.812   2.787
21388W        W83051   9.887   8.677   0.817
21389W        W83052  39.505  26.606   2.694
21390W        W83053  44.280  34.090   3.799
21391W        W83054  21.061  21.718   2.690
21392W        W83055  43.500  23.651   2.206
21393W        W83056  34.009  22.154  12.402
21394W        W83057  15.784  10.155  12.419
21395W        W83058  28.939  32.490  12.891
21396W        W83059   0.864  13.269   3.658
21397W        W83060  41.863  36.982  13.388
21398W        W83061  16.643  10.221   2.900
21399W        W83062   2.966  43.848   4.127
21400W        W83063  38.064  29.106   0.884
21401W        W83064  42.478  12.658  14.931
21402W        W83065  33.007  29.526   2.275
21403W        W83066  29.665  11.735   3.648
21404W        W83067  35.063  36.364  13.481
21405W        W83068  21.030  36.946   1.325
21406W        W83069   7.195  39.523   1.921
21407W        W83070   3.897  30.922  13.467
21408W        W83071   7.404  10.164  11.956
21409W        W83072  40.912  44.951  12.824
21410W        W83073  35.568  14.783  12.854
21411W        W83074   0.463  12.723  10.992
21412W        W83075  39.057  25.072  14.451
21413W        W83076   3.757   7.369   0.763
21414W        W83077  31.050   4.358  11.941
21415W        W83078  21.724  33.498  13.421
21416W        W83079  26.514  30.943   1.857
21417W        W83080  24.037   5.339  11.454
21418W        W83081  25.599  31.125   0.808
21419W        W83082  43.461  21.194   0.924
21420W        W83083  40.928  30.955   1.858
21421W        W83084  34.055  17.180  12.848
21422W        W83085  27.079  10.657   2.218
21423W        W83086  19.135  41.919  14.995
21424W        W83087  38.450   7.821   0.479
21425W        W83088  41.880   9.247  14.976
21426W        W83089  35.879  30.142   4.665
21427W        W83090  33.409  17.104  12.445
21428W        W83091  27.020  40.548   3.718
21429W        W83092   6.202  29.667   4.182
21430W        W83093  38.482  15.821   3.344
21431W        W83094  10.219  42.861  13.351
21432W        W83095  30.611  10.189   0.934
21433W        W83096  35.100  35.375  14.299
21434W        W83097  20.069  16.605   2.889
21435W        W83098  21.686   5.755   2.843
21436W        W83099  12.817   5.333  10.423
21437W        W83100   6.872   3.741  11.060
21438W        W83101  21.570  10.745   0.361
21439W        W83102   6.729   3.413   1.238
21440W        W83103   6.322  42.441  13.352
21441W        W83104  17.674  23.202  14.361
21442W        W83105   9.884  31.516   4.231
21443W        W83106  40.847  28.134   3.358
21444W        W83107  12.297  39.333   1.358
21445W        W83108  29.439  26.089  14.411
21446W        W83109   2.412  24.026  10.601
21447W        W83110  12.751  34.911   4.348
21448W        W83111  31.621  25.665  10.527
21449W        W83112  15.170   3.782  12.939
21450W        W83113   4.270   0.257  13.990
21451W        W83114   6.209   1.740  13.979
21452W        W83115  11.128  21.201   2.888
21453W        W83116  36.061  31.524  14.771
21454W        W83117  39.909  13.707   0.795
21455W        W83118  17.130  26.115   1.900
21456W        W83119   6.762  37.378   2.842
21457W        W83120  39.018  31.432  11.548
21458W        W83121  26.005  36.987   3.731
21459W        W83122  11.812   2.859   4.796
21460W        W83123  27.489  17.221   4.311
21461W        W83124  13.139  44.321   4.201
21462W        W83125  39.927   9.335   5.146
21463W        W83126  35.597  38.844  14.990
21464W        W83127   7.382  18.203   2.280
21465W        W83128   2.471  16.120   4.766
21466W        W83129  30.118   3.832   0.751
21467W        W83130  13.608  26.626   3.696
21468W        W83131  43.775  35.892  12.979
21469W        W83132  30.979  15.635   4.304
21470W        W83133  37.559  13.189  13.979
21471W        W83134   3.443  23.043  12.998
21472W        W83135  36.879  41.425   3.163
21473W        W83136  38.854  40.497  11.016
21474W        W83137   3.381  25.088   2.391
21475W        W83138  21.230  18.681  14.437
21476W        W83139  41.954  25.135   0.839
21477W        W83140  41.896  40.994   4.294
21478W        W83141   9.390  38.946  13.511
21479W        W83142  17.177  10.170  10.406
21480W        W83143  12.171  14.168   4.154
21481W        W83144  11.633   2.928   1.737
21482W        W83145  36.996  44.323   2.813
21483W        W83146  13.220   8.830  13.479
21484W        W83147  31.069  21.137   5.605
21485W        W83148   1.237  31.583  14.880
21486W        W83149  34.874  37.379   4.662
21487W        W83150   3.711  31.938  10.934
21488W        W83151  35.443  13.186   1.813
21489W        W83152  32.141  40.335   0.866
21490W        W83153   4.332  39.434   0.398
21491W        W83154  10.322   7.393  12.430
21492W        W83155  43.509  20.035  12.935
21493W        W83156  34.072  15.650  13.319
21494W        W83157  37.440  34.069  14.390
21495W        W83158  44.936  29.623  11.492
21496W        W83159  24.077  15.743   3.660
21497W        W83160   7.750  12.733   3.805
21498W        W83161   1.481   7.887   1.696
21499W        W83162  11.766  12.316   3.194
21500W        W83163   1.929  32.141  11.910
21501W        W83164  28.616  36.943   0.865
21502W        W83165   9.656   1.921  12.353
21503W        W83166   0.293  23.235   2.709
21504W        W83167  27.623   6.239   3.185
21505W        W83168  24.994  23.610  11.888
21506W        W83169  26.053   9.240  11.537
21507W        W83170  35.975  31.078  11.982
21508W        W83171  39.944  31.907   2.320
21509W        W83172  19.182  32.940  10.489
21510W        W83173  42.886  14.635  14.023
21511W        W83174  44.960  42.865   0.957
21512W        W83175  15.727  30.147   2.677
21513W        W83176  29.071  33.612   1.741
21514W        W83177  41.891  41.796  13.494
21515W        W83178  26.530  27.629   3.262
21516W        W83179  10.861   7.271  11.925
21517W        W83180  38.990   0.801  13.918
21518W        W83181  41.967  17.716   0.752
21519W        W83182  35.397   5.688  14.288
21520W        W83183  25.555  14.110  14.001
21521W        W83184   3.727  41.301   1.739
21522W        W83185  35.106  29.560   1.261
21523W        W83186  10.244  21.625   3.791
21524W        W83187  20.102   1.321   2.680
21525W        W83188   3.443  33.517   0.876
21526W        W83189  34.105   3.384  13.318
21527W        W83190   8.677   1.288   2.790
21528W        W83191  13.674  40.891   3.167
21529W        W83192   0.804   6.348  10.516
21530W        W83193  23.043   8.841   3.675
21531W        W83194  31.988  36.572  14.961
21532W        W83195   0.935  10.159  11.035
21533W        W83196   1.482   6.410   2.418
21534W        W83197  16.651  39.477  10.948
21535W        W83198  18.072   2.857   1.854
21536W        W83199  18.076   0.793   1.878
21537W        W83200   0.392  15.623  13.844
21538W        W83201  15.135  37.336  10.494
21539W        W83202  16.604  35.525   3.354
21540W        W83203  29.638  26.984   4.667
21541W        W83204  31.112  26.044   4.685
21542W        W83205  20.570   7.849  10.890
21543W        W83206  26.675  32.566   3.719
21544W        W83207  29.035   8.862  13.981
21545W        W83208  11.731  22.512   0.279
21546W        W83209  35.360  12.624  12.051
21547W        W83210   1.937  36.842  14.868
21548W        W83211   1.442  17.274   0.283
21549W        W83212  15.159  19.689   2.248
21550W        W83213  21.590  34.612  13.975
21551W        W83214  15.246   7.304   1.796
21552W        W83215   2.901  33.946   0.877
21553W        W83216  27.674  39.541  10.002
21554W        W83217  25.049  35.397   3.169
21555W        W83218   7.706  30.542   4.616
21556W        W83219  14.259  19.053   0.870
21557W        W83220  40.486   2.852   0.785
21558W        W83221   7.407  37.581  11.461
21559W        W83222   3.754  30.420  12.505
21560W        W83223  20.222  19.713   2.852
21561W        W83224  14.701  34.102   2.338
21562W        W83225  13.844  38.485  14.993
21563W        W83226  20.074  43.943  13.547
21564W        W83227  31.108  39.559  14.907
21565W        W83228  29.055  31.099   1.704
21566W        W83229  41.484  23.062   4.749
21567W        W83230   6.387  16.803  10.471
21568W        W83231  15.635  12.352   0.956
21569W        W83232   8.893  18.270   2.791
21570W        W83233  14.106  33.534   2.257
21571W        W83234   3.268  38.937  13.993
21572W        W83235   3.744  38.946   4.716
21573W        W83236  34.553  31.610  11.504
21574W        W83237  30.016  35.080   2.390
21575W        W83238  19.063   7.775   2.253
21576W        W83239   1.409  28.116   1.865
21577W        W83240  42.510  20.040  13.858
21578W        W83241   1.371  19.772  11.884
21579W        W83242  20.608  22.100   2.386
21580W        W83243   4.337  39.005  14.437
21581W        W83244  29.142  29.451   4.753
21582W        W83245  39.359  32.967   3.813
21583W        W83246  40.023  34.454   2.665
21584W        W83247  24.055  22.723   0.811
21585W        W83248  15.735   0.322   4.154
21586W        W83249   3.302  32.890  10.561
21587W        W83250  36.042  13.208  13.034
21588W        W83251  23.039  11.635  14.372
21589W        W83252  31.987   8.834  14.402
21590W        W83253  14.137  14.273  14.278
21591W        W83254  26.004   0.461   2.255
21592W        W83255   8.377  18.740   0.960
21593W        W83256  36.095  12.117   1.721
21594W        W83257   8.866  38.885   1.904
21595W        W83258  10.190  33.580   2.853
21596W        W83259  44.845   3.789  13.935
21597W        W83260  34.104   1.870   4.706
21598W        W83261  43.836   5.891   4.176
21599W        W83262  28.133  36.853   1.706
21600W        W83263  34.961   8.720   1.241
21601W        W83264  36.585   3.742  13.906
21602W        W83265  39.823   1.272  12.860
21603W        W83266  26.466  15.737  10.537
21604W        W83267  18.762  24.643  10.972
21605W        W83268  26.507   0.422   0.756
21606W        W83269   5.319  34.986  11.998
21607W        W83270   2.468  41.467   3.640
21608W        W83271  44.874   6.290   4.277
21609W        W83272  12.841   9.178   3.306
21610W        W83273  25.520  24.153  13.986
21611W        W83274  15.653  10.211  12.029
21612W        W83275  16.687  15.224   2.820
21613W        W83276  14.106  25.620   1.384
21614W        W83277  43.018  26.000  14.901
21615W        W83278  24.499  23.538  14.806
21616W        W83279  27.581  15.627   4.808
21617W        W83280  22.030  12.249   4.726
21618W        W83281  35.866   0.959   2.818
21619W        W83282   8.668   6.189   4.270
21620W        W83283  19.734  10.714  13.853
21621W        W83284   9.308  42.986   3.172
21622W        W83285  30.625  41.515   3.709
21623W        W83286   8.317  27.075  14.358
21624W        W83287  26.522  13.736   1.830
21625W        W83288  16.239   3.903   4.321
21626W        W83289  36.918  13.659   3.677
21627W        W83290  35.379  27.526   2.221
21628W        W83291  26.462  37.014   0.737
21629W        W83292  23.070  13.601  12.851
21630W        W83293  16.670   4.408  14.803
21631W        W83294  31.564   6.258   1.705
21632W        W83295  25.069  16.602   1.852
21633W        W83296  31.055  30.579   4.837
21634W        W83297  38.845  43.945  11.999
21635W        W83298  24.218  10.858  12.348
21636W        W83299  34.537  14.748   4.220
21637W        W83300   5.916  42.909   0.364
21638W        W83301   1.420  21.150  13.482
21639W        W83302  24.667   7.385  11.096
21640W        W83303  18.704  11.738   5.198
21641W        W83304  44.331   8.258  14.979
21642W        W83305  27.991  41.478   4.728
21643W        W83306   6.311  40.017   4.759
21644W        W83307  19.723  35.398  10.906
21645W        W83308   6.280  39.850  13.323
21646W        W83309   5.368  12.225  14.449
21647W        W83310  40.385  22.533   1.328
21648W        W83311  29.062  14.183  12.412
21649W        W83312  35.539   0.282  10.588
21650W        W83313   3.459   0.804   3.697
21651W        W83314  39.063  37.485   1.257
21652W        W83315  42.899  44.384   1.428
21653W        W83316  26.684  35.474  13.792
21654W        W83317  38.415  11.716   1.436
21655W        W83318   7.198  25.538  13.503
21656W        W83319  28.681  28.657   4.204
21657W        W83320  31.425   7.707  10.475
21658W        W83321  42.309  33.067  14.303
21659W        W83322   6.223  11.189  12.876
21660W        W83323  35.074  42.988   2.670
21661W        W83324  32.587  26.118   3.706
21662W        W83325  26.979  32.577   1.331
21663W        W83326  10.788  18.677  13.890
21664W        W83327  37.337  19.710   0.441
21665W        W83328  20.244  26.673   0.728
21666W        W83329  28.122   6.216  14.029
21667W        W83330  29.011  11.292   0.326
21668W        W83331   7.414  12.836  12.451
21669W        W83332  23.725  41.441  12.990
21670W        W83333  18.253  19.742  11.036
21671W        W83334  41.871  25.980  13.439
21672W        W83335  23.642  32.105  10.937
21673W        W83336  21.163  36.872  13.348
21674W        W83337   9.885  27.506  14.417
21675W        W83338  35.402  17.664  13.979
21676W        W83339  40.349  19.261  13.541
21677W        W83340  37.926  38.948   9.989
21678W        W83341   3.767  41.480   0.946
21679W        W83342  17.149  24.574  14.408
21680W        W83343  39.415   1.396   0.390
21681W        W83344  26.173  35.503  13.362
21682W        W83345  25.618  11.324   1.852
21683W        W83346  43.871  11.252   1.791
21684W        W83347  10.233   3.440   2.794
21685W        W83348  37.416  25.711  12.364
21686W        W83349  14.285  29.440   1.313
21687W        W83350  12.762  27.176  10.989
21688W        W83351  41.863  37.832  14.000
21689W        W83352  33.467   5.203   1.771
21690W        W83353  22.026  16.694  14.946
21691W        W83354  17.063   5.281  10.564
21692W        W83355  36.004  42.491  14.891
21693W        W83356  16.209   3.907  14.415
21694W        W83357  37.349  20.202  13.461
21695W        W83358  24.149  27.490   4.134
21696W        W83359  19.120  35.380   1.729
21697W        W83360  39.911  29.122   4.769
21698W        W83361  43.423  39.983   2.722
21699W        W83362  40.407  28.141   2.408
21700W        W83363  22.216  11.848   4.352
21701W        W83364  24.704  34.437  11.019
21702W        W83365  31.118  35.405   4.800
21703W        W83366   3.833  25.523  10.506
21704W        W83367  41.358  41.965  11.017
21705W        W83368  44.432  25.013   3.717
21706W        W83369  10.788  35.600   3.154
21707W        W83370  34.495   6.724  13.064
21708W        W83371  39.051  15.193   4.710
21709W        W83372   1.769  25.135   1.896
21710W        W83373  14.610   6.846  14.870
21711W        W83374   3.740   6.256   2.388
21712W        W83375  44.894   6.395  13.916
21713W        W83376  34.023  30.939  10.498
21714W        W83377  19.246  38.483   4.642
21715W        W83378  43.773  39.379  11.038
21716W        W83379   3.402  25.711  10.487
21717W        W83380  25.019  12.686   4.616
21718W        W83381  16.266   7.221   0.921
21719W        W83382  11.860  31.907   3.368
21720W        W83383  14.210  18.678   4.171
21721W        W83384  42.940   5.780   4.153
21722W        W83385  34.408  22.578  14.458
21723W        W83386  40.331  31.592   2.666
21724W        W83387  31.484  26.690   3.380
21725W        W83388  15.285  39.422   2.814
21726W        W83389  30.554  15.691  11.976
21727W        W83390  44.943  42.341   3.224
21728W        W83391  43.354  39.920   4.632
21729W        W83392  29.139  39.864  12.024
21730W        W83393  15.265  15.289  12.518
21731W        W83394   8.718  33.991  11.021
21732W        W83395  23.676  34.436  14.443
21733W        W83396   9.267  15.768   0.734
21734W        W83397  25.530   5.430  14.475
21735W        W83398  37.576  25.642   1.897
21736W        W83399  27.604   1.255   4.826
21737W        W83400  13.288  26.669   4.353
21738W        W83401   3.460   4.250   4.350
21739W        W83402  43.800  28.054   2.387
21740W        W83403  20.266  26.611   2.854
21741W        W83404  35.599  29.041   1.238
21742W        W83405  31.642  44.329  10.990
21743W        W83406  30.625  38.039  14.508
21744W        W83407  18.178  16.764  14.450
21745W        W83408  27.190  31.963  13.002
21746W        W83409  43.834  37.058   1.442
21747W        W83410  14.191  43.512   1.833
21748W        W83411  19.567   8.703  13.511
21749W        W83412  35.570  31.538   1.700
21750W        W83413  43.989  33.507  11.857
21751W        W83414  42.802  38.917   3.766
21752W        W83415   3.887  20.736   1.335
21753W        W83416   4.290   6.864   1.432
21754W        W83417  20.700  25.520   1.314
21755W        W83418  25.590  30.044   2.818
21756W        W83419  40.349   1.775  13.863
21757W        W83420  20.098   3.800  13.063
21758W        W83421  21.168  43.295   2.704
21759W        W83422  38.337  40.000  14.363
21760W        W83423  18.090   9.799   1.856
21761W        W83424  31.503  30.053  13.507
21762W        W83425  15.262  20.659  10.543
21763W        W83426  24.120  15.599  11.982
21764W        W83427  24.226  18.669   2.861
21765W        W83428  22.515   5.809   1.225
21766W        W83429  26.119   6.842  14.311
21767W        W83430  12.263  14.732   0.842
21768W        W83431  11.778   4.827  14.917
21769W        W83432  29.108  13.632   4.296
21770W        W83433  12.132   5.227  12.865
21771W        W83434  12.798   4.937  14.023
21772W        W83435   9.802  42.955  11.111
21773W        W83436  29.997  29.120  14.351
21774W        W83437  40.361   7.713   1.885
21775W        W83438  11.300   0.358   4.142
21776W        W83439   5.734  27.638   3.197
21777W        W83440  24.502   1.441   2.394
21778W        W83441  35.064  38.571  14.342
21779W        W83442   3.339  29.117   1.223
21780W        W83443  40.469   0.972   1.922
21781W        W83444  18.222  32.433  13.393
21782W        W83445  26.590  32.564  13.003
21783W        W83446  44.898  27.166   3.763
21784W        W83447   0.461  19.051  10.513
21785W        W83448   0.360  35.042  11.585
21786W        W83449   5.283  41.941  11.389
21787W        W83450   1.928  33.910  10.533
21788W        W83451  10.679  17.295   0.271
21789W        W83452  22.027   8.349  10.960
21790W        W83453  21.600  28.602   1.424
21791W        W83454  20.071  30.463  11.067
21792W        W83455   7.373   8.788  13.994
21793W        W83456   5.806  17.183   4.292
21794W        W83457  30.511  26.623   4.203
21795W        W83458  19.280  19.591  12.082
21796W        W83459  11.251   3.237   0.369
21797W        W83460  15.751  10.214  10.044
21798W        W83461  39.322  12.652   1.294
21799W        W83462  14.675  15.578  13.891
21800W        W83463  23.061   4.912   1.357
21801W        W83464  34.094  25.144   3.858
21802W        W83465   4.316  36.545   3.171
21803W        W83466  21.180  10.865  14.965
21804W        W83467  13.175   8.721   3.379
21805W        W83468  24.071   7.290   3.344
21806W        W83469  41.962  41.486   0.811
21807W        W83470  19.676  33.621   2.754
21808W        W83471  15.282  43.805  12.421
21809W        W83472  14.608  39.842   3.203
21810W        W83473  26.493  38.914  11.984
21811W        W83474  12.272  39.357   3.321
21812W        W83475  14.276  41.436   1.391
21813W        W83476  26.161  26.009  10.040
21814W        W83477  41.939  18.774  12.972
21815W        W83478  32.573   6.707  14.858
21816W        W83479  29.000  16.771   0.852
21817W        W83480  12.165  14.642   1.735
21818W        W83481  27.560  11.141  10.612
21819W        W83482  34.116  27.139  10.604
21820W        W83483  23.047  11.327   2.392
21821W        W83484  10.771  29.540   2.758
21822W        W83485   5.929  43.012  12.936
21823W        W83486  35.372  11.172   1.915
21824W        W83487  21.042  17.784  13.446
21825W        W83488   1.437  36.088   0.286
21826W        W83489   7.713  22.740   3.769
21827W        W83490  30.074  17.711   2.223
21828W        W83491  32.113  34.969   4.125
21829W        W83492  25.609   6.252   0.334
21830W        W83493  25.089  32.534   3.871
21831W        W83494   7.209  20.150  12.920
21832W        W83495  38.524   8.343  14.324
21833W        W83496  38.445  20.524   4.689
21834W        W83497   5.264  25.102   0.794
21835W        W83498  37.086  35.068  12.978
21836W        W83499  29.506   2.428   3.775
21837W        W83500  43.798  11.782  10.413
21838W        W83501  23.065  10.149   2.839
21839W        W83502  19.636  31.641   0.800
21840W        W83503  37.528   0.869   0.378
21841W        W83504  32.933  10.188   1.922
21842W        W83505   9.362  32.912   2.733
21843W        W83506  18.641  12.856  11.985
21844W        W83507  13.134  32.607   4.830
21845W        W83508  11.862  31.027  12.571
21846W        W83509   0.369  26.078   1.805
21847W        W83510   3.945  44.908  11.960
21848W        W83511  30.012  38.500  12.482
21849W        W83512  14.589  31.491   2.183
21850W        W83513  31.110  36.395  13.994
21851W        W83514  30.933  44.353  12.021
21852W        W83515  41.347  11.790   1.360
21853W        W83516   4.445  21.606   0.822
21854W        W83517  10.360   5.729   9.484
21855W        W83518   2.331  10.825   0.384
21856W        W83519  39.909  25.700   2.695
21857W        W83520   1.809  23.544  13.030
21858W        W83521   8.273  34.932   4.793
21859W        W83522   0.473  34.980  11.120
21860W        W83523  40.840  41.477  12.430
21861W        W83524  20.756  38.374   2.705
21862W        W83525   9.826  41.043  13.312
21863W        W83526   3.231   4.322   4.830
21864W        W83527  17.557  31.927  14.479
21865W        W83528  11.289  31.447  11.119
21866W        W83529  39.333  15.101   1.784
21867W        W83530   3.874  18.054   2.359
21868W        W83531  16.082  17.139  14.987
21869W        W83532  23.220  37.571   4.279
21870W        W83533   8.333  21.167   2.204
21871W        W83534  44.984  44.387   4.651
21872W        W83535  40.537  14.156  14.910
21873W        W83536  14.639  32.578   3.832
21874W        W83537  39.355  25.583   0.290
21875W        W83538   7.181  10.242  13.451
21876W        W83539  17.575  32.887  11.040
21877W        W83540  16.216  28.671   4.815
21878W        W83541  42.031  20.616  14.950
21879W        W83542  37.977  23.199   2.754
21880W        W83543  17.238  43.900  12.904
21881W        W83544  13.156   8.865   4.197
21882W        W83545   0.779  19.778  13.052
21883W        W83546  35.975  20.669  13.968
21884W        W83547  18.158  29.983   0.250
21885W        W83548   2.461  40.920   4.246
21886W        W83549  41.917   6.838  10.521
21887W        W83550  22.213  10.205   1.292
21888W        W83551   7.206   1.735  13.427
21889W        W83552  21.085   7.744   3.183
21890W        W83553   7.228  33.013   1.265
21891W        W83554  19.566   7.395  14.987
21892W        W83555   2.264  35.461   1.341
21893W        W83556  19.161   4.392  12.923
21894W        W83557   9.282  18.230   0.918
21895W        W83558  40.381  44.385  12.457
21896W        W83559   3.795  36.499   1.769
21897W        W83560   1.958  21.620  11.509
21898W        W83561   6.838  29.102   2.265
21899W        W83562  29.925  39.052   4.244
21900W        W83563  32.456  10.377   3.376
21901W        W83564  40.853  42.008   2.744
21902W        W83565  31.976   6.678   3.867
21903W        W83566  21.170  32.078  10.925
21904W        W83567  44.909  29.629  14.031
21905W        W83568  24.524  38.400  14.787
21906W        W83569  15.622  11.252  12.849
21907W        W83570   4.812   1.407  14.449
21908W        W83571   4.713  40.517  10.039
21909W        W83572  43.846  37.562  12.849
21910W        W83573  10.196  32.637  13.362
21911W        W83574  31.626  15.294  12.523
21912W        W83575  19.116  17.694   0.431
21913W        W83576  28.526   8.308  13.546
21914W        W83577  24.053   6.868   4.701
21915W        W83578  29.528  12.804  12.479
21916W        W83579  41.799  37.433  14.023
21917W        W83580   5.890   3.357   2.342
21918W        W83581  37.462  22.512  13.393
21919W        W83582  18.113  38.339  14.976
21920W        W83583  35.925  41.402  13.046
21921W        W83584  12.323  30.475  11.080
21922W        W83585  37.010  39.384   4.229
21923W        W83586  30.625  44.835  11.554
21924W        W83587  10.765   1.810   1.401
21925W        W83588  10.811  25.706  11.857
21926W        W83589   0.334   6.719  14.950
21927W        W83590   8.240   3.769   3.784
21928W        W83591  40.469  28.667  12.095
21929W        W83592  40.322  16.663  13.360
21930W        W83593  14.251  33.062  10.907
21931W        W83594  29.100  32.573   4.126
21932W        W83595   5.714  14.235   3.184
21933W        W83596  44.450  10.273   0.730
21934W        W83597   0.454   3.241   0.883
21935W        W83598  38.865  33.392  13.315
21936W        W83599   3.300  39.472  11.012
21937W        W83600  14.144  23.685   4.342
21938W        W83601  23.505  27.451  14.916
21939W        W83602   7.250  36.001   0.894
21940W        W83603  40.484  30.518  12.942
21941W        W83604  15.304  36.920  12.033
21942W        W83605  21.722   0.902   1.267
21943W        W83606  25.638  33.408   2.699
21944W        W83607  28.966  12.304   0.837
21945W        W83608   3.381  23.085  13.905
21946W        W83609  40.851   5.299  10.415
21947W        W83610  33.974  25.963   2.692
21948W        W83611  41.011  36.988   0.470
21949W        W83612  25.509  16.725  11.861
21950W        W83613   5.363  17.723   2.813
21951W        W83614  33.619  34.446  10.563
21952W        W83615  12.294   8.841   0.314
21953W        W83616  27.579   9.377  10.968
21954W        W83617  30.583  39.960  13.526
21955W        W83618  34.471  28.501   1.709
21956W        W83619   8.197   1.764   1.748
21957W        W83620  17.082  25.487  13.495
21958W        W83621  17.609  13.632  14.357
21959W        W83622  34.499  12.669  10.955
21960W        W83623  17.596  29.079  14.450
21961W        W83624  36.960  14.151  13.053
21962W        W83625  30.121   3.308  11.074
21963W        W83626  10.726  15.627  11.432
21964W        W83627  41.292  22.205  14.959
21965W        W83628  39.365  41.319  11.008
21966W        W83629  29.493  16.714   4.721
21967W        W83630  31.464   6.725  11.022
21968W        W83631  11.743   1.847   1.829
21969W        W83632  13.618   3.862  13.916
21970W        W83633  35.486  12.622   1.739
21971W        W83634  38.956  17.693   2.398
21972W        W83635  30.579  39.849   3.704
21973W        W83636  18.782  36.875   4.761
21974W        W83637  42.914  19.562  13.523
21975W        W83638  29.568  23.532   1.225
21976W        W83639  24.658   8.282   0.735
21977W        W83640  10.858   0.362   0.867
21978W        W83641  39.842  22.515  11.875
21979W        W83642  18.723  27.964  10.599
21980W        W83643  12.711  31.597  13.415
21981W        W83644  16.248   6.308   2.805
21982W        W83645  41.345  13.668   1.739
21983W        W83646  33.072  22.074  12.458
21984W        W83647  24.549  31.989  14.000
21985W        W83648  20.621   7.217   1.217
21986W        W83649  35.933  27.980   0.468
21987W        W83650  21.126  16.771  11.123
21988W        W83651  37.978  33.591   3.823
21989W        W83652   8.747   8.732   2.830
21990W        W83653  37.579  38.378  13.318
21991W        W83654  29.088   3.235  14.773
21992W        W83655  12.663   6.803   1.852
21993W        W83656  34.939  38.848  11.585
21994W        W83657  35.882   4.945  12.465
21995W        W83658   0.391   5.824  12.447
21996W        W83659  17.629  18.253  12.532
21997W        W83660  23.652  36.465  13.933
21998W        W83661   6.375   0.396   3.828
21999W        W83662  15.143  31.537   3.852
22000W        W83663  29.170  31.985  14.278
22001W        W83664  35.953  25.184  11.978
22002W        W83665  13.812  39.918   2.407
22003W        W83666   4.395  40.516  11.007
22004W        W83667  17.784  36.495   3.257
22005W        W83668  27.139  25.083  10.987
22006W        W83669  25.520  31.145  10.909
22007W        W83670  23.661  40.535  11.403
22008W        W83671  11.849  36.481   0.344
22009W        W83672  30.659  28.597   2.270
22010W        W83673  17.078  39.408   0.967
22011W        W83674  40.528   5.894  12.068
22012W        W83675  41.887  13.200  11.582
22013W        W83676  13.156   5.353   2.794
22014W        W83677  43.897  17.780  14.881
22015W        W83678   4.881  36.943  14.369
22016W        W83679   0.890  18.570   3.386
22017W        W83680  39.910  15.765  11.429
22018W        W83681  42.857  28.445  14.275
22019W        W83682  40.370   9.165  11.998
22020W        W83683  34.062  35.600  10.929
22021W        W83684   6.810  35.018   3.830
22022W        W83685  34.379  19.557   0.263
22023W        W83686  20.561  41.790  11.100
22024W        W83687  44.847  13.170  10.004
22025W        W83688  43.290  13.179  11.407
22026W        W83689  21.017  18.770  12.570
22027W        W83690   7.252  24.068  14.282
22028W        W83691  34.076  24.700   2.388
22029W        W83692  34.881  43.333  12.985
22030W        W83693  23.118  25.477   3.269
22031W        W83694  23.073  36.516  10.634
22032W        W83695  15.270  36.500  13.796
22033W        W83696  41.824  29.506  14.416
22034W        W83697  36.495  37.373  13.926
22035W        W83698  11.655   2.819   2.681
22036W        W83699  16.775   9.692   2.749
22037W        W83700  38.825   6.687   1.424
22038W        W83701  17.278  10.660   2.350
22039W        W83702  41.914  24.099  12.086
22040W        W83703   7.311  26.677  10.568
22041W        W83704  40.044  44.336   1.920
22042W        W83705  39.478  26.564  12.917
22043W        W83706   4.886   8.239  12.413
22044W        W83707  27.665  38.825   1.425
22045W        W83708  27.466   4.377   3.634
22046W        W83709  11.861  21.583   9.970
22047W        W83710  37.053  41.332   0.370
22048W        W83711  17.777  42.866   0.300
22049W        W83712  21.543  26.472  13.497
22050W        W83713  41.987  43.912   2.329
22051W        W83714  33.620  41.534   0.251
22052W        W83715   1.324  32.072   2.748
22053W        W83716   5.400  28.599  10.520
22054W        W83717  38.333   9.385   2.734
22055W        W83718  30.532  12.828   3.736
22056W        W83719  39.868   5.775   1.821
22057W        W83720  20.189  32.907  13.949
22058W        W83721  30.451  42.826  11.469
22059W        W83722   0.948  17.738   3.660
22060W        W83723  30.598  31.029  13.318
22061W        W83724  13.808  24.993   1.728
22062W        W83725  31.994  33.477   0.455
22063W        W83726  35.018  26.472   3.299
22064W        W83727  37.347  11.270   0.338
22065W        W83728  33.978  26.702   1.420
22066W        W83729  27.112   3.389  12.914
22067W        W83730  13.278  29.551   2.181
22068W        W83731  17.699   6.754  14.300
22069W        W83732  21.756  20.623   3.804
22070W        W83733  38.886  11.640  12.550
22071W        W83734  26.524  43.320  11.458
22072W        W83735  22.590  13.815  14.936
22073W        W83736   5.770  44.976  11.517
22074W        W83737   9.225  25.083   0.803
22075W        W83738  28.060   9.703   0.379
22076W        W83739  34.025  28.174  12.896
22077W        W83740   2.296  21.116  12.895
22078W        W83741  39.854  11.311   1.378
22079W        W83742  29.445   5.824   1.216
22080W        W83743   5.367  31.972   1.307
22081W        W83744  32.532  18.728   5.647
22082W        W83745  23.698  41.044   2.863
22083W        W83746  35.411   3.951   1.244
22084W        W83747  29.501  22.584  14.826
22085W        W83748  14.765  19.122  11.989
22086W        W83749   8.369   5.774   2.719
22087W        W83750  20.711  35.501   3.809
22088W        W83751  28.462  38.412  13.795
22089W        W83752  17.773  29.615  14.961
22090W        W83753  44.919  38.022   2.371
22091W        W83754  15.166  34.105   0.260
22092W        W83755  28.520  28.092   1.821
22093W        W83756  33.016  42.963   2.229
22094W        W83757  27.192  13.186   3.680
22095W        W83758  10.872  42.912  13.322
22096W        W83759   4.827  32.050  14.771
22097W        W83760   4.287  44.915   0.377
22098W        W83761  40.449  17.189   4.157
22099W        W83762  16.607  30.556   4.722
22100W        W83763   3.882  10.835  12.876
22101W        W83764  28.976  20.664  14.000
22102W        W83765  13.131  24.480   1.256
22103W        W83766  41.446  16.595  11.092
22104W        W83767  43.950   5.715  12.856
22105W        W83768   1.308  44.935   4.335
22106W        W83769   0.286  27.147  13.947
22107W        W83770  38.965   4.896   5.167
22108W        W83771  16.274  19.059   0.754
22109W        W83772  22.568  27.480   2.806
22110W        W83773  38.527  43.378   4.204
22111W        W83774   3.733   8.856  10.916
22112W        W83775  33.900  22.108   3.205
22113W        W83776  28.580  39.511   0.324
22114W        W83777   9.878  40.894  12.087
22115W        W83778  37.354  33.070  14.429
22116W        W83779   9.736  19.610   3.320
22117W        W83780  42.415   9.820  11.862
22118W        W83781  37.888  11.221   0.887
22119W        W83782  15.128  38.440   2.671
22120W        W83783  42.525  42.799  14.924
22121W        W83784  44.832  20.248  14.805
22122W        W83785  37.563  39.912   2.260
22123W        W83786  19.772  29.618  11.396
22124W        W83787  17.219  38.555  13.808
22125W        W83788  23.139   1.828   0.370
22126W        W83789  32.528  23.091  13.981
22127W        W83790  38.539   0.915   4.216
22128W        W83791  22.672  20.089  10.575
22129W        W83792  25.572  10.830   4.633
22130W        W83793  35.054  10.266   0.728
22131W        W83794  13.751  12.768   1.817
22132W        W83795  31.455   5.901   4.785
22133W        W83796  31.492   8.759  13.987
22134W        W83797  38.876  29.923  12.437
22135W        W83798  39.899  40.463   1.273
22136W        W83799  41.926  44.438   2.207
22137W        W83800  26.017  21.211  12.445
22138W        W83801  12.713  41.887  10.557
22139W        W83802  23.632  28.593  13.902
22140W        W83803  18.754  35.455   1.334
22141W        W83804  37.951  16.229  10.484
22142W        W83805  20.147  13.223   1.425
22143W        W83806   9.369  21.037  13.841
22144W        W83807  13.212  10.737   9.938
22145W        W83808  21.670   5.216  12.534
22146W        W83809  26.191  30.969  14.396
22147W        W83810  42.502  25.566  12.993
22148W        W83811  44.265   5.207   5.293
22149W        W83812  28.145   8.279   0.470
22150W        W83813  42.966  19.731   3.823
22151W        W83814  15.757  18.621   1.694
22152W        W83815   0.274  10.252   0.474
22153W        W83816  27.143  21.195  11.999
22154W        W83817   0.322   9.841  12.549
22155W        W83818  29.097  22.702  14.291
22156W        W83819  13.340   6.385   0.896
22157W        W83820   7.788  17.788  10.892
22158W        W83821  13.345   7.697   4.313
22159W        W83822  11.637  10.279   0.872
22160W        W83823   4.768  16.085  13.976
22161W        W83824  35.012   0.895   1.408
22162W        W83825   4.295  10.845   0.765
22163W        W83826  14.775   8.338  13.394
22164W        W83827  29.516   4.347   2.885
22165W        W83828  44.361  20.654   2.698
22166W        W83829  43.511  21.716  12.928
22167W        W83830  28.578   0.294  11.468
22168W        W83831  10.167  32.529  10.622
22169W        W83832  32.980   8.842  13.881
22170W        W83833  42.336   3.315  12.864
22171W        W83834  20.212   6.373  12.449
22172W        W83835  32.005   2.265  11.426
22173W        W83836  21.077  14.311   1.890
22174W        W83837  35.488  23.185  13.545
22175W        W83838  10.641   3.876  11.041
22176W        W83839  39.844  30.413   3.243
22177W        W83840  33.449  17.668   1.402
22178W        W83841   7.830  35.896   0.860
22179W        W83842  32.440  25.641   2.178
22180W        W83843  24.530  44.383   2.863
22181W        W83844  26.683  33.405   1.751
22182W        W83845  20.076  43.891   0.287
22183W        W83846  38.017  29.614   1.296
22184W        W83847  18.214  23.025  14.421
22185W        W83848   1.978  36.583   1.265
22186W        W83849   4.281   8.843   4.617
22187W        W83850  16.808  36.087  11.855
22188W        W83851  44.357  31.571   0.806
22189W        W83852  38.821  30.532  12.939
22190W        W83853  38.874  23.092  13.004
22191W        W83854   4.355  39.885   2.861
22192W        W83855  26.045   4.861   2.358
22193W        W83856  10.801  42.881  14.437
22194W        W83857  16.688   2.305  14.814
22195W        W83858  29.068  15.194   4.756
22196W        W83859   2.897  30.573  14.370
22197W        W83860  42.820  25.614  10.592
22198W        W83861  37.510  22.653  12.397
22199W        W83862   6.268  21.031   1.425
22200W        W83863  35.889  22.559   3.841
22201W        W83864  21.545  34.593   2.287
22202W        W83865  36.868  13.149  14.887
22203W        W83866  23.580  13.717   3.379
22204W        W83867   5.358   8.750  14.317
22205W        W83868   2.369  38.537   1.449
22206W        W83869   5.695  29.957  14.803
22207W        W83870  32.963  20.176   0.931
22208W        W83871  13.246   7.319   9.497
22209W        W83872  14.642  34.880  13.383
22210W        W83873  33.579   8.372  11.465
22211W        W83874  37.476  43.450   3.368
22212W        W83875   2.339   1.737  13.511
22213W        W83876   4.865  19.603   0.931
22214W        W83877  41.399  19.090   2.263
22215W        W83878  30.965  44.830  14.501
22216W        W83879  14.817  20.631   2.417
22217W        W83880   3.432  35.989   0.341
22218W        W83881  43.407  29.094   2.903
22219W        W83882   0.312  35.510   3.284
22220W        W83883   0.356  34.020   2.194
22221W        W83884  43.886  29.128  13.818
22222W        W83885  32.588  22.179   4.835
22223W        W83886   7.820  35.366   4.123
22224W        W83887  26.607  28.939  13.897
22225W        W83888  27.106  16.789   4.264
22226W        W83889   8.852  44.376   3.832
22227W        W83890  22.615  39.529  10.948
22228W        W83891   0.801  39.321   0.465
22229W        W83892  13.340  21.632   2.317
22230W        W83893  43.431  42.479   2.864
22231W        W83894  10.693  17.106  11.124
22232W        W83895  32.558  30.583   2.276
22233W        W83896   9.187  23.672  14.467
22234W        W83897  16.741  25.603   4.272
22235W        W83898  12.318  13.192  14.997
22236W        W83899  12.730  42.777  13.537
22237W        W83900  21.679   6.362  11.508
22238W        W83901  37.388  16.680  12.018
22239W        W83902  43.334  44.388  12.840
22240W        W83903  10.172  31.015   0.807
22241W        W83904  40.379   4.882  10.573
22242W        W83905  33.012  20.147  10.475
22243W        W83906  37.056  37.363  12.415
22244W        W83907  35.954  32.604  12.007
22245W        W83908  41.895  32.476   4.154
22246W        W83909  14.161  38.533   0.325
22247W        W83910  26.968   4.420   0.835
22248W        W83911  39.950  37.538  12.090
22249W        W83912  37.900  20.259   0.793
22250W        W83913  44.890  26.630   3.269
22251W        W83914  21.260  40.985   0.452
22252W        W83915  14.221  30.036   2.741
22253W        W83916  30.489   8.289  11.553
22254W        W83917  41.466   1.962   3.283
22255W        W83918  29.608  20.691   0.765
22256W        W83919  39.418  39.999   3.372
22257W        W83920  42.322   3.409   4.707
22258W        W83921  41.956  16.108  13.510
22259W        W83922   5.888   2.768  10.604
22260W        W83923  40.849   7.846  10.429
22261W        W83924  21.220   8.328   3.263
22262W        W83925  10.209   1.455  14.341
22263W        W83926  43.837   5.415  12.005
22264W        W83927  30.162  32.022   3.725
22265W        W83928  26.473  10.190  12.022
22266W        W83929  11.725  20.207  14.774
22267W        W83930  13.655  40.826  10.595
22268W        W83931  29.503  39.494   0.336
22269W        W83932  38.456   5.834  12.534
22270W        W83933   3.891  26.463  13.517
22271W        W83934   1.444  32.612  12.571
22272W        W83935  39.374   8.261  10.599
22273W        W83936  41.965   1.250   0.291
22274W        W83937  39.372  29.502  11.105
22275W        W83938  42.423   1.914   1.701
22276W        W83939  38.072  30.457   1.287
22277W        W83940  36.888   4.823  11.457
22278W        W83941  24.520   8.386  12.376
22279W        W83942   6.414   2.841   2.743
22280W        W83943  33.948  18.262  13.051
22281W        W83944  39.450  10.632   4.772
22282W        W83945  14.619  34.601  14.776
22283W        W83946  28.623   9.872  14.015
22284W        W83947   6.722   7.415  14.295
22285W        W83948  33.957   8.403  11.073
22286W        W83949  31.528  19.141   4.787
22287W        W83950  30.156   8.699   1.293
22288W        W83951  41.349  16.205  12.066
22289W        W83952  38.836  30.528  13.545
22290W        W83953   7.814  32.028   1.830
22291W        W83954  27.195   4.719   2.769
22292W        W83955  24.172  34.105   0.392
22293W        W83956   1.965  21.230   0.807
22294W        W83957   8.369  44.849  13.507
22295W        W83958  25.146  43.276  12.557
22296W        W83959  21.118  39.045   1.320
22297W        W83960  33.947  39.992   1.313
22298W        W83961  39.420  21.520  12.418
22299W        W83962  36.993  12.672  12.465
22300W        W83963  37.370  40.472   5.088
22301W        W83964  14.829   8.714   0.483
22302W        W83965  33.065  24.086   3.733
22303W        W83966   6.381  12.644   9.929
22304W        W83967  37.925  38.445  12.866
22305W        W83968  28.544  11.311   2.793
22306W        W83969  19.602  35.481   3.761
22307W        W83970  36.980  15.811  11.991
22308W        W83971  21.637  29.052  11.454
22309W        W83972   9.310  12.342  10.967
22310W        W83973  27.561  39.508  11.549
22311W        W83974  29.131  13.609   3.222
22312W        W83975   0.912  23.986   2.741
22313W        W83976  38.925  41.368  10.616
22314W        W83977  22.627  11.128  14.458
22315W        W83978  26.974  13.618  12.504
22316W        W83979   0.942  13.837   2.766
22317W        W83980   6.377   7.416  13.346
22318W        W83981  31.903  44.305   2.710
22319W        W83982  35.946  37.375   0.433
22320W        W83983  19.159  28.518   3.290
22321W        W83984  14.242  34.441  13.026
22322W        W83985  39.409  11.654  10.433
22323W        W83986  18.708  37.995   2.876
22324W        W83987  41.405  18.238  11.491
22325W        W83988  41.433  38.846   2.389
22326W        W83989   9.739  43.405   0.816
22327W        W83990  38.433  35.496   0.291
22328W        W83991   5.381   9.803  14.291
22329W        W83992   0.440  33.985   0.760
22330W        W83993  43.924  34.087   3.168
22331W        W83994  42.815  30.941  14.333
22332W        W83995  10.794   8.184  11.888
22333W        W83996  38.381  12.833  12.503
22334W        W83997   3.942  44.847   3.385
22335W        W83998   4.310  29.923  11.914
22336W        W83999  44.924   3.233  13.486
22337W        W84000  42.843  10.710   3.763
22338W        W84001  32.507  25.583  14.393
22339W        W84002   9.329  33.071  10.507
22340W        W84003  20.594  14.204  11.545
22341W        W84004  18.610   0.866   4.661
22342W        W84005  24.532  13.111   4.240
22343W        W84006   8.777  44.277   4.329
22344W        W84007  10.823  24.050   2.838
22345W        W84008  40.490  13.342   1.745
22346W        W84009   9.856  38.897  11.384
22347W        W84010  28.597   2.902  14.813
22348W        W84011  41.788   3.891   4.837
22349W        W84012  41.522  12.654   0.816
22350W        W84013   9.184  30.979   0.364
22351W        W84014  34.460   6.216  10.945
22352W        W84015  32.435  42.804  11.910
22353W        W84016  33.087  35.376  13.868
22354W        W84017   6.209  41.363   3.154
22355W        W84018  16.086  42.955  13.466
22356W        W84019  27.473  42.418   0.392
22357W        W84020  15.789  40.978  11.891
22358W        W84021  30.627  40.979  14.373
22359W        W84022  12.119  20.227   4.258
22360W        W84023   5.294  32.536  11.057
22361W        W84024  36.933   5.831   1.398
22362W        W84025  11.810  23.135   0.859
22363W        W84026  13.821  12.796  12.897
22364W        W84027  33.978  25.518   1.825
22365W        W84028  16.572   9.827   3.204
22366W        W84029  42.392  22.593  14.997
22367W        W84030  41.376  11.307   2.838
22368W        W84031  27.552  42.519   4.252
22369W        W84032  43.986   1.314   0.310
22370W        W84033  14.673  31.072  13.309
22371W        W84034  28.515   5.906   0.286
22372W        W84035  35.386  31.965   5.262
22373W        W84036  12.666  16.136   2.853
22374W        W84037   2.335  26.976  13.967
22375W        W84038   8.836  23.640   1.424
22376W        W84039  13.710  22.242   1.761
22377W        W84040  10.299   2.301  13.427
22378W        W84041  11.128  18.142   2.384
22379W        W84042  36.980  20.158  10.616
22380W        W84043  35.414   7.682  12.464
22381W        W84044  18.732   3.712   0.444
22382W        W84045  37.535   2.279  11.045
22383W        W84046  25.678   3.312  12.394
22384W        W84047  30.531  12.666  12.385
22385W        W84048   5.794  35.452   3.799
22386W        W84049  13.182  14.745   4.286
22387W        W84050  20.710   8.787   3.300
22388W        W84051  19.043  33.900   2.316
22389W        W84052   4.779  30.123   1.430
22390W        W84053   2.870  24.986  10.571
22391W        W84054  26.080   5.385   2.337
22392W        W84055  20.723  34.475  14.833
22393W        W84056  23.655  10.304  14.801
22394W        W84057  25.030  13.319  13.844
22395W        W84058  23.192  18.185   1.256
22396W        W84059  22.068  39.399   1.861
22397W        W84060  14.647  27.149  14.016
22398W        W84061  29.640  18.559  14.863
22399W        W84062  32.530  22.235  11.063
22400W        W84063  19.047  40.969   4.127
22401W        W84064   2.909  24.080   2.662
22402W        W84065  37.527  24.072   5.113
22403W        W84066  31.935  27.163  13.962
22404W        W84067   6.910  24.685  12.834
22405W        W84068   5.871  39.496  10.631
22406W        W84069  20.223  30.033   1.771
22407W        W84070  12.160   7.680   1.848
22408W        W84071   3.813  33.010   0.895
22409W        W84072  30.632  24.603  11.991
22410W        W84073   4.382  26.581   4.709
22411W        W84074   3.227   9.318  10.951
22412W        W84075  23.727   1.821  13.323
22413W        W84076  11.738  19.665  10.044
22414W        W84077   9.227   7.676   3.210
22415W        W84078  15.781  25.116  11.054
22416W        W84079  16.788  22.088   0.909
22417W        W84080  27.452  32.071  14.011
22418W        W84081   1.774  17.780  10.421
22419W        W84082   6.242   8.840   3.800
22420W        W84083  22.085  15.805   1.220
22421W        W84084   9.169  34.872   0.745
22422W        W84085  26.600   8.705  13.516
22423W        W84086   4.878  44.965  12.966
22424W        W84087  39.964   4.800  10.457
22425W        W84088  19.186  42.956   4.678
22426W        W84089   3.841  11.327   4.153
22427W        W84090  14.705  35.370  12.400
22428W        W84091  28.048   9.186   4.772
22429W        W84092  11.184  35.482   4.709
22430W        W84093  37.508  14.634   3.820
22431W        W84094  28.032  21.121   5.195
22432W        W84095  35.604  35.859   2.213
22433W        W84096  22.194   0.828   0.907
22434W        W84097  39.496  21.118  10.114
22435W        W84098   0.435   8.165   1.849
22436W        W84099  16.735  25.137  14.822
22437W        W84100  28.128  27.997  13.013
22438W        W84101  43.994  39.903   2.284
22439W        W84102   7.865  41.865  10.565
22440W        W84103  18.206  33.896  14.833
22441W        W84104  37.982  20.630  14.512
22442W        W84105  33.410  18.686   1.249
22443W        W84106  11.840  40.896  14.454
22444W        W84107  28.934   2.874   2.208
22445W        W84108  18.208  34.379   1.796
22446W        W84109  37.921  42.873  12.092
22447W        W84110  31.593  36.408  10.454
22448W        W84111  30.633  30.435   4.251
22449W        W84112  20.038  10.693   3.788
22450W        W84113  35.096  41.371   3.815
22451W        W84114  11.724  33.978   4.629
22452W        W84115   3.225  31.010  13.525
22453W        W84116  10.652  25.024   2.369
22454W        W84117  24.167  19.665  10.413
22455W        W84118  44.909  32.468  11.089
22456W        W84119  34.388  36.491   3.642
22457W        W84120  29.069  13.156  13.997
22458W        W84121   7.174  27.085   3.231
22459W        W84122   8.174   4.448  12.417
22460W        W84123  13.742  35.976   5.784
22461W        W84124  39.490  43.826   1.808
22462W        W84125  14.603  34.430   1.337
22463W        W84126  31.637   1.367  14.979
22464W        W84127  24.602  13.345   1.920
22465W        W84128  21.206  29.065  14.296
22466W        W84129  36.065  11.779  10.544
22467W        W84130  21.715  37.066  12.866
22468W        W84131  10.776  21.557  12.577
22469W        W84132  29.075  40.856   2.725
22470W        W84133  41.968   5.830  12.562
22471W        W84134   0.883  32.598   3.286
22472W        W84135  20.150  29.480   5.156
22473W        W84136  10.320  38.503  14.948
22474W        W84137  32.586  14.759  10.412
22475W        W84138  11.709   1.880   3.691
22476W        W84139  42.492   4.931   2.244
22477W        W84140  27.958  32.014   3.325
22478W        W84141   7.835   9.692  11.560
22479W        W84142  41.494  29.090  12.068
22480W        W84143  35.580  32.587   1.416
22481W        W84144  21.713  38.524   1.897
22482W        W84145  31.475   9.686   0.751
22483W        W84146  18.714  10.863   1.327
22484W        W84147  23.727  20.269  11.489
22485W        W84148  24.054  21.070   3.824
22486W        W84149  28.535  11.270  10.919
22487W        W84150  34.533  12.687  13.411
22488W        W84151  17.065  25.205  13.982
22489W        W84152  32.604  19.263  12.899
22490W        W84153  15.219  30.517  11.475
22491W        W84154  30.529  28.983  13.347
22492W        W84155   5.363  12.775  10.457
22493W        W84156  30.012  28.039  11.999
22494W        W84157   4.707  18.057   4.259
22495W        W84158  15.628  24.481  12.943
22496W        W84159  17.106  35.458   2.354
22497W        W84160   1.325  39.978  10.472
22498W        W84161  31.030  21.090   2.701
22499W        W84162  10.654   0.410   3.263
22500W        W84163  36.009  16.805  13.042
22501W        W84164  38.941  29.021   0.921
22502W        W84165   2.897  35.594   0.933
22503W        W84166  25.083   1.315   0.750
22504W        W84167  14.733  41.945  12.905
22505W        W84168  44.482   2.967   5.229
22506W        W84169   9.849   3.734   2.241
22507W        W84170  24.203  23.092   2.397
22508W        W84171  12.617  29.037  14.775
22509W        W84172  29.940  21.199  14.290
22510W        W84173  11.201  22.560  12.012
22511W        W84174  17.589   4.311  11.572
22512W        W84175  13.254  40.833  14.028
22513W        W84176   1.841  39.488   3.177
22514W        W84177  42.908  19.091  12.901
22515W        W84178   6.900   5.847   0.428
22516W        W84179  22.999   9.380   0.392
22517W        W84180   1.916  18.066  12.823
22518W        W84181  32.433  36.060  14.277
22519W        W84182  25.556  29.108  14.010
22520W        W84183  38.363  33.547  11.572
22521W        W84184   1.420  16.156  13.802
22522W        W84185  43.961  27.605   1.218
22523W        W84186   0.942  24.041   4.616
22524W        W84187  10.261   0.836   2.758
22525W        W84188   4.743  13.208   4.132
22526W        W84189  22.009  13.269  11.393
22527W        W84190  43.427  35.016   4.274
22528W        W84191  42.803  24.148  11.908
22529W        W84192  16.790  18.595  12.511
22530W        W84193  15.318  33.040   0.292
22531W        W84194   2.955  14.749   0.834
22532W        W84195  23.617   3.362   2.706
22533W        W84196   3.405  40.019  14.802
22534W        W84197  36.359   4.876   2.673
22535W        W84198  42.795  38.391   3.659
22536W        W84199  10.202  23.112   4.315
22537W        W84200  26.098  32.531   2.300
22538W        W84201  10.845  35.967   3.198
22539W        W84202  20.059   3.739  12.050
22540W        W84203  32.572  29.511   3.680
22541W        W84204  31.634   8.258  11.029
22542W        W84205   1.344  31.055   1.442
22543W        W84206  23.648  42.794  11.870
22544W        W84207  32.523  40.312   1.370
22545W        W84208  20.690  40.485  11.918
22546W        W84209  22.186   8.208  10.459
22547W        W84210  28.448   6.803  14.910
22548W        W84211  12.186  22.028  12.983
22549W        W84212   0.270  34.072  11.521
22550W        W84213   2.924   2.408   4.751
22551W        W84214  32.137  28.101   4.611
22552W        W84215  20.642  23.028   2.302
22553W        W84216  30.068   1.396   3.345
22554W        W84217   6.227  38.424   3.855
22555W        W84218  41.882  10.324   1.409
22556W        W84219  22.072  13.309   2.339
22557W        W84220  32.016  32.516   3.676
22558W        W84221  36.559  29.071  14.470
22559W        W84222  42.830  30.102  11.046
22560W        W84223  11.256   9.837   0.953
22561W        W84224   0.815  27.677   2.871
22562W        W84225  30.451  40.960   2.297
22563W        W84226  35.558  25.209  11.418
22564W        W84227  19.548  31.948   0.900
22565W        W84228  26.671  41.882  10.465
22566W        W84229   9.361  18.206  10.048
22567W        W84230  22.189  39.322  13.899
22568W        W84231  28.587  19.111  10.624
22569W        W84232  17.072  39.525   3.180
22570W        W84233   8.369  24.688   4.307
22571W        W84234  13.625  19.092  11.517
22572W        W84235  25.185  27.474  10.452
22573W        W84236   7.246  16.767   3.175
22574W        W84237  31.429  15.166  13.533
22575W        W84238  44.903  27.156   0.428
22576W        W84239  33.985  24.646  12.963
22577W        W84240  31.082  38.547  10.511
22578W        W84241  21.648  15.772  11.016
22579W        W84242  41.482   4.849   3.197
22580W        W84243  36.485  12.686  12.470
22581W        W84244  43.805  18.289   0.730
22582W        W84245  39.936  16.756  10.500
22583W        W84246  16.155  28.033  14.993
22584W        W84247  19.698   2.748  11.539
22585W        W84248  16.729  22.731   1.394
22586W        W84249  25.598  28.158   1.815
22587W        W84250   0.412  38.976   3.709
22588W        W84251   0.963  21.728  13.369
22589W        W84252   7.867   9.876   3.321
22590W        W84253  15.309  30.037  11.421
22591W        W84254  22.744  31.002  14.020
22592W        W84255  18.750   2.858   2.249
22593W        W84256   3.307  29.124   3.354
22594W        W84257  18.264   5.726   0.458
22595W        W84258   1.972  33.458   2.839
22596W        W84259  21.559  28.562  14.292
22597W        W84260  15.623  14.766   3.685
22598W        W84261  14.316  40.920   2.806
22599W        W84262  25.995  24.202   4.605
22600W        W84263  31.504  37.485   3.684
22601W        W84264  39.359  33.548   0.386
22602W        W84265  21.570  22.107   3.260
22603W        W84266  42.350   9.717   3.170
22604W        W84267  15.302  18.199   4.298
22605W        W84268  29.472  35.855  14.806
22606W        W84269   9.665   8.394   1.701
22607W        W84270   4.699  14.645  13.461
22608W        W84271  10.217  44.458   2.900
22609W        W84272  36.377  10.715   2.751
22610W        W84273  23.650  18.120  14.946
22611W        W84274  10.347  13.834  13.403
22612W        W84275  15.754   5.933   4.750
22613W        W84276  15.108  10.779   2.866
22614W        W84277   0.944  18.227   5.254
22615W        W84278  12.820  42.884   3.382
22616W        W84279  32.044  36.901   2.337
22617W        W84280   8.799  42.307   1.283
22618W        W84281   6.704   5.796  11.025
22619W        W84282  37.558  12.299   2.184
22620W        W84283  34.025  34.084   2.779
22621W        W84284   8.883  28.114   3.837
22622W        W84285  18.702  40.488  13.064
22623W        W84286  29.978   9.379   3.721
22624W        W84287   7.777  30.044  13.357
22625W        W84288  14.242  10.225  10.422
22626W        W84289  35.409   9.692   9.927
22627W        W84290  25.080  18.614   1.819
22628W        W84291   6.770  28.662   3.731
22629W        W84292   1.879  28.950  12.001
22630W        W84293  28.655  30.430  10.935
22631W        W84294  15.242   6.761   0.879
22632W        W84295  29.489  14.166   5.235
22633W        W84296  44.473  18.159   4.341
22634W        W84297   8.671  19.716   0.775
22635W        W84298  24.040  17.658   4.648
22636W        W84299  24.566   5.734  13.466
22637W        W84300  10.691   9.715   2.247
22638W        W84301   4.235  14.167  12.047
22639W        W84302  39.895   1.971   4.295
22640W        W84303   6.270  16.750   4.699
22641W        W84304   5.822  18.780   0.947
22642W        W84305  18.698  32.625  11.908
22643W        W84306   7.744  44.931  12.049
22644W        W84307  27.687  27.115  14.982
22645W        W84308   1.857  12.285   0.376
22646W        W84309  27.013  15.802  13.354
22647W        W84310   4.438   7.723   2.785
22648W        W84311  28.459  30.419   2.295
22649W        W84312  29.593  26.010   0.433
22650W        W84313  15.797  44.439  13.365
22651W        W84314   4.428  35.480   1.332
22652W        W84315  35.385  44.349  14.880
22653W        W84316   0.455   1.463   2.207
22654W        W84317  10.376  14.720  13.477
22655W        W84318  36.083  29.921  14.462
22656W        W84319  35.396  15.708  11.476
22657W        W84320  33.457  37.077   0.836
22658W        W84321   2.279  37.390   1.710
22659W        W84322  16.151  13.750  11.408
22660W        W84323   5.289   1.400  14.301
22661W        W84324   6.880  34.472   3.650
22662W        W84325   1.852  38.048  11.987
22663W        W84326  16.266  34.521   1.753
22664W        W84327   9.331  16.610  12.058
22665W        W84328  29.980  38.524  11.881
22666W        W84329   9.774  36.850  13.531
22667W        W84330  34.612  31.059   4.837
22668W        W84331   1.766  15.247   2.722
22669W        W84332   2.896  33.591   0.307
22670W        W84333  33.899  39.387  12.382
22671W        W84334  23.056  31.951  12.545
22672W        W84335   5.842  35.521   1.292
22673W        W84336   6.251   4.442   4.208
22674W        W84337  17.201  30.095  11.973
22675W        W84338  40.908  43.369   1.285
22676W        W84339  26.185   9.313   0.375
22677W        W84340  37.996  29.123  14.865
22678W        W84341  22.130  18.595  14.843
22679W        W84342   0.796  18.165  14.848
22680W        W84343  16.283   8.375   0.385
22681W        W84344   6.387  17.242  11.554
22682W        W84345  44.471  18.566   2.387
22683W        W84346   1.300  10.772  13.963
22684W        W84347  12.770  16.681   3.212
22685W        W84348  33.899  10.188   1.308
22686W        W84349  35.896  32.890  12.031
22687W        W84350  26.116  18.784  11.505
22688W        W84351  19.044  11.156   1.217
22689W        W84352  17.619   3.931   1.321
22690W        W84353  17.708   6.408  14.506
22691W        W84354   8.806  41.805   4.797
22692W        W84355   7.689  37.034  12.447
22693W        W84356  44.894  11.222  12.050
22694W        W84357   0.476  27.960  11.079
22695W        W84358  11.196  17.088  14.875
22696W        W84359   1.897  16.707  13.463
22697W        W84360  34.474  24.562   2.280
22698W        W84361   3.851   9.751  13.874
22699W        W84362  43.885  36.353  14.417
22700W        W84363   4.941   6.868  10.461
22701W        W84364  12.788  37.058   0.960
22702W        W84365  43.937  26.538  10.078
22703W        W84366  15.244  21.654  12.934
22704W        W84367   3.293  44.413  10.622
22705W        W84368   5.213  42.477  12.463
22706W        W84369  19.573  32.428   3.162
22707W        W84370  43.480   9.791  14.015
22708W        W84371  40.904  28.555   1.746
22709W        W84372  34.967  39.373  14.910
22710W        W84373   5.310   6.264   2.245
22711W        W84374   9.851  31.085  12.540
22712W        W84375  19.234   6.415   3.829
22713W        W84376   1.801  27.110   1.353
22714W        W84377  30.514  23.727   3.869
22715W        W84378   6.677  37.487  13.363
22716W        W84379  21.758   8.236   3.327
22717W        W84380  10.636  32.539  12.854
22718W        W84381  13.190  18.609  14.916
22719W        W84382  16.259  26.975  11.944
22720W        W84383  37.924   9.878  14.851
22721W        W84384  12.630   7.732  12.430
22722W        W84385   7.233  16.804  13.973
22723W        W84386  40.825  34.060   1.855
22724W        W84387  10.778  21.070   0.775
22725W        W84388   6.277  25.025   9.939
22726W        W84389  36.590  22.743   3.676
22727W        W84390  15.087  16.629   2.318
22728W        W84391  38.958  29.164   4.271
22729W        W84392  33.586  38.374  13.365
22730W        W84393  13.323   6.404   4.707
22731W        W84394  43.283  24.716  14.881
22732W        W84395  19.157  32.902   0.801
22733W        W84396  10.232  23.228  12.872
22734W        W84397   2.905  38.934   1.305
22735W        W84398  39.381   3.927   1.333
22736W        W84399  13.819  24.098   3.318
22737W        W84400  31.529  25.559  13.451
22738W        W84401  29.591  41.833   3.752
22739W        W84402  20.037  16.095   4.355
22740W        W84403   0.331   2.798   4.783
22741W        W84404  29.035  22.554   3.695
22742W        W84405  11.707  42.002  11.461
22743W        W84406  11.361  16.665   2.364
22744W        W84407  40.418  32.887   0.473
22745W        W84408  32.134  31.075   2.294
22746W        W84409  25.546   7.706   3.703
22747W        W84410  13.198  20.633  14.905
22748W        W84411  34.573   9.152   9.528
22749W        W84412  34.082  26.987   0.802
22750W        W84413  28.625  28.614   4.691
22751W        W84414  16.245  34.523   2.322
22752W        W84415  25.172   5.258  13.875
22753W        W84416  23.198   7.780   4.809
22754W        W84417  19.635  34.879   0.291
22755W        W84418  42.949  18.648   0.265
22756W        W84419  42.787   2.472  14.337
22757W        W84420  23.142  29.571   1.814
22758W        W84421  12.299  16.136  11.090
22759W        W84422  37.046   3.368  11.595
22760W        W84423  22.653  44.901  13.460
22761W        W84424  26.971   2.265   0.393
22762W        W84425  40.389  44.287  11.417
22763W        W84426  25.615  10.282  11.376
22764W        W84427  33.585  30.618   1.320
22765W        W84428  37.444  26.082   4.632
22766W        W84429  25.095  22.171   9.992
22767W        W84430   1.732  26.047   2.416
22768W        W84431  34.955  16.202   2.729
22769W        W84432   0.319  13.733  10.580
22770W        W84433   2.917  21.542   1.906
22771W        W84434   1.362  38.029   3.206
22772W        W84435  22.050  43.823   3.314
22773W        W84436  41.321  10.779   2.374
22774W        W84437  20.052  24.647  14.305
22775W        W84438   5.906  11.141   4.683
22776W        W84439  34.428  25.474   3.239
22777W        W84440   2.913  31.942  13.871
22778W        W84441   7.712  20.070  13.880
22779W        W84442  35.542  43.938   4.182
22780W        W84443   0.289  16.073  12.458
22781W        W84444  30.535  19.597   4.321
22782W        W84445   8.673   4.739   4.659
22783W        W84446   5.689  43.827   2.416
22784W        W84447  32.573  28.157  12.447
22785W        W84448  16.619  34.606  10.503
22786W        W84449  27.645  42.316  13.328
22787W        W84450  22.123  29.053  11.077
22788W        W84451  39.326   9.797  11.388
22789W        W84452   3.338  32.618   0.789
22790W        W84453   0.843  36.522   1.287
22791W        W84454  41.377  31.945   0.786
22792W        W84455  30.943  26.955  13.958
22793W        W84456  16.189  16.668  14.439
22794W        W84457  33.408  27.611   3.838
22795W        W84458   6.421  35.986  14.848
22796W        W84459  38.063  33.976   4.168
22797W        W84460   0.968  36.402  14.446
22798W        W84461  42.382  29.433  10.467
22799W        W84462  10.354  24.059   2.670
22800W        W84463  33.002  43.967  12.964
22801W        W84464  21.609   5.792   3.379
22802W        W84465   4.416  20.606  12.485
22803W        W84466  15.797  20.219  14.377
22804W        W84467   1.324  31.440   3.374
22805W        W84468   5.782   7.862   1.889
22806W        W84469  37.055  36.880  13.832
22807W        W84470  43.832  43.851   3.645
22808W        W84471   9.677  17.713   1.322
22809W        W84472  21.634   0.441   0.480
22810W        W84473   5.786  21.686  10.610
22811W        W84474  37.382  12.640   3.310
22812W        W84475  31.402  18.570   2.197
22813W        W84476  11.786  28.509   3.283
22814W        W84477  35.526  19.221   4.251
22815W        W84478  29.428  35.556  12.996
22816W        W84479  18.700  12.335   1.799
22817W        W84480  39.881   8.255  14.845
22818W        W84481  21.595  22.074   1.724
22819W        W84482  26.682  16.283   0.729
22820W        W84483  14.610  27.098   1.259
22821W        W84484  17.154  23.690  10.619
22822W        W84485   5.439  40.935  13.446
22823W        W84486  20.734  22.546  10.940
22824W        W84487  13.135  15.609   1.842
22825W        W84488  41.958  21.019   1.930
22826W        W84489  27.497  38.972  11.973
22827W        W84490  34.020   6.315   3.801
22828W        W84491  30.583   9.358  14.288
22829W        W84492  32.530  24.206   3.174
22830W        W84493  17.232   8.234   1.388
22831W        W84494  39.898  16.150   4.734
22832W        W84495  36.971  38.842  13.855
22833W        W84496  24.046  17.108   2.336
22834W        W84497  38.955   6.379  13.830
22835W        W84498  21.129  43.924   4.670
22836W        W84499  23.987   4.324   0.780
22837W        W84500  37.088  29.026  12.481
22838W        W84501   0.287  14.757   5.711
22839W        W84502   1.293   6.790   4.173
22840W        W84503   2.724  42.291   1.858
22841W        W84504  27.630  34.462  12.088
22842W        W84505   9.198   7.882  13.842
22843W        W84506  15.296  18.241  11.386
22844W        W84507  31.038   2.340  12.353
22845W        W84508  33.063   5.705  13.812
22846W        W84509  26.508  20.549  11.030
22847W        W84510  41.438  31.532  11.554
22848W        W84511   1.316  26.540   2.232
22849W        W84512  24.715  14.195  12.012
22850W        W84513  27.013  39.533  12.898
22851W        W84514  33.598  15.768   2.903
22852W        W84515  37.835  25.567  12.957
22853W        W84516   8.402   6.184  14.880
22854W        W84517  18.126   3.292  12.411
22855W        W84518  39.416  16.228  12.432
22856W        W84519  16.099   7.782   1.792
22857W        W84520  17.190  38.862  12.414
22858W        W84521   0.275  13.141  12.857
22859W        W84522  10.344  32.629  14.857
22860W        W84523   8.318  12.170   0.304
22861W        W84524   8.809  28.520  10.473
22862W        W84525  37.869  10.692   0.309
22863W        W84526  11.245  30.536   3.308
22864W        W84527  19.246  26.961  12.489
22865W        W84528  19.117   8.688  11.910
22866W        W84529  11.353  39.353  11.434
22867W        W84530  33.607  15.202   1.362
22868W        W84531   5.281  16.285  10.470
22869W        W84532  39.550  43.440  13.544
22870W        W84533  22.073  40.387  13.022
22871W        W84534  26.138  37.973   0.956
22872W        W84535  34.966  31.898  10.517
22873W        W84536  22.240  17.726   4.757
22874W        W84537  15.178  26.020  13.918
22875W        W84538   4.302  40.990   1.246
22876W        W84539  32.023  38.946  13.416
22877W        W84540  13.338   3.820  12.399
22878W        W84541  25.015  10.876   1.418
22879W        W84542   4.389   4.921   2.218
22880W        W84543   5.697   8.797  11.428
22881W        W84544   9.687  30.487  12.425
22882W        W84545   8.697   6.215   1.413
22883W        W84546  14.701  26.052  10.594
22884W        W84547   9.804  15.753  14.310
22885W        W84548  23.114  35.949   2.285
22886W        W84549   7.334  30.066   3.814
22887W        W84550  19.210   0.748  13.472
22888W        W84551  13.169  36.574  14.811
22889W        W84552  24.210  44.268  11.585
22890W        W84553  19.696   3.288   2.792
22891W        W84554   5.245  35.601  11.091
22892W        W84555  34.544  36.488   1.862
22893W        W84556  25.152  31.548  13.901
22894W        W84557  32.937  22.560   3.380
22895W        W84558  43.902  15.298  13.408
22896W        W84559  33.931  31.603  11.381
22897W        W84560  23.585  17.273  14.770
22898W        W84561  17.175  19.240   4.606
22899W        W84562  42.914  12.617  13.334
22900W        W84563  25.008  14.199  10.484
22901W        W84564  18.051  31.095   2.273
22902W        W84565  12.180   9.684  13.816
22903W        W84566   4.360  36.578  10.946
22904W        W84567  30.463  17.595  13.468
22905W        W84568  12.271  14.790   4.242
22906W        W84569  25.988  39.862   0.344
22907W        W84570  26.691  34.112   3.200
22908W        W84571  18.552  29.148   0.372
22909W        W84572  20.111   5.711   3.723
22910W        W84573  39.494   5.213  14.810
22911W        W84574  16.793  15.789  13.816
22912W        W84575   9.369  36.940   4.209
22913W        W84576  18.175  28.937   3.850
22914W        W84577  25.098  25.074  13.861
22915W        W84578  31.957   0.921  10.490
22916W        W84579  26.675  19.684   0.942
22917W        W84580  22.586  21.123  10.512
22918W        W84581   7.318  15.703   3.239
22919W        W84582  23.025  31.627  10.450
22920W        W84583  18.768   6.911   1.882
22921W        W84584  25.043  25.703   1.349
22922W        W84585  17.664  19.645   4.606
22923W        W84586   5.368  10.242  14.778
22924W        W84587  40.490  20.613   1.337
22925W        W84588  29.442  18.645   4.745
22926W        W84589  29.664  22.745  10.072
22927W        W84590  44.867  23.695   3.330
22928W        W84591  26.663  24.988  13.886
22929W        W84592  28.047  36.863  14.926
22930W        W84593   4.808   4.346   0.266
22931W        W84594  30.532  12.300   0.365
22932W        W84595  39.417  38.869   1.859
22933W        W84596  38.467  31.996  14.396
22934W        W84597  40.007  19.040   4.180
22935W        W84598  13.613  21.220  13.330
22936W        W84599  15.686  24.204   0.958
22937W        W84600  40.025  26.140  10.420
22938W        W84601  36.848  44.484  11.975
22939W        W84602   0.800  13.167   2.845
22940W        W84603   6.266  33.477   0.859
22941W        W84604  12.161  22.731   2.342
22942W        W84605  36.070  26.177  10.991
22943W        W84606  24.604   6.841   1.879
22944W        W84607  38.949  41.804  13.056
22945W        W84608  30.533  16.692   0.427
22946W        W84609  34.115   2.245  14.960
22947W        W84610  30.626   3.378   4.731
22948W        W84611  30.006  33.434   0.754
22949W        W84612  33.874  39.500   4.653
22950W        W84613   5.880   9.647   4.312
22951W        W84614  25.168  39.040  14.031
22952W        W84615   7.732  31.448  12.376
22953W        W84616  32.930  32.432   4.268
22954W        W84617  22.549  24.110   1.771
22955W        W84618   2.755  27.049  12.552
22956W        W84619  27.103   5.694   4.729
22957W        W84620  14.180  18.059   4.151
22958W        W84621  18.280   6.753  12.339
22959W        W84622  27.178  13.770  11.018
22960W        W84623  23.051  11.758  11.434
22961W        W84624  34.928  44.474   0.813
22962W        W84625  17.261  43.899  11.059
22963W        W84626   2.923  29.929   3.859
22964W        W84627  44.341  31.440  10.446
22965W        W84628  11.199  34.061   3.786
22966W        W84629  26.208   8.767   0.751
22967W        W84630  43.403  16.074  12.453
22968W        W84631  17.639   2.883   2.893
22969W        W84632  21.122   3.940  13.346
22970W        W84633  24.643  21.567  10.524
22971W        W84634  14.105  28.597   4.154
22972W        W84635  28.122  37.485  14.944
22973W        W84636  42.417  31.553  12.966
22974W        W84637  27.980  20.551   9.937
22975W        W84638  28.556   5.728  11.406
22976W        W84639  17.116  24.051   0.348
22977W        W84640  33.420  18.223   2.400
22978W        W84641  12.297  24.577  14.985
22979W        W84642  36.931  16.720  14.368
22980W        W84643  22.572  10.162  12.448
22981W        W84644  23.538   5.864  11.419
22982W        W84645   8.875   4.851  13.954
22983W        W84646  30.982  24.537  14.805
22984W        W84647  33.504  12.723  10.575
22985W        W84648   1.423  11.813   3.658
22986W        W84649  19.055  23.101  12.539
22987W        W84650  27.056  24.627  11.940
22988W        W84651  26.192  42.793   1.294
22989W        W84652  42.397   2.449  14.403
22990W        W84653  34.111  37.384   2.860
22991W        W84654  10.224   1.792  11.037
22992W        W84655  35.882  23.208  11.548
22993W        W84656  29.978  26.164  13.793
22994W        W84657  23.148   2.906  11.896
22995W        W84658  40.813  30.473   0.952
22996W        W84659   3.843  43.393  11.377
22997W        W84660  38.901  40.898   1.246
22998W        W84661  33.132   4.809   2.395
22999W        W84662  10.855  18.655   0.280
23000W        W84663   1.881  29.957  13.446
23001W        W84664  10.217  35.579   4.200
23002W        W84665   7.330   8.661  11.547
23003W        W84666  19.659  24.213  13.925
23004W        W84667  13.727  10.187   0.738
23005W        W84668   3.839  32.400   3.264
23006W        W84669   8.775  12.664  10.056
23007W        W84670   6.745  16.156  13.443
23008W        W84671   9.705  11.286   3.643
23009W        W84672   7.767  23.042   1.406
23010W        W84673   5.290  31.084   3.275
23011W        W84674  33.989   6.909   1.925
23012W        W84675   2.325  20.069  11.378
23013W        W84676  28.491  16.706  11.044
23014W        W84677   0.902  19.741  10.541
23015W        W84678  41.397  32.032  14.980
23016W        W84679  19.580  29.122   1.291
23017W        W84680  12.781   0.877   2.272
23018W        W84681  29.959  15.181   0.867
23019W        W84682  33.013  34.887  12.966
23020W        W84683   7.850   8.371  13.923
23021W        W84684  19.113  44.791   1.430
23022W        W84685   8.198  43.973   3.263
23023W        W84686  35.411  29.436  11.570
23024W        W84687  28.570  43.911   0.888
23025W        W84688  10.202   6.391   5.757
23026W        W84689  17.577  39.868   1.245
23027W        W84690  35.459  28.038  11.009
23028W        W84691  41.368   8.755   2.793
23029W        W84692  18.065  23.110   2.709
23030W        W84693  42.022  36.503   2.827
23031W        W84694   2.319  21.122   1.302
23032W        W84695  40.893   8.352  13.968
23033W        W84696  11.695  21.136  12.974
23034W        W84697  41.826  42.796   1.245
23035W        W84698  25.218   3.810  14.849
23036W        W84699  21.738  43.335   0.774
23037W        W84700  41.011  42.305   4.334
23038W        W84701  13.140  23.528  12.352
23039W        W84702  39.378  11.681  13.819
23040W        W84703  43.320  15.113  14.950
23041W        W84704  31.474  23.541   9.998
23042W        W84705  26.204  39.937  13.462
23043W        W84706  11.178  20.741  12.035
23044W        W84707  21.567   5.928   2.244
23045W        W84708  42.934   8.694  12.431
23046W        W84709  20.126  42.503  13.393
23047W        W84710  39.366  40.015  12.495
23048W        W84711  30.644   7.258   1.402
23049W        W84712   3.951   0.280  13.501
23050W        W84713  26.563  24.626   1.292
23051W        W84714   6.777  36.518   2.273
23052W        W84715   6.339  44.874   3.721
23053W        W84716  11.283  42.362  12.025
23054W        W84717  41.954   2.405  11.088
23055W        W84718  25.989  11.698  11.443
23056W        W84719  18.136  12.782  14.898
23057W        W84720   3.840  22.744   1.415
23058W        W84721   7.794  37.479  13.355
23059W        W84722  11.701  23.103  11.433
23060W        W84723  18.768  39.875  12.393
23061W        W84724  17.171  41.883   1.918
23062W        W84725  44.961   9.697  11.115
23063W        W84726  30.025  17.727  14.411
23064W        W84727  31.967  41.920  10.983
23065W        W84728  44.921  24.584   2.392
23066W        W84729   9.812  37.374  10.483
23067W        W84730  14.151   7.206  12.364
23068W        W84731  13.214  22.514   2.836
23069W        W84732   0.891   6.256  13.341
23070W        W84733   6.279  31.900   4.819
23071W        W84734   2.427  30.119  14.799
23072W        W84735  14.330  11.723   2.725
23073W        W84736  19.228   5.894  14.312
23074W        W84737  44.885  15.673   4.287
23075W        W84738  27.038   8.781   3.666
23076W        W84739  25.032  34.057  11.402
23077W        W84740  20.713  31.422   4.783
23078W        W84741  30.081  32.466   4.233
23079W        W84742  35.439  23.040  14.489
23080W        W84743  20.622  27.588   1.365
23081W        W84744  40.989  17.142   3.813
23082W        W84745  37.536  28.675  10.980
23083W        W84746   1.449  16.659  10.451
23084W        W84747   7.279   0.843  11.109
23085W        W84748   0.835  18.781  12.053
23086W        W84749  33.944   4.825   1.405
23087W        W84750  37.482  10.137  10.523
23088W        W84751  21.516  41.803  12.032
23089W        W84752   1.759  28.570  13.322
23090W        W84753  37.079   6.196   5.098
23091W        W84754  42.523  11.261   5.313
23092W        W84755  23.097  31.993   9.956
23093W        W84756   9.656  30.489   1.247
23094W        W84757  11.321  19.535   0.801
23095W        W84758  36.448  19.534  11.856
23096W        W84759  44.992  43.973  11.948
23097W        W84760  16.635  42.941  13.894
23098W        W84761  42.009   1.416   4.821
23099W        W84762   9.861  40.998   1.771
23100W        W84763  43.428  41.997  11.434
23101W        W84764  28.607  20.598  12.958
23102W        W84765  20.601   1.734  11.546
23103W        W84766  16.201  28.146  12.836
23104W        W84767  20.261  14.611   2.873
23105W        W84768   1.909   3.827  10.474
23106W        W84769  17.147  37.363  10.574
23107W        W84770   6.911  41.370  13.414
23108W        W84771  18.180  36.906  11.016
23109W        W84772  32.120  11.359   3.146
23110W        W84773  36.569  39.027   5.217
23111W        W84774   1.932  24.676   1.810
23112W        W84775  44.850  35.469  14.387
23113W        W84776  36.524   7.890   0.291
23114W        W84777  22.192  29.094   1.417
23115W        W84778  19.625   0.270  11.914
23116W        W84779  14.218  24.570  14.350
23117W        W84780  40.411   3.420  10.406
23118W        W84781  37.502  18.153  13.392
23119W        W84782  37.061  20.528   3.715
23120W        W84783   5.826  23.566   0.473
23121W        W84784  39.355  26.500  11.387
23122W        W84785  38.376  23.539  14.883
23123W        W84786  32.489  13.269  11.522
23124W        W84787  21.204   6.284   1.787
23125W        W84788  25.536  17.156   2.353
23126W        W84789  42.924   4.868   2.238
23127W        W84790  33.068  23.554   1.211
23128W        W84791   6.216  33.120  11.533
23129W        W84792   8.765  44.772  12.551
23130W        W84793  15.164  19.579  10.418
23131W        W84794  11.177  25.572   2.222
23132W        W84795  31.013  23.119   2.736
23133W        W84796   0.814  15.188  12.940
23134W        W84797   6.205  30.429  10.471
23135W        W84798  37.534   8.891  10.478
23136W        W84799  44.844  15.116   2.757
23137W        W84800  21.619   8.214   0.374
23138W        W84801  40.851  28.052  10.955
23139W        W84802  15.208   6.850   1.408
23140W        W84803   2.812  16.180  10.441
23141W        W84804   9.664  28.543   0.291
23142W        W84805  32.901  33.936   3.736
23143W        W84806   3.272  11.730  12.827
23144W        W84807  30.065  18.209   4.723
23145W        W84808  12.317  31.516   0.477
23146W        W84809  37.447  35.397  11.058
23147W        W84810   8.383  39.554  12.832
23148W        W84811   5.276  42.288  13.056
23149W        W84812  22.560   5.713   0.761
23150W        W84813   7.344  34.606   4.180
23151W        W84814  38.508  17.228   2.278
23152W        W84815  12.632   7.692   2.853
23153W        W84816  27.508   1.291  14.884
23154W        W84817  24.570  36.968  14.345
23155W        W84818  20.605  34.493  11.970
23156W        W84819  23.097  14.186  12.458
23157W        W84820  16.697  42.994  14.988
23158W        W84821  24.033  16.622  10.998
23159W        W84822   7.777  31.018   3.863
23160W        W84823  32.995  36.386  12.880
23161W        W84824  12.292  12.360  12.489
23162W        W84825  25.482   4.279  14.029
23163W        W84826  24.490  13.162  12.530
23164W        W84827  33.131  31.630  14.346
23165W        W84828  10.346   5.270   3.711
23166W        W84829  22.533  11.290  11.098
23167W        W84830  23.671  29.476   1.302
23168W        W84831  25.689  14.724   2.700
23169W        W84832   7.675   7.893   1.226
23170W        W84833   7.777  43.787   3.774
23171W        W84834  22.215  36.069   2.769
23172W        W84835  21.131  36.436  12.371
23173W        W84836  25.617  42.020   1.340
23174W        W84837  44.006   9.852  13.004
23175W        W84838  12.856  41.836  12.971
23176W        W84839  11.205   7.840   2.778
23177W        W84840  33.424  33.420  14.464
23178W        W84841  11.742  22.717   2.397
23179W        W84842  37.074  18.615   3.339
23180W        W84843  21.071   4.930   0.348
23181W        W84844  44.992   6.264  11.878
23182W        W84845  35.887  10.337   5.291
23183W        W84846  20.260  33.478   1.740
23184W        W84847  30.586  21.730   3.857
23185W        W84848  41.915   3.382   3.309
23186W        W84849  38.452  21.640  12.910
23187W        W84850  44.869  25.097   0.762
23188W        W84851  29.654  28.434   1.282
23189W        W84852  19.189  37.498  12.932
23190W        W84853  10.344  12.344  10.438
23191W        W84854  22.668  25.596  13.994
23192W        W84855  40.495  33.567  11.039
23193W        W84856  33.905  15.618  14.414
23194W        W84857  13.832  44.971  11.595
23195W        W84858  10.328  27.512  14.856
23196W        W84859  39.396   0.798   4.158
23197W        W84860  34.553  18.752   4.174
23198W        W84861  40.802  44.374   2.705
23199W        W84862  11.365  38.381   3.747
23200W        W84863   6.721  15.281   1.284
23201W        W84864  36.934   0.325  14.492
23202W        W84865  17.620  37.901  10.060
23203W        W84866  26.680  12.623   1.798
23204W        W84867  39.430   2.415  13.431
23205W        W84868   9.318  30.068  12.026
23206W        W84869  29.035  30.099  14.516
23207W        W84870   1.465  25.968   4.822
23208W        W84871  26.470  22.523  13.440
23209W        W84872  36.955  32.007   3.768
23210W        W84873  23.646  40.436   3.248
23211W        W84874   7.267  29.020  12.073
23212W        W84875  32.950  27.540  11.936
23213W        W84876  28.505  29.427  14.453
23214W        W84877   0.269   1.882   3.713
23215W        W84878  34.400  32.607  12.891
23216W        W84879  29.946  15.264  11.905
23217W        W84880   7.678  24.658   2.248
23218W        W84881  28.124  34.094   1.753
23219W        W84882   8.354  12.641   4.208
23220W        W84883   0.451  38.545  11.080
23221W        W84884  14.713   7.372   4.249
23222W        W84885  42.781  20.133   2.231
23223W        W84886  35.950   0.251   4.779
23224W        W84887   0.417  16.802  10.426
23225W        W84888  40.422  41.528  13.425
23226W        W84889  31.580  39.400   1.389
23227W        W84890  12.178  38.058   4.233
23228W        W84891   3.767  34.583   1.866
23229W        W84892  26.983  19.553  14.826
23230W        W84893   4.938  35.512  13.884
23231W        W84894  29.927  20.575  11.111
23232W        W84895  13.833  36.068   2.874
23233W        W84896  15.220  36.897   3.769
23234W        W84897  37.406  30.501  14.371
23235W        W84898  43.968  37.039  12.469
23236W        W84899  15.325   6.291  14.845
23237W        W84900   7.737   0.302  13.897
23238W        W84901  38.048  20.032  12.401
23239W        W84902  17.706  10.770  14.310
23240W        W84903  17.172   4.781   2.363
23241W        W84904  27.616   7.369   4.705
23242W        W84905   4.268   8.266  12.891
23243W        W84906  28.186  43.985  14.970
23244W        W84907  34.573  13.656  10.917
23245W        W84908   9.320  44.468  14.317
23246W        W84909   7.203  30.034  12.975
23247W        W84910   9.735   0.262  10.517
23248W        W84911  27.153   2.383  10.494
23249W        W84912  14.226  38.460   4.726
23250W        W84913  23.084  28.170   2.322
23251W        W84914  18.623  27.039  10.892
23252W        W84915  25.193  29.092   4.218
23253W        W84916   3.289   0.743  12.076
23254W        W84917  36.582   4.812   1.420
23255W        W84918  37.492   6.758   1.714
23256W        W84919  23.616  18.065   1.881
23257W        W84920  19.534  42.410   1.921
23258W        W84921   2.726   5.371  12.531
23259W        W84922  24.163   6.826  12.376
23260W        W84923   4.320   9.775   4.634
23261W        W84924  43.345  28.037   9.966
23262W        W84925   3.250  31.953  14.920
23263W        W84926   8.318  19.550   1.916
23264W        W84927  44.853   2.845  13.431
23265W        W84928  43.273  28.666   2.748
23266W        W84929  21.182  34.069  13.951
23267W        W84930  25.686  34.970  12.015
23268W        W84931  23.018  35.436   0.274
23269W        W84932   0.969  20.236   2.375
23270W        W84933  22.629  27.453  14.829
23271W        W84934  40.906   3.376  12.906
23272W        W84935  14.618  15.133  11.037
23273W        W84936  24.187  10.222  14.430
23274W        W84937  40.441   8.742   0.788
23275W        W84938   7.823  14.818  13.871
23276W        W84939  20.542  40.327   0.872
23277W        W84940  12.830  25.588  12.013
23278W        W84941  22.166  38.935   1.423
23279W        W84942  10.801  29.118  11.501
23280W        W84943  37.978  31.548   2.898
23281W        W84944  36.389  30.541   1.705
23282W        W84945  39.813  34.047  14.410
23283W        W84946  32.549  36.054   1.254
23284W        W84947  11.637  24.696   1.888
23285W        W84948   9.163   3.887  11.501
23286W        W84949  15.723  43.944   3.331
23287W        W84950  15.748  23.049   2.331
23288W        W84951   9.307  38.830   2.335
23289W        W84952  24.545  42.803   2.379
23290W        W84953  31.621   0.282   4.710
23291W        W84954  43.929   2.468  10.923
23292W        W84955  42.817   1.964   2.321
23293W        W84956  25.491  36.481   0.755
23294W        W84957   6.369  29.616  14.948
23295W        W84958  21.665  13.183   1.438
23296W        W84959  44.952  21.257  11.898
23297W        W84960  28.473  31.147   2.824
23298W        W84961  16.301  21.691   3.353
23299W        W84962  36.939  25.204  11.016
23300W        W84963  22.118  23.588  12.411
23301W        W84964  43.281  16.748   5.659
23302W        W84965  29.511  31.557  11.496
23303W        W84966  17.195  44.777   0.842
23304W        W84967  44.502  19.180  12.885
23305W        W84968  25.708  37.346  11.930
23306W        W84969  23.193  44.488  14.464
23307W        W84970  33.010  36.490   4.653
23308W        W84971  37.985  16.183  11.035
23309W        W84972  11.269  31.081  14.916
23310W        W84973   8.730  41.412  13.808
23311W        W84974   4.418  17.737  14.801
23312W        W84975  41.316  21.122  12.350
23313W        W84976  29.585  35.095  11.410
23314W        W84977  39.863   7.764   3.248
23315W        W84978  15.287  21.655   2.788
23316W        W84979  13.791  35.572  10.487
23317W        W84980  31.497  41.463   1.365
23318W        W84981   0.445  33.591   4.268
23319W        W84982   3.773  35.423  11.906
23320W        W84983  33.969  16.113   2.877
23321W        W84984  12.672  21.713   0.739
23322W        W84985  33.001   7.370   0.464
23323W        W84986   7.734  21.755   2.183
23324W        W84987   3.263  21.588   3.239
23325W        W84988  21.160   1.909   1.281
23326W        W84989   4.835  35.904  11.947
23327W        W84990  43.919  13.267   5.684
23328W        W84991  43.318   2.298   2.693
23329W        W84992  39.490   1.892   2.240
23330W        W84993  26.127  36.559   2.344
23331W        W84994  33.902  34.086  14.343
23332W        W84995   2.448  37.925   1.244
23333W        W84996   9.219   3.384  10.626
23334W        W84997  12.729  20.068   1.767
23335W        W84998   8.367  15.760   2.211
23336W        W84999  17.675  40.813   4.274
23337W        W85000  28.612  44.268  13.541
23338W        W85001  34.400   8.842  13.832
23339W        W85002   5.873  10.231   4.138
23340W        W85003  30.649  25.146   0.894
23341W        W85004  42.353  28.001  12.372
23342W        W85005  10.758  40.866   3.384
23343W        W85006   4.406  19.773   0.426
23344W        W85007  10.749   4.913  14.972
23345W        W85008  11.753   4.397   0.441
23346W        W85009   4.253  41.406  10.916
23347W        W85010  14.700  39.477   3.258
23348W        W85011  25.626   3.857   2.346
23349W        W85012  18.173   4.277   3.866
23350W        W85013  15.134  42.456   0.764
23351W        W85014  13.645  27.577  11.374
23352W        W85015  36.500  20.534  12.834
23353W        W85016  12.840  17.071   3.255
23354W        W85017  13.759   6.810   4.761
23355W        W85018   0.324   4.416   0.841
23356W        W85019   6.695   6.871   4.830
23357W        W85020  32.914  19.588  14.361
23358W        W85021  22.563  21.095   4.122
23359W        W85022  20.256  13.792   4.807
23360W        W85023   8.208  39.330   3.859
23361W        W85024  19.161  23.217  12.990
23362W        W85025  17.618  14.813  12.578
23363W        W85026   0.908  12.293   4.164
23364W        W85027  38.998   4.698   3.731
23365W        W85028  22.192  25.561   5.235
23366W        W85029  39.437  22.192  13.956
23367W        W85030  26.534  38.498   2.233
23368W        W85031   7.313  17.236   1.780
23369W        W85032  32.936  18.584  13.847
23370W        W85033  36.933  34.960   1.253
23371W        W85034  41.935  31.601   2.209
23372W        W85035  17.240  40.504   0.434
23373W        W85036  42.416  30.590   1.909
23374W        W85037   6.745   6.735  11.020
23375W        W85038  36.988  16.603   2.679
23376W        W85039   4.312  41.370   2.709
23377W        W85040  23.534   3.348  13.046
23378W        W85041   7.179  22.702  11.446
23379W        W85042  11.195  21.585  14.797
23380W        W85043  19.731  12.726   1.919
23381W        W85044  35.903  26.685  12.578
23382W        W85045  34.915  22.220   4.828
23383W        W85046  29.536  30.455   3.300
23384W        W85047   2.433  28.569   4.599
23385W        W85048  43.867  38.845   4.285
23386W        W85049  30.056  19.596   9.631
23387W        W85050  39.065   2.464   1.355
23388W        W85051  24.069  25.047  12.399
23389W        W85052  19.542  17.633   0.446
23390W        W85053  39.828  22.711  14.476
23391W        W85054  17.211  12.204   0.791
23392W        W85055  18.244  13.158  14.008
23393W        W85056   6.187   6.366   0.311
23394W        W85057  21.203   2.246   4.135
23395W        W85058  37.873  35.401  10.405
23396W        W85059  19.725  31.975   2.892
23397W        W85060   0.444  10.186  10.621
23398W        W85061  11.789  25.109   2.777
23399W        W85062  15.103   5.700  11.390
23400W        W85063  11.752   2.362  11.873
23401W        W85064  32.434  16.806   1.850
23402W        W85065  37.363  15.172  12.843
23403W        W85066  17.686   3.297   0.912
23404W        W85067  28.554  19.118   1.723
23405W        W85068  31.635  19.548  14.950
23406W        W85069  11.349  33.462  14.401
23407W        W85070  29.996  32.054   0.409
23408W        W85071  35.076  39.493  11.892
23409W        W85072  21.100  14.131  11.499
23410W        W85073  30.569   7.786  14.504
23411W        W85074  17.797   9.877  13.925
23412W        W85075  34.972   6.711   4.254
23413W        W85076  25.202  38.872   2.816
23414W        W85077  26.156  18.672  10.421
23415W        W85078  31.464  39.556   0.829
23416W        W85079  38.351  26.126  14.927
23417W        W85080  16.656  23.043   1.419
23418W        W85081  11.677  25.134   1.724
23419W        W85082  16.579  18.693  13.350
23420W        W85083  44.282   9.155  11.917
23421W        W85084  23.172  41.807  13.361
23422W        W85085  13.677  20.605   1.429
23423W        W85086   2.438  15.233   3.708
23424W        W85087  32.593  26.029  12.963
23425W        W85088  38.060  37.059  11.885
23426W        W85089  34.118   9.735   3.185
23427W        W85090  22.559  28.107  11.916
23428W        W85091  33.473  20.666  14.283
23429W        W85092  15.275  31.091  14.404
23430W        W85093  24.491  39.997  10.001
23431W        W85094  42.938  34.428   0.792
23432W        W85095  18.289   5.304   3.244
23433W        W85096   6.387  33.005   4.299
23434W        W85097  11.151  12.298  13.492
23435W        W85098  39.553   9.295   4.633
23436W        W85099  35.462  25.484   2.283
23437W        W85100   5.690  41.394  14.907
23438W        W85101   9.800  15.640   1.321
23439W        W85102  10.784  30.064   1.884
23440W        W85103  25.508  24.645   0.869
23441W        W85104  42.935  14.184  10.441
23442W        W85105  10.316  19.672  12.477
23443W        W85106  26.613  43.432  13.308
23444W        W85107  42.967  35.856   1.760
23445W        W85108   5.740   1.242   4.743
23446W        W85109  15.729   6.200   3.325
23447W        W85110   8.814  18.626   0.296
23448W        W85111   8.784  33.595   0.954
23449W        W85112   0.387  19.778   1.286
23450W        W85113  17.139  39.956   3.660
23451W        W85114  38.915   0.989   5.321
23452W        W85115   8.357   7.405   0.854
23453W        W85116  35.514  21.146   9.951
23454W        W85117  11.655  13.739   1.330
23455W        W85118   0.753  41.397   2.806
23456W        W85119   7.252   2.440  12.886
23457W        W85120   1.904  39.442  12.459
23458W        W85121  20.070  19.707   4.837
23459W        W85122  13.666   1.466   4.206
23460W        W85123  33.606  27.600  10.550
23461W        W85124  10.785  44.402  13.544
23462W        W85125  20.037  17.238   3.631
23463W        W85126  29.480  25.704   0.856
23464W        W85127  27.025  24.114   1.446
23465W        W85128  42.836   6.334   3.698
23466W        W85129   6.716   5.800   4.729
23467W        W85130  24.997  35.007   2.265
23468W        W85131  39.556  30.605   2.190
23469W        W85132  38.479  25.073  10.534
23470W        W85133  41.300   4.890   2.789
23471W        W85134  17.585  35.893  10.112
23472W        W85135  14.314  38.376  14.816
23473W        W85136   7.226  27.471  12.977
23474W        W85137  30.454  26.066  11.433
23475W        W85138  16.666  36.580   0.414
23476W        W85139   0.980  14.280   3.314
23477W        W85140  23.021  36.491  12.061
23478W        W85141  11.274  33.566   2.223
23479W        W85142  20.557   8.704   2.795
23480W        W85143   1.859   9.889   1.744
23481W        W85144  25.073  27.982   9.986
23482W        W85145  14.668   9.735   0.348
23483W        W85146  32.498  21.251  13.033
23484W        W85147  25.987  16.153   0.948
23485W        W85148  28.986  21.125   0.380
23486W        W85149   2.353  19.664   1.350
23487W        W85150  39.003  41.356   0.385
23488W        W85151   0.393   3.391  10.638
23489W        W85152  18.159   2.448   3.266
23490W        W85153  19.771  38.917   2.242
23491W        W85154  15.143  30.522  14.850
23492W        W85155  29.620   8.876   3.222
23493W        W85156   0.254  20.671  12.066
23494W        W85157  44.317  42.800   5.207
23495W        W85158  29.437  33.606  11.991
23496W        W85159  13.806  19.667  11.987
23497W        W85160   5.246  28.934  12.984
23498W        W85161  25.689  40.852   2.335
23499W        W85162  43.982  10.179   2.690
23500W        W85163  11.243  40.482  12.831
23501W        W85164   8.765  38.366  14.840
23502W        W85165  38.563  17.666  13.871
23503W        W85166  21.026  11.204   0.843
23504W        W85167   7.415  34.099   2.303
23505W        W85168  26.543  42.328   9.592
23506W        W85169  18.265   1.240  12.890
23507W        W85170  34.381  33.099  13.803
23508W        W85171  26.624  20.206  13.991
23509W        W85172  44.009  29.632   0.757
23510W        W85173  26.055  13.111  14.969
23511W        W85174  27.642  40.958  11.878
23512W        W85175  12.199  13.689  13.444
23513W        W85176  40.967  41.791  13.888
23514W        W85177   3.719   5.702  13.015
23515W        W85178  13.716  29.133   3.304
23516W        W85179   7.786   4.825  11.521
23517W        W85180  28.072  28.679  12.429
23518W        W85181  30.084  20.692   5.174
23519W        W85182  42.963  25.570  12.555
23520W        W85183  39.338  15.096   3.187
23521W        W85184  12.690  34.926  14.809
23522W        W85185  17.294   6.807  14.454
23523W        W85186  33.517   2.417  13.501
23524W        W85187  38.495  36.917  11.994
23525W        W85188  22.203  40.999  11.925
23526W        W85189  38.487   6.212  14.988
23527W        W85190  16.076  34.466   1.217
23528W        W85191  24.174  43.432   3.203
23529W        W85192   2.787  10.358   2.245
23530W        W85193  12.653   7.182  10.465
23531W        W85194   5.197   8.308  13.794
23532W        W85195  28.024  16.247   4.148
23533W        W85196   4.772  40.371  11.526
23534W        W85197  18.600  40.900   0.437
23535W        W85198  18.133  18.570  13.490
23536W        W85199  34.107  44.856  12.852
23537W        W85200  23.235  26.101  11.031
23538W        W85201  39.979   5.247  10.552
23539W        W85202  12.163  38.515   0.412
23540W        W85203  29.999  12.751  14.513
23541W        W85204  42.813  22.510  13.478
23542W        W85205   3.787   5.295   4.232
23543W        W85206  24.068  33.490  12.574
23544W        W85207  33.051  27.954   1.739
23545W        W85208  42.294  37.951   3.172
23546W        W85209  28.561  38.035   1.932
23547W        W85210  12.717   0.874  13.539
23548W        W85211  23.704  31.562  13.866
23549W        W85212   4.211  24.988   3.175
23550W        W85213   4.775  33.489  12.406
23551W        W85214  39.975  31.915   0.450
23552W        W85215   9.353  34.441  12.027
23553W        W85216  41.478  36.550   2.877
23554W        W85217  18.265  17.065   2.407
23555W        W85218  41.354  29.983   1.894
23556W        W85219  42.932  44.820   3.792
23557W        W85220  35.016   4.386   4.776
23558W        W85221  23.032  40.033  11.391
23559W        W85222  31.637  10.708   0.919
23560W        W85223   1.955  37.878  10.931
23561W        W85224   9.700  19.618   0.415
23562W        W85225  31.640  31.925   1.785
23563W        W85226  43.842  33.053   3.713
23564W        W85227   9.247  44.309   1.767
23565W        W85228  32.601  15.717   4.133
23566W        W85229   4.858  31.509   1.770
23567W        W85230  37.437  17.116  12.515
23568W        W85231  31.464  20.528  13.984
23569W        W85232   4.923  17.645   3.637
23570W        W85233  21.138   9.874   1.699
23571W        W85234  42.803  42.925  13.426
23572W        W85235   1.827   8.333   3.167
23573W        W85236   6.208  13.684   4.775
23574W        W85237  30.445  43.371   4.154
23575W        W85238  23.190  31.908   2.299
23576W        W85239   5.713  33.125  12.935
23577W        W85240  12.632  43.355  11.517
23578W        W85241  41.007  41.387  13.865
23579W        W85242  33.043  36.946  11.525
23580W        W85243  17.071  27.510  12.862
23581W        W85244   8.853   2.731   1.779
23582W        W85245  19.547  20.085   4.622
23583W        W85246  22.733  44.961  10.127
23584W        W85247  11.185  29.069   1.888
23585W        W85248  43.987  18.705   3.635
23586W        W85249  10.371  27.520   1.702
23587W        W85250  35.919  32.469   4.165
23588W        W85251  39.016   4.849  12.947
23589W        W85252  28.994   7.749  13.020
23590W        W85253  36.579  33.061  13.061
23591W        W85254   0.815  12.124  11.406
23592W        W85255  30.632  41.410  10.628
23593W        W85256  34.050  26.508  11.413
23594W        W85257   8.687  29.938   0.415
23595W        W85258   3.945  11.736   5.257
23596W        W85259  38.928  31.572  14.360
23597W        W85260   9.822  18.286  11.521
23598W        W85261  30.426  12.203  10.615
23599W        W85262  16.685  21.152   0.473
23600W        W85263  25.669  12.747  12.052
23601W        W85264  37.943  27.592   3.275
23602W        W85265  43.982  40.868   0.410
23603W        W85266   4.388  44.753   1.804
23604W        W85267  40.031  22.653  13.333
23605W        W85268   9.356  12.840   2.342
23606W        W85269  34.599  15.150   0.460
23607W        W85270  41.895  34.938  14.478
23608W        W85271  11.629  14.260   9.989
23609W        W85272  10.829  32.445  11.423
23610W        W85273  36.469  13.181   0.928
23611W        W85274  35.054  33.453  10.942
23612W        W85275   4.825  31.100  12.356
23613W        W85276  25.980  20.108  11.587
23614W        W85277  19.276  44.769  14.765
23615W        W85278  17.299   7.864   2.255
23616W        W85279  29.477  25.076  10.147
23617W        W85280  12.216  29.166   2.378
23618W        W85281  26.525  30.931   0.761
23619W        W85282  11.712  20.191  13.388
23620W        W85283  21.032  35.988   4.263
23621W        W85284  39.525  25.521  12.018
23622W        W85285  18.254   0.401  12.925
23623W        W85286  32.469  27.137  11.510
23624W        W85287  36.528  43.809  11.885
23625W        W85288  32.408  41.012   3.837
23626W        W85289  19.761  16.644  11.112
23627W        W85290  11.186  37.565  14.395
23628W        W85291   1.975  28.071   1.215
23629W        W85292  44.930   7.761  11.519
23630W        W85293  22.193  17.731   1.289
23631W        W85294  24.529  25.513   0.268
23632W        W85295   1.249  19.053   4.113
23633W        W85296  39.379  20.684   3.246
23634W        W85297  10.642  12.733   2.814
23635W        W85298   1.270  37.050  13.998
23636W        W85299  22.998  39.462  10.567
23637W        W85300  32.569  20.210   3.346
23638W        W85301  31.145  20.199   3.728
23639W        W85302  33.492   5.347   0.464
23640W        W85303   9.834   3.875   4.643
23641W        W85304  18.098  17.635  12.419
23642W        W85305  10.380   0.889   0.448
23643W        W85306  43.346   5.241  11.014
23644W        W85307  21.237  43.463   5.319
23645W        W85308  13.212  36.899   0.449
23646W        W85309  17.149   4.396   3.336
23647W        W85310  13.645  13.243   3.189
23648W        W85311  31.511  33.605   3.649
23649W        W85312  24.625  20.562  14.911
23650W        W85313   2.230   5.844   1.328
23651W        W85314   4.832  12.735   0.338
23652W        W85315   2.319   8.373  14.366
23653W        W85316   7.804   3.421   0.933
23654W        W85317  31.042   8.777  14.860
23655W        W85318  38.525  11.678   4.738
23656W        W85319  28.167  20.212   1.222
23657W        W85320  10.727  32.127  12.090
23658W        W85321  26.627  31.940   2.863
23659W        W85322  37.908   7.718   5.163
23660W        W85323  44.974  37.853   0.938
23661W        W85324  38.927  27.565   2.720
23662W        W85325   2.791   7.336   1.277
23663W        W85326  31.486  23.188  14.395
23664W        W85327  40.444   5.914   4.295
23665W        W85328  27.954  35.376  13.833
23666W        W85329  19.117  23.028   3.165
23667W        W85330  44.803  37.492  13.890
23668W        W85331  24.552  12.663  11.403
23669W        W85332   7.781  43.515   0.907
23670W        W85333  36.994  28.996   1.906
23671W        W85334  17.219  16.745  11.866
23672W        W85335  34.451   5.332  13.401
23673W        W85336  29.020  39.926  13.829
23674W        W85337  42.793  42.811  11.457
23675W        W85338  11.666  26.051   3.838
23676W        W85339   6.352  15.668  11.897
23677W        W85340  26.597  28.136   2.768
23678W        W85341  23.076   0.283   4.772
23679W        W85342  17.688  12.123  13.389
23680W        W85343  18.265  16.597   1.853
23681W        W85344  17.798  18.562   0.369
23682W        W85345  36.913  13.703  10.502
23683W        W85346  37.841  39.494  11.379
23684W        W85347   1.434  21.197   2.283
23685W        W85348  23.233  39.063   1.779
23686W        W85349  29.973  33.574   2.332
23687W        W85350  42.502  32.571   2.795
23688W        W85351  33.532  15.723   5.103
23689W        W85352  28.170  32.988  14.280
23690W        W85353  26.577  18.644  13.412
23691W        W85354   6.296  24.521   2.760
23692W        W85355  42.932  21.121   0.797
23693W        W85356  31.143   9.686  12.918
23694W        W85357   2.857   8.274   0.332
23695W        W85358  35.526  25.029  13.544
23696W        W85359   5.340  24.051   1.889
23697W        W85360   1.929  22.651  14.862
23698W        W85361  23.042  29.056  14.843
23699W        W85362  28.585   6.844   2.803
23700W        W85363  24.212  44.281  12.831
23701W        W85364  20.768   2.960   0.859
23702W        W85365  18.198  15.213  11.530
23703W        W85366  21.530   9.321  13.908
23704W        W85367  29.948  17.609  13.333
23705W        W85368  37.564  19.172   0.882
23706W        W85369   2.958  37.406  12.400
23707W        W85370  18.670  30.426   4.125
23708W        W85371  36.885   6.357  14.803
23709W        W85372  18.649  36.859  11.564
23710W        W85373  36.564  35.567   3.775
23711W        W85374  27.016  31.044  10.573
23712W        W85375  15.120  37.951  13.995
23713W        W85376   5.415  26.994  14.342
23714W        W85377  24.610  36.509   0.779
23715W        W85378   8.282  22.092   3.868
23716W        W85379   9.734  27.456   0.360
23717W        W85380   0.296  14.688   3.675
23718W        W85381  25.007  20.184   0.275
23719W        W85382  37.556  15.112  11.399
23720W        W85383  27.563  10.858  12.898
23721W        W85384   4.865  11.742   1.235
23722W        W85385   7.337  42.824   1.734
23723W        W85386  23.190  34.087  11.483
23724W        W85387  28.052  28.963   4.765
23725W        W85388  12.796  30.917   3.146
23726W        W85389  34.061  10.697   3.146
23727W        W85390  29.920  26.701   2.279
23728W        W85391   8.346  21.685  14.843
23729W        W85392  34.939  33.948  11.604
23730W        W85393  18.553  42.866   0.951
23731W        W85394  41.862  28.931  13.913
23732W        W85395   1.937  21.246   5.145
23733W        W85396   7.289  18.167   3.216
23734W        W85397  41.317  27.108   1.315
23735W        W85398   4.242  10.810   1.228
23736W        W85399   8.215  33.450  10.572
23737W        W85400   8.325   4.206   2.386
23738W        W85401  37.495  24.668  12.004
23739W        W85402   7.845  15.118  14.913
23740W        W85403  17.150  41.343   9.947
23741W        W85404  44.932   1.825   4.744
23742W        W85405  14.284  32.967  12.527
23743W        W85406  18.613  32.624  10.890
23744W        W85407  13.834  26.665   1.737
23745W        W85408  25.645  44.328  14.891
23746W        W85409  31.042   8.249   0.349
23747W        W85410  14.690   6.424   9.958
23748W        W85411  10.331  25.059   2.336
23749W        W85412   4.230  33.980  11.017
23750W        W85413  18.240   4.837   2.273
23751W        W85414  16.303  13.114  12.451
23752W        W85415  44.850  42.938   0.393
23753W        W85416  37.869  24.583   1.811
23754W        W85417  11.202  17.262  10.935
23755W        W85418   8.321  21.129   0.324
23756W        W85419  30.988  16.168  13.016
23757W        W85420  17.194   3.439   0.452
23758W        W85421  23.019  10.382  10.620
23759W        W85422  30.933  39.531   1.275
23760W        W85423   3.722  34.116  14.508
23761W        W85424  26.972   3.856   4.250
23762W        W85425  38.563   7.319  11.983
23763W        W85426  32.128  36.982  13.849
23764W        W85427  43.504  29.921  12.948
23765W        W85428   4.790   7.343   4.751
23766W        W85429  44.955  27.574  11.528
23767W        W85430  39.962  11.778  13.867
23768W        W85431  27.050  41.973  12.055
23769W        W85432  19.767   8.783  14.020
23770W        W85433  31.987  42.344  13.958
23771W        W85434   5.397   8.300   3.700
23772W        W85435  23.673  28.588  12.839
23773W        W85436   7.839  18.159   0.389
23774W        W85437  24.671   5.302   3.800
23775W        W85438   6.195  24.624  12.570
23776W        W85439  33.557  35.442   2.226
23777W        W85440  39.052  35.556  13.009
23778W        W85441   2.470  32.022  11.041
23779W        W85442  29.504  24.098  11.123
23780W        W85443   1.291  14.716   2.360
23781W        W85444   3.374  26.087  14.497
23782W        W85445  14.647  13.812  10.992
23783W        W85446   3.218  42.385   2.813
23784W        W85447  28.177  31.528  12.884
23785W        W85448  42.828  33.526  12.524
23786W        W85449  28.594  29.650  14.922
23787W        W85450  21.668  20.244  11.959
23788W        W85451   9.153  27.950  13.532
23789W        W85452   3.846  39.505   2.233
23790W        W85453  24.093  40.501  12.521
23791W        W85454  34.899  41.980   0.764
23792W        W85455  30.652  43.493   4.831
23793W        W85456  22.151  37.845   3.237
23794W        W85457  43.308  35.562   1.231
23795W        W85458  41.923  26.457   2.698
23796W        W85459  42.860  10.381  12.951
23797W        W85460  22.010  23.994   4.220
23798W        W85461  18.722   3.373  12.447
23799W        W85462   7.906   5.408  11.056
23800W        W85463  18.670  15.116   2.313
23801W        W85464  29.100   4.909  14.955
23802W        W85465   1.352   0.902  13.407
23803W        W85466  24.136  35.085  12.388
23804W        W85467   4.823  33.413   3.191
23805W        W85468   5.865  20.132   2.288
23806W        W85469   1.431   7.331  12.022
23807W        W85470  27.489  18.670   2.854
23808W        W85471  25.510  21.224   0.282
23809W        W85472  25.605  18.225   3.230
23810W        W85473   6.780   3.341   3.829
23811W        W85474  35.593  13.336   4.191
23812W        W85475   5.420   3.731   3.268
23813W        W85476   0.329  10.273  12.345
23814W        W85477  18.242  19.533  11.470
23815W        W85478   5.867  19.707  14.400
23816W        W85479  10.158  17.253   5.105
23817W        W85480  32.133  34.990   2.387
23818W        W85481  34.899  23.577  14.396
23819W        W85482  42.014   3.406   0.826
23820W        W85483  31.016   8.898  13.846
23821W        W85484  33.578  25.013   2.817
23822W        W85485   4.247  29.154  14.471
23823W        W85486   6.792   7.297   3.799
23824W        W85487  37.878   4.827   1.921
23825W        W85488  30.120  13.774  14.428
23826W        W85489  16.719  30.522   2.277
23827W        W85490  26.657  21.209   2.763
23828W        W85491   3.421  41.516   1.788
23829W        W85492   7.770  39.512  13.032
23830W        W85493  26.096  28.070  12.480
23831W        W85494  26.070  11.686  13.339
23832W        W85495  10.834  34.990   1.394
23833W        W85496  40.902  39.354  14.326
23834W        W85497  24.984  15.154  11.456
23835W        W85498  18.249  13.753  13.859
23836W        W85499  15.110  19.221  14.985
23837W        W85500  38.444  21.658  13.482
23838W        W85501   7.410  44.861   4.146
23839W        W85502  36.927   9.883   4.713
23840W        W85503  25.094  32.464   0.949
23841W        W85504  27.113  14.233  12.910
23842W        W85505   9.721  42.922   0.747
23843W        W85506  32.998  17.179   1.404
23844W        W85507  12.667  22.123  14.465
23845W        W85508  16.723  18.090   3.242
23846W        W85509  30.086  25.031   2.311
23847W        W85510  42.476   3.887   2.322
23848W        W85511  33.111  19.056   5.729
23849W        W85512  26.098  33.101   0.774
23850W        W85513  20.239  18.128   4.199
23851W        W85514  16.741  22.251  12.510
23852W        W85515   3.896  28.615  10.416
23853W        W85516  25.007  38.404   4.286
23854W        W85517   6.863  24.163   1.733
23855W        W85518  29.953  24.121  12.890
23856W        W85519  12.352  32.994  13.460
23857W        W85520  26.634  38.849   3.695
23858W        W85521   6.401  39.005  13.457
23859W        W85522  31.111   4.854  11.878
23860W        W85523  27.971  38.538   4.170
23861W        W85524  28.973  19.753   1.720
23862W        W85525   5.753  27.620   4.760
23863W        W85526  23.609  32.498  10.442
23864W        W85527   3.327   4.345   1.935
23865W        W85528   3.855  22.512  11.570
23866W        W85529  13.647  24.043  12.027
23867W        W85530  13.145  35.554  14.980
23868W        W85531   5.291  36.540   4.301
23869W        W85532   8.873  17.566   2.227
23870W        W85533  29.434  34.609  11.519
23871W        W85534  40.809  33.392  14.442
23872W        W85535  13.181  15.648   0.257
23873W        W85536  28.944  22.017  12.862
23874W        W85537  20.187  42.480   4.248
23875W        W85538  31.013  41.931   1.720
23876W        W85539   4.217  19.187   0.752
23877W        W85540   3.738  13.167  11.897
23878W        W85541  33.624   0.262   1.837
23879W        W85542   6.895   7.759  13.791
23880W        W85543   3.216  18.626   4.678
23881W        W85544   4.840   8.255  12.841
23882W        W85545  14.259  11.715  12.468
23883W        W85546  17.150   3.796   1.892
23884W        W85547  10.806  24.074   1.315
23885W        W85548  13.307  16.304  10.961
23886W        W85549   2.937  30.503   4.158
23887W        W85550  42.861  11.853   3.302
23888W        W85551  33.590   2.721   2.886
23889W        W85552  30.125  13.350   2.190
23890W        W85553   1.350  22.038  11.602
23891W        W85554  13.205  28.980   2.741
23892W        W85555  41.398   6.310   2.725
23893W        W85556   3.886  10.340  13.959
23894W        W85557  41.016  35.089  13.934
23895W        W85558  35.874  11.790   2.735
23896W        W85559  42.794  20.587  12.469
23897W        W85560   9.149  14.273   1.291
23898W        W85561  16.752   9.760  14.021
23899W        W85562  39.404   8.671   1.900
23900W        W85563   4.377  36.950  14.974
23901W        W85564  15.301   7.351   3.171
23902W        W85565  10.240  24.164   4.710
23903W        W85566  29.163   6.360   1.388
23904W        W85567  27.191   1.861   3.840
23905W        W85568  19.150   2.753   0.811
23906W        W85569  16.311  17.736  14.483
23907W        W85570  34.419   7.758  12.929
23908W        W85571  25.992  29.069  14.365
23909W        W85572   0.325  36.376   0.381
23910W        W85573   8.763   6.211  11.935
23911W        W85574   4.213  32.016  13.841
23912W        W85575  14.316  19.689   2.850
23913W        W85576  35.384  31.444   1.219
23914W        W85577   7.853  26.553  10.582
23915W        W85578   5.915  37.895   2.666
23916W        W85579   5.236  33.568  11.942
23917W        W85580  15.323  41.446  11.456
23918W        W85581  44.829   1.240  12.508
23919W        W85582  30.468  26.137  14.380
23920W        W85583  20.703  20.761  12.437
23921W        W85584  27.973   0.773  11.496
23922W        W85585  28.062  28.457  14.467
23923W        W85586   3.284  18.624   4.303
23924W        W85587   1.372  38.979   4.674
23925W        W85588   5.868   7.715   4.270
23926W        W85589   4.235   2.723  11.376
23927W        W85590  41.802  14.777  11.861
23928W        W85591  11.688  39.014  11.593
23929W        W85592  15.659  29.669  13.021
23930W        W85593  19.057  21.577  13.816
23931W        W85594   8.354  36.886  11.032
23932W        W85595  19.241  14.236   3.292
23933W        W85596  18.161   0.787  14.762
23934W        W85597   1.802  14.607  13.388
23935W        W85598  30.094  43.404   3.166
23936W        W85599   4.248   9.308  13.446
23937W        W85600  10.176  37.532   2.308
23938W        W85601   7.230   9.199   3.727
23939W        W85602  22.060  12.616   1.708
23940W        W85603  40.526  44.887   0.911
23941W        W85604  21.029  31.415   2.732
23942W        W85605   2.238  22.522   4.258
23943W        W85606   5.826  13.201  13.511
23944W        W85607  27.970   5.294  14.900
23945W        W85608   7.366  16.169  12.483
23946W        W85609  17.800  35.536  10.123
23947W        W85610  41.860  30.608  10.613
23948W        W85611  28.441  29.612   1.419
23949W        W85612  20.244  29.538   2.243
23950W        W85613  41.340  39.454   0.398
23951W        W85614  35.040  32.934   3.630
23952W        W85615  40.386  22.512  10.903
23953W        W85616  29.984   4.358   0.859
23954W        W85617   9.884  24.536  14.405
23955W        W85618  16.661  12.761   2.897
23956W        W85619   7.899  39.850   4.712
23957W        W85620  22.672   1.337   1.427
23958W        W85621  22.206  36.515   3.296
23959W        W85622  24.230  41.457   2.243
23960W        W85623   0.272  10.713  11.477
23961W        W85624  37.984  36.409   4.162
23962W        W85625  27.620  36.850   4.785
23963W        W85626  25.691  31.936  13.803
23964W        W85627  35.410  32.899   0.479
23965W        W85628  10.222  34.869   1.246
23966W        W85629  22.069  28.460   3.222
23967W        W85630  10.857  43.406   1.769
23968W        W85631  19.594  19.090  13.370
23969W        W85632  22.020  33.409  10.606
23970W        W85633   3.357  30.586   3.151
23971W        W85634  30.415  20.151   3.809
23972W        W85635  14.752   7.687  11.031
23973W        W85636  11.756  15.694  12.434
23974W        W85637   6.238   2.285  14.484
23975W        W85638  36.592  43.384   4.703
23976W        W85639  14.782  25.529  10.501
23977W        W85640  36.037  16.572   0.286
23978W        W85641  39.935  15.278  14.466
23979W        W85642  18.737  41.504  14.785
23980W        W85643  29.447  38.068   0.798
23981W        W85644  10.374  44.995   2.817
23982W        W85645  21.142  17.715   2.319
23983W        W85646  38.898   6.826  11.519
23984W        W85647   2.902  16.193   1.256
23985W        W85648  16.313  20.118  13.912
23986W        W85649  19.261   1.829  12.916
23987W        W85650  40.943  41.416  11.522
23988W        W85651   7.766  37.944   4.247
23989W        W85652  14.163   2.244   4.750
23990W        W85653  35.017  25.509   1.403
23991W        W85654   0.454   0.815   4.671
23992W        W85655  44.880  16.787  10.590
23993W        W85656  15.308  37.412  12.376
23994W        W85657  15.809  25.518  12.884
23995W        W85658  34.387   2.413  12.578
23996W        W85659  23.180  23.166  11.964
23997W        W85660   0.351  31.535   1.743
23998W        W85661   9.778  15.084  10.901
23999W        W85662   3.290  12.775   9.984
24000W        W85663  22.687   5.793  12.873
24001W        W85664  15.208  40.996  14.770
24002W        W85665  29.527  40.373  11.466
24003W        W85666   6.806  33.394   0.897
24004W        W85667  27.446  13.177  13.937
24005W        W85668  37.935  31.502   2.312
24006W        W85669   1.379   0.316   2.833
24007W        W85670  13.616   1.348  13.917
24008W        W85671  38.833  19.275   2.837
24009W        W85672  26.476  12.331   1.444
24010W        W85673  25.988  23.214  13.814
24011W        W85674  17.295   8.836   0.738
24012W        W85675   9.233  43.484   3.298
24013W        W85676  24.668  37.415   0.252
24014W        W85677  24.680   9.199   1.237
24015W        W85678   9.318  35.082   4.639
24016W        W85679  23.188  42.499  10.584
24017W        W85680   5.687   3.311   1.325
24018W        W85681  20.672  11.316  10.934
24019W        W85682  14.119  38.832  14.919
24020W        W85683  37.448  21.519   2.723
24021W        W85684  21.642  25.648   4.771
24022W        W85685  33.030  40.925   0.914
24023W        W85686  30.989  36.891  14.956
24024W        W85687  41.306  19.637   0.925
24025W        W85688   6.353  11.814   0.959
24026W        W85689  44.962   2.383   1.927
24027W        W85690   5.844  10.742  13.971
24028W        W85691   1.854  17.753   1.758
24029W        W85692   6.783  14.781   4.692
24030W        W85693  10.781   6.697  12.096
24031W        W85694  28.576  26.032   1.807
24032W        W85695  19.141   0.783  12.434
24033W        W85696  35.538  28.130  12.397
24034W        W85697  31.540   5.748   9.648
24035W        W85698  20.081  34.964  13.861
24036W        W85699  17.656  10.738   2.313
24037W        W85700  42.852  43.792  13.498
24038W        W85701  19.743   0.858   5.215
24039W        W85702   6.202  14.213  13.543
24040W        W85703  18.154  44.949  12.475
24041W        W85704   7.410   2.749   0.283
24042W        W85705  15.716  37.383  13.845
24043W        W85706  40.978  27.653  12.873
24044W        W85707  20.541   0.319  14.315
24045W        W85708  12.832  24.721   4.333
24046W        W85709  27.105  21.672   1.256
24047W        W85710   5.741   0.480  13.890
24048W        W85711  33.415  15.814   3.200
24049W        W85712  24.982  22.579   1.431
24050W        W85713  16.129  35.473  13.496
24051W        W85714  39.351  42.923  12.021
24052W        W85715   5.865   9.685   3.821
24053W        W85716  33.925  44.956  13.531
24054W        W85717   5.306  36.847   3.870
24055W        W85718   8.404  18.204   4.706
24056W        W85719  27.946  14.641   4.329
24057W        W85720  28.992   8.713   3.239
24058W        W85721   2.958  13.210   2.734
24059W        W85722  25.491  11.309  10.565
24060W        W85723   7.856  14.261  14.962
24061W        W85724  33.061   4.781  14.429
24062W        W85725   8.766  16.177   2.409
24063W        W85726   5.690   7.360   1.864
24064W        W85727   1.391  34.001   3.855
24065W        W85728  11.181  27.009   0.377
24066W        W85729  27.028  28.125   3.852
24067W        W85730  30.004  25.589   4.597
24068W        W85731  14.706   6.190  12.003
24069W        W85732  14.754  40.400  12.032
24070W        W85733   2.420  27.943   0.374
24071W        W85734  39.026   8.241   1.894
24072W        W85735   8.682  18.770   5.213
24073W        W85736  36.521  32.591   1.780
24074W        W85737   7.200   0.319   0.281
24075W        W85738  18.081  27.099  13.800
24076W        W85739  37.972  27.051   2.239
24077W        W85740   0.260  20.233   4.820
24078W        W85741   7.888   5.385   1.884
24079W        W85742  23.101  27.131   3.755
24080W        W85743   6.716  30.997  11.030
24081W        W85744  41.326   2.399   1.311
24082W        W85745   6.261   8.290  11.877
24083W        W85746  17.233  44.950   2.802
24084W        W85747  21.670   5.786  12.054
24085W        W85748  39.912  34.589   3.659
24086W        W85749  25.633  38.897  10.406
24087W        W85750  15.094  38.420  14.971
24088W        W85751  10.360   7.382   2.224
24089W        W85752  25.171  19.221  14.394
24090W        W85753   7.294  29.448  12.014
24091W        W85754   9.681  20.171  11.515
24092W        W85755  38.904  31.056  12.471
24093W        W85756   2.356   2.921  11.946
24094W        W85757   7.681  25.565  12.013
24095W        W85758  30.032  18.069  13.328
24096W        W85759  34.880  16.778   1.732
24097W        W85760   8.298  42.387   2.308
24098W        W85761   7.877   0.881   2.285
24099W        W85762  22.218  41.323   2.393
24100W        W85763  15.749  23.025  13.411
24101W        W85764  38.840  22.063   2.805
24102W        W85765  14.137  38.344   3.341
24103W        W85766  19.664  36.452  12.884
24104W        W85767  19.145  10.846  13.479
24105W        W85768   4.775  43.965   2.669
24106W        W85769  19.076   9.368  14.359
24107W        W85770   2.339  33.447   1.911
24108W        W85771  11.346   6.754  14.351
24109W        W85772  34.505  11.228  11.584
24110W        W85773  40.865  44.991   1.416
24111W        W85774  12.161  20.201  12.994
24112W        W85775   2.944  43.017   1.935
24113W        W85776  24.563  29.170   2.859
24114W        W85777  21.567  19.102   3.761
24115W        W85778   7.224  40.859  10.953
24116W        W85779  22.007  35.094  13.878
24117W        W85780  29.170  18.683   2.821
24118W        W85781  29.048  13.292  12.953
24119W        W85782  25.608  29.103   0.251
24120W        W85783   5.390  11.764   1.343
24121W        W85784  30.120   1.895   3.350
24122W        W85785  34.031  39.002   2.797
24123W        W85786  30.081  24.098   1.917
24124W        W85787  34.036  16.206   1.745
24125W        W85788  26.532  25.083   3.362
24126W        W85789   5.896  42.509  14.345
24127W        W85790   1.245  32.463  14.778
24128W        W85791  32.549  25.214  10.591
24129W        W85792  29.958  10.209   1.905
24130W        W85793  40.375  23.561   5.112
24131W        W85794  22.196  31.628   2.700
24132W        W85795  36.588  41.975   4.674
24133W        W85796  40.006  40.390   0.863
24134W        W85797  18.785   6.361   2.878
24135W        W85798  35.491  31.063  12.364
24136W        W85799  34.499  11.825   4.350
24137W        W85800  11.254  32.022   3.386
24138W        W85801  32.456  20.627  12.909
24139W        W85802  21.100   2.760  11.919
24140W        W85803  33.390  23.060   2.709
24141W        W85804  26.477  41.520  14.402
24142W        W85805   6.768  39.533  11.108
24143W        W85806  44.798  18.246  14.791
24144W        W85807  29.622   7.295  11.471
24145W        W85808  13.142  14.285   4.136
24146W        W85809   3.325  36.011  11.067
24147W        W85810  44.482  18.700   4.201
24148W        W85811  15.766   2.401  11.516
24149W        W85812   3.918   2.737  14.979
24150W        W85813   0.807  23.167  14.390
24151W        W85814  24.492  30.026  13.489
24152W        W85815   6.718  44.313  14.759
24153W        W85816   2.748  36.034  14.814
24154W        W85817  36.475  25.213   0.751
24155W        W85818   2.897  31.090  13.315
24156W        W85819   9.276  25.209   2.749
24157W        W85820  15.790  22.189  10.496
24158W        W85821  27.168   8.381  12.474
24159W        W85822  14.788   7.361   1.350
24160W        W85823  17.244   6.888   1.723
24161W        W85824  39.854   5.898   0.297
24162W        W85825  39.367  37.951  13.018
24163W        W85826   9.195  37.429  12.886
24164W        W85827   2.893  39.398  14.860
24165W        W85828   7.725  28.608  13.798
24166W        W85829  15.774   5.226  14.764
24167W        W85830  41.921  44.432  14.422
24168W        W85831  38.350  43.294   2.415
24169W        W85832  27.057   9.699  13.548
24170W        W85833  19.583  40.472  11.998
24171W        W85834  44.896  36.497   4.144
24172W        W85835  25.605   2.924  14.298
24173W        W85836  33.476  39.463   2.374
24174W        W85837  39.453  17.191  14.356
24175W        W85838  35.576  11.844  12.437
24176W        W85839  12.336  15.687  10.070
24177W        W85840  44.785  44.887  14.421
24178W        W85841  29.654  26.048  13.406
24179W        W85842   0.278   2.948  10.915
24180W        W85843   5.365  18.788  13.829
24181W        W85844   2.431  43.016   1.218
24182W        W85845  27.527  39.878  14.379
24183W        W85846   3.858  11.637   0.789
24184W        W85847   8.835  22.635   0.916
24185W        W85848  24.715  18.786  13.328
24186W        W85849  26.114  20.541  11.991
24187W        W85850  27.643   4.429  14.830
24188W        W85851  14.159   4.852   1.889
24189W        W85852  18.674  12.750  14.406
24190W        W85853  40.532   4.932   4.599
24191W        W85854  16.270   9.828  10.969
24192W        W85855  23.013  42.458   3.742
24193W        W85856  33.939  19.278   2.253
24194W        W85857  38.415  36.530   2.365
24195W        W85858  43.298  27.448  10.551
24196W        W85859   3.719  42.480  12.457
24197W        W85860  33.884  42.435  14.422
24198W        W85861  19.541  17.287   1.449
24199W        W85862  18.588  42.834   4.300
24200W        W85863  15.308  37.468  12.998
24201W        W85864  40.522   6.329   0.361
24202W        W85865  14.096  25.098  11.383
24203W        W85866  41.377  40.434  11.988
24204W        W85867  30.573  42.845   2.733
24205W        W85868  32.619   8.308   2.267
24206W        W85869  35.856  28.510   0.274
24207W        W85870  33.495  43.776   3.220
24208W        W85871  26.505  36.005  11.889
24209W        W85872  25.481  28.003   5.749
24210W        W85873   9.210  17.599  12.077
24211W        W85874  17.150   9.349   1.215
24212W        W85875  18.560  29.622  12.390
24213W        W85876  15.708  38.423  14.928
24214W        W85877   1.901   0.325  12.032
24215W        W85878  42.948  40.972   4.163
24216W        W85879  22.113   6.395   2.303
24217W        W85880  40.477  11.223  14.319
24218W        W85881  32.083  28.559   1.878
24219W        W85882  32.497  37.488  10.544
24220W        W85883   0.277  10.762   4.672
24221W        W85884  30.622  44.819  13.837
24222W        W85885   8.367  43.443   0.941
24223W        W85886   9.768  22.614   4.333
24224W        W85887   1.298   3.355   1.810
24225W        W85888  19.594  10.142  14.502
24226W        W85889  25.206  16.154  13.493
24227W        W85890  31.059   4.841   2.792
24228W        W85891   6.882  29.547   0.353
24229W        W85892  12.197   3.942   1.251
24230W        W85893  19.567  13.841   1.863
24231W        W85894  26.578   0.944  11.089
24232W        W85895  27.070  13.656  14.366
24233W        W85896  35.492   0.823  14.899
24234W        W85897  42.903  42.792   0.260
24235W        W85898  30.018  10.842   0.960
24236W        W85899  38.922  16.724   0.869
24237W        W85900  43.340  31.129   0.806
24238W        W85901  15.214   9.763   0.808
24239W        W85902  13.711  22.551  14.845
24240W        W85903  11.170  43.816  13.848
24241W        W85904  32.936  42.952   4.619
24242W        W85905  24.014   6.232   4.226
24243W        W85906  17.702  43.282  13.852
24244W        W85907   3.370   4.303  11.597
24245W        W85908  43.887  17.272   3.310
24246W        W85909  20.632  19.144  10.892
24247W        W85910  38.858  36.553  12.416
24248W        W85911  25.039   3.890   2.225
24249W        W85912  21.578  12.315   0.457
24250W        W85913  28.507  42.021   2.239
24251W        W85914  41.799  31.026   0.786
24252W        W85915   5.700  16.073  10.604
24253W        W85916  20.226  30.514   2.330
24254W        W85917  19.144  24.084  13.905
24255W        W85918  16.301  11.813   1.377
24256W        W85919   4.332  35.958  10.426
24257W        W85920  35.055  44.479   2.254
24258W        W85921  22.503  27.058   3.689
24259W        W85922  26.509  29.919  14.314
24260W        W85923  17.181  17.694  10.942
24261W        W85924  24.176  38.842   2.824
24262W        W85925  14.803  29.075   2.416
24263W        W85926  30.148  33.051  11.486
24264W        W85927  10.762  11.147   2.300
24265W        W85928  39.408  37.963   2.752
24266W        W85929   5.331  25.061  13.364
24267W        W85930  22.646  17.716   1.879
24268W        W85931   5.932   9.751  10.948
24269W        W85932  28.473  32.446  13.488
24270W        W85933  20.090  40.911  12.049
24271W        W85934  33.461  21.558  13.885
24272W        W85935  37.404   0.879  13.511
24273W        W85936  32.079  13.744  14.320
24274W        W85937  41.316  24.577  14.943
24275W        W85938  18.206   1.878  10.443
24276W        W85939  33.977  19.089   2.678
24277W        W85940   9.312  29.065  14.015
24278W        W85941  32.935   8.825   0.251
24279W        W85942   5.750  23.118   2.812
24280W        W85943  24.499  14.675  12.905
24281W        W85944  10.689  20.556   2.866
24282W        W85945  18.278  43.832  11.409
24283W        W85946   3.908  42.851   1.424
24284W        W85947  13.145   7.713   2.748
24285W        W85948  42.357   0.972  14.953
24286W        W85949  42.510  12.686  11.587
24287W        W85950  22.178  42.007  12.840
24288W        W85951  30.944   2.406   0.779
24289W        W85952  13.629  19.688  13.807
24290W        W85953  35.574  20.122  10.140
24291W        W85954  34.864  41.946   2.803
24292W        W85955   1.793   8.270  10.911
24293W        W85956   0.462  14.168  13.544
24294W        W85957  18.288  30.116  13.963
24295W        W85958  24.569  39.999   3.696
24296W        W85959  18.688  25.029   4.784
24297W        W85960  19.580   7.390  10.636
24298W        W85961  29.132  20.737  14.820
24299W        W85962  15.328  20.552   0.939
24300W        W85963  24.710  14.620  14.418
24301W        W85964   2.756   7.271   2.346
24302W        W85965  27.638  27.548   4.263
24303W        W85966  32.505  32.625   1.911
24304W        W85967   0.776  38.946  13.955
24305W        W85968   8.730  32.514   3.654
24306W        W85969  30.922   3.325   3.170
24307W        W85970  15.263  19.544   1.767
24308W        W85971  25.143  32.141   1.345
24309W        W85972  23.638  19.087   2.715
24310W        W85973  40.443   5.401  14.452
24311W        W85974  42.023  36.405   1.904
24312W        W85975  15.304   5.293   2.370
24313W        W85976  11.315  15.692   2.843
24314W        W85977   4.292  34.017  14.360
24315W        W85978  27.494  41.299   3.649
24316W        W85979   3.278  29.959   1.745
24317W        W85980   8.876   0.366   4.676
24318W        W85981  35.907  41.388   2.281
24319W        W85982  13.602  22.108  14.458
24320W        W85983  27.536  18.178   0.965
24321W        W85984  13.283  20.217  10.410
24322W        W85985  17.622  18.591  12.997
24323W        W85986  36.351  15.107   2.208
24324W        W85987  33.881   1.465  11.020
24325W        W85988  36.439  22.042   2.769
24326W        W85989  12.636  38.071   0.750
24327W        W85990   3.770  10.789   4.671
24328W        W85991  18.104  32.598  10.926
24329W        W85992  13.659  40.504  13.420
24330W        W85993  31.909  36.506   3.198
24331W        W85994  20.214  34.612   1.298
24332W        W85995  38.975  38.996   0.960
24333W        W85996  43.317  41.533  11.400
24334W        W85997  35.051  30.934  13.984
24335W        W85998  30.939   1.371   3.818
24336W        W85999  38.940  18.140  11.601
24337W        W86000  26.551  21.549  10.586
24338W        W86001  20.763  11.804   4.294
24339W        W86002  14.744  28.574   4.658
24340W        W86003   3.923  34.493   1.238
24341W        W86004  32.593  21.625  13.328
24342W        W86005   9.752  25.478  12.964
24343W        W86006  37.434  19.220   2.829
24344W        W86007  23.531  21.731   3.193
24345W        W86008   3.891  15.130  10.526
24346W        W86009  17.579   2.442  13.521
24347W        W86010  42.988  30.478   4.634
24348W        W86011  29.149   1.390  11.860
24349W        W86012  24.668  39.809  13.326
24350W        W86013   2.913  18.745   0.792
24351W        W86014   3.284  18.742  14.916
24352W        W86015  32.535  40.981  11.587
24353W        W86016  43.017  22.531   3.856
24354W        W86017  15.304  40.889  13.855
24355W        W86018  20.223  33.402  12.058
24356W        W86019   6.422   2.423  11.520
24357W        W86020  33.532  11.317   1.348
24358W        W86021  42.328   2.840  12.856
24359W        W86022  35.458  36.099   4.331
24360W        W86023   4.745  24.674  13.804
24361W        W86024  32.433  12.223  13.499
24362W        W86025  18.550  44.848   1.341
24363W        W86026  39.845   3.330  12.914
24364W        W86027   6.272  41.501  10.039
24365W        W86028  11.324   7.860  12.047
24366W        W86029  24.586  43.328  10.044
24367W        W86030   9.323  32.110   3.719
24368W        W86031  29.971  24.721  12.081
24369W        W86032  37.477  21.061   1.928
24370W        W86033  22.698  30.467  10.941
24371W        W86034  10.307  32.927   0.739
24372W        W86035   3.227  37.857   1.266
24373W        W86036  23.172  42.446  13.351
24374W        W86037  31.070  34.971   0.354
24375W        W86038   2.360  39.388  13.312
24376W        W86039   4.768  22.033   1.417
24377W        W86040  13.249   2.835   1.408
24378W        W86041   8.334  42.865  11.963
24379W        W86042  31.966  37.836   2.260
24380W        W86043  43.463  16.301   3.328
24381W        W86044   8.360  34.458  11.045
24382W        W86045   4.760  40.305   5.321
24383W        W86046  40.928  34.525  12.558
24384W        W86047  28.442  30.648  12.999
24385W        W86048  16.767   7.313  14.280
24386W        W86049  43.000  32.109   0.967
24387W        W86050  42.336  18.116  14.377
24388W        W86051  14.812  13.273  12.351
24389W        W86052  26.593  19.080  11.946
24390W        W86053  18.119  32.598   1.758
24391W        W86054  36.455  14.191   3.208
24392W        W86055  11.216  28.463  11.912
24393W        W86056  26.056  41.432   3.254
24394W        W86057  43.457  25.988   4.144
24395W        W86058  18.135  15.101  12.423
24396W        W86059  22.228  30.439   4.142
24397W        W86060  20.102  38.925   1.694
24398W        W86061  20.178   9.744   1.929
24399W        W86062  31.955  10.220  11.078
24400W        W86063  41.393  42.865   1.355
24401W        W86064   9.809  24.172  14.302
24402W        W86065  11.738   9.680  10.091
24403W        W86066   0.347  23.527  14.278
24404W        W86067  36.441   0.745  10.975
24405W        W86068  41.926  37.929   1.704
24406W        W86069  35.858  17.065  13.897
24407W        W86070  43.375  15.636  12.422
24408W        W86071  21.050  38.001  13.795
24409W        W86072  32.132  23.502  11.979
24410W        W86073  24.229  22.676  14.769
24411W        W86074  18.276  12.802  12.880
24412W        W86075  30.925  29.999  10.492
24413W        W86076   8.790  25.632   4.829
24414W        W86077  24.220   0.266   9.986
24415W        W86078  20.164  12.252   2.372
24416W        W86079  17.583  19.094  13.917
24417W        W86080  35.061   6.902  14.488
24418W        W86081   4.765  37.480   9.993
24419W        W86082  26.480  31.968   3.642
24420W        W86083  30.480  10.684  14.970
24421W        W86084   1.288  42.366  14.398
24422W        W86085  29.977  11.199   2.856
24423W        W86086  10.705  35.093  11.532
24424W        W86087  21.670   1.386  11.437
24425W        W86088  22.568   7.839  10.080
24426W        W86089  33.552  17.283   1.873
24427W        W86090   7.370  38.820   3.339
24428W        W86091   7.880  15.261   2.795
24429W        W86092   2.324  36.061   2.678
24430W        W86093  30.050  42.832  12.000
24431W        W86094  28.991  26.542  13.002
24432W        W86095  26.699  32.073  11.113
24433W        W86096  12.819  10.318   3.298
24434W        W86097  11.272  11.752   5.191
24435W        W86098  36.855  31.555  14.776
24436W        W86099  25.654  31.556  14.449
24437W        W86100  43.272   2.856   3.273
24438W        W86101   3.389  17.071  10.487
24439W        W86102  36.592  36.464  13.340
24440W        W86103  26.170  19.222   0.282
24441W        W86104  11.277  13.285   1.243
24442W        W86105  36.856  30.935  12.966
24443W        W86106   4.373  33.026  12.067
24444W        W86107  17.134  16.676   3.670
24445W        W86108  40.397  24.021   4.152
24446W        W86109  38.879  30.116   0.402
24447W        W86110  42.790  38.933   3.282
24448W        W86111  29.444   0.870   4.174
24449W        W86112  40.052  38.922  14.886
24450W        W86113  27.506  41.400  12.082
24451W        W86114  29.934  24.606   0.906
24452W        W86115   4.291  34.608   4.320
24453W        W86116  25.106   4.825   2.252
24454W        W86117  21.125   5.884  10.090
24455W        W86118  12.616  17.799  11.452
24456W        W86119  36.460   7.752  10.020
24457W        W86120  33.448  19.139  13.452
24458W        W86121   3.820  26.608  11.594
24459W        W86122  22.189  44.899   1.403
24460W        W86123  27.984   7.854   4.170
24461W        W86124  20.200  43.457   3.675
24462W        W86125   7.898  33.131   2.677
24463W        W86126   1.830   2.853   1.255
24464W        W86127   0.471  29.617   0.743
24465W        W86128  21.220   2.302  10.425
24466W        W86129  27.535  27.050  14.313
24467W        W86130  24.662  41.800   3.178
24468W        W86131   1.760  29.499  11.043
24469W        W86132  37.546  10.673   1.439
24470W        W86133  39.369  40.890   2.710
24471W        W86134  44.977   9.203  11.055
24472W        W86135  33.566   3.886   1.935
24473W        W86136  33.615  19.603   1.212
24474W        W86137  38.328  23.691  14.028
24475W        W86138  25.120  15.143  11.994
24476W        W86139   0.770   2.379  12.003
24477W        W86140  31.073   7.852   2.342
24478W        W86141   1.372   0.776  12.092
24479W        W86142  15.267   7.236  12.849
24480W        W86143  11.191  20.247   3.301
24481W        W86144   4.226  27.473   4.814
24482W        W86145  33.946   6.839  14.774
24483W        W86146  20.527  13.820   2.806
24484W        W86147  33.090  44.780   3.279
24485W        W86148  39.495  12.179   0.285
24486W        W86149  24.571   7.300   1.369
24487W        W86150  16.573  13.660  11.496
24488W        W86151  20.246  12.767  13.448
24489W        W86152  43.972   0.750  11.103
24490W        W86153  10.703   2.358   1.353
24491W        W86154  43.897   2.746   2.875
24492W        W86155  35.579  14.752   1.320
24493W        W86156  41.814  31.435  11.564
24494W        W86157  11.325   6.263  12.905
24495W        W86158  21.129  37.081  12.495
24496W        W86159   6.791  29.930  10.584
24497W        W86160  40.532  30.985  13.411
24498W        W86161  15.778  36.056  10.099
24499W        W86162   3.834  12.332   1.798
24500W        W86163   4.853  20.182   3.672
24501W        W86164  43.463  22.636   1.716
24502W        W86165   6.762  19.710  14.981
24503W        W86166   8.283  11.270  10.926
24504W        W86167  25.003  10.280   3.236
24505W        W86168  16.572  13.124   3.688
24506W        W86169   9.306   2.880  14.778
24507W        W86170  31.017  24.975   3.299
24508W        W86171  27.970   9.695  11.990
24509W        W86172  35.110   2.393   3.861
24510W        W86173  43.851  25.008  11.027
24511W        W86174  37.948   7.829  13.452
24512W        W86175  14.622  32.609   4.328
24513W        W86176  43.962  43.981   1.270
24514W        W86177  25.179   7.409   3.783
24515W        W86178  19.715   7.398   4.117
24516W        W86179   6.353  18.233  10.637
24517W        W86180  13.693  37.891   5.284
24518W        W86181   0.419  36.080  13.379
24519W        W86182  36.593  39.940  10.965
24520W        W86183  38.371  15.690   1.398
24521W        W86184  27.513   2.905  11.063
24522W        W86185  10.271   4.384   0.943
24523W        W86186   9.378  11.352   4.180
24524W        W86187   2.933  44.838  14.409
24525W        W86188  11.767  12.183  12.440
24526W        W86189  32.529  40.880   1.308
24527W        W86190  20.081  17.749  10.476
24528W        W86191  33.882  34.458   1.345
24529W        W86192  28.535  40.819   3.276
24530W        W86193   1.879  24.650  12.546
24531W        W86194  42.882   4.432  13.419
24532W        W86195  44.881  42.917   3.281
24533W        W86196   7.708  15.173   1.795
24534W        W86197  19.607   3.762  14.800
24535W        W86198  20.660  16.628   2.669
24536W        W86199  39.389  29.050   0.920
24537W        W86200  13.340  41.299  14.829
24538W        W86201  39.503  17.149  12.038
24539W        W86202  41.364  42.853  11.108
24540W        W86203  43.293  15.803  13.932
24541W        W86204  13.133  31.487  10.925
24542W        W86205  23.231  43.366   2.387
24543W        W86206  36.427   0.801   1.916
24544W        W86207   5.356  43.954   3.255
24545W        W86208  41.401  40.990  11.581
24546W        W86209  20.633  21.757   2.857
24547W        W86210   8.752  28.058   1.368
24548W        W86211  28.138  14.733   1.729
24549W        W86212  14.192  15.158   1.295
24550W        W86213  28.974  28.522  14.447
24551W        W86214  42.923   0.808  10.408
24552W        W86215  37.832  41.969   3.216
24553W        W86216  19.138   2.259   5.215
24554W        W86217  26.984   2.312   1.699
24555W        W86218   1.408   0.755  12.455
24556W        W86219  22.715   7.834   4.715
24557W        W86220  12.799  32.458  13.059
24558W        W86221   6.733  17.208  13.902
24559W        W86222  13.341  14.588   0.424
24560W        W86223  36.512  12.640   2.831
24561W        W86224   9.774  21.093  11.538
24562W        W86225  13.349  17.107   2.775
24563W        W86226  13.752  15.093  10.945
24564W        W86227  22.107  25.513   4.792
24565W        W86228  19.731  11.651   5.235
24566W        W86229  28.082  42.369   2.224
24567W        W86230  30.069  37.417   3.266
24568W        W86231  21.225  28.139  10.032
24569W        W86232  26.694   5.794  10.549
24570W        W86233  37.477  42.397  14.346
24571W        W86234  23.674   2.314   3.847
24572W        W86235   5.255  18.193   4.131
24573W        W86236  15.591  26.179   3.686
24574W        W86237   5.423  40.816  14.932
24575W        W86238   2.372  10.860  14.371
24576W        W86239   6.789  14.275  10.498
24577W        W86240  10.799  31.950  14.990
24578W        W86241  10.695  32.465   2.866
24579W        W86242  19.643   3.264  11.552
24580W        W86243  28.999  14.697   3.757
24581W        W86244  44.832   6.686  12.474
24582W        W86245  32.120  15.088  14.946
24583W        W86246  14.151  40.487   3.284
24584W        W86247  13.790  39.518   4.619
24585W        W86248  13.161  42.908   0.944
24586W        W86249  15.284  28.012   3.801
24587W        W86250  28.045  37.416   3.307
24588W        W86251  43.514  32.483  11.904
24589W        W86252  36.570  42.792   3.864
24590W        W86253  14.192  11.338   0.953
24591W        W86254   1.895   4.839  14.319
24592W        W86255  37.494  27.157   3.737
24593W        W86256   7.713  24.647   1.725
24594W        W86257  27.560   8.702  14.484
24595W        W86258  28.098  16.766  11.376
24596W        W86259   7.799  22.533  14.875
24597W        W86260  24.629  31.452   0.454
24598W        W86261  38.862  12.741   1.840
24599W        W86262  15.769  29.570  10.423
24600W        W86263  44.962  23.010   3.733
24601W        W86264  12.362   6.224   3.214
24602W        W86265  42.802  10.860   2.716
24603W        W86266  32.064  22.236  12.089
24604W        W86267  26.702  23.680   2.334
24605W        W86268  21.706  29.997  12.841
24606W        W86269  34.991  35.949  14.472
24607W        W86270  24.087   3.413  11.033
24608W        W86271   7.676   6.390   0.364
24609W        W86272   6.391  27.100  10.605
24610W        W86273   4.854   7.893  10.033
24611W        W86274  36.047   4.836  13.423
24612W        W86275  38.830  15.709   3.286
24613W        W86276  20.208   3.753   1.433
24614W        W86277  43.338  10.670   3.194
24615W        W86278   4.419  28.001   3.723
24616W        W86279   3.377  34.383   2.811
24617W        W86280  14.668   9.220   0.932
24618W        W86281  14.189   5.814   4.314
24619W        W86282   1.422  13.807   3.781
24620W        W86283  27.193  42.291   5.773
24621W        W86284  31.418  22.122  12.956
24622W        W86285  31.519  40.324  14.025
24623W        W86286  14.686   5.764  10.550
24624W        W86287  25.533  32.998  10.421
24625W        W86288  22.216  39.825   4.300
24626W        W86289  22.736  26.671  13.409
24627W        W86290  20.118  36.365  12.941
24628W        W86291  25.977  14.617   1.882
24629W        W86292  39.876  28.110  13.867
24630W        W86293  21.710  15.274   1.930
24631W        W86294  42.366  24.212  11.908
24632W        W86295  20.060  42.393  12.909
24633W        W86296  39.968  38.961   2.889
24634W        W86297  38.514  17.143   0.283
24635W        W86298  44.851   3.764   3.316
24636W        W86299  20.728   1.395   4.629
24637W        W86300  41.007  23.168   3.694
24638W        W86301   6.403  38.992  11.499
24639W        W86302  27.096   2.870   0.935
24640W        W86303   9.793  32.929   3.214
24641W        W86304  14.322  31.478   0.401
24642W        W86305  13.730  40.452   2.220
24643W        W86306  20.626   6.771  12.556
24644W        W86307  35.398  20.097  13.822
24645W        W86308  40.518  14.200   0.279
24646W        W86309   5.845  18.079  14.767
24647W        W86310  17.657  22.599  12.983
24648W        W86311  16.179  12.756  13.425
24649W        W86312   4.740  20.089   1.874
24650W        W86313  21.250  44.934  12.904
24651W        W86314   8.367  38.461  12.836
24652W        W86315  27.942  41.385   2.179
24653W        W86316  44.837  38.896  13.967
24654W        W86317  35.560  30.058   1.361
24655W        W86318   3.793  17.628  12.976
24656W        W86319  35.588  19.130  12.084
24657W        W86320  21.122  26.996  14.385
24658W        W86321  22.569  32.946  13.321
24659W        W86322  23.014   7.899   2.371
24660W        W86323   1.353  26.008  13.058
24661W        W86324   7.185   9.643  14.486
24662W        W86325   4.304  40.370   3.836
24663W        W86326  34.960  34.977   4.782
24664W        W86327   5.257  24.995   0.409
24665W        W86328  18.758   6.861   1.330
24666W        W86329  44.762  24.623  11.611
24667W        W86330  11.286   2.809  13.514
24668W        W86331  36.424  28.626   1.446
24669W        W86332  11.762  33.943  11.897
24670W        W86333  18.152   7.338   3.343
24671W        W86334  37.430  26.118   0.275
24672W        W86335  25.140  28.543  11.425
24673W        W86336  17.713   6.846  12.870
24674W        W86337  13.157  33.121   4.797
24675W        W86338  11.650   5.333   0.786
24676W        W86339  36.092  44.448   1.448
24677W        W86340  27.049  34.871   0.278
24678W        W86341  41.813  19.607  13.833
24679W        W86342  11.720  29.527  13.445
24680W        W86343  38.334   9.310   4.274
24681W        W86344  34.090  44.381  14.854
24682W        W86345  22.623  34.395  10.124
24683W        W86346  39.325   0.976  12.533
24684W        W86347  20.756   0.398   5.171
24685W        W86348  17.073   0.845  12.399
24686W        W86349   3.379  32.514  10.574
24687W        W86350  19.730  10.665   4.284
24688W        W86351  22.180  27.570   3.322
24689W        W86352  38.029  42.951   0.413
24690W        W86353  26.171  27.485   4.135
24691W        W86354  23.528  32.121   0.927
24692W        W86355  24.038  39.386   4.689
24693W        W86356  16.252  14.705  13.361
24694W        W86357  36.988   6.380  11.952
24695W        W86358  28.505  41.030   5.652
24696W        W86359   6.201   4.314   3.729
24697W        W86360  11.775  22.580  13.309
24698W        W86361  40.829  40.416   3.213
24699W        W86362  23.628  36.910  10.906
24700W        W86363  36.081  23.521  11.109
24701W        W86364  23.671  18.764   1.832
24702W        W86365  18.131  37.891   0.785
24703W        W86366  33.466   2.937  13.461
24704W        W86367  32.594  28.152   3.281
24705W        W86368   7.822  29.487   5.104
24706W        W86369   0.260   2.361  11.039
24707W        W86370   8.191  24.700   2.728
24708W        W86371  13.190  37.041  13.538
24709W        W86372  18.107  11.189  12.499
24710W        W86373  19.536  18.665  10.421
24711W        W86374   1.366   3.865  10.540
24712W        W86375  43.479   0.892   1.869
24713W        W86376  42.318  18.265  14.762
24714W        W86377   9.350  13.804  10.444
24715W        W86378  31.615  34.529  14.922
24716W        W86379   6.305  19.591   0.399
24717W        W86380  12.636  32.536  10.421
24718W        W86381  37.513   0.875   2.771
24719W        W86382  40.051  15.744   0.964
24720W        W86383  23.047  30.571   3.195
24721W        W86384  15.304  38.371   1.741
24722W        W86385   1.329  11.839   3.298
24723W        W86386  17.642  41.012  14.282
24724W        W86387   7.770  24.990  14.370
24725W        W86388  16.303  29.144  12.560
24726W        W86389  38.975  27.521   0.739
24727W        W86390  16.716  11.269   0.355
24728W        W86391  11.781   1.972   4.189
24729W        W86392  10.181  12.752  10.630
24730W        W86393  10.715  30.476  10.987
24731W        W86394  32.035   9.282   5.230
24732W        W86395  42.025  22.723   2.864
24733W        W86396  44.943  24.151   4.282
24734W        W86397   3.828  38.888  12.052
24735W        W86398   9.200  28.545  14.485
24736W        W86399  42.475  42.492  10.644
24737W        W86400   0.971   9.283  13.912
24738W        W86401  33.475  15.176  11.966
24739W        W86402  34.374  34.084  12.536
24740W        W86403   0.930  30.631   5.119
24741W        W86404  21.663  38.969   0.345
24742W        W86405  37.532   8.269   0.279
24743W        W86406   1.452  11.210   3.214
24744W        W86407  16.085  31.081  12.415
24745W        W86408  32.597  42.437  11.902
24746W        W86409  28.462   5.262   3.683
24747W        W86410   4.444  37.412  10.922
24748W        W86411  11.811   8.875   0.933
24749W        W86412  20.172  35.904  14.476
24750W        W86413  44.903  23.696  12.052
24751W        W86414   2.957  33.522   2.723
24752W        W86415  34.121   4.867  13.488
24753W        W86416  43.835  26.130   1.373
24754W        W86417  23.197  22.016   3.684
24755W        W86418  33.473  40.351   4.234
24756W        W86419  13.734  20.099  14.008
24757W        W86420  33.537  23.707   3.257
24758W        W86421   2.316  41.404   3.280
24759W        W86422  27.062  14.263  12.429
24760W        W86423  17.194  32.485  11.976
24761W        W86424  25.672  29.475  10.608
24762W        W86425  32.057  25.152  10.924
24763W        W86426   8.870  44.357  12.448
24764W        W86427  34.930  37.905  12.090
24765W        W86428  44.330  24.188  12.555
24766W        W86429  27.582  37.989  11.396
24767W        W86430  30.575  44.449   4.314
24768W        W86431  14.711  23.693  13.338
24769W        W86432  44.438  32.503  12.971
24770W        W86433  29.161  10.368   0.341
24771W        W86434  22.198  41.298   2.815
24772W        W86435  28.484   6.774   3.703
24773W        W86436  41.902  23.565   0.901
24774W        W86437  16.261  25.011   4.355
24775W        W86438  10.258  19.044   1.366
24776W        W86439  28.002  31.468  13.916
24777W        W86440  13.653   7.874   1.906
24778W        W86441   6.290  40.987  13.444
24779W        W86442  27.458  18.235  11.430
24780W        W86443   1.243  31.102   3.192
24781W        W86444  13.793  41.312   3.381
24782W        W86445  38.969  33.072   4.235
24783W        W86446  39.419  34.982  12.960
24784W        W86447  11.762   9.841   2.720
24785W        W86448  26.090   8.743   0.416
24786W        W86449  11.314  22.076   4.125
24787W        W86450  40.307   5.844   3.680
24788W        W86451  32.629  22.046   0.344
24789W        W86452  28.994  36.469  11.995
24790W        W86453  24.589  13.138   0.736
24791W        W86454   1.464  22.628   0.915
24792W        W86455   3.238  32.032   9.998
24793W        W86456  30.650  23.133  14.438
24794W        W86457  33.904  18.137  13.538
24795W        W86458  12.630  23.088   0.478
24796W        W86459  42.460  27.599   3.860
24797W        W86460  29.428   7.717  11.057
24798W        W86461  10.302   6.346  10.955
24799W        W86462   5.438  41.799  12.528
24800W        W86463  12.748  39.038  11.407
24801W        W86464  12.237  37.414   0.796
24802W        W86465  20.690  42.796  10.523
24803W        W86466  28.072  43.320  10.595
24804W        W86467  13.191  34.027  11.583
24805W        W86468  24.207  28.566   2.753
24806W        W86469  32.505  27.673   2.186
24807W        W86470  28.558  38.946   4.209
24808W        W86471  21.740  19.103   0.947
24809W        W86472  42.312  18.627   4.128
24810W        W86473   3.942  14.279  11.947
24811W        W86474  15.192  14.730  14.029
24812W        W86475  27.449  14.797   0.309
24813W        W86476  34.983  40.527   1.252
24814W        W86477  36.921  25.679  12.469
24815W        W86478   0.471  33.881  12.489
24816W        W86479   3.733  41.300   3.304
24817W        W86480  29.553  10.770  12.882
24818W        W86481  21.650  33.618  12.498
24819W        W86482  27.955  28.007   9.926
24820W        W86483   3.423  16.812   1.283
24821W        W86484  29.009  32.492  10.456
24822W        W86485   1.971  18.641   3.718
24823W        W86486  25.533   5.194  14.926
24824W        W86487  44.879  28.978   4.292
24825W        W86488  13.143   3.737   1.422
24826W        W86489  19.272  15.680  14.490
24827W        W86490   4.223  39.438   1.399
24828W        W86491  34.085  27.522   4.150
24829W        W86492   4.895   3.296  10.587
24830W        W86493   3.926  23.016   0.955
24831W        W86494  10.845   1.896   4.744
24832W        W86495  43.401  30.000   2.788
24833W        W86496  32.446   6.799   0.417
24834W        W86497  12.695  19.177   4.267
24835W        W86498  15.100  39.041  12.351
24836W        W86499  26.630  33.130   2.351
24837W        W86500  22.233   6.321   3.209
24838W        W86501  38.962   7.344   1.236
24839W        W86502   6.729  15.254  12.527
24840W        W86503   3.340  35.012  13.527
24841W        W86504  23.575   1.294  11.860
24842W        W86505  22.203  34.073  14.926
24843W        W86506  12.231   8.687   5.162
24844W        W86507  41.870  17.131   4.656
24845W        W86508  10.377  43.907  12.537
24846W        W86509   5.224  30.643  11.397
24847W        W86510  40.924   1.371  14.845
24848W        W86511   0.451   0.477   1.754
24849W        W86512  11.260  30.435   4.607
24850W        W86513  15.253   4.864  13.502
24851W        W86514   0.958  10.835   4.325
24852W        W86515   4.329   0.795  10.633
24853W        W86516  43.002   3.285  12.936
24854W        W86517  34.939   8.864  10.142
24855W        W86518  28.663  14.660   1.265
24856W        W86519  28.575  40.801  10.985
24857W        W86520  25.110  21.138  10.570
24858W        W86521   6.686  10.278   1.256
24859W        W86522   3.293  43.338  12.552
24860W        W86523  13.807  24.532  13.463
24861W        W86524   3.950  19.252  14.888
24862W        W86525   4.297  32.905   4.334
24863W        W86526  44.373  30.138  11.975
24864W        W86527  26.495  21.521  14.329
24865W        W86528  27.054  23.173  12.515
24866W        W86529  36.361  36.084   9.982
24867W        W86530  17.076  44.993  13.954
24868W        W86531  27.183  43.939   3.226
24869W        W86532  19.727   1.330   1.297
24870W        W86533   0.979  20.620  12.040
24871W        W86534  35.883  32.414  13.904
24872W        W86535   3.914  22.535  14.953
24873W        W86536  33.901  31.544  14.974
24874W        W86537  24.578  23.178  10.073
24875W        W86538  10.636  24.656  14.389
24876W        W86539  30.010  36.561   4.239
24877W        W86540  26.480   6.697   0.892
24878W        W86541  26.169  44.003  13.958
24879W        W86542   9.797  28.557  12.394
24880W        W86543   8.886  23.990  13.348
24881W        W86544  19.129  11.159  13.344
24882W        W86545  33.931   6.915   3.299
24883W        W86546  17.069  23.097   3.306
24884W        W86547  33.500   9.260  13.952
24885W        W86548   4.275  26.631  10.967
24886W        W86549   8.698  20.082   4.607
24887W        W86550   4.212  22.530  13.544
24888W        W86551   9.390  32.887   3.764
24889W        W86552  37.558  19.701  13.048
24890W        W86553  18.134  43.785  10.534
24891W        W86554  28.160  36.496  11.864
24892W        W86555  12.282   5.866  11.596
24893W        W86556  28.056   0.971  14.327
24894W        W86557  18.786   7.241  10.968
24895W        W86558  18.135  12.129  11.516
24896W        W86559  38.920   1.737  14.904
24897W        W86560  31.586   0.363  11.891
24898W        W86561   0.758  14.254   4.717
24899W        W86562  36.097   3.323  14.805
24900W        W86563   8.782  23.038  10.535
24901W        W86564  33.004  44.345   2.241
24902W        W86565   1.337  39.000   3.642
24903W        W86566  14.605   1.770  13.903
24904W        W86567   2.861  10.225  13.050
24905W        W86568  13.326  43.887  12.486
24906W        W86569  24.722  33.119  10.537
24907W        W86570  31.088  24.057   0.863
24908W        W86571  40.392  12.310   1.800
24909W        W86572  10.217  27.548   4.641
24910W        W86573  26.561  43.815   0.363
24911W        W86574  40.858  11.702  12.339
24912W        W86575  40.994  22.020  10.485
24913W        W86576  41.021   1.395  13.002
24914W        W86577  35.094  41.350  12.917
24915W        W86578  38.560  32.907  10.440
24916W        W86579  10.254  42.799  11.962
24917W        W86580  44.274  24.183  10.451
24918W        W86581  19.729  19.081   3.785
24919W        W86582  14.124  44.398   4.123
24920W        W86583  18.141  36.395   4.707
24921W        W86584   3.906  31.964   3.796
24922W        W86585   1.812  40.801  14.917
24923W        W86586  41.395  38.443  12.558
24924W        W86587   9.392  33.048  11.602
24925W        W86588  39.490   4.428   0.255
24926W        W86589  35.460  13.674  12.962
24927W        W86590  24.665  42.793   2.721
24928W        W86591  32.503  39.341   3.256
24929W        W86592  26.642  16.106  10.405
24930W        W86593   6.237  21.729  13.892
24931W        W86594   6.254   5.320   0.322
24932W        W86595  18.610  36.928   4.200
24933W        W86596   0.864   0.930   1.346
24934W        W86597  44.961  37.938   3.229
24935W        W86598   9.301  13.639   3.857
24936W        W86599   4.932   1.770   5.193
24937W        W86600  27.503  16.118  11.006
24938W        W86601  12.788  15.203   3.721
24939W        W86602   5.795  17.264   0.352
24940W        W86603  17.145  41.959   2.317
24941W        W86604  43.765  19.276  11.098
24942W        W86605  36.378  15.322  14.802
24943W        W86606  23.200   2.906   0.429
24944W        W86607  13.134  35.429   4.314
24945W        W86608   2.338  15.155  12.361
24946W        W86609  29.620  27.126  10.949
24947W        W86610  33.020  18.196   0.370
24948W        W86611  21.043  34.535  14.938
24949W        W86612  34.971  32.587   2.326
24950W        W86613  34.008   3.238  13.827
24951W        W86614  11.642  43.894  13.524
24952W        W86615  17.165  13.746  11.119
24953W        W86616  35.984   8.693  14.950
24954W        W86617  41.044  32.035   0.262
24955W        W86618  39.339   7.252  14.330
24956W        W86619   4.749   6.199   5.299
24957W        W86620  31.578   4.276  12.892
24958W        W86621  42.794  39.034  12.909
24959W        W86622  29.642  32.492  13.901
24960W        W86623   7.363  11.701   0.348
24961W        W86624  30.926  11.700   4.182
24962W        W86625  18.637  25.709  10.535
24963W        W86626  15.616  13.691   1.241
24964W        W86627  44.778   6.699  13.991
24965W        W86628  33.915  23.725   3.301
24966W        W86629   3.950  40.378  10.981
24967W        W86630  16.632  42.849  10.471
24968W        W86631  44.969  28.122  13.453
24969W        W86632  30.541  24.565  10.908
24970W        W86633  32.130  13.341  12.864
24971W        W86634  28.937  26.185  11.125
24972W        W86635  31.972   0.962  11.556
24973W        W86636   1.734   5.419   2.231
24974W        W86637  42.811  21.743   0.883
24975W        W86638  24.221   6.769  13.442
24976W        W86639   1.740  43.015  11.913
24977W        W86640  12.307  36.092   3.214
24978W        W86641   8.749  43.989  10.590
24979W        W86642   2.854  28.177  13.970
24980W        W86643  26.047  43.297   0.293
24981W        W86644  10.253  11.784  13.328
24982W        W86645  23.604  36.901   2.313
24983W        W86646   4.261  19.065  10.594
24984W        W86647  16.151  10.868  10.412
24985W        W86648  38.964  40.359  12.910
24986W        W86649  16.253  41.037  10.476
24987W        W86650  44.297  35.978   2.205
24988W        W86651  31.604  25.140  11.887
24989W        W86652  43.814  18.164   2.308
24990W        W86653   9.385   6.860  11.982
24991W        W86654   1.879  11.744   0.303
24992W        W86655  39.534  43.356  12.501
24993W        W86656  37.882   8.669   9.619
24994W        W86657  10.377  40.507   1.418
24995W        W86658  19.689  19.593  11.389
24996W        W86659  38.539  42.524  14.458
24997W        W86660   5.860  24.171   0.307
24998W        W86661  24.038  22.236   0.827
24999W        W86662  28.458  28.638   0.466
25000W        W86663  39.042  39.975   0.874
25001W        W86664  39.926  36.582   2.366
25002W        W86665  23.555  43.015   1.247
25003W        W86666  24.011   1.861   3.764
25004W        W86667  41.818  24.658  12.406
25005W        W86668  34.574  37.425   3.850
25006W        W86669  43.819  42.351   4.347
25007W        W86670  34.545   1.762  13.035
25008W        W86671  12.197  12.312  13.902
25009W        W86672  44.494  18.576   0.949
25010W        W86673  20.699  31.611  10.993
25011W        W86674  15.673   0.979  13.799
25012W        W86675  20.029  23.658  11.499
25013W        W86676   3.770   9.872  11.947
25014W        W86677  41.466   5.283  14.881
25015W        W86678   9.233   2.231   2.248
25016W        W86679  29.638   4.411  12.094
25017W        W86680  29.991  40.038   3.818
25018W        W86681  31.485   6.906  14.372
25019W        W86682  19.692  23.055  11.951
25020W        W86683  29.095  30.466  12.054
25021W        W86684  35.414   0.789   0.773
25022W        W86685  17.768  10.675   2.892
25023W        W86686   7.883  40.416   4.300
25024W        W86687   4.347  26.091  13.401
25025W        W86688  24.515  24.082   1.451
25026W        W86689   0.440  22.124  10.415
25027W        W86690  32.572   1.824   0.284
25028W        W86691   6.341  13.171   1.425
25029W        W86692  17.600  13.708   0.785
25030W        W86693   3.880  26.548   4.323
25031W        W86694  41.875  34.613   3.334
25032W        W86695  21.176  42.374  11.018
25033W        W86696  31.617  13.206   1.305
25034W        W86697  14.276   7.267  13.955
25035W        W86698  24.625  20.692  10.570
25036W        W86699  33.124  37.572   2.360
25037W        W86700  39.847  39.001  11.878
25038W        W86701  27.458  42.424  12.543
25039W        W86702  33.576  27.690   3.290
25040W        W86703  40.541  11.650   4.789
25041W        W86704  27.952  28.001   4.699
25042W        W86705  44.497  35.895   4.323
25043W        W86706  19.243  43.344  12.978
25044W        W86707  30.109   6.185   4.656
25045W        W86708  30.935  10.772  11.595
25046W        W86709  44.820   8.710  11.037
25047W        W86710  26.977   5.867  12.489
25048W        W86711  32.021  13.303  11.056
25049W        W86712  26.171  43.483  10.011
25050W        W86713  10.193  40.857  13.482
25051W        W86714  38.971   7.823  12.365
25052W        W86715  41.445  36.568   0.782
25053W        W86716  11.206  31.045   1.700
25054W        W86717  43.794  33.019  10.541
25055W        W86718  30.977  24.081   2.316
25056W        W86719   0.824  27.197   0.895
25057W        W86720   9.706  44.395   0.807
25058W        W86721  41.954  14.319   1.761
25059W        W86722  27.103   5.758   1.333
25060W        W86723   6.761  41.329  12.392
25061W        W86724  30.093  41.380   4.672
25062W        W86725  37.967   8.276   1.798
25063W        W86726  20.757  14.725   0.737
25064W        W86727  31.963  18.218  10.150
25065W        W86728  21.650  39.548   0.961
25066W        W86729   9.740  14.260  10.429
25067W        W86730  12.677  32.577  13.915
25068W        W86731  10.709  15.140  12.517
25069W        W86732   5.230   9.767  11.035
25070W        W86733  28.507   0.848   1.387
25071W        W86734  29.942   3.769   2.888
25072W        W86735  23.686   9.715  13.042
25073W        W86736  29.107  19.609   1.226
25074W        W86737  23.224  22.520  14.771
25075W        W86738  37.936  44.459   1.834
25076W        W86739  25.569  27.091  10.954
25077W        W86740  28.035   3.746   3.156
25078W        W86741  13.636  33.550   1.930
25079W        W86742   5.843   2.455  10.964
25080W        W86743  36.466   2.361  11.519
25081W        W86744  16.303  23.166   0.784
25082W        W86745  40.335  36.516   0.333
25083W        W86746  35.928  35.427   1.284
25084W        W86747  27.151  15.709  11.983
25085W        W86748  24.004   0.834   4.202
25086W        W86749  18.146  20.760  12.573
25087W        W86750  10.690   6.691   9.462
25088W        W86751  11.185  15.816  11.603
25089W        W86752  37.503   8.802  12.038
25090W        W86753   8.890  41.825  13.866
25091W        W86754   4.914  12.123   3.758
25092W        W86755  30.950   7.396  13.321
25093W        W86756  40.046   4.703  11.040
25094W        W86757  26.151  31.419   1.824
25095W        W86758   6.418  35.105   3.634
25096W        W86759  28.539  13.720  14.951
25097W        W86760  16.676  19.278  13.421
25098W        W86761  11.635  29.592   4.813
25099W        W86762   4.334  43.848  14.483
25100W        W86763  41.522   1.876  11.558
25101W        W86764   0.439  44.948  10.634
25102W        W86765  36.055  32.426  10.615
25103W        W86766   9.729   9.345   1.736
25104W        W86767   4.440  11.718  12.921
25105W        W86768  26.102  21.643   1.775
25106W        W86769  26.066   0.842   2.741
25107W        W86770  33.901   8.815   1.811
25108W        W86771  38.364  24.591  14.931
25109W        W86772  31.120   9.783   0.349
25110W        W86773  14.202   8.171  13.383
25111W        W86774  32.614  24.227  10.028
25112W        W86775   9.666  23.718   4.125
25113W        W86776  11.693  13.817  10.553
25114W        W86777  17.197  23.114   2.400
25115W        W86778   8.744  29.569   4.115
25116W        W86779   2.454  13.623  10.895
25117W        W86780  40.860   7.896   3.698
25118W        W86781  20.711   1.340   9.965
25119W        W86782   5.334  22.010  10.998
25120W        W86783  21.709   6.214  14.792
25121W        W86784  44.428  25.055   0.242
25122W        W86785  41.534  11.149  13.847
25123W        W86786  22.729  40.486  13.475
25124W        W86787  32.598  19.697  11.480
25125W        W86788   8.259  36.067  10.917
25126W        W86789  34.540  25.496  12.051
25127W        W86790  13.105  22.125   0.741
25128W        W86791   3.415   4.837  11.899
25129W        W86792  21.621  37.520  13.312
25130W        W86793  20.737  22.518  13.803
25131W        W86794  42.835  36.991  11.412
25132W        W86795  41.950  34.962  12.828
25133W        W86796  30.132  32.515  12.570
25134W        W86797  23.551  12.179   0.961
25135W        W86798  18.152  41.846   1.700
25136W        W86799  44.770  41.401  10.526
25137W        W86800  15.775  44.318   2.894
25138W        W86801  42.408  20.235  11.414
25139W        W86802  38.985  18.667  13.362
25140W        W86803  25.162  11.301   0.871
25141W        W86804   9.761  32.928  13.022
25142W        W86805  26.116  39.941   2.392
25143W        W86806  20.580  31.920   3.175
25144W        W86807  35.390  17.235   3.386
25145W        W86808  40.020  32.140  14.907
25146W        W86809  35.933   6.309  14.883
25147W        W86810   8.342  40.352  14.002
25148W        W86811  11.172  13.622  12.048
25149W        W86812  43.785  44.882   1.303
25150W        W86813   6.863   6.272  12.004
25151W        W86814  44.890  40.919  13.392
25152W        W86815  27.665  24.986   1.348
25153W        W86816  12.797  10.713   1.369
25154W        W86817  16.662  16.600   3.263
25155W        W86818  31.635   1.285   2.832
25156W        W86819  42.432  34.581  13.043
25157W        W86820  39.342   8.801   4.634
25158W        W86821   5.756  22.036  12.010
25159W        W86822  39.427  22.053  12.895
25160W        W86823   4.218  10.377  10.621
25161W        W86824  34.943  24.541   0.266
25162W        W86825  33.565  34.458   3.148
25163W        W86826  30.927  42.974   5.193
25164W        W86827  23.708   1.377   4.791
25165W        W86828  29.959  43.400   4.636
25166W        W86829  22.672  40.316   1.315
25167W        W86830  10.764  11.864  11.523
25168W        W86831  26.474  36.399  11.486
25169W        W86832  32.069  41.817  10.531
25170W        W86833  34.894  14.685  12.456
25171W        W86834   6.414  40.321   4.631
25172W        W86835  22.538  29.443  14.383
25173W        W86836  35.526  20.233   5.658
25174W        W86837  27.148  21.186  10.457
25175W        W86838   5.744   4.732  14.973
25176W        W86839  36.879  25.657   1.743
25177W        W86840   2.303  23.093  13.350
25178W        W86841  38.990  30.092  12.851
25179W        W86842  43.990  41.901  13.991
25180W        W86843  14.116  40.014   3.686
25181W        W86844  41.958  28.616   3.774
25182W        W86845  17.189  35.034   1.866
25183W        W86846   1.917  22.082  11.940
25184W        W86847  30.993  30.937   2.254
25185W        W86848   7.683  28.980  12.899
25186W        W86849  10.173  34.012  11.082
25187W        W86850  36.917  20.134  12.038
25188W        W86851  27.187   2.250   3.160
25189W        W86852   3.893  35.584   2.883
25190W        W86853  36.884  35.599  11.404
25191W        W86854  37.401  35.084   1.849
25192W        W86855  33.452  21.532  14.374
25193W        W86856  10.320  10.818  14.974
25194W        W86857   3.348  41.929   0.859
25195W        W86858  19.100  30.103   3.653
25196W        W86859  35.951   2.867   4.190
25197W        W86860  16.732  31.970   3.848
25198W        W86861   3.853  24.537  14.449
25199W        W86862  22.223  37.959   3.860
25200W        W86863   5.342  37.399  13.956
25201W        W86864   2.465  38.442  11.373
25202W        W86865  43.991  30.457   3.849
25203W        W86866  30.110   6.410  13.914
25204W        W86867  38.500  10.200   3.313
25205W        W86868   7.679  43.428   0.416
25206W        W86869  41.529   9.724   4.270
25207W        W86870   3.380  23.634  13.023
25208W        W86871  44.963  21.695  11.485
25209W        W86872   9.826  36.098   0.297
25210W        W86873   2.867   1.917   3.192
25211W        W86874  10.664  16.660   4.269
25212W        W86875   7.175  25.535   1.425
25213W        W86876  19.715  23.511   2.796
25214W        W86877  37.945   3.867  11.968
25215W        W86878   1.374  13.800   4.628
25216W        W86879  42.337  21.254  12.962
25217W        W86880  14.642  32.398   0.417
25218W        W86881  26.164  28.652   3.237
25219W        W86882  10.695  29.045  13.947
25220W        W86883  43.992  18.170  12.868
25221W        W86884  38.333   8.712  14.019
25222W        W86885  28.932  43.940   0.943
25223W        W86886  35.421  27.456   1.820
25224W        W86887  22.134  40.353  10.488
25225W        W86888   6.428   1.473   4.703
25226W        W86889  24.505   6.218  14.804
25227W        W86890  31.054  22.654  12.067
25228W        W86891  40.534  43.436   0.274
25229W        W86892  20.115  17.184  14.911
25230W        W86893   0.957  10.216   4.254
25231W        W86894  21.630   5.435  11.992
25232W        W86895   3.753  26.640   0.894
25233W        W86896  26.646  15.329  11.393
25234W        W86897  42.433  40.521   4.718
25235W        W86898  12.830   4.255  11.403
25236W        W86899  28.021  16.125   0.961
25237W        W86900  35.958  39.928   1.341
25238W        W86901  19.593  39.380  12.380
25239W        W86902  34.037  32.519  11.935
25240W        W86903  11.274  14.226  10.977
25241W        W86904  39.922  44.268  12.903
25242W        W86905  34.934  33.124   0.382
25243W        W86906  22.677   1.358   3.270
25244W        W86907   3.305  41.494   2.304
25245W        W86908   1.758  37.562  14.928
25246W        W86909  38.476  33.578   2.890
25247W        W86910  24.073  44.786   3.212
25248W        W86911  26.472  36.371   0.840
25249W        W86912  40.007  37.359  12.467
25250W        W86913  39.944  31.137  13.345
25251W        W86914  11.624   9.322   3.197
25252W        W86915  26.106  19.138   1.699
25253W        W86916  14.795  15.660   1.870
25254W        W86917   2.725  15.100   3.212
25255W        W86918   7.290  21.737   2.281
25256W        W86919  15.657   4.316   2.367
25257W        W86920  10.250   6.301   0.932
25258W        W86921  42.438   6.850   3.303
25259W        W86922  38.490  33.485  11.011
25260W        W86923  27.614  25.644   4.317
25261W        W86924  41.003  19.256  14.419
25262W        W86925  34.869  27.497  11.592
25263W        W86926  37.019  36.030   0.931
25264W        W86927  17.777  26.507  12.515
25265W        W86928  26.094  11.173   2.773
25266W        W86929  18.597   1.743   3.360
25267W        W86930  28.117  37.013  10.483
25268W        W86931  21.149  19.774   1.240
25269W        W86932  30.157  20.235  14.298
25270W        W86933  38.820  24.015  11.376
25271W        W86934   8.296   3.936  11.999
25272W        W86935  13.309  11.799   2.186
25273W        W86936   3.425  17.273  11.403
25274W        W86937  38.922  21.637   4.785
25275W        W86938  24.143  37.915   2.387
25276W        W86939  37.412  35.560  14.315
25277W        W86940  37.930   4.347   1.250
25278W        W86941  39.962   0.264   0.381
25279W        W86942   2.319  15.268   3.212
25280W        W86943  18.239  12.277  13.467
25281W        W86944  11.159  25.634   1.717
25282W        W86945  44.933  41.993  12.556
25283W        W86946  30.484  36.374   0.298
25284W        W86947  43.401  17.209   2.897
25285W        W86948  27.975  44.291  11.413
25286W        W86949  17.756  23.708   3.339
25287W        W86950   4.930  32.518  11.554
25288W        W86951  25.633  16.684  13.328
25289W        W86952   8.283  30.023  14.373
25290W        W86953  44.420  20.191  12.521
25291W        W86954  39.465   3.948   3.208
25292W        W86955  23.735  36.994   0.452
25293W        W86956  40.948  11.659  11.507
25294W        W86957   0.748  27.477  10.963
25295W        W86958   7.369  24.051   3.871
25296W        W86959  35.861  10.372   4.239
25297W        W86960  18.737  43.286  13.425
25298W        W86961  11.648   5.699   2.899
25299W        W86962  10.784  12.308   4.244
25300W        W86963  35.498   2.429   1.862
25301W        W86964  38.864  27.504  14.502
25302W        W86965  31.578   8.285  13.793
25303W        W86966   8.290   6.715  10.513
25304W        W86967   3.349  40.357   4.823
25305W        W86968  23.663   4.858  10.029
25306W        W86969  17.582  36.453  14.007
25307W        W86970  23.115   3.383  12.050
25308W        W86971   6.805  32.548  11.889
25309W        W86972  24.488  15.260   3.643
25310W        W86973  41.941  22.655   0.287
25311W        W86974  22.620  34.984   5.111
25312W        W86975  42.470  29.660  12.943
25313W        W86976  25.080  11.236  14.290
25314W        W86977  21.057  30.587  10.472
25315W        W86978  35.398  33.019  12.985
25316W        W86979  28.164  14.181  12.082
25317W        W86980  32.401  38.325   4.113
25318W        W86981  13.226  23.564  13.815
25319W        W86982   0.809  40.807   0.728
25320W        W86983   3.245  28.035   3.265
25321W        W86984   9.760  24.665   2.349
25322W        W86985  17.735  21.619   4.836
25323W        W86986   1.394  34.535  12.380
25324W        W86987  21.025  25.016   9.958
25325W        W86988  16.186  28.510  11.093
25326W        W86989   7.347  19.545  11.484
25327W        W86990  29.568  27.055  13.509
25328W        W86991   5.929  30.001   2.193
25329W        W86992  11.293   3.922   1.310
25330W        W86993  44.993  14.093   2.706
25331W        W86994   4.780  43.483   4.124
25332W        W86995  17.184  19.567   0.821
25333W        W86996  21.640  44.288  13.525
25334W        W86997   3.364  44.842   3.861
25335W        W86998  33.575  12.656   2.239
25336W        W86999  29.095   2.877  14.829
25337W        W87000   7.388  36.031   0.352
25338W        W87001  38.457   4.397  12.987
25339W        W87002  37.926  14.628   4.809
25340W        W87003  21.088  24.647   3.685
25341W        W87004  43.391  19.045  10.912
25342W        W87005  44.325  16.577   9.968
25343W        W87006   8.191  12.693  12.469
25344W        W87007   9.153  44.970   2.731
25345W        W87008  20.719   9.217  11.478
25346W        W87009  33.495   4.434   0.382
25347W        W87010   3.461   9.346   1.291
25348W        W87011   9.369  29.175  12.889
25349W        W87012  22.141  31.440  14.319
25350W        W87013  35.423   9.854  12.383
25351W        W87014  26.492  22.628  10.607
25352W        W87015  40.870   7.385   3.369
25353W        W87016  26.077  24.535  13.405
25354W        W87017  15.739  22.656   1.828
25355W        W87018   0.827  21.159  10.039
25356W        W87019  12.170  44.874  13.523
25357W        W87020   0.347  33.001  13.062
25358W        W87021   2.748  29.026  12.533
25359W        W87022  19.618  19.578  12.932
25360W        W87023  34.047  39.837   0.410
25361W        W87024  37.839  26.519  14.304
25362W        W87025   2.335  41.537   0.431
25363W        W87026  27.572  38.002   2.332
25364W        W87027  11.716  44.960   1.910
25365W        W87028  12.238  12.297  14.287
25366W        W87029  38.850  12.666   3.347
25367W        W87030  22.504   0.896  10.993
25368W        W87031  23.229  14.681  12.550
25369W        W87032   0.968   1.244   3.289
25370W        W87033  13.649  20.216   2.415
25371W        W87034  43.997   1.818  10.543
25372W        W87035   9.727  35.098   4.249
25373W        W87036  34.431  40.037   2.681
25374W        W87037  12.742  19.588  14.802
25375W        W87038  13.311  32.608  11.090
25376W        W87039  30.121  12.153   0.468
25377W        W87040   4.419  30.482   4.814
25378W        W87041  37.397  17.723  11.070
25379W        W87042  21.592   9.165   3.297
25380W        W87043   3.872  13.837  13.954
25381W        W87044  30.651  24.056  14.374
25382W        W87045   7.265  36.927  12.088
25383W        W87046  24.571  20.725   0.453
25384W        W87047  23.677   1.432   4.341
25385W        W87048   9.164   7.297  11.980
25386W        W87049  37.547  18.247   0.355
25387W        W87050  32.576   1.442  13.935
25388W        W87051  44.314  21.085  12.552
25389W        W87052   4.430  32.571   1.766
25390W        W87053  39.034  44.456   2.737
25391W        W87054   0.431  20.623   1.892
25392W        W87055   9.267  26.975  11.945
25393W        W87056  40.922  32.574  14.986
25394W        W87057  35.868  27.465  11.607
25395W        W87058   0.484  23.095  13.515
25396W        W87059  12.682  26.644  14.007
25397W        W87060   1.766   8.703  11.029
25398W        W87061   2.834  14.635   3.709
25399W        W87062   2.409  20.647  13.849
25400W        W87063   4.883  29.539  13.817
25401W        W87064  23.056  21.586   1.750
25402W        W87065   3.827  19.284  12.359
25403W        W87066  24.498  38.507  10.638
25404W        W87067  40.399  22.656   1.816
25405W        W87068  32.550  17.615  12.921
25406W        W87069   2.812  10.316  13.891
25407W        W87070  13.170  36.919   2.727
25408W        W87071  13.749  15.121  13.866
25409W        W87072  29.098  25.075  13.357
25410W        W87073   8.245  16.252  12.522
25411W        W87074   3.860  32.952  10.585
25412W        W87075  38.043   4.211  13.049
25413W        W87076  25.205  37.015   4.697
25414W        W87077  27.055  22.638  12.980
25415W        W87078   1.830  31.031  10.476
25416W        W87079  43.958  34.969   3.295
25417W        W87080   1.408   1.972   4.336
25418W        W87081  34.918  26.099   0.300
25419W        W87082  42.291  30.126  14.368
25420W        W87083  24.513  39.436   3.743
25421W        W87084  11.866  26.963   3.292
25422W        W87085  30.122   2.754   2.395
25423W        W87086  24.029  22.126  10.558
25424W        W87087  19.273  13.303  14.868
25425W        W87088   4.719  42.420  10.149
25426W        W87089  16.801  24.665  12.460
25427W        W87090  37.985   3.299  13.469
25428W        W87091  28.116  33.005   0.858
25429W        W87092  10.798  31.615   0.381
25430W        W87093  33.543   1.273   0.479
25431W        W87094   2.377   6.342   1.835
25432W        W87095  23.203   2.471   3.719
25433W        W87096   7.225   4.372  11.446
25434W        W87097   5.409  17.119   1.738
25435W        W87098  38.879  25.974  12.483
25436W        W87099  17.565  12.353   9.948
25437W        W87100   9.840   1.419  10.980
25438W        W87101  18.166  28.497  10.491
25439W        W87102   8.857  26.155   2.715
25440W        W87103   9.164  32.467   3.216
25441W        W87104  16.786   8.893  11.522
25442W        W87105  14.114  26.036   3.249
25443W        W87106   4.239  13.630  13.449
25444W        W87107  21.586  43.992   2.801
25445W        W87108  11.767   2.784   1.328
25446W        W87109  29.449   3.951   3.801
25447W        W87110  22.563  38.342   3.302
25448W        W87111  32.428  25.632  11.940
25449W        W87112  17.244   4.239  14.465
25450W        W87113  28.561  37.012  12.081
25451W        W87114   9.351  22.567  11.976
25452W        W87115  12.279  31.617   1.766
25453W        W87116  26.475  22.535  10.936
25454W        W87117  18.624  31.956  14.005
25455W        W87118  41.007   8.379   2.800
25456W        W87119  14.755   6.245  13.984
25457W        W87120  22.006   6.765   0.342
25458W        W87121  14.600  32.923  11.060
25459W        W87122  21.722  20.188   3.372
25460W        W87123  18.646  31.910  14.360
25461W        W87124  37.015  25.694   3.307
25462W        W87125  35.048   5.729   0.771
25463W        W87126  20.735  11.786   3.377
25464W        W87127   3.893   7.235  14.430
25465W        W87128   7.840  42.869   1.415
25466W        W87129  43.019  37.448  10.422
25467W        W87130  36.463  36.512  14.910
25468W        W87131   4.398  20.174   3.245
25469W        W87132  14.114  23.241  13.931
25470W        W87133   5.435  29.613  12.867
25471W        W87134  41.395  35.552  14.946
25472W        W87135  35.072  38.888   0.838
25473W        W87136  39.319   7.814  12.033
25474W        W87137  23.071  31.439   0.883
25475W        W87138  37.833  11.249   1.785
25476W        W87139  41.868  22.038  10.578
25477W        W87140  34.581   3.222  10.072
25478W        W87141  37.063   1.878  12.385
25479W        W87142   7.762  43.340  11.100
25480W        W87143  42.007   5.800   2.793
25481W        W87144  40.492  33.993  14.769
25482W        W87145  30.455  22.205   0.465
25483W        W87146  39.929  32.567   0.355
25484W        W87147  27.450  41.937   4.122
25485W        W87148  35.053  39.821  12.917
25486W        W87149  39.852  16.717  11.102
25487W        W87150  24.637  32.894   4.253
25488W        W87151  12.813  22.734  11.413
25489W        W87152  24.194   2.271   0.285
25490W        W87153  33.564  42.836   5.245
25491W        W87154   0.410   6.732   2.890
25492W        W87155  13.834  16.304   4.280
25493W        W87156  12.333   3.347   4.347
25494W        W87157  30.944  31.464   3.777
25495W        W87158  42.404  30.557  14.366
25496W        W87159  20.092  18.267  14.344
25497W        W87160   7.262  16.694   0.956
25498W        W87161  36.524  12.716   5.145
25499W        W87162  42.868  32.083  14.781
25500W        W87163  39.883  30.414   0.753
25501W        W87164   4.276   8.263  11.568
25502W        W87165  38.345  17.243   3.360
25503W        W87166   8.336  32.523  14.484
25504W        W87167   1.341   1.973   3.655
25505W        W87168  25.610  11.281   0.873
25506W        W87169  19.120  30.997  13.335
25507W        W87170  38.542  12.614   0.796
25508W        W87171  31.989  28.040   0.871
25509W        W87172  20.156   6.426   4.670
25510W        W87173  32.068  35.014   0.267
25511W        W87174  29.033  19.054  12.049
25512W        W87175  25.665  29.955   3.631
25513W        W87176  19.692  37.844  11.430
25514W        W87177  40.038  14.253  12.356
25515W        W87178  35.412   6.350  13.335
25516W        W87179  18.249  19.226   1.801
25517W        W87180   8.227  40.485  13.437
25518W        W87181  23.999   4.423  10.448
25519W        W87182  26.161  28.585  11.469
25520W        W87183  12.771   4.867  12.932
25521W        W87184  28.137   0.940  14.790
25522W        W87185  26.058  21.062  14.301
25523W        W87186  10.848  40.466   1.831
25524W        W87187  42.514   0.950  10.468
25525W        W87188  26.187  24.653   5.316
25526W        W87189  24.506  42.396   3.356
25527W        W87190  11.341   5.741   2.238
25528W        W87191  44.966  43.311   3.697
25529W        W87192  16.715   4.939  11.123
25530W        W87193  35.576   9.160   1.389
25531W        W87194  21.101  33.982  12.082
25532W        W87195   3.905  42.373   4.627
25533W        W87196  30.926   9.228  11.537
25534W        W87197  44.926  23.116  13.807
25535W        W87198  44.852  26.472   2.188
25536W        W87199  30.584  35.105  11.390
25537W        W87200   5.434  27.503  10.496
25538W        W87201  22.618  11.176   0.820
25539W        W87202  10.361  13.630  14.369
25540W        W87203  38.405  22.575   3.271
25541W        W87204   5.327  36.035  12.949
25542W        W87205   8.326  13.294  14.969
25543W        W87206  43.402  22.652   4.787
25544W        W87207   8.810   0.340  14.425
25545W        W87208  15.255   2.333  12.506
25546W        W87209  38.353   5.872   0.434
25547W        W87210  15.586  10.382   4.351
25548W        W87211   4.343   5.414   2.828
25549W        W87212  10.205  20.747  10.156
25550W        W87213  35.984  38.381   2.273
25551W        W87214  41.496   4.230  11.066
25552W        W87215  36.564  35.867   3.235
25553W        W87216  20.146  28.577   0.361
25554W        W87217  41.924   7.184  11.952
25555W        W87218  20.105  30.651  12.865
25556W        W87219  36.071  30.989   2.856
25557W        W87220  41.405  26.151   3.243
25558W        W87221   2.312   4.280  14.482
25559W        W87222  38.067  18.584  10.447
25560W        W87223  38.499  24.606  14.429
25561W        W87224  28.065  14.774  14.765
25562W        W87225  28.008  31.497   3.207
25563W        W87226  43.492  24.103   1.930
25564W        W87227  31.639   4.380  14.984
25565W        W87228  40.859  13.600   2.357
25566W        W87229  29.944  12.803   3.249
25567W        W87230  23.015  40.356  12.979
25568W        W87231  13.153  20.089   3.383
25569W        W87232  22.540  43.510  13.493
25570W        W87233  35.418   9.221  12.005
25571W        W87234  11.141  41.511   1.424
25572W        W87235  37.375  20.660   2.708
25573W        W87236  25.555  30.130  11.383
25574W        W87237  44.312  18.685  10.458
25575W        W87238  14.134  27.667  14.948
25576W        W87239  42.518  21.135   4.788
25577W        W87240  16.620  24.063   3.653
25578W        W87241  43.492   0.255  13.524
25579W        W87242  11.857  42.445   1.398
25580W        W87243  26.697  37.015   4.822
25581W        W87244  35.416  35.357   2.364
25582W        W87245  10.348  25.965   3.370
25583W        W87246  16.584  34.480   2.664
25584W        W87247  25.471  26.596  14.800
25585W        W87248  42.930  20.612   0.352
25586W        W87249  18.588  27.553   0.740
25587W        W87250  24.220  31.578   1.270
25588W        W87251  32.590  14.802  11.046
25589W        W87252  20.257  18.784  14.019
25590W        W87253  34.474  24.626  14.004
25591W        W87254  28.649   8.275  12.449
25592W        W87255  12.818  18.785  10.440
25593W        W87256  13.800  21.526  14.884
25594W        W87257  34.584  42.851  13.869
25595W        W87258  42.863  11.630  11.899
25596W        W87259  37.449  14.261  13.366
25597W        W87260  30.991  33.021  10.590
25598W        W87261  20.153  22.671  14.859
25599W        W87262  41.796  13.631  12.069
25600W        W87263   6.235  41.367  11.065
25601W        W87264  15.786   5.271   1.834
25602W        W87265  43.842   8.263   2.325
25603W        W87266  35.583  33.542   4.779
25604W        W87267  37.032  12.658  13.064
25605W        W87268  38.920  12.645  11.506
25606W        W87269  15.643  43.941  11.434
25607W        W87270   7.670  40.354  10.120
25608W        W87271  36.587   5.857   1.293
25609W        W87272  43.507  36.360  14.917
25610W        W87273  18.279  16.301   0.287
25611W        W87274  42.808  15.821   9.982
25612W        W87275  15.188  13.317  13.999
25613W        W87276  25.119  37.534   0.788
25614W        W87277  23.232  24.623  11.111
25615W        W87278  16.122  23.102   3.844
25616W        W87279  38.397  13.771  13.916
25617W        W87280  40.372  17.635  13.451
25618W        W87281   0.269  22.680   3.836
25619W        W87282  44.489  11.695  14.346
25620W        W87283  14.642  16.178  10.576
25621W        W87284  11.627  18.707   4.209
25622W        W87285  11.146  28.614  11.476
25623W        W87286  17.569  31.491   1.806
25624W        W87287  12.719  16.181   1.868
25625W        W87288   7.850  37.514  11.912
25626W        W87289  19.042  18.122   0.737
25627W        W87290  21.582  42.476  11.611
25628W        W87291  21.178  10.322   3.753
25629W        W87292   1.760  20.170  11.106
25630W        W87293   1.877   2.831  10.981
25631W        W87294   0.920  39.818  14.506
25632W        W87295  31.126  34.106  12.016
25633W        W87296  33.937  20.074   0.353
25634W        W87297  42.527   9.323   0.919
25635W        W87298  33.992  14.337  14.025
25636W        W87299  42.008  15.205   0.349
25637W        W87300  37.412   1.922   0.293
25638W        W87301   3.934   7.245   2.191
25639W        W87302  21.244  20.657  12.425
25640W        W87303  39.980  37.400   1.234
25641W        W87304  15.100  41.830  11.956
25642W        W87305  30.069  33.963   0.412
25643W        W87306  42.301  25.174   4.197
25644W        W87307   9.708   1.447   4.327
25645W        W87308  33.519  42.401  11.872
25646W        W87309  19.737  22.512   1.375
25647W        W87310   8.278  15.329   1.217
25648W        W87311  18.776   8.701   0.750
25649W        W87312  21.241  27.968  14.019
25650W        W87313   3.448  35.074   2.409
25651W        W87314   1.422  19.201   2.833
25652W        W87315  28.129  10.797  13.313
25653W        W87316   3.287  41.020  14.327
25654W        W87317  13.751   0.434  12.009
25655W        W87318  37.935  39.859   0.356
25656W        W87319  27.098  41.958   3.713
25657W        W87320  11.343  18.070  12.470
25658W        W87321  42.504  11.810  14.452
25659W        W87322  20.705   6.309   3.372
25660W        W87323  38.969  40.886  12.024
25661W        W87324  27.691  37.539   2.821
25662W        W87325  25.513  18.645   0.415
25663W        W87326  22.500  13.611   2.737
25664W        W87327   8.332  40.392   4.150
25665W        W87328  28.546  27.582   0.387
25666W        W87329   4.283  30.586   2.263
25667W        W87330  22.515   5.884  10.968
25668W        W87331  16.775  14.104   3.374
25669W        W87332  37.338   5.228   0.762
25670W        W87333  11.799  30.973  13.349
25671W        W87334  39.941   8.829   4.236
25672W        W87335  34.071  13.323  11.488
25673W        W87336  34.960  25.969  14.396
25674W        W87337   5.251  11.236  14.008
25675W        W87338  13.229  18.645  11.928
25676W        W87339  11.292  39.900  11.570
25677W        W87340  12.700   9.221   0.889
25678W        W87341  35.365  19.277   0.899
25679W        W87342   9.244  16.085   4.272
25680W        W87343   5.835  39.503   1.394
25681W        W87344  37.932  17.238   0.902
25682W        W87345   4.397  33.463   2.373
25683W        W87346   8.863  13.351  14.320
25684W        W87347  16.706   1.427  12.374
25685W        W87348   0.288   9.802   2.866
25686W        W87349  42.409  17.706  12.036
25687W        W87350   0.471  32.464  12.010
25688W        W87351  34.608  30.548   4.197
25689W        W87352  30.630   2.895   0.274
25690W        W87353  41.001  41.954   0.792
25691W        W87354  41.935  15.737   1.787
25692W        W87355  17.638  12.798   3.204
25693W        W87356  20.611  12.246  14.325
25694W        W87357   6.384  39.429   4.677
25695W        W87358  13.201  44.361   0.306
25696W        W87359  12.706   2.913   3.291
25697W        W87360  20.175   4.724  12.967
25698W        W87361  34.512  22.551   2.754
25699W        W87362   6.696  16.623   1.849
25700W        W87363  34.587   5.864   1.822
25701W        W87364  10.304  39.825   1.797
25702W        W87365  19.280   9.304   2.870
25703W        W87366  36.900  42.930  10.613
25704W        W87367  39.894  43.856  14.007
25705W        W87368  17.251  12.622  11.007
25706W        W87369  22.195  25.530  10.049
25707W        W87370  18.170  15.167  10.912
25708W        W87371  21.754  15.226   2.821
25709W        W87372   1.791   2.763  12.963
25710W        W87373  40.386  42.321   2.322
25711W        W87374  38.032  38.017  11.377
25712W        W87375  19.148  39.043   1.767
25713W        W87376  30.069   6.799   1.895
25714W        W87377  17.793  37.836  14.512
25715W        W87378  21.056   5.351  12.545
25716W        W87379   5.422  16.270  11.521
25717W        W87380  34.031  15.307  10.997
25718W        W87381  22.505   7.835   4.341
25719W        W87382   1.837   0.338  12.541
25720W        W87383  22.128  13.288  14.846
25721W        W87384   8.378   5.355   2.344
25722W        W87385  14.185  32.483   1.322
25723W        W87386  17.205  15.668  14.362
25724W        W87387  11.709  40.524  12.403
25725W        W87388  28.577  33.481   3.324
25726W        W87389  17.686  39.446  10.028
25727W        W87390  43.418   9.375   0.266
25728W        W87391  31.025  18.599   3.296
25729W        W87392  34.944   9.724  14.793
25730W        W87393  21.142  25.132  10.573
25731W        W87394  15.164  39.022  12.961
25732W        W87395  41.503  28.491  14.017
25733W        W87396  13.140   2.900   2.229
25734W        W87397  29.428  23.095  12.985
25735W        W87398  11.361  10.267   0.770
25736W        W87399  26.029  12.620  14.385
25737W        W87400  16.191   4.934  12.369
25738W        W87401  30.025  10.727  12.379
25739W        W87402  37.045  33.518   4.291
25740W        W87403  10.234  18.226   0.881
25741W        W87404  27.109  36.000   2.227
25742W        W87405  35.433  23.165  12.840
25743W        W87406  40.980  22.699  14.015
25744W        W87407   1.901  15.122  14.842
25745W        W87408  10.361  27.028  10.016
25746W        W87409  31.918  34.001  13.456
25747W        W87410  38.973  33.499  12.385
25748W        W87411   1.803  13.821   3.679
25749W        W87412  15.138   8.342  14.347
25750W        W87413  29.622  25.103  12.417
25751W        W87414   3.244  32.411  14.297
25752W        W87415   7.870  32.102  13.385
25753W        W87416  28.506  21.523   0.805
25754W        W87417   3.449  42.914  12.484
25755W        W87418  26.045  20.739   2.745
25756W        W87419   5.302   4.799   0.256
25757W        W87420  18.120  36.420  14.405
25758W        W87421  15.700  13.190   1.711
25759W        W87422  13.325  26.974  13.820
25760W        W87423  40.350  19.535   1.829
25761W        W87424  26.488  22.108  13.838
25762W        W87425   3.801   9.685  12.528
25763W        W87426  35.046   5.885   4.836
25764W        W87427  30.590  11.333   4.679
25765W        W87428  43.969  12.133   2.414
25766W        W87429   0.261  12.695   4.341
25767W        W87430  22.061   1.436   1.406
25768W        W87431  30.631  30.470  11.051
25769W        W87432  25.545  27.544  10.930
25770W        W87433  22.106   2.407  13.928
25771W        W87434  22.188  26.565  12.943
25772W        W87435  29.512  10.657   2.796
25773W        W87436   1.425   4.867  11.065
25774W        W87437  30.544  36.363  14.875
25775W        W87438  32.003  37.935   1.792
25776W        W87439  40.470   7.247  12.871
25777W        W87440  17.265  40.355  10.625
25778W        W87441  13.229  41.511  10.111
25779W        W87442  33.108   9.702   1.934
25780W        W87443  26.067   8.396   2.272
25781W        W87444  44.309   6.717  11.093
25782W        W87445  40.885  21.684  10.579
25783W        W87446  44.353   9.176  14.307
25784W        W87447  20.131  13.692  13.052
25785W        W87448   8.674  12.153   1.243
25786W        W87449  33.487  12.263  10.038
25787W        W87450  26.609  15.611   5.261
25788W        W87451  11.233  41.919   4.161
25789W        W87452  39.373  21.744   4.817
25790W        W87453  36.860  17.681  11.916
25791W        W87454   9.866  17.582  11.588
25792W        W87455  39.436  39.850  14.923
25793W        W87456  40.359  16.736  12.832
25794W        W87457  13.336  40.978  10.963
25795W        W87458   2.739  12.759  14.010
25796W        W87459  34.097  37.014   4.267
25797W        W87460  40.971   8.685   1.434
25798W        W87461  20.235  30.433   5.086
25799W        W87462  34.428  14.226   1.843
25800W        W87463  44.433  42.499   3.727
25801W        W87464  20.097   8.344   4.164
25802W        W87465  22.130  24.998  11.411
25803W        W87466  44.890   8.371   2.864
25804W        W87467  28.654  22.005   3.387
25805W        W87468  26.620  26.102  11.516
25806W        W87469  38.371  36.853   4.766
25807W        W87470  28.439  31.578   4.610
25808W        W87471  32.987  21.574   3.644
25809W        W87472  19.709   9.288  12.570
25810W        W87473  25.517  14.328  14.398
25811W        W87474  21.538  28.601   0.378
25812W        W87475   0.861   7.678  10.620
25813W        W87476   1.770   7.343  14.778
25814W        W87477  10.151  27.109   3.664
25815W        W87478  16.167   4.446  12.936
25816W        W87479  13.274  39.429  13.955
25817W        W87480   2.378  16.074   3.743
25818W        W87481  10.140   1.849  11.589
25819W        W87482  23.168   8.340   0.895
25820W        W87483   0.470  19.056   2.220
25821W        W87484  32.961  28.594   0.839
25822W        W87485   5.816  42.001   0.422
25823W        W87486   8.211  30.946   2.370
25824W        W87487   0.844  34.570  10.081
25825W        W87488  40.537  16.174  13.336
25826W        W87489   6.852  34.575   2.724
25827W        W87490   7.402   9.312   2.278
25828W        W87491  40.392   0.427   9.949
25829W        W87492   8.401  33.060  12.041
25830W        W87493  12.700   6.760  11.380
25831W        W87494  38.930  40.522   3.296
25832W        W87495  14.719  26.088  11.492
25833W        W87496  38.010   3.441  14.950
25834W        W87497  30.921  30.945  11.026
25835W        W87498  10.723   0.376  14.975
25836W        W87499  26.056  41.917   4.115
25837W        W87500  17.252  44.484   4.679
25838W        W87501  22.087  12.724   4.829
25839W        W87502  17.572  26.070   1.700
25840W        W87503  26.184  20.688  12.911
25841W        W87504  20.131  36.572   1.319
25842W        W87505  18.747   5.736   3.193
25843W        W87506  22.159  18.054  11.958
25844W        W87507  28.470  41.364   2.728
25845W        W87508  20.620   1.359   4.342
25846W        W87509   5.804  28.501   2.830
25847W        W87510   8.779  17.097   1.719
25848W        W87511  26.018  16.635   2.377
25849W        W87512   1.732  22.243   3.358
25850W        W87513  38.539   9.374  14.001
25851W        W87514  35.476  19.243  10.978
25852W        W87515   4.882  14.225   2.849
25853W        W87516  22.504  14.099   0.266
25854W        W87517  19.055  28.574   2.845
25855W        W87518  37.955  10.229   0.769
25856W        W87519  23.991  38.831   2.206
25857W        W87520  36.522   2.257  13.895
25858W        W87521  33.022   6.377  10.526
25859W        W87522  24.086  13.735   1.255
25860W        W87523  25.175   0.462   3.355
25861W        W87524  33.955   0.259  11.587
25862W        W87525  28.038  20.756   1.829
25863W        W87526  43.394  17.777  11.099
25864W        W87527  14.109  11.772  13.796
25865W        W87528  15.180  15.260  14.455
25866W        W87529  34.883  17.735   3.668
25867W        W87530   1.407  16.669   1.426
25868W        W87531  30.589  25.194   1.813
25869W        W87532  39.860   4.831   3.668
25870W        W87533  19.636   2.319   2.708
25871W        W87534  43.776  30.074   2.356
25872W        W87535   7.743  23.005   0.463
25873W        W87536  22.061  44.356  12.883
25874W        W87537  19.065  25.475  11.517
25875W        W87538   4.784  39.048   3.287
25876W        W87539  15.714  14.774   0.954
25877W        W87540  36.399  11.834   0.783
25878W        W87541  22.197  23.533  13.518
25879W        W87542  40.522  10.743  13.352
25880W        W87543  21.567   4.238   0.401
25881W        W87544  27.976   7.847   3.193
25882W        W87545   9.786   3.432   1.899
25883W        W87546   0.327  28.606   0.904
25884W        W87547  10.254  37.057   1.842
25885W        W87548  13.606  41.472  10.618
25886W        W87549  40.394  24.975  14.378
25887W        W87550  37.832  20.168   4.342
25888W        W87551  17.617  11.316  12.443
25889W        W87552  22.147   0.363  13.931
25890W        W87553  26.485  24.196  13.940
25891W        W87554  12.708  25.120  10.607
25892W        W87555   1.416  32.106   1.701
25893W        W87556   4.276  37.972  14.013
25894W        W87557  14.262  35.374  11.979
25895W        W87558  44.503  14.629  10.604
25896W        W87559  43.516  28.041   4.148
25897W        W87560  21.204   7.674  11.485
25898W        W87561  19.250  36.575   2.818
25899W        W87562   0.386  17.582   4.119
25900W        W87563  28.594  32.036   0.276
25901W        W87564  16.252  21.114  13.808
25902W        W87565  28.644  35.380  12.035
25903W        W87566  24.191  20.179  11.912
25904W        W87567  23.736  11.337  10.528
25905W        W87568   4.735  34.478   9.978
25906W        W87569  42.361  36.056   0.464
25907W        W87570  33.047  41.855  14.012
25908W        W87571  30.595  38.444  14.447
25909W        W87572  33.616  38.537   2.258
25910W        W87573  13.770  29.000  11.551
25911W        W87574  35.101  35.937   4.683
25912W        W87575  24.075  19.775   1.794
25913W        W87576  10.334  34.385  13.036
25914W        W87577  11.844   1.975   2.902
25915W        W87578  21.555  21.140  14.783
25916W        W87579  26.096  29.016   1.812
25917W        W87580  14.614   9.217   3.149
25918W        W87581  11.811  20.139   4.138
25919W        W87582   2.882  39.528  13.948
25920W        W87583  16.226  31.600  13.548
25921W        W87584  24.155  44.885  10.523
25922W        W87585  15.146  36.850  12.567
25923W        W87586  19.107  12.164   9.509
25924W        W87587  38.340  20.713  11.049
25925W        W87588  28.514  28.637   1.223
25926W        W87589  19.266  10.795  14.004
25927W        W87590  20.183   0.919  14.015
25928W        W87591  26.156   5.230  12.898
25929W        W87592  41.347  36.393  13.817
25930W        W87593  36.901  23.145  11.076
25931W        W87594  30.120  12.348  11.030
25932W        W87595  27.554  24.514   9.647
25933W        W87596  29.051  44.814  13.542
25934W        W87597  37.580  36.007   1.907
25935W        W87598  44.445   6.296   4.354
25936W        W87599   0.296  37.576   0.886
25937W        W87600  41.508  27.560   3.377
25938W        W87601  19.648   0.330  13.884
25939W        W87602   4.322   4.342  11.951
25940W        W87603   3.902  33.564   0.440
25941W        W87604  33.429   6.422   3.376
25942W        W87605  14.327   4.323  10.459
25943W        W87606  25.702  26.676   1.805
25944W        W87607   7.391  23.044   4.186
25945W        W87608  17.238  13.315  12.567
25946W        W87609  18.241  20.740  12.825
25947W        W87610   4.420   3.939  10.420
25948W        W87611  30.612  36.847  11.898
25949W        W87612   2.317  41.348   1.854
25950W        W87613  26.152  10.754  13.386
25951W        W87614  12.285  44.385  12.482
25952W        W87615  28.146  38.928  14.936
25953W        W87616   7.386  36.576  14.283
25954W        W87617  28.148  29.660   9.956
25955W        W87618  11.692  10.207  14.916
25956W        W87619   7.369  23.556   4.260
25957W        W87620  38.922  13.827  12.550
25958W        W87621  17.128  24.605  11.045
25959W        W87622   7.249   2.426   0.787
25960W        W87623  43.332   0.344   4.319
25961W        W87624  20.063   1.968  13.533
25962W        W87625  22.249  42.001  14.310
25963W        W87626  41.815  41.988   1.694
25964W        W87627  27.145  43.474  12.961
25965W        W87628  30.095  37.386  14.327
25966W        W87629  35.572   1.473   4.232
25967W        W87630   4.884  43.496   4.781
25968W        W87631  36.985  40.525  12.551
25969W        W87632  22.511  43.929  10.607
25970W        W87633  43.396  20.647  13.436
25971W        W87634  13.622  38.962  10.555
25972W        W87635  10.205  33.946  13.864
25973W        W87636  19.559  26.956  12.932
25974W        W87637  44.889  41.426  12.053
25975W        W87638  40.389  30.055   0.791
25976W        W87639  27.603  31.153  10.617
25977W        W87640  42.413  13.629   2.778
25978W        W87641  14.691   0.885  11.539
25979W        W87642   4.366  22.231  10.999
25980W        W87643  16.102   5.904  14.399
25981W        W87644  17.146  37.986  13.411
25982W        W87645  36.946   8.252  11.516
25983W        W87646  12.129  18.204   0.835
25984W        W87647  42.376  24.565  12.925
25985W        W87648   6.282  40.512   3.848
25986W        W87649  18.243   1.793  11.956
25987W        W87650  11.725  23.183   2.193
25988W        W87651   7.279  23.700   1.714
25989W        W87652  37.534  41.464   4.671
25990W        W87653   8.375  39.997   3.271
25991W        W87654  39.346  14.833   4.342
25992W        W87655  34.084  42.519   3.811
25993W        W87656  28.520  37.557  13.020
25994W        W87657  30.038   0.260   4.193
25995W        W87658   3.270   0.961   0.252
25996W        W87659   6.719  18.205   2.871
25997W        W87660  39.030   5.257   2.341
25998W        W87661   9.685  36.955   3.157
25999W        W87662  31.138  42.917  14.428
26000W        W87663  15.720  35.013   0.774
26001W        W87664  28.049  11.752  11.117
26002W        W87665  19.723  28.437   1.328
26003W        W87666  20.090  23.656  12.940
26004W        W87667  29.070  31.037  11.945
26005W        W87668   5.863  38.010  13.986
26006W        W87669  22.692  39.062  12.463
26007W        W87670  38.843  27.674  11.558
26008W        W87671  44.906  14.108  13.458
26009W        W87672  36.455  35.392  11.520
26010W        W87673  36.482  35.383   1.915
26011W        W87674  37.941  18.170  11.421
26012W        W87675   5.439  44.360  11.900
26013W        W87676  14.786  37.372   1.416
26014W        W87677  36.980  19.159   2.756
26015W        W87678  33.544   0.485  13.984
26016W        W87679   6.416  14.319   3.367
26017W        W87680  32.996  16.086  12.414
26018W        W87681  25.151  19.760   5.313
26019W        W87682   0.771  23.532  12.575
26020W        W87683  14.313  25.147  11.995
26021W        W87684  39.886  23.105   1.858
26022W        W87685  33.537   5.206   0.923
26023W        W87686  13.213  33.891   3.282
26024W        W87687  36.405  43.936   3.778
26025W        W87688  10.271  32.992   0.343
26026W        W87689  44.373  25.029  11.396
26027W        W87690  23.086   9.786   1.348
26028W        W87691  17.741  22.082   1.933
26029W        W87692  24.191  35.529  13.477
26030W        W87693  30.615  23.545  13.826
26031W        W87694   9.857   7.376   1.901
26032W        W87695  15.330  38.503   3.716
26033W        W87696  16.220  36.418   1.878
26034W        W87697   2.931   9.184   1.319
26035W        W87698  26.651  20.259   2.191
26036W        W87699   5.367   2.297   0.889
26037W        W87700  39.512  23.117   0.901
26038W        W87701  17.284  28.505   2.306
26039W        W87702  27.169   6.363   3.339
26040W        W87703  13.836   6.676  14.006
26041W        W87704  11.706   7.353  14.845
26042W        W87705   1.738  12.321  10.549
26043W        W87706   0.420  33.550  12.574
26044W        W87707   3.408  37.443   3.256
26045W        W87708   5.202  32.949   0.407
26046W        W87709  31.921  13.322   1.410
26047W        W87710  36.085  16.139  13.325
26048W        W87711   4.320  44.441   1.255
26049W        W87712  21.193  19.083  14.869
26050W        W87713  31.528  38.561  13.861
26051W        W87714   4.758  44.296   1.352
26052W        W87715  31.580  26.098   1.244
26053W        W87716  43.294  22.504  12.037
26054W        W87717  21.542  34.495   1.696
26055W        W87718  28.648  40.968  11.418
26056W        W87719  34.570  20.761  13.044
26057W        W87720   9.877  23.497  14.882
26058W        W87721  32.956  43.894   4.717
26059W        W87722  27.547  34.453   2.762
26060W        W87723   5.825  37.580  14.008
26061W        W87724  17.211  37.088   3.829
26062W        W87725   2.838  19.547   3.187
26063W        W87726  13.156   3.451   1.702
26064W        W87727  35.528  21.168   2.772
26065W        W87728   2.964  10.675  14.462
26066W        W87729  44.280  29.156  12.974
26067W        W87730  29.572  22.103  10.927
26068W        W87731  40.343  26.625  12.347
26069W        W87732  15.137  27.977   0.429
26070W        W87733  33.093  12.163  12.841
26071W        W87734  15.695  41.448  14.274
26072W        W87735   7.227  28.530  14.985
26073W        W87736  15.148   1.457  14.318
26074W        W87737  18.588  19.678   1.791
26075W        W87738  30.563  20.250   2.191
26076W        W87739  41.929   7.686  13.970
26077W        W87740  17.303   0.937  11.978
26078W        W87741  11.724  19.144   2.724
26079W        W87742   3.753  28.027   9.949
26080W        W87743   7.220  14.769   3.243
26081W        W87744   7.210   3.245  11.468
26082W        W87745   7.241  40.800   1.267
26083W        W87746  39.920  31.616  12.030
26084W        W87747  19.078  22.009  13.891
26085W        W87748  34.545   6.916   2.390
26086W        W87749  35.558   1.352   2.369
26087W        W87750  31.101  31.930   3.327
26088W        W87751  20.066   5.426  10.405
26089W        W87752   3.441  35.573   3.312
26090W        W87753  13.329  24.678   2.765
26091W        W87754  22.723  33.908   2.741
26092W        W87755  34.928  10.347   0.342
26093W        W87756  27.483  25.216  14.839
26094W        W87757  35.380   1.451   0.920
26095W        W87758  28.165  29.027  13.442
26096W        W87759  15.663  43.780   4.246
26097W        W87760  31.448  14.725  11.887
26098W        W87761  31.544  38.365  11.496
26099W        W87762   9.251  35.525   3.856
26100W        W87763  13.329  21.601   1.255
26101W        W87764  43.447  28.600  13.538
26102W        W87765  10.232  35.475  14.424
26103W        W87766  16.621  20.163   4.765
26104W        W87767  16.082  18.692   3.631
26105W        W87768  16.654   2.765   0.847
26106W        W87769  25.665   0.382  14.293
26107W        W87770   9.854  21.685   3.275
26108W        W87771  15.581  41.976  14.286
26109W        W87772   7.728  28.643   2.671
26110W        W87773  19.705  13.808   4.821
26111W        W87774  19.270  43.838   1.749
26112W        W87775  38.426  38.855  13.495
26113W        W87776  10.235   9.705  12.525
26114W        W87777   7.223  12.808  13.861
26115W        W87778   8.220  33.539   3.241
26116W        W87779  38.509  41.534  11.475
26117W        W87780   3.847  34.051   1.698
26118W        W87781  41.028   4.799   1.247
26119W        W87782  17.169   6.910   2.865
26120W        W87783  30.136  29.444   4.684
26121W        W87784   1.322  15.219   3.778
26122W        W87785  37.064  13.747  14.300
26123W        W87786  19.611  40.463   1.363
26124W        W87787  26.996  23.493  10.004
26125W        W87788  12.791  28.501   3.345
26126W        W87789  42.943  32.617  13.867
26127W        W87790  17.166  14.748   0.476
26128W        W87791  36.533  25.087   2.388
26129W        W87792  31.896   5.735  13.821
26130W        W87793  22.671  34.102   1.770
26131W        W87794  39.375  11.823   0.421
26132W        W87795  29.564  11.163   3.858
26133W        W87796  39.052  13.214  14.789
26134W        W87797  41.816   2.840  11.095
26135W        W87798  23.696  17.609   3.762
26136W        W87799  19.065  35.454   4.169
26137W        W87800  22.205  36.035   3.731
26138W        W87801   7.697  11.304   3.288
26139W        W87802   7.206  35.886  13.851
26140W        W87803  24.670  43.275   4.633
26141W        W87804  19.169  23.214   4.681
26142W        W87805  27.038  16.151  11.508
26143W        W87806  14.304   2.805   2.411
26144W        W87807  42.785  30.907   1.913
26145W        W87808  21.206  25.575   0.266
26146W        W87809  43.489   6.808  12.943
26147W        W87810   6.889  32.916   4.696
26148W        W87811  17.294  23.001  13.924
26149W        W87812  34.433  29.038  11.881
26150W        W87813   3.437  16.118  10.502
26151W        W87814  38.379  44.996  14.802
26152W        W87815   4.704  35.051  10.930
26153W        W87816  44.338  24.003  10.966
26154W        W87817   7.788  18.109   1.858
26155W        W87818  16.575   7.222   2.309
26156W        W87819  13.219  44.328   5.221
26157W        W87820  17.665   9.349  11.428
26158W        W87821   4.860  28.094   0.934
26159W        W87822  11.665  44.500  13.889
26160W        W87823  28.049  26.037   4.740
26161W        W87824  19.653  41.439  14.370
26162W        W87825  35.032   5.897   2.352
26163W        W87826  41.496   6.828   2.285
26164W        W87827  14.815  38.449   4.229
26165W        W87828   6.820  24.649  14.933
26166W        W87829   2.777  15.177   4.125
26167W        W87830  26.652  30.508  14.306
26168W        W87831   3.710  27.177  13.445
26169W        W87832  12.818   7.825   2.227
26170W        W87833   6.854  31.013   0.928
26171W        W87834  37.353  17.167  12.039
26172W        W87835  25.051  24.017  11.529
26173W        W87836   8.885  27.689   2.263
26174W        W87837  28.040  23.121   2.865
26175W        W87838  41.017  39.508   3.815
26176W        W87839   8.272   0.383   1.370
26177W        W87840  23.735   5.837   1.792
26178W        W87841  19.679  43.831  11.385
26179W        W87842  28.037   4.322   3.690
26180W        W87843  35.943  44.785  10.522
26181W        W87844   7.305   2.341  14.843
26182W        W87845  39.903  29.011  10.529
26183W        W87846   2.875  15.709   4.715
26184W        W87847  19.753  38.564  14.837
26185W        W87848   2.436  38.444   4.730
26186W        W87849  15.168  27.657  11.566
26187W        W87850  38.955  10.857   2.419
26188W        W87851  39.524  18.557   4.140
26189W        W87852  42.383  27.109  13.336
26190W        W87853  23.722  14.116   3.152
26191W        W87854  25.637  24.147   4.234
26192W        W87855  18.680  31.559  13.438
26193W        W87856  34.444   9.653  13.315
26194W        W87857   1.822  18.752   3.351
26195W        W87858  22.111   5.744   2.722
26196W        W87859  10.209  21.040  14.809
26197W        W87860  25.660  15.200  13.006
26198W        W87861   8.220  35.430  12.395
26199W        W87862  43.945   6.226   3.232
26200W        W87863  30.060   3.811   1.701
26201W        W87864  34.871  14.275   4.663
26202W        W87865   1.284  12.320   3.814
26203W        W87866  36.924  43.424   2.757
26204W        W87867  26.128  31.146   3.807
26205W        W87868  16.135  36.095  12.077
26206W        W87869  15.787  15.136  14.844
26207W        W87870  16.766  14.128  12.876
26208W        W87871  33.041  31.005  14.426
26209W        W87872   3.215  31.024  12.570
26210W        W87873  35.015  16.679  12.870
26211W        W87874  27.623   9.870  11.402
26212W        W87875   4.295   1.268   3.804
26213W        W87876  15.261  34.595   0.728
26214W        W87877  42.502  32.887   4.681
26215W        W87878  15.621  40.476  13.851
26216W        W87879  30.464   8.764   0.935
26217W        W87880  12.330  40.843  13.034
26218W        W87881  37.064  19.040  13.887
26219W        W87882   3.436  32.426  11.899
26220W        W87883  17.075  44.297   2.900
26221W        W87884  40.963  15.094   9.968
26222W        W87885   9.210  22.614   2.297
26223W        W87886  41.040  13.271  14.825
26224W        W87887  39.957  43.405   0.368
26225W        W87888  35.050  21.727  13.397
26226W        W87889   9.331  37.366   1.436
26227W        W87890  23.504  35.033  12.934
26228W        W87891  42.880   2.822  13.348
26229W        W87892  22.137  17.787  14.851
26230W        W87893  29.050  16.280  10.976
26231W        W87894  12.149  38.433   4.772
26232W        W87895  13.229  22.599  10.973
26233W        W87896  23.155  32.032   3.730
26234W        W87897  39.810  17.632  11.578
26235W        W87898   2.777  38.466   3.830
26236W        W87899  19.165  13.824   1.706
26237W        W87900   9.882  43.349  13.939
26238W        W87901  19.168  34.548  11.400
26239W        W87902  43.457   1.922   2.812
26240W        W87903   2.249  13.191   2.694
26241W        W87904  17.173  21.137   1.308
26242W        W87905  14.800  14.626   4.828
26243W        W87906  42.923  31.409   0.937
26244W        W87907  43.389  36.578   1.342
26245W        W87908  13.824  36.452  12.386
26246W        W87909  13.691  36.565   1.738
26247W        W87910   4.751   3.838   3.653
26248W        W87911  26.096  44.486   9.934
26249W        W87912  24.067  35.855  13.059
26250W        W87913  26.565  17.176  14.381
26251W        W87914  37.575  20.051   3.641
26252W        W87915   4.210  32.424  12.467
26253W        W87916  35.536  33.472  13.799
26254W        W87917  23.659  21.174  12.038
26255W        W87918  44.399  44.426   5.258
26256W        W87919  10.250  32.078   4.210
26257W        W87920  33.100   9.364   0.441
26258W        W87921  11.235  18.553   1.399
26259W        W87922   6.772  44.968  12.024
26260W        W87923  20.711  35.914  12.516
26261W        W87924   4.376   6.783  13.548
26262W        W87925  28.056  34.016   1.374
26263W        W87926  29.474  12.615  14.508
26264W        W87927  20.096  25.124  13.547
26265W        W87928  17.218  30.559   4.182
26266W        W87929  15.612  24.217  14.988
26267W        W87930   3.735  21.522   4.769
26268W        W87931  13.713  28.575  10.424
26269W        W87932  41.803  30.093   2.684
26270W        W87933  41.959  27.636   4.715
26271W        W87934   4.888  19.159   2.345
26272W        W87935  17.678  39.335  13.440
26273W        W87936   9.679  29.439   2.870
26274W        W87937  25.526  13.346   2.792
26275W        W87938   2.411  19.658   5.213
26276W        W87939  35.921  40.844  10.920
26277W        W87940  39.012   5.352  13.847
26278W        W87941  22.051  41.400  10.942
26279W        W87942  36.953  41.417   1.766
26280W        W87943  18.063  31.615   0.860
26281W        W87944   3.731  11.807  13.330
26282W        W87945  43.807  29.073  10.639
26283W        W87946  34.916  44.482  14.011
26284W        W87947  21.637  21.561  14.459
26285W        W87948  34.913  20.166  12.430
26286W        W87949  42.981   4.857   4.831
26287W        W87950  25.993  34.026   2.227
26288W        W87951  37.907  18.162   1.318
26289W        W87952  10.875  26.499  10.082
26290W        W87953  12.699  39.905  10.102
26291W        W87954  12.121  18.286   1.893
26292W        W87955  27.593   6.359  13.922
26293W        W87956  12.803  43.974  12.920
26294W        W87957  28.487  38.382   3.678
26295W        W87958  40.838  40.504  12.444
26296W        W87959  34.867  14.687  14.789
26297W        W87960  14.126  22.508  14.478
26298W        W87961  13.312  35.056   2.345
26299W        W87962  33.089  25.536   3.789
26300W        W87963  43.275  40.477  11.430
26301W        W87964   2.740   4.208  13.396
26302W        W87965   6.895  16.311  14.789
26303W        W87966  43.808   2.465  11.874
26304W        W87967   5.869  19.678  13.991
26305W        W87968  20.720  33.426  14.354
26306W        W87969  38.899   6.853   4.242
26307W        W87970  18.253  14.665  14.988
26308W        W87971  18.254  41.884  11.925
26309W        W87972  25.561   6.738   2.261
26310W        W87973  21.570  43.445   0.450
26311W        W87974   8.889  33.005   3.664
26312W        W87975  16.247   5.924  10.992
26313W        W87976  40.834  25.549   2.890
26314W        W87977  25.173  27.963  11.942
26315W        W87978   4.905  25.168   2.193
26316W        W87979  40.854  28.013  13.448
26317W        W87980  23.509   0.387  14.989
26318W        W87981   0.893  16.178  11.417
26319W        W87982  24.508  41.515   2.277
26320W        W87983  17.662   5.757  11.418
26321W        W87984  22.600  26.646  14.300
26322W        W87985  44.501   9.705  13.308
26323W        W87986  28.959  29.657  10.995
26324W        W87987  32.408   5.364   0.250
26325W        W87988  35.001  35.477   4.640
26326W        W87989  20.723  36.031   2.278
26327W        W87990   5.389  20.603   0.894
26328W        W87991  13.264  12.174   2.713
26329W        W87992  14.158  23.070   1.212
26330W        W87993  10.853   2.364  13.464
26331W        W87994  11.648   6.340   1.298
26332W        W87995  11.207  15.272   4.136
26333W        W87996   3.237   0.349  10.986
26334W        W87997   9.793  35.897  12.940
26335W        W87998  42.017  39.372   4.771
26336W        W87999   1.423  34.450   0.739
26337W        W88000  28.651  33.071   4.297
26338W        W88001  42.408  30.994   3.222
26339W        W88002   3.802  16.151  11.542
26340W        W88003  37.512   0.421   3.162
26341W        W88004  41.498  41.030  13.325
26342W        W88005   9.208  29.010  10.989
26343W        W88006  16.617  13.300  13.008
26344W        W88007  10.740  44.275  11.532
26345W        W88008  30.556  37.419   2.378
26346W        W88009  28.945   6.717  12.576
26347W        W88010   5.256  42.516  12.049
26348W        W88011  30.950  26.541  13.324
26349W        W88012  43.817  17.243   5.709
26350W        W88013  16.226  30.025  13.895
26351W        W88014   6.784  22.104  12.534
26352W        W88015  15.257  37.384  14.901
26353W        W88016  17.718  32.043  11.977
26354W        W88017   4.899  22.613  14.859
26355W        W88018  43.359   0.760   3.845
26356W        W88019  41.788  35.410  14.490
26357W        W88020  41.424   4.934   4.125
26358W        W88021  24.182  24.127   5.660
26359W        W88022  38.340   4.866   4.785
26360W        W88023  13.634  26.036   1.888
26361W        W88024  25.508  30.127   0.257
26362W        W88025  22.605   6.312   0.371
26363W        W88026  18.552  37.024   1.281
26364W        W88027   6.273  42.508  11.032
26365W        W88028  22.229  10.854  14.369
26366W        W88029   7.764  10.799  13.310
26367W        W88030  37.885  22.187  11.873
26368W        W88031  20.131  38.517  13.428
26369W        W88032  40.316  44.413   0.905
26370W        W88033  30.933  41.837  14.912
26371W        W88034  12.285  36.414  11.053
26372W        W88035  23.617   1.830   4.725
26373W        W88036   8.218  31.464   0.370
26374W        W88037   4.798  22.735   0.313
26375W        W88038   6.275  35.584   3.171
26376W        W88039  42.285  13.622  10.552
26377W        W88040  28.663  29.662   2.886
26378W        W88041  24.712   2.751   3.285
26379W        W88042  36.889   8.275   3.193
26380W        W88043  14.188  20.534   2.663
26381W        W88044  30.156  26.504   0.455
26382W        W88045   5.897  33.420   2.268
26383W        W88046   2.870  10.714  13.434
26384W        W88047   4.863  34.869   4.797
26385W        W88048  12.171  29.107   3.630
26386W        W88049  37.886  41.979   2.305
26387W        W88050  33.902   8.302  11.437
26388W        W88051   3.406  21.019  11.436
26389W        W88052   5.400  31.023  11.465
26390W        W88053  20.715   9.659  12.540
26391W        W88054  24.154  16.311  12.421
26392W        W88055  16.777  30.056  13.835
26393W        W88056   9.295  40.916   2.408
26394W        W88057  13.195  13.132   2.720
26395W        W88058  35.574   9.794   2.834
26396W        W88059  28.975  18.648  11.382
26397W        W88060  36.424  25.560   1.308
26398W        W88061  40.319  39.809   3.660
26399W        W88062  40.965  15.235   4.688
26400W        W88063  13.739  12.824   4.633
26401W        W88064  43.807  24.596   1.872
26402W        W88065  25.098  14.174  13.344
26403W        W88066  26.497  15.234  10.970
26404W        W88067  24.588  31.928   2.411
26405W        W88068  34.118  23.558   0.284
26406W        W88069   7.287   3.847   2.213
26407W        W88070  11.361   0.409   1.365
26408W        W88071  36.928  26.979   2.380
26409W        W88072  43.401  41.390  12.361
26410W        W88073   1.266  17.272   4.737
26411W        W88074  22.593  18.183   2.372
26412W        W88075  24.071  29.507  11.448
26413W        W88076  32.072  18.052   5.318
26414W        W88077  22.706  34.095  10.561
26415W        W88078  27.575  33.396  10.900
26416W        W88079  20.270  33.917   3.682
26417W        W88080  42.966  26.659   2.713
26418W        W88081  42.844  43.850  11.546
26419W        W88082  15.290  27.606  13.009
26420W        W88083  44.929  42.386  12.528
26421W        W88084  20.535   2.773   5.589
26422W        W88085  41.042   1.951   1.277
26423W        W88086   2.920  21.744  12.016
26424W        W88087  31.459  35.085   4.337
26425W        W88088  32.034   9.149   0.462
26426W        W88089  19.171   7.239   0.377
26427W        W88090  27.607  23.152  10.511
26428W        W88091  33.515  33.014   1.228
26429W        W88092   6.365  38.950   2.894
26430W        W88093  13.135  24.209  11.458
26431W        W88094  21.164  27.685   2.260
26432W        W88095   5.405  21.052  13.944
26433W        W88096  12.691  22.129   1.308
26434W        W88097   7.826   5.404  14.467
26435W        W88098  23.646  40.343   1.714
26436W        W88099   2.842  38.417  14.987
26437W        W88100  32.446  26.091  14.953
26438W        W88101  33.926   4.742  13.833
26439W        W88102  19.750  36.039   3.757
26440W        W88103   5.292  41.317   4.255
26441W        W88104   8.345  34.935   0.326
26442W        W88105  24.131  16.768   3.237
26443W        W88106  40.429  37.545   0.783
26444W        W88107  26.116  37.000  13.328
26445W        W88108  15.582  13.758   4.604
26446W        W88109   5.885  20.716  14.982
26447W        W88110  23.729  22.147   0.374
26448W        W88111   0.349  19.553   3.335
26449W        W88112  35.885   8.235  13.834
26450W        W88113  27.628  37.876   3.681
26451W        W88114  28.019  39.523   2.708
26452W        W88115  28.647  19.734   4.227
26453W        W88116  42.843   3.264   1.809
26454W        W88117  21.216  38.006   0.946
26455W        W88118  39.500  11.247  12.089
26456W        W88119   2.251  13.769   0.828
26457W        W88120  44.979   6.895  12.980
26458W        W88121   0.884   7.359  12.903
26459W        W88122  22.610   6.762   1.279
26460W        W88123  21.629  11.313  11.060
26461W        W88124  12.181   8.352  14.971
26462W        W88125  40.325  17.630  12.399
26463W        W88126  42.895   7.893  12.828
26464W        W88127  34.540  23.635   4.723
26465W        W88128  39.935  11.767   4.144
26466W        W88129  35.375  36.583  12.845
26467W        W88130  14.176  33.509   2.799
26468W        W88131  24.053  30.932   3.249
26469W        W88132  21.156  18.208  13.846
26470W        W88133   3.427  39.430   2.232
26471W        W88134  14.103  22.076  11.051
26472W        W88135  23.497  10.852   1.697
26473W        W88136  16.659  11.642   4.138
26474W        W88137  39.402  26.694  12.348
26475W        W88138   7.296  40.402   3.209
26476W        W88139   2.794   5.379   4.285
26477W        W88140   3.933   7.227  11.484
26478W        W88141   5.760  30.122  14.398
26479W        W88142  14.781  26.562   1.221
26480W        W88143  31.406   6.747   3.351
26481W        W88144  36.906  42.971   4.282
26482W        W88145  27.607   7.199   0.375
26483W        W88146  44.963  17.662   2.292
26484W        W88147  38.517  23.498  14.436
26485W        W88148  37.985  35.090   0.809
26486W        W88149   4.838  31.913   3.816
26487W        W88150  15.744  33.079   4.745
26488W        W88151  13.187  32.888  11.039
26489W        W88152  37.526  37.339  13.047
26490W        W88153  38.057  33.015   4.243
26491W        W88154  22.597   0.820  10.125
26492W        W88155   7.196  23.178  14.760
26493W        W88156   9.661  10.815  13.020
26494W        W88157  30.634  10.292  14.354
26495W        W88158  13.650  19.066   4.159
26496W        W88159  20.111  39.000  14.831
26497W        W88160   4.774  34.612   2.825
26498W        W88161  28.493  31.598   0.406
26499W        W88162   2.875  42.305   2.412
26500W        W88163  31.538   7.345   0.792
26501W        W88164  36.970   8.658   3.323
26502W        W88165  23.530  37.444   5.268
26503W        W88166  33.508  15.680  14.774
26504W        W88167   6.881  35.943   0.891
26505W        W88168  13.239  34.921  14.391
26506W        W88169  34.378  42.439   2.834
26507W        W88170   6.891   2.464  13.012
26508W        W88171   0.904  12.289   3.769
26509W        W88172  26.012  28.489  11.918
26510W        W88173  16.745  13.826  10.442
26511W        W88174  24.698  12.194  13.423
26512W        W88175  17.202   7.716  11.581
26513W        W88176  23.157   5.277   3.776
26514W        W88177  11.635  39.944   0.371
26515W        W88178   6.260  33.407   2.345
26516W        W88179  22.662  11.774   9.929
26517W        W88180  15.804  40.904   0.826
26518W        W88181   2.454   7.174  11.856
26519W        W88182   1.301  44.977  13.041
26520W        W88183  12.666  38.916  13.942
26521W        W88184  32.035   7.286   2.664
26522W        W88185  33.128  44.269  12.578
26523W        W88186  18.272  13.206   1.786
26524W        W88187  38.536  36.381  14.442
26525W        W88188  31.486  41.514  13.496
26526W        W88189  36.844   0.947   0.308
26527W        W88190  38.453   1.764   3.672
26528W        W88191  15.177   7.224  11.916
26529W        W88192  36.468   0.290   2.253
26530W        W88193  31.500  44.961   0.735
26531W        W88194  44.302  11.633   3.285
26532W        W88195  27.513  34.435  11.610
26533W        W88196   3.303  14.228  12.823
26534W        W88197   4.922  40.986   3.840
26535W        W88198  26.568   6.399  14.959
26536W        W88199  35.915   9.713   1.304
26537W        W88200   2.421  40.333  11.876
26538W        W88201  20.203  22.663  11.490
26539W        W88202   0.476  26.989  13.504
26540W        W88203  29.027  13.176   4.140
26541W        W88204  13.172  13.696  13.816
26542W        W88205  32.496  37.989  12.445
26543W        W88206  38.838  26.663  12.522
26544W        W88207  31.593  38.985  14.955
26545W        W88208  24.153  42.817   2.882
26546W        W88209  34.934  20.689  12.519
26547W        W88210  11.645   4.333   3.761
26548W        W88211  13.661  18.764   3.839
26549W        W88212  30.603  30.085   2.678
26550W        W88213  11.275  30.631   1.856
26551W        W88214  27.581  35.425  14.913
26552W        W88215  29.011  38.401   2.750
26553W        W88216  13.811   5.342  10.620
26554W        W88217  12.635  17.752  13.860
26555W        W88218  25.475  38.885  12.408
26556W        W88219  20.267  32.006  10.079
26557W        W88220  19.219  37.863  12.421
26558W        W88221  27.126  26.656  12.930
26559W        W88222  33.120  43.963   3.745
26560W        W88223   4.212   9.211   1.355
26561W        W88224  28.929   4.403   4.647
26562W        W88225   9.781  37.457   0.395
26563W        W88226  34.110  38.844   3.749
26564W        W88227  43.836  11.260  10.915
26565W        W88228   7.666  24.204   1.867
26566W        W88229  40.430  25.656   1.707
26567W        W88230  39.465   7.669   2.366
26568W        W88231   2.920  21.043   3.650
26569W        W88232  36.905  38.951  11.446
26570W        W88233  18.193  16.657   4.776
26571W        W88234  40.534  28.496  13.817
26572W        W88235   8.671  31.608  14.448
26573W        W88236  30.143  38.859   3.180
26574W        W88237  20.079  21.713  14.457
26575W        W88238  41.320  21.181   2.720
26576W        W88239  36.907  14.644  14.400
26577W        W88240  13.705  31.490   3.839
26578W        W88241  21.237  14.699   1.833
26579W        W88242  20.667  43.912  10.491
26580W        W88243  17.760  25.139  13.029
26581W        W88244  36.568   8.372   1.257
26582W        W88245  17.255  11.198  13.978
26583W        W88246  25.635  42.462  13.800
26584W        W88247  23.078  21.195   1.852
26585W        W88248  42.413   7.219   3.666
26586W        W88249  19.583  22.507   1.918
26587W        W88250   4.716  43.771  11.944
26588W        W88251  31.600  20.215  10.627
26589W        W88252   9.301  30.623  12.344
26590W        W88253  18.756  28.986  11.425
26591W        W88254  17.681  13.269   2.802
26592W        W88255  32.041  16.268   4.263
26593W        W88256   7.905   9.280   2.846
26594W        W88257  26.654   8.179   0.921
26595W        W88258  14.773   2.878   0.939
26596W        W88259  38.965  39.897  11.571
26597W        W88260   5.344  27.069   3.826
26598W        W88261  26.592  30.471  13.342
26599W        W88262   0.456  13.240  10.943
26600W        W88263   0.834  35.468  14.358
26601W        W88264  21.674  28.664  11.451
26602W        W88265  12.298  39.376   4.180
26603W        W88266  26.464  22.706  11.390
26604W        W88267   5.369   9.849   1.843
26605W        W88268  16.215   4.313  11.096
26606W        W88269  41.392  41.345  12.449
26607W        W88270  17.170  37.956   0.361
26608W        W88271   0.284  19.565   1.884
26609W        W88272  35.506  19.699   1.393
26610W        W88273   5.743  38.561   1.767
26611W        W88274  14.716  21.213  13.824
26612W        W88275  34.612   1.908  13.454
26613W        W88276  37.506   2.383  14.003
26614W        W88277  11.162  37.838  10.982
26615W        W88278   8.376  29.592   2.884
26616W        W88279   7.345  11.238  13.544
26617W        W88280  11.299  44.446   1.430
26618W        W88281  35.091  37.928  12.889
26619W        W88282  22.091  35.434   2.323
26620W        W88283   6.246   0.348   4.714
26621W        W88284  16.645   9.792  10.420
26622W        W88285  15.281   3.831   4.711
26623W        W88286  24.084  24.159   0.369
26624W        W88287   2.794  44.335   3.267
26625W        W88288   7.784  43.363   3.699
26626W        W88289   8.196  26.685  12.406
26627W        W88290   0.397  27.543   2.329
26628W        W88291   3.268  33.093  12.926
26629W        W88292  38.344  44.853   3.764
26630W        W88293  14.212   0.469   4.131
26631W        W88294  10.240  18.081   2.366
26632W        W88295  22.223   1.906   9.671
26633W        W88296  34.574  23.585   0.277
26634W        W88297  22.525  42.374  14.355
26635W        W88298  26.476   8.237   0.322
26636W        W88299  24.013   3.945  11.469
26637W        W88300  34.898   8.786  13.801
26638W        W88301   5.836  23.071   0.409
26639W        W88302  33.982  16.103   4.151
26640W        W88303   7.335  35.455  10.955
26641W        W88304   8.404   9.325   5.604
26642W        W88305  36.982  40.324   1.840
26643W        W88306  11.222   7.417  13.825
26644W        W88307  13.297  28.965  13.054
26645W        W88308  31.988  37.049  10.545
26646W        W88309  13.644  33.482  11.565
26647W        W88310  27.134   7.732  13.839
26648W        W88311  34.393   7.359  14.806
26649W        W88312  25.542   6.865   1.761
26650W        W88313   7.308   4.792   2.724
26651W        W88314  29.989  33.924   1.818
26652W        W88315  33.107   8.315   0.344
26653W        W88316   2.810   1.855   3.728
26654W        W88317  41.427  31.420  13.792
26655W        W88318  15.237  43.808  13.392
26656W        W88319  22.670  19.582  14.911
26657W        W88320  28.163  26.952   2.900
26658W        W88321  28.118  33.929   0.458
26659W        W88322  19.625   1.940  14.924
26660W        W88323  18.217   0.312   1.809
26661W        W88324  44.364   9.762   3.222
26662W        W88325  39.553  18.673   4.780
26663W        W88326   8.702  27.648  13.983
26664W        W88327  12.317  34.001   1.773
26665W        W88328   4.253   7.817   4.174
26666W        W88329  22.698  26.586  12.540
26667W        W88330   8.298  23.676  12.404
26668W        W88331   2.267   1.966   4.154
26669W        W88332  29.510  28.150   0.941
26670W        W88333  10.795  26.119  11.073
26671W        W88334  34.022  38.048  12.421
26672W        W88335  12.810  17.306   2.308
26673W        W88336  45.000  29.662  11.027
26674W        W88337   6.357  36.557  10.444
26675W        W88338   5.379  19.115  14.000
26676W        W88339   9.241  30.935   4.126
26677W        W88340  40.515  27.584  13.007
26678W        W88341  28.567  30.641  13.872
26679W        W88342   1.328  25.083  13.378
26680W        W88343  37.864  41.834   3.867
26681W        W88344  24.057  40.412   4.141
26682W        W88345  39.065  20.148  12.894
26683W        W88346  24.650  16.284   0.743
26684W        W88347   6.229  30.154   0.331
26685W        W88348  10.362  14.241   0.325
26686W        W88349  17.090  43.830   0.316
26687W        W88350  13.797  35.892  12.006
26688W        W88351  43.492  27.187   1.716
26689W        W88352  40.529  22.693   3.296
26690W        W88353  43.450  11.834  10.995
26691W        W88354   1.957  15.142   0.926
26692W        W88355  35.858  17.275   2.311
26693W        W88356   1.774   4.313  10.893
26694W        W88357  13.751  42.506   4.230
26695W        W88358  22.656  39.352  11.960
26696W        W88359  33.591   0.492   3.837
26697W        W88360  15.237  11.282  13.894
26698W        W88361  28.575   6.273  13.016
26699W        W88362  10.281  33.019  14.495
26700W        W88363  32.591   5.853   1.286
26701W        W88364  29.569  19.729  12.915
26702W        W88365  44.906  33.051   0.431
26703W        W88366  37.896  21.582  13.306
26704W        W88367  16.575  23.138  11.970
26705W        W88368  29.443  35.102   3.843
26706W        W88369  40.956  14.296  10.948
26707W        W88370  33.884   9.779  11.497
26708W        W88371   2.802   7.910   3.308
26709W        W88372  29.509   1.253   4.632
26710W        W88373   3.875  26.100   4.147
26711W        W88374   9.264   0.354  14.951
26712W        W88375  15.765  24.043  11.107
26713W        W88376  20.749   2.769   2.338
26714W        W88377  23.589  39.051   0.812
26715W        W88378  38.361  15.142  14.816
26716W        W88379   9.755  35.033  10.472
26717W        W88380  15.717  20.628   4.278
26718W        W88381  43.973  22.580   0.394
26719W        W88382  13.311  11.334  12.366
26720W        W88383  30.455  36.896  14.866
26721W        W88384  36.567  24.557  11.096
26722W        W88385  24.152  32.001   4.144
26723W        W88386  29.438  16.162   0.452
26724W        W88387  34.406   7.329  14.425
26725W        W88388  18.178  29.574  14.505
26726W        W88389  44.299  20.736  14.927
26727W        W88390  26.515  40.404  14.435
26728W        W88391   4.816  16.648  13.539
26729W        W88392  42.295  33.996   1.849
26730W        W88393   2.905  37.409   2.249
26731W        W88394   5.399   7.211   0.324
26732W        W88395  40.951  38.444  11.981
26733W        W88396  24.602   8.871  12.094
26734W        W88397  44.996  37.914  14.984
26735W        W88398  22.535  15.232   1.280
26736W        W88399  29.595   8.348   2.309
26737W        W88400  28.609  11.786   2.414
26738W        W88401  25.577  27.647  12.091
26739W        W88402  35.463  36.868   0.931
26740W        W88403   4.888  33.434   0.466
26741W        W88404  42.906  33.590  14.474
26742W        W88405  11.297  13.777  14.886
26743W        W88406   1.864  33.564  14.314
26744W        W88407   2.349  43.337  10.503
26745W        W88408  38.913  24.061  14.904
26746W        W88409  21.617  29.966   0.362
26747W        W88410   8.709  43.775   3.286
26748W        W88411  34.537  32.022   0.854
26749W        W88412  13.134  25.017   2.735
26750W        W88413  13.807   6.752  10.479
26751W        W88414  24.211  41.792   2.400
26752W        W88415  38.968   7.733   1.252
26753W        W88416  44.868   7.288   5.227
26754W        W88417  17.606  24.993   4.184
26755W        W88418  25.606  34.597  14.858
26756W        W88419  40.875  42.978  13.871
26757W        W88420  42.477   4.827   4.134
26758W        W88421  19.052  37.367  14.480
26759W        W88422   8.320  10.357   3.755
26760W        W88423  15.795  35.955   4.607
26761W        W88424  13.606  34.534   3.208
26762W        W88425  14.614   0.897  10.482
26763W        W88426  36.033  42.792  11.391
26764W        W88427  20.077  21.161   1.890
26765W        W88428  21.114  31.011  13.867
26766W        W88429  35.588  22.642   3.183
26767W        W88430   4.876   8.709  10.947
26768W        W88431   4.437  42.956   4.792
26769W        W88432  30.568  12.161  14.986
26770W        W88433  36.483  41.372   4.162
26771W        W88434   3.722  10.743   1.873
26772W        W88435  32.109  35.504   2.296
26773W        W88436  31.027  10.233  14.868
26774W        W88437  31.134  23.058  12.996
26775W        W88438   3.246  17.207   0.300
26776W        W88439  19.270  15.185   3.725
26777W        W88440  37.935  42.952   1.890
26778W        W88441  19.576  40.980  11.578
26779W        W88442   7.725  16.170  12.910
26780W        W88443  35.995  32.932  14.924
26781W        W88444  12.154   0.319   2.740
26782W        W88445  16.305  32.539   1.720
26783W        W88446  10.831  42.453   2.299
26784W        W88447  11.856  27.547   0.372
26785W        W88448  29.992  14.795  12.927
26786W        W88449  21.029   8.314  13.912
26787W        W88450  12.245  33.944  14.419
26788W        W88451  14.302   0.980   5.202
26789W        W88452   9.281  35.454  10.475
26790W        W88453  10.231   5.211  13.466
26791W        W88454   1.977   7.780  13.869
26792W        W88455   6.739   7.176  14.001
26793W        W88456  32.920  18.667   1.903
26794W        W88457  20.655  32.094   2.791
26795W        W88458  20.036   5.758  14.489
26796W        W88459  37.524  14.693   5.219
26797W        W88460  14.170  28.132  14.791
26798W        W88461   9.313  40.532   3.282
26799W        W88462  16.615  35.002  13.403
26800W        W88463  24.575  11.813  12.532
26801W        W88464  23.659  43.275  12.516
26802W        W88465  40.389  37.874   3.862
26803W        W88466   0.381  40.857   1.803
26804W        W88467  22.649  43.985  11.569
26805W        W88468  29.507  14.657  10.488
26806W        W88469  15.704  17.230  12.523
26807W        W88470   6.782  28.593   3.333
26808W        W88471   4.387   2.796  14.435
26809W        W88472   2.263  26.002  13.952
26810W        W88473  11.805  26.685   2.716
26811W        W88474  35.905  15.263  11.948
26812W        W88475   6.799  24.999  10.454
26813W        W88476  17.730   7.833   1.816
26814W        W88477  19.615  34.020  13.352
26815W        W88478  13.216  42.917  12.439
26816W        W88479  28.018   5.866  10.954
26817W        W88480   8.179  38.049  11.903
26818W        W88481  40.405  13.661   3.682
26819W        W88482  35.573   6.678  11.528
26820W        W88483  39.896   4.313   2.745
26821W        W88484  36.574  18.735   0.842
26822W        W88485  43.271  19.650   0.338
26823W        W88486  40.988  14.775  14.932
26824W        W88487  42.873  37.995  14.885
26825W        W88488  18.647  21.115   5.244
26826W        W88489   6.203  28.642  10.974
26827W        W88490  14.318  15.109  13.412
26828W        W88491  27.630  10.359  14.830
26829W        W88492  36.071   2.468   3.853
26830W        W88493  32.895  43.833  13.411
26831W        W88494  21.135  31.118   4.741
26832W        W88495   2.250  28.671  12.449
26833W        W88496   1.398   7.202  14.961
26834W        W88497  37.342  27.623   4.245
26835W        W88498   6.416  27.042   4.351
26836W        W88499  13.126  14.604   3.857
26837W        W88500  24.138  39.351   1.407
26838W        W88501   7.853  44.909   0.763
26839W        W88502  38.974   2.895   1.247
26840W        W88503  17.708  28.500  12.046
26841W        W88504  33.502  21.059  12.023
26842W        W88505  19.175  27.069  14.349
26843W        W88506   6.806  27.161   1.853
26844W        W88507  20.240   0.389  10.564
26845W        W88508  38.422  12.720  10.441
26846W        W88509   4.405  16.313   1.882
26847W        W88510  44.876  24.063  13.816
26848W        W88511  23.030  28.087  13.460
26849W        W88512  35.026   1.260  12.524
26850W        W88513  23.658  36.374  10.630
26851W        W88514   1.815   6.861  11.121
26852W        W88515  22.243  42.932   0.260
26853W        W88516  42.400  14.105   0.321
26854W        W88517   7.386  21.721  14.474
26855W        W88518  25.060  37.910   3.290
26856W        W88519   2.745  44.441  13.993
26857W        W88520  27.008  28.005  12.073
26858W        W88521  15.822  13.649   0.935
26859W        W88522  19.569  36.571  11.597
26860W        W88523  40.429  27.984   0.946
26861W        W88524  11.289  41.907   3.786
26862W        W88525  41.325  21.703  13.859
26863W        W88526  36.350  29.025  12.892
26864W        W88527  22.678  14.712  11.386
26865W        W88528  31.991   5.356   2.337
26866W        W88529  33.079   7.191   1.254
26867W        W88530  33.017  17.112   3.267
26868W        W88531   6.762  18.690   3.383
26869W        W88532  26.579   5.867  13.833
26870W        W88533  38.490   4.318  14.828
26871W        W88534   1.874  37.546  14.010
26872W        W88535  26.606  44.807   4.237
26873W        W88536  34.578   4.346  13.439
26874W        W88537   9.380  27.579   2.277
26875W        W88538  42.523  37.024   1.390
26876W        W88539  29.583  11.312  14.826
26877W        W88540  10.781  15.262  12.045
26878W        W88541  11.141  25.527   3.852
26879W        W88542  26.985   6.300  10.645
26880W        W88543  25.205  39.910   0.867
26881W        W88544  30.002  44.991   0.319
26882W        W88545   1.320  43.357   4.786
26883W        W88546   7.262  38.021   4.224
26884W        W88547  28.458  39.459  13.864
26885W        W88548  27.593  16.253  11.891
26886W        W88549  39.499  35.482  14.952
26887W        W88550  40.451  15.629  11.100
26888W        W88551  11.700   8.754  14.365
26889W        W88552  22.610  30.459  13.032
26890W        W88553   7.251   5.925  12.953
26891W        W88554  15.092  34.482   1.863
26892W        W88555  35.523  13.619   4.265
26893W        W88556  26.130  18.659   0.433
26894W        W88557  38.967  15.697  10.112
26895W        W88558   4.723  40.895  13.926
26896W        W88559  12.319  34.914  13.804
26897W        W88560  40.478  23.160  14.977
26898W        W88561  29.520  14.786   4.798
26899W        W88562  29.495  38.376   4.342
26900W        W88563  32.954  35.385   0.415
26901W        W88564  41.874   6.255   1.370
26902W        W88565  25.701   9.318  11.973
26903W        W88566  26.028  43.966  11.080
26904W        W88567  24.531  26.580   3.256
26905W        W88568  33.956  18.710   1.383
26906W        W88569  12.827  14.794   2.838
26907W        W88570  16.750   9.304   1.928
26908W        W88571   0.828  19.093  11.377
26909W        W88572   4.270  25.508  14.360
26910W        W88573   1.782   0.813  11.385
26911W        W88574  10.646  20.230   3.276
26912W        W88575   4.342  26.513  13.823
26913W        W88576  42.964  28.126   2.386
26914W        W88577  30.572   9.392  11.982
26915W        W88578  39.021   4.945   2.199
26916W        W88579   4.329  39.450   2.207
26917W        W88580   5.881  29.952  10.535
26918W        W88581  20.226  32.114  11.124
26919W        W88582   4.907   3.896   4.276
26920W        W88583  32.025  19.077   0.927
26921W        W88584  28.044   2.830  13.064
26922W        W88585  14.110  24.080   2.342
26923W        W88586   0.875  26.615  14.485
26924W        W88587  18.074  37.029   4.684
26925W        W88588  15.627  16.655  12.039
26926W        W88589  33.459  34.958  10.572
26927W        W88590  39.825  43.336  12.845
26928W        W88591  20.700  23.212  13.799
26929W        W88592  11.632  26.001  11.457
26930W        W88593   1.770  44.913  10.498
26931W        W88594  33.089  17.588  14.428
26932W        W88595  24.621   0.769   0.841
26933W        W88596  23.052  16.074  10.507
26934W        W88597  43.290   3.403   3.778
26935W        W88598  25.064  22.728  11.917
26936W        W88599  22.540  13.272  10.519
26937W        W88600   0.323  36.426   3.325
26938W        W88601  31.058  24.197  11.973
26939W        W88602  12.349   3.924  12.436
26940W        W88603   7.363   8.360   3.706
26941W        W88604  33.918  35.932   0.877
26942W        W88605  29.555   1.734  13.389
26943W        W88606   2.228  36.584  13.886
26944W        W88607   6.329  35.886   0.892
26945W        W88608  26.055  43.470   1.375
26946W        W88609  40.899  12.853   0.375
26947W        W88610  39.540  21.205  14.349
26948W        W88611  14.737  23.128   2.737
26949W        W88612   9.878   1.378   0.892
26950W        W88613  41.037   9.660   1.293
26951W        W88614   7.887   1.397  11.116
26952W        W88615  35.603  42.031  11.892
26953W        W88616  16.767  13.115   2.721
26954W        W88617  22.617  18.701   4.285
26955W        W88618  14.153  31.078   0.796
26956W        W88619  17.278   0.760   3.719
26957W        W88620  12.705  34.008  13.958
26958W        W88621   1.795  20.137  11.437
26959W        W88622   1.280   3.724   0.775
26960W        W88623  40.944  16.193  14.872
26961W        W88624  23.996  44.419   9.993
26962W        W88625   8.291   0.295  13.818
26963W        W88626   2.861  30.079   4.223
26964W        W88627  12.336  32.910  13.914
26965W        W88628  34.543  41.293  14.966
26966W        W88629  14.666  40.002   1.912
26967W        W88630  27.977  13.300  11.006
26968W        W88631   8.190   1.344  14.373
26969W        W88632  40.914  17.658  12.076
26970W        W88633  20.212   5.423   0.427
26971W        W88634  41.868  35.905  11.922
26972W        W88635   3.218  18.149   2.809
26973W        W88636  14.821  36.951  11.541
26974W        W88637  12.635  21.173   2.862
26975W        W88638   1.375  30.006   3.795
26976W        W88639  18.643  16.099   4.118
26977W        W88640   6.842   8.325   1.414
26978W        W88641  14.313   4.917  10.562
26979W        W88642  34.382  10.634   9.535
26980W        W88643  44.480  22.672   0.457
26981W        W88644  29.975  20.666   0.870
26982W        W88645  44.926   7.717   1.422
26983W        W88646   2.742  38.852   1.857
26984W        W88647  42.345  39.530   1.239
26985W        W88648  29.429  19.712   2.321
26986W        W88649   5.409  19.724  13.516
26987W        W88650  33.449  16.304   3.788
26988W        W88651  13.302  10.216  14.769
26989W        W88652  32.904   7.265  13.424
26990W        W88653  33.422  17.701  13.399
26991W        W88654   8.700  27.189   3.786
26992W        W88655  13.812   3.835  11.412
26993W        W88656  11.754  21.102   3.272
26994W        W88657  39.497   7.244  11.526
26995W        W88658  43.369   0.800   3.365
26996W        W88659  43.878  31.952  11.123
26997W        W88660  15.733  14.638   1.210
26998W        W88661  28.669  34.027   3.709
26999W        W88662  21.618  42.981   0.788
27000W        W88663  22.626  19.149   4.724
27001W        W88664  23.680   2.445   1.775
27002W        W88665  21.121  35.913  11.400
27003W        W88666  36.961  21.631  13.019
27004W        W88667  36.872  41.905  11.047
27005W        W88668   9.879  32.565   0.835
27006W        W88669  22.249  19.543  11.461
27007W        W88670   9.761  35.086   2.861
27008W        W88671  33.056  22.584  14.779
27009W        W88672  35.948  43.967   3.778
27010W        W88673   2.403  41.429  14.879
27011W        W88674  16.207  16.155   3.207
27012W        W88675  28.141  14.756   3.658
27013W        W88676  23.579  18.662  14.367
27014W        W88677  24.115  37.551  12.017
27015W        W88678  22.129  21.730   3.165
27016W        W88679   4.927  41.941  12.491
27017W        W88680  37.367   7.380  13.794
27018W        W88681  29.548  13.735  12.494
27019W        W88682   8.400  36.579   1.223
27020W        W88683  37.360  17.558  14.899
27021W        W88684  24.084   4.844  12.989
27022W        W88685  27.595   1.418   3.671
27023W        W88686   9.158  36.398   1.411
27024W        W88687   3.948  11.304  13.843
27025W        W88688  39.401  44.381  13.323
27026W        W88689  16.129  27.190  12.514
27027W        W88690  35.011  30.987  12.437
27028W        W88691  29.463   6.791   4.651
27029W        W88692  36.543  30.053   0.927
27030W        W88693   3.878   2.401  13.904
27031W        W88694  26.637  40.986  12.496
27032W        W88695  34.604  18.655  13.029
27033W        W88696  32.086   1.420  11.381
27034W        W88697  36.468  36.458  13.019
27035W        W88698  14.100  15.250   3.785
27036W        W88699  13.289  27.532   1.325
27037W        W88700   4.914   2.273  13.325
27038W        W88701  32.607  44.805   3.787
27039W        W88702  11.243  15.268  12.894
27040W        W88703   4.894  38.044  14.324
27041W        W88704  16.569  31.522  12.968
27042W        W88705  34.996  28.106  14.282
27043W        W88706  14.598  37.881  12.889
27044W        W88707  35.397  25.116   4.131
27045W        W88708  37.923  12.710   0.954
27046W        W88709  26.101  42.029  13.324
27047W        W88710  13.770   3.829  10.499
27048W        W88711  29.928   8.238   3.812
27049W        W88712  18.565  12.673   2.861
27050W        W88713  13.291  36.089  10.499
27051W        W88714  43.454  16.572   4.326
27052W        W88715  12.174  38.041   1.924
27053W        W88716  21.044  28.949  12.910
27054W        W88717  24.532  21.159   3.315
27055W        W88718  41.874  33.485  12.444
27056W        W88719  20.140  28.482   0.859
27057W        W88720  18.173  22.534  14.989
27058W        W88721  16.149   0.399  11.511
27059W        W88722   1.480  32.005  12.557
27060W        W88723  37.860   6.922  13.332
27061W        W88724  22.641  16.708  11.553
27062W        W88725  12.710  27.468  14.365
27063W        W88726   2.936  38.401  11.379
27064W        W88727   1.765  21.024  10.973
27065W        W88728   3.775  31.503   1.872
27066W        W88729  18.153  12.139   3.187
27067W        W88730  13.654  41.508   3.708
27068W        W88731  30.932   7.802  14.516
27069W        W88732  17.606   1.901  11.468
27070W        W88733  21.100  32.440   0.803
27071W        W88734  33.446   7.746  10.508
27072W        W88735  19.107  32.635   0.782
27073W        W88736  30.450  11.336  10.541
27074W        W88737  38.331  19.231   0.892
27075W        W88738  44.762   1.239  11.549
27076W        W88739  27.115   9.356  11.874
27077W        W88740  19.115  40.391  13.442
27078W        W88741  20.217  15.626   4.335
27079W        W88742  31.406   4.430   1.849
27080W        W88743   1.739  14.151   4.226
27081W        W88744  37.545  28.076  13.477
27082W        W88745  41.842   7.754  12.972
27083W        W88746   6.680  26.646  12.966
27084W        W88747  36.378  19.681   3.338
27085W        W88748  18.701  40.946  13.949
27086W        W88749  17.620  42.813   5.133
27087W        W88750  29.021  41.482   1.240
27088W        W88751   9.371  26.466   1.845
27089W        W88752  39.887   9.756  14.513
27090W        W88753  17.707   8.721   5.182
27091W        W88754  10.744  39.025  12.364
27092W        W88755  24.131  43.471  14.868
27093W        W88756   9.396  11.257   3.844
27094W        W88757  29.062  42.789   9.953
27095W        W88758   5.309   5.331   2.232
27096W        W88759  28.999  40.529  12.440
27097W        W88760  34.528  26.084  13.878
27098W        W88761   5.877  26.064  11.390
27099W        W88762   0.412   5.736   2.730
27100W        W88763  28.165  23.045  13.511
27101W        W88764  19.628   2.931  10.141
27102W        W88765  18.072  30.030   0.858
27103W        W88766   0.974  36.438   3.805
27104W        W88767  11.371  11.649   4.600
27105W        W88768  24.484  12.702  10.527
27106W        W88769  39.471  36.450  11.574
27107W        W88770  10.302  15.160   1.921
27108W        W88771  12.304  23.103   2.666
27109W        W88772  37.401  20.247   1.740
27110W        W88773  34.548  11.132  14.355
27111W        W88774  29.135  33.990  12.487
27112W        W88775  33.567  37.878  12.503
27113W        W88776   8.331  29.147  11.993
27114W        W88777  10.326   4.259   4.739
27115W        W88778  21.709  17.279   1.220
27116W        W88779   1.446   8.703  10.130
27117W        W88780  27.070  42.777   2.268
27118W        W88781  27.542  28.976  13.820
27119W        W88782  18.072  17.671   0.728
27120W        W88783  22.714  12.853  11.535
27121W        W88784  20.687  18.294   3.272
27122W        W88785  10.745  39.491  13.979
27123W        W88786  22.015  24.063   2.802
27124W        W88787  17.571  19.695   2.299
27125W        W88788  19.088  11.253   2.886
27126W        W88789  27.662  23.178   0.770
27127W        W88790  17.175  25.093   1.883
27128W        W88791  26.995  17.203   1.762
27129W        W88792  43.395  19.047  13.401
27130W        W88793  35.950  25.540  13.832
27131W        W88794  44.467  23.046   3.868
27132W        W88795  31.005   6.335   4.698
27133W        W88796  25.174  35.050   2.806
27134W        W88797   5.773  31.912  10.551
27135W        W88798  31.915  37.394   5.274
27136W        W88799  37.074  10.713   3.326
27137W        W88800   9.652  36.365  11.562
27138W        W88801  41.936   8.167   2.799
27139W        W88802  17.771  30.019  11.470
27140W        W88803   6.753   0.410   3.150
27141W        W88804  40.541  35.866  10.980
27142W        W88805  23.052  27.548  11.015
27143W        W88806  22.169   6.421  12.428
27144W        W88807   8.244  22.684   1.251
27145W        W88808   7.861  20.717   0.394
27146W        W88809  17.251  29.648   3.670
27147W        W88810  41.476   0.299   3.687
27148W        W88811  32.943  30.546  11.373
27149W        W88812  12.199  33.429   3.791
27150W        W88813   3.413  24.647  13.377
27151W        W88814  11.758  17.768  12.065
27152W        W88815   2.330  35.527  11.382
27153W        W88816  42.785  15.310   4.820
27154W        W88817  13.150  23.584   4.634
27155W        W88818  19.661  30.647   4.286
27156W        W88819   6.713   4.862   3.847
27157W        W88820  22.009  24.545  13.513
27158W        W88821  29.040  30.058  12.374
27159W        W88822   4.814  37.442  14.888
27160W        W88823  30.524  19.179  12.351
27161W        W88824   7.678  40.949  12.367
27162W        W88825   1.469  35.897  14.031
27163W        W88826  27.100  29.106  10.593
27164W        W88827  16.210  35.403   4.761
27165W        W88828   1.243  18.069   2.794
27166W        W88829  17.115  12.132  11.470
27167W        W88830  19.177  17.108  11.465
27168W        W88831  13.308   2.292  12.378
27169W        W88832   9.856  22.676  12.833
27170W        W88833  36.515  43.362  10.528
27171W        W88834  31.531  12.763  10.521
27172W        W88835  24.078  16.798   1.232
27173W        W88836   1.794  41.337   3.738
27174W        W88837  21.596  35.543   4.287
27175W        W88838  31.614  14.327  10.893
27176W        W88839  26.975  25.595  11.451
27177W        W88840  25.640  21.656  13.045
27178W        W88841  38.547   4.804  12.827
27179W        W88842  37.558  38.420   1.787
27180W        W88843  38.879   1.794   1.704
27181W        W88844  25.490  28.617   1.747
27182W        W88845   0.455  11.266  13.484
27183W        W88846  41.435   1.257   4.771
27184W        W88847   6.323  21.260  10.423
27185W        W88848  32.593   3.716   1.924
27186W        W88849   2.793  23.226   4.599
27187W        W88850  38.061  26.604   0.786
27188W        W88851   3.775  41.529   3.699
27189W        W88852  25.039   9.352  11.574
27190W        W88853   0.420  18.052  10.956
27191W        W88854  19.132   1.779  11.127
27192W        W88855   1.861  31.943  10.888
27193W        W88856  37.427  22.223   3.693
27194W        W88857  43.990  34.462  13.544
27195W        W88858  17.081  34.545  12.460
27196W        W88859   5.731   4.293   0.730
27197W        W88860   4.268  24.001   0.743
27198W        W88861   1.293   3.261  14.855
27199W        W88862  41.004  20.643  14.381
27200W        W88863  10.752  25.130   0.419
27201W        W88864  17.080  15.328   2.220
27202W        W88865  32.496  29.012   3.809
27203W        W88866  27.109  14.300   5.242
27204W        W88867  30.138  22.606   4.282
27205W        W88868  30.990  32.573  11.123
27206W        W88869  26.103   3.322  10.418
27207W        W88870  39.879  44.444   4.783
27208W        W88871  27.186  38.508   3.660
27209W        W88872  39.448   5.794  13.842
27210W        W88873  37.521  24.550  13.318
27211W        W88874   6.303  30.929  14.460
27212W        W88875   7.911  16.762  12.041
27213W        W88876  23.616  30.529  14.277
27214W        W88877  44.505   3.451  10.625
27215W        W88878  28.063  13.714   0.255
27216W        W88879  17.122   1.885  14.428
27217W        W88880  35.389  18.120  14.018
27218W        W88881   2.257  17.307   9.944
27219W        W88882  36.384  14.820  14.289
27220W        W88883  10.760  44.488   3.347
27221W        W88884  15.639  39.824  12.931
27222W        W88885  27.659  11.210  14.366
27223W        W88886  37.956   6.911  12.062
27224W        W88887  10.381  22.526   4.309
27225W        W88888   8.298   6.742   1.257
27226W        W88889  18.591  31.975   1.910
27227W        W88890  31.457   6.372   1.339
27228W        W88891   0.452  26.656  11.987
27229W        W88892   9.388  39.490  11.947
27230W        W88893  31.086   7.294   2.666
27231W        W88894  27.094   1.276  13.887
27232W        W88895  20.691  18.193  14.925
27233W        W88896  34.488   0.327  10.644
27234W        W88897  10.359  35.100   3.780
27235W        W88898   7.277  23.160  11.975
27236W        W88899  23.561   5.744  10.941
27237W        W88900  29.439  40.415   0.925
27238W        W88901  17.790  36.543   1.807
27239W        W88902  28.457  43.379   1.862
27240W        W88903  38.516  33.546  14.955
27241W        W88904  21.102  19.061   4.260
27242W        W88905  17.165  41.349   3.381
27243W        W88906  17.293  35.971   1.778
27244W        W88907  16.282  26.967  13.420
27245W        W88908  12.156  38.051   0.863
27246W        W88909  37.459  13.309   3.360
27247W        W88910  29.450   0.969  11.526
27248W        W88911  10.374   4.881   2.708
27249W        W88912  42.305  10.363   4.351
27250W        W88913   1.325  18.695   4.697
27251W        W88914  27.962   7.700   1.213
27252W        W88915  40.434   3.366   5.117
27253W        W88916  38.055  36.350  10.913
27254W        W88917   1.748  32.915  13.952
27255W        W88918  42.996  35.946  13.849
27256W        W88919  19.128   3.806   1.847
27257W        W88920   3.455  16.576   3.270
27258W        W88921   6.325  27.567   1.783
27259W        W88922  42.004  23.626  14.003
27260W        W88923  15.791  18.617   3.270
27261W        W88924  35.597  22.017  12.004
27262W        W88925  25.683  37.434   5.220
27263W        W88926  22.743  35.454   1.713
27264W        W88927  24.150  40.522  14.454
27265W        W88928  26.031  22.540   3.744
27266W        W88929  11.755  18.082  13.932
27267W        W88930  38.553  44.904  10.954
27268W        W88931  16.240  39.826  14.278
27269W        W88932   2.305  32.973  11.064
27270W        W88933   2.801  31.584  10.487
27271W        W88934  41.787  33.613   1.351
27272W        W88935   5.812  42.454   0.932
27273W        W88936  31.142  42.010  11.947
27274W        W88937  12.848  44.843  11.609
27275W        W88938  26.640  38.960  13.343
27276W        W88939   9.181  41.429  10.965
27277W        W88940  21.225  25.709  14.012
27278W        W88941  21.075   9.395   2.279
27279W        W88942  34.943  34.115  11.101
27280W        W88943  22.193  10.371   2.820
27281W        W88944  39.946  31.028   4.680
27282W        W88945  35.990   5.819   4.768
27283W        W88946  43.283   6.243   3.854
27284W        W88947   5.331  32.064  11.381
27285W        W88948  30.143  20.724   9.989
27286W        W88949  40.984  15.213  10.459
27287W        W88950  39.328  25.072   2.308
27288W        W88951  35.439  20.044  11.566
27289W        W88952  20.240  35.394   0.833
27290W        W88953  37.928   3.766   0.417
27291W        W88954  43.877  36.880   3.756
27292W        W88955  19.062  41.981  10.596
27293W        W88956  37.041  11.772   1.765
27294W        W88957  16.777  31.459  13.510
27295W        W88958  17.613  31.579  13.381
27296W        W88959  20.719  38.469   4.733
27297W        W88960   3.303   5.926  13.362
27298W        W88961  11.180  43.371   0.967
27299W        W88962  12.281  30.955  14.836
27300W        W88963  10.317  16.708   2.247
27301W        W88964   3.729  36.079  12.078
27302W        W88965  39.869  33.104  14.794
27303W        W88966  29.544  43.433   1.845
27304W        W88967  13.636  35.896  12.469
27305W        W88968   4.749  41.944  14.408
27306W        W88969  22.667  19.738  14.293
27307W        W88970   3.322  25.620  14.438
27308W        W88971   5.314  22.719   3.760
27309W        W88972  11.198   2.358  11.920
27310W        W88973  43.863  15.198  12.045
27311W        W88974  24.192   5.316  14.014
27312W        W88975  23.508  39.441  11.605
27313W        W88976  39.367   1.314  14.798
27314W        W88977  18.690  42.505  11.439
27315W        W88978  18.106  41.292   1.775
27316W        W88979   6.709   9.882   1.228
27317W        W88980  43.449  12.643   3.718
27318W        W88981   5.262  26.643  13.867
27319W        W88982  32.053  13.195  14.322
27320W        W88983  22.215  27.530   4.689
27321W        W88984   6.415   6.234  14.463
27322W        W88985  35.854  20.057   3.339
27323W        W88986  22.743  44.339  13.844
27324W        W88987   5.838  11.181  14.926
27325W        W88988   4.431  19.534  11.128
27326W        W88989  14.156  44.832   4.128
27327W        W88990  26.533  37.041  14.812
27328W        W88991   1.861  22.647  14.399
27329W        W88992  32.937  28.124   0.441
27330W        W88993  34.402  24.565   1.284
27331W        W88994   9.860  12.255   3.735
27332W        W88995  24.019  20.059   2.727
27333W        W88996  39.408  33.913  12.531
27334W        W88997  17.750  37.922  14.009
27335W        W88998  26.042  20.578  11.594
27336W        W88999   4.910   8.698   4.317
27337W        W89000  37.387   9.653  12.871
27338W        W89001   5.385   8.267   1.825
27339W        W89002   7.342  44.835   0.838
27340W        W89003   3.430  10.281   0.909
27341W        W89004  38.035  20.725   0.383
27342W        W89005   4.429  37.077   1.848
27343W        W89006  43.485   7.863   3.340
27344W        W89007  43.388  27.454   0.872
27345W        W89008  17.260  31.502  14.800
27346W        W89009  19.158  27.576   3.816
27347W        W89010   7.694   8.365   0.308
27348W        W89011   9.181  38.422   1.730
27349W        W89012   1.736  24.678   2.366
27350W        W89013   2.374  32.629   0.938
27351W        W89014  12.199  39.531  11.030
27352W        W89015  16.809   4.916   4.738
27353W        W89016   6.760   0.963   2.342
27354W        W89017  39.534  32.084  13.337
27355W        W89018   2.824  37.377   0.880
27356W        W89019   2.261  13.145  11.000
27357W        W89020  24.594  35.467   1.359
27358W        W89021   0.853   3.285   0.882
27359W        W89022  38.565  35.999  10.924
27360W        W89023  29.174  42.775   4.836
27361W        W89024   1.282  34.450  14.476
27362W        W89025  19.089  21.218  12.911
27363W        W89026   5.356  23.213   2.317
27364W        W89027  11.685   9.883   1.791
27365W        W89028  39.946   6.197   2.810
27366W        W89029  32.456  42.982   0.735
27367W        W89030  20.576  36.541   2.679
27368W        W89031  23.685  24.184   0.462
27369W        W89032  28.156   3.432  14.937
27370W        W89033  32.894  16.239   1.342
27371W        W89034  19.619  28.583   4.819
27372W        W89035   8.880  17.632  14.348
27373W        W89036   4.892   1.758   2.392
27374W        W89037  26.620   0.356  12.374
27375W        W89038  22.593   1.355   0.899
27376W        W89039   4.217  32.036  13.044
27377W        W89040  17.186  12.154  12.849
27378W        W89041  10.342  31.407   2.237
27379W        W89042   2.467  44.273   3.185
27380W        W89043   4.829   6.864  11.899
27381W        W89044  21.164  36.999   1.908
27382W        W89045  38.019  27.023   4.630
27383W        W89046  29.445  36.873   4.268
27384W        W89047  24.166  29.007   2.758
27385W        W89048  12.300   7.334  11.991
27386W        W89049   3.889  27.568   4.181
27387W        W89050  18.672  12.823   3.801
27388W        W89051  19.672  40.384   0.247
27389W        W89052  19.228   3.724   0.869
27390W        W89053  21.047  31.589  13.308
27391W        W89054   4.232  26.067   0.899
27392W        W89055  29.961  23.011   1.732
27393W        W89056  33.451   2.722  14.853
27394W        W89057  24.540  39.324   3.254
27395W        W89058  11.719   8.274  11.080
27396W        W89059   1.434   1.385   4.247
27397W        W89060  21.516  36.553  13.968
27398W        W89061  15.685  30.984   2.853
27399W        W89062   2.292  10.141   0.298
27400W        W89063  38.422   0.838  14.968
27401W        W89064   1.433   7.284  14.300
27402W        W89065  11.824   7.331   1.259
27403W        W89066   6.417  15.275   3.148
27404W        W89067   4.407  30.958  13.429
27405W        W89068  43.279  39.041  11.100
27406W        W89069  13.350  23.691  12.998
27407W        W89070   4.405   4.922  10.562
27408W        W89071   3.832  31.513  13.791
27409W        W89072  34.108   6.913  13.793
27410W        W89073  12.164   3.898  13.477
27411W        W89074  43.837  26.589   0.915
27412W        W89075   0.939  34.090  14.994
27413W        W89076  17.203  36.551   0.322
27414W        W89077   1.386  14.832  10.598
27415W        W89078  32.493  41.015   3.148
27416W        W89079  37.510  42.414   0.732
27417W        W89080  34.113  22.683   0.840
27418W        W89081   0.816  33.041  14.027
27419W        W89082  33.550  14.206   1.321
27420W        W89083  40.491  13.324  12.371
27421W        W89084   5.248  12.726   3.203
27422W        W89085   4.782  13.193   0.317
27423W        W89086  41.007  18.604   2.738
27424W        W89087  41.828  28.016   4.214
27425W        W89088  27.599   1.796  12.876
27426W        W89089  15.642  17.092  10.455
27427W        W89090  12.309  36.019  11.053
27428W        W89091  40.030  29.446   2.678
27429W        W89092   3.892  44.779  10.542
27430W        W89093   9.848   8.838  13.986
27431W        W89094  40.005  15.136   3.357
27432W        W89095   8.707  20.618  10.888
27433W        W89096  28.676  28.510  10.621
27434W        W89097  27.098   5.896  14.881
27435W        W89098  12.709  14.106   0.296
27436W        W89099  31.045  38.372  11.917
27437W        W89100  30.608  31.003  14.444
27438W        W89101  32.890  15.318  13.427
27439W        W89102  17.196  33.100   3.775
27440W        W89103  10.702  27.088  13.545
27441W        W89104  41.330  27.446  10.931
27442W        W89105  15.189  19.624  14.317
27443W        W89106   4.875  44.767   0.377
27444W        W89107   4.703  35.567   4.150
27445W        W89108  37.899  11.256  12.460
27446W        W89109  42.897   8.783   0.425
27447W        W89110  24.230  42.380  12.059
27448W        W89111  37.885  39.814   1.382
27449W        W89112  15.110  30.141   0.899
27450W        W89113  10.296  12.711   0.956
27451W        W89114  30.436  26.667  14.946
27452W        W89115  25.165  11.698  11.916
27453W        W89116  20.158  35.956  13.882
27454W        W89117  39.490  40.399  13.832
27455W        W89118  12.810  42.405  10.563
27456W        W89119   1.411  15.644   2.799
27457W        W89120  39.023  21.546  10.431
27458W        W89121  18.090   4.781   0.820
27459W        W89122  13.117  29.554  14.947
27460W        W89123  41.002  31.973  12.090
27461W        W89124  37.543  31.648   1.275
27462W        W89125  23.094   7.172   4.712
27463W        W89126  24.131  33.398  13.935
27464W        W89127  44.447  37.916  12.549
27465W        W89128  25.541  38.856   4.126
27466W        W89129  30.488   4.333  11.950
27467W        W89130  12.763  12.281  11.560
27468W        W89131  42.324  17.559   2.221
27469W        W89132   0.973  36.542   2.276
27470W        W89133  29.604  42.525  13.343
27471W        W89134   8.387  32.052  11.371
27472W        W89135   9.198   1.407  14.971
27473W        W89136  35.476   5.208   4.650
27474W        W89137   5.193  43.902  11.068
27475W        W89138   6.286   9.219   4.771
27476W        W89139  16.696  19.113  12.863
27477W        W89140  24.517  32.476  10.920
27478W        W89141  41.353  30.481  11.546
27479W        W89142  21.054  11.675   0.276
27480W        W89143   8.309   5.859   1.254
27481W        W89144  44.439   9.850  14.405
27482W        W89145  37.566  39.315   4.351
27483W        W89146  24.565  12.817  14.457
27484W        W89147  38.389   1.334  14.919
27485W        W89148  14.245   5.404  13.850
27486W        W89149  42.837  30.934  14.881
27487W        W89150  23.003  12.353   4.814
27488W        W89151  22.205  23.514   3.870
27489W        W89152  15.135   5.691  12.475
27490W        W89153  23.001  30.092  11.560
27491W        W89154   1.936   4.845   2.695
27492W        W89155  37.563   7.875  11.472
27493W        W89156   9.859  27.195  13.818
27494W        W89157  21.562  18.584   3.219
27495W        W89158  43.425  20.558  11.397
27496W        W89159  40.985  38.475   1.251
27497W        W89160   4.360  31.573  13.479
27498W        W89161   7.692  39.915  11.905
27499W        W89162  23.191  14.241   2.302
27500W        W89163   7.227   3.361   0.868
27501W        W89164  13.676  14.592  14.826
27502W        W89165   9.886  34.412  11.078
27503W        W89166  16.274   0.915  11.589
27504W        W89167  30.650  11.813   1.849
27505W        W89168  19.624  33.395   0.851
27506W        W89169  14.764   4.875  14.426
27507W        W89170  35.052  30.997   0.967
27508W        W89171  32.936  11.189   1.786
27509W        W89172  32.497   5.903   0.849
27510W        W89173  27.052  33.415  11.592
27511W        W89174  25.510  15.313   1.328
27512W        W89175  17.661  20.055  12.001
27513W        W89176  25.042   0.871  11.921
27514W        W89177  15.730  20.614   0.391
27515W        W89178  33.597  15.581   0.301
27516W        W89179  24.637  13.217  14.390
27517W        W89180   4.733  13.182   1.786
27518W        W89181   3.420   3.880   3.705
27519W        W89182   8.223  20.526   4.616
27520W        W89183  16.159  20.051   2.714
27521W        W89184   0.284  17.066   4.259
27522W        W89185  29.941  22.649  13.902
27523W        W89186  25.114  15.157  10.569
27524W        W89187   8.887  37.044  11.577
27525W        W89188   0.910  42.019   4.811
27526W        W89189  11.320  27.036   0.957
27527W        W89190  28.150  32.608   1.790
27528W        W89191  31.059  43.485   3.183
27529W        W89192  37.363  20.108   0.940
27530W        W89193  10.316  23.047  11.425
27531W        W89194   8.840  14.792  11.386
27532W        W89195  39.401  18.637   0.362
27533W        W89196   2.277  13.250   1.349
27534W        W89197  40.456  40.452  11.892
27535W        W89198   3.291  42.369  10.448
27536W        W89199  44.961  25.158   2.805
27537W        W89200  37.398   5.197  11.106
27538W        W89201  19.051  22.666   2.717
27539W        W89202   2.401  41.312  14.303
27540W        W89203  12.166  35.911   4.697
27541W        W89204  13.626  33.057   1.408
27542W        W89205   5.794  13.672  12.937
27543W        W89206  22.038   2.292  13.037
27544W        W89207  32.002  39.488   1.718
27545W        W89208   9.172   0.337  14.404
27546W        W89209  29.606  15.602  14.423
27547W        W89210  35.087   9.729  13.427
27548W        W89211  13.157   3.832  11.986
27549W        W89212   0.826  11.272   0.432
27550W        W89213  22.191  27.962   3.823
27551W        W89214  20.189  17.084   4.323
27552W        W89215  21.714  16.585  13.845
27553W        W89216  37.064   2.465   4.777
27554W        W89217  39.951  24.590   2.707
27555W        W89218  31.632  18.164   4.728
27556W        W89219  28.626  42.823   3.801
27557W        W89220  40.485   1.737   3.786
27558W        W89221  32.068  38.391  10.114
27559W        W89222  40.032  20.201   1.830
27560W        W89223  12.302  43.278  11.458
27561W        W89224  24.008  35.563  12.918
27562W        W89225  22.178  33.484   0.806
27563W        W89226  31.144   9.774  13.314
27564W        W89227   3.319  41.404  11.584
27565W        W89228  23.502  26.190  14.878
27566W        W89229  31.556  33.983  11.384
27567W        W89230  14.142  43.876  10.610
27568W        W89231   6.222  38.497  11.017
27569W        W89232   0.926  29.568   2.738
27570W        W89233   2.826  14.752  12.462
27571W        W89234  22.025  27.471  10.612
27572W        W89235  32.622   2.892  12.465
27573W        W89236  28.183  35.411  13.016
27574W        W89237  25.568  23.614   4.214
27575W        W89238   4.930  37.000  13.978
27576W        W89239  32.635  12.198   3.767
27577W        W89240  41.470  28.987   2.860
27578W        W89241  23.729  10.181  13.814
27579W        W89242  32.985  32.612  14.372
27580W        W89243   6.880  15.089  13.510
27581W        W89244  32.468  42.417  13.487
27582W        W89245  31.100  34.497   2.251
27583W        W89246  32.433  16.784  14.806
27584W        W89247  20.151  27.029  12.981
27585W        W89248  20.606  36.899  11.392
27586W        W89249   4.801  43.016   0.434
27587W        W89250  30.495  20.562   2.317
27588W        W89251  39.014  21.673   1.279
27589W        W89252   8.236  41.490  10.890
27590W        W89253   3.362   0.417  12.074
27591W        W89254  22.544  10.175   3.215
27592W        W89255  39.328  43.494   3.745
27593W        W89256  37.526   6.372  14.387
27594W        W89257  41.879  28.181  11.890
27595W        W89258  18.281   0.294   1.438
27596W        W89259  36.889   6.812   2.402
27597W        W89260   5.692  34.002  11.498
27598W        W89261  19.608  28.519  13.545
27599W        W89262  29.614   8.170   3.857
27600W        W89263  43.888  41.884  11.588
27601W        W89264  32.959  22.082  13.448
27602W        W89265  34.959  17.588   2.390
27603W        W89266   1.465  44.312   4.353
27604W        W89267  42.916  37.481   2.304
27605W        W89268  18.591  22.017  11.385
27606W        W89269  17.298  28.099  14.979
27607W        W89270  33.497  24.103   4.140
27608W        W89271  43.989   6.894  10.477
27609W        W89272  35.459  34.551   4.270
27610W        W89273  35.539  30.148   1.701
27611W        W89274  20.717  24.648   3.374
27612W        W89275  15.085  39.842   1.255
27613W        W89276   3.907  25.040  12.482
27614W        W89277  42.888  41.978   2.850
27615W        W89278   5.889  29.442   1.294
27616W        W89279  41.950  17.083   2.790
27617W        W89280   6.778  11.780   4.328
27618W        W89281   2.736   0.469  10.969
27619W        W89282  28.029  42.319   1.299
27620W        W89283  30.947  33.032   4.215
27621W        W89284  17.191  14.805   1.847
27622W        W89285   7.201   0.475   3.309
27623W        W89286  12.189   1.387  14.763
27624W        W89287  30.958   3.929   1.272
27625W        W89288  19.572  41.836  14.893
27626W        W89289  42.868  20.178  14.997
27627W        W89290  18.667  24.536  12.904
27628W        W89291   9.193  20.264  12.906
27629W        W89292  35.366  30.553   3.359
27630W        W89293  10.775   7.277  11.388
27631W        W89294   4.942  10.140  11.561
27632W        W89295  23.579   9.180   3.256
27633W        W89296  14.828  30.440  10.439
27634W        W89297  20.175   1.972  10.989
27635W        W89298   6.397  44.347   4.348
27636W        W89299  36.077  41.377   1.804
27637W        W89300   1.922  42.433   3.332
27638W        W89301  31.069  40.877  13.494
27639W        W89302   2.361   7.375   2.693
27640W        W89303  39.363  44.789  14.398
27641W        W89304  17.126  41.023   1.384
27642W        W89305   7.343  11.225   4.707
27643W        W89306  18.641  43.470   1.720
27644W        W89307  18.642   4.248  12.564
27645W        W89308  34.370  43.331  14.318
27646W        W89309  38.847  35.360  14.845
27647W        W89310  18.119  41.875   3.644
27648W        W89311  36.053  34.454  10.898
27649W        W89312   6.689   7.241   2.322
27650W        W89313  35.419  36.895  11.894
27651W        W89314  21.035  15.197   4.182
27652W        W89315  44.397  29.018   2.293
27653W        W89316  26.162  28.931   2.761
27654W        W89317   9.879  11.648  12.406
27655W        W89318  41.037  29.079  13.411
27656W        W89319  41.537  12.225   4.780
27657W        W89320  44.329  22.722  12.015
27658W        W89321  30.980  16.214   2.773
27659W        W89322  40.506  16.778  14.504
27660W        W89323  21.572   7.735  12.475
27661W        W89324  20.664   3.812  12.867
27662W        W89325   5.855   2.761   4.830
27663W        W89326  18.058  33.917   3.716
27664W        W89327  12.755   5.838   4.755
27665W        W89328   1.302  17.626   1.789
27666W        W89329  38.529  29.171   2.256
27667W        W89330  37.862  39.517   4.599
27668W        W89331  23.535  21.042   0.301
27669W        W89332  15.804  19.742  11.883
27670W        W89333  24.092   6.390   4.671
27671W        W89334  38.872   0.283   2.888
27672W        W89335  42.898  37.861  12.033
27673W        W89336  36.379  17.239  11.958
27674W        W89337  29.073  30.551   4.121
27675W        W89338  37.874   4.868  10.106
27676W        W89339  20.035  41.471  11.561
27677W        W89340  29.544  20.540  10.601
27678W        W89341   1.364   9.233   4.202
27679W        W89342   0.471  35.466  14.504
27680W        W89343  31.543  23.005   2.232
27681W        W89344   0.860  18.239   3.737
27682W        W89345  18.087  34.575   0.954
27683W        W89346  36.440  13.304   3.250
27684W        W89347  29.425   0.761   0.312
27685W        W89348  29.433   5.847  14.393
27686W        W89349  14.681  39.013  11.088
27687W        W89350  22.020  44.755   4.300
27688W        W89351   2.777  39.017  14.945
27689W        W89352  17.253  44.288   3.772
27690W        W89353  10.224  39.836  12.048
27691W        W89354  44.804  22.744  12.867
27692W        W89355  14.699  39.061  12.348
27693W        W89356  28.483  35.504  14.797
27694W        W89357   7.726  12.121   3.754
27695W        W89358   6.270  24.205  14.896
27696W        W89359   2.276   5.700   2.854
27697W        W89360  37.949  32.507  10.935
27698W        W89361  22.111   9.289   1.221
27699W        W89362  37.966  24.222  14.353
27700W        W89363  29.176   5.194  11.373
27701W        W89364   7.313  26.960  14.955
27702W        W89365  14.205  32.023  12.571
27703W        W89366  39.315  14.321  12.953
27704W        W89367   7.789  21.045  12.526
27705W        W89368  10.710  20.755  13.539
27706W        W89369  28.996  40.455  14.874
27707W        W89370  22.629   7.872  12.845
27708W        W89371   2.297  17.160  13.334
27709W        W89372   7.342  30.084   3.326
27710W        W89373  17.645   8.764  12.445
27711W        W89374   4.708  24.047   0.376
27712W        W89375   0.314  34.405   1.451
27713W        W89376  33.523  19.684   4.297
27714W        W89377  13.762  23.001  11.572
27715W        W89378  36.020  41.822  14.295
27716W        W89379  30.120   5.834   1.291
27717W        W89380   6.685  24.051  10.445
27718W        W89381   4.222  10.329  14.760
27719W        W89382   4.240  33.551  13.850
27720W        W89383  24.034  24.677  11.531
27721W        W89384  43.500  21.630  12.553
27722W        W89385   5.756  30.481   0.845
27723W        W89386  14.782  11.856   4.253
27724W        W89387  30.613   0.742  11.538
27725W        W89388  27.573  31.440  11.480
27726W        W89389  19.769  29.500   1.850
27727W        W89390   7.347  15.651  12.838
27728W        W89391   5.933  14.248  13.412
27729W        W89392  37.453  32.093   2.381
27730W        W89393  29.173  20.745  11.902
27731W        W89394  21.546  44.803   4.779
27732W        W89395  38.896  44.484   2.367
27733W        W89396  16.733  25.655   4.636
27734W        W89397   3.884  24.122  10.638
27735W        W89398  32.133   9.339   1.914
27736W        W89399   9.326  17.149  13.961
27737W        W89400   1.292  27.194   3.248
27738W        W89401  44.838  40.830   0.804
27739W        W89402  31.141  20.039  11.593
27740W        W89403  18.159  13.689   2.384
27741W        W89404  16.626  30.465  12.419
27742W        W89405   3.956   2.936   1.275
27743W        W89406  28.936  39.523  11.994
27744W        W89407  11.838  17.163   2.671
27745W        W89408  21.152  17.570   4.628
27746W        W89409  44.472  31.428  14.884
27747W        W89410  35.408   7.679   0.872
27748W        W89411  22.514  32.396  11.571
27749W        W89412  10.231  44.886   0.821
27750W        W89413  24.080   9.377   0.817
27751W        W89414  25.996  12.245  14.276
27752W        W89415  31.584  16.627   3.385
27753W        W89416  41.028  41.814   1.368
27754W        W89417   1.954  44.369  13.879
27755W        W89418  32.894  20.707   2.348
27756W        W89419  20.103  10.670  14.837
27757W        W89420  24.199  34.105   1.445
27758W        W89421   0.416  22.039  14.357
27759W        W89422  43.468  31.940   3.870
27760W        W89423  13.172  33.891   0.303
27761W        W89424  18.729  23.164  14.356
27762W        W89425  15.803  17.772  13.937
27763W        W89426  18.556  42.015   3.305
27764W        W89427   1.399   6.739   0.344
27765W        W89428  43.295  43.994  12.395
27766W        W89429  16.589  38.050  11.027
27767W        W89430  38.933  17.075  14.011
27768W        W89431  10.743   8.709   3.277
27769W        W89432   6.275  25.027  10.537
27770W        W89433  36.489  24.611  11.606
27771W        W89434  22.595  22.212  12.894
27772W        W89435   4.850  21.237   0.835
27773W        W89436  35.911  22.064   4.730
27774W        W89437  17.248  18.085  12.999
27775W        W89438  30.118  20.144   4.237
27776W        W89439   4.721  16.114   4.264
27777W        W89440  33.129  42.494  13.456
27778W        W89441  16.773   9.227  11.521
27779W        W89442  35.995  21.724  10.963
27780W        W89443  43.321   8.851  12.848
27781W        W89444  13.264  30.993  12.065
27782W        W89445   8.314   4.248  14.472
27783W        W89446  14.718  43.357  11.058
27784W        W89447  21.673  30.922  11.456
27785W        W89448   2.375  15.611   4.827
27786W        W89449  35.561  31.420   3.361
27787W        W89450  36.919   6.234   3.639
27788W        W89451  18.556   3.838  11.389
27789W        W89452  33.497  27.173   0.817
27790W        W89453  31.621   2.471   4.224
27791W        W89454  34.390  26.166  11.380
27792W        W89455  24.039  29.170  12.007
27793W        W89456  12.187  30.559  11.963
27794W        W89457  38.437  27.597  10.608
27795W        W89458  11.652  40.518   4.332
27796W        W89459  27.139  35.503  12.343
27797W        W89460   8.385  29.997   0.820
27798W        W89461  12.336  22.206   1.726
27799W        W89462  21.718  23.733  11.611
27800W        W89463  20.150  31.499   0.839
27801W        W89464  25.708  14.599  14.005
27802W        W89465  14.793  22.150   4.151
27803W        W89466   5.374  32.008   2.695
27804W        W89467   7.857  20.631  10.472
27805W        W89468  19.617  32.058   1.361
27806W        W89469  29.670  38.819   0.757
27807W        W89470  30.600  23.629  10.503
27808W        W89471  10.801  40.461  12.987
27809W        W89472  40.509  27.080  14.025
27810W        W89473   4.379  26.044   2.305
27811W        W89474  22.031  41.979   2.199
27812W        W89475  25.093  24.628  13.429
27813W        W89476  35.373  39.967  14.935
27814W        W89477   1.278  31.506   4.833
27815W        W89478  16.786   9.779  11.986
27816W        W89479  15.770  36.863  11.442
27817W        W89480  14.330  42.867  10.628
27818W        W89481  16.727  29.450  14.277
27819W        W89482  12.210   6.824   3.355
27820W        W89483  39.848  39.423  14.770
27821W        W89484  21.626  33.104   4.166
27822W        W89485  35.368  24.986   4.740
27823W        W89486   8.199  41.895  13.369
27824W        W89487  41.310  41.312  12.963
27825W        W89488  37.481  15.246   4.226
27826W        W89489   8.398  27.506  13.022
27827W        W89490  38.937   0.864   2.868
27828W        W89491   1.926  22.733   3.870
27829W        W89492   1.248  23.713   3.737
27830W        W89493   1.312  11.363  13.908
27831W        W89494  28.608  22.174   4.261
27832W        W89495   0.751  36.964   2.365
27833W        W89496  20.081  10.375  10.153
27834W        W89497  33.923  14.179   0.733
27835W        W89498  12.736   0.406   0.267
27836W        W89499  20.161  18.098   1.756
27837W        W89500  23.578  16.196   2.685
27838W        W89501  42.402  29.968   2.189
27839W        W89502   1.310  30.059  11.565
27840W        W89503  28.168  13.699   2.187
27841W        W89504  18.678  21.719  14.977
27842W        W89505  24.015  28.549  10.645
27843W        W89506   7.811  40.395   3.739
27844W        W89507  44.340  11.226  10.958
27845W        W89508  38.561  14.655  12.393
27846W        W89509  15.769  16.803  14.982
27847W        W89510   1.814  23.659  10.978
27848W        W89511  44.322  16.109  11.467
27849W        W89512  28.537  36.965  14.943
27850W        W89513   0.842  38.930   3.299
27851W        W89514  23.043  12.640  14.353
27852W        W89515   3.756  38.952  11.059
27853W        W89516  38.892  42.468   4.341
27854W        W89517  39.433  23.563  14.869
27855W        W89518  26.044  13.284  11.601
27856W        W89519  27.989   4.895   2.690
27857W        W89520  23.514  15.650  14.922
27858W        W89521  36.983  10.310  13.984
27859W        W89522  31.474  19.567   0.434
27860W        W89523  16.110  21.629  14.902
27861W        W89524   4.730  41.308  12.575
27862W        W89525   3.778  26.611   3.192
27863W        W89526  41.929  43.868   0.245
27864W        W89527  34.972  42.329  11.525
27865W        W89528  34.381   2.952   1.315
27866W        W89529  38.369  44.007   2.696
27867W        W89530  23.116   5.920   1.356
27868W        W89531  32.603  38.435  14.946
27869W        W89532  10.149  38.896   1.734
27870W        W89533   1.272  34.475   0.375
27871W        W89534  36.464   5.303  13.442
27872W        W89535  18.598  41.341   1.913
27873W        W89536  12.126  27.646  14.334
27874W        W89537  31.623  12.289   1.393
27875W        W89538   2.356   6.246  11.485
27876W        W89539  23.209  43.369  11.124
27877W        W89540  11.699  24.494  10.931
27878W        W89541  24.497  19.610   3.637
27879W        W89542  22.119  39.492   2.872
27880W        W89543  29.091  44.383   4.164
27881W        W89544  29.629  26.544   0.359
27882W        W89545  40.318  34.533  11.475
27883W        W89546  19.609  26.053  12.933
27884W        W89547  30.921  13.818   2.901
27885W        W89548  35.858  40.872   0.885
27886W        W89549   9.215  34.894   1.877
27887W        W89550   8.873  10.142  14.283
27888W        W89551   5.868  32.455   0.381
27889W        W89552   6.819  26.030  14.972
27890W        W89553  21.521   6.706  13.952
27891W        W89554  36.985   9.801   1.850
27892W        W89555  13.693  18.650  11.023
27893W        W89556  40.993  11.668   4.191
27894W        W89557  34.061  37.412  10.503
27895W        W89558  11.817  28.980  14.963
27896W        W89559   8.832  41.891   1.884
27897W        W89560   1.921  23.222  11.390
27898W        W89561  16.577  37.879   3.381
27899W        W89562  32.481  37.404  12.984
27900W        W89563  32.479  10.687  13.423
27901W        W89564  35.964  39.363   0.318
27902W        W89565  24.037  14.212  14.889
27903W        W89566  12.763  28.118   3.204
27904W        W89567  27.019   8.216  12.019
27905W        W89568  18.621  19.073  13.430
27906W        W89569  18.742  11.632  12.354
27907W        W89570  10.146   0.475   3.286
27908W        W89571  18.720  23.587   2.773
27909W        W89572  21.682   8.258  11.994
27910W        W89573   8.669  24.197  14.396
27911W        W89574  32.099  19.119  13.369
27912W        W89575  43.862  22.208  11.387
27913W        W89576   2.322  11.162   2.864
27914W        W89577  34.971  23.693   3.192
27915W        W89578   4.293  36.903   2.683
27916W        W89579  36.436  15.603  12.464
27917W        W89580  24.037  15.700  13.064
27918W        W89581   6.415  34.068  11.010
27919W        W89582   4.225  32.413   1.432
27920W        W89583  14.683   9.680  14.299
27921W        W89584  36.927  41.485   4.606
27922W        W89585  16.616  13.701   3.320
27923W        W89586   9.871  27.593  10.982
27924W        W89587  25.561  44.848   0.770
27925W        W89588  22.729   0.886   0.817
27926W        W89589  42.451  13.241  12.939
27927W        W89590  28.936   1.973  14.500
27928W        W89591   1.398  13.685   4.345
27929W        W89592  29.668   6.383  11.887
27930W        W89593  36.387  10.369  14.471
27931W        W89594  44.002  16.297  10.954
27932W        W89595  37.549  21.756  14.413
27933W        W89596  22.633  42.461   0.846
27934W        W89597  24.171  10.299  12.876
27935W        W89598   5.929  36.572  11.470
27936W        W89599  31.433  39.357   0.475
27937W        W89600  38.937  20.071  14.422
27938W        W89601  19.194  35.487  10.570
27939W        W89602   4.366  28.013   1.919
27940W        W89603  27.608  20.683  12.090
27941W        W89604  38.857  34.457   2.694
27942W        W89605  39.857   5.238  14.025
27943W        W89606  23.200  34.059  14.474
27944W        W89607  21.182   5.911  14.506
27945W        W89608   9.309  37.045  14.294
27946W        W89609  35.466  20.522   2.315
27947W        W89610  16.117  15.270  12.892
27948W        W89611  38.838  28.646  13.812
27949W        W89612   5.199  24.671   1.447
27950W        W89613   5.395  40.351  11.508
27951W        W89614  11.202  14.260   0.464
27952W        W89615  28.610  23.562  12.823
27953W        W89616  41.018   2.927   2.267
27954W        W89617  11.797  11.748  11.415
27955W        W89618  28.544  18.183   0.961
27956W        W89619   2.824   8.358   1.346
27957W        W89620   4.297  38.003   1.412
27958W        W89621  31.917  32.605  14.892
27959W        W89622  42.998  33.033  13.870
27960W        W89623  15.762  22.215   4.767
27961W        W89624   8.792   9.751  11.598
27962W        W89625  25.616   2.384  13.900
27963W        W89626  15.683  17.664   4.207
27964W        W89627  13.740  29.562   2.367
27965W        W89628  32.521  20.031   2.824
27966W        W89629  37.516   0.781  13.839
27967W        W89630  37.966  44.296  10.515
27968W        W89631  23.236  39.488  12.377
27969W        W89632   8.849  25.638   4.310
27970W        W89633   4.863  19.110  10.016
27971W        W89634  25.681  31.076   0.344
27972W        W89635   7.374   6.874   3.264
27973W        W89636  36.965  22.608  12.407
27974W        W89637  38.454  44.287   1.290
27975W        W89638   8.789  26.462  10.626
27976W        W89639  35.852  21.101   0.243
27977W        W89640  22.610  24.225   1.293
27978W        W89641  34.377  31.977   2.185
27979W        W89642  17.713  16.260  10.154
27980W        W89643  38.022  10.684  14.768
27981W        W89644  26.137  32.948  14.390
27982W        W89645   0.900  10.773   1.315
27983W        W89646  41.883   3.889  12.529
27984W        W89647  26.474   3.870   0.789
27985W        W89648   1.771   6.849   3.311
27986W        W89649   0.468  24.524   3.800
27987W        W89650  23.631  18.232   4.629
27988W        W89651  23.140  30.543   4.692
27989W        W89652  42.825  24.523   1.840
27990W        W89653  15.223  25.993   0.744
27991W        W89654  16.733   5.362   1.926
27992W        W89655  42.287   6.685   1.935
27993W        W89656  29.530   4.840   5.204
27994W        W89657  36.363  27.459  11.861
27995W        W89658  19.657   9.752   0.855
27996W        W89659  29.658  38.344   0.787
27997W        W89660  28.150   3.952   0.915
27998W        W89661  32.128  32.906  12.871
27999W        W89662  30.571   3.408   1.814
28000W        W89663  20.573  19.711   4.623
28001W        W89664  28.996  12.784   3.241
28002W        W89665  35.886   1.848  14.979
28003W        W89666  17.247  23.062   2.753
28004W        W89667  32.514   4.302  11.944
28005W        W89668   6.199  19.241   3.356
28006W        W89669  14.228  22.996  10.950
28007W        W89670  36.467   5.868   3.212
28008W        W89671  42.951  29.174   2.822
28009W        W89672  10.291  28.967   4.804
28010W        W89673  23.570  36.577   3.365
28011W        W89674  36.562  12.302   4.609
28012W        W89675   3.715  17.674   2.183
28013W        W89676   8.889  12.685  11.895
28014W        W89677  35.398  43.464   0.803
28015W        W89678  31.108  35.376  11.963
28016W        W89679  18.128  24.182  10.543
28017W        W89680   4.268  31.920  14.285
28018W        W89681  18.291  34.507  14.421
28019W        W89682   5.744  21.263   2.362
28020W        W89683   5.909  16.622  10.435
28021W        W89684  39.862  27.545   4.616
28022W        W89685   9.322  19.619   2.248
28023W        W89686  17.660  17.787  14.364
28024W        W89687  18.648   8.879  13.460
28025W        W89688  39.352   6.422   0.835
28026W        W89689   1.276  18.611   0.367
28027W        W89690  22.074  38.341  12.561
28028W        W89691  38.560  34.001  14.326
28029W        W89692  26.508  10.712  14.943
28030W        W89693  40.369   0.747   4.799
28031W        W89694  10.319  10.819  11.580
28032W        W89695  25.618  37.987  14.936
28033W        W89696  17.585  14.182   0.282
28034W        W89697  14.612   8.795  13.947
28035W        W89698  32.103  19.232   4.691
28036W        W89699  10.871   4.841  13.892
28037W        W89700   4.846  11.171   4.118
28038W        W89701   9.885  20.062  10.436
28039W        W89702  30.421  38.528   1.704
28040W        W89703  23.659  41.831   2.681
28041W        W89704  30.163  20.168  13.806
28042W        W89705  21.045  22.078  13.918
28043W        W89706  33.999  39.538   0.945
28044W        W89707   5.323  14.746  11.553
28045W        W89708  31.922   8.287   3.364
28046W        W89709  30.572  41.528   1.819
28047W        W89710  10.221  39.355  12.361
28048W        W89711  17.150  44.766   1.368
28049W        W89712   3.389  20.691  12.409
28050W        W89713  20.113  33.517   2.878
28051W        W89714  11.235   8.351  14.990
28052W        W89715  27.986  35.372  11.901
28053W        W89716  41.941   9.859   2.842
28054W        W89717  43.428  31.597  11.525
28055W        W89718   1.443  15.161  10.985
28056W        W89719   6.363  20.145  14.984
28057W        W89720  32.394  32.618  11.516
28058W        W89721  26.682  39.880  12.393
28059W        W89722   2.843  41.346  10.893
28060W        W89723  24.511  40.336   2.851
28061W        W89724  14.329  26.194   2.751
28062W        W89725  31.444  35.103   4.740
28063W        W89726   8.263  16.664   1.725
28064W        W89727  38.339  29.029  10.419
28065W        W89728   5.754  28.929  10.534
28066W        W89729  36.591  35.481  13.017
28067W        W89730  29.173  33.517   4.206
28068W        W89731  40.047  19.164   3.635
28069W        W89732   3.723  39.961   0.372
28070W        W89733   7.873  19.598  12.989
28071W        W89734   2.792  11.805   2.730
28072W        W89735  13.338   7.678   1.733
28073W        W89736  38.503  30.635  12.422
28074W        W89737  21.705   9.735  13.338
28075W        W89738  40.475  28.936   0.921
28076W        W89739   1.263   5.770   0.357
28077W        W89740  44.424  12.672  10.960
28078W        W89741  14.702  41.423   1.776
28079W        W89742  16.279   6.398  14.443
28080W        W89743   7.899  22.612   2.795
28081W        W89744  37.004  42.032   3.229
28082W        W89745  11.667  18.563   2.233
28083W        W89746   0.985  29.553  10.912
28084W        W89747  27.488  17.224  14.775
28085W        W89748  40.518  23.113   2.286
28086W        W89749  36.931  25.009   0.933
28087W        W89750  29.068   4.846   2.758
28088W        W89751   5.214  24.522  11.530
28089W        W89752   0.792  19.641  10.052
28090W        W89753  43.445  11.350  10.991
28091W        W89754  10.738  15.243   3.648
28092W        W89755  10.651  35.981   2.221
28093W        W89756  40.451  21.083  12.520
28094W        W89757  35.464  31.417   0.777
28095W        W89758  36.865  36.923   4.175
28096W        W89759  12.141  40.454  10.513
28097W        W89760  24.696  23.180   0.897
28098W        W89761  26.128  24.640   4.164
28099W        W89762  17.566   4.734  11.509
28100W        W89763   4.227  27.073   3.640
28101W        W89764  44.908   7.707   3.652
28102W        W89765  27.051  14.772  12.912
28103W        W89766  30.619  30.965  10.611
28104W        W89767  40.404  34.902   2.855
28105W        W89768  25.678  30.433  14.936
28106W        W89769  34.060  10.337   4.271
28107W        W89770   4.859  30.588  11.958
28108W        W89771   9.151  31.451  13.000
28109W        W89772   8.208  37.078  10.461
28110W        W89773  26.168   8.265   3.183
28111W        W89774   0.867  36.520  10.406
28112W        W89775  28.026  35.434   0.390
28113W        W89776  25.653  17.208  10.122
28114W        W89777  38.380  29.626  14.290
28115W        W89778  29.087  40.414   1.262
28116W        W89779  22.034  15.634   4.189
28117W        W89780  40.401   0.846   0.272
28118W        W89781  43.803  18.661   4.256
28119W        W89782   9.736   2.792   1.886
28120W        W89783  28.960  40.529   0.917
28121W        W89784   9.761  37.461  12.896
28122W        W89785   3.804   1.265  12.980
28123W        W89786  44.352  29.128  11.087
28124W        W89787  15.313  31.087  11.080
28125W        W89788   6.719  22.169  12.018
28126W        W89789  22.639  29.661   0.787
28127W        W89790  44.428  44.336  13.534
28128W        W89791  15.644  36.957  14.366
28129W        W89792  17.112  11.776  11.957
28130W        W89793   2.771  38.939   2.276
28131W        W89794  20.151  23.155  11.001
28132W        W89795  42.390  14.204  10.107
28133W        W89796  20.210  22.162   0.830
28134W        W89797  23.997  42.011   4.288
28135W        W89798  35.879  39.883   2.898
28136W        W89799  40.456   7.671  12.049
28137W        W89800  30.581  38.039  13.542
28138W        W89801  10.794  34.938  14.475
28139W        W89802  26.110  10.662   1.694
28140W        W89803  33.421  30.984   4.174
28141W        W89804  44.809  32.510   0.286
28142W        W89805  17.669  34.046   4.666
28143W        W89806  26.552  20.721   3.764
28144W        W89807  10.253  30.488  10.063
28145W        W89808  17.727  43.475  12.892
28146W        W89809   6.810  44.490  13.395
28147W        W89810  13.698   1.847  14.356
28148W        W89811  31.064  38.447   3.276
28149W        W89812  37.579  38.970   4.676
28150W        W89813  35.912  37.478  12.435
28151W        W89814  30.109  40.880  14.416
28152W        W89815  37.891  25.654  14.312
28153W        W89816   6.291  30.574  13.986
28154W        W89817  18.766  13.622   3.649
28155W        W89818   6.804  16.111   2.882
28156W        W89819  42.937  32.417  14.932
28157W        W89820  18.153  30.139  12.510
28158W        W89821  37.004  37.377   3.800
28159W        W89822   0.870  17.752  12.408
28160W        W89823  14.111  33.034   2.392
28161W        W89824  18.702  30.491  13.928
28162W        W89825  26.564  29.120   3.834
28163W        W89826  25.545  10.739   0.850
28164W        W89827   2.835  29.000  12.007
28165W        W89828  10.869   2.342   0.415
28166W        W89829  35.082  28.174  12.886
28167W        W89830  18.201  43.966  10.934
28168W        W89831  23.988  21.689   4.722
28169W        W89832  20.767   9.205  14.381
28170W        W89833  10.658  38.880   3.315
28171W        W89834  24.165  40.953   2.371
28172W        W89835  38.446  40.814  10.973
28173W        W89836  22.555  37.055  14.975
28174W        W89837  37.433  41.847  10.961
28175W        W89838  11.740  22.126  14.965
28176W        W89839  31.580  24.711  13.515
28177W        W89840  30.979  15.272   4.311
28178W        W89841   1.341  41.360   2.750
28179W        W89842  22.153  31.401   4.346
28180W        W89843   9.202   6.362   2.326
28181W        W89844  31.480  14.625  10.426
28182W        W89845   9.170  27.559   3.723
28183W        W89846  12.339  13.160  13.980
28184W        W89847  40.913   4.442  12.879
28185W        W89848  16.247   4.264  13.363
28186W        W89849   1.444  19.595   0.279
28187W        W89850  41.035  17.278  14.997
28188W        W89851  24.166  17.588  13.356
28189W        W89852  32.072  38.956  11.598
28190W        W89853  19.282  41.804   3.750
28191W        W89854  21.206   3.264  13.439
28192W        W89855  27.989  32.606   2.406
28193W        W89856  24.206  38.325  13.987
28194W        W89857  43.442  12.211  12.538
28195W        W89858   6.891  18.638  13.335
28196W        W89859  25.685  27.021  12.938
28197W        W89860  22.220  14.329  11.376
28198W        W89861  24.641  28.437   2.328
28199W        W89862  24.637  15.602   3.271
28200W        W89863  38.446  29.665   0.457
28201W        W89864  16.809  29.000  12.408
28202W        W89865   5.827  41.889   4.794
28203W        W89866   5.856  24.685  12.846
28204W        W89867   2.430  17.772   4.768
28205W        W89868  31.922  24.015   0.898
28206W        W89869  20.524  14.700   1.308
28207W        W89870   2.783  28.667  13.438
28208W        W89871  34.545  10.790  10.130
28209W        W89872  21.689  43.020  13.046
28210W        W89873  15.586  10.384   4.716
28211W        W89874   8.376  40.404  12.020
28212W        W89875  10.138  35.042   2.199
28213W        W89876  32.052  21.740  14.907
28214W        W89877  13.730  12.716  10.616
28215W        W89878  20.661  15.618  12.904
28216W        W89879  29.004  31.032   0.478
28217W        W89880  22.579  29.612  12.904
28218W        W89881  44.295   5.286   3.295
28219W        W89882  16.319  15.819  12.448
28220W        W89883  27.624  14.766  12.996
28221W        W89884  38.878  36.084  10.638
28222W        W89885  25.592  32.121  12.889
28223W        W89886  23.233  27.664  14.338
28224W        W89887  26.076  28.929  10.455
28225W        W89888  26.004   5.362  12.469
28226W        W89889  30.477  23.079   4.678
28227W        W89890  37.862   0.262   3.309
28228W        W89891  15.320  20.254  12.016
28229W        W89892  18.108  26.491   4.210
28230W        W89893  34.977   5.893   3.754
28231W        W89894  43.922  13.237  10.594
28232W        W89895  31.459  40.811   2.678
28233W        W89896  34.114  13.285  10.504
28234W        W89897  12.813  27.549   2.188
28235W        W89898  15.691  29.997  14.416
28236W        W89899  31.970  35.912  13.322
28237W        W89900  27.986  14.765   0.898
28238W        W89901   6.228  36.374  12.540
28239W        W89902  30.566  11.291   2.366
28240W        W89903  28.952  30.124  13.530
28241W        W89904  12.215  20.718   4.269
28242W        W89905  10.753  32.005  11.497
28243W        W89906  26.022  31.078  12.512
28244W        W89907  26.456  38.891  11.527
28245W        W89908  20.090   1.835  11.461
28246W        W89909  28.041  42.941  11.120
28247W        W89910  42.849   4.836   1.440
28248W        W89911  35.041   1.409  14.411
28249W        W89912   6.923  43.389   2.181
28250W        W89913  29.143  27.150   0.915
28251W        W89914  31.526  42.346  12.830
28252W        W89915  41.948  44.350   1.337
28253W        W89916  18.633  31.982   3.179
28254W        W89917  22.538  22.995  11.943
28255W        W89918  23.185   3.808   5.638
28256W        W89919   1.250   4.795   3.251
28257W        W89920   9.348  21.080  10.531
28258W        W89921  19.202  13.801  12.962
28259W        W89922  30.985  23.110  10.445
28260W        W89923  37.503   7.675  10.010
28261W        W89924   3.276   0.319   2.709
28262W        W89925   3.242  44.415   4.156
28263W        W89926  33.991   6.200   2.388
28264W        W89927  38.894   6.396  11.535
28265W        W89928  33.113  22.722   1.236
28266W        W89929  10.363  11.136  14.290
28267W        W89930  26.168   4.823   3.229
28268W        W89931  26.202  37.581   3.282
28269W        W89932   3.853  15.810  11.601
28270W        W89933  22.503   5.865  11.466
28271W        W89934  28.528  34.044   4.629
28272W        W89935  11.256  41.314  10.454
28273W        W89936  41.414  20.055   2.285
28274W        W89937  14.716  33.098   4.670
28275W        W89938   5.756  26.497   3.258
28276W        W89939   6.709   4.223  11.017
28277W        W89940   7.311  42.948   4.759
28278W        W89941  32.415  13.247   2.320
28279W        W89942  15.731   4.887   2.835
28280W        W89943   4.941  41.980   3.362
28281W        W89944  11.834  32.974  14.803
28282W        W89945  14.096   9.747   2.205
28283W        W89946  43.898   9.254  13.898
28284W        W89947  15.211  24.056   1.364
28285W        W89948   4.944  35.419   0.758
28286W        W89949  23.734  22.692  11.975
28287W        W89950  30.474  13.718   3.264
28288W        W89951  32.444  28.042   2.347
28289W        W89952  38.454  31.514  14.773
28290W        W89953  13.156   8.727   1.289
28291W        W89954   1.868  20.593   0.258
28292W        W89955   8.743  37.847  13.326
28293W        W89956  32.999  39.058  14.468
28294W        W89957  17.583  38.849   1.843
28295W        W89958  26.625  12.758   4.690
28296W        W89959  36.390  18.164   0.858
28297W        W89960  19.728  28.049   1.885
28298W        W89961   7.737  22.636  11.100
28299W        W89962  36.433   3.441  14.858
28300W        W89963  24.483  12.305   4.266
28301W        W89964  42.332  43.851   3.249
28302W        W89965   1.342  18.212   1.215
28303W        W89966  28.474  10.849   4.601
28304W        W89967   7.754  18.275   1.424
28305W        W89968  34.109  28.041  14.511
28306W        W89969   9.774  38.403   4.215
28307W        W89970  22.587  43.770  13.049
28308W        W89971   1.455  28.470   1.244
28309W        W89972  39.848  35.446  10.615
28310W        W89973  32.445   4.422  11.568
28311W        W89974  35.893   0.343   1.930
28312W        W89975  23.007  33.524   1.276
28313W        W89976  19.058  24.631  13.980
28314W        W89977  40.849  42.029  14.962
28315W        W89978  40.993  18.227  11.034
28316W        W89979  33.058   5.206   1.927
28317W        W89980  43.984  32.068   3.171
28318W        W89981  12.797  10.871  12.511
28319W        W89982  36.050  18.758   3.723
28320W        W89983  29.637  12.297  10.606
28321W        W89984  23.040  34.585  12.851
28322W        W89985   4.347  33.104  13.330
28323W        W89986   5.284   6.760   0.310
28324W        W89987  31.930  27.504  10.440
28325W        W89988   8.892  10.353   3.306
28326W        W89989  42.908  37.361  13.455
28327W        W89990   5.778  37.488  11.480
28328W        W89991  41.030   3.821  13.350
28329W        W89992  12.676  21.081  14.866
28330W        W89993   7.266  43.925  11.460
28331W        W89994   0.822  30.971   2.194
28332W        W89995  43.777  19.048   1.714
28333W        W89996  38.965  26.593   4.818
28334W        W89997  38.979  16.272   4.791
28335W        W89998  26.472  25.176  13.411
28336W        W89999  28.649   4.887   0.468
28337W        W90000   5.294  25.576   4.133
28338W        W90001  34.396  33.934   1.704
28339W        W90002  32.096  10.164  13.509
28340W        W90003  30.965  22.709   1.756
28341W        W90004  39.031  43.434   1.711
28342W        W90005  30.938  13.677  14.384
28343W        W90006  32.106  12.356   2.751
28344W        W90007  36.938  31.125   1.419
28345W        W90008   5.789  16.222  10.992
28346W        W90009  28.592  10.843  13.329
28347W        W90010   1.851   0.790  14.419
28348W        W90011  27.451   0.352   2.732
28349W        W90012   8.764  30.505  14.006
28350W        W90013  13.175  12.343   3.235
28351W        W90014   6.416  42.421  11.612
28352W        W90015   8.256  22.213   2.752
28353W        W90016   7.729  19.124   4.807
28354W        W90017  21.538  38.493  14.376
28355W        W90018  34.458  18.262  12.909
28356W        W90019  39.891  17.715  11.990
28357W        W90020  22.603  26.587   3.177
28358W        W90021  21.129  34.505   4.175
28359W        W90022  44.793   2.285   3.710
28360W        W90023  10.321  24.178  13.501
28361W        W90024  33.520   5.752  14.955
28362W        W90025  40.352  22.143   2.227
28363W        W90026  34.983  24.692   3.222
28364W        W90027  23.230  14.815  13.923
28365W        W90028   3.747   9.199  10.464
28366W        W90029  43.516   1.428  13.540
28367W        W90030   2.326  35.060   2.240
28368W        W90031   5.388  26.043   1.352
28369W        W90032   7.220  40.487   4.246
28370W        W90033  13.157  23.124   2.369
28371W        W90034  16.758  44.263   1.718
28372W        W90035  22.669  36.389  14.400
28373W        W90036   0.452  25.990   2.333
28374W        W90037   0.445  27.160  12.830
28375W        W90038   6.918  31.406   0.841
28376W        W90039  32.443   5.783   0.254
28377W        W90040  11.169  32.131   1.771
28378W        W90041   2.369  29.425   0.430
28379W        W90042  36.508  38.387   3.647
28380W        W90043  19.164  28.165   3.655
28381W        W90044  26.981  32.945   3.667
28382W        W90045   4.441  21.690   1.903
28383W        W90046  15.770  42.817   1.851
28384W        W90047  11.671  13.814   2.247
28385W        W90048   9.390  39.401  13.951
28386W        W90049   4.368  41.341   1.815
28387W        W90050   5.757   0.774   1.929
28388W        W90051   2.447  28.085   2.252
28389W        W90052   3.384   8.353  12.401
28390W        W90053  42.825  16.081  12.422
28391W        W90054  35.859  39.325  11.606
28392W        W90055   0.768  15.263  11.980
28393W        W90056  10.139  34.547   1.218
28394W        W90057  28.077  40.925  14.851
28395W        W90058  11.248   8.668   3.828
28396W        W90059   6.923   8.387   2.382
28397W        W90060  33.045  36.904   0.797
28398W        W90061   7.742   8.802   3.286
28399W        W90062  16.151   7.260  10.610
28400W        W90063  17.687  30.508  13.359
28401W        W90064  35.400  33.508   0.447
28402W        W90065  25.111   9.192  11.870
28403W        W90066  26.998  28.490   4.260
28404W        W90067  43.419  22.654  11.114
28405W        W90068  39.427  31.486   1.705
28406W        W90069  29.439  19.777   4.710
28407W        W90070  25.207   3.874   2.851
28408W        W90071  29.119  33.520   2.665
28409W        W90072  37.972  17.799   2.190
28410W        W90073   3.919  42.919   5.193
28411W        W90074  11.829  42.395   4.776
28412W        W90075  23.695   7.775  14.357
28413W        W90076  19.274  20.258  11.494
28414W        W90077  32.901  29.070  10.443
28415W        W90078  23.993  12.706   0.331
28416W        W90079  37.081  21.725   0.731
28417W        W90080   1.245  26.167   2.321
28418W        W90081  30.585   6.416  11.557
28419W        W90082  17.170   1.301  12.854
28420W        W90083  11.866  16.673   2.852
28421W        W90084   5.804  36.539   3.706
28422W        W90085  14.315  43.454   2.389
28423W        W90086  20.076  37.551  12.925
28424W        W90087  24.611  38.846   2.408
28425W        W90088  42.525  44.944  12.836
28426W        W90089  37.475  24.714  10.929
28427W        W90090  10.676   9.733   3.316
28428W        W90091  37.837  11.248  14.303
28429W        W90092  32.027   5.263   1.879
28430W        W90093  23.163  44.422   2.868
28431W        W90094  22.229  38.372  14.778
28432W        W90095  10.373   3.410  11.063
28433W        W90096   9.203  23.222   3.783
28434W        W90097  27.546   2.442  13.885
28435W        W90098  38.455  35.101   4.197
28436W        W90099  36.495   2.426   1.824
28437W        W90100   8.666  37.542   2.405
28438W        W90101  44.363  32.098  14.825
28439W        W90102  27.685   2.355   3.164
28440W        W90103  12.340   2.245  14.771
28441W        W90104  44.465  34.590  13.848
28442W        W90105  34.884  29.939  10.416
28443W        W90106  21.756   3.244  14.399
28444W        W90107  31.945  21.225  13.797
28445W        W90108  11.692  10.669   0.383
28446W        W90109   2.726  16.315   4.183
28447W        W90110  16.110   0.786  10.521
28448W        W90111  12.213  39.010  11.874
28449W        W90112  43.514  18.706   0.310
28450W        W90113  35.443  12.253  10.517
28451W        W90114  31.008  30.567  11.122
28452W        W90115  29.124  34.971   4.299
28453W        W90116  12.857   2.774   1.875
28454W        W90117  37.046  25.974   2.256
28455W        W90118  14.632  35.008   0.839
28456W        W90119  10.691  24.046   1.782
28457W        W90120  20.543  10.347   2.752
28458W        W90121   7.398  11.342  11.982
28459W        W90122  37.394  40.859  14.984
28460W        W90123  14.294  31.417  12.404
28461W        W90124   7.346   0.421  10.924
28462W        W90125  12.754  32.030  12.039
28463W        W90126  10.749   1.911  11.911
28464W        W90127   3.742  11.295  12.939
28465W        W90128  40.805   2.902  13.997
28466W        W90129   3.295  27.689  10.989
28467W        W90130   6.917  11.145   0.932
28468W        W90131  14.197   1.253   4.259
28469W        W90132  17.131  39.485  13.992
28470W        W90133  36.501  15.756   1.852
28471W        W90134  30.061   8.262  14.882
28472W        W90135  26.458   5.326  13.795
28473W        W90136   2.427  31.914  14.328
28474W        W90137  40.865  40.858   4.757
28475W        W90138  17.125  12.272  10.034
28476W        W90139   6.702   8.745   5.191
28477W        W90140  32.597   5.257  10.625
28478W        W90141   5.205  34.532  11.119
28479W        W90142  15.670  19.238   0.857
28480W        W90143  35.049  18.233   1.427
28481W        W90144  30.468   9.847   3.284
28482W        W90145  13.299  42.849  11.860
28483W        W90146  26.691  43.781  14.412
28484W        W90147   3.361  37.380  14.887
28485W        W90148  24.196  11.626  11.908
28486W        W90149  30.519   8.337   2.770
28487W        W90150  44.299   1.771  14.765
28488W        W90151  43.899  10.824   9.988
28489W        W90152  23.548  19.184   2.275
28490W        W90153  36.967  42.398  11.877
28491W        W90154  21.665  43.021  10.929
28492W        W90155  39.418  34.395  10.414
28493W        W90156  11.752  42.343   2.703
28494W        W90157  35.368  27.944  13.963
28495W        W90158   5.396   0.443  11.506
28496W        W90159  25.048  10.803  10.425
28497W        W90160  17.599  30.521   0.803
28498W        W90161  38.981  17.756   3.736
28499W        W90162   3.872  15.636  12.566
28500W        W90163  30.141   4.838   0.389
28501W        W90164  30.433  21.155  14.939
28502W        W90165   1.297   4.905   0.288
28503W        W90166  41.837  26.660  12.364
28504W        W90167  37.953   3.945  11.501
28505W        W90168  10.269  27.094  10.897
28506W        W90169  19.699   3.324   3.655
28507W        W90170  42.407   1.857  10.630
28508W        W90171  30.516  40.411  13.979
28509W        W90172  31.092  30.557   3.690
28510W        W90173   0.369   4.387  13.062
28511W        W90174  11.139   8.725   1.862
28512W        W90175  19.550  18.169  14.339
28513W        W90176  19.226  28.090   0.883
28514W        W90177  29.634  30.552   2.683
28515W        W90178  29.157  15.615   2.845
28516W        W90179  28.614  41.447  11.039
28517W        W90180  21.594  32.039   0.285
28518W        W90181  34.944  12.151  10.428
28519W        W90182   7.722  23.178   2.197
28520W        W90183  22.199  32.594   2.789
28521W        W90184  10.712  15.776   1.764
28522W        W90185   1.867  15.140  11.107
28523W        W90186  37.869   0.785   1.345
28524W        W90187  28.958  22.539  12.413
28525W        W90188  15.311  33.507   2.254
28526W        W90189  34.009  43.848   1.852
28527W        W90190   6.771  35.550   2.715
28528W        W90191  16.263  33.485   1.428
28529W        W90192  44.275  22.067   1.758
28530W        W90193  22.520  41.040  12.016
28531W        W90194  34.990  28.997   0.371
28532W        W90195   4.712  13.109   2.771
28533W        W90196  13.209  23.122  12.036
28534W        W90197  21.527  44.815  10.584
28535W        W90198  31.905  22.599   3.295
28536W        W90199  13.173  28.051  11.898
28537W        W90200  10.138  31.495   1.812
28538W        W90201  14.102  12.213  14.464
28539W        W90202  41.363  42.009   1.319
28540W        W90203  27.136  11.299  13.960
28541W        W90204   5.888  35.087   3.346
28542W        W90205   8.886  17.302  10.940
28543W        W90206  32.048  40.511   1.305
28544W        W90207   3.440   6.741   2.232
28545W        W90208  23.682  30.959  10.929
28546W        W90209  40.305   6.316  11.560
28547W        W90210  29.995  35.976   4.620
28548W        W90211  20.082  10.208   0.836
28549W        W90212  22.625  30.999   4.163
28550W        W90213  27.183   2.906   4.199
28551W        W90214   2.295  26.094   1.927
28552W        W90215  24.580  29.580   3.802
28553W        W90216  19.635  17.075  14.957
28554W        W90217   0.756  10.672  12.940
28555W        W90218  15.768  34.563  12.559
28556W        W90219  14.204  39.391   1.418
28557W        W90220  39.875  24.514   1.376
28558W        W90221  25.671  40.373   0.303
28559W        W90222  43.890  17.666  13.522
28560W        W90223   1.793  12.811   4.154
28561W        W90224  37.553  43.860  14.909
28562W        W90225  33.974  31.988   0.837
28563W        W90226  11.211  24.586  11.511
28564W        W90227  22.551  13.277   3.278
28565W        W90228  39.917  21.024  12.468
28566W        W90229  40.347  35.376  10.454
28567W        W90230   0.463  40.499  10.460
28568W        W90231  14.120  41.509  10.948
28569W        W90232   5.344  11.262  12.850
28570W        W90233   4.805  15.823  14.862
28571W        W90234  25.102  11.142   2.756
28572W        W90235  44.474  31.617   3.786
28573W        W90236   8.772  37.356   4.637
28574W        W90237  44.787  22.123  13.797
28575W        W90238   4.243   3.357   9.964
28576W        W90239  27.597  42.968   2.873
28577W        W90240  18.579  19.751   4.821
28578W        W90241   7.672  41.897  11.466
28579W        W90242  29.931  15.760   1.893
28580W        W90243  31.049   5.368  10.587
28581W        W90244  24.666  44.843   0.365
28582W        W90245  21.744   8.254  12.400
28583W        W90246   1.785  21.543  12.538
28584W        W90247  32.043  33.436  10.908
28585W        W90248   2.236  17.618   0.871
28586W        W90249  33.913  17.069   2.743
28587W        W90250   6.713  40.495  12.021
28588W        W90251  17.582  13.162   5.104
28589W        W90252   9.242  28.672  10.927
28590W        W90253  30.418  40.430   4.639
28591W        W90254  37.535  41.822  10.514
28592W        W90255   7.706  18.692   2.835
28593W        W90256  12.205  41.371   2.783
28594W        W90257  16.754  10.238  11.102
28595W        W90258  19.671  36.453  12.419
28596W        W90259  42.525  42.931  13.365
28597W        W90260  42.419  24.673   3.250
28598W        W90261  29.535  38.492   0.308
28599W        W90262  25.502  37.372  12.949
28600W        W90263  34.904  24.503  13.393
28601W        W90264  27.966  35.445   1.914
28602W        W90265  21.649  37.436  12.491
28603W        W90266  19.068  32.532  10.603
28604W        W90267  34.431  16.260  13.027
28605W        W90268   9.751  31.627   2.719
28606W        W90269  25.205  43.874   2.815
28607W        W90270  41.860  35.365   3.366
28608W        W90271   5.310  42.893  11.906
28609W        W90272   5.353  36.058  14.421
28610W        W90273   9.765  36.913  13.919
28611W        W90274   0.288  13.756   4.814
28612W        W90275   8.321  42.971  12.487
28613W        W90276  39.004  19.138   4.258
28614W        W90277  19.591  18.574   3.769
28615W        W90278  39.851   6.887   0.386
28616W        W90279  32.115  25.178  12.504
28617W        W90280  19.557  12.641   1.240
28618W        W90281   6.348  15.149   0.392
28619W        W90282  27.111   9.685  14.854
28620W        W90283  44.417   3.941  13.861
28621W        W90284  21.727  17.572   1.859
28622W        W90285  17.275  14.265   2.720
28623W        W90286  16.153  42.848  10.436
28624W        W90287  21.705  43.848   3.688
28625W        W90288  16.246  10.722   0.457
28626W        W90289  38.843   5.929  14.362
28627W        W90290  34.020   0.457  13.029
28628W        W90291  17.793  43.826  14.895
28629W        W90292  22.588  26.022   2.706
28630W        W90293   0.384  27.653   1.732
28631W        W90294  28.626  35.048  12.878
28632W        W90295  16.278  13.272   9.456
28633W        W90296  15.166  44.411   3.815
28634W        W90297  22.561  20.194  10.111
28635W        W90298  32.479  25.027   4.310
28636W        W90299  42.960   8.827  11.044
28637W        W90300  44.386   6.307  13.895
28638W        W90301   9.878  35.096  12.436
28639W        W90302  18.756  30.582  12.833
28640W        W90303   0.339  32.906   0.346
28641W        W90304   8.656   5.251   1.371
28642W        W90305  27.551  35.064   0.424
28643W        W90306  22.157  36.021   1.694
28644W        W90307  30.592  27.066  14.809
28645W        W90308   6.740  35.469  14.429
28646W        W90309  35.014  38.339   4.755
28647W        W90310  25.683  21.618   4.788
28648W        W90311  14.255  42.412  12.081
28649W        W90312   3.221  36.393   0.889
28650W        W90313  25.148  21.070   0.882
28651W        W90314  18.202  34.042  12.410
28652W        W90315  30.585  10.863  12.403
28653W        W90316  40.523  32.951  13.909
28654W        W90317  29.480  28.965  12.916
28655W        W90318  25.986  41.801   1.212
28656W        W90319   1.731  27.584  11.063
28657W        W90320  16.098  12.315   1.361
28658W        W90321  37.013  30.095  14.413
28659W        W90322  10.708  30.534   2.894
28660W        W90323   2.876  36.875  14.457
28661W        W90324  25.648  28.966   4.272
28662W        W90325   0.818  30.597  13.504
28663W        W90326  19.127   9.319   3.170
28664W        W90327   1.322   1.252   1.699
28665W        W90328   6.234  19.258   1.288
28666W        W90329   4.388  10.791   3.164
28667W        W90330   6.871  42.408  14.840
28668W        W90331  15.174  42.969   2.880
28669W        W90332  17.733  15.676  12.971
28670W        W90333  44.931  41.447   4.640
28671W        W90334  11.729  13.231   4.341
28672W        W90335  31.910  11.716   4.302
28673W        W90336   1.305   4.898   2.711
28674W        W90337  16.145  31.413  11.880
28675W        W90338  22.708   5.865  13.371
28676W        W90339  21.074  30.549   4.349
28677W        W90340  42.865   4.365   2.858
28678W        W90341   3.270  36.394   2.355
28679W        W90342   7.271  39.377  10.462
28680W        W90343   3.722  37.846   2.902
28681W        W90344  15.106  22.545  14.794
28682W        W90345  38.444  35.379  13.853
28683W        W90346  11.839  35.936   0.311
28684W        W90347  15.327   0.761  14.969
28685W        W90348  31.433  11.678  13.494
28686W        W90349  39.060  29.024  13.351
28687W        W90350  24.097  23.519   9.512
28688W        W90351  26.643  17.126  12.834
28689W        W90352  34.969  25.621   0.293
28690W        W90353  30.931  21.133  13.046
28691W        W90354  26.477  21.612   4.804
28692W        W90355  15.294  31.408  11.607
28693W        W90356  26.017   1.915   3.668
28694W        W90357  28.936   9.378   0.959
28695W        W90358   9.372  25.005   3.165
28696W        W90359   2.737  12.192  13.343
28697W        W90360  26.698  43.380  14.809
28698W        W90361  30.544   2.420   2.336
28699W        W90362   8.688   5.846  10.509
28700W        W90363   1.731  14.162  11.987
28701W        W90364  33.025  40.470   1.827
28702W        W90365  11.313  19.552   4.212
28703W        W90366  25.132  40.886  12.529
28704W        W90367   0.964  28.013  10.599
28705W        W90368   0.282  40.919   2.804
28706W        W90369  34.943   9.757  14.411
28707W        W90370  37.940  38.919   0.284
28708W        W90371   0.395  17.248  11.977
28709W        W90372  16.800  31.034  11.045
28710W        W90373  31.415  39.335  13.545
28711W        W90374   3.341  13.780   1.876
28712W        W90375  37.447   0.256   3.807
28713W        W90376   6.262  28.638   1.265
28714W        W90377  32.029   5.211  14.953
28715W        W90378  17.307  40.853  13.436
28716W        W90379  22.734  19.762  13.307
28717W        W90380  44.438  26.601   0.312
28718W        W90381  41.312  23.172   2.328
28719W        W90382  10.640  17.786   0.423
28720W        W90383   9.160  23.026   2.772
28721W        W90384  36.042  30.589   4.332
28722W        W90385  18.751  40.943  14.993
28723W        W90386   1.894  40.878   3.152
28724W        W90387   5.357   2.349   1.807
28725W        W90388   8.395  11.623   0.450
28726W        W90389  37.428   9.670   1.910
28727W        W90390   1.296  18.053  11.107
28728W        W90391  21.098  33.546  13.049
28729W        W90392  24.154  31.422   4.622
28730W        W90393  33.093   7.810  14.452
28731W        W90394  12.191   9.328  14.302
28732W        W90395  10.276   4.757  12.480
28733W        W90396  17.107   5.381   3.239
28734W        W90397  25.022  32.543   4.125
28735W        W90398  36.380  28.102  14.499
28736W        W90399  17.212  17.223  14.939
28737W        W90400  16.595  20.652   0.772
28738W        W90401   7.796  27.050   0.407
28739W        W90402  20.069  12.642  11.025
28740W        W90403  30.488  26.679   0.915
28741W        W90404  21.212  42.003  14.500
28742W        W90405   7.303  11.686  12.002
28743W        W90406  21.726  14.109   9.558
28744W        W90407  40.399  29.048   4.834
28745W        W90408  23.573   7.290  12.852
28746W        W90409  34.519  12.738   2.781
28747W        W90410  24.127  19.094  11.960
28748W        W90411  31.040  12.649  11.543
28749W        W90412   0.286   7.241   4.771
28750W        W90413  13.198  25.087   3.259
28751W        W90414  34.048  26.983  13.350
28752W        W90415  35.492  32.036  14.475
28753W        W90416  18.663   7.257  12.022
28754W        W90417  38.525  28.560   1.226
28755W        W90418  33.509  15.189  10.550
28756W        W90419  26.994  18.259   3.378
28757W        W90420   9.827  18.688  14.014
28758W        W90421  38.407  39.452  14.942
28759W        W90422  10.636  26.076  11.868
28760W        W90423  20.675  25.555   3.665
28761W        W90424   7.199  19.552   2.731
28762W        W90425  39.853  21.669   0.888
28763W        W90426  44.456   8.810   3.371
28764W        W90427   9.383  42.357   2.347
28765W        W90428   6.229  23.669  13.968
28766W        W90429  12.362  32.544  14.966
28767W        W90430  34.379  16.813  11.529
28768W        W90431  19.675  22.509   3.714
28769W        W90432  15.299   7.670   1.411
28770W        W90433  24.038  28.013  10.920
28771W        W90434  11.779  21.051   1.388
28772W        W90435  36.439   4.731  12.440
28773W        W90436  20.181  44.911  13.395
28774W        W90437  40.015   2.363   2.334
28775W        W90438  31.927   1.318  13.824
28776W        W90439  15.608  13.327  13.867
28777W        W90440  37.862  18.673  14.965
28778W        W90441   3.276  21.170   1.890
28779W        W90442  28.480   5.302   1.762
28780W        W90443  36.901  22.048  13.908
28781W        W90444  11.318   9.752   0.470
28782W        W90445  25.673   4.764  10.459
28783W        W90446  11.642  21.243   0.254
28784W        W90447  41.380   7.219   2.737
28785W        W90448  24.716   6.727   0.876
28786W        W90449  14.832  11.706  10.888
28787W        W90450  20.035   4.440  10.492
28788W        W90451  16.601  25.613  11.464
28789W        W90452  21.180   4.311   4.752
28790W        W90453  13.802  33.975  10.474
28791W        W90454  26.476  17.092   3.801
28792W        W90455  37.428  35.954  11.118
28793W        W90456   5.749  30.956   4.710
28794W        W90457  35.935  22.115   1.769
28795W        W90458   1.899  25.692   4.216
28796W        W90459  40.455  25.562   2.234
28797W        W90460   5.398  44.939  10.512
28798W        W90461  19.269   4.226  12.535
28799W        W90462  15.265  14.609   0.272
28800W        W90463  42.365  16.576  13.839
28801W        W90464  39.403  12.804  14.334
28802W        W90465  37.364  13.206   4.753
28803W        W90466  28.979  11.224   3.825
28804W        W90467  28.539   3.252   0.406
28805W        W90468   9.256  41.522  12.918
28806W        W90469  38.523  29.940   1.756
28807W        W90470  24.607  16.172   1.303
28808W        W90471   0.839  26.112   4.210
28809W        W90472  22.065   6.783   3.260
28810W        W90473  26.152  35.006   0.268
28811W        W90474  42.801  23.072  11.011
28812W        W90475  44.789  28.943   1.390
28813W        W90476  25.604  20.272  11.066
28814W        W90477  33.402  35.938  13.414
28815W        W90478   9.689  42.874  12.422
28816W        W90479  33.623  18.778  13.309
28817W        W90480  34.942  14.294   3.814
28818W        W90481   2.893  19.225   3.196
28819W        W90482   8.237  40.882  12.940
28820W        W90483  33.564  21.115  13.420
28821W        W90484  43.382  20.619  11.903
28822W        W90485  12.820  17.785   3.284
28823W        W90486  26.490  32.394  11.880
28824W        W90487  43.356  36.973   0.797
28825W        W90488  28.504  33.414   2.815
28826W        W90489  34.092   5.880   1.293
28827W        W90490  15.146   2.415   1.274
28828W        W90491   8.825  16.680   3.742
28829W        W90492  19.191   4.434  13.798
28830W        W90493  17.709   7.399   1.226
28831W        W90494  16.162  32.575  11.022
28832W        W90495  14.725  24.048  11.448
28833W        W90496  37.952   0.442   5.246
28834W        W90497  29.451  18.756  13.048
28835W        W90498  18.625  12.756   1.294
28836W        W90499   7.362  22.055  10.998
28837W        W90500  25.165  26.062   3.381
28838W        W90501   2.323  33.122   0.305
28839W        W90502  43.425   3.370  11.038
28840W        W90503  28.500  20.601  11.019
28841W        W90504  33.091  15.690  11.915
28842W        W90505  12.186  41.522   1.838
28843W        W90506  28.115  37.486  12.544
28844W        W90507   3.916  31.570  12.487
28845W        W90508   5.898   2.238   3.789
28846W        W90509  35.946  41.437   0.795
28847W        W90510  31.422  33.508   2.253
28848W        W90511  42.025  19.571   1.265
28849W        W90512   0.838  13.150  13.922
28850W        W90513  41.537   2.457  14.477
28851W        W90514  21.695  24.076  10.953
28852W        W90515  17.149   7.875   4.696
28853W        W90516  20.738  28.105  10.482
28854W        W90517  43.359  28.115   0.443
28855W        W90518  15.153   9.871   2.719
28856W        W90519  22.029  13.821  14.310
28857W        W90520   6.390  35.370   1.768
28858W        W90521  26.512  32.589   1.920
28859W        W90522  41.864  29.604  12.046
28860W        W90523  22.629  28.558   3.278
28861W        W90524  24.665  14.671  12.010
28862W        W90525  28.585  14.810   2.387
28863W        W90526  43.978  34.563   0.867
28864W        W90527   3.918  10.165   0.459
28865W        W90528  16.231   5.320   4.662
28866W        W90529  20.157   4.260   1.340
28867W        W90530  43.414  25.214   3.250
28868W        W90531   7.687  11.809   2.418
28869W        W90532  33.519  23.111   1.887
28870W        W90533  12.720  43.850  13.383
28871W        W90534  19.165  42.413   3.845
28872W        W90535  40.429   8.886   5.101
28873W        W90536  42.907  27.022  11.891
28874W        W90537  17.114  33.072   1.775
28875W        W90538  16.726   8.208  12.934
28876W        W90539  32.525  10.716   2.388
28877W        W90540  11.857  31.470   3.174
28878W        W90541  16.209  12.614  12.366
28879W        W90542   4.289  37.403   1.798
28880W        W90543  12.689   4.397   0.854
28881W        W90544  32.101  16.591  10.424
28882W        W90545  11.735  36.034  13.414
28883W        W90546  31.525  41.463  10.564
28884W        W90547  13.691  25.669   2.793
28885W        W90548  21.154  38.990   4.259
28886W        W90549  28.531  41.878  13.470
28887W        W90550  35.539  15.778   0.413
28888W        W90551  42.469  40.520  11.399
28889W        W90552   1.914  33.116  11.380
28890W        W90553  41.295  36.996  14.893
28891W        W90554  20.251  17.713   2.382
28892W        W90555  25.967  32.429  13.956
28893W        W90556  34.604  43.333   2.793
28894W        W90557   5.782  27.122  10.891
28895W        W90558  39.872  24.623   0.898
28896W        W90559   4.395   6.697  11.521
28897W        W90560   7.841  14.761  10.581
28898W        W90561  19.244  35.987  11.062
28899W        W90562  20.744   5.734   0.284
28900W        W90563   7.405   2.856   1.376
28901W        W90564  13.627  18.270   4.602
28902W        W90565  32.421  35.419   2.728
28903W        W90566  43.872  31.468   2.399
28904W        W90567  42.508   5.333  12.473
28905W        W90568  31.037  12.688   3.230
28906W        W90569  12.805  43.927  13.864
28907W        W90570  13.248  34.044  14.463
28908W        W90571  41.431   4.884   3.724
28909W        W90572  29.056   4.323  12.576
28910W        W90573  30.496  31.523   4.329
28911W        W90574  16.148   1.260   0.865
28912W        W90575   4.919  24.152   1.763
28913W        W90576  26.173  21.139   0.852
28914W        W90577   0.959  21.194  12.001
28915W        W90578   3.725   3.369   3.732
28916W        W90579  32.426   6.828   1.766
28917W        W90580  44.338  31.405  14.474
28918W        W90581  20.564  11.841   2.683
28919W        W90582  19.157   2.747  13.970
28920W        W90583  44.325   8.708  14.405
28921W        W90584  13.120  44.294   0.937
28922W        W90585  27.462  40.922   3.212
28923W        W90586  27.468  12.357  14.329
28924W        W90587   7.741  21.057   3.652
28925W        W90588  21.177  37.939  12.868
28926W        W90589  27.647  42.989   1.293
28927W        W90590  37.018  24.187  14.953
28928W        W90591   9.229   4.809   5.165
28929W        W90592  35.368   5.861   9.948
28930W        W90593   8.795  42.486   3.332
28931W        W90594  27.522   8.199   3.669
28932W        W90595  35.556   8.837  13.929
28933W        W90596  26.614  36.059   5.178
28934W        W90597   5.375  14.835   2.409
28935W        W90598  16.568  12.770   0.443
28936W        W90599  40.499  37.889  10.458
28937W        W90600  26.971   5.403  13.855
28938W        W90601  42.803   1.892  11.533
28939W        W90602  32.102  27.178  11.977
28940W        W90603  39.505  12.184  14.853
28941W        W90604  17.273  25.582   1.891
28942W        W90605   4.731  25.496  10.593
28943W        W90606  24.021   3.426  14.833
28944W        W90607  33.596  20.601   2.244
28945W        W90608  23.685  43.871   3.805
28946W        W90609  12.222  21.548  13.489
28947W        W90610  33.511  32.577   3.839
28948W        W90611  41.019  18.085  13.843
28949W        W90612  20.236  33.056   0.406
28950W        W90613  27.666  15.219   4.310
28951W        W90614  25.076  11.666   1.268
28952W        W90615   9.745   6.705  12.457
28953W        W90616  41.041  28.495  12.344
28954W        W90617   8.300  23.096   0.381
28955W        W90618  42.850  41.464  10.973
28956W        W90619  25.195   7.375  14.933
28957W        W90620  29.155   3.423  13.799
28958W        W90621  27.678   6.253   2.813
28959W        W90622  38.544  33.092  12.474
28960W        W90623  20.523  40.903   0.760
28961W        W90624   0.453  20.759  13.373
28962W        W90625  37.925   5.828  14.471
28963W        W90626  11.215  38.560   5.171
28964W        W90627  14.786   9.666   1.865
28965W        W90628  35.411  41.375   1.840
28966W        W90629  39.409  31.146  14.014
28967W        W90630  35.097  11.299  10.583
28968W        W90631  43.801  44.285   2.405
28969W        W90632  16.628   6.859   3.681
28970W        W90633  44.941  24.631  13.021
28971W        W90634   8.322  10.376   0.482
28972W        W90635   5.427  35.563   3.659
28973W        W90636  22.504  33.020   0.936
28974W        W90637  16.644  41.036  12.938
28975W        W90638  10.143  37.515   1.417
28976W        W90639  44.869  31.148   2.357
28977W        W90640  19.676  31.426  12.032
28978W        W90641  17.067  33.581  13.823
28979W        W90642  32.547  10.648   0.402
28980W        W90643  16.701  41.953   4.121
28981W        W90644  24.511  38.981   1.763
28982W        W90645   0.317  27.151   0.777
28983W        W90646  20.622  25.535  13.482
28984W        W90647   0.788  44.319   2.827
28985W        W90648  26.524  35.388   0.793
28986W        W90649  35.480  36.466  14.840
28987W        W90650  24.496  44.819   3.805
28988W        W90651  14.639  11.263   0.907
28989W        W90652   8.187  41.331   0.752
28990W        W90653  12.794   8.212  14.988
28991W        W90654  31.916   6.324  11.865
28992W        W90655  10.708  37.558  14.901
28993W        W90656  39.964  39.470  13.951
28994W        W90657  16.155  13.718  13.026
28995W        W90658  24.687  44.473   4.238
28996W        W90659   8.655  10.336   3.675
28997W        W90660  27.039  34.443   0.747
28998W        W90661  35.595   1.296  14.930
28999W        W90662   9.169  34.461   2.295
29000W        W90663   9.247  11.717   4.186
29001W        W90664  17.749  28.931   3.190
29002W        W90665  36.480   0.959  12.974
29003W        W90666   5.233  18.679   3.347
29004W        W90667  23.136  29.582  10.942
29005W        W90668  15.686  31.060  13.478
29006W        W90669  13.190  31.075   2.792
29007W        W90670  23.537  18.190  11.468
29008W        W90671  16.764  42.352   1.802
29009W        W90672   5.418  21.231  13.029
29010W        W90673  26.644   2.730  12.424
29011W        W90674  26.511  12.738  13.925
29012W        W90675  31.482  40.376   0.821
29013W        W90676   5.777  29.946  13.846
29014W        W90677  33.943  36.386   4.118
29015W        W90678   7.734  38.551  12.936
29016W        W90679  21.257  26.185  11.509
29017W        W90680  39.485  21.153  12.999
29018W        W90681  36.952  43.851  13.962
29019W        W90682   1.903  26.592  11.119
29020W        W90683   8.714  32.055  14.401
29021W        W90684   5.810  25.547   4.159
29022W        W90685   5.310  34.444  11.501
29023W        W90686  20.578   0.467  14.771
29024W        W90687  43.336   2.920   1.827
29025W        W90688  19.553   4.737  12.569
29026W        W90689  17.691  25.502   4.703
29027W        W90690  22.246   6.812  14.874
29028W        W90691  39.365   1.940   0.416
29029W        W90692  38.860  13.134  10.092
29030W        W90693  31.132  11.680  14.963
29031W        W90694  41.449   8.301   0.737
29032W        W90695  29.969  28.587  12.346
29033W        W90696  24.687   1.959  13.342
29034W        W90697  22.630  37.015   3.716
29035W        W90698  42.779  18.557  12.886
29036W        W90699  32.915   9.703  11.371
29037W        W90700   7.842  43.507   1.267
29038W        W90701   8.315   0.307   0.296
29039W        W90702  42.978  28.038   1.715
29040W        W90703  40.836  21.512  12.987
29041W        W90704  25.114  43.866  14.880
29042W        W90705  23.007   9.750  13.376
29043W        W90706  31.636  41.871  12.458
29044W        W90707  16.743  33.943   2.256
29045W        W90708  24.633  28.132   1.705
29046W        W90709  41.038  40.035  14.910
29047W        W90710  20.618  14.128   4.659
29048W        W90711  23.566  22.148  10.465
29049W        W90712  17.164  26.485  10.491
29050W        W90713  31.104  42.962  12.434
29051W        W90714  29.012   8.788  11.050
29052W        W90715  38.984  22.083  10.639
29053W        W90716  25.039  41.325  14.999
29054W        W90717  28.130  27.186  14.002
29055W        W90718   1.890   6.285   3.697
29056W        W90719   9.676  18.660  12.467
29057W        W90720  10.384   9.395   0.353
29058W        W90721  14.752   8.772   5.287
29059W        W90722  31.544  21.716  10.531
29060W        W90723  26.515  10.786  13.909
29061W        W90724  24.190  29.944   0.465
29062W        W90725   4.804  36.483  14.453
29063W        W90726  31.609  26.179  10.599
29064W        W90727  35.559  36.373  10.594
29065W        W90728   9.345  30.960  14.810
29066W        W90729  21.621  36.842   3.830
29067W        W90730   6.812  35.044   1.833
29068W        W90731   1.942   1.304  14.463
29069W        W90732  24.584  12.700   1.926
29070W        W90733  29.519  10.635  12.490
29071W        W90734  17.721  26.660   3.715
29072W        W90735  33.996  28.461   1.263
29073W        W90736  17.269  24.177  13.534
29074W        W90737   4.351  19.559   4.286
29075W        W90738   4.381  24.186   1.218
29076W        W90739   0.759  37.473   1.271
29077W        W90740  41.301   9.301  12.570
29078W        W90741  31.982  33.433  14.785
29079W        W90742  27.014  38.860   4.264
29080W        W90743   5.270  40.807  11.454
29081W        W90744  21.534   8.238  14.499
29082W        W90745  43.790  14.635   0.728
29083W        W90746  11.175  32.024  13.491
29084W        W90747  40.414  11.345  10.423
29085W        W90748   9.237  29.438   0.409
29086W        W90749  39.925  27.028   3.358
29087W        W90750  19.087  31.968   2.781
29088W        W90751  28.997  17.078   2.350
29089W        W90752  42.336  13.683  10.975
29090W        W90753  24.670  32.085  11.499
29091W        W90754  26.008  39.890  13.831
29092W        W90755   4.212  22.122   2.227
29093W        W90756   7.173   3.415  13.541
29094W        W90757  19.741  44.972  11.991
29095W        W90758   4.371  40.445  11.412
29096W        W90759  33.604  36.996  13.945
29097W        W90760   6.794  31.101  12.018
29098W        W90761  35.014  33.544   0.779
29099W        W90762  29.655  41.828  11.401
29100W        W90763  40.822  43.964   3.715
29101W        W90764   5.359  29.509  12.062
29102W        W90765  26.157   6.869   4.212
29103W        W90766   3.879  43.823   4.729
29104W        W90767  27.039   9.646  12.849
29105W        W90768  13.765  15.761   2.283
29106W        W90769  20.224  27.631   4.296
29107W        W90770  24.585   9.667   3.278
29108W        W90771  39.425  13.171  13.872
29109W        W90772   8.183   2.908  13.808
29110W        W90773   4.235   7.764   0.768
29111W        W90774  27.630   0.884  11.602
29112W        W90775   1.839  28.108   4.605
29113W        W90776  30.652  41.397   4.131
29114W        W90777  15.662   2.435  11.937
29115W        W90778  24.703  34.408  12.064
29116W        W90779  11.343  26.043  11.887
29117W        W90780  22.106  24.176   0.263
29118W        W90781  25.708   8.793  10.024
29119W        W90782  14.698   6.906   4.323
29120W        W90783  40.336  29.574   1.755
29121W        W90784  24.179   0.853   2.419
29122W        W90785  19.534  21.237   3.145
29123W        W90786  17.794   0.944   4.294
29124W        W90787   9.304   7.850   1.880
29125W        W90788   6.203  18.681   1.907
29126W        W90789  39.438  28.019   3.816
29127W        W90790  36.443  26.521  14.506
29128W        W90791  42.470   4.751   3.148
29129W        W90792  17.617  15.321   2.767
29130W        W90793  23.506  41.927   9.958
29131W        W90794  23.050  43.368   4.756
29132W        W90795  34.440  15.690   4.673
29133W        W90796  17.077  11.715   1.747
29134W        W90797  43.414  26.697   3.792
29135W        W90798  36.386  26.953   0.845
29136W        W90799  31.475  40.905   1.811
29137W        W90800   9.865  37.430   3.848
29138W        W90801  18.274  28.472   3.365
29139W        W90802  38.325  38.335  11.036
29140W        W90803  40.363  34.948  12.514
29141W        W90804   2.963  35.361  13.875
29142W        W90805  11.162  24.227  13.401
29143W        W90806  37.836   1.965  13.380
29144W        W90807   1.912   5.742   0.291
29145W        W90808  23.988  42.426   1.805
29146W        W90809  39.890   9.169  13.831
29147W        W90810  43.852  37.032   4.343
29148W        W90811  10.177  34.902   4.687
29149W        W90812  31.495  12.206  11.061
29150W        W90813  43.981  28.149   0.299
29151W        W90814  44.827  34.014  14.818
29152W        W90815  16.184   2.448  10.492
29153W        W90816  37.046  24.049   1.429
29154W        W90817  26.648  31.523  11.056
29155W        W90818  22.240  19.199  11.381
29156W        W90819  29.138  31.460  12.925
29157W        W90820   6.736  44.939  10.475
29158W        W90821   0.295  43.795   1.313
29159W        W90822  20.529   9.322   4.199
29160W        W90823   7.178   3.909   4.788
29161W        W90824  12.638   4.892  11.000
29162W        W90825   3.402  34.935   3.807
29163W        W90826   6.889  20.063  11.961
29164W        W90827  42.338  20.120   4.233
29165W        W90828   1.778  35.921  14.359
29166W        W90829  42.473  42.920   2.268
29167W        W90830  27.128  26.090  11.498
29168W        W90831  11.725   8.807   2.735
29169W        W90832  37.564  25.124  10.897
29170W        W90833  33.532  26.959  12.056
29171W        W90834   4.810  37.552  11.070
29172W        W90835  14.808  14.754  12.044
29173W        W90836  35.029  39.364  12.511
29174W        W90837   1.355   7.811   9.989
29175W        W90838   8.802  28.640  10.961
29176W        W90839  42.940   4.346  10.584
29177W        W90840  28.442  40.497  13.929
29178W        W90841   0.410   4.265   3.200
29179W        W90842  43.897  34.546  11.001
29180W        W90843  12.305  31.471   0.950
29181W        W90844   5.437   5.885  13.877
29182W        W90845  14.293  34.027   0.338
29183W        W90846  30.532  23.986  11.383
29184W        W90847  14.312  22.078   4.329
29185W        W90848  24.197  34.114  10.625
29186W        W90849  42.453  13.724   3.728
29187W        W90850  26.204   3.732  11.380
29188W        W90851   4.366  35.874   3.723
29189W        W90852  30.143  28.946   4.610
29190W        W90853  44.330  31.414   3.327
29191W        W90854   5.381  13.779   2.268
29192W        W90855  19.141  23.196  14.926
29193W        W90856  17.717   9.753   3.242
29194W        W90857  35.097   8.774   1.904
29195W        W90858   2.364  35.872   1.894
29196W        W90859  24.179  26.603   1.270
29197W        W90860  36.531  33.968  11.494
29198W        W90861   0.352  30.655  14.385
29199W        W90862  12.202  32.593  11.503
29200W        W90863  29.947  26.553  14.434
29201W        W90864   9.378  30.005  14.441
29202W        W90865  26.178  41.922  11.481
29203W        W90866   3.224   7.845  10.619
29204W        W90867   6.235  38.990  12.932
29205W        W90868  11.221   6.756   0.833
29206W        W90869   4.361  12.684  14.868
29207W        W90870   2.274  32.008  13.954
29208W        W90871   5.258  26.476  14.843
29209W        W90872  23.128  27.138  12.371
29210W        W90873  22.115  26.978   2.303
29211W        W90874  18.688  34.889  14.812
29212W        W90875  34.993  25.962  12.544
29213W        W90876  44.423  13.717   0.747
29214W        W90877  13.108  15.203   2.839
29215W        W90878  13.657   4.439   3.158
29216W        W90879  38.498   8.178   9.517
29217W        W90880  34.612  10.138  10.921
29218W        W90881   8.693  39.453   3.849
29219W        W90882  16.171   2.239   4.121
29220W        W90883   8.688  42.488   3.733
29221W        W90884   3.754  23.500  10.598
29222W        W90885  24.524  16.640  11.502
29223W        W90886  39.526  25.713  12.864
29224W        W90887  21.638  16.231   2.852
29225W        W90888   2.786   0.395  13.908
29226W        W90889  11.727  33.075  13.499
29227W        W90890  27.177   6.405  10.977
29228W        W90891  31.954   5.737   2.841
29229W        W90892  29.473  19.256  11.489
29230W        W90893  21.573  31.576   4.224
29231W        W90894  39.509  39.057   1.380
29232W        W90895  43.984  25.675  14.782
29233W        W90896  22.543   5.246  12.572
29234W        W90897  26.681   8.212   1.741
29235W        W90898  10.782  37.389  11.963
29236W        W90899   5.201  43.949  14.376
29237W        W90900  34.883  15.270  12.965
29238W        W90901  42.997  33.893   1.319
29239W        W90902   4.270  30.940   2.773
29240W        W90903  35.038  19.160   0.413
29241W        W90904  10.351  15.692   4.698
29242W        W90905  16.243  35.065   2.286
29243W        W90906  25.608  24.497  14.811
29244W        W90907  24.647  27.954   2.328
29245W        W90908  37.021  44.832  11.470
29246W        W90909   1.939  12.309   3.650
29247W        W90910  20.754  27.074   0.454
29248W        W90911   6.395  37.554   5.283
29249W        W90912  21.036  23.126   2.323
29250W        W90913   2.258  41.492  10.416
29251W        W90914  35.501  10.776   3.713
29252W        W90915  30.438  36.966  12.957
29253W        W90916   2.437   5.423  12.343
29254W        W90917   3.821  41.444  11.564
29255W        W90918   9.272  36.430  14.949
29256W        W90919  13.223  11.296  12.027
29257W        W90920   8.746  14.326  12.097
29258W        W90921  10.721  33.908   4.749
29259W        W90922  42.339  44.942   3.751
29260W        W90923  18.144  27.169  11.411
29261W        W90924  22.674  37.866   1.841
29262W        W90925  20.240   5.431  13.040
29263W        W90926  42.494  11.676   1.427
29264W        W90927  33.909  22.550   4.620
29265W        W90928  13.113  28.474  13.382
29266W        W90929  27.946  19.072   0.837
29267W        W90930  39.427  35.417   4.631
29268W        W90931  34.965   4.323  10.112
29269W        W90932   8.325  19.262   1.726
29270W        W90933  29.973  39.445   4.727
29271W        W90934  34.964  20.153   4.139
29272W        W90935  44.271  25.592   3.386
29273W        W90936  22.094  42.443   0.427
29274W        W90937  27.670   6.718  12.900
29275W        W90938   7.317   9.717  11.422
29276W        W90939  22.642   4.341  11.066
29277W        W90940  40.957  29.045   3.354
29278W        W90941  13.760  10.222  12.869
29279W        W90942  21.731  28.673   2.199
29280W        W90943  39.859  44.482  11.394
29281W        W90944  41.525  27.525  14.436
29282W        W90945  31.493  30.046   1.398
29283W        W90946   5.214  16.789   2.283
29284W        W90947  38.041  39.002  10.948
29285W        W90948  43.311  21.073   3.255
29286W        W90949   6.381  20.760   3.795
29287W        W90950  44.462  29.137   1.385
29288W        W90951  32.982  33.878   2.664
29289W        W90952   9.307  33.077   4.617
29290W        W90953  31.134  40.544   4.617
29291W        W90954  11.138  20.763  10.635
29292W        W90955   1.238  32.130  12.009
29293W        W90956  14.730  23.523  12.017
29294W        W90957  19.201   7.408   0.841
29295W        W90958   8.670   5.757   2.340
29296W        W90959  19.612  20.750   0.284
29297W        W90960  26.525  15.688   4.312
29298W        W90961  43.398  24.718   0.792
29299W        W90962   9.798  26.468   1.410
29300W        W90963  44.927   0.444  12.395
29301W        W90964  40.339  29.096  12.879
29302W        W90965  24.171   8.406  13.841
29303W        W90966   6.919  26.537  14.473
29304W        W90967  36.035   5.885   3.713
29305W        W90968   2.862  41.953   4.214
29306W        W90969  40.899  21.517  13.457
29307W        W90970  39.970   2.962   4.314
29308W        W90971  44.859  43.808  13.806
29309W        W90972  20.722  16.174   3.270
29310W        W90973  35.055   3.844  14.322
29311W        W90974  21.085  23.160  10.529
29312W        W90975   8.898  10.268   2.664
29313W        W90976  37.986  19.692  12.455
29314W        W90977  33.048  33.087  11.541
29315W        W90978  26.010   3.908   9.524
29316W        W90979  35.382   8.329  13.062
29317W        W90980  19.564  32.920   4.635
29318W        W90981  14.590  26.465   3.747
29319W        W90982  17.140  19.762  10.957
29320W        W90983  41.836  20.069  13.432
29321W        W90984  11.793  24.229   2.803
29322W        W90985   7.746  44.880   1.750
29323W        W90986  20.270  13.615   1.747
29324W        W90987   8.856  32.033   0.323
29325W        W90988  32.058  39.953   0.751
29326W        W90989   4.843   7.835  11.532
29327W        W90990  39.404   4.774  14.997
29328W        W90991  43.475   3.918  12.366
29329W        W90992  33.063   4.802  12.579
29330W        W90993  15.176   2.890  11.997
29331W        W90994  26.505   7.199   2.856
29332W        W90995  32.512  39.003  13.890
29333W        W90996  25.070  31.544  12.465
29334W        W90997  16.307  39.921   2.317
29335W        W90998  39.850  25.640   0.835
29336W        W90999  34.972  20.257   0.331
29337W        W91000  13.809  41.356   0.337
29338W        W91001  10.833  44.372  10.125
29339W        W91002  32.558  43.431   3.259
29340W        W91003  12.622   9.791  10.561
29341W        W91004   0.454  28.088  12.075
29342W        W91005   2.832   6.405  12.352
29343W        W91006  14.779  12.780  13.043
29344W        W91007  35.889  18.069  14.470
29345W        W91008  25.563  34.893  12.580
29346W        W91009  16.761  17.754   0.759
29347W        W91010  16.266  14.165   0.398
29348W        W91011  36.448  12.305   0.375
29349W        W91012  27.966  22.179   1.765
29350W        W91013  28.552  32.623   4.190
29351W        W91014  19.677  42.010   5.302
29352W        W91015  34.497  34.081   2.216
29353W        W91016   7.865   8.693  13.985
29354W        W91017   0.849  26.559  11.094
29355W        W91018  13.332  29.448   3.189
29356W        W91019  19.041  13.804  13.917
29357W        W91020  17.659  18.244  11.596
29358W        W91021  32.968  42.854  11.577
29359W        W91022  20.145   3.247  13.324
29360W        W91023  22.694   3.459   0.368
29361W        W91024  17.749  28.057  13.536
29362W        W91025   3.258  21.635   4.290
29363W        W91026   5.902   5.921   1.252
29364W        W91027  17.754   3.277   2.274
29365W        W91028   0.321   8.200   0.932
29366W        W91029  32.067   2.777   4.162
29367W        W91030  15.239  37.866   0.440
29368W        W91031  20.051   3.852   2.182
29369W        W91032  32.519  20.690  14.497
29370W        W91033  33.589   3.778  11.464
29371W        W91034   3.828   9.877  14.369
29372W        W91035  31.021  42.904   2.815
29373W        W91036  18.089  19.594   1.223
29374W        W91037  38.423  35.030  13.409
29375W        W91038  31.546   9.328   0.449
29376W        W91039  32.076   9.359  11.010
29377W        W91040  41.302  19.612   4.818
29378W        W91041  13.808  28.936   1.882
29379W        W91042  22.216  39.333  13.482
29380W        W91043  18.610  14.809  13.841
29381W        W91044  27.057  42.367   2.702
29382W        W91045   5.845  36.534   3.349
29383W        W91046  22.688  44.299   1.744
29384W        W91047  11.826  26.080   2.708
29385W        W91048  40.812   9.655  12.378
29386W        W91049  36.917  11.300   4.352
29387W        W91050  41.949  34.113  11.477
29388W        W91051   4.396  30.569   4.233
29389W        W91052  38.909   1.838  12.870
29390W        W91053  35.373  38.985  11.518
29391W        W91054   5.756  35.032  14.499
29392W        W91055   7.389   0.868  11.941
29393W        W91056  40.980  37.011   1.696
29394W        W91057  43.432  19.124  12.955
29395W        W91058  29.965  41.966  12.454
29396W        W91059  27.579  22.065   3.285
29397W        W91060  36.452   5.256   2.762
29398W        W91061  21.664  26.462  14.837
29399W        W91062  42.924  39.882  11.981
29400W        W91063  33.401  12.820   0.898
29401W        W91064   3.734  15.816   2.686
29402W        W91065  16.623  20.129  12.449
29403W        W91066   1.344  21.130  11.901
29404W        W91067   6.242   7.737   4.247
29405W        W91068  37.994   9.327  12.413
29406W        W91069  21.675  32.562   1.317
29407W        W91070   2.793  16.779  11.873
29408W        W91071  19.128  25.127   3.219
29409W        W91072  14.731  17.076  14.826
29410W        W91073  11.174  24.695  10.466
29411W        W91074  39.888  25.064   0.452
29412W        W91075  43.505   1.818  13.395
29413W        W91076  21.260  12.624  10.426
29414W        W91077  14.626  43.401   1.340
29415W        W91078  44.931  13.172  14.840
29416W        W91079  21.593  28.181   2.291
29417W        W91080  22.204  16.261   3.775
29418W        W91081  38.035  41.963   1.860
29419W        W91082  31.115   3.259   1.365
29420W        W91083  37.342   6.281  13.935
29421W        W91084  26.466   0.927   2.890
29422W        W91085  34.897   4.719   2.308
29423W        W91086  28.541  35.550   2.756
29424W        W91087   2.472  21.184   4.317
29425W        W91088  12.122  41.963  10.418
29426W        W91089  31.504  28.982  14.431
29427W        W91090  38.343  42.361   2.260
29428W        W91091  36.366  29.474   2.258
29429W        W91092  29.943  17.202  10.530
29430W        W91093   9.215  29.032   4.619
29431W        W91094  16.605  44.262   4.608
29432W        W91095   7.717  13.739   3.278
29433W        W91096  15.730  14.823  11.444
29434W        W91097  36.939  43.320  12.537
29435W        W91098  14.639   6.408  12.514
29436W        W91099   7.894  43.016  12.446
29437W        W91100   3.758  17.278  12.507
29438W        W91101  18.227  13.773  14.321
29439W        W91102   3.220  33.903   3.247
29440W        W91103  15.112  19.686  10.910
29441W        W91104  23.715   2.759  12.921
29442W        W91105   6.373  23.205  12.842
29443W        W91106  30.956  11.848   5.085
29444W        W91107   6.707  35.092  13.837
29445W        W91108  26.008  39.809  11.933
29446W        W91109  17.233  13.796   2.890
29447W        W91110  30.129  11.267   4.120
29448W        W91111  42.452  36.850  11.082
29449W        W91112  14.108  42.953   1.400
29450W        W91113   6.383  18.590   4.677
29451W        W91114  34.899  41.009   4.221
29452W        W91115  40.444  36.403   3.231
29453W        W91116   0.851   6.239   3.201
29454W        W91117  37.340  12.764   1.295
29455W        W91118  42.881  17.600  14.877
29456W        W91119  33.954   0.275   0.953
29457W        W91120  38.453  13.181   0.955
29458W        W91121  38.526  33.032  13.514
29459W        W91122  36.411  44.292   3.658
29460W        W91123  24.130  12.816  14.960
29461W        W91124   8.304  22.076  10.573
29462W        W91125   7.393  30.630   4.142
29463W        W91126  37.053  20.189  14.843
29464W        W91127   2.290  32.965   1.738
29465W        W91128   6.858  27.088   1.419
29466W        W91129  11.198  23.539   1.886
29467W        W91130  10.382  41.295  12.860
29468W        W91131  35.898  31.943  11.596
29469W        W91132  42.372  20.255   3.265
29470W        W91133  31.108  34.472  11.539
29471W        W91134   3.870  12.326  14.811
29472W        W91135  18.722  18.090   0.789
29473W        W91136  44.392   6.727   4.663
29474W        W91137  23.182  19.538  13.387
29475W        W91138  21.217  19.114   4.789
29476W        W91139  32.009  38.477  11.529
29477W        W91140  31.551  22.234   1.309
29478W        W91141  23.518  23.551  14.511
29479W        W91142  25.648  12.357   4.119
29480W        W91143  21.737  44.956  13.822
29481W        W91144  29.588   1.819  10.481
29482W        W91145  13.746  11.299  10.454
29483W        W91146  40.542   0.459  13.910
29484W        W91147   4.721  10.780   4.221
29485W        W91148  35.463  30.040  12.896
29486W        W91149  38.043  22.006   3.847
29487W        W91150   1.889  25.075   0.341
29488W        W91151  13.691   0.860   1.907
29489W        W91152  38.494  35.002   0.896
29490W        W91153   2.448  35.572   2.680
29491W        W91154   9.723  29.029  11.993
29492W        W91155  22.046  28.933   0.425
29493W        W91156   4.755  19.748   5.231
29494W        W91157  11.717   1.296   1.921
29495W        W91158  30.997   2.750   0.341
29496W        W91159  30.153  27.576  10.509
29497W        W91160  40.959  36.981  13.836
29498W        W91161  34.558  38.501  12.410
29499W        W91162   4.370  41.987   0.909
29500W        W91163  18.069   5.847  11.900
29501W        W91164  14.635   1.347   2.830
29502W        W91165  16.150   5.300   3.801
29503W        W91166  27.975  19.744   1.354
29504W        W91167  17.654  40.527   4.297
29505W        W91168  36.084  42.826  14.969
29506W        W91169   2.872  34.934   3.724
29507W        W91170   6.333   0.275  13.844
29508W        W91171  31.059  22.548   3.362
29509W        W91172  38.503  25.566   2.824
29510W        W91173  44.354   0.398  10.012
29511W        W91174   7.860  31.507   4.743
29512W        W91175  31.990  36.391  10.408
29513W        W91176  33.885  20.101  14.486
29514W        W91177  43.322  20.105   4.745
29515W        W91178  29.929   4.731   1.215
29516W        W91179   6.822  18.262  12.548
29517W        W91180  40.880  21.158   2.391
29518W        W91181   4.411  14.749  14.420
29519W        W91182  21.171  37.525   3.380
29520W        W91183  38.942  39.447   3.721
29521W        W91184  18.202  23.537  13.431
29522W        W91185   6.416  42.424   1.741
29523W        W91186  26.133   1.318  14.857
29524W        W91187  16.132  36.368  13.343
29525W        W91188  32.465  37.436   2.689
29526W        W91189  40.035   8.854   5.231
29527W        W91190  17.671  23.500  12.924
29528W        W91191   8.855   7.841   2.692
29529W        W91192  13.737  37.353   3.708
29530W        W91193  19.565  14.095  13.441
29531W        W91194  44.259   6.833   1.819
29532W        W91195  23.624  20.530  14.903
29533W        W91196  13.183  17.114  14.325
29534W        W91197   3.400   3.230  12.070
29535W        W91198  37.505   9.361   3.354
29536W        W91199  33.380  43.398  14.763
29537W        W91200  32.039  18.653   2.733
29538W        W91201  20.144   1.408   0.897
29539W        W91202   9.257  33.065  12.825
29540W        W91203  12.168  29.029  14.911
29541W        W91204  20.645  14.648   2.745
29542W        W91205   6.410  24.516  11.112
29543W        W91206  20.733  28.983  14.880
29544W        W91207  30.911   3.230   0.422
29545W        W91208   3.767  26.516  14.954
29546W        W91209   5.920   8.713  10.900
29547W        W91210  22.525  27.108   4.187
29548W        W91211  29.030  29.641  13.427
29549W        W91212  17.081  40.402   3.339
29550W        W91213  24.597  26.981   9.465
29551W        W91214  23.645   6.420   0.829
29552W        W91215   1.466   5.718  13.992
29553W        W91216  39.428  12.808  13.486
29554W        W91217  10.222  27.540   1.410
29555W        W91218  10.773  22.059  12.069
29556W        W91219   0.835  20.143  10.542
29557W        W91220   4.842   5.263   1.282
29558W        W91221  26.152  10.818  11.599
29559W        W91222  15.188  32.016  12.080
29560W        W91223  35.042  29.469  11.998
29561W        W91224  44.264   2.728  13.328
29562W        W91225  28.105  28.581   4.295
29563W        W91226  31.567  31.643  10.584
29564W        W91227  37.080  41.976   2.235
29565W        W91228   7.274   6.908  14.811
29566W        W91229   9.736  44.832   0.453
29567W        W91230   1.441  27.684  13.349
29568W        W91231  39.909   2.313   0.421
29569W        W91232   8.808   1.748   3.829
29570W        W91233  18.129  38.365  14.407
29571W        W91234  42.948  43.467   0.430
29572W        W91235  14.234  28.035  11.389
29573W        W91236  16.674  35.494  10.940
29574W        W91237  26.148  11.195  14.339
29575W        W91238  29.549  35.569  14.848
29576W        W91239  29.037  18.071   3.829
29577W        W91240  43.302  40.416  12.944
29578W        W91241  38.993   3.764   1.251
29579W        W91242  16.786   3.287  14.986
29580W        W91243  35.506   2.776   3.294
29581W        W91244  10.157  14.290   1.361
29582W        W91245  32.926  25.656   1.826
29583W        W91246  27.959  23.135  11.578
29584W        W91247  44.315  17.130  13.008
29585W        W91248   5.865  31.460   3.317
29586W        W91249  18.594  15.623   1.436
29587W        W91250  30.931  24.620  12.947
29588W        W91251  32.072  23.646  11.592
29589W        W91252  26.466   0.357   0.387
29590W        W91253  22.203  35.961   0.354
29591W        W91254  29.978   4.386  14.864
29592W        W91255   9.376  20.644   1.723
29593W        W91256  35.496  31.547   0.465
29594W        W91257   8.727  10.722  10.048
29595W        W91258  38.058   5.323   1.322
29596W        W91259  27.005  18.590  13.487
29597W        W91260  36.051  35.071   1.737
29598W        W91261  22.151  20.071  11.520
29599W        W91262  18.142  34.430   2.342
29600W        W91263  22.069  26.535   3.666
29601W        W91264  39.918  19.564  10.600
29602W        W91265  22.059  44.962  12.946
29603W        W91266  20.218  30.069   2.193
29604W        W91267   8.832   6.810  11.873
29605W        W91268  36.932  17.646   2.381
29606W        W91269   7.737  14.146   1.918
29607W        W91270  19.640   1.424   0.861
29608W        W91271  20.201  39.820  14.005
29609W        W91272  42.402  42.867  13.038
29610W        W91273  37.382  20.137  11.409
29611W        W91274   5.712  37.084  14.770
29612W        W91275   7.199   1.954   0.366
29613W        W91276   1.933  35.430   1.744
29614W        W91277   8.403  20.527  14.898
29615W        W91278   7.245  37.869  13.807
29616W        W91279  32.436  39.545  11.093
29617W        W91280  40.382   8.900  14.778
29618W        W91281  42.896  22.095  12.438
29619W        W91282  27.520  14.637   1.848
29620W        W91283  34.567  39.862  11.072
29621W        W91284  43.372  28.145   1.395
29622W        W91285   7.309  43.468  11.866
29623W        W91286   2.814  36.473  12.351
29624W        W91287   5.862   1.931  14.428
29625W        W91288  40.874  34.502  11.903
29626W        W91289  39.025  26.971  12.517
29627W        W91290  31.140  24.564  14.381
29628W        W91291  20.557  40.935  10.642
29629W        W91292   7.298   2.456   4.598
29630W        W91293   5.284  28.563  14.289
29631W        W91294   3.862  18.136   3.190
29632W        W91295  29.041  23.012  14.928
29633W        W91296  21.048  40.934  12.540
29634W        W91297  28.558   1.956   4.346
29635W        W91298  39.029  24.986   3.286
29636W        W91299  42.485  16.290   1.716
29637W        W91300   8.170  23.057  12.477
29638W        W91301  25.620   4.792  10.923
29639W        W91302  12.140  22.119   2.678
29640W        W91303  17.651  19.245  13.404
29641W        W91304  28.467  22.622   3.735
29642W        W91305  30.506  34.374  13.833
29643W        W91306  28.940  26.143  12.479
29644W        W91307  17.643  21.727  11.570
29645W        W91308   9.675  22.078   2.234
29646W        W91309  18.294   2.729  13.482
29647W        W91310  23.611  39.064  11.084
29648W        W91311  30.505   1.388   4.286
29649W        W91312   5.305   8.320   1.446
29650W        W91313  23.639  22.743  14.330
29651W        W91314  35.394  42.454   2.740
29652W        W91315  35.054  40.525   0.369
29653W        W91316  36.916  32.938   4.795
29654W        W91317  18.241  10.285   2.837
29655W        W91318   3.369  13.333  10.925
29656W        W91319  21.082  39.985   0.457
29657W        W91320  14.726   7.816   0.338
29658W        W91321  17.597   7.234   2.261
29659W        W91322  22.511   3.416  11.088
29660W        W91323  44.489   4.240  14.276
29661W        W91324  16.758  38.451   1.314
29662W        W91325  31.007   3.294  11.902
29663W        W91326  11.787  11.373  10.040
29664W        W91327  41.360  15.320   2.217
29665W        W91328  25.614  32.032   3.146
29666W        W91329  42.813  40.806   3.348
29667W        W91330  13.184  29.531  10.545
29668W        W91331  22.161  26.087   4.307
29669W        W91332  26.146  33.616  13.835
29670W        W91333  10.226   2.292  11.503
29671W        W91334   2.410   9.175  11.968
29672W        W91335   0.275  28.070   4.688
29673W        W91336  34.955  41.511  11.016
29674W        W91337  42.799  19.751  14.021
29675W        W91338  15.677  18.091   2.726
29676W        W91339  26.674  26.976  14.799
29677W        W91340  20.156  35.918  12.903
29678W        W91341   5.277   6.420  12.886
29679W        W91342  40.469  30.609  14.370
29680W        W91343  12.737  20.709   3.839
29681W        W91344  37.041  31.597   1.773
29682W        W91345  22.085  35.498  11.969
29683W        W91346  43.509  26.539   2.208
29684W        W91347  25.617   3.378  11.875
29685W        W91348  35.411  36.991   1.251
29686W        W91349  21.179  15.321  14.762
29687W        W91350   2.293  33.481   0.834
29688W        W91351  33.988  24.080   4.247
29689W        W91352  41.389  18.677   3.642
29690W        W91353  23.494  44.823   4.240
29691W        W91354  21.522  15.686  14.819
29692W        W91355  34.551   6.815  11.498
29693W        W91356   6.860  17.617   2.786
29694W        W91357  12.673  25.166   3.188
29695W        W91358  34.995  14.732   2.732
29696W        W91359  24.484  18.069   2.400
29697W        W91360  19.117  15.293  14.383
29698W        W91361  37.469   5.822   2.292
29699W        W91362  25.584   4.701   1.741
29700W        W91363   1.923  23.240   3.691
29701W        W91364   2.952  25.666  11.034
29702W        W91365   3.894   8.802  14.486
29703W        W91366  34.933  44.812   0.423
29704W        W91367  14.192  40.336  12.436
29705W        W91368  12.721  25.663   3.666
29706W        W91369   9.366   6.423   0.315
29707W        W91370  39.826   9.759   1.934
29708W        W91371  23.614  28.158  11.967
29709W        W91372   5.899  32.086  14.828
29710W        W91373  44.984   7.735   0.271
29711W        W91374  23.683  35.561  11.549
29712W        W91375  40.902  42.340  13.402
29713W        W91376  42.827  12.664   0.390
29714W        W91377  11.361  13.296   2.299
29715W        W91378   7.681  36.047   1.696
29716W        W91379  21.605  33.098  11.897
29717W        W91380  10.228   4.764   3.634
29718W        W91381  19.064  37.904   4.228
29719W        W91382  20.559  17.725   4.756
29720W        W91383  13.198  39.813   1.282
29721W        W91384  16.808  26.656   4.132
29722W        W91385  38.941  31.602  11.041
29723W        W91386  26.000  38.410   1.339
29724W        W91387  39.497   6.704  13.976
29725W        W91388  23.511   6.824   3.638
29726W        W91389  40.504  10.330  10.940
29727W        W91390  35.412  25.192  14.379
29728W        W91391   8.729  18.715   3.197
29729W        W91392  36.965   6.428  10.981
29730W        W91393  39.867   4.409  13.820
29731W        W91394  27.066  12.200  11.427
29732W        W91395  21.089  27.008  12.495
29733W        W91396  23.114  19.159  11.573
29734W        W91397  30.557  39.433  13.962
29735W        W91398  30.907  28.023   1.379
29736W        W91399   1.856   8.901  13.497
29737W        W91400  32.960  10.751   3.750
29738W        W91401  17.781  44.357   1.312
29739W        W91402   8.220  29.975   1.755
29740W        W91403  14.718  33.453  14.831
29741W        W91404  20.674   7.673  13.479
29742W        W91405  18.618  38.372   1.919
29743W        W91406  16.577   7.754  14.444
29744W        W91407  41.347   9.708  14.944
29745W        W91408   4.830  25.611   0.788
29746W        W91409  33.404  30.014   2.861
29747W        W91410  18.708  24.165  10.615
29748W        W91411  38.868  43.422   3.691
29749W        W91412  39.427  15.747  12.441
29750W        W91413  29.426  38.348  11.864
29751W        W91414   7.410  35.533   4.237
29752W        W91415  33.965  20.121   1.832
29753W        W91416  40.340  18.141   2.248
29754W        W91417  11.847  41.809   2.866
29755W        W91418  10.362  43.439  14.485
29756W        W91419  29.572  33.074   2.704
29757W        W91420   3.252  36.884   3.188
29758W        W91421  44.918  23.530   3.832
29759W        W91422  21.125  18.789   2.877
29760W        W91423  18.613  25.985  14.920
29761W        W91424  20.533  34.986   0.851
29762W        W91425  44.791   9.841   2.722
29763W        W91426   4.933  31.989   5.258
29764W        W91427  26.197  28.135   4.236
29765W        W91428  31.936  21.069   3.289
29766W        W91429  32.119  37.916  12.515
29767W        W91430  34.073  43.487  10.498
29768W        W91431  27.968  37.046   0.758
29769W        W91432  12.342  37.460   4.134
29770W        W91433  31.913  15.299  14.361
29771W        W91434  19.140  22.607  13.884
29772W        W91435  34.487  34.990   1.437
29773W        W91436  38.869   1.840   2.230
29774W        W91437  31.439  32.112  10.600
29775W        W91438  18.625  43.424   4.181
29776W        W91439  32.004   0.793  14.928
29777W        W91440  15.770  43.893   1.908
29778W        W91441  13.819   6.342  14.910
29779W        W91442  41.032  27.506  12.568
29780W        W91443  44.329  19.264  11.909
29781W        W91444  28.156  29.574  10.961
29782W        W91445  16.715  11.696  14.391
29783W        W91446   1.425  17.686  14.284
29784W        W91447   7.820   5.833   2.663
29785W        W91448  29.107  16.602  14.910
29786W        W91449  42.844  30.508  12.851
29787W        W91450  22.042   9.786   3.675
29788W        W91451  26.574  13.821  11.544
29789W        W91452  21.603  27.077   3.289
29790W        W91453  41.827  44.951   3.734
29791W        W91454  44.272  32.934   0.960
29792W        W91455  32.505  11.136   1.893
29793W        W91456  32.901  20.629  13.519
29794W        W91457  33.592  37.006  11.114
29795W        W91458  30.438  27.994  13.050
29796W        W91459   3.403  36.079  14.307
29797W        W91460  43.377  44.818  13.872
29798W        W91461  36.492  16.135  13.826
29799W        W91462  39.944  36.435   3.803
29800W        W91463   1.740  18.648   5.095
29801W        W91464  36.879  21.058   2.901
29802W        W91465  21.231  40.978  12.947
29803W        W91466  36.353  32.396  11.904
29804W        W91467   2.735  10.701   3.260
29805W        W91468  25.573  13.634   3.349
29806W        W91469  16.626  25.131  13.876
29807W        W91470  29.990  27.617  12.843
29808W        W91471   0.783   2.786   2.373
29809W        W91472   5.886  26.481  14.497
29810W        W91473  20.142  12.166   4.724
29811W        W91474  31.146   4.911   4.700
29812W        W91475   6.421  28.135   3.239
29813W        W91476  34.997  15.619   4.346
29814W        W91477   6.207  17.097  13.050
29815W        W91478   0.390  40.939   4.235
29816W        W91479  32.129   9.743   4.813
29817W        W91480  18.624   5.824  11.890
29818W        W91481   0.877  13.166  12.499
29819W        W91482   1.831  43.297   0.967
29820W        W91483   2.353  32.011   3.260
29821W        W91484  12.196   0.247   0.244
29822W        W91485  42.891  35.424   0.367
29823W        W91486  30.500  16.728  11.010
29824W        W91487  25.156  38.896   1.900
29825W        W91488  21.587  27.573  13.367
29826W        W91489  26.137  14.202   0.826
29827W        W91490   2.854  41.031  12.081
29828W        W91491  16.157  39.483   1.283
29829W        W91492  24.595   9.805   4.628
29830W        W91493   9.869  33.589   0.299
29831W        W91494  22.062  16.575   3.231
29832W        W91495  25.526   6.423   2.852
29833W        W91496  32.104  22.210  11.440
29834W        W91497  28.591  15.313  10.417
29835W        W91498  20.241  11.144   0.848
29836W        W91499  33.383  19.245   4.613
29837W        W91500   2.862   2.727   0.438
29838W        W91501  18.211  38.482  13.974
29839W        W91502  26.995  35.964   3.305
29840W        W91503  36.436   0.435  11.901
29841W        W91504  25.995  20.182  12.399
29842W        W91505   5.728   5.693  13.374
29843W        W91506  41.393  23.175   4.307
29844W        W91507   2.461  38.400  12.426
29845W        W91508  18.147   0.289  13.996
29846W        W91509  10.193  42.434  13.339
29847W        W91510  16.644  19.647  11.470
29848W        W91511  12.301  18.175  14.941
29849W        W91512  36.455  23.060  14.873
29850W        W91513   2.246  36.952  13.977
29851W        W91514  15.714  34.055  14.355
29852W        W91515  38.543  22.720  13.393
29853W        W91516   7.278  29.557   0.458
29854W        W91517   1.734  36.402  14.997
29855W        W91518  37.530   4.747   4.769
29856W        W91519  27.496  30.657  12.348
29857W        W91520  40.501   4.893  12.412
29858W        W91521   4.295  36.396   4.349
29859W        W91522  23.577   6.828  13.426
29860W        W91523  28.547  20.199   0.276
29861W        W91524   7.912  34.540  10.959
29862W        W91525  10.796  23.001  12.863
29863W        W91526  10.194   4.361  10.569
29864W        W91527  31.452  44.877  11.579
29865W        W91528   1.762   5.918   4.807
29866W        W91529  14.145  35.429  11.518
29867W        W91530  12.265   6.289   2.892
29868W        W91531  25.516  11.837   3.350
29869W        W91532  33.010  30.621  13.426
29870W        W91533  16.145  25.529  11.444
29871W        W91534  41.315  29.122   1.224
29872W        W91535  29.459  20.744   1.329
29873W        W91536  20.689  25.973   1.822
29874W        W91537   0.961  14.254  10.926
29875W        W91538  38.850  34.374  14.806
29876W        W91539  42.355  33.476   1.871
29877W        W91540  37.347  40.464   3.695
29878W        W91541  15.605  18.091  13.962
29879W        W91542  14.661   6.187   1.926
29880W        W91543  24.990   8.205  11.456
29881W        W91544  33.002  28.069  13.050
29882W        W91545  15.790  17.638  13.308
29883W        W91546  37.956  19.764  13.798
29884W        W91547  26.078  31.019   0.349
29885W        W91548  14.645  14.107  13.919
29886W        W91549  15.756  43.777  12.079
29887W        W91550  35.369  20.044   0.782
29888W        W91551  40.359  32.459   2.379
29889W        W91552  32.085  43.840  12.550
29890W        W91553  36.514  10.695  14.275
29891W        W91554   3.283  18.285   1.845
29892W        W91555  20.252  16.680  11.111
29893W        W91556   1.371  31.025   0.303
29894W        W91557  31.594  28.971  11.438
29895W        W91558   2.946  13.747   2.837
29896W        W91559  10.811  41.538  11.102
29897W        W91560  22.176   2.312   0.368
29898W        W91561  31.463   8.182   3.314
29899W        W91562  29.035  31.629  13.854
29900W        W91563   8.717  40.988   2.235
29901W        W91564  34.925  30.991  13.522
29902W        W91565  36.534  21.131  13.900
29903W        W91566  16.718  14.798  12.971
29904W        W91567   1.814  17.669  11.045
29905W        W91568  31.591   4.912  14.949
29906W        W91569  29.143   6.285   2.243
29907W        W91570  17.578  36.457  12.467
29908W        W91571   6.182  37.564  14.853
29909W        W91572  13.783  19.232   1.341
29910W        W91573  20.762   3.868   1.866
29911W        W91574  34.485  11.346   3.690
29912W        W91575  27.478  33.552  13.456
29913W        W91576   1.443  19.170  10.615
29914W        W91577  36.587  41.865   0.906
29915W        W91578  28.052   7.396  13.822
29916W        W91579  30.163  41.425   4.279
29917W        W91580  32.928  38.459  14.810
29918W        W91581  34.431  33.938  13.320
29919W        W91582  26.146  23.638  13.843
29920W        W91583  33.437  21.139  12.450
29921W        W91584   1.881   7.754  13.368
29922W        W91585  14.110  43.984  11.477
29923W        W91586   9.335  33.932   2.834
29924W        W91587  11.175  44.890   0.816
29925W        W91588   0.474   5.310  14.014
29926W        W91589  38.002   6.750   3.809
29927W        W91590  10.655   5.734  14.938
29928W        W91591  32.966   8.394   4.121
29929W        W91592   3.314  32.402  11.461
29930W        W91593   3.260  12.232   2.749
29931W        W91594  41.380   0.850  11.907
29932W        W91595  16.142  14.632   1.252
29933W        W91596   6.794  27.544  12.488
29934W        W91597  18.241   5.791   4.279
29935W        W91598  19.690  19.700   2.754
29936W        W91599  44.361  11.680   1.239
29937W        W91600  23.057  20.266   2.730
29938W        W91601  11.710  27.459   2.275
29939W        W91602  18.593  15.147  10.579
29940W        W91603  22.708  13.131  11.005
29941W        W91604  44.811  22.602  14.429
29942W        W91605  36.098   3.800   3.794
29943W        W91606  10.671  14.639   0.794
29944W        W91607  15.820  11.664   1.369
29945W        W91608  43.405  29.538   2.188
29946W        W91609   8.699  38.483   4.237
29947W        W91610  22.616  43.354  10.986
29948W        W91611  19.748  11.276  13.925
29949W        W91612   7.223  13.223   4.612
29950W        W91613  35.431  44.864   2.347
29951W        W91614  17.610  27.056  13.830
29952W        W91615  33.381   4.356  12.914
29953W        W91616  36.531  17.668  11.970
29954W        W91617  44.313  23.663   3.826
29955W        W91618   6.818  44.437  14.498
29956W        W91619  23.014  36.021  10.939
29957W        W91620   6.915  31.988   3.747
29958W        W91621  28.642  28.456  12.082
29959W        W91622  18.653  35.903   4.172
29960W        W91623  17.737  25.527   1.265
29961W        W91624  44.784  26.159  11.572
29962W        W91625  34.510   8.371   2.829
29963W        W91626  18.081  36.348   3.820
29964W        W91627  16.233   7.276  12.078
29965W        W91628  22.252   4.702  11.073
29966W        W91629  40.469  32.521  11.524
29967W        W91630  38.029  32.913   3.204
29968W        W91631  40.866   4.735  11.565
29969W        W91632   0.413   0.419  11.128
29970W        W91633  22.247   4.280   1.825
29971W        W91634  11.363   4.822  10.462
29972W        W91635   1.965  26.699   4.210
29973W        W91636  10.750  29.975  14.479
29974W        W91637  37.561  14.595  11.523
29975W        W91638  27.026  27.546   1.748
29976W        W91639   6.340  20.556  11.876
29977W        W91640  24.184  24.975  14.802
29978W        W91641  44.440   0.283   2.340
29979W        W91642  14.591   6.237   1.398
29980W        W91643  14.691   3.867  11.512
29981W        W91644  16.224  41.439   3.348
29982W        W91645  14.189  40.858  14.371
29983W        W91646  30.005  24.523   3.840
29984W        W91647  20.612  38.931   4.723
29985W        W91648   8.855  42.451  14.828
29986W        W91649   1.324   2.403  13.414
29987W        W91650   6.760  38.426  11.460
29988W        W91651  29.453  12.802   1.367
29989W        W91652   8.851  18.565   1.362
29990W        W91653   9.882   5.347  14.791
29991W        W91654  23.235   1.388   1.835
29992W        W91655  19.218   4.295   0.289
29993W        W91656  38.466  27.176   2.768
29994W        W91657  31.643   3.284  11.053
29995W        W91658  33.425  33.396   2.323
29996W        W91659   2.907  10.287   4.734
29997W        W91660  38.935  30.644  11.462
29998W        W91661   9.650  42.030  13.897
29999W        W91662  39.448  39.459  12.535
30000W        W91663   6.715  41.419   4.812
30001W        W91664  14.223  33.579   1.423
30002W        W91665  39.407  13.114  14.387
30003W        W91666  15.120  27.033  11.879
30004W        W91667  15.627   3.453  11.569
30005W        W91668  29.019  44.440  12.382
30006W        W91669   3.319  10.253   4.182
30007W        W91670  31.508  28.612   4.353
30008W        W91671  40.041  21.657  10.935
30009W        W91672  37.525   0.425  11.492
30010W        W91673  18.145  14.102  14.796
30011W        W91674  23.091  41.788  11.129
30012W        W91675  20.523  39.447   4.298
30013W        W91676  42.310  31.994  13.352
30014W        W91677  33.918   4.818   4.228
30015W        W91678  14.139  25.096   2.673
30016W        W91679  27.593  15.275   1.231
30017W        W91680  13.718  30.982  14.472
30018W        W91681  16.188  22.202  13.935
30019W        W91682  29.156  25.641  13.026
30020W        W91683  27.092  22.197   1.911
30021W        W91684   4.870  39.978  12.825
30022W        W91685  14.601  29.074   1.875
30023W        W91686   9.715  19.629  13.893
30024W        W91687  35.012   7.739   0.896
30025W        W91688  42.436   4.835   1.387
30026W        W91689  19.742  17.658   0.834
30027W        W91690  10.713  30.458  11.911
30028W        W91691  11.775  23.667   1.322
30029W        W91692  11.265  38.499  14.283
30030W        W91693   4.344  36.462  11.920
30031W        W91694  28.032   4.391  11.048
30032W        W91695  12.339  37.440  10.974
30033W        W91696  42.478   2.946  12.534
30034W        W91697  32.084  11.364   4.741
30035W        W91698  26.598  38.931   2.182
30036W        W91699   1.887  31.561  11.564
30037W        W91700  41.937  34.410  12.536
30038W        W91701   4.866   6.312  11.419
30039W        W91702  42.819  22.541   0.283
30040W        W91703  25.165   6.769   1.834
30041W        W91704   1.822  10.783   3.287
30042W        W91705  11.867  15.581   2.325
30043W        W91706   3.864  12.302   3.325
30044W        W91707  11.206  23.088  14.022
30045W        W91708   5.770  15.088   1.705
30046W        W91709  34.063  43.920  13.960
30047W        W91710   3.837  36.473  13.464
30048W        W91711  32.971  32.500  10.905
30049W        W91712  37.049   7.812  10.414
30050W        W91713   8.840  10.360   1.344
30051W        W91714  32.529  25.577   0.929
30052W        W91715  42.370  38.344  14.417
30053W        W91716  40.385  32.411  11.046
30054W        W91717  29.028  20.101   0.281
30055W        W91718  39.547  18.195   2.294
30056W        W91719  32.951  30.553  14.462
30057W        W91720  19.276  43.459   4.275
30058W        W91721  43.806  40.311  11.097
30059W        W91722   3.787  33.010   3.776
30060W        W91723  28.576   7.714   3.813
30061W        W91724  27.592   9.869  11.950
30062W        W91725  31.930  25.532   4.658
30063W        W91726  22.517  25.524   1.907
30064W        W91727  37.872   1.858   4.334
30065W        W91728  27.615  11.208   1.739
30066W        W91729   8.899  30.968   1.259
30067W        W91730   7.257   9.827   3.757
30068W        W91731   6.882  37.914   3.360
30069W        W91732   4.398  38.821  12.569
30070W        W91733  14.640  11.156   4.802
30071W        W91734   6.197  11.698   1.831
30072W        W91735   4.819  41.919  14.832
30073W        W91736  40.977  39.483   2.796
30074W        W91737   6.797  24.586  11.552
30075W        W91738  33.464  35.881  10.141
30076W        W91739  27.662   7.283  13.425
30077W        W91740  14.308  24.628   3.357
30078W        W91741  38.354  40.525   0.793
30079W        W91742  16.280  20.664  10.526
30080W        W91743  24.113   5.228   3.258
30081W        W91744  41.470  24.676  11.494
30082W        W91745  37.393  16.123   4.115
30083W        W91746  32.628  38.944  10.896
30084W        W91747  16.802  23.987   3.222
30085W        W91748  24.637   4.814   4.619
30086W        W91749  26.968  44.962   2.205
30087W        W91750  11.694  40.030   1.290
30088W        W91751  26.462   3.455   0.892
30089W        W91752  29.048  16.195   1.744
30090W        W91753  16.758  43.933   1.751
30091W        W91754   4.887  35.942  10.431
30092W        W91755  35.395  36.900  10.901
30093W        W91756   0.988  36.055  14.872
30094W        W91757  41.974  29.970  13.018
30095W        W91758   3.244   8.245  14.984
30096W        W91759   6.725  41.787   4.318
30097W        W91760  20.668  25.133   2.297
30098W        W91761  15.134   9.359  13.425
30099W        W91762  39.960  38.410  12.832
30100W        W91763  28.168  42.970  13.430
30101W        W91764  12.676  42.948   0.893
30102W        W91765   7.324  32.004   4.142
30103W        W91766  22.195   0.868   2.876
30104W        W91767   6.888  10.688  12.047
30105W        W91768   6.808  44.834   0.938
30106W        W91769  32.938   4.891  13.939
30107W        W91770  39.356   0.959  13.387
30108W        W91771  29.491   6.717  13.813
30109W        W91772  43.811  15.595   4.651
30110W        W91773   2.803  34.933   3.219
30111W        W91774  11.272  41.043   4.601
30112W        W91775  34.481   2.282  11.106
30113W        W91776  22.619   6.710  11.956
30114W        W91777  20.729  17.619  11.943
30115W        W91778   0.769  13.758  14.389
30116W        W91779  32.430  36.016  11.472
30117W        W91780   3.327  24.207   4.788
30118W        W91781  27.173  12.261   3.803
30119W        W91782  35.015   8.776  11.116
30120W        W91783  16.167  26.026  12.971
30121W        W91784  31.043   5.918  14.901
30122W        W91785   5.756  31.548   4.662
30123W        W91786  29.926  35.467   4.743
30124W        W91787  12.770  13.722   3.152
30125W        W91788   1.818  33.518  11.903
30126W        W91789   9.735  37.933   0.353
30127W        W91790  33.092  16.184  13.003
30128W        W91791  37.448  16.184   3.380
30129W        W91792  13.610  12.153  11.463
30130W        W91793  21.532   3.917  13.325
30131W        W91794  19.664  40.015  13.806
30132W        W91795  29.659  25.595   1.323
30133W        W91796  42.417  24.566  11.113
30134W        W91797  35.020   1.840  13.852
30135W        W91798  16.780  23.677  11.478
30136W        W91799  38.967  19.158   2.205
30137W        W91800  33.909  42.982  11.913
30138W        W91801  22.539  30.499  13.471
30139W        W91802  15.305  25.117   4.792
30140W        W91803  23.218  26.694  11.012
30141W        W91804   8.700  10.781  10.436
30142W        W91805  21.624  19.259  12.876
30143W        W91806   9.224  17.109   3.763
30144W        W91807   1.827  41.969   2.860
30145W        W91808   9.361  22.173   0.947
30146W        W91809   1.952  29.052   3.301
30147W        W91810  34.519  14.181  12.556
30148W        W91811  37.975  10.355  14.469
30149W        W91812  24.089  13.227  14.015
30150W        W91813  37.536   7.354  13.403
30151W        W91814   1.266   3.739   0.409
30152W        W91815  42.961   9.314  11.021
30153W        W91816  35.023  44.489  13.499
30154W        W91817  43.793   9.855   3.372
30155W        W91818  18.258   9.238  12.542
30156W        W91819  17.566  42.863  13.463
30157W        W91820  13.213  30.545  14.771
30158W        W91821  14.812  37.573   3.253
30159W        W91822   2.461  10.792   3.790
30160W        W91823  36.540  35.460   4.313
30161W        W91824  27.118  37.973  14.947
30162W        W91825  17.573   4.836   3.339
30163W        W91826   1.948  14.290  10.436
30164W        W91827  38.958  32.446   1.825
30165W        W91828  30.416  21.111   4.709
30166W        W91829  41.515  33.432   3.744
30167W        W91830  23.577   0.372  11.907
30168W        W91831  24.203  41.856   0.886
30169W        W91832  28.492  22.662  11.477
30170W        W91833   7.892  18.702   1.833
30171W        W91834  18.134  20.192  14.943
30172W        W91835  38.331   0.929   2.734
30173W        W91836  40.878  31.909   2.747
30174W        W91837   0.249   1.268  13.850
30175W        W91838  36.383  43.423  10.989
30176W        W91839  27.485  11.279  12.914
30177W        W91840  18.761  29.457   3.841
30178W        W91841  19.191  33.930  11.065
30179W        W91842  12.806  25.664   0.906
30180W        W91843   5.718  12.780  13.368
30181W        W91844  16.249  37.381   3.240
30182W        W91845  18.597  42.510   4.319
30183W        W91846  31.143  15.311   2.364
30184W        W91847   0.862  32.966  12.372
30185W        W91848  26.157  12.805   2.843
30186W        W91849  34.475  30.061  13.850
30187W        W91850  30.089  23.622   0.296
30188W        W91851  43.909  40.430   2.795
30189W        W91852  18.294  31.042  13.930
30190W        W91853  15.085  39.863  10.601
30191W        W91854  11.805  34.386   2.333
30192W        W91855  29.518   8.710   1.236
30193W        W91856  11.203  36.516   2.340
30194W        W91857  17.143  29.522  10.015
30195W        W91858  19.660  35.568   1.788
30196W        W91859  23.510  36.588   4.662
30197W        W91860  29.533   2.734   1.754
30198W        W91861  39.843  33.118   0.850
30199W        W91862  11.365  20.141  10.424
30200W        W91863  25.008   0.789   4.710
30201W        W91864  31.150  20.578  11.374
30202W        W91865  29.027   7.401   4.647
30203W        W91866   7.395  30.572  11.500
30204W        W91867  34.534   4.373   3.221
30205W        W91868  23.607  38.912  12.420
30206W        W91869   3.944  36.396  12.434
30207W        W91870  41.848  21.202  11.986
30208W        W91871  16.101  18.634  10.607
30209W        W91872  24.704  28.560  14.884
30210W        W91873  10.754  21.540   3.851
30211W        W91874  15.246   9.671  12.056
30212W        W91875  32.547  22.574  11.053
30213W        W91876  30.644   1.835  12.487
30214W        W91877   3.453  14.703  11.087
30215W        W91878  44.764  25.183  11.539
30216W        W91879  34.115  27.041   4.742
30217W        W91880  24.139   2.810   1.747
30218W        W91881  24.203  11.342  13.424
30219W        W91882   3.928  31.617   0.944
30220W        W91883  40.858  11.331   1.291
30221W        W91884   0.911  16.611   4.818
30222W        W91885  17.272  42.428   2.703
30223W        W91886  41.887  21.748   3.766
30224W        W91887   3.845   4.260   3.698
30225W        W91888  36.430  44.388   1.726
30226W        W91889  39.935  26.592  13.013
30227W        W91890   6.762   1.898   1.269
30228W        W91891  42.432  43.380   0.453
30229W        W91892   0.919  30.473  13.987
30230W        W91893   3.727  38.371  13.882
30231W        W91894  26.134  27.047   4.209
30232W        W91895   1.749  19.200  11.603
30233W        W91896  17.591   8.718  10.464
30234W        W91897   1.242   8.242  14.427
30235W        W91898  18.695  20.108   1.863
30236W        W91899   7.300  31.521  13.467
30237W        W91900  27.954  15.248   3.761
30238W        W91901  29.578  31.090  14.793
30239W        W91902  27.095  30.458  14.486
30240W        W91903  18.707   6.698   3.693
30241W        W91904  35.880  20.059  12.366
30242W        W91905  36.093  11.367  14.882
30243W        W91906  22.600  17.709   0.911
30244W        W91907  23.055  13.737  11.080
30245W        W91908  35.011  42.412  14.414
30246W        W91909  22.505  39.881  13.880
30247W        W91910  14.179  10.218   3.791
30248W        W91911  40.466  17.657   0.809
30249W        W91912  36.488  12.842  10.460
30250W        W91913   1.358  20.172  13.008
30251W        W91914  33.548  42.916  12.441
30252W        W91915   0.888  23.988  10.900
30253W        W91916  18.249  24.605  11.495
30254W        W91917   2.241  37.564   0.356
30255W        W91918  44.891  24.015  12.365
30256W        W91919  38.019   6.380   2.310
30257W        W91920  20.638   6.921  12.975
30258W        W91921  10.664  28.484  12.409
30259W        W91922  35.936  12.654  11.021
30260W        W91923  14.256  37.035  13.417
30261W        W91924  12.725   2.955  10.535
30262W        W91925  44.816   2.333   0.308
30263W        W91926  17.589  13.118   3.633
30264W        W91927  39.905  43.297   1.710
30265W        W91928  41.980  43.830   1.419
30266W        W91929  40.374  20.108   1.286
30267W        W91930  27.960   6.267  11.042
30268W        W91931  23.085  10.716  10.525
30269W        W91932  16.312  20.142  13.521
30270W        W91933  28.040   4.332   2.860
30271W        W91934   4.270  40.933  12.059
30272W        W91935   9.771   0.941   1.916
30273W        W91936   9.249  20.755   3.298
30274W        W91937  15.151  33.082  10.638
30275W        W91938  42.861  11.217   2.798
30276W        W91939  37.059   8.692  13.428
30277W        W91940  12.815  26.146   1.921
30278W        W91941  13.210  41.042  10.633
30279W        W91942   0.857  32.535   1.448
30280W        W91943  43.947   5.386  10.521
30281W        W91944  32.029  22.674   0.346
30282W        W91945  38.013  25.132   2.273
30283W        W91946  23.626  19.711   1.243
30284W        W91947   5.737  39.371  14.844
30285W        W91948  27.560  43.912  13.996
30286W        W91949  38.484   2.858   3.238
30287W        W91950  22.100   1.450  14.937
30288W        W91951  32.528  30.080   1.428
30289W        W91952  22.690   7.357  13.814
30290W        W91953  16.797   3.219   1.432
30291W        W91954   7.313  35.566  14.019
30292W        W91955  44.438   8.286  13.987
30293W        W91956  12.677  25.537   3.297
30294W        W91957  37.553  36.869  13.358
30295W        W91958  36.092  25.016   3.339
30296W        W91959  41.453  19.603   3.868
30297W        W91960  38.067  38.035  12.838
30298W        W91961  14.322   9.299  12.529
30299W        W91962   0.413  38.343   0.902
30300W        W91963  42.783  25.010   2.759
30301W        W91964  32.539  13.179  14.968
30302W        W91965  23.179  38.830   3.264
30303W        W91966  11.681  25.606   1.935
30304W        W91967  38.538  35.010  14.836
30305W        W91968  34.884  35.584  10.889
30306W        W91969   9.726  34.573  13.035
30307W        W91970  18.580  37.563   1.245
30308W        W91971   1.872   8.291  11.458
30309W        W91972   2.395  31.600  14.346
30310W        W91973   7.793   6.312  12.994
30311W        W91974  16.135  27.015   0.912
30312W        W91975  25.010  29.507   1.214
30313W        W91976  24.553  32.042  14.361
30314W        W91977  14.100  23.665  13.800
30315W        W91978  16.741  17.122  14.315
30316W        W91979  16.633  34.993   0.393
30317W        W91980  43.332  24.700   0.327
30318W        W91981   0.347  26.150   3.783
30319W        W91982  12.179  19.139   4.185
30320W        W91983  32.469  29.511  11.565
30321W        W91984  11.135  43.844  11.093
30322W        W91985  15.183  26.479   3.303
30323W        W91986  40.441  13.202   4.242
30324W        W91987  29.128  29.452  14.768
30325W        W91988   2.384  37.907   0.944
30326W        W91989  13.838   7.366  13.038
30327W        W91990  16.269   8.169  14.314
30328W        W91991  30.042   9.327   0.404
30329W        W91992  28.636  22.619  13.903
30330W        W91993   7.874  14.662  14.843
30331W        W91994   4.344  26.096  13.867
30332W        W91995  36.079  13.224   3.165
30333W        W91996  31.496   8.768   4.829
30334W        W91997  14.137  44.007  12.995
30335W        W91998  22.098  31.107  11.431
30336W        W91999  28.478   8.863  11.006
30337W        W92000  28.661  40.991   1.887
30338W        W92001   6.905  29.053  10.467
30339W        W92002  12.187  23.064  11.861
30340W        W92003   6.259  10.288   1.739
30341W        W92004  13.757  35.061  11.606
30342W        W92005  16.761   6.332   3.689
30343W        W92006  21.259  12.696   5.096
30344W        W92007  35.378  28.050   0.794
30345W        W92008  42.352  43.800  14.029
30346W        W92009  12.629  28.058   4.762
30347W        W92010  41.808  25.583   1.695
30348W        W92011  39.432  15.322  12.379
30349W        W92012   9.347   8.221  12.506
30350W        W92013   5.357  15.246  10.905
30351W        W92014  33.434  33.004   3.666
30352W        W92015  17.170  10.780   2.680
30353W        W92016  37.484  21.675   4.652
30354W        W92017   0.293  37.837   1.411
30355W        W92018   8.397  32.013  12.034
30356W        W92019  32.015  14.639   3.797
30357W        W92020  27.963  14.294  11.057
30358W        W92021  18.761  25.487   4.145
30359W        W92022  22.534   4.742   9.949
30360W        W92023  24.157  32.539  12.966
30361W        W92024  12.116  14.656   4.740
30362W        W92025   2.447  34.025  12.444
30363W        W92026  18.646   0.831   2.768
30364W        W92027  43.420  35.970  14.763
30365W        W92028  33.080  35.860  11.504
30366W        W92029  15.121  29.101   3.162
30367W        W92030   0.488  17.135   1.299
30368W        W92031  41.328   7.203   9.949
30369W        W92032  31.424   1.894  13.350
30370W        W92033  43.379  39.872   1.830
30371W        W92034   0.850  39.041  12.568
30372W        W92035  32.117  24.639   0.396
30373W        W92036  37.421  16.793  11.549
30374W        W92037   8.198  20.649   0.309
30375W        W92038  16.571  20.217  11.500
30376W        W92039   2.892  10.877   0.299
30377W        W92040  37.916  13.181  14.460
30378W        W92041  14.140   4.932   4.296
30379W        W92042  20.055  24.040  10.418
30380W        W92043  18.267   1.310   0.880
30381W        W92044  42.929  18.138   1.425
30382W        W92045  15.659  44.828   0.325
30383W        W92046  20.167  15.643  13.357
30384W        W92047  33.613  27.040  14.344
30385W        W92048   9.656  25.710  14.980
30386W        W92049   0.491  15.726  11.984
30387W        W92050   1.760  27.617  12.954
30388W        W92051  42.944  17.274  10.046
30389W        W92052   8.668  38.366   0.464
30390W        W92053   7.298  18.595   3.781
30391W        W92054  17.565  14.144  13.063
30392W        W92055   5.367  25.577   0.786
30393W        W92056  37.470  38.567  12.053
30394W        W92057  41.460   3.772  14.366
30395W        W92058   5.845  36.933   2.744
30396W        W92059  13.253  21.117   2.671
30397W        W92060   6.371   8.393  10.604
30398W        W92061  14.710  25.671   3.656
30399W        W92062   2.739  21.640   0.260
30400W        W92063  33.015  13.818  12.440
30401W        W92064  39.388  24.079   2.702
30402W        W92065  25.196   8.344   0.950
30403W        W92066  20.731  31.498   0.844
30404W        W92067  38.036  27.629  10.541
30405W        W92068  44.777  18.134   0.469
30406W        W92069  36.851  19.572   1.899
30407W        W92070   6.244  34.038  14.403
30408W        W92071  27.631  40.906   0.753
30409W        W92072  40.302  20.589   3.684
30410W        W92073   1.451  27.678  13.927
30411W        W92074  32.570  12.648   0.940
30412W        W92075  22.167  27.457   1.778
30413W        W92076  17.061  34.417  10.957
30414W        W92077   5.354   7.763  13.369
30415W        W92078  24.068   2.897   2.282
30416W        W92079  38.819  13.174   2.805
30417W        W92080  21.116  25.999   5.271
30418W        W92081  43.441  29.038   0.849
30419W        W92082   2.835  30.018   0.956
30420W        W92083  39.881  21.179  13.961
30421W        W92084  20.152  35.999   3.672
30422W        W92085  16.073  41.818  14.016
30423W        W92086  38.049  10.209   3.635
30424W        W92087  11.711   5.388   2.314
30425W        W92088  17.301  23.239   0.813
30426W        W92089  35.554  18.262   1.928
30427W        W92090  36.902   0.912  10.923
30428W        W92091   4.249  15.266   0.741
30429W        W92092   8.829  10.305  11.572
30430W        W92093  37.877  23.098   3.801
30431W        W92094  30.626  17.217  10.406
30432W        W92095  39.876  16.305   2.865
30433W        W92096   7.254  13.163  13.491
30434W        W92097   4.390   4.266   1.867
30435W        W92098  36.049  36.459  11.581
30436W        W92099  17.686  11.835  13.476
30437W        W92100  25.179   9.819   2.200
30438W        W92101  38.994  19.647   1.350
30439W        W92102   6.268  32.103  11.027
30440W        W92103  12.303  28.988  11.441
30441W        W92104  32.503  32.558   3.194
30442W        W92105  33.913  40.421  12.072
30443W        W92106  15.656  29.929  12.957
30444W        W92107  26.698   1.928   1.878
30445W        W92108  27.667  25.218   3.642
30446W        W92109  27.014  11.834   3.745
30447W        W92110  38.057  35.388  10.955
30448W        W92111  39.553   7.745  10.521
30449W        W92112   7.890  28.177   1.244
30450W        W92113   2.444  41.468  10.898
30451W        W92114  28.079  15.774   9.925
30452W        W92115  31.588  15.738   2.828
30453W        W92116  21.639  14.753   2.845
30454W        W92117   9.738   7.674   0.425
30455W        W92118   3.789   0.887  10.941
30456W        W92119  42.469  12.311   2.876
30457W        W92120  19.769  24.073  11.024
30458W        W92121  18.577  19.751   3.712
30459W        W92122  21.130   1.747  12.049
30460W        W92123  25.632  39.418   4.816
30461W        W92124  10.203  43.783   3.860
30462W        W92125  35.543  11.769   3.304
30463W        W92126  31.128  30.564  13.360
30464W        W92127  12.229  30.487   2.274
30465W        W92128  44.363  27.958  10.993
30466W        W92129  40.968  20.165   3.711
30467W        W92130  37.372  14.767  13.948
30468W        W92131  17.578  20.625  14.962
30469W        W92132  24.013  22.733   2.814
30470W        W92133  34.105  29.443  12.845
30471W        W92134   6.751  20.266  12.453
30472W        W92135   7.713  39.033   3.722
30473W        W92136  14.766  40.535  13.322
30474W        W92137  43.472  43.340   3.796
30475W        W92138  25.010  37.945  14.305
30476W        W92139  40.898  14.755   1.919
30477W        W92140   9.395  18.154   4.749
30478W        W92141  11.215  37.373  13.033
30479W        W92142  25.551  19.217   1.805
30480W        W92143  36.555   1.353   1.785
30481W        W92144   8.675  23.552  12.422
30482W        W92145  36.889  23.037  14.353
30483W        W92146  19.561  13.221   0.474
30484W        W92147  25.662  12.297  12.404
30485W        W92148  21.238  35.962  14.011
30486W        W92149   7.330   1.444   2.374
30487W        W92150   1.401  36.034   3.791
30488W        W92151  31.557  18.252   2.315
30489W        W92152  36.570  18.761  12.483
30490W        W92153  22.520  34.503   0.915
30491W        W92154   4.300   3.955  14.496
30492W        W92155  39.508  41.872  11.555
30493W        W92156   1.776   6.408  12.083
30494W        W92157  21.702  36.013  13.528
30495W        W92158   8.697  40.909  11.525
30496W        W92159  31.546  39.420   3.643
30497W        W92160  36.553   5.269   2.332
30498W        W92161   6.333  42.466  13.842
30499W        W92162  34.458  44.816  11.089
30500W        W92163  20.102  16.208   1.259
30501W        W92164  21.713   3.223  13.039
30502W        W92165   2.759  18.676  13.819
30503W        W92166  40.531  39.017   5.117
30504W        W92167  30.494  36.404  14.296
30505W        W92168  20.712  16.277   4.795
30506W        W92169  31.983   3.908   0.826
30507W        W92170  29.105  26.989   2.678
30508W        W92171  43.275  44.299   0.899
30509W        W92172  17.737  34.969  10.449
30510W        W92173  21.556   7.251   4.795
30511W        W92174  31.507  36.869   4.276
30512W        W92175   9.654  36.448   2.283
30513W        W92176  23.559  16.743  13.008
30514W        W92177  41.820   9.178   0.255
30515W        W92178  13.662  37.878   0.272
30516W        W92179  43.489  22.668  10.595
30517W        W92180  31.001  29.129   5.305
30518W        W92181  35.578  10.686   4.325
30519W        W92182  36.056  39.540   1.440
30520W        W92183  12.128  44.316   1.916
30521W        W92184  41.041  14.202   1.231
30522W        W92185  27.109  17.193  11.111
30523W        W92186  14.770  28.442  12.483
30524W        W92187   3.723   3.811  13.539
30525W        W92188  11.295  15.666  11.956
30526W        W92189  16.278  32.100   3.295
30527W        W92190  23.078  34.902   1.347
30528W        W92191  33.538  44.790   2.352
30529W        W92192   2.762  41.392  11.881
30530W        W92193   3.875  22.148   2.265
30531W        W92194  34.524   8.678   1.346
30532W        W92195  19.040  23.493  14.480
30533W        W92196   4.393   1.380   0.249
30534W        W92197  42.468  11.819   5.212
30535W        W92198  31.995  17.134  14.450
30536W        W92199  23.544  27.043   2.801
30537W        W92200  30.564  24.005  14.812
30538W        W92201  29.928  20.249   9.559
30539W        W92202  43.859  13.275   9.994
30540W        W92203   4.874  41.933   4.685
30541W        W92204  38.524  26.128  13.482
30542W        W92205  34.462  38.381  13.503
30543W        W92206  35.989  22.151  12.570
30544W        W92207  32.479  30.115  11.047
30545W        W92208  24.145  31.027  10.607
30546W        W92209  31.896  43.414   1.706
30547W        W92210  12.691  30.425  11.415
30548W        W92211  39.943  29.120   2.780
30549W        W92212  38.855   0.282  13.908
30550W        W92213   1.957  15.619   1.285
30551W        W92214  44.411   0.417  11.408
30552W        W92215   1.940   3.864   2.204
30553W        W92216  30.987  31.144   4.837
30554W        W92217   3.241  19.654  14.306
30555W        W92218  36.404  32.909   3.309
30556W        W92219  32.071   4.721   1.404
30557W        W92220  43.295  28.436   1.273
30558W        W92221  19.205  41.318  12.956
30559W        W92222  12.827  37.410   3.220
30560W        W92223  11.162  12.318  12.409
30561W        W92224   3.886  25.024   2.247
30562W        W92225  25.640   7.707   1.900
30563W        W92226   6.685  35.569   3.821
30564W        W92227  34.054  18.685   4.242
30565W        W92228   0.841  32.458  12.845
30566W        W92229  31.549   4.233   3.771
30567W        W92230  35.439  43.379   4.161
30568W        W92231   4.346  43.474   3.702
30569W        W92232  20.040  19.622  13.938
30570W        W92233  30.061   9.868  14.401
30571W        W92234  44.812  43.004  10.442
30572W        W92235  25.692  15.603   4.838
30573W        W92236  22.128   4.790  10.435
30574W        W92237  12.818  44.987  14.499
30575W        W92238   2.467   6.866  13.328
30576W        W92239  37.989  43.918  14.306
30577W        W92240  29.443  40.456   1.903
30578W        W92241  22.610  31.460   3.707
30579W        W92242  32.471  14.708  11.951
30580W        W92243  10.845  18.781   4.817
30581W        W92244   6.375  34.558   1.342
30582W        W92245  31.423  36.004   2.823
30583W        W92246   1.398  16.287  14.426
30584W        W92247  36.563  11.750   3.235
30585W        W92248  10.214  19.554  13.372
30586W        W92249  19.183  31.543   3.766
30587W        W92250   9.307  16.292   1.274
30588W        W92251   3.315  33.623  11.569
30589W        W92252   0.355  25.102   3.206
30590W        W92253   1.459  19.533  13.420
30591W        W92254  14.647   4.725  10.077
30592W        W92255  32.122  34.889   2.892
30593W        W92256   8.191  10.206   4.829
30594W        W92257   5.318  12.180   0.955
30595W        W92258  20.568   5.921   0.770
30596W        W92259  34.578   9.384  13.841
30597W        W92260  17.137   0.371  10.916
30598W        W92261  33.040  15.182  12.495
30599W        W92262  40.855  44.954   0.266
30600W        W92263  42.373  15.277   1.280
30601W        W92264  30.576   2.787   1.843
30602W        W92265   0.746   3.893   0.441
30603W        W92266  13.675  21.640  10.933
30604W        W92267   9.696   3.419   3.632
30605W        W92268   5.905  14.233   2.304
30606W        W92269  35.411   1.863   1.878
30607W        W92270  32.988  18.075   4.258
30608W        W92271  26.106  14.811   3.726
30609W        W92272  34.067  22.645  10.075
30610W        W92273  30.431  32.459   3.636
30611W        W92274  40.393  39.393   2.202
30612W        W92275  37.337  14.326  14.822
30613W        W92276  15.312   7.685   0.842
30614W        W92277   6.802  44.451   0.858
30615W        W92278  35.106  25.021   1.721
30616W        W92279  41.798   4.220   0.437
30617W        W92280   7.363  21.228   2.689
30618W        W92281   9.382   5.434   0.284
30619W        W92282  20.712   3.810  12.053
30620W        W92283  12.650  41.026  11.490
30621W        W92284  44.977  40.979   1.772
30622W        W92285   6.371  21.060   3.801
30623W        W92286  20.194   1.313   2.242
30624W        W92287   9.206  38.461   3.744
30625W        W92288   7.251  27.066  11.503
30626W        W92289  21.078  30.490   1.789
30627W        W92290  31.979  14.156   2.190
30628W        W92291  23.011  20.598   4.712
30629W        W92292  22.092  24.194   1.313
30630W        W92293  37.845  17.210  10.479
30631W        W92294  30.617  14.757   4.239
30632W        W92295  33.455  36.068   3.713
30633W        W92296   8.892  41.445   0.928
30634W        W92297  37.970  27.195   3.739
30635W        W92298  33.967  30.494  11.466
30636W        W92299  24.653  25.611  14.350
30637W        W92300  25.216   8.258   4.756
30638W        W92301  25.632  20.177  12.399
30639W        W92302  31.080   0.253   4.187
30640W        W92303   9.688  12.263  12.019
30641W        W92304  41.931  35.096   1.907
30642W        W92305  35.938  23.154  13.317
30643W        W92306  20.168  23.187  13.897
30644W        W92307  38.987  13.224   2.194
30645W        W92308  20.566   8.832   3.635
30646W        W92309  41.992  29.159   2.669
30647W        W92310  15.279  37.833  12.461
30648W        W92311  22.042  25.469   2.729
30649W        W92312  20.089   8.752   1.771
30650W        W92313  19.191  25.698  12.575
30651W        W92314  40.053  35.594   4.298
30652W        W92315   0.410   9.202   4.631
30653W        W92316  33.585  43.473   0.350
30654W        W92317  34.990  18.280   4.139
30655W        W92318  23.620  29.456  14.287
30656W        W92319  20.567  30.954   3.231
30657W        W92320  29.660  41.803   3.342
30658W        W92321   7.217  28.166   1.925
30659W        W92322  24.081  23.119  13.993
30660W        W92323  30.478  36.398  11.518
30661W        W92324  25.573   2.918  13.348
30662W        W92325  36.018  21.233   4.131
30663W        W92326   5.387  15.777  14.491
30664W        W92327   7.803  15.822  10.144
30665W        W92328   3.233  24.197  12.047
30666W        W92329  43.785  12.838   3.150
30667W        W92330  29.076  27.037   4.671
30668W        W92331  13.225  18.117  14.312
30669W        W92332  24.014   2.918  12.918
30670W        W92333   3.426   0.307  14.005
30671W        W92334   5.411  13.745   2.828
30672W        W92335  44.862   7.411  14.989
30673W        W92336   9.839  29.603  13.418
30674W        W92337  13.666  20.577   2.207
30675W        W92338  17.778  12.284  10.478
30676W        W92339   4.922  22.162  13.383
30677W        W92340  25.081  15.662  12.839
30678W        W92341  31.551  21.734  11.001
30679W        W92342  12.811   4.321  13.806
30680W        W92343  14.148  10.345  13.048
30681W        W92344   5.828  28.056  14.321
30682W        W92345  32.890   2.786  10.614
30683W        W92346  13.172  35.068  12.380
30684W        W92347  41.989  35.361   1.359
30685W        W92348   1.257   5.416   0.418
30686W        W92349  37.478   7.759  14.789
30687W        W92350  28.157   6.294   4.335
30688W        W92351  20.587  41.888  11.573
30689W        W92352  31.961  33.053  13.808
30690W        W92353   3.455  36.590   0.423
30691W        W92354  31.638  16.803   2.673
30692W        W92355  30.153  34.402   0.275
30693W        W92356  40.479  43.367   4.686
30694W        W92357  32.549   2.431  13.315
30695W        W92358  14.713  27.485   4.638
30696W        W92359  35.369  36.509   2.732
30697W        W92360  41.843  16.273  14.905
30698W        W92361  20.133  22.018  12.966
30699W        W92362   0.431  42.508   1.294
30700W        W92363  26.515  40.361  13.000
30701W        W92364  33.412  20.639   1.898
30702W        W92365  16.662  41.388   1.389
30703W        W92366  33.511  22.569  10.011
30704W        W92367  17.732  17.171  13.917
30705W        W92368   1.743  31.929  12.828
30706W        W92369  39.456  43.492   1.286
30707W        W92370  30.962  12.648  14.954
30708W        W92371  16.279  19.274   2.666
30709W        W92372  23.043   2.448  11.928
30710W        W92373  26.556   0.852   3.157
30711W        W92374   1.334  42.820   3.314
30712W        W92375   7.385   5.690  11.412
30713W        W92376  18.231  25.487  13.448
30714W        W92377   8.662  23.566  11.126
30715W        W92378  11.294   5.848   5.290
30716W        W92379  17.086   9.818   2.859
30717W        W92380  18.785  32.398  14.310
30718W        W92381  38.060  43.490  12.565
30719W        W92382   0.425  37.890   0.761
30720W        W92383  19.768  15.129   0.786
30721W        W92384  39.536  15.147   3.801
30722W        W92385  33.498  36.461  14.015
30723W        W92386  40.017  44.271   4.188
30724W        W92387  19.236  18.656   1.293
30725W        W92388  41.464  44.987   1.904
30726W        W92389  20.588   0.417  12.924
30727W        W92390  22.187  15.231  14.968
30728W        W92391   3.831  11.798   1.244
30729W        W92392   8.405  22.041  14.915
30730W        W92393   4.450   8.290  13.531
30731W        W92394   0.902  23.005   2.404
30732W        W92395  14.220  26.003  12.872
30733W        W92396  19.568  17.756  11.433
30734W        W92397  32.974  34.581   0.294
30735W        W92398  12.174  44.011  10.452
30736W        W92399  24.634  36.984   4.837
30737W        W92400  43.429   9.325   5.151
30738W        W92401  44.296  33.609   3.353
30739W        W92402  42.388  27.063   3.369
30740W        W92403   7.402  38.406  13.945
30741W        W92404  12.691  17.244  13.510
30742W        W92405   2.305  30.067   3.699
30743W        W92406  25.205  36.380  10.441
30744W        W92407  11.283   9.672  14.992
30745W        W92408   6.735  34.010  10.590
30746W        W92409  44.941   3.397  14.941
30747W        W92410   9.342  12.298  14.857
30748W        W92411  23.119   8.168   2.708
30749W        W92412  29.026  40.980   4.653
30750W        W92413  27.156  20.142  12.356
30751W        W92414  15.283  15.638  14.844
30752W        W92415  38.428  39.942   2.393
30753W        W92416  31.923  37.071  14.447
30754W        W92417  21.042  18.599   1.313
30755W        W92418  31.509  14.707   3.656
30756W        W92419  12.209   8.768   0.946
30757W        W92420  33.986  28.996   4.327
30758W        W92421  41.024  17.143  12.079
30759W        W92422   1.343  18.762   1.406
30760W        W92423  31.587  35.024  14.820
30761W        W92424  13.174   5.754  14.446
30762W        W92425  20.194   1.921  11.885
30763W        W92426  20.266  35.903   3.147
30764W        W92427  42.340  44.831   1.698
30765W        W92428  37.031  25.704  14.814
30766W        W92429  36.574  26.496   4.345
30767W        W92430  17.654  26.967   3.812
30768W        W92431  28.525   1.341  14.479
30769W        W92432  20.209  22.180   3.806
30770W        W92433  14.285  34.543  11.966
30771W        W92434  37.458   6.264  10.937
30772W        W92435  14.151  34.061   2.236
30773W        W92436  24.983   4.823  13.896
30774W        W92437   7.271  30.042  11.002
30775W        W92438   5.273  38.372   4.209
30776W        W92439  43.932  21.613   1.915
30777W        W92440   5.315  24.519   3.221
30778W        W92441  31.413  42.428  13.939
30779W        W92442  11.135   7.864   0.460
30780W        W92443  26.658  23.646   2.852
30781W        W92444  39.027  28.534   2.726
30782W        W92445   6.762  25.549  13.316
30783W        W92446  42.022  18.755  14.820
30784W        W92447   4.205  21.733  13.920
30785W        W92448  39.339  36.586  14.469
30786W        W92449   2.906  11.213   3.703
30787W        W92450   0.383  36.548  14.379
30788W        W92451  16.087  14.188  13.041
30789W        W92452   0.787  26.657  12.519
30790W        W92453  38.898  42.938   1.886
30791W        W92454  38.548   2.308  10.644
30792W        W92455  15.297  30.586  11.016
30793W        W92456  31.103  12.762  12.981
30794W        W92457  11.673  14.291  11.506
30795W        W92458  11.301  33.415   0.442
30796W        W92459   9.772  23.107  10.410
30797W        W92460  25.219  31.511   4.335
30798W        W92461  13.633  33.098  12.373
30799W        W92462  28.465   7.779   0.452
30800W        W92463  43.390   7.295  10.912
30801W        W92464  39.811  13.780   9.592
30802W        W92465  24.555  27.629   2.883
30803W        W92466  14.728  11.370  14.995
30804W        W92467   5.739  15.144   4.186
30805W        W92468   9.349  11.321  11.506
30806W        W92469  10.851   5.414  14.983
30807W        W92470  23.563  24.043  11.392
30808W        W92471  41.419  31.600   3.706
30809W        W92472  40.951  37.565  11.083
30810W        W92473  14.682  27.071  12.839
30811W        W92474   5.379  20.763   0.270
30812W        W92475  36.446  30.484   4.226
30813W        W92476   4.725  14.324   1.216
30814W        W92477  14.640  31.507  10.441
30815W        W92478  17.186  26.681   2.902
30816W        W92479  28.081  21.709   4.315
30817W        W92480   5.430  35.375  13.805
30818W        W92481  40.528  22.723  10.144
30819W        W92482  14.787  11.287  12.579
30820W        W92483  36.082  36.543  12.464
30821W        W92484  10.331  35.471  14.991
30822W        W92485  19.256  21.034  14.856
30823W        W92486   4.788  37.068  11.495
30824W        W92487   1.434  41.380   4.282
30825W        W92488  21.737  18.222   3.820
30826W        W92489  34.868   3.309  14.826
30827W        W92490  24.172  24.020   5.121
30828W        W92491   2.381  14.752   1.323
30829W        W92492   1.842  32.025   4.204
30830W        W92493  20.240  18.760   3.341
30831W        W92494  35.057  21.605  10.147
30832W        W92495  30.074  37.977  11.478
30833W        W92496  33.005  42.295  11.414
30834W        W92497  32.013  19.744   4.256
30835W        W92498  35.990  35.503  11.105
30836W        W92499  10.635  24.104   4.322
30837W        W92500  34.903  27.620  13.934
30838W        W92501  18.251  41.873  12.838
30839W        W92502  38.885  24.483   0.310
30840W        W92503  38.835  32.500   3.235
30841W        W92504   0.949  15.595   3.826
30842W        W92505  22.152  38.420  10.611
30843W        W92506   3.282  36.023   3.756
30844W        W92507  12.810   8.886  13.930
30845W        W92508  28.164  30.922  13.990
30846W        W92509  37.519  27.660  10.134
30847W        W92510  13.840  31.056  13.513
30848W        W92511   9.151  10.749  14.363
30849W        W92512   7.822   3.437   4.762
30850W        W92513  42.363   0.467  10.562
30851W        W92514  26.645  11.274   4.188
30852W        W92515  23.720  34.428  13.307
30853W        W92516  15.696  11.346  14.940
30854W        W92517  31.410  10.298   1.797
30855W        W92518  38.946   8.878   3.250
30856W        W92519  39.390  44.856   0.360
30857W        W92520  37.384  39.353   3.728
30858W        W92521  37.977  30.470   4.801
30859W        W92522  28.132  32.902  11.542
30860W        W92523  13.839  33.419  12.419
30861W        W92524  12.239   0.318   1.395
30862W        W92525   5.717  17.627  12.479
30863W        W92526  34.382  26.069  12.967
30864W        W92527  16.723  26.171  14.331
30865W        W92528   6.215   4.707  13.978
30866W        W92529  20.619  12.336   4.654
30867W        W92530  38.054  26.205  14.872
30868W        W92531  15.748  22.690  10.601
30869W        W92532  35.370  21.042  14.458
30870W        W92533   7.876  30.488   4.188
30871W        W92534  31.645   3.332  14.363
30872W        W92535  28.529  22.168   4.765
30873W        W92536  37.919   5.431   4.810
30874W        W92537  35.510   3.373  10.570
30875W        W92538   1.331   6.710  12.418
30876W        W92539  38.894  17.784   1.248
30877W        W92540  33.929  43.992  13.469
30878W        W92541  23.733  24.066   4.258
30879W        W92542  30.007   8.263   4.128
30880W        W92543  11.717  42.413  12.085
30881W        W92544  23.594  10.221   2.860
30882W        W92545   1.819   8.705   0.244
30883W        W92546  29.004   1.764  11.125
30884W        W92547  23.632  29.482  14.921
30885W        W92548  35.360  42.516  12.956
30886W        W92549  32.606  22.660   4.325
30887W        W92550   8.184  34.011  11.427
30888W        W92551  20.257  17.255   0.852
30889W        W92552  23.141  11.749  10.587
30890W        W92553   0.821   3.295   3.347
30891W        W92554  29.635   8.397   2.823
30892W        W92555  35.538  16.316  11.074
30893W        W92556  37.550  43.990  13.894
30894W        W92557  24.186  42.984   5.256
30895W        W92558  33.039  19.734  12.081
30896W        W92559  18.741  39.374  10.953
30897W        W92560  22.007  27.618   3.647
30898W        W92561  32.434   4.740  14.907
30899W        W92562  19.693  20.145  14.422
30900W        W92563  14.596  34.976  14.803
30901W        W92564   4.898  23.672   4.269
30902W        W92565   5.774  39.014   0.292
30903W        W92566  20.558  21.746  11.450
30904W        W92567  31.052   1.356   0.911
30905W        W92568  31.142  32.043   5.239
30906W        W92569  19.091  35.458   4.728
30907W        W92570  32.408   3.860  11.955
30908W        W92571  33.439  34.042  13.816
30909W        W92572  17.071  29.102  12.919
30910W        W92573   7.823  24.149   2.813
30911W        W92574  12.298  26.667   2.204
30912W        W92575  37.954  37.085  14.932
30913W        W92576  22.013  31.127  13.452
30914W        W92577  43.492  43.987   3.168
30915W        W92578  32.577  34.532   1.776
30916W        W92579  20.240  28.583   3.352
30917W        W92580  18.759  34.501   0.774
30918W        W92581  13.202   6.688  12.022
30919W        W92582  27.522  42.288  10.617
30920W        W92583  20.593   6.765   2.865
30921W        W92584  33.076  44.450   3.727
30922W        W92585   3.791  24.598   2.833
30923W        W92586  25.630  15.267  13.983
30924W        W92587  22.727  37.496  10.149
30925W        W92588   5.895  13.833   1.331
30926W        W92589  21.676  14.806   1.923
30927W        W92590  28.118  27.667  14.439
30928W        W92591   9.658  44.804  12.964
30929W        W92592  12.360  18.726  13.052
30930W        W92593  13.187  43.408   2.225
30931W        W92594  37.886  20.217   4.761
30932W        W92595   2.375   3.910  10.408
30933W        W92596  10.672  28.626   1.376
30934W        W92597  18.601  18.103  14.758
30935W        W92598  18.668  21.588   4.624
30936W        W92599  26.976  29.094   4.280
30937W        W92600  24.131  21.735   3.810
30938W        W92601  19.199   3.720  12.839
30939W        W92602  22.739  15.109   3.740
30940W        W92603  26.600   0.409   2.762
30941W        W92604  20.672  41.843   1.326
30942W        W92605  44.492   4.859   4.703
30943W        W92606   7.668  19.676  13.411
30944W        W92607  31.613  31.086   4.254
30945W        W92608  35.499  17.302  14.024
30946W        W92609  39.355  10.813  13.849
30947W        W92610  14.632   8.710   3.636
30948W        W92611  26.587  10.791  11.016
30949W        W92612  16.194   3.929  10.970
30950W        W92613  22.715  14.207   1.305
30951W        W92614  10.170   3.926  12.953
30952W        W92615  43.430  40.039  12.538
30953W        W92616  29.597  30.090  11.010
30954W        W92617  29.583  42.470  12.835
30955W        W92618  26.158  34.978   1.403
30956W        W92619  41.988   0.320   2.692
30957W        W92620  21.261   7.231   1.423
30958W        W92621  31.126  41.411   2.300
30959W        W92622  26.156  22.180  11.946
30960W        W92623  33.426  28.591   4.198
30961W        W92624  34.433  41.313   2.674
30962W        W92625  20.116  37.021  14.006
30963W        W92626  31.036  20.075   0.790
30964W        W92627  34.448   7.764   2.898
30965W        W92628  37.462  42.011  14.014
30966W        W92629  15.666  19.759  10.952
30967W        W92630  10.649  15.251   0.294
30968W        W92631   7.701  19.637   9.976
30969W        W92632  36.528   4.278   4.169
30970W        W92633  10.275   1.310   1.291
30971W        W92634  39.036  19.578   4.251
30972W        W92635  16.682  23.567  13.367
30973W        W92636   0.250  29.010   0.747
30974W        W92637  39.890  35.556   0.888
30975W        W92638  38.510  33.949  13.331
30976W        W92639  25.072  23.166   4.776
30977W        W92640  40.363  30.436  10.479
30978W        W92641   0.783  24.537  13.383
30979W        W92642  41.332  10.319   1.735
30980W        W92643   4.275   0.831  11.098
30981W        W92644  31.008  25.658  11.001
30982W        W92645  23.540   9.662  14.312
30983W        W92646   0.404  24.711   4.194
30984W        W92647  30.512   4.301  10.927
30985W        W92648  10.762  16.100   2.310
30986W        W92649   6.390  29.139   0.925
30987W        W92650   1.732   5.304  13.990
30988W        W92651  20.678  27.101   1.310
30989W        W92652  29.533  32.913   1.440
30990W        W92653  15.700  13.655   2.211
30991W        W92654   4.834  12.310  13.379
30992W        W92655  25.071  28.513  13.984
30993W        W92656  26.086  22.503  13.484
30994W        W92657  18.188  26.139   3.369
30995W        W92658  18.557  25.698  11.009
30996W        W92659  40.875  33.519  13.994
30997W        W92660  23.184  30.521  10.552
30998W        W92661  10.264   6.251  12.553
30999W        W92662  11.353  23.685  12.360
31000W        W92663  34.973  12.636   1.287
31001W        W92664   3.951   2.417  10.536
31002W        W92665   6.727   1.258   3.254
31003W        W92666  39.502  44.857  11.953
31004W        W92667  20.049  43.932  11.060
31005W        W92668   7.211   2.826  14.344
31006W        W92669  31.019   8.379   1.364
31007W        W92670   4.343  27.523  13.529
31008W        W92671  21.547  44.343  10.012
31009W        W92672  18.178  37.464   0.259
31010W        W92673  42.398  41.413   3.658
31011W        W92674  33.593  10.868  14.874
31012W        W92675  34.422  26.128  10.941
31013W        W92676  18.772  38.466  12.531
31014W        W92677  38.341  41.999   0.961
31015W        W92678  44.799  34.460  14.364
31016W        W92679  28.506  25.702   1.796
31017W        W92680  21.119  12.233   0.932
31018W        W92681  12.692   9.219  13.875
31019W        W92682  14.741   1.331  14.989
31020W        W92683  39.996   5.796  12.340
31021W        W92684  22.585   7.172  14.761
31022W        W92685  29.122  42.286  11.113
31023W        W92686  40.514  34.864  14.474
31024W        W92687  10.768   3.253  13.423
31025W        W92688  11.786   7.242   0.426
31026W        W92689   7.883  43.879   3.244
31027W        W92690  12.661  39.494   1.270
31028W        W92691  22.207  31.589   1.258
31029W        W92692  12.264  31.559  14.902
31030W        W92693  28.011  16.684   0.286
31031W        W92694   9.647  25.963  11.126
31032W        W92695  17.230   4.913  13.443
31033W        W92696  30.508  40.916  12.564
31034W        W92697  36.512  40.908   3.233
31035W        W92698  19.624  39.493   4.207
31036W        W92699  24.643  20.260  14.316
31037W        W92700  39.997  18.695  12.035
31038W        W92701  24.714  10.147  12.054
31039W        W92702  37.055  18.201  13.459
31040W        W92703   2.416  19.058   3.749
31041W        W92704  26.991  32.061   3.260
31042W        W92705  16.287  12.275  14.905
31043W        W92706  24.032  28.439   0.853
31044W        W92707  13.608  11.671   1.878
31045W        W92708   1.871   0.345   4.318
31046W        W92709  17.642  24.224  12.345
31047W        W92710  13.680  15.602  14.873
31048W        W92711  11.274  17.113   2.669
31049W        W92712  39.912  29.099  12.880
31050W        W92713  19.539  18.667  14.449
31051W        W92714   9.363  24.073  12.034
31052W        W92715  35.029  32.537   3.856
31053W        W92716  42.515  12.693  14.331
31054W        W92717   6.251  15.630  10.140
31055W        W92718  13.694  10.812  12.946
31056W        W92719  19.592  44.337   5.190
31057W        W92720  31.071   1.946   1.901
31058W        W92721  37.472  33.437   2.811
31059W        W92722   3.252  30.579  12.906
31060W        W92723  11.293  26.965  11.104
31061W        W92724  22.999  17.283  12.882
31062W        W92725   6.827   0.428   3.634
31063W        W92726  11.302   2.750   0.916
31064W        W92727   7.740  21.182   3.383
31065W        W92728   8.257  22.207  11.084
31066W        W92729  31.096  31.495  10.602
31067W        W92730  42.519  26.061  14.979
31068W        W92731  29.039  11.773   3.801
31069W        W92732  10.819  21.628  10.630
31070W        W92733  35.458  43.495   3.278
31071W        W92734  15.804   3.778   2.365
31072W        W92735  35.462  38.487  11.596
31073W        W92736  29.491  22.607   0.384
31074W        W92737  27.535   5.297   0.915
31075W        W92738  26.601  12.264   0.273
31076W        W92739  17.788   8.287  13.384
31077W        W92740  19.613  36.580  14.840
31078W        W92741  19.283  10.729   0.299
31079W        W92742   9.200  41.792  14.281
31080W        W92743  32.035  39.827  12.528
31081W        W92744   2.451   8.224   0.727
31082W        W92745  23.102   0.280  13.496
31083W        W92746  41.529   4.259  12.032
31084W        W92747  36.005  13.739  10.565
31085W        W92748  10.771  17.085   0.907
31086W        W92749  22.050  14.253  12.513
31087W        W92750  34.902   2.732   0.935
31088W        W92751  22.059   4.264  12.843
31089W        W92752  11.851  44.352   9.960
31090W        W92753  37.347   1.327  14.308
31091W        W92754  16.783  33.130   4.736
31092W        W92755  33.111  36.923   1.710
31093W        W92756  17.178   1.380  12.090
31094W        W92757  11.306  34.978  10.911
31095W        W92758  20.057  13.635   1.426
31096W        W92759   3.305  12.823   1.719
31097W        W92760  11.307  40.035   4.770
31098W        W92761  35.408  34.581   0.317
31099W        W92762  27.688  21.147   4.692
31100W        W92763  39.483   8.806  10.550
31101W        W92764  29.020  11.752  14.386
31102W        W92765  24.525   2.911   1.885
31103W        W92766  31.528  27.040   0.323
31104W        W92767  25.125  34.046   0.319
31105W        W92768  19.593   6.771  13.948
31106W        W92769   3.740  40.427  13.359
31107W        W92770  35.448  36.576  13.540
31108W        W92771  11.178   0.801   2.891
31109W        W92772  40.967   3.421   5.221
31110W        W92773  16.194  34.083  11.084
31111W        W92774  25.498  29.997   0.817
31112W        W92775  18.759  40.845   2.808
31113W        W92776   2.853  41.458   1.791
31114W        W92777   5.924  29.996  12.512
31115W        W92778  21.629  23.635   9.550
31116W        W92779  43.475  23.115   2.708
31117W        W92780   7.371  32.906  13.858
31118W        W92781   0.878  30.049   4.292
31119W        W92782  20.546  12.804   4.266
31120W        W92783  25.182  29.591   0.961
31121W        W92784  33.541   5.330   3.637
31122W        W92785  18.239   6.418  12.876
31123W        W92786  12.223  32.505   3.739
31124W        W92787  31.597  21.576  13.027
31125W        W92788  20.613  18.742  10.425
31126W        W92789  10.732  43.923  11.501
31127W        W92790  15.819  10.851  13.376
31128W        W92791  20.597   1.972   4.255
31129W        W92792  16.659  43.806  13.039
31130W        W92793  13.660  43.325   3.721
31131W        W92794  19.107   5.860   3.763
31132W        W92795  37.928  12.615  11.423
31133W        W92796  15.205   6.825  14.766
31134W        W92797  30.912  35.388  10.897
31135W        W92798  20.162  40.845   3.256
31136W        W92799  38.844  35.948   0.932
31137W        W92800  22.567  27.629  10.908
31138W        W92801  34.902  12.714   0.426
31139W        W92802  14.740  20.707  11.371
31140W        W92803  16.793  32.119   4.244
31141W        W92804   5.207  22.117  11.550
31142W        W92805   1.437   0.852  14.916
31143W        W92806   8.205  21.077   4.700
31144W        W92807   7.232  32.405   2.763
31145W        W92808  27.564  26.516   0.464
31146W        W92809  37.980  43.307   4.734
31147W        W92810  28.992  20.165   1.334
31148W        W92811   0.971  38.349  11.107
31149W        W92812   0.798  13.764  13.315
31150W        W92813  37.419  36.409   1.743
31151W        W92814  29.152  26.524  11.863
31152W        W92815  17.301  34.425  10.481
31153W        W92816  15.682  28.083   1.811
31154W        W92817  23.638  33.000  10.926
31155W        W92818  13.317  30.643   3.688
31156W        W92819  26.058   4.919   0.427
31157W        W92820  39.350   1.414  13.501
31158W        W92821   0.778   4.348   4.801
31159W        W92822  22.024  21.592  11.020
31160W        W92823  36.882  39.501   3.680
31161W        W92824  24.030  15.740  10.083
31162W        W92825  17.290  37.516  14.514
31163W        W92826  19.194  19.067  11.976
31164W        W92827   3.742  35.462   0.481
31165W        W92828  11.228   6.417   1.739
31166W        W92829  17.732  12.122   1.841
31167W        W92830  12.332  31.479  13.850
31168W        W92831  14.155  40.881   1.728
31169W        W92832  16.790   5.908   1.869
31170W        W92833  25.033  36.526  12.028
31171W        W92834  10.366   5.357  12.473
31172W        W92835  12.202   2.775  14.317
31173W        W92836  36.564  33.389   4.748
31174W        W92837  31.091  36.057   2.801
31175W        W92838  35.951  38.929  11.505
31176W        W92839  15.737  29.611   0.791
31177W        W92840   9.675  27.168  11.487
31178W        W92841  26.527  22.695   1.861
31179W        W92842  25.100  41.490   1.343
31180W        W92843  37.360  15.595   9.936
31181W        W92844  28.475  12.292  14.830
31182W        W92845   5.743  23.623  11.566
31183W        W92846   9.205  23.543   1.327
31184W        W92847  43.779  44.951   3.729
31185W        W92848   2.306  14.127   2.787
31186W        W92849  22.082  23.001   2.393
31187W        W92850  38.466  34.369   3.854
31188W        W92851  14.830   8.208  11.079
31189W        W92852  12.686   0.487  11.541
31190W        W92853  29.045  34.048  10.628
31191W        W92854  20.156  21.030   4.325
31192W        W92855  11.327   9.343   5.806
31193W        W92856  18.189  20.209   3.671
31194W        W92857  43.277   0.837   2.217
31195W        W92858   8.181  12.343  11.482
31196W        W92859  23.714  40.328   0.296
31197W        W92860   6.790  21.031   3.859
31198W        W92861  42.950  17.272   0.851
31199W        W92862  35.373  18.057  12.898
31200W        W92863   0.932  35.005   4.679
31201W        W92864  24.535  29.989   3.767
31202W        W92865  37.891  11.646   1.894
31203W        W92866   4.390  41.867   1.361
31204W        W92867  22.537  21.632  11.128
31205W        W92868  38.904  21.187   5.282
31206W        W92869  16.741  22.605   0.322
31207W        W92870  10.285   5.912  13.843
31208W        W92871  32.440   0.322   3.309
31209W        W92872  34.939   0.418  13.897
31210W        W92873   8.335   7.336   2.245
31211W        W92874   2.346   8.324  13.406
31212W        W92875  10.320  13.635   3.746
31213W        W92876  42.947  10.275   9.483
31214W        W92877  44.331  11.145   0.303
31215W        W92878  37.901  15.649   4.826
31216W        W92879  25.579  17.162  11.507
31217W        W92880  34.090   0.981  10.642
31218W        W92881   3.734  19.689   2.890
31219W        W92882   3.769   1.885   0.894
31220W        W92883  11.162  39.458   1.287
31221W        W92884  14.223  38.390   1.757
31222W        W92885  13.790  21.106  11.932
31223W        W92886  35.042  22.183  11.431
31224W        W92887  20.544  17.578   5.148
31225W        W92888  22.085  32.591   1.316
31226W        W92889   2.821  22.688  14.807
31227W        W92890  10.763  11.802  13.326
31228W        W92891  34.562   7.904  14.343
31229W        W92892  18.552  18.180   3.855
31230W        W92893  22.583  16.160  13.815
31231W        W92894  27.196  23.639   3.365
31232W        W92895  38.432  27.941   2.820
31233W        W92896  16.652   4.226  12.034
31234W        W92897  29.100  15.259  11.961
31235W        W92898  20.554  38.333  13.348
31236W        W92899  22.643  27.580  12.560
31237W        W92900  31.903  12.142  11.425
31238W        W92901  38.947   6.405  13.035
31239W        W92902  31.556   6.883   5.796
31240W        W92903  19.213  17.293  14.320
31241W        W92904  16.297   5.420   1.364
31242W        W92905  40.823  33.877   2.361
31243W        W92906  42.841  31.619  10.629
31244W        W92907  24.717   6.202  12.346
31245W        W92908  22.719  38.927   1.898
31246W        W92909  36.570   7.716   4.753
31247W        W92910  27.563   9.162  13.869
31248W        W92911  40.325   4.265   0.928
31249W        W92912  44.320  29.583  14.377
31250W        W92913  36.058   6.715   1.257
31251W        W92914  21.120  10.641  10.572
31252W        W92915  30.134  38.382  13.416
31253W        W92916  42.884  22.173  14.910
31254W        W92917  41.514  15.685  14.010
31255W        W92918   7.347  35.537   2.812
31256W        W92919  35.036   8.881   5.116
31257W        W92920   5.885  30.919  12.375
31258W        W92921   8.663  21.167  12.972
31259W        W92922  25.683  33.466  10.455
31260W        W92923  18.585  10.231  14.015
31261W        W92924  29.149  34.445   1.891
31262W        W92925  11.696  13.162   1.344
31263W        W92926  23.088   8.863   1.760
31264W        W92927   8.758  20.532  12.868
31265W        W92928  29.050   3.876   0.872
31266W        W92929   6.346  22.188   1.306
31267W        W92930  15.295  38.368   2.387
31268W        W92931  10.185  36.531  14.759
31269W        W92932   7.402  32.539   1.868
31270W        W92933  41.963  27.969  12.550
31271W        W92934  35.550  12.277  11.020
31272W        W92935  34.067  27.689  12.550
31273W        W92936  23.690  40.889   4.668
31274W        W92937  43.432   3.366  10.624
31275W        W92938  12.319  29.629   2.353
31276W        W92939   8.207   0.766   3.314
31277W        W92940  12.715  31.508   4.239
31278W        W92941  29.638  19.146   4.785
31279W        W92942  38.414  26.528  12.933
31280W        W92943  18.240  20.075  13.363
31281W        W92944  24.500  23.174   3.749
31282W        W92945  30.962  34.885  11.945
31283W        W92946  39.446  26.554   3.672
31284W        W92947  17.283   3.254  13.008
31285W        W92948  31.082  38.996   4.745
31286W        W92949  34.521  23.090  13.968
31287W        W92950  21.754  20.569   4.349
31288W        W92951  24.194   4.280   4.747
31289W        W92952  25.489   9.221  10.518
31290W        W92953  18.115   1.456   3.703
31291W        W92954  21.037   8.285  11.374
31292W        W92955  10.877  34.396  14.467
31293W        W92956  26.640  40.032   3.247
31294W        W92957  41.437  20.751  13.889
31295W        W92958  22.150  43.007   3.679
31296W        W92959  38.480   1.779   1.715
31297W        W92960  37.074  33.094  13.353
31298W        W92961  20.067  17.666   0.911
31299W        W92962  22.130  13.171  12.018
31300W        W92963  41.920  22.084   2.339
31301W        W92964   0.396  38.842   0.449
31302W        W92965   9.203  13.254   4.327
31303W        W92966  25.566  33.912   2.351
31304W        W92967  44.378  35.086   4.669
31305W        W92968  42.005  30.131   0.817
31306W        W92969  12.360  11.823   1.817
31307W        W92970  13.333  11.653  13.827
31308W        W92971   5.292  41.480   3.254
31309W        W92972  34.024   0.814   4.808
31310W        W92973  20.106   0.388  13.547
31311W        W92974  12.340  35.093  12.473
31312W        W92975  34.612   9.219  12.008
31313W        W92976  15.271  34.445  12.415
31314W        W92977  43.332  37.369  10.589
31315W        W92978  17.223  35.575  11.036
31316W        W92979  25.519   3.271  12.941
31317W        W92980  27.458  10.718  14.933
31318W        W92981  26.173  20.209  11.034
31319W        W92982  43.889  20.684  14.299
31320W        W92983  27.513  20.725  14.428
31321W        W92984   1.953  38.845   2.306
31322W        W92985  40.468  22.513   4.298
31323W        W92986  34.908   8.888  12.076
31324W        W92987  13.210   2.870  12.441
31325W        W92988  43.361   6.706   3.288
31326W        W92989  33.488  25.028   0.892
31327W        W92990   2.763  43.908   0.447
31328W        W92991  31.963  44.419   4.355
31329W        W92992  18.162   6.209  14.986
31330W        W92993  38.473  25.125   2.662
31331W        W92994   2.378  25.585   2.357
31332W        W92995  27.590  10.814  10.986
31333W        W92996  23.695  36.096  11.028
31334W        W92997  43.826   6.354  14.845
31335W        W92998  40.890   5.792   5.113
31336W        W92999   5.805  13.331  12.371
31337W        W93000  39.900  15.776   0.351
31338W        W93001  29.029  31.982  12.012
31339W        W93002  34.979  39.315   0.855
31340W        W93003  11.358  12.652   3.223
31341W        W93004   3.249   9.381  12.451
31342W        W93005  41.326  16.279  13.448
31343W        W93006  22.523  29.460  10.944
31344W        W93007  29.041  38.449   1.784
31345W        W93008   5.920  44.430  12.080
31346W        W93009  42.524   1.363  14.421
31347W        W93010  30.944  44.888   4.735
31348W        W93011  42.454  17.779   4.269
31349W        W93012   7.814  21.199   2.728
31350W        W93013  35.075   2.370  13.943
31351W        W93014  15.676  22.591  12.991
31352W        W93015  26.689  34.455  10.153
31353W        W93016   7.388   9.277  11.377
31354W        W93017  30.081  32.411   0.255
31355W        W93018   3.238   6.225   4.805
31356W        W93019  13.719  31.421  12.853
31357W        W93020   1.480   3.803  14.361
31358W        W93021  21.562  25.144  13.008
31359W        W93022  44.899  12.784  11.539
31360W        W93023   6.355  33.106  14.904
31361W        W93024   4.815  29.079   0.849
31362W        W93025  42.462  42.843   1.342
31363W        W93026  27.096   5.769   0.473
31364W        W93027  36.355   1.927   5.274
31365W        W93028  10.329  34.085   1.342
31366W        W93029  44.804  24.086   1.763
31367W        W93030  20.706  25.708  10.465
31368W        W93031  18.789  27.518   1.769
31369W        W93032   3.837  21.135  11.897
31370W        W93033   1.880  43.397  14.875
31371W        W93034   3.218  17.650  14.025
31372W        W93035   3.827  18.605   3.214
31373W        W93036  13.800  20.128   0.438
31374W        W93037  11.300   9.263   4.703
31375W        W93038  43.926  40.980  10.480
31376W        W93039   4.902  26.547   5.270
31377W        W93040  39.835  10.734   0.263
31378W        W93041  43.399  10.638  12.570
31379W        W93042  37.952  31.452   3.806
31380W        W93043  17.749  13.135  11.884
31381W        W93044  28.154   9.307  12.461
31382W        W93045   4.379   8.172  14.449
31383W        W93046  25.652  14.301   1.246
31384W        W93047  11.140  39.881   0.316
31385W        W93048  40.831  23.113  14.875
31386W        W93049   5.262  42.365  13.312
31387W        W93050  12.165  18.145   2.237
31388W        W93051  40.331  15.768   2.699
31389W        W93052  36.941  44.775   0.930
31390W        W93053  14.152   0.350  13.443
31391W        W93054   5.836  18.603  13.452
31392W        W93055  42.344  10.655  14.306
31393W        W93056  43.982  15.139   3.788
31394W        W93057  41.486   2.371  12.389
31395W        W93058   7.703  26.501   3.787
31396W        W93059   7.768   2.863   0.357
31397W        W93060  18.061  30.068  14.417
31398W        W93061  21.703  26.971   2.381
31399W        W93062   7.816   4.754   3.765
31400W        W93063  15.696  24.548   0.402
31401W        W93064   1.264   2.836   0.957
31402W        W93065  31.130  42.008   3.770
31403W        W93066  37.368  40.955  11.541
31404W        W93067  42.800  28.596   3.846
31405W        W93068  18.283   4.276   1.331
31406W        W93069   9.789  43.862  14.488
31407W        W93070  36.882  13.807  12.047
31408W        W93071  14.672   7.255   4.782
31409W        W93072   9.718  34.524   3.688
31410W        W93073  33.610  25.562   1.871
31411W        W93074  38.536  19.606   3.260
31412W        W93075  25.669   8.297   1.873
31413W        W93076  30.929  26.621   2.414
31414W        W93077   4.206  36.919   3.864
31415W        W93078   9.808  20.675  10.917
31416W        W93079   5.846  22.006  11.375
31417W        W93080  27.150  13.183  14.788
31418W        W93081  30.127  35.535   3.689
31419W        W93082  30.942  28.651  11.020
31420W        W93083  33.130  19.631   2.712
31421W        W93084  35.433  23.499   1.854
31422W        W93085  39.811  18.270  11.524
31423W        W93086  14.181  16.712  11.086
31424W        W93087  44.974   7.239   4.743
31425W        W93088  35.548  26.132   3.857
31426W        W93089  24.177   0.774  10.612
31427W        W93090  22.591  34.473  11.499
31428W        W93091  11.856  32.628  12.475
31429W        W93092  40.319  23.239   0.373
31430W        W93093  10.834  10.324  10.990
31431W        W93094  28.631  23.698  14.969
31432W        W93095  29.156   5.769  12.896
31433W        W93096  24.210  26.515   2.711
31434W        W93097  35.514  33.445   0.846
31435W        W93098  16.099  30.053  14.317
31436W        W93099  26.538  23.656  13.365
31437W        W93100   3.796  10.748  12.545
31438W        W93101   1.742  23.099   2.191
31439W        W93102  43.458  20.084   1.926
31440W        W93103  22.128  12.156   3.679
31441W        W93104   9.331  18.629   4.194
31442W        W93105  15.788  14.601   4.310
31443W        W93106  22.156   0.274   4.219
31444W        W93107   1.413  12.639  11.407
31445W        W93108   3.255  27.046  13.460
31446W        W93109   2.428  12.223   3.790
31447W        W93110   2.278  43.381   4.749
31448W        W93111  16.135  36.532   1.296
31449W        W93112  13.775  35.507   3.313
31450W        W93113  11.841   9.739  10.949
31451W        W93114  14.148   8.729  12.348
31452W        W93115  35.457  24.094   2.377
31453W        W93116   3.409  37.575   3.780
31454W        W93117   0.814  43.311  12.846
31455W        W93118  15.685  14.672   0.401
31456W        W93119  19.757  11.268   1.289
31457W        W93120  42.513  44.985   4.683
31458W        W93121  30.136  20.699   1.328
31459W        W93122  15.255  44.826  10.516
31460W        W93123  27.991   0.892   4.687
31461W        W93124   7.267   8.198  11.474
31462W        W93125  33.625  37.582   2.327
31463W        W93126  33.999  20.623   1.403
31464W        W93127  21.724  16.667   4.761
31465W        W93128  18.218  30.656   1.829
31466W        W93129  22.018  24.486  11.437
31467W        W93130   6.261  19.629   0.829
31468W        W93131  27.981  16.226  13.402
31469W        W93132  31.040  24.172   4.173
31470W        W93133  42.950  13.809  12.084
31471W        W93134  30.938   4.732  11.525
31472W        W93135  21.557  29.533   4.355
31473W        W93136   3.254  27.662   0.899
31474W        W93137  40.512  43.949   1.851
31475W        W93138  28.613  43.352  14.849
31476W        W93139  29.161  21.716  14.905
31477W        W93140  36.483  10.278  10.404
31478W        W93141  20.689  34.055  12.506
31479W        W93142  35.552  23.567  11.554
31480W        W93143  35.472  15.085  10.449
31481W        W93144   4.757  32.570   4.651
31482W        W93145  13.255  29.955   4.630
31483W        W93146  16.575   3.364   3.702
31484W        W93147   1.826  28.061  12.413
31485W        W93148  30.953  19.049   2.824
31486W        W93149   6.878  31.945  10.534
31487W        W93150  17.187   1.894  14.920
31488W        W93151  15.107  29.610   1.702
31489W        W93152  12.288  28.007  10.066
31490W        W93153  42.280   3.265   1.705
31491W        W93154  44.495  14.218   9.597
31492W        W93155  18.658  41.937   0.287
31493W        W93156  37.441   2.841   2.810
31494W        W93157  15.164  13.227  10.426
31495W        W93158  38.028  23.573  14.479
31496W        W93159  17.656  27.105  11.026
31497W        W93160  27.588  34.909  11.566
31498W        W93161   7.673   0.377   4.242
31499W        W93162   8.218  35.999  14.885
31500W        W93163  34.937  23.696  10.618
31501W        W93164  44.768  38.447   4.670
31502W        W93165   7.837  34.370  14.319
31503W        W93166  19.245  39.330  13.511
31504W        W93167   3.330  20.616   2.388
31505W        W93168  32.096  42.454   1.836
31506W        W93169   2.388  36.430  14.512
31507W        W93170  23.658  30.912   2.801
31508W        W93171  31.438  24.075   9.949
31509W        W93172  22.725  26.555  14.769
31510W        W93173  14.694   0.294   2.241
31511W        W93174  38.858  18.659   4.285
31512W        W93175   6.699   0.400   0.754
31513W        W93176  12.225   0.466   2.339
31514W        W93177  14.212   0.892   2.244
31515W        W93178   2.283  19.568   2.817
31516W        W93179  11.223   7.697   1.422
31517W        W93180  15.644  29.601  13.965
31518W        W93181  31.907  12.777   2.340
31519W        W93182  21.563   0.910  13.945
31520W        W93183   7.775  33.492   1.856
31521W        W93184  31.050  37.346   2.706
31522W        W93185  37.082  41.809   0.964
31523W        W93186   8.199  13.700   4.691
31524W        W93187  40.916  12.288  11.589
31525W        W93188  23.072  25.168   0.413
31526W        W93189   8.665  12.291  13.887
31527W        W93190  23.700  42.368  13.440
31528W        W93191  35.993  14.831   2.795
31529W        W93192  28.519  33.101  12.884
31530W        W93193  25.003  44.801   3.864
31531W        W93194  17.174   2.245   3.708
31532W        W93195  19.564   0.775  11.415
31533W        W93196   2.965  11.664   0.437
31534W        W93197  38.563   1.284   2.375
31535W        W93198  23.534  13.646   0.278
31536W        W93199  24.673   0.473   1.884
31537W        W93200  22.645   8.363   1.810
31538W        W93201  12.820   0.960   4.677
31539W        W93202  41.954  21.647   3.204
31540W        W93203  35.088  24.649   1.381
31541W        W93204  18.614  24.479  11.952
31542W        W93205  16.653  41.453   3.782
31543W        W93206   6.826   7.671   1.698
31544W        W93207  43.515   3.858   1.771
31545W        W93208   4.843  32.576   3.253
31546W        W93209  40.028  18.255   4.803
31547W        W93210  27.447  14.166   3.353
31548W        W93211  30.917   1.251   0.391
31549W        W93212  13.658  14.662  13.002
31550W        W93213  33.969  39.919   2.675
31551W        W93214  23.163  18.565  12.375
31552W        W93215  31.488   3.954   3.738
31553W        W93216  41.381  18.648  12.574
31554W        W93217  41.864   6.337   2.399
31555W        W93218   6.267  19.143   0.272
31556W        W93219  14.274  15.777   4.130
31557W        W93220  34.979  17.256  14.395
31558W        W93221  36.448  29.579  12.344
31559W        W93222   0.849  15.127  14.307
31560W        W93223  18.628  32.450   2.392
31561W        W93224  34.976  31.059   2.263
31562W        W93225  26.545  10.335   3.358
31563W        W93226   8.799  28.082   4.162
31564W        W93227   9.214  23.535  10.087
31565W        W93228  11.181  24.109   2.350
31566W        W93229   4.286   0.778   3.265
31567W        W93230  10.723  37.353   0.363
31568W        W93231  33.583  37.845  11.857
31569W        W93232   7.891  41.497  12.033
31570W        W93233   8.700  11.306   0.844
31571W        W93234  29.555  41.881  14.872
31572W        W93235  25.033   8.820  11.611
31573W        W93236   7.284   4.406  10.477
31574W        W93237  39.371  35.373  12.058
31575W        W93238  42.388  43.346   1.909
31576W        W93239  26.496  21.242  10.617
31577W        W93240  31.022  36.890  11.975
31578W        W93241  42.930  26.696  10.478
31579W        W93242  42.309  20.031  14.903
31580W        W93243  20.092   3.713   4.608
31581W        W93244  21.093  42.816  12.988
31582W        W93245  16.222  25.139   2.735
31583W        W93246   5.801  43.472  12.482
31584W        W93247  25.503  30.516  13.963
31585W        W93248  43.335  41.298  14.412
31586W        W93249   4.784  20.697  12.847
31587W        W93250  36.059  34.558   4.799
31588W        W93251  20.158  15.247  14.389
31589W        W93252  31.544   1.847  11.963
31590W        W93253   3.255  27.635   4.599
31591W        W93254   3.375  31.008  13.845
31592W        W93255  13.118  41.973  11.528
31593W        W93256   8.246  39.957   3.710
31594W        W93257  31.560  17.070  14.308
31595W        W93258   7.233  33.034   0.773
31596W        W93259  44.007  36.393   0.319
31597W        W93260  38.434  14.134  12.920
31598W        W93261  15.712  43.972  10.037
31599W        W93262  37.496   9.176   0.426
31600W        W93263  43.483   1.911   4.173
31601W        W93264  16.157  32.527  14.390
31602W        W93265   9.284  40.505   1.746
31603W        W93266  27.499  23.669   2.684
31604W        W93267  25.548  20.087   2.361
31605W        W93268  28.098  16.566  13.910
31606W        W93269  34.606  43.274  14.944
31607W        W93270  23.211   4.339   3.832
31608W        W93271  37.513  40.309  14.911
31609W        W93272  24.705   2.298  11.559
31610W        W93273   4.919  21.580  10.042
31611W        W93274   5.896  40.463  14.914
31612W        W93275  18.548  12.702   0.938
31613W        W93276  12.650  27.630  12.412
31614W        W93277   4.762  32.008   1.340
31615W        W93278   2.769  14.201   4.612
31616W        W93279  23.171  44.831   0.782
31617W        W93280  16.595   0.424   3.386
31618W        W93281  38.854  43.482  10.576
31619W        W93282  16.726   1.777   2.286
31620W        W93283  11.865   4.810   4.352
31621W        W93284   1.304  27.577  14.378
31622W        W93285  33.519   7.188  13.938
31623W        W93286  31.897  14.770  13.879
31624W        W93287  44.940   6.365   0.783
31625W        W93288  15.262  40.308  12.358
31626W        W93289  14.099  42.520  12.348
31627W        W93290  19.649  40.862   0.293
31628W        W93291  18.637  16.243   0.336
31629W        W93292  33.437   7.822  11.932
31630W        W93293  15.146   1.883  11.087
31631W        W93294  41.406  26.052  12.366
31632W        W93295  13.650  16.675   0.737
31633W        W93296  33.067  11.744  13.904
31634W        W93297  37.878  16.620  10.926
31635W        W93298  12.293  30.445  14.932
31636W        W93299  28.536   7.282  11.522
31637W        W93300  32.138   5.899  11.597
31638W        W93301  15.276  29.444   4.669
31639W        W93302  42.290  21.236  12.365
31640W        W93303  31.956  35.910  10.571
31641W        W93304  43.287  15.788   4.709
31642W        W93305  16.780  12.614  10.493
31643W        W93306  21.132  13.838   2.773
31644W        W93307  30.659   4.250  11.531
31645W        W93308  24.117  42.426   2.259
31646W        W93309  40.003   4.249   3.863
31647W        W93310  26.522  28.111   4.721
31648W        W93311  13.692  21.021   4.355
31649W        W93312   6.906  44.808   2.237
31650W        W93313   0.444  12.833  13.357
31651W        W93314  22.185  41.799   1.841
31652W        W93315   6.808  18.131  13.408
31653W        W93316  12.731  12.207   0.941
31654W        W93317  14.667  41.828   4.677
31655W        W93318  41.310  14.121  12.437
31656W        W93319  29.959  40.387  11.109
31657W        W93320   1.879  32.020  14.931
31658W        W93321  14.798  19.639  14.367
31659W        W93322  29.425   6.806  13.392
31660W        W93323  13.731  36.547   3.664
31661W        W93324   7.697  42.922   5.236
31662W        W93325   8.745  14.283   0.405
31663W        W93326  10.639  33.497  10.515
31664W        W93327  25.170  30.053  12.940
31665W        W93328  36.913  28.070   4.165
31666W        W93329  25.174  25.494  11.373
31667W        W93330  31.618  41.827   3.183
31668W        W93331  44.871   0.364  10.464
31669W        W93332  18.115   8.873  14.473
31670W        W93333  14.778  39.049   0.828
31671W        W93334  13.653  36.901  13.996
31672W        W93335  12.233  16.294  12.570
31673W        W93336  23.722  32.397  12.876
31674W        W93337  16.283   6.340  12.559
31675W        W93338  28.486   1.387   3.713
31676W        W93339  37.443  12.628   4.762
31677W        W93340  35.523  36.928   1.915
31678W        W93341   6.921   2.818  14.276
31679W        W93342   6.189   1.756  14.850
31680W        W93343  43.271  28.642   1.722
31681W        W93344  11.147  10.355   4.277
31682W        W93345  15.644  39.903  14.475
31683W        W93346  25.119  33.609   5.105
31684W        W93347  43.819  37.438  13.435
31685W        W93348   0.285  14.172  11.033
31686W        W93349  27.126  16.244   3.790
31687W        W93350  19.144  13.118   1.406
31688W        W93351  21.141   8.884   0.344
31689W        W93352  27.049  38.052  12.422
31690W        W93353  30.968  40.458   0.279
31691W        W93354  36.911  25.203  12.913
31692W        W93355  42.382  19.184  11.902
31693W        W93356  30.575  44.290   0.950
31694W        W93357  41.308  21.177   0.326
31695W        W93358  23.672  33.459  14.787
31696W        W93359   3.252  24.550  10.893
31697W        W93360  43.938  37.955  14.769
31698W        W93361  29.629  43.300   2.310
31699W        W93362  27.010  22.586  11.062
31700W        W93363  34.038   7.171  11.377
31701W        W93364  38.819  42.415   4.626
31702W        W93365  32.091  19.566  11.099
31703W        W93366  32.961  27.189  11.070
31704W        W93367  18.092  10.719  13.922
31705W        W93368  35.035  26.044   2.390
31706W        W93369  23.126   2.355  12.844
31707W        W93370  23.014  38.384   3.168
31708W        W93371  16.093  14.310   4.243
31709W        W93372  23.229  24.542   4.628
31710W        W93373  34.039  24.119   5.287
31711W        W93374  11.275  21.540   0.467
31712W        W93375  37.001  42.913   4.736
31713W        W93376  30.655  27.065  13.336
31714W        W93377  26.103   4.322   0.955
31715W        W93378  33.945  22.734   0.480
31716W        W93379  17.614  27.650  11.043
31717W        W93380  37.483  27.060  12.408
31718W        W93381  40.503  13.350  10.898
31719W        W93382  14.723  24.204   1.933
31720W        W93383  35.452  18.686  13.800
31721W        W93384  19.211  44.967  11.557
31722W        W93385   1.387  10.826  11.860
31723W        W93386  42.883  24.667   3.633
31724W        W93387   0.413  34.021  12.961
31725W        W93388  24.031   8.327   4.621
31726W        W93389   2.735  36.922   1.720
31727W        W93390   1.399  38.441   4.328
31728W        W93391  26.125  12.305   2.884
31729W        W93392  43.993  35.516   3.169
31730W        W93393  32.919  10.832  11.426
31731W        W93394  27.123  18.286  13.919
31732W        W93395  32.121  34.977   3.632
31733W        W93396  25.468   6.231  14.022
31734W        W93397  24.067  12.655   3.259
31735W        W93398  15.786   2.740   0.808
31736W        W93399  18.752  34.020  13.430
31737W        W93400  20.632   0.283  13.513
31738W        W93401  23.998  31.030  12.044
31739W        W93402  14.684  18.058  12.058
31740W        W93403  20.182  44.973   4.201
31741W        W93404  37.058   0.798   2.727
31742W        W93405  31.584  10.221  14.961
31743W        W93406   1.956  44.275  13.450
31744W        W93407  19.277  39.490   3.805
31745W        W93408  20.057  11.834  13.017
31746W        W93409  43.359   7.415   3.292
31747W        W93410  13.319  18.145  13.458
31748W        W93411  19.680  24.982   2.268
31749W        W93412  34.957  17.093  12.033
31750W        W93413   9.666   3.229   5.219
31751W        W93414   8.859  21.127  10.118
31752W        W93415   1.849   6.271  13.904
31753W        W93416  19.758  38.565   0.362
31754W        W93417  36.582  23.041  13.050
31755W        W93418  44.444  31.983   4.694
31756W        W93419  14.701  34.896   2.728
31757W        W93420  40.503  16.586   4.140
31758W        W93421   5.351  43.398  13.327
31759W        W93422  23.241  26.985  11.585
31760W        W93423  38.827  39.978   1.444
31761W        W93424  27.603  20.623   2.776
31762W        W93425  32.445  22.729   3.350
31763W        W93426  42.992  19.246  11.584
31764W        W93427  34.553   1.788   3.345
31765W        W93428  37.847  19.046  14.774
31766W        W93429   4.843  11.850   2.256
31767W        W93430   2.333  19.234   4.660
31768W        W93431  24.574  34.517   1.318
31769W        W93432  31.112  10.266   5.296
31770W        W93433  30.083  37.922   0.264
31771W        W93434  28.097  20.721  11.933
31772W        W93435   5.854  21.668   3.240
31773W        W93436   4.870  17.124   3.684
31774W        W93437  35.956  37.986   2.385
31775W        W93438  25.138   1.874   1.219
31776W        W93439   9.163  33.959   0.734
31777W        W93440  21.170  21.173  11.891
31778W        W93441  28.675  12.828   2.204
31779W        W93442  39.922   2.807   1.287
31780W        W93443  24.717  32.978   3.696
31781W        W93444   0.979  24.980  11.415
31782W        W93445  20.760  11.326  14.010
31783W        W93446   8.860  19.130   4.701
31784W        W93447  38.066   7.675   2.762
31785W        W93448  10.305   9.383  10.939
31786W        W93449  16.085  37.879  13.843
31787W        W93450  36.884  42.860   2.736
31788W        W93451  36.525   1.477   2.399
31789W        W93452  32.576  19.748  11.016
31790W        W93453  21.220  35.384   0.802
31791W        W93454  14.696  29.528   1.712
31792W        W93455  42.867  43.364  14.004
31793W        W93456   1.745   8.233   0.778
31794W        W93457  17.148  40.458   1.210
31795W        W93458   1.287   9.360   9.533
31796W        W93459  42.876  15.159   3.871
31797W        W93460  30.969  13.229   3.786
31798W        W93461  26.617  28.949   3.178
31799W        W93462  15.324  15.630  14.346
31800W        W93463  16.199  11.841   4.678
31801W        W93464  16.273  10.275   2.360
31802W        W93465   3.935  25.018   4.638
31803W        W93466  20.585  41.329  13.888
31804W        W93467  26.698   5.902   2.347
31805W        W93468  13.793  13.839  13.895
31806W        W93469  35.957   3.947  14.858
31807W        W93470  31.547  39.902  13.021
31808W        W93471  16.632  35.571  14.433
31809W        W93472  36.922  27.990  12.491
31810W        W93473  37.027  18.283   1.304
31811W        W93474   3.933  15.671  14.325
31812W        W93475   1.882  14.219  12.969
31813W        W93476  14.709  28.174  11.962
31814W        W93477  37.025  42.950  12.415
31815W        W93478   8.755  41.525  12.537
31816W        W93479  18.269  42.281   0.893
31817W        W93480  34.420  36.093   3.766
31818W        W93481   9.323  26.544   3.305
31819W        W93482  25.139  43.366  14.762
31820W        W93483  13.728  28.950  13.344
31821W        W93484  30.443  19.196  11.101
31822W        W93485  25.588  35.868   4.623
31823W        W93486  25.031  32.122  12.884
31824W        W93487   1.373  15.687  11.425
31825W        W93488  44.782  16.764   3.693
31826W        W93489  29.127  32.542   2.268
31827W        W93490   7.703  26.082   4.296
31828W        W93491  11.747  29.094  10.010
31829W        W93492  24.017   5.212   2.278
31830W        W93493  13.285  37.940   0.419
31831W        W93494  43.511  35.521  12.563
31832W        W93495   3.319   6.214  13.880
31833W        W93496   5.291  30.073  12.472
31834W        W93497  29.586  32.918   0.844
31835W        W93498  30.584   1.323  13.544
31836W        W93499  42.872  21.584  12.918
31837W        W93500  37.858  31.030   0.255
31838W        W93501   7.304  23.028  13.934
31839W        W93502  29.005   5.749  13.815
31840W        W93503  39.030  43.396   3.275
31841W        W93504  43.378   2.391   4.174
31842W        W93505  29.496  11.271   4.790
31843W        W93506  23.523  19.562  14.892
31844W        W93507   2.342  18.732  14.903
31845W        W93508  14.731  44.927   1.727
31846W        W93509  17.139  38.534  14.417
31847W        W93510   6.424  21.198  12.996
31848W        W93511   3.406   8.692   3.243
31849W        W93512  19.164  18.678   2.302
31850W        W93513   4.751   2.743  11.430
31851W        W93514  27.474  39.408   2.301
31852W        W93515  44.261  33.549  14.294
31853W        W93516  20.720  37.404   5.087
31854W        W93517   0.430  32.499   2.825
31855W        W93518  24.505  16.077  11.506
31856W        W93519  43.348   6.737  13.969
31857W        W93520   9.174  15.803  10.501
31858W        W93521  37.388  35.021  13.956
31859W        W93522  35.924  23.703  14.918
31860W        W93523   3.272  16.160  12.570
31861W        W93524  39.430   7.896  11.399
31862W        W93525   5.732  39.879   0.262
31863W        W93526   9.751  39.394   3.692
31864W        W93527  37.440  33.095   1.264
31865W        W93528  30.008  11.202  13.526
31866W        W93529  31.119  35.386  14.874
31867W        W93530  17.253  32.449   4.756
31868W        W93531  29.148  17.695  12.959
31869W        W93532  20.555  14.725   0.419
31870W        W93533  32.950  23.121   9.551
31871W        W93534  15.664  32.508   2.356
31872W        W93535  29.476  28.039  14.487
31873W        W93536  23.199  30.493   1.817
31874W        W93537  39.410  10.304  12.825
31875W        W93538  14.765  29.160   4.186
31876W        W93539  26.537  31.918   1.717
31877W        W93540  36.490  14.808  13.342
31878W        W93541  25.074  11.266   1.363
31879W        W93542  30.489  32.038   1.218
31880W        W93543   9.689  44.265   2.705
31881W        W93544   8.305  11.166   3.681
31882W        W93545  37.562  24.159   0.860
31883W        W93546  21.666  15.291  11.082
31884W        W93547  28.653   2.766   0.306
31885W        W93548  18.078  23.062  11.042
31886W        W93549  23.152   1.441   3.242
31887W        W93550  42.289  34.536  13.878
31888W        W93551  40.363  35.966   2.805
31889W        W93552  40.990  31.905  12.439
31890W        W93553  11.328  38.434   1.251
31891W        W93554  29.571   5.300   1.757
31892W        W93555  16.209  43.840   3.703
31893W        W93556  28.071  34.911  10.508
31894W        W93557  39.337  27.609   0.780
31895W        W93558  25.044  16.670   0.257
31896W        W93559  11.840   3.715   2.391
31897W        W93560  25.990  17.650   4.814
31898W        W93561   7.375  27.073   2.682
31899W        W93562  28.582  34.506  12.371
31900W        W93563  33.436  22.501   1.785
31901W        W93564  12.135   7.802  12.023
31902W        W93565  13.754  15.729   0.798
31903W        W93566  17.687   9.335   3.820
31904W        W93567  24.562  15.087   4.733
31905W        W93568  29.169  33.944   1.281
31906W        W93569  39.057  33.039   0.323
31907W        W93570  29.933  15.784   3.634
31908W        W93571  30.006  14.816   0.325
31909W        W93572  19.620  27.656  14.318
31910W        W93573  21.228  32.530   3.741
31911W        W93574  25.971  44.457   3.226
31912W        W93575  42.393  12.621   5.156
31913W        W93576  28.497  23.557  13.354
31914W        W93577  28.009  25.987  12.514
31915W        W93578  21.038  43.463   3.760
31916W        W93579   9.878  44.980   4.730
31917W        W93580  14.203  12.814  13.822
31918W        W93581  13.110  16.692   1.884
31919W        W93582  36.482  16.636   1.260
31920W        W93583  44.363  38.040  12.960
31921W        W93584  27.057   9.238  11.059
31922W        W93585  37.452  28.560   4.224
31923W        W93586   0.373   4.895   4.603
31924W        W93587  43.806  15.198  12.893
31925W        W93588  25.644  23.123  14.514
31926W        W93589   6.248  34.507   0.819
31927W        W93590  43.886  16.273   2.259
31928W        W93591   2.439   5.713  14.285
31929W        W93592   9.238  19.534   3.831
31930W        W93593  22.615  26.200   1.849
31931W        W93594   2.771   1.362   1.287
31932W        W93595  41.937   6.882   2.370
31933W        W93596  26.016  34.530  14.860
31934W        W93597  18.722  29.129   0.743
31935W        W93598  11.742  14.185  14.963
31936W        W93599  42.979  22.152  11.546
31937W        W93600  24.020   4.890  12.379
31938W        W93601   8.328   9.749   1.895
31939W        W93602  36.915  24.039   4.119
31940W        W93603  14.188  15.677  10.533
31941W        W93604  33.941  20.229   0.761
31942W        W93605  24.028  39.038   0.858
31943W        W93606  36.387  32.029  11.086
31944W        W93607  19.068  43.923   2.900
31945W        W93608  43.373   2.454   4.620
31946W        W93609  15.623   9.864   4.710
31947W        W93610  34.482  10.176   0.251
31948W        W93611  41.486  25.163  10.531
31949W        W93612  17.723  42.898  14.805
31950W        W93613   4.898  37.544   3.653
31951W        W93614   1.272  43.890   1.752
31952W        W93615  34.097  33.433  12.915
31953W        W93616  24.480   5.876   0.740
31954W        W93617  20.076  35.485  11.091
31955W        W93618  36.875  40.381   0.776
31956W        W93619  40.449  25.669  14.513
31957W        W93620  14.221  15.102   1.733
31958W        W93621  13.167   5.420  11.987
31959W        W93622   7.289   0.916   0.430
31960W        W93623   7.404  24.605   3.650
31961W        W93624  34.535  25.505   4.347
31962W        W93625   5.350  25.995  10.466
31963W        W93626   0.872   5.700  11.992
31964W        W93627  19.576  22.085   1.260
31965W        W93628  13.726  37.371   0.461
31966W        W93629  33.450  24.547   4.332
31967W        W93630  21.102  12.119  12.055
31968W        W93631  23.586  16.146   4.827
31969W        W93632  25.998  26.076  13.359
31970W        W93633  43.000  32.633   4.349
31971W        W93634   8.293  41.522   0.264
31972W        W93635   7.871  44.492   4.672
31973W        W93636  21.219  35.379   1.410
31974W        W93637  12.123  14.240  10.472
31975W        W93638  28.032  10.865   3.193
31976W        W93639  30.453   5.286   4.265
31977W        W93640  27.454  10.825   0.275
31978W        W93641  10.798  33.943   0.832
31979W        W93642  26.532   7.750   1.788
31980W        W93643  31.577  21.677   0.864
31981W        W93644  22.112   3.771   3.196
31982W        W93645  32.518  41.306  11.908
31983W        W93646  22.604  40.992  11.501
31984W        W93647  40.326  44.761   1.813
31985W        W93648  31.114  31.588  13.848
31986W        W93649  19.179  39.930  14.798
31987W        W93650  15.157  20.642   1.896
31988W        W93651  26.665   8.365  14.857
31989W        W93652  31.145  30.005  12.903
31990W        W93653  14.119  12.782   3.713
31991W        W93654  28.969  32.405  12.058
31992W        W93655  20.187  25.525  11.590
31993W        W93656  29.498  34.032  13.925
31994W        W93657  16.246  17.655  10.888
31995W        W93658   4.771  17.765   0.399
31996W        W93659  22.745  32.888   2.209
31997W        W93660  44.956  14.635   3.855
31998W        W93661  32.451  26.126   0.795
31999W        W93662  42.997  30.520   0.791
32000W        W93663   7.191  42.375  10.557
32001W        W93664  24.995  28.167  11.540
32002W        W93665  41.031  20.082  11.460
32003W        W93666  32.530  12.125   4.340
32004W        W93667  25.966  17.594   4.194
32005W        W93668  42.282  30.481   0.258
32006W        W93669  41.816   3.739   4.308
32007W        W93670  22.523  26.490   0.359
32008W        W93671  26.078  12.648   3.665
32009W        W93672  33.955  38.385   4.240
32010W        W93673   9.261  34.004  13.984
32011W        W93674   1.934  35.466   3.158
32012W        W93675  30.035   6.218   4.332
32013W        W93676  10.174  22.223   0.906
32014W        W93677  31.942  32.636   4.818
32015W        W93678  28.022  13.806  12.860
32016W        W93679  34.447  38.504   2.833
32017W        W93680  22.192   4.370  13.313
32018W        W93681  22.674  18.586  12.417
32019W        W93682  22.075  33.956   4.610
32020W        W93683   6.811  11.190  14.018
32021W        W93684  35.401  22.026  11.003
32022W        W93685  18.243  13.161   4.149
32023W        W93686  28.643   4.372   4.722
32024W        W93687  30.052  13.224  11.590
32025W        W93688  11.708  11.808  13.413
32026W        W93689  18.776   3.275  12.054
32027W        W93690   0.884  30.123   2.825
32028W        W93691  31.415  29.105  12.344
32029W        W93692  30.431   8.829  10.488
32030W        W93693   8.688  28.071   4.599
32031W        W93694  36.493  14.134   3.796
32032W        W93695  35.362  10.277   2.683
32033W        W93696  12.353  25.053   0.369
32034W        W93697   2.378  22.672  14.421
32035W        W93698   7.232  18.267   4.226
32036W        W93699   0.273  26.578   2.741
32037W        W93700  43.868  16.103   1.334
32038W        W93701  32.093  41.439  10.059
32039W        W93702   3.715   5.775   1.772
32040W        W93703  11.342  21.084  11.481
32041W        W93704  23.080  13.738  11.513
32042W        W93705   7.403  43.987   0.728
32043W        W93706  15.306  22.212  10.907
32044W        W93707  14.771   3.717   4.185
32045W        W93708  42.324  23.109  14.972
32046W        W93709  31.517  11.170  12.489
32047W        W93710  15.170  31.500  10.443
32048W        W93711   6.318   3.461   4.608
32049W        W93712   4.218  36.902   0.268
32050W        W93713  36.389  37.966  14.399
32051W        W93714  41.859  44.349  10.022
32052W        W93715  29.082  34.908  11.933
32053W        W93716   4.722   9.741  13.546
32054W        W93717  15.138  25.077  14.382
32055W        W93718  29.454  24.083  14.391
32056W        W93719   6.243  36.043  12.501
32057W        W93720  24.563  42.307   4.228
32058W        W93721  31.062   2.846  14.006
32059W        W93722   5.866  28.947  12.558
32060W        W93723  29.085  21.037  11.507
32061W        W93724  21.186  17.602  14.276
32062W        W93725   8.835  14.664  11.033
32063W        W93726  32.599   6.862  13.062
32064W        W93727   4.907  11.193  10.555
32065W        W93728   2.903  27.126  11.586
32066W        W93729  28.553  27.504   4.271
32067W        W93730   8.893   4.747   2.204
32068W        W93731  38.943  21.198  13.360
32069W        W93732  18.768  25.162  10.147
32070W        W93733   4.279  14.124   1.355
32071W        W93734  18.559  16.613  13.523
32072W        W93735  18.727   2.376   4.310
32073W        W93736  19.233  22.036  10.595
32074W        W93737  29.652  39.393  13.471
32075W        W93738  16.308  30.036  13.512
32076W        W93739   4.892  12.324   0.778
32077W        W93740  38.014   8.401   2.686
32078W        W93741  34.076  34.954   3.255
32079W        W93742  36.943  36.430  11.925
32080W        W93743  15.246  17.280  11.439
32081W        W93744  12.733  41.340   4.836
32082W        W93745  29.147  18.583   1.283
32083W        W93746  28.552  27.510   0.915
32084W        W93747   2.854  43.022  11.983
32085W        W93748  24.216  24.589  14.394
32086W        W93749  44.773  34.083   4.653
32087W        W93750  29.107  35.069   1.893
32088W        W93751  10.237  15.274   3.833
32089W        W93752  28.522   0.490   0.372
32090W        W93753  39.890   1.752   3.190
32091W        W93754  14.137  31.077  12.097
32092W        W93755  43.503  32.465   0.282
32093W        W93756  10.873  31.456  12.466
32094W        W93757   4.854  38.534  10.130
32095W        W93758  17.246  20.142   3.659
32096W        W93759  13.721   9.182  14.024
32097W        W93760  22.142   1.243  10.570
32098W        W93761   3.390  21.020   2.889
32099W        W93762  10.839  34.392  10.999
32100W        W93763  20.692   7.275  13.334
32101W        W93764  33.385  39.370   3.283
32102W        W93765   1.897   9.320  13.837
32103W        W93766  16.153  27.534  14.368
32104W        W93767  18.741   2.907  13.047
32105W        W93768  20.141  23.052   1.345
32106W        W93769  40.404   3.765   4.606
32107W        W93770  39.410  31.403  11.475
32108W        W93771  27.476   8.880  13.849
32109W        W93772  40.444   3.386   3.297
32110W        W93773  26.643  35.049   4.621
32111W        W93774  19.739  23.527  14.826
32112W        W93775   9.191  17.667   1.846
32113W        W93776  27.641  43.280   1.894
32114W        W93777  19.110  17.105  11.072
32115W        W93778  16.310  11.813  11.596
32116W        W93779   8.892  26.688   3.297
32117W        W93780   5.207  35.490   2.416
32118W        W93781  33.505   8.261  14.902
32119W        W93782   5.904   7.364  11.445
32120W        W93783  37.874  15.606  13.876
32121W        W93784   1.263  13.324  10.432
32122W        W93785  40.821  40.310  14.510
32123W        W93786  39.825  11.646   1.757
32124W        W93787  27.168   3.276   3.807
32125W        W93788  34.455   5.316  11.096
32126W        W93789  39.023   2.729   4.141
32127W        W93790  12.821  10.221   2.218
32128W        W93791  22.038  33.875  10.519
32129W        W93792   5.770   4.386  12.472
32130W        W93793  19.052  12.682  10.624
32131W        W93794   8.213  14.713   1.324
32132W        W93795  35.866   1.881   2.384
32133W        W93796  39.417  29.425   0.444
32134W        W93797  14.149  20.166   4.345
32135W        W93798  37.520  43.843  12.046
32136W        W93799  29.919  29.661  11.013
32137W        W93800   7.768  12.256   3.307
32138W        W93801  20.222  26.126   4.239
32139W        W93802  28.092   8.686   5.227
32140W        W93803   2.236   0.259   2.378
32141W        W93804   4.206  10.163  14.470
32142W        W93805  28.151  29.562  12.872
32143W        W93806   2.746  18.770  12.012
32144W        W93807  30.944  23.230  14.961
32145W        W93808  24.710  23.989   0.260
32146W        W93809   3.865  14.639  14.350
32147W        W93810  29.665  39.480  14.298
32148W        W93811  32.895  20.049  12.574
32149W        W93812  11.211   0.756   1.266
32150W        W93813   8.403  13.672  13.810
32151W        W93814  14.702  20.129  14.406
32152W        W93815   4.861   0.751   1.384
32153W        W93816  41.873  34.030   0.267
32154W        W93817  26.560  40.402  10.643
32155W        W93818   6.215  21.042  12.055
32156W        W93819  29.614  14.709  11.067
32157W        W93820  30.918  19.049  14.465
32158W        W93821  35.566  22.220   0.346
32159W        W93822  29.501  26.047  10.620
32160W        W93823  11.206  10.216  10.422
32161W        W93824  41.388  36.885  13.427
32162W        W93825  35.097  19.600  14.873
32163W        W93826  16.290   9.732   4.156
32164W        W93827  33.097   9.764   0.945
32165W        W93828  16.631  18.063  14.841
32166W        W93829  35.030  25.998   3.680
32167W        W93830  20.761  37.439   4.680
32168W        W93831  39.957  42.461  12.038
32169W        W93832  36.423  19.193  14.843
32170W        W93833  38.972  38.012  14.833
32171W        W93834   9.232  25.565   1.883
32172W        W93835  33.977   9.345   2.691
32173W        W93836  13.129  32.107   2.702
32174W        W93837  28.167  21.122   0.261
32175W        W93838   0.813  37.474  14.353
32176W        W93839  38.055   2.449  12.531
32177W        W93840  11.332  44.318  10.452
32178W        W93841   9.648  35.992   4.272
32179W        W93842  11.671  24.005  14.957
32180W        W93843  44.775  21.722   1.890
32181W        W93844  36.454  33.061  13.926
32182W        W93845  32.081  28.144   1.442
32183W        W93846   7.356  38.847  12.381
32184W        W93847  30.599  22.195   2.350
32185W        W93848  12.645  26.059  11.393
32186W        W93849  39.321  14.757  13.956
32187W        W93850  31.632  43.781  11.502
32188W        W93851   8.844   6.854  13.330
32189W        W93852  28.487  43.370   5.198
32190W        W93853  42.388  31.148  11.935
32191W        W93854  27.645   2.441   1.696
32192W        W93855  13.115  36.516   3.232
32193W        W93856   5.886  36.404   2.801
32194W        W93857  32.430  29.500   4.172
32195W        W93858  10.167  21.077   4.351
32196W        W93859  10.766  39.345   4.234
32197W        W93860  10.856   6.356   4.642
32198W        W93861  14.738   0.859   2.708
32199W        W93862  34.597  17.713  11.399
32200W        W93863   7.361   4.923  13.400
32201W        W93864  42.463  18.728   2.250
32202W        W93865  37.448   3.369  11.066
32203W        W93866  32.016   8.780  12.341
32204W        W93867  22.649   2.930   0.850
32205W        W93868  19.577  42.803   0.424
32206W        W93869   3.383  19.541   4.688
32207W        W93870  16.159  42.373   0.362
32208W        W93871  41.472   3.734   2.372
32209W        W93872  28.982   7.224  13.432
32210W        W93873  24.508  12.705  13.547
32211W        W93874  42.775  29.426   0.443
32212W        W93875  20.251  37.368  11.069
32213W        W93876   6.403  15.184   2.816
32214W        W93877  30.086   1.945   2.321
32215W        W93878  35.856  42.295  13.419
32216W        W93879   9.649  23.224   3.709
32217W        W93880  28.598   9.307  12.356
32218W        W93881  12.728  11.666   3.331
32219W        W93882  36.016  17.629  10.585
32220W        W93883  22.714   4.827   3.640
32221W        W93884  18.790  37.909  13.460
32222W        W93885  42.514  26.593   3.866
32223W        W93886  26.553   2.820   1.759
32224W        W93887   6.776  25.188  14.017
32225W        W93888  11.676   3.864   3.631
32226W        W93889  24.057  14.269   0.744
32227W        W93890  10.265  41.832  14.782
32228W        W93891  32.956  40.896   2.773
32229W        W93892   0.494   3.874   3.790
32230W        W93893  40.017  24.673   2.270
32231W        W93894  26.996  44.450  13.434
32232W        W93895  29.603  18.692  11.598
32233W        W93896  16.130  40.457   4.684
32234W        W93897  29.570   8.274   4.248
32235W        W93898  41.427  17.658  14.401
32236W        W93899  13.271  18.244  12.457
32237W        W93900  25.469   2.963  12.088
32238W        W93901  33.521  23.527  14.840
32239W        W93902   2.736  25.217   3.172
32240W        W93903  34.408   2.350  14.869
32241W        W93904  24.224  43.015   3.830
32242W        W93905  21.697  12.675   4.176
32243W        W93906  12.127  38.403  12.091
32244W        W93907   8.886   2.905  11.557
32245W        W93908  43.944  23.229  11.517
32246W        W93909   4.914  37.372   5.173
32247W        W93910  35.038  16.081  12.062
32248W        W93911  38.376  35.402  13.038
32249W        W93912  21.114  10.823   0.911
32250W        W93913  31.402  10.353   2.751
32251W        W93914  28.672  35.906  14.404
32252W        W93915  38.563   3.416   3.344
32253W        W93916  37.493  40.366  13.350
32254W        W93917  23.540  20.239  11.939
32255W        W93918  34.427  20.572   1.309
32256W        W93919  35.007  39.318   1.219
32257W        W93920   5.835  36.441   1.729
32258W        W93921  21.022  32.902  11.577
32259W        W93922  25.560  22.658   1.909
32260W        W93923  40.915  22.568   1.414
32261W        W93924  28.023  23.705  13.999
32262W        W93925  34.395   8.777  13.519
32263W        W93926  18.699  36.398  12.946
32264W        W93927  41.980   1.865   1.211
32265W        W93928  38.046  29.973   3.657
32266W        W93929   7.730  25.532   3.253
32267W        W93930   1.781  33.936   1.836
32268W        W93931   2.742  34.092  12.950
32269W        W93932  34.591   5.383   9.565
32270W        W93933  42.806  29.096   0.362
32271W        W93934  29.467  39.030  10.081
32272W        W93935   4.353  28.668  11.892
32273W        W93936  23.636  31.505  12.561
32274W        W93937   6.885  16.665   3.322
32275W        W93938  33.446  19.570   1.708
32276W        W93939  40.810  43.411   2.195
32277W        W93940  42.820  11.162   1.301
32278W        W93941  22.672   5.339  13.037
32279W        W93942  17.794  26.080  13.902
32280W        W93943  20.624  21.715   2.356
32281W        W93944   8.341  18.644   1.755
32282W        W93945  19.212  33.111   3.247
32283W        W93946   2.880  16.093   3.279
32284W        W93947  16.275  20.575   2.838
32285W        W93948  42.900  32.018  12.938
32286W        W93949  41.001  23.239   1.742
32287W        W93950  13.788   4.424   1.734
32288W        W93951  33.407  12.778   5.269
32289W        W93952  43.448  25.591  12.033
32290W        W93953  28.144  12.778   2.667
32291W        W93954  10.877  39.909   4.694
32292W        W93955  11.360  25.524  12.473
32293W        W93956  17.581   7.901   4.278
32294W        W93957  26.577  24.205   5.231
32295W        W93958   8.669  19.596  12.079
32296W        W93959  15.616   5.861  11.512
32297W        W93960  39.465  15.245  10.577
32298W        W93961  11.700   4.772  12.405
32299W        W93962  38.925   6.269  10.546
32300W        W93963   9.677  12.127   4.148
32301W        W93964  34.082  29.947  11.859
32302W        W93965  33.410  37.580  11.516
32303W        W93966  43.770  15.798   3.805
32304W        W93967  39.387   2.229   3.718
32305W        W93968   6.272  23.517   1.220
32306W        W93969   0.871  12.854   2.871
32307W        W93970   1.261  10.729   4.662
32308W        W93971  33.556  33.424  10.087
32309W        W93972  16.740  15.754   5.081
32310W        W93973  18.120  10.714  12.937
32311W        W93974   0.768  23.648   2.876
32312W        W93975  24.213  31.926   4.703
32313W        W93976  17.557  29.153  14.779
32314W        W93977  32.057  21.163  10.138
32315W        W93978  35.458  21.730  12.986
32316W        W93979  44.920   0.322   0.394
32317W        W93980  39.534  18.131   4.180
32318W        W93981  25.556  16.763   0.308
32319W        W93982   3.906  33.123  12.429
32320W        W93983  43.910  29.475   2.851
32321W        W93984  32.442  26.952   3.287
32322W        W93985  25.575  33.046   1.807
32323W        W93986  26.692  16.232   3.236
32324W        W93987  26.550   4.372  13.829
32325W        W93988  29.144   2.285   3.243
32326W        W93989   8.261  27.033  12.461
32327W        W93990  34.982   1.830   1.415
32328W        W93991  26.661  38.428   4.820
32329W        W93992   6.417   4.415  11.865
32330W        W93993  14.636  17.149  10.617
32331W        W93994  14.695   6.236   3.349
32332W        W93995  26.004   2.768   4.817
32333W        W93996  41.039   6.304  10.454
32334W        W93997  24.141  27.179  12.412
32335W        W93998   7.377  15.240   0.402
32336W        W93999   5.754   4.227   1.762
32337W        W94000   4.345  11.131  10.545
32338W        W94001  32.609  10.198  13.418
32339W        W94002  39.825  13.769   5.705
32340W        W94003  29.518   3.216   2.681
32341W        W94004  18.270  20.224   0.457
32342W        W94005  23.697   6.389   2.842
32343W        W94006  13.202   9.685   4.676
32344W        W94007  40.415  16.236   0.910
32345W        W94008  17.617  13.269  14.007
32346W        W94009   5.719   9.643   0.283
32347W        W94010  28.976  25.156  12.476
32348W        W94011   1.881  34.450   4.226
32349W        W94012  28.439  41.395   4.152
32350W        W94013  24.523  18.756  14.008
32351W        W94014  16.206  26.115  11.578
32352W        W94015  31.985  14.715   2.773
32353W        W94016  18.247   9.211  13.448
32354W        W94017  27.008   8.333   1.281
32355W        W94018  10.878  16.108  11.883
32356W        W94019  11.850   3.404  12.066
32357W        W94020  19.211  30.001   4.333
32358W        W94021  20.656  12.221  10.924
32359W        W94022  10.256  29.485  11.526
32360W        W94023  22.251  29.621   0.387
32361W        W94024  27.950  41.892  12.089
32362W        W94025  29.596  42.856   3.176
32363W        W94026  41.921  15.190  12.522
32364W        W94027  42.435   7.179  12.045
32365W        W94028  25.056   1.418   1.284
32366W        W94029   9.770   5.718  13.002
32367W        W94030  41.038  17.303   4.325
32368W        W94031  29.491   0.259  11.449
32369W        W94032  30.082  16.295   2.254
32370W        W94033  11.786  29.079  12.396
32371W        W94034   0.766  32.598  13.465
32372W        W94035  18.218  29.930   4.149
32373W        W94036  40.384   7.212   3.851
32374W        W94037   5.329   3.877  11.500
32375W        W94038  17.752  21.237   2.752
32376W        W94039  43.319  11.310   0.824
32377W        W94040  15.292  18.548  14.393
32378W        W94041  32.399  12.218  12.839
32379W        W94042  33.441  28.077   4.138
32380W        W94043   8.247  27.521   2.227
32381W        W94044  13.212   8.170   9.501
32382W        W94045  25.534  34.492   0.726
32383W        W94046  40.393   5.215  14.965
32384W        W94047  14.314  24.230  13.054
32385W        W94048  12.338  38.398   4.222
32386W        W94049  43.004  14.257   3.804
32387W        W94050  25.021  35.896  13.318
32388W        W94051   8.872  13.224   0.305
32389W        W94052  30.659   2.748  14.488
32390W        W94053  33.961  26.029   4.213
32391W        W94054   5.753  27.665  12.385
32392W        W94055   7.278  25.534   3.270
32393W        W94056  23.088   2.235   2.328
32394W        W94057  33.049  31.607   4.336
32395W        W94058   0.298  35.485   1.286
32396W        W94059   1.451  24.199  14.838
32397W        W94060  43.445  41.947  14.468
32398W        W94061  20.641  43.464  14.864
32399W        W94062  15.223  44.985  13.404
32400W        W94063  26.621  24.723  14.909
32401W        W94064  42.504  14.233   9.612
32402W        W94065  11.663  21.514   0.346
32403W        W94066  44.800  29.621   3.696
32404W        W94067  24.186  25.478   1.344
32405W        W94068  41.534  12.160   3.201
32406W        W94069  25.594  13.656  13.973
32407W        W94070  30.943  29.000  11.562
32408W        W94071  14.112  32.130   4.610
32409W        W94072  14.266  41.025  11.974
32410W        W94073  32.448   5.900   4.823
32411W        W94074   2.833  39.900  12.915
32412W        W94075  35.042  28.452  14.032
32413W        W94076  31.430   7.696  12.525
32414W        W94077  38.429  23.999  14.923
32415W        W94078  10.834  21.624   0.320
32416W        W94079  43.962  30.648  10.620
32417W        W94080   6.914  23.993   3.662
32418W        W94081  14.789  32.026   1.235
32419W        W94082   0.347  22.556  11.041
32420W        W94083  24.997  42.506  10.941
32421W        W94084  25.009  32.417  14.856
32422W        W94085   5.422  27.579   1.736
32423W        W94086  13.631  31.136   1.402
32424W        W94087  37.902  15.198   3.850
32425W        W94088  42.415   4.402   0.334
32426W        W94089  18.737  28.513   0.450
32427W        W94090   3.733  21.134  13.048
32428W        W94091  18.080  21.586   2.663
32429W        W94092  22.219   0.252   4.652
32430W        W94093  14.645  29.540  13.488
32431W        W94094   5.306   2.868  14.864
32432W        W94095  32.067  25.631   2.766
32433W        W94096  24.487  32.490   4.826
32434W        W94097   0.448  15.577  13.516
32435W        W94098   7.899   6.390  13.499
32436W        W94099  23.575  21.144   0.863
32437W        W94100  26.553  11.321   1.323
32438W        W94101  15.680  40.414  13.389
32439W        W94102  44.810  40.412   2.246
32440W        W94103  13.777  10.678   3.820
32441W        W94104  12.140  24.224   1.348
32442W        W94105   1.308  16.788  12.052
32443W        W94106  44.816  44.485  14.941
32444W        W94107  24.576   1.437   2.683
32445W        W94108  38.997   5.200  14.510
32446W        W94109  31.553  36.480  11.389
32447W        W94110  32.545   3.432  10.016
32448W        W94111   6.703   6.366  13.505
32449W        W94112  22.132  10.820   0.851
32450W        W94113   2.808  42.424  10.499
32451W        W94114  16.795  16.217  10.997
32452W        W94115  13.343  10.224  13.863
32453W        W94116  25.990  33.987   1.756
32454W        W94117   0.773  25.050  12.485
32455W        W94118  13.251  27.984  10.503
32456W        W94119  12.265  14.801  13.427
32457W        W94120  22.599  12.752   4.816
32458W        W94121  23.042   5.347  10.014
32459W        W94122  40.937   7.872   4.827
32460W        W94123  35.047  26.658   5.290
32461W        W94124  30.481   9.806  10.620
32462W        W94125  23.684  28.020  13.915
32463W        W94126  17.204   2.870  11.399
32464W        W94127  17.776  27.088   1.228
32465W        W94128   6.796  29.934  11.882
32466W        W94129  37.022  18.275   4.729
32467W        W94130  34.938  44.402  14.468
32468W        W94131  37.344  37.008   3.386
32469W        W94132  19.673   0.893  11.957
32470W        W94133  37.933  21.230  10.107
32471W        W94134  18.599  17.079   3.805
32472W        W94135  29.085  41.042  12.836
32473W        W94136   0.390  30.096  12.925
32474W        W94137  35.454  10.169   4.192
32475W        W94138  27.033  11.229  12.426
32476W        W94139  11.165  30.552  13.890
32477W        W94140  32.891   7.773   2.179
32478W        W94141  30.583  10.217   3.331
32479W        W94142  15.624  21.749  10.128
32480W        W94143  13.712  38.854   4.798
32481W        W94144  15.676  12.669  13.546
32482W        W94145   2.298  26.536   4.744
32483W        W94146   8.661  38.979   2.803
32484W        W94147   2.864  39.449   3.282
32485W        W94148  35.977  22.569  10.996
32486W        W94149  17.600  11.853  12.462
32487W        W94150  11.729  17.062  11.598
32488W        W94151  11.321  14.156   1.299
32489W        W94152  10.712   8.768  13.442
32490W        W94153  37.983  17.572  11.531
32491W        W94154  22.234  36.890  10.990
32492W        W94155  19.770  42.448   0.812
32493W        W94156  35.874  44.005  12.865
32494W        W94157  44.910  26.652  11.521
32495W        W94158  29.616  11.129  11.392
32496W        W94159  44.821  37.076  13.893
32497W        W94160  34.098  40.532  13.926
32498W        W94161  31.408   6.345  11.960
32499W        W94162  25.991   1.867  12.910
32500W        W94163  16.313  36.481  13.825
32501W        W94164  39.811  36.423  13.453
32502W        W94165  32.455  29.641   2.303
32503W        W94166  22.116  44.416  11.409
32504W        W94167  22.183   0.831  11.504
32505W        W94168  31.427  41.876  12.984
32506W        W94169  18.238  37.988   3.855
32507W        W94170  42.391  31.081  12.907
32508W        W94171   2.302  13.218   4.289
32509W        W94172  31.628  15.705   1.257
32510W        W94173  44.320   0.840  11.083
32511W        W94174   7.695   9.184  13.332
32512W        W94175  35.577  36.932   4.785
32513W        W94176  37.966  27.475   4.722
32514W        W94177   2.449  41.962   0.246
32515W        W94178  24.049  21.511  11.071
32516W        W94179  35.435  17.103   2.224
32517W        W94180  14.624   4.711   0.463
32518W        W94181  21.585  37.380   1.865
32519W        W94182  39.060  17.740  14.979
32520W        W94183  15.752  24.976   2.382
32521W        W94184  15.647  26.957  12.076
32522W        W94185  25.175  44.377   1.830
32523W        W94186  32.994  17.635  11.372
32524W        W94187   5.416  23.095   3.192
32525W        W94188  28.598   4.879   2.220
32526W        W94189  14.714  38.496   3.764
32527W        W94190  10.763  15.736  10.129
32528W        W94191  21.707   8.196   1.850
32529W        W94192  21.116  41.500  10.024
32530W        W94193  26.987  41.936  12.546
32531W        W94194  24.975  34.576   1.314
32532W        W94195  14.629  29.627  12.828
32533W        W94196   2.421  11.359   3.195
32534W        W94197  34.899  29.965  10.946
32535W        W94198  11.253  30.144   3.308
32536W        W94199  26.672  16.690  13.970
32537W        W94200  23.617  40.906   3.317
32538W        W94201   7.357  18.625   3.185
32539W        W94202   5.353  39.003  13.970
32540W        W94203  39.408  21.594   1.389
32541W        W94204  23.187  22.591   3.635
32542W        W94205   6.189   5.729   4.597
32543W        W94206  19.554  23.586   1.392
32544W        W94207   5.233  34.031   4.222
32545W        W94208  32.618  36.952   4.656
32546W        W94209  23.181   4.791   2.671
32547W        W94210  32.914   5.729   1.431
32548W        W94211   7.825  10.382  12.382
32549W        W94212   2.886  28.656  12.900
32550W        W94213  33.494  20.040   1.211
32551W        W94214  44.354  28.653   4.162
32552W        W94215   9.833   6.910  10.063
32553W        W94216  41.931  11.147   3.363
32554W        W94217   6.689   6.783  12.051
32555W        W94218   8.392  21.120  11.028
32556W        W94219   8.654  37.531   1.244
32557W        W94220  32.022  30.615   0.345
32558W        W94221  34.522  33.028  14.923
32559W        W94222  14.646  37.911   2.712
32560W        W94223  23.507  34.483   4.330
32561W        W94224   0.384  15.131  13.011
32562W        W94225  33.484  44.260  11.026
32563W        W94226  38.491   0.955   1.431
32564W        W94227  13.711   6.321  12.022
32565W        W94228  31.486  15.259   1.366
32566W        W94229  35.600  41.336   0.748
32567W        W94230  33.942  41.892   0.958
32568W        W94231  12.721   2.352  14.928
32569W        W94232  41.407  35.562   3.177
32570W        W94233   3.460  20.611   3.358
32571W        W94234  32.612  40.871   4.309
32572W        W94235  17.201  32.025  10.096
32573W        W94236  21.675  39.054  12.831
32574W        W94237   7.218  36.363   2.355
32575W        W94238   2.829  23.519   1.252
32576W        W94239  26.044   5.371  14.800
32577W        W94240  38.571  28.526  11.382
32578W        W94241  23.145  17.294   2.243
32579W        W94242   3.768  22.212  10.630
32580W        W94243  39.499  11.252   2.765
32581W        W94244  29.469  30.567  13.833
32582W        W94245  26.551   4.911   2.413
32583W        W94246  22.120  19.071  14.285
32584W        W94247  28.107  12.853   4.206
32585W        W94248   4.919  15.263   0.419
32586W        W94249  35.444  40.875   2.209
32587W        W94250  44.322  40.018  14.334
32588W        W94251  19.682  44.914  10.411
32589W        W94252   0.753  12.186  13.052
32590W        W94253   3.241  11.210   0.271
32591W        W94254  39.440   5.419   0.384
32592W        W94255  40.984  33.965  12.514
32593W        W94256  27.947  13.136   4.208
32594W        W94257  38.913  26.048  11.951
32595W        W94258  16.763  37.932   2.219
32596W        W94259  21.024   5.802   1.447
32597W        W94260  23.238  32.049   0.431
32598W        W94261  34.069  30.942   4.282
32599W        W94262  39.551  24.582   4.820
32600W        W94263  28.144   6.736  10.596
32601W        W94264  26.150  42.935   3.815
32602W        W94265   0.382  21.164  11.110
32603W        W94266  39.006  33.423   4.141
32604W        W94267  31.115  32.129   0.346
32605W        W94268  12.619  31.424  11.982
32606W        W94269  23.997  20.652  13.914
32607W        W94270  32.605  14.799  11.567
32608W        W94271   1.837   5.285   0.439
32609W        W94272  36.480   9.712  11.096
32610W        W94273   1.339  18.100   4.351
32611W        W94274  19.044  19.171   2.849
32612W        W94275   7.182   1.829   0.963
32613W        W94276  31.137  36.882   2.215
32614W        W94277  37.026  32.447   3.156
32615W        W94278   3.320  31.471  11.568
32616W        W94279  30.659  39.409   0.879
32617W        W94280  28.973  18.718   4.119
32618W        W94281  24.520  28.624  10.539
32619W        W94282  12.316  40.829  13.355
32620W        W94283  30.091  15.671  11.910
32621W        W94284  34.531   4.303  11.035
32622W        W94285  33.455   6.234   0.478
32623W        W94286  36.088   4.404   4.331
32624W        W94287  37.979  33.540   2.215
32625W        W94288   1.939  41.941  12.889
32626W        W94289   3.775  18.559   0.796
32627W        W94290  43.482   0.799   4.604
32628W        W94291  16.147  36.414   9.475
32629W        W94292   4.266  10.265  12.577
32630W        W94293  28.641   5.195   4.622
32631W        W94294   2.897  19.753   2.723
32632W        W94295  31.914  30.564  13.374
32633W        W94296  12.123  19.057  13.951
32634W        W94297  18.578  30.953  11.477
32635W        W94298  32.996  36.047   2.410
32636W        W94299  39.963   4.720   1.261
32637W        W94300   8.348  20.043  10.930
32638W        W94301  41.308  27.623  12.937
32639W        W94302  15.198  16.309   5.785
32640W        W94303   8.886  29.573  13.489
32641W        W94304  10.156   2.947   1.436
32642W        W94305   2.798  12.844  14.275
32643W        W94306  27.593  25.052  13.032
32644W        W94307  19.585  34.523   2.404
32645W        W94308  12.273  39.546  12.086
32646W        W94309  34.436  43.460   2.376
32647W        W94310  23.188  44.901   4.633
32648W        W94311  24.011  11.135   4.785
32649W        W94312   7.211  38.328   2.864
32650W        W94313  19.548  11.693   3.183
32651W        W94314  28.609  15.610   2.298
32652W        W94315  29.609  37.509  13.434
32653W        W94316   9.774  31.967   1.282
32654W        W94317  19.110   5.832  13.318
32655W        W94318  41.957  32.489  12.011
32656W        W94319  15.307  12.275   0.828
32657W        W94320  14.598   0.878  12.489
32658W        W94321   6.274   9.824   1.237
32659W        W94322  22.503  44.317  10.965
32660W        W94323   8.186   3.836   2.242
32661W        W94324  19.625  13.650  12.528
32662W        W94325  42.356   0.782  13.060
32663W        W94326  25.962  16.600   0.820
32664W        W94327   8.219  23.544  11.602
32665W        W94328  14.594  32.017  14.762
32666W        W94329  36.989  14.325   1.804
32667W        W94330  25.601  36.082  11.460
32668W        W94331  14.217  36.369  12.424
32669W        W94332  13.316  20.611   4.323
32670W        W94333  21.605   1.440  13.829
32671W        W94334  20.558   7.347   2.330
32672W        W94335  14.265   0.276   1.381
32673W        W94336  43.425  31.929   2.190
32674W        W94337  38.075  10.870   2.304
32675W        W94338  27.657  16.306  11.513
32676W        W94339  24.033  25.966   2.320
32677W        W94340  44.923  43.945  14.409
32678W        W94341  39.433  21.704  12.049
32679W        W94342  14.195  22.562  12.447
32680W        W94343   9.886  20.610  11.409
32681W        W94344  19.744   6.219  10.445
32682W        W94345   9.279  13.144   2.230
32683W        W94346   2.308  42.006   1.703
32684W        W94347  11.703  20.674  10.569
32685W        W94348   0.338  16.084   3.640
32686W        W94349  11.621  26.609   0.805
32687W        W94350  39.489  16.291   3.641
32688W        W94351  21.676   3.814   3.228
32689W        W94352   4.290  20.689  10.593
32690W        W94353  28.571  33.542  13.805
32691W        W94354  35.531   3.273  12.441
32692W        W94355  14.251   7.810   2.829
32693W        W94356  27.559   7.731  13.411
32694W        W94357   4.898  36.578  12.984
32695W        W94358  14.742  18.763  10.953
32696W        W94359   6.873  40.839   4.633
32697W        W94360  14.648   0.982  13.896
32698W        W94361   2.322  43.828   4.349
32699W        W94362  29.062  35.457  13.544
32700W        W94363  25.468  18.151   5.224
32701W        W94364  32.904   0.262  14.855
32702W        W94365   3.274  20.608   4.288
32703W        W94366  38.828   3.369  14.451
32704W        W94367  11.839  32.126   2.736
32705W        W94368  34.400   3.307   3.295
32706W        W94369  31.575  43.784  12.893
32707W        W94370   8.687  31.482   4.776
32708W        W94371  14.677  25.062  10.510
32709W        W94372  10.636  28.136   3.709
32710W        W94373  19.040  36.347  14.893
32711W        W94374  22.011  33.564   0.339
32712W        W94375  36.949   3.283   5.244
32713W        W94376  14.139  13.340  11.391
32714W        W94377  38.954  12.806   2.688
32715W        W94378  18.656   3.877  13.874
32716W        W94379  37.909  40.924   1.343
32717W        W94380  19.568  25.975   2.885
32718W        W94381   6.895   6.704   1.281
32719W        W94382  42.362  44.986   0.370
32720W        W94383  12.167  14.666   2.231
32721W        W94384  29.580  17.649   3.801
32722W        W94385  39.972  31.597   4.288
32723W        W94386   7.859  32.031  13.974
32724W        W94387  12.847   3.250  12.573
32725W        W94388   7.341  42.354   1.382
32726W        W94389  27.618   7.293   4.303
32727W        W94390  28.989  18.639  14.835
32728W        W94391  33.894  42.484  11.058
32729W        W94392  44.341  41.849   1.720
32730W        W94393  12.232  39.812  11.115
32731W        W94394  14.316  39.863  11.122
32732W        W94395  27.454  30.655   2.404
32733W        W94396  23.118  23.729  11.508
32734W        W94397  29.434  10.792   1.326
32735W        W94398  28.973  31.148   3.182
32736W        W94399  25.980  21.625  14.979
32737W        W94400  19.582  44.368  13.480
32738W        W94401  28.478  13.142   0.289
32739W        W94402  14.810  14.105   4.778
32740W        W94403  14.302   1.475  12.350
32741W        W94404  17.639  31.957  12.482
32742W        W94405   1.429  23.689   0.965
32743W        W94406  39.922  42.908  13.895
32744W        W94407  31.432  28.112   1.373
32745W        W94408  33.574  15.801  13.948
32746W        W94409  32.038  27.176  11.097
32747W        W94410  23.681   5.265   2.873
32748W        W94411  12.820  14.835   4.136
32749W        W94412  25.662  38.467   2.881
32750W        W94413  12.147  16.626   0.477
32751W        W94414  42.335  42.393   3.261
32752W        W94415  39.321  28.014  12.888
32753W        W94416  22.089  32.074   4.714
32754W        W94417  29.024  27.629  13.537
32755W        W94418  44.445   4.838  12.913
32756W        W94419  30.108  37.415   4.732
32757W        W94420  24.636  29.622   3.362
32758W        W94421  32.399  13.721  13.954
32759W        W94422   6.809  13.845   1.274
32760W        W94423   1.394  22.639   1.375
32761W        W94424  27.141   8.405   3.845
32762W        W94425   6.782  15.590  13.500
32763W        W94426  12.739   2.389  13.854
32764W        W94427  33.616   3.237   2.350
32765W        W94428  26.645  43.816   0.931
32766W        W94429  35.521  31.435   2.665
32767W        W94430  27.167  39.509  13.820
32768W        W94431   8.303  10.766  13.517
32769W        W94432  44.882  19.540  13.378
32770W        W94433   1.445  12.262  11.477
32771W        W94434  35.852  16.611   3.224
32772W        W94435   0.786  29.092  14.896
32773W        W94436  22.536  28.540   1.362
32774W        W94437  42.982  22.201  11.869
32775W        W94438  25.708  41.027   0.293
32776W        W94439  27.996   8.673   4.316
32777W        W94440  29.642  41.907  13.321
32778W        W94441  25.207   1.835  14.383
32779W        W94442  43.365   9.298   3.147
32780W        W94443   0.869  43.490   4.129
32781W        W94444   5.853  10.369   0.253
32782W        W94445  33.893  34.604  11.396
32783W        W94446   7.201  30.455  14.908
32784W        W94447  11.631  35.580   0.889
32785W        W94448  32.125  41.007   4.689
32786W        W94449   4.427  24.191   2.674
32787W        W94450  14.645  31.580  14.434
32788W        W94451   5.362   3.272  10.913
32789W        W94452  39.404   7.795  13.318
32790W        W94453  11.641  31.476   1.774
32791W        W94454  41.344  20.631  14.335
32792W        W94455  14.283  40.479  12.853
32793W        W94456  11.203   0.776   4.243
32794W        W94457  34.571   7.328   0.374
32795W        W94458  35.865  15.171  13.529
32796W        W94459  41.002  17.205  14.455
32797W        W94460  38.911  32.477   2.863
32798W        W94461   0.971  41.371  13.951
32799W        W94462   2.768   5.920   1.365
32800W        W94463  34.021  24.647   4.195
32801W        W94464  18.155   1.827   1.820
32802W        W94465  14.243  29.613  14.339
32803W        W94466  22.213  30.022  14.371
32804W        W94467  16.213   0.977   3.860
32805W        W94468  43.802  11.653  10.947
32806W        W94469   5.406  22.525  10.124
32807W        W94470  16.108  22.189  12.542
32808W        W94471  21.756  38.931   9.967
32809W        W94472   5.257  36.921  11.560
32810W        W94473  24.558  39.437  13.385
32811W        W94474  17.718   8.224   2.838
32812W        W94475  35.855  22.091   4.332
32813W        W94476  22.731   5.907   4.761
32814W        W94477  26.700  42.444   0.336
32815W        W94478  20.115   8.695   0.356
32816W        W94479   8.193  44.821   4.199
32817W        W94480  23.986  23.022   4.232
32818W        W94481  29.951  14.198  11.015
32819W        W94482  17.580  27.072  12.381
32820W        W94483  21.101  11.269  11.125
32821W        W94484  26.672  44.397  14.305
32822W        W94485  18.133  12.691   3.721
32823W        W94486   9.353  18.646  14.492
32824W        W94487  23.182   4.805   5.711
32825W        W94488  35.358  41.317  13.475
32826W        W94489   9.773   6.343   3.310
32827W        W94490  37.057   8.233  11.076
32828W        W94491   5.882  22.666   2.717
32829W        W94492  38.033  34.054   3.346
32830W        W94493  37.013   8.879  14.019
32831W        W94494   6.276  20.664   1.876
32832W        W94495  44.950  17.593  13.027
32833W        W94496  30.093  23.049   3.262
32834W        W94497  12.298  29.657  14.908
32835W        W94498  28.467   5.267  12.018
32836W        W94499  31.626  43.319  11.602
32837W        W94500  37.008   9.362   4.713
32838W        W94501  32.916  40.960   3.653
32839W        W94502  20.067  11.214   4.674
32840W        W94503   1.955  10.201  12.340
32841W        W94504  15.593  23.497  11.060
32842W        W94505  32.902   8.785  10.444
32843W        W94506   0.895  27.059  14.772
32844W        W94507  33.894   8.207   4.646
32845W        W94508  31.440  22.530   4.315
32846W        W94509  24.509  28.109   1.388
32847W        W94510  17.743   1.880   2.839
32848W        W94511  20.724  24.606   3.682
32849W        W94512  42.395   6.908  13.902
32850W        W94513  12.691  13.257   1.846
32851W        W94514  13.738  24.685  14.492
32852W        W94515   4.282   4.422  12.381
32853W        W94516  39.549  42.340  11.951
32854W        W94517  10.643   2.285   3.775
32855W        W94518  21.583  33.413  14.766
32856W        W94519  34.459  21.135   3.352
32857W        W94520  20.754  17.752   1.741
32858W        W94521  28.651   9.229  10.443
32859W        W94522   6.734  35.359   4.599
32860W        W94523   0.404  39.894   3.753
32861W        W94524  26.983  43.021  12.367
32862W        W94525  32.457   9.153   2.680
32863W        W94526  17.610  38.407   1.731
32864W        W94527  25.094  18.175  10.948
32865W        W94528  43.418   8.349  13.516
32866W        W94529   5.327  16.089   1.299
32867W        W94530  39.548  38.530   2.819
32868W        W94531  29.132  14.212  11.378
32869W        W94532   2.395  28.533  12.844
32870W        W94533   4.242  41.378  11.529
32871W        W94534  22.110  31.946  13.363
32872W        W94535  35.895  17.599   0.889
32873W        W94536  12.339   9.866   4.704
32874W        W94537  17.103  18.278   2.304
32875W        W94538  35.378  15.806  12.987
32876W        W94539   5.398  10.363  12.566
32877W        W94540  33.439   8.393  13.384
32878W        W94541  39.037  14.665   1.435
32879W        W94542  35.033   7.691   4.323
32880W        W94543  36.844   6.400   2.253
32881W        W94544  31.444   5.223   2.842
32882W        W94545  31.152  15.176  12.973
32883W        W94546  31.571  36.435   0.259
32884W        W94547  30.162  10.878   3.639
32885W        W94548  26.105  32.904   1.817
32886W        W94549  24.136  38.364  12.012
32887W        W94550  34.551  21.066   0.850
32888W        W94551  12.647  17.135   4.692
32889W        W94552   6.413  43.003  10.420
32890W        W94553   3.305  20.106   4.727
32891W        W94554  17.571  28.568   3.661
32892W        W94555  17.153   5.353   4.117
32893W        W94556   7.314  39.918  13.881
32894W        W94557  23.215  18.665  11.886
32895W        W94558  22.746   8.228  11.116
32896W        W94559   9.319  15.604   2.715
32897W        W94560  37.050  16.101  13.325
32898W        W94561  43.365  18.774   1.805
32899W        W94562  31.580  18.777   3.269
32900W        W94563  35.560  42.301   4.178
32901W        W94564   7.733  31.030  14.795
32902W        W94565  33.113  22.723   0.280
32903W        W94566  15.197  39.481   4.278
32904W        W94567  44.405   2.933  10.462
32905W        W94568  44.481  39.480  14.342
32906W        W94569  26.957  13.163  14.279
32907W        W94570  34.922   9.236  12.361
32908W        W94571  13.345   0.823  14.334
32909W        W94572   1.466  22.581   3.657
32910W        W94573  12.254  15.704  13.952
32911W        W94574   0.801  24.222   0.361
32912W        W94575  19.704  12.219   4.735
32913W        W94576  35.595  20.129  10.900
32914W        W94577  10.138   0.254   3.740
32915W        W94578  44.849   8.839  11.856
32916W        W94579   5.420  10.692   3.737
32917W        W94580  36.005   7.840  14.454
32918W        W94581  15.588  30.499  10.623
32919W        W94582  10.874  39.359  12.873
32920W        W94583  14.745   4.414   2.872
32921W        W94584  20.126  32.062  12.549
32922W        W94585  26.700  19.537   3.704
32923W        W94586  12.154   7.395   0.375
32924W        W94587  38.357  21.239   1.221
32925W        W94588  12.349  32.129  13.925
32926W        W94589  13.836   0.826   1.392
32927W        W94590   6.685  13.272  13.511
32928W        W94591   0.261   0.865   3.343
32929W        W94592  15.724  43.313   3.736
32930W        W94593  31.487  32.911  14.976
32931W        W94594   8.788  30.587  14.491
32932W        W94595  42.476  44.387  13.021
32933W        W94596  31.954  39.949   3.193
32934W        W94597  23.540  26.099   3.790
32935W        W94598   6.840  31.922  14.805
32936W        W94599  37.021  40.340   2.807
32937W        W94600  21.236   8.211   0.385
32938W        W94601  38.470   2.402   1.730
32939W        W94602  42.409  29.655  14.373
32940W        W94603  33.527  31.081   3.711
32941W        W94604  28.005  13.323   0.737
32942W        W94605  10.334   0.765  13.839
32943W        W94606  15.786  39.868  12.561
32944W        W94607   3.803  11.329   0.908
32945W        W94608   5.260  21.214  13.428
32946W        W94609  20.066  15.302   0.440
32947W        W94610  42.330  39.967  13.417
32948W        W94611  15.208  43.297  12.932
32949W        W94612   5.344   5.738  11.018
32950W        W94613   7.830  10.842  14.838
32951W        W94614  33.924  16.597  11.914
32952W        W94615  22.728  37.981   0.242
32953W        W94616  10.844  36.520   3.832
32954W        W94617  40.973  36.963   0.803
32955W        W94618   1.929  25.073  13.939
32956W        W94619  24.535  37.506   2.180
32957W        W94620  28.542  16.111  13.963
32958W        W94621  35.047  33.874   0.272
32959W        W94622  34.433  42.893   0.376
32960W        W94623  15.711   9.735  12.428
32961W        W94624   3.322   6.195   4.163
32962W        W94625   7.238   7.368  13.891
32963W        W94626  21.180   8.390   1.708
32964W        W94627   1.367   0.850   3.804
32965W        W94628  14.307  35.551   5.760
32966W        W94629  36.056  34.973  14.287
32967W        W94630   0.310   3.863   4.689
32968W        W94631  27.090  16.634  10.513
32969W        W94632  35.369  26.183  14.384
32970W        W94633  34.933  15.210   0.911
32971W        W94634  31.924  13.738   0.246
32972W        W94635  24.041   0.443   1.827
32973W        W94636  16.134  43.951  13.941
32974W        W94637  16.296  11.709   3.859
32975W        W94638   0.932  23.541  14.824
32976W        W94639  35.492  12.250  12.562
32977W        W94640  36.876  32.539  14.829
32978W        W94641   3.888  26.951  10.620
32979W        W94642   1.478   0.922  10.466
32980W        W94643  31.140  36.587  14.280
32981W        W94644   1.367  39.009   0.368
32982W        W94645  25.100  30.416  11.079
32983W        W94646  20.569  42.859   3.277
32984W        W94647  13.843  31.000  14.763
32985W        W94648  27.668  23.668  13.352
32986W        W94649  36.844   3.221   0.944
32987W        W94650  20.591  24.102   0.254
32988W        W94651  23.190  13.702   3.683
32989W        W94652   2.929   8.658   4.241
32990W        W94653  31.611  43.954   0.340
32991W        W94654  35.549  23.044   4.781
32992W        W94655  23.641  37.867  14.304
32993W        W94656  42.794  38.853  13.990
32994W        W94657  27.160  30.587   3.291
32995W        W94658  35.468  40.545   2.743
32996W        W94659  17.247   9.661  12.433
32997W        W94660   5.884  24.031   0.732
32998W        W94661  39.823  26.164  13.331
32999W        W94662  11.346  19.091   1.412
33000W        W94663  41.441  32.023   2.678
33001W        W94664  28.641   2.907   3.665
33002W        W94665  23.729  22.208  13.045
33003W        W94666  18.558   4.351   3.297
33004W        W94667  30.114   5.751  14.877
33005W        W94668  32.140  15.585  11.488
33006W        W94669   0.879  25.685   4.695
33007W        W94670   6.835  35.994  14.856
33008W        W94671  43.302   3.362   4.190
33009W        W94672  23.231  31.535   4.138
33010W        W94673   3.229  26.122  10.995
33011W        W94674  17.107  29.426   1.923
33012W        W94675  44.406  28.490  13.995
33013W        W94676   8.313  32.068   2.260
33014W        W94677  32.498  25.601   4.333
33015W        W94678   5.826  41.021   1.729
33016W        W94679  26.644  22.235   1.695
33017W        W94680  30.010   6.848   4.704
33018W        W94681  17.593  13.149  12.942
33019W        W94682  36.927  32.913   1.746
33020W        W94683  41.007   9.813  11.520
33021W        W94684  13.821  25.966   3.214
33022W        W94685  34.516  41.966   0.854
33023W        W94686  32.137  23.634  12.457
33024W        W94687  35.528  37.844   3.153
33025W        W94688  27.564  14.284   1.903
33026W        W94689  18.126  29.992   2.241
33027W        W94690  27.105  24.215   0.892
33028W        W94691  20.672   6.923   1.707
33029W        W94692  40.958   3.860   1.729
33030W        W94693  30.037  34.514  11.436
33031W        W94694  32.632  34.099  11.110
33032W        W94695  15.697  24.120   3.346
33033W        W94696  11.765  12.700   3.280
33034W        W94697  12.743   9.800  12.349
33035W        W94698  36.398  15.629   1.259
33036W        W94699  21.721  23.009   1.295
33037W        W94700  32.066  24.076  14.387
33038W        W94701  19.118  35.540   3.355
33039W        W94702  35.457  43.862  11.543
33040W        W94703  14.222   1.827   4.148
33041W        W94704  43.809  42.851   4.697
33042W        W94705  27.040  21.224  14.941
33043W        W94706   6.296  22.117  11.512
33044W        W94707  22.740  39.913  10.586
33045W        W94708  41.419   9.667  12.047
33046W        W94709   6.292  36.082  11.958
33047W        W94710  23.613  41.029  10.420
33048W        W94711   5.325  36.562  11.922
33049W        W94712   4.706  30.948  11.014
33050W        W94713  24.025  28.587  14.481
33051W        W94714  37.844  10.309  10.573
33052W        W94715  36.053  28.582  13.392
33053W        W94716   2.876  18.220   0.872
33054W        W94717  36.977  16.286   3.739
33055W        W94718  27.979  14.589   3.147
33056W        W94719  44.501  14.814   3.850
33057W        W94720   1.873  15.199  14.496
33058W        W94721  35.893  44.883  11.436
33059W        W94722  31.970  38.887  12.824
33060W        W94723  25.511  31.059  11.984
33061W        W94724  16.103  39.911   0.302
33062W        W94725  11.853   3.915  10.897
33063W        W94726  31.076  25.640  11.413
33064W        W94727  43.823  30.935  10.572
33065W        W94728   7.723  15.801   4.279
33066W        W94729  27.524   7.387  14.507
33067W        W94730  24.137  18.155  13.020
33068W        W94731  36.036   6.251  13.513
33069W        W94732  16.143  15.599   0.755
33070W        W94733  16.275  11.798  14.910
33071W        W94734  12.232  42.438  13.374
33072W        W94735  40.507  17.670   1.420
33073W        W94736  26.582  17.690  14.990
33074W        W94737  19.761  16.750  14.923
33075W        W94738  39.556  39.911  13.924
33076W        W94739   6.380  19.553   3.861
33077W        W94740   6.362  44.294  11.113
33078W        W94741  34.573  35.912  11.902
33079W        W94742  15.196  44.775   4.311
33080W        W94743  31.631   7.344  10.441
33081W        W94744   8.846   4.421   0.324
33082W        W94745  29.949  19.076  12.544
33083W        W94746  29.527  33.054  12.956
33084W        W94747  33.549  38.452   4.781
33085W        W94748   8.725  36.442   0.890
33086W        W94749  22.178  14.726   1.712
33087W        W94750   4.807  24.122  12.559
33088W        W94751  17.677  38.392  10.974
33089W        W94752  42.899  18.551   4.120
33090W        W94753   0.791  44.928  12.497
33091W        W94754  29.080  39.047  14.492
33092W        W94755  25.101   7.784  12.832
33093W        W94756   7.324  44.947   2.381
33094W        W94757  26.604  42.462  12.989
33095W        W94758  43.935  12.760  11.040
33096W        W94759  10.222  39.364   4.625
33097W        W94760  31.937   7.780  11.452
33098W        W94761  29.652  39.868  14.486
33099W        W94762  33.595   0.962   4.161
33100W        W94763  21.135  22.537   0.392
33101W        W94764   7.270  27.082   4.214
33102W        W94765  40.990  17.279   9.958
33103W        W94766  31.066  31.025  10.434
33104W        W94767   0.898  31.591   1.445
33105W        W94768   3.412  16.577   3.865
33106W        W94769   0.482  13.708   1.930
33107W        W94770   4.751  44.982  12.466
33108W        W94771  37.989   0.485   1.704
33109W        W94772   8.369   8.290   4.637
33110W        W94773   1.943  25.567   4.817
33111W        W94774  43.496   8.389  14.827
33112W        W94775  23.040  30.075  11.033
33113W        W94776  25.695  38.337   3.769
33114W        W94777  39.356   6.856   1.294
33115W        W94778   6.760   7.210  14.887
33116W        W94779  37.039   0.363   2.826
33117W        W94780  37.888  29.490   4.163
33118W        W94781  14.143   4.330   2.863
33119W        W94782  11.373  22.701  13.031
33120W        W94783  33.536  29.993  13.499
33121W        W94784  31.439  29.527  11.046
33122W        W94785   2.728  39.400   4.118
33123W        W94786   3.450  33.960  14.862
33124W        W94787   3.754  39.431   3.864
33125W        W94788   7.693  34.410  11.482
33126W        W94789   8.734  15.302  13.333
33127W        W94790  17.721  30.644  12.510
33128W        W94791   9.377   7.789  12.915
33129W        W94792  21.531  29.481   2.359
33130W        W94793  14.162  12.620   4.329
33131W        W94794  19.718  43.920  13.839
33132W        W94795  41.492  35.866  12.382
33133W        W94796  19.218  11.166   4.838
33134W        W94797  38.960   6.394  14.490
33135W        W94798  37.031  22.599  13.484
33136W        W94799  41.498  17.772   3.356
33137W        W94800  36.939   2.233   1.828
33138W        W94801  14.799  32.084  11.438
33139W        W94802  30.929  43.793  14.006
33140W        W94803   9.322   9.662  14.771
33141W        W94804  17.731  43.466  11.081
33142W        W94805  35.068   0.774  14.282
33143W        W94806  35.550  10.786  12.527
33144W        W94807  15.683   4.255   2.702
33145W        W94808   4.745  19.555  10.013
33146W        W94809  10.326   8.307  12.981
33147W        W94810   8.301  13.618   4.223
33148W        W94811  27.178   0.453   0.470
33149W        W94812   6.725  22.668   2.178
33150W        W94813  23.570   9.649   4.131
33151W        W94814  14.640  13.706  12.412
33152W        W94815  27.163   4.259  14.834
33153W        W94816   3.903  27.565  14.017
33154W        W94817  29.952  32.555   2.663
33155W        W94818  31.153  14.094   2.822
33156W        W94819  42.326  32.140  11.097
33157W        W94820  39.478   5.733  14.380
33158W        W94821  15.634  25.058  13.849
33159W        W94822  31.106   9.302  14.419
33160W        W94823  23.620   2.814  12.079
33161W        W94824   4.450  20.179  11.557
33162W        W94825  29.607  28.575  13.894
33163W        W94826  21.122  30.547  10.138
33164W        W94827  35.379  20.107  10.548
33165W        W94828  13.732  10.188  11.883
33166W        W94829  37.974  15.697   3.843
33167W        W94830  43.006  16.137   1.314
33168W        W94831   0.974  19.735  14.364
33169W        W94832  38.427  34.480   0.951
33170W        W94833  24.612  27.097   4.731
33171W        W94834   6.274  24.164  12.836
33172W        W94835  29.484  11.771  11.489
33173W        W94836  44.860  40.874  11.409
33174W        W94837  38.021  18.623   2.675
33175W        W94838  22.022  23.060  14.986
33176W        W94839  34.976  28.551  12.865
33177W        W94840  38.541   7.844  13.833
33178W        W94841  26.570  27.560  12.346
33179W        W94842  36.452  20.106   0.875
33180W        W94843   8.769  37.567  12.481
33181W        W94844  11.826  20.626  12.492
33182W        W94845  16.218  39.368  12.388
33183W        W94846  15.723  14.715   1.787
33184W        W94847   5.349  12.791  14.906
33185W        W94848   9.740  35.483  13.034
33186W        W94849  28.583  43.919  14.934
33187W        W94850  10.354   9.787  13.881
33188W        W94851  19.233  36.457  13.940
33189W        W94852  10.751  22.159   0.426
33190W        W94853  41.511   2.275   3.148
33191W        W94854  40.852  15.168   4.172
33192W        W94855  32.932   5.390  12.029
33193W        W94856  16.675  32.625  11.502
33194W        W94857  22.128  27.171   1.318
33195W        W94858  38.548  26.953   3.633
33196W        W94859  33.526  11.697  14.978
33197W        W94860  39.923  10.211   1.325
33198W        W94861  32.998  16.281   4.604
33199W        W94862  35.864  36.366   2.754
33200W        W94863  39.943   4.378   0.791
33201W        W94864  44.805  13.698   5.151
33202W        W94865  24.156  13.225   0.889
33203W        W94866  38.063  40.835  11.949
33204W        W94867  17.605  11.836   0.819
33205W        W94868  26.111  39.474  13.417
33206W        W94869  31.902  39.470   2.714
33207W        W94870  20.596  11.350  13.033
33208W        W94871  25.647  44.859  11.452
33209W        W94872  13.670  37.003   0.911
33210W        W94873  32.490  19.209   1.908
33211W        W94874  25.069   6.288  10.931
33212W        W94875  30.458  10.206   2.721
33213W        W94876  32.401  11.800   2.406
33214W        W94877   2.909  27.009   4.721
33215W        W94878  42.881  37.920   1.344
33216W        W94879  43.506  29.631   4.230
33217W        W94880  10.872  31.125   0.332
33218W        W94881  26.635  36.500  14.895
33219W        W94882  41.925   3.340  11.982
33220W        W94883  38.504  22.179  14.862
33221W        W94884   5.281  18.281   1.373
33222W        W94885  12.203  39.039   1.916
33223W        W94886  32.928  43.012  10.037
33224W        W94887  16.305   3.797  14.913
33225W        W94888  39.010  17.748   4.310
33226W        W94889   5.750   5.753  11.428
33227W        W94890  19.254  13.171   1.910
33228W        W94891  28.091  37.571  10.104
33229W        W94892   9.774  28.650   4.341
33230W        W94893  31.427  10.760   3.160
33231W        W94894  35.544   7.257   2.710
33232W        W94895  29.425  43.960  13.325
33233W        W94896   0.768  14.264  11.441
33234W        W94897   5.856  23.034  10.599
33235W        W94898  30.112  35.570  14.286
33236W        W94899  25.647  13.777  11.067
33237W        W94900  15.256  24.046   2.236
33238W        W94901   2.762  41.808   1.271
33239W        W94902   6.810  27.547  13.539
33240W        W94903  35.387  43.449  11.951
33241W        W94904   7.773  14.155  10.479
33242W        W94905  10.715  34.949  13.456
33243W        W94906  33.587  17.644  14.311
33244W        W94907  38.872  22.732  12.536
33245W        W94908  44.758  27.611  11.009
33246W        W94909  13.333  40.339   4.784
33247W        W94910  13.822  34.931  13.418
33248W        W94911   9.847  31.947  14.960
33249W        W94912  31.127  20.177   4.224
33250W        W94913  26.504  20.032  12.529
33251W        W94914  24.722  13.669  13.815
33252W        W94915  16.727  38.857   2.296
33253W        W94916  21.685  17.282   0.309
33254W        W94917  22.553  32.009   3.233
33255W        W94918  44.934  22.079   0.760
33256W        W94919  13.650  30.048  14.278
33257W        W94920  25.687  23.130   2.375
33258W        W94921  15.105   9.274  14.277
33259W        W94922  30.080  16.180   3.691
33260W        W94923  27.149   0.942   4.823
33261W        W94924   8.220  39.321   3.167
33262W        W94925  43.913   0.870   2.736
33263W        W94926  20.169  18.675  13.400
33264W        W94927   3.248  38.852  13.018
33265W        W94928  27.551  41.834  12.851
33266W        W94929  21.045  30.152   1.302
33267W        W94930  13.139  20.730  13.978
33268W        W94931  28.652  34.523   3.222
33269W        W94932  33.591  10.683   3.687
33270W        W94933   2.888  44.333  12.915
33271W        W94934  39.444  33.987  14.309
33272W        W94935   8.660   4.371  13.402
33273W        W94936   1.406  31.963   0.955
33274W        W94937  26.086  43.962  11.591
33275W        W94938  16.221   2.898  14.884
33276W        W94939  25.560  28.455  14.438
33277W        W94940  25.576   5.874   1.814
33278W        W94941  41.983  41.478   0.317
33279W        W94942   3.810  38.041   2.289
33280W        W94943   3.273  40.896   4.624
33281W        W94944  41.507   1.444   3.635
33282W        W94945   9.180  33.451  12.434
33283W        W94946  18.134  10.225  13.387
33284W        W94947  14.333  31.997   9.934
33285W        W94948  18.670  32.404   3.750
33286W        W94949  34.117   5.745   3.298
33287W        W94950   2.809  40.451  13.966
33288W        W94951  34.895  27.083  13.493
33289W        W94952  44.987  43.507  12.555
33290W        W94953  27.139  19.634   0.822
33291W        W94954   5.215  29.092  11.538
33292W        W94955   1.927  11.779   4.716
33293W        W94956   4.416  39.555  11.863
33294W        W94957  36.495   5.247  14.411
33295W        W94958  35.505   5.812  10.422
33296W        W94959  39.061  43.936  10.407
33297W        W94960   9.717  23.005   1.807
33298W        W94961   1.371   3.783  11.918
33299W        W94962   8.738   4.770   3.251
33300W        W94963  28.141   8.861   1.775
33301W        W94964  16.745  10.310   4.618
33302W        W94965  17.218  44.443  12.887
33303W        W94966  32.113   2.935   1.930
33304W        W94967  28.644   9.281   0.466
33305W        W94968  18.271  39.994   2.690
33306W        W94969   3.391  42.785   3.349
33307W        W94970  27.169  36.021  11.496
33308W        W94971  44.989  35.050   0.452
33309W        W94972  32.929  30.134  10.453
33310W        W94973  35.098  21.711   1.411
33311W        W94974  29.551   3.850   0.814
33312W        W94975  39.866  30.442  11.889
33313W        W94976   9.784  18.547   3.173
33314W        W94977  35.024   3.446  11.372
33315W        W94978  41.980  44.949   2.245
33316W        W94979   7.837  11.350   4.122
33317W        W94980  44.466  16.574  12.094
33318W        W94981  35.958  29.440  12.838
33319W        W94982  13.336  10.220  13.344
33320W        W94983   2.783  30.416   4.650
33321W        W94984   7.277  28.674  11.485
33322W        W94985  28.465  33.077   2.375
33323W        W94986  12.149  43.804  11.563
33324W        W94987   0.844  29.479  11.448
33325W        W94988  34.423  12.164   2.805
33326W        W94989  40.401   1.827   4.184
33327W        W94990  31.551  20.737  13.373
33328W        W94991  22.743  39.466   2.285
33329W        W94992  36.079  41.828   2.823
33330W        W94993  37.935  21.218   4.797
33331W        W94994   7.326  22.232  14.496
33332W        W94995  42.516  28.634   4.167
33333W        W94996  39.484  36.424  12.857
33334W        W94997  38.453  22.025  11.565
33335W        W94998  17.578   5.271  11.405
33336W        W94999  24.193   5.348   0.421
33337W        W95000  39.503  13.117   2.691
33338W        W95001  33.510  17.118  11.396
33339W        W95002  26.595  35.093  13.897
33340W        W95003  20.248  14.815   3.853
33341W        W95004  36.063  25.023  14.763
33342W        W95005  12.293  39.855   3.644
33343W        W95006   3.371   3.285  13.047
33344W        W95007  23.611  13.757  13.313
33345W        W95008  19.691  26.564   2.868
33346W        W95009  22.058   7.833  12.402
33347W        W95010  43.440   5.850   3.211
33348W        W95011  31.436  11.226   2.678
33349W        W95012  31.082  32.585   2.319
33350W        W95013  17.775  21.042  14.824
33351W        W95014   5.860  20.046  10.636
33352W        W95015  44.266  27.173   0.738
33353W        W95016  30.432   7.387   1.815
33354W        W95017  39.995   5.248  14.507
33355W        W95018  33.416  40.022   4.684
33356W        W95019  43.271   8.833  14.335
33357W        W95020  24.980  27.987   0.898
33358W        W95021  13.283   7.198   2.344
33359W        W95022  14.701   9.874   2.754
33360W        W95023   9.341   6.891   4.273
33361W        W95024  15.289   4.830  12.826
33362W        W95025  44.287  24.218  11.388
33363W        W95026  21.201   3.790  12.360
33364W        W95027  10.732  41.915   1.237
33365W        W95028  44.846  15.302   3.364
33366W        W95029  13.800  21.149  11.496
33367W        W95030  36.477  27.164  13.366
33368W        W95031  27.607  27.153   4.225
33369W        W95032  23.549  38.399  10.601
33370W        W95033  36.886  31.992   2.288
33371W        W95034  44.497  19.650  11.475
33372W        W95035  40.320  29.495   2.234
33373W        W95036  34.002  16.084   2.202
33374W        W95037  44.909  38.883  10.434
33375W        W95038   3.446  44.290  14.381
33376W        W95039  40.542  14.154   2.723
33377W        W95040  21.738  23.182  13.399
33378W        W95041  35.517  28.445   0.455
33379W        W95042  37.010  26.080  12.374
33380W        W95043  10.879  42.362  13.864
33381W        W95044  26.972  28.978  13.342
33382W        W95045  32.120  38.552  12.470
33383W        W95046  16.714  20.734  14.769
33384W        W95047  25.039  42.865   1.286
33385W        W95048  18.790  19.765   2.845
33386W        W95049  18.712  38.843  10.123
33387W        W95050  28.667  22.563   0.797
33388W        W95051  16.125  15.699  11.863
33389W        W95052  36.858  44.293   1.832
33390W        W95053  36.568  26.009  11.110
33391W        W95054   9.299  19.600   2.832
33392W        W95055  14.641  11.314   4.269
33393W        W95056  15.578  34.949  14.418
33394W        W95057   6.338  15.200  12.421
33395W        W95058  26.693   5.410  12.091
33396W        W95059  28.182   2.751   2.895
33397W        W95060  23.699  43.800   2.780
33398W        W95061  25.195  29.950  14.512
33399W        W95062   0.870   0.374  10.007
33400W        W95063   7.192  33.949  14.890
33401W        W95064  35.029  16.187  13.347
33402W        W95065   8.851   1.384  14.323
33403W        W95066  22.502  20.734   4.757
33404W        W95067  41.512  21.641   1.276
33405W        W95068  31.073  39.879   4.678
33406W        W95069  22.246  28.065   1.367
33407W        W95070  43.946  15.614   2.291
33408W        W95071   6.815  17.789   0.734
33409W        W95072  29.994  39.865  13.048
33410W        W95073  27.142  27.529   1.258
33411W        W95074  25.551  40.847  12.079
33412W        W95075  37.026   7.380   3.676
33413W        W95076  33.130  11.203   3.827
33414W        W95077   3.826   0.338  14.829
33415W        W95078  36.495  14.252   0.434
33416W        W95079  26.499  39.340  10.613
33417W        W95080  36.951  39.541   0.758
33418W        W95081  30.093  10.140   2.227
33419W        W95082  13.248  33.435   3.832
33420W        W95083  32.095   3.889   2.260
33421W        W95084   3.719  40.914   2.898
33422W        W95085  35.425  23.140  11.866
33423W        W95086  19.560  30.045   4.279
33424W        W95087   0.277  26.197  10.430
33425W        W95088  16.673  20.057   1.906
33426W        W95089  10.324  42.363  10.565
33427W        W95090  40.344  14.290  11.519
33428W        W95091   7.261  12.198   2.399
33429W        W95092  40.912  31.620   2.873
33430W        W95093   7.780  18.577   3.847
33431W        W95094  10.202  39.423   2.305
33432W        W95095  38.436  31.557  12.865
33433W        W95096  17.214  39.052   3.290
33434W        W95097  14.193   5.241  12.077
33435W        W95098  41.302  44.433   2.675
33436W        W95099  24.068  27.176  14.433
33437W        W95100  16.610  29.562  10.572
33438W        W95101  34.432  25.037  11.126
33439W        W95102  20.120   7.671   1.352
33440W        W95103   1.454  11.224  10.466
33441W        W95104  14.300  11.306   1.305
33442W        W95105   6.344  38.481  14.842
33443W        W95106   0.824  19.627   0.817
33444W        W95107  33.993  32.967  14.882
33445W        W95108   9.395  17.296   4.355
33446W        W95109   9.294  27.627  14.465
33447W        W95110  29.597  22.080   1.776
33448W        W95111  40.375   8.747   1.822
33449W        W95112  20.063  29.478  14.001
33450W        W95113  11.138   1.445   2.812
33451W        W95114  27.633   8.676   3.290
33452W        W95115  36.039  43.296  13.010
33453W        W95116   3.879  39.364  14.801
33454W        W95117  33.045  16.805   1.845
33455W        W95118   3.458  33.495   0.478
33456W        W95119  20.057  16.312  12.537
33457W        W95120   7.698   1.824   1.844
33458W        W95121  34.552  26.531   0.840
33459W        W95122  39.835  26.192  11.933
33460W        W95123  15.766  44.330  12.877
33461W        W95124  34.979  30.542  10.026
33462W        W95125  39.060  34.416  14.447
33463W        W95126   0.966  29.936   1.869
33464W        W95127  26.480  21.102  11.862
33465W        W95128  13.701  29.619  14.516
33466W        W95129  19.214  18.231  12.456
33467W        W95130  24.020  11.271  11.893
33468W        W95131  29.935   1.391   4.169
33469W        W95132  37.570   3.875   4.242
33470W        W95133  42.914  44.906  12.347
33471W        W95134   0.270  17.610  13.930
33472W        W95135  10.353  19.205  13.936
33473W        W95136  33.612   8.741  14.971
33474W        W95137  17.566   3.378  10.904
33475W        W95138  43.374  21.235   2.801
33476W        W95139  29.569  31.927   3.161
33477W        W95140  28.998  11.356   3.267
33478W        W95141  11.142  30.937  11.523
33479W        W95142  40.938   2.313   0.292
33480W        W95143  43.857   6.244  11.593
33481W        W95144  28.102   1.268   3.229
33482W        W95145   9.831   5.734  12.047
33483W        W95146  29.121  12.233  13.967
33484W        W95147  23.551  31.426  10.426
33485W        W95148  38.425  32.075   1.438
33486W        W95149  25.170   5.219   2.215
33487W        W95150  23.129   6.216  11.418
33488W        W95151  24.580  11.137   2.371
33489W        W95152  21.144  22.626   1.780
33490W        W95153  33.027   5.758   5.135
33491W        W95154   5.918  21.219  12.832
33492W        W95155  42.984  16.586  13.310
33493W        W95156  43.994  32.094  12.981
33494W        W95157  15.624  42.361  11.450
33495W        W95158  31.978  30.085   4.299
33496W        W95159   1.446  42.489   1.265
33497W        W95160  12.120   0.972   0.305
33498W        W95161  35.588  39.961   4.180
33499W        W95162  30.052  30.964   0.778
33500W        W95163  35.971  12.302  13.351
33501W        W95164   1.479  27.474  11.482
33502W        W95165  38.841  15.753  13.797
33503W        W95166  36.998  43.908   4.197
33504W        W95167  43.474  26.644  11.121
33505W        W95168  30.579   6.258   2.788
33506W        W95169  15.771  13.763  11.110
33507W        W95170  44.756  30.109  14.386
33508W        W95171  39.993  37.909  12.939
33509W        W95172  39.913   7.325  10.473
33510W        W95173  33.536  20.054  11.579
33511W        W95174  23.199  12.306   0.363
33512W        W95175   9.220  33.979   3.159
33513W        W95176  32.574  31.491  11.907
33514W        W95177  26.986  17.608   3.298
33515W        W95178  31.507  27.569  14.772
33516W        W95179  33.503  24.159  12.494
33517W        W95180   0.856  17.291   1.323
33518W        W95181   6.781   8.243  10.951
33519W        W95182   3.912  42.946  12.482
33520W        W95183  20.064  32.112  11.538
33521W        W95184  13.757   4.720   1.911
33522W        W95185  22.663  44.460  13.312
33523W        W95186  11.737  35.054  13.537
33524W        W95187   2.871   8.335   4.630
33525W        W95188  42.505  37.077  12.478
33526W        W95189   0.844  26.695  13.453
33527W        W95190  22.087   8.762   3.857
33528W        W95191  18.269  10.743   2.302
33529W        W95192  37.881  11.849  11.936
33530W        W95193  35.942  24.691   0.848
33531W        W95194   5.870  44.493   3.199
33532W        W95195  22.106  13.286   3.830
33533W        W95196  29.463   2.467  13.407
33534W        W95197  25.702  11.641  11.404
33535W        W95198  17.282  19.216  10.558
33536W        W95199  29.002  40.974   0.835
33537W        W95200   3.844  44.460   0.383
33538W        W95201  30.486  24.600   2.708
33539W        W95202   7.400   9.224  13.028
33540W        W95203  39.915  30.136   3.651
33541W        W95204  40.012  11.266   2.211
33542W        W95205  31.976  18.238  13.529
33543W        W95206  33.513  30.044  14.438
33544W        W95207   0.402  17.738   2.231
33545W        W95208  23.081  43.999  10.483
33546W        W95209   1.285  34.884  10.584
33547W        W95210   1.320  15.755  10.495
33548W        W95211  21.702  37.494   4.351
33549W        W95212  23.595  36.500  10.901
33550W        W95213  25.484  24.548   1.904
33551W        W95214  26.069  21.531   2.329
33552W        W95215  10.326   9.295   1.715
33553W        W95216   2.817  18.280   1.708
33554W        W95217   2.309  23.509  14.457
33555W        W95218  38.988  21.083   2.290
33556W        W95219  38.507  13.140   2.259
33557W        W95220  44.897   6.739  10.897
33558W        W95221  40.025  14.199  14.962
33559W        W95222   7.865  41.433  14.988
33560W        W95223  29.092  20.604   3.749
33561W        W95224  14.216  37.869  11.045
33562W        W95225  38.992  31.418  12.036
33563W        W95226  17.278  33.922   2.859
33564W        W95227  18.127  17.583   5.255
33565W        W95228   2.847  38.441   0.426
33566W        W95229  35.360   1.971   4.222
33567W        W95230  26.668  44.951   3.233
33568W        W95231   4.859   0.956  11.039
33569W        W95232  12.787  35.868   1.433
33570W        W95233  14.195  16.706   0.305
33571W        W95234  18.681  26.080   2.731
33572W        W95235  39.441  32.115  13.810
33573W        W95236  12.667  42.291   0.272
33574W        W95237  16.168  26.137  13.307
33575W        W95238  12.729  33.127   2.757
33576W        W95239  28.116  38.449  13.498
33577W        W95240  19.164  34.958  12.387
33578W        W95241   9.744  22.132  10.974
33579W        W95242   6.258  12.740   3.829
33580W        W95243  17.135  15.084   0.348
33581W        W95244  41.369   3.412  14.283
33582W        W95245  23.688  21.533  10.928
33583W        W95246  35.931  27.534  12.346
33584W        W95247  41.441  16.789   2.398
33585W        W95248  43.507   1.346  12.452
33586W        W95249  24.647  26.125   2.318
33587W        W95250   2.952  22.706  11.925
33588W        W95251  10.755  25.509  14.784
33589W        W95252  39.997   3.377   0.455
33590W        W95253  28.127  17.123   0.962
33591W        W95254  13.613  12.709   2.726
33592W        W95255  25.018  37.427  12.435
33593W        W95256  37.398  17.572  12.343
33594W        W95257  17.097   4.249  12.469
33595W        W95258  11.161  43.312  13.381
33596W        W95259  18.119  30.539   0.959
33597W        W95260  19.131   5.388  11.416
33598W        W95261   0.404  17.594  10.913
33599W        W95262  24.156  14.756  13.366
33600W        W95263  30.082   4.740   2.383
33601W        W95264   7.285  33.895  13.456
33602W        W95265  38.330   4.732   0.312
33603W        W95266  43.324  14.747  14.773
33604W        W95267  18.091  35.581   4.208
33605W        W95268  25.561  33.939  11.591
33606W        W95269  16.309  19.098   0.392
33607W        W95270  19.762  17.231   0.245
33608W        W95271  43.889   1.343   4.722
33609W        W95272  40.437   6.282  14.438
33610W        W95273  26.582   0.360  14.501
33611W        W95274  16.241  18.132   1.341
33612W        W95275  23.089   5.789   0.419
33613W        W95276  40.962   1.822  13.956
33614W        W95277  17.183  24.693   0.430
33615W        W95278  30.622   4.259  13.477
33616W        W95279  40.984  30.645   4.175
33617W        W95280  19.255  18.780  13.856
33618W        W95281  27.581  43.803   0.885
33619W        W95282  35.888  31.136  13.851
33620W        W95283   8.322   1.852   0.736
33621W        W95284   7.240   7.282   2.410
33622W        W95285  35.860  17.077   0.795
33623W        W95286  40.337   3.428   4.118
33624W        W95287  27.177  19.678   0.408
33625W        W95288  24.998  28.564   2.187
33626W        W95289  14.310  21.155   2.743
33627W        W95290  31.580  28.124  12.063
33628W        W95291   6.343  16.781  13.474
33629W        W95292  11.231  18.219   2.873
33630W        W95293  31.435  32.517   3.869
33631W        W95294   5.922  30.444  12.958
33632W        W95295  24.154  20.072   0.736
33633W        W95296  26.466   3.846  14.329
33634W        W95297  33.538  43.906  11.856
33635W        W95298  35.954  12.724  12.961
33636W        W95299  32.628  40.536   1.773
33637W        W95300  36.589  23.100  14.306
33638W        W95301  14.804  19.135  14.833
33639W        W95302  38.457  35.575   1.423
33640W        W95303  34.962  23.087   2.206
33641W        W95304  37.434  42.445   0.314
33642W        W95305  44.977   3.403   1.933
33643W        W95306  39.515  39.486   4.256
33644W        W95307  16.712  36.067  11.455
33645W        W95308  21.621  26.066   3.330
33646W        W95309  16.664  25.707   0.891
33647W        W95310  36.937   3.878  14.325
33648W        W95311  14.288  12.739  11.982
33649W        W95312  33.051  18.665  12.442
33650W        W95313  40.031   7.344  13.928
33651W        W95314  15.122  18.749  12.952
33652W        W95315  16.072   9.852  13.363
33653W        W95316  15.775  26.190  11.901
33654W        W95317  15.824  11.253  14.449
33655W        W95318  33.412  25.046  10.573
33656W        W95319   8.220  21.602  10.531
33657W        W95320  18.602  12.359  13.826
33658W        W95321  27.975  29.463   2.197
33659W        W95322  20.185  37.918   4.153
33660W        W95323  43.785   2.808  11.457
33661W        W95324  16.686  16.692  13.034
33662W        W95325  29.611  18.296  14.499
33663W        W95326  32.120  19.249  12.557
33664W        W95327   4.913   4.380  13.869
33665W        W95328  14.618  34.081   2.784
33666W        W95329  10.220   1.738  13.053
33667W        W95330  25.629   6.285   1.246
33668W        W95331  36.885   6.859   3.824
33669W        W95332   2.349   4.789  11.976
33670W        W95333  37.944  22.159   2.813
33671W        W95334  20.569  29.168  13.458
33672W        W95335  32.946  23.735  13.904
33673W        W95336   5.825  26.031   0.895
33674W        W95337  20.143  27.650  11.583
33675W        W95338  16.684  40.522   0.252
33676W        W95339  24.120  32.463  11.430
33677W        W95340  43.908  32.919   3.370
33678W        W95341  32.408  16.615   0.438
33679W        W95342  32.630   1.788   3.377
33680W        W95343  17.677  10.271   0.246
33681W        W95344  33.549   2.326  11.529
33682W        W95345  17.100  40.521   4.345
33683W        W95346  44.353  12.302   4.767
33684W        W95347  18.668  12.287  14.865
33685W        W95348  21.123  33.570  12.487
33686W        W95349  43.922  13.822  11.449
33687W        W95350   4.822   4.850   4.752
33688W        W95351  26.154   1.417  13.441
33689W        W95352  36.481  18.656   2.345
33690W        W95353  34.888   0.401  13.540
33691W        W95354  25.471   2.290  13.477
33692W        W95355  17.187   8.239  10.538
33693W        W95356  25.613  20.184  11.884
33694W        W95357  11.684  22.521   3.154
33695W        W95358  17.576  27.102  14.954
33696W        W95359  31.611  40.307   2.687
33697W        W95360  17.186   1.867   5.310
33698W        W95361  17.760  13.625  13.960
33699W        W95362  39.841  23.574  11.415
33700W        W95363  22.598   7.287  11.881
33701W        W95364  35.488  38.061   2.670
33702W        W95365   9.199  19.640   5.259
33703W        W95366  30.100  15.315   3.213
33704W        W95367  23.239   3.798   1.906
33705W        W95368  28.080  33.598   4.312
33706W        W95369   8.313  27.028   4.142
33707W        W95370   5.221   3.343  12.520
33708W        W95371  21.143   9.207  10.523
33709W        W95372  10.648  13.781   3.306
33710W        W95373  39.472  19.116  14.831
33711W        W95374  24.563  43.964   2.709
33712W        W95375  43.995   2.298   2.410
33713W        W95376   8.791   1.819  11.068
33714W        W95377  30.033  40.050   2.819
33715W        W95378   0.823  34.928   3.157
33716W        W95379  11.262  22.726  11.602
33717W        W95380   9.651   0.904  11.952
33718W        W95381  39.326   9.768   1.826
33719W        W95382  14.593  18.158  12.579
33720W        W95383  22.077  14.142  14.902
33721W        W95384   6.181  27.572  10.418
33722W        W95385   2.313  42.333   1.737
33723W        W95386  24.706   8.326  14.303
33724W        W95387  37.381  44.878  11.443
33725W        W95388   1.383  25.640   0.306
33726W        W95389   0.847   3.761  10.946
33727W        W95390  42.482  36.042  11.552
33728W        W95391  24.203   9.325  12.006
33729W        W95392  35.102   3.390   4.329
33730W        W95393   0.312  16.635   1.227
33731W        W95394   9.372  10.815  10.950
33732W        W95395  34.465   3.378  13.439
33733W        W95396  17.158   3.738   2.895
33734W        W95397  11.670   2.782  12.415
33735W        W95398  27.576  36.877  13.910
33736W        W95399  13.270  29.502   4.740
33737W        W95400  41.376  34.462   4.323
33738W        W95401   0.827  19.093  12.426
33739W        W95402  16.274  28.022   3.203
33740W        W95403   2.443  26.985  13.512
33741W        W95404   4.246   6.426   4.137
33742W        W95405   5.736  27.542  11.553
33743W        W95406   6.219  25.129  13.527
33744W        W95407  17.238  31.507  11.938
33745W        W95408  38.408  23.072  13.005
33746W        W95409  23.130  31.950  13.455
33747W        W95410  30.598  29.161   1.442
33748W        W95411   4.709  11.224  11.080
33749W        W95412  27.523  27.664  12.467
33750W        W95413  34.075  39.939  12.384
33751W        W95414  25.585   3.846  12.351
33752W        W95415   5.920  20.532  14.308
33753W        W95416   2.780  32.506   2.268
33754W        W95417  18.159  22.229  11.026
33755W        W95418  12.281  24.719   1.241
33756W        W95419   5.706   0.768   2.743
33757W        W95420  21.525  40.959   0.283
33758W        W95421  28.942  37.857  13.838
33759W        W95422   0.397   7.696  11.941
33760W        W95423  22.107  35.028   2.209
33761W        W95424  13.788   2.470   0.405
33762W        W95425  22.115  30.986   2.665
33763W        W95426  17.206   5.761  11.890
33764W        W95427  15.294  22.245  11.417
33765W        W95428  30.440   8.175   2.305
33766W        W95429   8.768  29.450   2.812
33767W        W95430  19.583  31.972  11.403
33768W        W95431  14.100  42.976   2.339
33769W        W95432   2.809   7.187   4.679
33770W        W95433  11.672  10.267  10.541
33771W        W95434  33.016  12.120   3.629
33772W        W95435  22.177  40.930   0.920
33773W        W95436  20.184  27.600  10.494
33774W        W95437  33.961  23.045  14.860
33775W        W95438  33.546  31.421   2.419
33776W        W95439  41.505  15.325  12.501
33777W        W95440  12.798  36.069   5.282
33778W        W95441  17.306  24.517   2.899
33779W        W95442   8.352   6.403  12.462
33780W        W95443  24.031  18.659  13.827
33781W        W95444  23.681  13.253  10.995
33782W        W95445  15.102   6.757   2.900
33783W        W95446   7.327   8.229   0.959
33784W        W95447  32.618  35.960   3.700
33785W        W95448  29.124  30.522   1.912
33786W        W95449  15.146  10.313   0.781
33787W        W95450  29.111  23.550   2.811
33788W        W95451  11.227  17.619   0.259
33789W        W95452  19.568  20.550   1.286
33790W        W95453   1.254  23.707  10.604
33791W        W95454  39.474  33.953  14.860
33792W        W95455  22.129  42.314   2.372
33793W        W95456  20.723  28.503   2.204
33794W        W95457  11.758  25.652   4.788
33795W        W95458  15.271  33.075   2.383
33796W        W95459  26.985  17.579  11.077
33797W        W95460  21.589  13.670   4.728
33798W        W95461  14.611  20.068   0.937
33799W        W95462  36.506   4.273   4.767
33800W        W95463  31.115  17.580   2.206
33801W        W95464  32.990  31.503  11.378
33802W        W95465  22.163  13.843   0.272
33803W        W95466  29.967  15.655   4.767
33804W        W95467  26.079  26.025  13.802
33805W        W95468  16.790  20.049  14.877
33806W        W95469  22.170  14.164   1.879
33807W        W95470  42.491   5.431   0.263
33808W        W95471  15.613   3.758   3.803
33809W        W95472  41.489  41.325   2.702
33810W        W95473   5.385  12.269   4.302
33811W        W95474  37.007  19.281  11.881
33812W        W95475  15.283   3.896   2.734
33813W        W95476  35.566  39.056   1.747
33814W        W95477  33.910  12.256   1.747
33815W        W95478  25.136  37.049   1.323
33816W        W95479   6.340  23.680  12.519
33817W        W95480  20.240  34.403  14.515
33818W        W95481  25.613  30.100  14.006
33819W        W95482  25.148   9.308  14.819
33820W        W95483  32.495  26.043  12.085
33821W        W95484  16.093  29.024  12.054
33822W        W95485   6.196  17.108  13.349
33823W        W95486  28.589  24.563   4.169
33824W        W95487   2.915  43.286  12.903
33825W        W95488   0.808  22.513   9.955
33826W        W95489  14.618  15.768  10.106
33827W        W95490  19.616  16.639   0.380
33828W        W95491  19.149  35.990   1.418
33829W        W95492  36.366  21.671   1.912
33830W        W95493  28.144  20.641   2.354
33831W        W95494  18.102  32.055   3.239
33832W        W95495  12.213   1.782  13.970
33833W        W95496  37.437  11.218  14.407
33834W        W95497  15.249   3.744  10.632
33835W        W95498  40.894  32.597   3.663
33836W        W95499  27.943   1.777   3.810
33837W        W95500  28.649  30.463  11.952
33838W        W95501  21.598  19.120  14.863
33839W        W95502  20.694   8.886  14.392
33840W        W95503  34.999  25.051   3.294
33841W        W95504  10.266  23.706   1.698
33842W        W95505  39.403  11.741   2.395
33843W        W95506  42.336  38.541   1.253
33844W        W95507   5.362   9.237   1.312
33845W        W95508  19.208  19.039   4.311
33846W        W95509   5.743  33.929  11.916
33847W        W95510  35.083  15.111   1.412
33848W        W95511  31.441  37.048   0.931
33849W        W95512  27.078   5.744  13.450
33850W        W95513   8.334  25.611   4.756
33851W        W95514  14.781  15.719  14.334
33852W        W95515   7.826  27.661  12.847
33853W        W95516  32.568   1.285  11.388
33854W        W95517  18.277   9.373  14.430
33855W        W95518  15.659  11.236   0.917
33856W        W95519  44.346   1.933   0.913
33857W        W95520  13.761  43.804   2.770
33858W        W95521  40.337  23.650   0.870
33859W        W95522   5.901   2.964   3.281
33860W        W95523  38.564  42.496  14.013
33861W        W95524   2.942  44.444   4.197
33862W        W95525   7.830   9.704  10.990
33863W        W95526   7.326  21.211  10.546
33864W        W95527   8.260  11.725  12.539
33865W        W95528  15.688  19.088  10.453
33866W        W95529  15.630   0.268   2.706
33867W        W95530  20.713  25.057   4.835
33868W        W95531  25.471  24.596  13.933
33869W        W95532  29.583  21.040   1.437
33870W        W95533  17.799  20.256   2.252
33871W        W95534  29.610  33.395   0.758
33872W        W95535  33.925   3.876   0.449
33873W        W95536  10.337   6.366   1.703
33874W        W95537   4.907  37.442   4.645
33875W        W95538  29.997   4.209   4.838
33876W        W95539  11.345  13.656   1.840
33877W        W95540  38.515  26.631   0.420
33878W        W95541  18.577  11.773  12.935
33879W        W95542   8.360  17.304   1.429
33880W        W95543   8.874  29.982   4.679
33881W        W95544  32.887  28.147  13.539
33882W        W95545  29.174   1.858   0.474
33883W        W95546  28.048   6.341  13.063
33884W        W95547   9.364  29.943   4.734
33885W        W95548  37.979   9.161   2.400
33886W        W95549  17.561  10.747  13.317
33887W        W95550  22.087  12.293  12.415
33888W        W95551  13.148  13.665   2.256
33889W        W95552  18.563   5.361  10.448
33890W        W95553  30.098  41.952   4.677
33891W        W95554  22.735  31.600  14.771
33892W        W95555  23.499  21.751   1.723
33893W        W95556  23.992   9.229  14.414
33894W        W95557  12.218  27.541   2.775
33895W        W95558  34.109  13.609  14.442
33896W        W95559   9.369   3.314   0.793
33897W        W95560  42.314  10.726   4.202
33898W        W95561   5.767  10.651   1.772
33899W        W95562  28.553  19.212   3.736
33900W        W95563  19.053  43.896  13.532
33901W        W95564  36.515  36.972  11.597
33902W        W95565   1.954   1.751   4.809
33903W        W95566  22.131   7.301  13.842
33904W        W95567   6.200  34.580  14.466
33905W        W95568  26.964  40.035  12.540
33906W        W95569  37.423   2.397   5.157
33907W        W95570  29.557  24.052  12.561
33908W        W95571  35.421   6.833  12.506
33909W        W95572   0.790   5.698   2.889
33910W        W95573  16.181  16.243   0.254
33911W        W95574  32.586   4.349   2.200
33912W        W95575  39.006  37.539  14.978
33913W        W95576   7.393   3.909  10.425
33914W        W95577   2.859  29.099   4.633
33915W        W95578  19.585  37.380   5.223
33916W        W95579   6.793  13.840  11.420
33917W        W95580  34.914  23.618   4.312
33918W        W95581   0.903   3.303   4.631
33919W        W95582  23.526   9.257   1.815
33920W        W95583  16.748  32.090  14.292
33921W        W95584  22.655  23.193   2.878
33922W        W95585  33.470  44.398  14.384
33923W        W95586  14.696   0.962   1.445
33924W        W95587  43.920   1.760   3.855
33925W        W95588  36.532   5.788  12.506
33926W        W95589  42.788  17.209  11.024
33927W        W95590  12.830  43.300   2.253
33928W        W95591  44.932  22.194   4.767
33929W        W95592  11.298  39.478   2.839
33930W        W95593  39.875  12.653  14.786
33931W        W95594  24.094  27.109  13.829
33932W        W95595  38.423  29.449  12.837
33933W        W95596  38.558  21.513   2.347
33934W        W95597  26.966  14.784   2.184
33935W        W95598  20.577  15.633  12.068
33936W        W95599   1.735  24.029  11.916
33937W        W95600  36.864  13.114   0.310
33938W        W95601  36.351  43.974   3.316
33939W        W95602  21.515  36.573   4.128
33940W        W95603  12.235   3.281  11.585
33941W        W95604  12.269  27.993  12.575
33942W        W95605  35.386   2.399  12.492
33943W        W95606  43.810  19.139   2.785
33944W        W95607  38.959  37.558   0.299
33945W        W95608   6.195  36.450   0.321
33946W        W95609  32.492   8.223   2.673
33947W        W95610  19.221  32.061   0.296
33948W        W95611  32.033   3.711  12.578
33949W        W95612  29.919  22.156   4.694
33950W        W95613   1.887  14.283   5.184
33951W        W95614  42.383  18.095   1.808
33952W        W95615   4.858   6.779   3.853
33953W        W95616   5.702  11.225  10.457
33954W        W95617   3.814  15.221  10.940
33955W        W95618  43.926   6.310  10.610
33956W        W95619  35.397  22.675  13.361
33957W        W95620   8.855  30.605  12.871
33958W        W95621  44.942   3.741  12.390
33959W        W95622   9.320  43.970   3.772
33960W        W95623  42.443   7.819   3.724
33961W        W95624  34.599  23.047   4.791
33962W        W95625   7.245   4.217   1.890
33963W        W95626   3.748  11.274   2.416
33964W        W95627  34.578  32.979   4.219
33965W        W95628  31.036  13.180  11.594
33966W        W95629  42.789  35.967  11.918
33967W        W95630   2.833  34.386  14.988
33968W        W95631  19.617  32.068   5.238
33969W        W95632  44.871  36.049  11.440
33970W        W95633   9.757  18.777   4.630
33971W        W95634   2.849   4.933   3.348
33972W        W95635   2.831  32.104   2.225
33973W        W95636  33.436   8.819   2.338
33974W        W95637  29.577  20.656  12.904
33975W        W95638  12.734  23.177   2.358
33976W        W95639  25.601  30.516  12.959
33977W        W95640  38.519  32.886   4.351
33978W        W95641  21.101  22.246  11.482
33979W        W95642   7.782   1.855   2.876
33980W        W95643  22.719  14.789   2.789
33981W        W95644  34.037   8.323   3.195
33982W        W95645  35.572  40.925  12.954
33983W        W95646  18.767  12.145   0.347
33984W        W95647  20.143  21.257   3.189
33985W        W95648  19.600  11.686   1.258
33986W        W95649  43.461  18.250   2.705
33987W        W95650   9.354  36.395  12.932
33988W        W95651   2.783  15.706  14.975
33989W        W95652   9.172  23.720  10.986
33990W        W95653  41.978  41.538  11.916
33991W        W95654  39.855  29.576  14.846
33992W        W95655  14.183  22.746   3.662
33993W        W95656   6.909  39.055   3.845
33994W        W95657  22.107  42.525  14.367
33995W        W95658  12.828  18.097   3.663
33996W        W95659  44.969  38.542   0.805
33997W        W95660  19.631  41.527  12.455
33998W        W95661  15.822  33.452  14.899
33999W        W95662  43.863  36.361   1.746
34000W        W95663   2.839  38.495   2.266
34001W        W95664  35.423   3.860   0.891
34002W        W95665  12.814   6.282   1.759
34003W        W95666  12.772  32.997   0.335
34004W        W95667  36.569  12.838   3.265
34005W        W95668  28.583  43.428  13.309
34006W        W95669   5.437  26.071  13.418
34007W        W95670  43.423  27.499  12.886
34008W        W95671  26.656  15.590  10.985
34009W        W95672  13.800   2.337  14.283
34010W        W95673   2.347  44.968   3.696
34011W        W95674  22.675  19.550   1.715
34012W        W95675  24.014  37.424   2.238
34013W        W95676  24.151  27.649  12.408
34014W        W95677   3.710  21.573  14.507
34015W        W95678  28.565  41.822  11.012
34016W        W95679  25.099  20.742   1.889
34017W        W95680  44.764  18.062   4.739
34018W        W95681  17.148  18.125  11.374
34019W        W95682  36.969  43.862   2.764
34020W        W95683  35.450   4.862   0.268
34021W        W95684   1.902  10.818  12.546
34022W        W95685  26.023  36.457   0.244
34023W        W95686   7.702   8.750  10.112
34024W        W95687  21.612  10.361  12.518
34025W        W95688  36.038  40.830  12.471
34026W        W95689  38.419  43.420  10.614
34027W        W95690  13.679  25.056   2.309
34028W        W95691  24.686  35.969  14.419
34029W        W95692  40.811  19.250  11.378
34030W        W95693  21.248  13.142  14.464
34031W        W95694  35.536  38.440   0.418
34032W        W95695  15.217  35.039  13.455
34033W        W95696  37.419  19.146  13.385
34034W        W95697  40.039  26.565   2.741
34035W        W95698  31.622  23.172  12.037
34036W        W95699  40.447   6.714  14.306
34037W        W95700  35.438  10.725   2.827
34038W        W95701  23.713  15.128  11.950
34039W        W95702  33.896  27.452   0.871
34040W        W95703  28.067  38.521  12.412
34041W        W95704  22.712  41.482   2.835
34042W        W95705   9.244  18.260   5.288
34043W        W95706  11.221  17.219  12.464
34044W        W95707  26.953  31.088  11.538
34045W        W95708  17.571  38.025   3.302
34046W        W95709  30.970  38.455   3.816
34047W        W95710  25.619  33.599  10.105
34048W        W95711  31.126  16.116   1.447
34049W        W95712  13.732  28.439  11.418
34050W        W95713  18.072   2.416  12.055
34051W        W95714  42.396  32.021  13.902
34052W        W95715  12.695  37.369  12.835
34053W        W95716  28.481  24.700  10.978
34054W        W95717   0.408  12.282  13.546
34055W        W95718  37.340  29.625   1.765
34056W        W95719   9.766  44.950   0.858
34057W        W95720  41.828  19.703  14.396
34058W        W95721  13.268  11.851  11.050
34059W        W95722   4.303  11.687  12.076
34060W        W95723  31.051  38.506   1.791
34061W        W95724  28.637  18.196  10.436
34062W        W95725  20.051  38.040  11.418
34063W        W95726  36.352  28.990   3.682
34064W        W95727   8.712  36.991  13.806
34065W        W95728  27.643  15.177  14.792
34066W        W95729   9.805  16.303  13.308
34067W        W95730  35.428  27.632   4.697
34068W        W95731  22.041  13.736  11.891
34069W        W95732  22.019   6.363   4.287
34070W        W95733  23.169  12.144  13.810
34071W        W95734  29.133   1.804  12.976
34072W        W95735  14.626   9.305  14.456
34073W        W95736  42.823  23.152   3.812
34074W        W95737  16.699  13.623   2.186
34075W        W95738  36.453  41.954   2.667
34076W        W95739  43.821  29.495   4.780
34077W        W95740  23.609  11.691   1.313
34078W        W95741   1.834  28.537   2.830
34079W        W95742   4.820   3.336   5.302
34080W        W95743  21.677  12.351  10.519
34081W        W95744  32.586   5.919  12.456
34082W        W95745  21.749  18.691   4.703
34083W        W95746  24.553  34.967  12.038
34084W        W95747  39.060   7.175  14.317
34085W        W95748  27.043  21.133   4.745
34086W        W95749  17.605   9.202   2.716
34087W        W95750  38.043  35.932   1.356
34088W        W95751  27.649   8.726  10.447
34089W        W95752  23.672  23.236   2.769
34090W        W95753  20.643  19.075   0.251
34091W        W95754  39.934  10.259   0.461
34092W        W95755  39.551   8.865   2.271
34093W        W95756  12.155  42.908  12.846
34094W        W95757  35.544  24.029  11.092
34095W        W95758  14.111   6.726  13.390
34096W        W95759  33.618  36.352  10.911
34097W        W95760   7.859  32.981   4.781
34098W        W95761   5.294   3.849   1.822
34099W        W95762   4.735  20.707  11.965
34100W        W95763  14.282   2.819  11.866
34101W        W95764  40.319  34.933  14.860
34102W        W95765  31.435  31.449   4.785
34103W        W95766  22.103  15.668   2.236
34104W        W95767  15.108  30.572  12.823
34105W        W95768  44.282  38.378   4.773
34106W        W95769  27.548  41.295   9.515
34107W        W95770  21.240   1.934  14.332
34108W        W95771  17.068  20.526   0.469
34109W        W95772  29.521  30.052  12.999
34110W        W95773  38.954  24.577   3.700
34111W        W95774  15.201  30.105  14.960
34112W        W95775  29.536   5.721   3.670
34113W        W95776  14.710   1.816  14.864
34114W        W95777   1.951  12.748  13.307
34115W        W95778  32.546  14.708   2.708
34116W        W95779  26.611   5.710  11.036
34117W        W95780  30.431  19.548  11.114
34118W        W95781  11.679   4.793   3.184
34119W        W95782  13.642  40.518   3.235
34120W        W95783  20.758  41.788   1.712
34121W        W95784  11.845  44.357  13.450
34122W        W95785  27.153   0.277   4.626
34123W        W95786  23.585  38.829   3.774
34124W        W95787  26.528  28.039  11.965
34125W        W95788  44.786  39.850   0.446
34126W        W95789  29.937  38.446   4.738
34127W        W95790  22.027  34.952  13.439
34128W        W95791  31.115  43.452  12.389
34129W        W95792  11.726  39.002  13.522
34130W        W95793   7.782   5.382  12.913
34131W        W95794  27.940  14.125  14.832
34132W        W95795  43.814   5.397   0.741
34133W        W95796  22.103  28.611   2.821
34134W        W95797  11.155  19.135  10.910
34135W        W95798  34.014  41.489   0.914
34136W        W95799   4.434  20.262  10.604
34137W        W95800  11.782  17.585  12.981
34138W        W95801  33.915  14.626   4.715
34139W        W95802  25.501  40.382   1.772
34140W        W95803  41.535  40.521  10.635
34141W        W95804   8.305   9.341   1.818
34142W        W95805  12.615  17.224  11.416
34143W        W95806  17.660   1.379  11.516
34144W        W95807   8.256   1.278  12.035
34145W        W95808  40.468   3.933  11.435
34146W        W95809  39.472  31.575   0.918
34147W        W95810  16.132  31.910   4.251
34148W        W95811  42.513  12.832  13.508
34149W        W95812   1.928   3.721  13.911
34150W        W95813  20.068  34.028  11.556
34151W        W95814  41.884  43.803  11.092
34152W        W95815  39.522  20.755  12.532
34153W        W95816   3.730   7.176   4.156
34154W        W95817  19.073  23.156  11.584
34155W        W95818  17.241  25.038   4.637
34156W        W95819  24.107  12.663  11.904
34157W        W95820  41.800  15.217  14.971
34158W        W95821  33.575  29.070   3.805
34159W        W95822  31.060   5.878   2.385
34160W        W95823  20.550  22.161   3.246
34161W        W95824  16.284  31.117  14.429
34162W        W95825  24.625   5.258   1.899
34163W        W95826  39.359   0.800   3.704
34164W        W95827  19.764  15.808   1.434
34165W        W95828  11.709   0.789  14.809
34166W        W95829  19.069  11.862  12.965
34167W        W95830  19.705  36.865   4.693
34168W        W95831   8.681  22.549  10.451
34169W        W95832  27.959  25.023   0.405
34170W        W95833  21.736  10.829   2.301
34171W        W95834   0.293  23.694  10.602
34172W        W95835   7.244  40.483  14.882
34173W        W95836  40.915  19.687  11.457
34174W        W95837  10.257  44.367  10.589
34175W        W95838  36.395  18.147   1.920
34176W        W95839   4.729  29.064  14.944
34177W        W95840   0.290   5.379  11.955
34178W        W95841   3.343  37.008   4.121
34179W        W95842  11.216  18.564   1.917
34180W        W95843  20.216  18.072  14.877
34181W        W95844   8.680   0.901   2.782
34182W        W95845   6.790  30.415   2.734
34183W        W95846  17.772  18.259  13.488
34184W        W95847  26.520  31.645   3.686
34185W        W95848  39.348  26.530   0.335
34186W        W95849  27.098  26.156   3.711
34187W        W95850  28.957  27.608  12.470
34188W        W95851  24.582  22.627   4.178
34189W        W95852  21.526  30.536   4.713
34190W        W95853   5.928   8.687   0.338
34191W        W95854  39.031   3.880  13.842
34192W        W95855  39.025  39.904  13.023
34193W        W95856  38.366  22.044   2.679
34194W        W95857  27.473  29.437  10.644
34195W        W95858  44.377   6.364   0.883
34196W        W95859  14.311  29.069   1.710
34197W        W95860  22.170  31.527   3.280
34198W        W95861  41.924   9.323   1.710
34199W        W95862  31.525   0.804   2.827
34200W        W95863   4.374   2.761   1.393
34201W        W95864  35.453  10.733   0.759
34202W        W95865  44.417   3.341   2.208
34203W        W95866  28.081   1.910  11.484
34204W        W95867  11.162  35.490   4.188
34205W        W95868  17.683  24.009   1.933
34206W        W95869  13.234  16.612  12.025
34207W        W95870  39.063  40.975  10.423
34208W        W95871   2.871  25.667  14.824
34209W        W95872   6.349  31.138   0.304
34210W        W95873  37.435  41.941  11.469
34211W        W95874  16.313  43.276  13.002
34212W        W95875  39.370  42.945   2.296
34213W        W95876  24.555  12.169   1.854
34214W        W95877  18.211  40.963  14.308
34215W        W95878  14.209  12.704   1.851
34216W        W95879  43.308  33.920  12.498
34217W        W95880  28.042  17.158  10.147
34218W        W95881  34.442  19.704   1.236
34219W        W95882   8.340  24.522  14.322
34220W        W95883   2.865   4.914  11.069
34221W        W95884   4.379  43.892  14.789
34222W        W95885  25.698  23.182   3.823
34223W        W95886  36.423  31.575  10.996
34224W        W95887  23.670  41.043  10.923
34225W        W95888   3.733  11.345  13.312
34226W        W95889  31.069  24.510  10.948
34227W        W95890  15.255  25.636   4.261
34228W        W95891  37.467   5.406  13.386
34229W        W95892  21.082  26.649   0.801
34230W        W95893  23.189   8.879   4.751
34231W        W95894  32.981  21.568  12.986
34232W        W95895   1.405  17.144  13.537
34233W        W95896  39.824  32.572   0.874
34234W        W95897   1.768   2.894  11.566
34235W        W95898   7.829  19.746  11.116
34236W        W95899   2.823  36.413   1.343
34237W        W95900  16.763  26.203   3.328
34238W        W95901  40.496  25.101   4.640
34239W        W95902  27.978  43.955  14.368
34240W        W95903  42.929  16.315   4.670
34241W        W95904   3.747  43.345  14.877
34242W        W95905   1.378  21.162   2.828
34243W        W95906   3.869  38.903   1.251
34244W        W95907   3.881  44.981   0.957
34245W        W95908  32.072  35.384   0.774
34246W        W95909  24.673  21.741  12.951
34247W        W95910   8.821  17.186   2.860
34248W        W95911   8.868  24.619   3.726
34249W        W95912  11.200  29.109   1.365
34250W        W95913  15.133  13.755  10.566
34251W        W95914  18.713   7.697   0.457
34252W        W95915  10.722  13.637   2.680
34253W        W95916  23.100  12.843   1.836
34254W        W95917  24.583  35.553  13.465
34255W        W95918  18.727  22.018   4.644
34256W        W95919  28.999  12.815   0.344
34257W        W95920  37.403  11.727  10.915
34258W        W95921  27.561  23.178   0.373
34259W        W95922  35.985  15.091   2.399
34260W        W95923  42.458  12.231  14.953
34261W        W95924  29.650   3.215   3.687
34262W        W95925  18.665  21.227  14.486
34263W        W95926   0.818   5.208  10.601
34264W        W95927  27.080  11.675   2.717
34265W        W95928  37.453   4.434  13.798
34266W        W95929  19.126  17.707   4.196
34267W        W95930   1.748   7.247  12.827
34268W        W95931  26.207  29.100  12.853
34269W        W95932  21.748  22.233  11.379
34270W        W95933  29.480  40.915   2.294
34271W        W95934  11.336  31.563  12.364
34272W        W95935  38.070  23.659  11.127
34273W        W95936   1.254   3.450  11.537
34274W        W95937   7.309  35.937  12.479
34275W        W95938  36.586  15.198  11.563
34276W        W95939  14.784  43.296   2.840
34277W        W95940  12.160  31.105   3.778
34278W        W95941  14.338  10.729  10.943
34279W        W95942  41.445  33.103   2.278
34280W        W95943  35.970  27.587  13.918
34281W        W95944  38.874  13.244  11.464
34282W        W95945  24.080  10.840   0.454
34283W        W95946  14.622  14.783   2.681
34284W        W95947   0.446  22.735   3.245
34285W        W95948  27.101  32.020  14.801
34286W        W95949   0.289  44.874  12.348
34287W        W95950  20.183  41.881   4.752
34288W        W95951  36.088   3.307  11.557
34289W        W95952  14.635  41.791  11.005
34290W        W95953   0.429  39.892   0.774
34291W        W95954   1.413  32.944   1.446
34292W        W95955  42.892  22.175   2.377
34293W        W95956  40.856  30.931  12.531
34294W        W95957  21.167  16.267   3.199
34295W        W95958  41.941  43.415  14.338
34296W        W95959  34.416   2.243   3.856
34297W        W95960  40.458  14.607   3.665
34298W        W95961  21.260  16.166  11.414
34299W        W95962  44.315  33.416  11.906
34300W        W95963  40.308   6.198  12.360
34301W        W95964  11.841   1.396   1.421
34302W        W95965  25.108   4.915  12.428
34303W        W95966  41.817  16.789   4.691
34304W        W95967  15.113  16.691   1.224
34305W        W95968  44.866  23.643  12.953
34306W        W95969  30.018   1.914   4.149
34307W        W95970   5.804  37.932   1.771
34308W        W95971  41.857   5.794   4.641
34309W        W95972  24.081  36.995   0.830
34310W        W95973  18.658  12.639   3.259
34311W        W95974  33.535   1.761  14.986
34312W        W95975  28.030   9.190   1.733
34313W        W95976  12.806   2.825   0.845
34314W        W95977  24.172  32.113  11.859
34315W        W95978  14.606  27.993   0.753
34316W        W95979  32.439   7.247   4.313
34317W        W95980  20.072  36.497  11.464
34318W        W95981  11.279  43.415   1.282
34319W        W95982  31.975  26.601   1.862
34320W        W95983  20.173  24.635  13.851
34321W        W95984  11.775  12.286  11.086
34322W        W95985  24.177   0.882   1.823
34323W        W95986  44.448  37.528  10.892
34324W        W95987  25.125  27.619  12.565
34325W        W95988   4.278  18.756   0.396
34326W        W95989  30.466  11.696  14.421
34327W        W95990  16.722  31.998  10.912
34328W        W95991  30.513  21.725  14.777
34329W        W95992  19.599  14.124   0.390
34330W        W95993  26.014  38.864  11.113
34331W        W95994  36.413  12.298  11.875
34332W        W95995  34.957   5.303  10.443
34333W        W95996  38.872  39.557   2.236
34334W        W95997  34.959  27.054   3.789
34335W        W95998  19.044  30.158   1.874
34336W        W95999  40.408   8.780  12.839
34337W        W96000  15.314  11.715  14.350
34338W        W96001  30.542   3.324  13.933
34339W        W96002  22.042  38.911  12.559
34340W        W96003  30.154  44.381   0.308
34341W        W96004   6.345  10.231  13.356
34342W        W96005  16.636  27.194   3.219
34343W        W96006  23.535  39.504   0.891
34344W        W96007   5.907  27.568   0.300
34345W        W96008  20.144  44.410  14.933
34346W        W96009  28.466  37.545   4.827
34347W        W96010  26.480   7.289  14.888
34348W        W96011  10.173  37.080  13.906
34349W        W96012  21.068  11.657   4.732
34350W        W96013  36.097   6.769  12.420
34351W        W96014  44.011  41.900   1.746
34352W        W96015   9.155  16.693   0.269
34353W        W96016  29.633   5.855  10.047
34354W        W96017  23.617  11.275  10.931
34355W        W96018  26.113   3.381  10.029
34356W        W96019  25.193  40.477  11.953
34357W        W96020  43.960   2.827  13.536
34358W        W96021  39.404  21.234  11.481
34359W        W96022  42.909   4.447  11.878
34360W        W96023  40.037  20.535   0.285
34361W        W96024  41.538  41.875  14.022
34362W        W96025  32.569   9.349  10.028
34363W        W96026  23.710  31.152  11.866
34364W        W96027  12.655  29.074   0.310
34365W        W96028   0.943  41.040   2.845
34366W        W96029  15.107  16.276   1.727
34367W        W96030  36.426  35.369   4.747
34368W        W96031  41.009  24.997  12.828
34369W        W96032  26.469  11.147  11.882
34370W        W96033   8.390   7.891  12.522
34371W        W96034  39.429  43.281   0.751
34372W        W96035  42.794  40.801   3.630
34373W        W96036  21.628  15.136  13.833
34374W        W96037  30.632   9.655   2.757
34375W        W96038  43.278   0.915  14.409
34376W        W96039  36.009   9.788  14.030
34377W        W96040   9.277  14.620  14.905
34378W        W96041  18.209  12.680   5.266
34379W        W96042  12.266  36.364   1.883
34380W        W96043  37.401  24.164  12.359
34381W        W96044  13.644   6.686   2.345
34382W        W96045  22.152   6.808   2.188
34383W        W96046  27.500  19.593   5.177
34384W        W96047  31.141  40.335  13.929
34385W        W96048  43.444   8.266  14.393
34386W        W96049  37.407  39.846   4.641
34387W        W96050  12.614  25.180  14.423
34388W        W96051   3.779  30.957   1.379
34389W        W96052  34.465  44.277   1.214
34390W        W96053  17.676  20.253   0.383
34391W        W96054  14.771  41.373   2.390
34392W        W96055  31.006  22.058   4.802
34393W        W96056  16.273  40.809   4.314
34394W        W96057  29.060  37.372   4.125
34395W        W96058  16.670  27.506  12.514
34396W        W96059  33.435  23.085   0.865
34397W        W96060  18.616  38.329   0.298
34398W        W96061  18.786  39.826  14.012
34399W        W96062  38.868  18.584   3.862
34400W        W96063  35.100  14.302  10.625
34401W        W96064  37.047  30.116   4.811
34402W        W96065   0.455  34.044  13.947
34403W        W96066   1.392   1.914  13.416
34404W        W96067  29.955  39.560   2.708
34405W        W96068   2.246  33.888   3.749
34406W        W96069  41.847  38.868   0.808
34407W        W96070  24.219   5.227   2.840
34408W        W96071  27.691  28.162  11.396
34409W        W96072  18.222  11.299   2.245
34410W        W96073  11.175   9.719   5.706
34411W        W96074  42.841  24.081   0.873
34412W        W96075  20.715  32.952   4.684
34413W        W96076  16.222  20.683   4.824
34414W        W96077  18.767  32.474   1.792
34415W        W96078  37.434  44.800   4.702
34416W        W96079  28.580  11.659  14.032
34417W        W96080  20.613  43.355  14.496
34418W        W96081   6.301  28.640   2.689
34419W        W96082   0.400   7.799  13.931
34420W        W96083   4.382  19.571  14.827
34421W        W96084  19.575  20.640  11.578
34422W        W96085  21.240  22.997  11.878
34423W        W96086  35.461  28.669  12.871
34424W        W96087  32.904   0.784   2.193
34425W        W96088  41.307  38.045   0.886
34426W        W96089  35.447  13.301   2.902
34427W        W96090  24.526  40.494  14.927
34428W        W96091  42.987  32.984  10.515
34429W        W96092  24.056   5.735   4.796
34430W        W96093  43.418   5.853  11.050
34431W        W96094  15.773  29.008   0.790
34432W        W96095  21.644  42.441  11.961
34433W        W96096  41.307  24.682   1.250
34434W        W96097   0.839  43.885  11.380
34435W        W96098  11.720   7.215  13.963
34436W        W96099   2.301  21.548   4.200
34437W        W96100  24.012  21.214   2.271
34438W        W96101   8.378  40.383   1.227
34439W        W96102  37.356  26.001  13.975
34440W        W96103  40.859  24.995  11.957
34441W        W96104   4.285  39.442  14.476
34442W        W96105  19.194  27.635   0.967
34443W        W96106   8.877   0.351  11.052
34444W        W96107  33.466   9.669   3.782
34445W        W96108   5.759   3.768  11.481
34446W        W96109  10.836  20.560   0.884
34447W        W96110  31.995  30.628  14.454
34448W        W96111   0.789  28.098   3.206
34449W        W96112   8.729  19.699   4.188
34450W        W96113   7.719  25.198   3.710
34451W        W96114  21.673  15.786   9.983
34452W        W96115  15.721  33.881  10.950
34453W        W96116  22.732   9.660   0.397
34454W        W96117  11.364  22.093   3.355
34455W        W96118  36.492   1.866   2.789
34456W        W96119   7.341   1.818   1.385
34457W        W96120   5.913  20.046  14.475
34458W        W96121  10.829  29.657   0.289
34459W        W96122   9.710  22.052   1.296
34460W        W96123  37.839  17.193  11.469
34461W        W96124  34.044  24.628   5.768
34462W        W96125  28.606  14.102  12.935
34463W        W96126  28.053   4.351  13.855
34464W        W96127   0.466  15.103   1.445
34465W        W96128  17.666   4.770   1.418
34466W        W96129  28.161  17.599   4.650
34467W        W96130  39.335  24.491  14.019
34468W        W96131  15.648  31.982   4.149
34469W        W96132  29.982   1.975  12.502
34470W        W96133  20.647  12.801  10.574
34471W        W96134   9.331  31.091   1.337
34472W        W96135   5.242  43.401  13.939
34473W        W96136  25.698  23.608  10.965
34474W        W96137  23.113  37.036   4.191
34475W        W96138  36.078  38.832  10.900
34476W        W96139  22.706  14.639   1.235
34477W        W96140  30.046  30.089  13.003
34478W        W96141  41.386  24.584   0.368
34479W        W96142  29.025  42.959  10.584
34480W        W96143  20.249  18.231   2.763
34481W        W96144  39.958  25.567   4.711
34482W        W96145  43.396  30.521  10.911
34483W        W96146  38.892  13.297  11.027
34484W        W96147  26.103  11.314   0.870
34485W        W96148  22.073  12.799   1.290
34486W        W96149  27.052  12.796   1.255
34487W        W96150  36.876   9.164   1.934
34488W        W96151  29.514  41.969   5.795
34489W        W96152   6.902  14.128   1.800
34490W        W96153  36.874  40.959  12.390
34491W        W96154   0.321  16.736  14.897
34492W        W96155  22.015  42.983  14.436
34493W        W96156  38.827  18.114  12.378
34494W        W96157  42.960   5.893   1.223
34495W        W96158  25.187   7.178  12.051
34496W        W96159  23.206  39.820   9.988
34497W        W96160   3.325   6.682   3.169
34498W        W96161  43.972   2.427  13.435
34499W        W96162  36.515  27.127  14.814
34500W        W96163  27.650  29.076   3.737
34501W        W96164  20.606  12.221  13.533
34502W        W96165  35.498  27.451  11.416
34503W        W96166  32.914  34.395  13.967
34504W        W96167   3.281   0.892  10.982
34505W        W96168  43.471  44.261  10.105
34506W        W96169   9.252   1.812  14.284
34507W        W96170   1.788  12.193  13.012
34508W        W96171   6.716  10.736   0.877
34509W        W96172   5.855  37.446  10.955
34510W        W96173   5.274  24.511  14.901
34511W        W96174  42.956  20.654   2.402
34512W        W96175  31.617  22.726  10.478
34513W        W96176  38.480  41.927  11.908
34514W        W96177  32.492  17.787  13.476
34515W        W96178  18.127  33.606   0.304
34516W        W96179  29.029  10.781   2.285
34517W        W96180  17.749  20.633   2.397
34518W        W96181  33.615  34.017  10.959
34519W        W96182  37.558   8.662   3.717
34520W        W96183  37.973  41.855   4.147
34521W        W96184  17.564  10.201  10.937
34522W        W96185  24.983  34.587  12.920
34523W        W96186  29.000  44.911  12.474
34524W        W96187  32.524  31.615   2.411
34525W        W96188  44.817  24.695   4.706
34526W        W96189  22.573   9.665  12.841
34527W        W96190   0.942  18.231   0.395
34528W        W96191  21.030  33.956   0.778
34529W        W96192  34.609  34.423   2.858
34530W        W96193  21.110  32.025   2.223
34531W        W96194  44.004  20.752   4.129
34532W        W96195   5.806  38.369  11.999
34533W        W96196  17.288  23.160  14.362
34534W        W96197   5.375   6.793  13.896
34535W        W96198  38.841  44.795   2.844
34536W        W96199  27.655  25.039   2.277
34537W        W96200  22.099  38.054   4.307
34538W        W96201  25.675   6.828   0.364
34539W        W96202   5.240  29.615  10.514
34540W        W96203  35.473  35.860  14.868
34541W        W96204  23.029  44.298  14.877
34542W        W96205  34.529  43.275   4.763
34543W        W96206  42.382  32.502  14.475
34544W        W96207  29.920  28.468   2.273
34545W        W96208   0.835  13.671   4.248
34546W        W96209   6.825  39.858   4.348
34547W        W96210  44.423  17.661  12.012
34548W        W96211  44.976  20.734  14.499
34549W        W96212   7.693  44.470  13.910
34550W        W96213  37.997  17.667  14.929
34551W        W96214   1.445  31.620   3.751
34552W        W96215  16.651  13.339  11.429
34553W        W96216  30.942   7.298   2.202
34554W        W96217  24.690  20.263   4.190
34555W        W96218  14.115   1.297   4.709
34556W        W96219   3.345  27.111  10.902
34557W        W96220   2.329  39.976   0.354
34558W        W96221  17.150  19.174   3.696
34559W        W96222  24.223  14.238   0.478
34560W        W96223  14.333  10.862   2.670
34561W        W96224  44.431  14.147   2.798
34562W        W96225  18.557   4.445  11.590
34563W        W96226  29.173  42.490   3.286
34564W        W96227  20.661  33.019  12.937
34565W        W96228  13.762  30.445   4.198
34566W        W96229  19.688  37.880   3.685
34567W        W96230  20.174   6.812  12.565
34568W        W96231  43.979  28.596   0.951
34569W        W96232   2.415  27.037  10.902
34570W        W96233  27.071  39.001  13.538
34571W        W96234  20.234   5.223  14.381
34572W        W96235  38.381   4.800  14.480
34573W        W96236  34.119  24.708   2.829
34574W        W96237  18.272  33.441  10.541
34575W        W96238   5.746   2.798   1.355
34576W        W96239  13.244  28.670  14.464
34577W        W96240  36.572  40.385  12.402
34578W        W96241   9.253   6.898   0.913
34579W        W96242  11.797  12.659  11.896
34580W        W96243   6.327  43.001  14.888
34581W        W96244  28.148   0.275  11.422
34582W        W96245  18.785  31.042  13.984
34583W        W96246  10.765  26.019   4.205
34584W        W96247  17.285  22.073   2.753
34585W        W96248  23.220  36.988   1.356
34586W        W96249  26.025  33.620  13.378
34587W        W96250  31.017  36.015   1.392
34588W        W96251  42.336   5.273  13.353
34589W        W96252  15.657  31.555  13.819
34590W        W96253  36.974   9.733  13.505
34591W        W96254   7.202   2.333   3.180
34592W        W96255  14.178  27.085  12.529
34593W        W96256  32.452  36.435   1.345
34594W        W96257  14.813   3.923  12.560
34595W        W96258  36.036  23.989   1.819
34596W        W96259  21.654  25.176  13.891
34597W        W96260  31.077  15.247   3.347
34598W        W96261  12.357  18.587   4.807
34599W        W96262  13.743   0.425  14.308
34600W        W96263  42.873  23.690   3.149
34601W        W96264   0.420   0.421  13.051
34602W        W96265  32.125  17.716   4.792
34603W        W96266  27.016  18.739  12.348
34604W        W96267  10.840   4.939  14.368
34605W        W96268   2.244  27.584  13.821
34606W        W96269  27.518  39.982  12.945
34607W        W96270   1.396  14.240   3.639
34608W        W96271  11.180  36.010  13.376
34609W        W96272  25.076  39.974  13.019
34610W        W96273  43.897  12.191   4.257
34611W        W96274  27.981  16.115   1.694
34612W        W96275  36.077  29.656   4.299
34613W        W96276  24.632  29.566   4.344
34614W        W96277  43.397  42.335  11.387
34615W        W96278  20.748  34.538   2.832
34616W        W96279  31.480  36.553  14.462
34617W        W96280  25.147  13.292   4.117
34618W        W96281  30.920  13.713  13.824
34619W        W96282  21.753  40.360   1.265
34620W        W96283   7.274  40.045   4.722
34621W        W96284  19.597   6.837   2.798
34622W        W96285  39.046  15.724  13.061
34623W        W96286  15.167  39.934  13.361
34624W        W96287  25.197   4.883   3.725
34625W        W96288  31.438  37.449  12.948
34626W        W96289   7.232  11.159  10.519
34627W        W96290  44.383  15.181   3.211
34628W        W96291  23.989   1.885  10.982
34629W        W96292  41.969   7.192  12.580
34630W        W96293   0.278  43.306  12.524
34631W        W96294  30.965  16.612  12.965
34632W        W96295   0.387  43.856   1.764
34633W        W96296  24.686  16.721   1.241
34634W        W96297  42.933   8.854  13.925
34635W        W96298  30.599  43.842   4.605
34636W        W96299   2.797  15.318  11.462
34637W        W96300   2.775  30.983   3.676
34638W        W96301  14.776  20.089   0.393
34639W        W96302  13.228  15.738  12.049
34640W        W96303  14.141  25.470  13.485
34641W        W96304  21.638  35.856   2.810
34642W        W96305  20.107  34.379   2.736
34643W        W96306  42.343   8.896   2.727
34644W        W96307  31.547  35.924  11.931
34645W        W96308  25.548  40.014   0.754
34646W        W96309  34.961  41.998   1.874
34647W        W96310  22.634  41.892  12.377
34648W        W96311   3.426  29.493  11.489
34649W        W96312   2.947  17.643  14.470
34650W        W96313  16.647   4.216  13.008
34651W        W96314  26.953  36.026  14.839
34652W        W96315  31.967  28.061  13.495
34653W        W96316  39.048   4.357   3.345
34654W        W96317  17.763  25.584  11.864
34655W        W96318  30.462  40.820  10.556
34656W        W96319  22.544  40.378   0.750
34657W        W96320  41.932  24.696   3.709
34658W        W96321  42.795  22.670  13.898
34659W        W96322  34.581   3.442   4.675
34660W        W96323  11.799  33.901   4.209
34661W        W96324  24.588  13.178  13.527
34662W        W96325   3.442  39.474   0.781
34663W        W96326  20.603  36.487  13.850
34664W        W96327  40.906  17.762   3.758
34665W        W96328  34.863  32.033  13.835
34666W        W96329  13.279  44.382  14.018
34667W        W96330  29.558   8.295   4.674
34668W        W96331  28.049  39.510  11.984
34669W        W96332  23.627  16.139   1.740
34670W        W96333   8.792   5.879   0.244
34671W        W96334  44.399  34.875  10.104
34672W        W96335   7.745   7.373   1.375
34673W        W96336   8.272  36.863  13.020
34674W        W96337  25.526   9.784   3.783
34675W        W96338   4.214   0.832  13.861
34676W        W96339  22.217  26.038   0.250
34677W        W96340  15.732  11.260  11.560
34678W        W96341  18.085  14.823  12.065
34679W        W96342  30.484  14.128   4.185
34680W        W96343  27.514  16.220   2.193
34681W        W96344   3.787   8.769  10.600
34682W        W96345  38.413  43.488   0.385
34683W        W96346   1.864  30.413   2.349
34684W        W96347  13.694  24.090   3.809
34685W        W96348  34.549  12.307  11.035
34686W        W96349  31.446   3.411   1.872
34687W        W96350  35.549  34.472  13.887
34688W        W96351  17.270  17.688   2.190
34689W        W96352  31.412  37.546  12.486
34690W        W96353  22.083   9.319  14.798
34691W        W96354   7.703   3.296   1.235
34692W        W96355  24.011   7.252   3.681
34693W        W96356   4.359  36.954  13.972
34694W        W96357  12.265   3.345  14.431
34695W        W96358   6.756  11.321  13.022
34696W        W96359  41.023  36.868   3.752
34697W        W96360  21.053   1.898   4.227
34698W        W96361  41.300   0.285  12.494
34699W        W96362   4.794  32.526   4.288
34700W        W96363   9.160  20.028   4.710
34701W        W96364   1.320  24.085  14.013
34702W        W96365  12.205  35.046   4.805
34703W        W96366  21.671  21.053   4.271
34704W        W96367  16.677   3.461  14.308
34705W        W96368  31.953   5.234   5.127
34706W        W96369  14.235  21.721   1.723
34707W        W96370   3.920  17.748   1.241
34708W        W96371  32.560  39.001   9.957
34709W        W96372  16.254  35.859   4.833
34710W        W96373  34.883  35.016   4.199
34711W        W96374  44.455  22.703  13.360
34712W        W96375  28.051   1.816   1.346
34713W        W96376  22.074  12.726   3.358
34714W        W96377  40.018  11.200  11.419
34715W        W96378  19.158   2.766   0.306
34716W        W96379  17.584  19.079   3.221
34717W        W96380  22.528   1.978  12.062
34718W        W96381  22.569  36.415   3.318
34719W        W96382   1.454  32.485  13.480
34720W        W96383   6.888  13.698  12.998
34721W        W96384  38.554  37.558  11.602
34722W        W96385  44.304   0.847  13.311
34723W        W96386   9.234  24.040   0.878
34724W        W96387  26.624  43.006   3.862
34725W        W96388   3.364  34.966  11.461
34726W        W96389   0.921  27.692  13.478
34727W        W96390  36.976  32.580  12.558
34728W        W96391  26.675  12.755  10.935
34729W        W96392  35.986  33.579  13.948
34730W        W96393  13.654  33.892  11.434
34731W        W96394  23.642  36.918  13.502
34732W        W96395  20.097  41.984  10.626
34733W        W96396  24.566   8.163   0.262
34734W        W96397  15.818  26.593   4.725
34735W        W96398  33.984   6.398   3.351
34736W        W96399  36.899   3.216   1.821
34737W        W96400  43.876   0.953   3.279
34738W        W96401  28.664  33.083  13.855
34739W        W96402   1.444  20.559   3.210
34740W        W96403  17.088  21.158  13.035
34741W        W96404  27.613   6.394   2.407
34742W        W96405  31.626  10.862   1.805
34743W        W96406  24.091   6.282   9.545
34744W        W96407  28.975  12.819  12.446
34745W        W96408  27.603  27.496   9.606
34746W        W96409  22.560  10.374  13.368
34747W        W96410   7.697  10.739   0.404
34748W        W96411   5.226  12.202   1.234
34749W        W96412  44.902  13.164  10.496
34750W        W96413  27.961   6.352  14.373
34751W        W96414  25.127  38.439  10.542
34752W        W96415   9.825  10.154   0.936
34753W        W96416  16.158  27.945   4.718
34754W        W96417  19.263  18.141  12.060
34755W        W96418  38.998   1.734  13.344
34756W        W96419  33.112  34.551   2.224
34757W        W96420  24.634   8.329  14.886
34758W        W96421  11.172  14.644   1.902
34759W        W96422  13.775  32.614  11.436
34760W        W96423  32.119  34.018   3.843
34761W        W96424  42.886  29.054  14.291
34762W        W96425  28.519  35.359   3.271
34763W        W96426  22.022  27.105   3.337
34764W        W96427  26.599  30.068   2.314
34765W        W96428   8.189  23.146  14.842
34766W        W96429  14.112  37.993   2.871
34767W        W96430  12.286  34.928  11.860
34768W        W96431  21.682  20.692   1.830
34769W        W96432  29.574  35.109   4.735
34770W        W96433   1.779   9.883  13.060
34771W        W96434  43.462  25.603   3.780
34772W        W96435   6.685  39.431   2.268
34773W        W96436  30.641  15.283  10.961
34774W        W96437  20.709   4.279  10.545
34775W        W96438  28.673  36.059   3.165
34776W        W96439  18.782  31.554   2.409
34777W        W96440   4.777   4.321   3.812
34778W        W96441   2.743  23.189   2.712
34779W        W96442  19.221  28.970  13.373
34780W        W96443  43.922  39.901   1.328
34781W        W96444  19.625  39.334   4.776
34782W        W96445  28.058  31.465  12.404
34783W        W96446  13.836   1.330   4.709
34784W        W96447   7.216  23.047   3.166
34785W        W96448   7.381  11.183  14.508
34786W        W96449   1.967  35.853   4.719
34787W        W96450  44.005  19.072   1.408
34788W        W96451  44.410  42.516   0.384
34789W        W96452   0.950  38.542   4.791
34790W        W96453  15.731  16.127   9.441
34791W        W96454   0.252   7.343  12.079
34792W        W96455  33.384  38.459   2.828
34793W        W96456  26.077  39.538   2.255
34794W        W96457   6.404  18.125   0.301
34795W        W96458  15.733  12.612  10.405
34796W        W96459  26.021  35.944   3.226
34797W        W96460  18.567  36.004   5.209
34798W        W96461  11.652  38.857  12.496
34799W        W96462  26.208   7.226  12.418
34800W        W96463  36.064  12.789  13.837
34801W        W96464   8.835  38.022   1.302
34802W        W96465  43.856   5.840  13.421
34803W        W96466  23.588  29.607  11.988
34804W        W96467   0.963  38.450  12.424
34805W        W96468  43.775  17.571   5.799
34806W        W96469  15.812  20.263  10.119
34807W        W96470  24.695  28.178  14.927
34808W        W96471  26.620  16.676   3.689
34809W        W96472   1.746   7.268   1.391
34810W        W96473  25.496   5.239  13.848
34811W        W96474  38.070   5.743  14.791
34812W        W96475  19.130  42.915   2.664
34813W        W96476   6.775  14.729   3.162
34814W        W96477  18.601  10.335  11.491
34815W        W96478   7.348  27.027  10.575
34816W        W96479   0.804  26.131  14.356
34817W        W96480  14.309   8.203   2.718
34818W        W96481  38.041   7.348   1.403
34819W        W96482   2.380  23.134  10.894
34820W        W96483   1.833  37.358   2.799
34821W        W96484  24.104  24.993  13.317
34822W        W96485  28.944  10.727  10.471
34823W        W96486   5.317  18.722   4.652
34824W        W96487   6.728  31.044   2.697
34825W        W96488  38.330  19.126   0.340
34826W        W96489  10.834  32.004  12.538
34827W        W96490   0.475  21.026   3.843
34828W        W96491  16.226  19.124   4.188
34829W        W96492  18.729  22.056  10.978
34830W        W96493  31.919  24.169   0.252
34831W        W96494   0.846  30.975   1.435
34832W        W96495  40.856  12.651  13.506
34833W        W96496  26.986  43.000  11.601
34834W        W96497  21.624  40.007  12.069
34835W        W96498  40.008  19.088   0.303
34836W        W96499  28.667   9.186  13.450
34837W        W96500  21.145  35.090   0.367
34838W        W96501  39.828  25.678  14.935
34839W        W96502   3.311   8.790   4.303
34840W        W96503  18.141  36.536  10.484
34841W        W96504  37.382  39.893   4.228
34842W        W96505  40.837   3.317   3.664
34843W        W96506  26.564  22.713  13.941
34844W        W96507  43.367  12.751   2.319
34845W        W96508   0.472  40.007   4.178
34846W        W96509  16.220  40.407   0.324
34847W        W96510  21.094  34.038   1.286
34848W        W96511   6.807  12.350   0.775
34849W        W96512  19.773  28.569   1.700
34850W        W96513  31.543  29.965  14.365
34851W        W96514  29.600  36.038   2.285
34852W        W96515  30.937  28.088   0.860
34853W        W96516   3.336  39.447   3.745
34854W        W96517  11.171   4.744  11.023
34855W        W96518  42.468  12.217   5.757
34856W        W96519  33.500  19.040  14.456
34857W        W96520  23.516  24.656  13.895
34858W        W96521  13.630  40.817   9.931
34859W        W96522  21.671  14.131   1.826
34860W        W96523  27.074  30.911   4.687
34861W        W96524  34.483  32.449   0.738
34862W        W96525   9.711  24.037   3.856
34863W        W96526  32.448  21.597   5.119
34864W        W96527   6.404  27.042  11.893
34865W        W96528  19.560  36.417  13.472
34866W        W96529  12.356   9.885   2.392
34867W        W96530  17.781  24.075  14.785
34868W        W96531   9.654  21.709  11.127
34869W        W96532   7.708  25.143  13.971
34870W        W96533  10.269  35.987   2.783
34871W        W96534  32.964  19.135   1.758
34872W        W96535  38.520   6.294  12.404
34873W        W96536  20.616  40.338  10.430
34874W        W96537  27.578  43.493   2.369
34875W        W96538  27.492  22.166   4.264
34876W        W96539  42.413  36.530  11.106
34877W        W96540  14.148  36.387   1.835
34878W        W96541  42.506  18.176  12.472
34879W        W96542   2.375  26.031   1.236
34880W        W96543  26.595  42.996  11.413
34881W        W96544  25.567  18.751   1.260
34882W        W96545  31.426  23.228  13.333
34883W        W96546  28.673  36.974  10.972
34884W        W96547  15.219  22.561  14.348
34885W        W96548   6.266  32.106   0.245
34886W        W96549  37.029  33.107   3.732
34887W        W96550   5.253  23.538   0.254
34888W        W96551  28.099   1.801  14.948
34889W        W96552  11.273  24.162  11.889
34890W        W96553  39.908  40.815   3.827
34891W        W96554  43.949  34.570  14.765
34892W        W96555  34.998  26.085   4.299
34893W        W96556   2.366  18.777  13.001
34894W        W96557  18.601   0.395   1.886
34895W        W96558  18.674   4.901  14.509
34896W        W96559  27.605  22.007   1.804
34897W        W96560   6.918  12.238  12.097
34898W        W96561  21.020  15.661  11.040
34899W        W96562  32.562  22.163  12.445
34900W        W96563  19.277  25.218  14.276
34901W        W96564  16.742  31.033   3.651
34902W        W96565  42.904  40.042  14.997
34903W        W96566   1.444  20.594  12.958
34904W        W96567  30.412  35.862  13.984
34905W        W96568   8.220  32.001   1.914
34906W        W96569  43.008  36.879   4.284
34907W        W96570   9.183  43.338  13.060
34908W        W96571  28.530  30.133  11.518
34909W        W96572  24.589   2.234  12.058
34910W        W96573  40.916  32.495  11.410
34911W        W96574  17.084   7.403  14.409
34912W        W96575  38.387  31.626  11.494
34913W        W96576   9.838   5.378   0.930
34914W        W96577  42.445  39.329   4.814
34915W        W96578   5.933  27.081   4.196
34916W        W96579   7.272  16.698   3.648
34917W        W96580  32.099   3.893  10.462
34918W        W96581  28.654   6.802   0.963
34919W        W96582  39.523  34.499  14.962
34920W        W96583  11.655   8.789  13.923
34921W        W96584  38.390   9.232  14.459
34922W        W96585  37.851  31.077  10.442
34923W        W96586  14.720  38.463  10.583
34924W        W96587   7.404   8.292  11.105
34925W        W96588   2.795   9.381   3.694
34926W        W96589   7.675  10.282  13.059
34927W        W96590   0.424   5.409  14.782
34928W        W96591  14.762  37.522  10.498
34929W        W96592  18.164  24.062  13.883
34930W        W96593  29.123   6.287  12.571
34931W        W96594  28.470  23.692  10.497
34932W        W96595   2.344  28.060   1.294
34933W        W96596  36.442   5.370   3.188
34934W        W96597   2.830  34.983  12.507
34935W        W96598  44.467  31.568   0.475
34936W        W96599  26.497  29.966   0.818
34937W        W96600   1.975  28.043   4.184
34938W        W96601  29.107   7.738   1.225
34939W        W96602  36.082  35.903   4.762
34940W        W96603   3.340  15.742  11.978
34941W        W96604   6.422  20.262   0.921
34942W        W96605   7.797  40.902   2.837
34943W        W96606   8.187  34.608   0.258
34944W        W96607   7.873  34.871  10.978
34945W        W96608   6.195  37.007   2.278
34946W        W96609  23.668   9.702   1.845
34947W        W96610   3.815   0.376   0.247
34948W        W96611  42.305  39.863   4.250
34949W        W96612   1.393  33.876  11.513
34950W        W96613   5.822   8.326   3.635
34951W        W96614  40.807  15.289   0.848
34952W        W96615  16.145  19.106   1.233
34953W        W96616  21.159  30.468   4.687
34954W        W96617  22.999   8.399  14.305
34955W        W96618  23.608   4.718   3.743
34956W        W96619  40.885  21.628   4.705
34957W        W96620  41.509  20.141   3.243
34958W        W96621  11.221  39.049   2.825
34959W        W96622  43.815  38.497   2.730
34960W        W96623  30.944   2.343  14.985
34961W        W96624  16.114  12.166  12.437
34962W        W96625  39.875  42.951   4.205
34963W        W96626  10.852  29.496  14.451
34964W        W96627   6.730  43.498  14.352
34965W        W96628  22.530  17.742   2.705
34966W        W96629  25.076  22.598   2.793
34967W        W96630  39.817   3.286   2.821
34968W        W96631  33.397  38.911  12.043
34969W        W96632  25.683   9.304   1.315
34970W        W96633  15.196  32.080  10.992
34971W        W96634  33.924  43.991   0.478
34972W        W96635  15.322  42.806  14.500
34973W        W96636  19.202   8.327   3.317
34974W        W96637  44.350  40.000   2.203
34975W        W96638  20.619  21.261  12.469
34976W        W96639  33.521   9.730  13.012
34977W        W96640  15.639  27.634  12.400
34978W        W96641   8.869  42.838   3.247
34979W        W96642  13.286  18.591  11.004
34980W        W96643  41.417  22.090   1.433
34981W        W96644  33.492  41.858   4.268
34982W        W96645  19.182  38.961  12.356
34983W        W96646  43.471  35.473  13.948
34984W        W96647   4.944  30.534  13.936
34985W        W96648  11.362  39.479  14.471
34986W        W96649   0.479  19.602  14.936
34987W        W96650  17.671  15.233  11.954
34988W        W96651   5.774  34.535  10.455
34989W        W96652  17.628  31.093   3.249
34990W        W96653  36.498  25.187   4.291
34991W        W96654  27.518  18.715  10.560
34992W        W96655  16.765  42.298  11.495
34993W        W96656  16.262   3.716   4.733
34994W        W96657  24.178  37.482   4.726
34995W        W96658  38.031  44.379  11.377
34996W        W96659  30.042  17.300  14.330
34997W        W96660  21.606  22.549  11.987
34998W        W96661  35.399   0.383  14.362
34999W        W96662  11.644   4.246   1.407
35000W        W96663  32.580   7.345   2.243
35001W        W96664  20.614  22.128  14.360
35002W        W96665   8.812  15.161   1.758
35003W        W96666   7.737  13.834  13.474
35004W        W96667  39.374  31.904  11.013
35005W        W96668  43.305  38.333   4.116
35006W        W96669  29.427  33.963  14.388
35007W        W96670   9.162  10.168  14.372
35008W        W96671  29.939  41.538   2.340
35009W        W96672  16.182   8.753  12.478
35010W        W96673  29.969  17.677   3.222
35011W        W96674   9.709   5.703   0.282
35012W        W96675  27.171  42.821   1.738
35013W        W96676  28.147  38.898   4.678
35014W        W96677  33.493  41.456   1.400
35015W        W96678  14.101   8.276   1.722
35016W        W96679  11.365  20.110  13.020
35017W        W96680   7.410  35.471  10.545
35018W        W96681  29.515  15.795  13.988
35019W        W96682  11.833  10.365   4.675
35020W        W96683  10.233  21.717  11.588
35021W        W96684  28.593  22.207   1.914
35022W        W96685  14.725  19.753  13.496
35023W        W96686  28.547  14.600  11.119
35024W        W96687  41.295  38.027   3.645
35025W        W96688  37.445   0.454   4.622
35026W        W96689  15.210  10.375  13.355
35027W        W96690  24.518  35.999  10.503
35028W        W96691  33.477   1.329  14.410
35029W        W96692  16.676  42.359   2.732
35030W        W96693  42.932  15.720   0.266
35031W        W96694  16.267   3.783   0.431
35032W        W96695  41.298   1.861   0.814
35033W        W96696   7.806  34.872   1.791
35034W        W96697   2.800  14.280   1.906
35035W        W96698  25.609  44.465  12.399
35036W        W96699  32.080   9.219  10.092
35037W        W96700  14.821  11.300  13.417
35038W        W96701   6.903   1.743  14.325
35039W        W96702  14.785  12.164  11.394
35040W        W96703  41.320  38.864   1.445
35041W        W96704  15.176   2.427   3.814
35042W        W96705  18.669  25.038  13.905
35043W        W96706  14.197  35.490   9.462
35044W        W96707  30.135  32.408  11.913
35045W        W96708  43.812  37.373   4.311
35046W        W96709   1.915  33.474  13.354
35047W        W96710  12.614  34.060  10.589
35048W        W96711  31.088  32.891   1.280
35049W        W96712   4.342  33.026   1.278
35050W        W96713  20.541  31.970  10.591
35051W        W96714  37.474  14.613   0.399
35052W        W96715   2.917   8.761   0.751
35053W        W96716  13.350  28.126   4.229
35054W        W96717  24.096  37.497   1.413
35055W        W96718  23.654   2.383  11.605
35056W        W96719   0.933  25.014  10.427
35057W        W96720  23.189  15.772   4.182
35058W        W96721   7.781   5.365  11.611
35059W        W96722  34.873  33.407  12.435
35060W        W96723  33.130  11.261  11.572
35061W        W96724   5.374  13.641  11.502
35062W        W96725   6.818   4.411  13.473
35063W        W96726  35.413   7.309   3.320
35064W        W96727   4.391  30.601   0.743
35065W        W96728  39.557   6.208  14.316
35066W        W96729  37.565   1.826  11.591
35067W        W96730  24.975   6.799   3.313
35068W        W96731  35.438  36.892  13.870
35069W        W96732  19.540  34.543   1.219
35070W        W96733  26.585  33.122  12.032
35071W        W96734  27.528  19.681   0.926
35072W        W96735   3.772  33.415   4.123
35073W        W96736  28.015  18.573  11.069
35074W        W96737  29.654  16.614   2.671
35075W        W96738  17.184  32.588  14.908
35076W        W96739  25.084  43.334  14.472
35077W        W96740  12.242  33.129   4.622
35078W        W96741   4.223  15.700   0.294
35079W        W96742   6.844  11.275  14.783
35080W        W96743  24.198  20.138   3.861
35081W        W96744   4.204  21.226   0.454
35082W        W96745  29.578  14.278   0.407
35083W        W96746   6.902  38.824   4.211
35084W        W96747  38.490  35.060  11.107
35085W        W96748  19.638   5.690   3.748
35086W        W96749  25.002  39.349   3.384
35087W        W96750  44.004  10.838  14.436
35088W        W96751   5.236  24.130  10.535
35089W        W96752  30.084  23.637  11.565
35090W        W96753  44.921  38.532  11.597
35091W        W96754  11.635  30.632   0.377
35092W        W96755  35.471   1.731   3.704
35093W        W96756  30.100  22.693   1.357
35094W        W96757  42.790  18.119  14.468
35095W        W96758  42.842   4.792  11.550
35096W        W96759  10.821  33.985   2.888
35097W        W96760  35.390   2.789   3.647
35098W        W96761  21.693  12.693   0.751
35099W        W96762  15.582  26.619   3.812
35100W        W96763  22.102  20.592  12.575
35101W        W96764  44.283  23.639   4.316
35102W        W96765   0.971  18.667  12.535
35103W        W96766  22.019  20.095  13.026
35104W        W96767  37.533  17.637  13.327
35105W        W96768   6.712  22.021  13.344
35106W        W96769  36.446  14.276  10.092
35107W        W96770  36.844  28.957  13.316
35108W        W96771  44.823  19.231  10.503
35109W        W96772  43.868  18.563  11.028
35110W        W96773  22.536  12.312  12.826
35111W        W96774  43.505  23.221  12.505
35112W        W96775   4.249  14.115   1.708
35113W        W96776  43.279  18.784   3.689
35114W        W96777   5.305   7.179  14.456
35115W        W96778  44.410  21.637   4.252
35116W        W96779  18.651  32.987  14.996
35117W        W96780  35.020   8.864  14.364
35118W        W96781  28.133  30.599  12.515
35119W        W96782  39.886  25.190   1.302
35120W        W96783  16.263  44.851  11.439
35121W        W96784  18.704  23.109   0.417
35122W        W96785  26.028  22.075   4.677
35123W        W96786  39.351  29.065  13.018
35124W        W96787  25.539  11.180   2.780
35125W        W96788  15.662   6.383   1.348
35126W        W96789  21.041   4.842  10.946
35127W        W96790  15.224  17.714   1.447
35128W        W96791  44.359   9.748   1.697
35129W        W96792  29.047  35.482  11.438
35130W        W96793  32.066  42.902  13.468
35131W        W96794  14.316  29.602  10.918
35132W        W96795  33.474  36.467   0.740
35133W        W96796   5.287  38.379   3.378
35134W        W96797  39.538  26.019  11.028
35135W        W96798   9.200   5.327   2.228
35136W        W96799  11.756   0.808  14.291
35137W        W96800  16.131   9.189   4.767
35138W        W96801  16.802  43.020   4.682
35139W        W96802  11.731   6.426   0.262
35140W        W96803  14.206   3.410  11.555
35141W        W96804  19.072  36.859  14.362
35142W        W96805  30.510  30.417   3.226
35143W        W96806  43.418  37.375   3.832
35144W        W96807  11.281  11.267   2.263
35145W        W96808  26.000  23.058   3.203
35146W        W96809   4.804  30.597   4.280
35147W        W96810  17.146  42.342   3.233
35148W        W96811   7.719  17.172  11.400
35149W        W96812  22.111  28.483  13.375
35150W        W96813  17.708   9.299   1.300
35151W        W96814  23.995   5.380  12.921
35152W        W96815   1.354  39.812  12.983
35153W        W96816  35.047  11.369  14.333
35154W        W96817   8.820  39.857   4.794
35155W        W96818  41.974   0.485   0.295
35156W        W96819  24.618  25.119  13.431
35157W        W96820  13.196  28.115   2.265
35158W        W96821  43.512   1.940   1.774
35159W        W96822  13.309   4.758  13.954
35160W        W96823  29.049  37.465  12.520
35161W        W96824   1.959  41.814  14.961
35162W        W96825  27.151  18.074  12.848
35163W        W96826  44.983  40.036  14.854
35164W        W96827  23.212  26.637   3.384
35165W        W96828  11.650   0.279  13.343
35166W        W96829  31.625   2.417   4.819
35167W        W96830  30.013   2.799  12.544
35168W        W96831  26.000  20.266   3.308
35169W        W96832   0.488  43.464   1.306
35170W        W96833  43.900  16.202  11.986
35171W        W96834  24.509  24.519   3.635
35172W        W96835  29.966  43.904   4.632
35173W        W96836  22.085  14.187   2.262
35174W        W96837  41.444   3.944   1.911
35175W        W96838   5.925  27.986  12.873
35176W        W96839   8.878  18.292   2.282
35177W        W96840  42.371  14.589  12.443
35178W        W96841  40.328  44.439   3.348
35179W        W96842  39.415  30.639  11.012
35180W        W96843   9.156  22.626   3.177
35181W        W96844  40.884  19.067   4.754
35182W        W96845  37.966  38.054  10.572
35183W        W96846  24.974  35.062   1.799
35184W        W96847  29.586  32.067   4.249
35185W        W96848  34.073  23.016   9.572
35186W        W96849  37.450  37.387  12.568
35187W        W96850  26.648  38.967   5.300
35188W        W96851  28.079  10.689  12.968
35189W        W96852  32.942  12.812   4.318
35190W        W96853  15.818  18.249  12.932
35191W        W96854  10.801   2.800   2.871
35192W        W96855   8.675  17.220  14.782
35193W        W96856  13.728   2.816  13.515
35194W        W96857   5.792   1.462   3.177
35195W        W96858  26.042  13.302  13.394
35196W        W96859  25.093   9.237   1.418
35197W        W96860   5.378  22.233  12.838
35198W        W96861  35.460  13.194  10.487
35199W        W96862  41.370  38.860  11.447
35200W        W96863  21.049  25.598   2.373
35201W        W96864  25.962  16.289  11.071
35202W        W96865  25.478  14.302  14.876
35203W        W96866  42.402  29.112   2.675
35204W        W96867  44.298   3.292   0.913
35205W        W96868  21.113  16.219   4.763
35206W        W96869  17.086   1.852  12.546
35207W        W96870  29.597  20.039   2.665
35208W        W96871  26.100   5.402   1.424
35209W        W96872  11.195  43.801   0.315
35210W        W96873  13.225  16.628   0.961
35211W        W96874  19.224  10.845   0.781
35212W        W96875   8.280  11.707  11.590
35213W        W96876  31.030  42.513  13.987
35214W        W96877  13.685  27.021   0.833
35215W        W96878  43.392  27.085   3.269
35216W        W96879  35.362   0.904   2.868
35217W        W96880  30.993  10.670   4.279
35218W        W96881  36.951  31.133   4.315
35219W        W96882   0.912  13.117   0.403
35220W        W96883  14.641  23.159   0.458
35221W        W96884  24.045  32.989   0.861
35222W        W96885  25.980  22.196  14.910
35223W        W96886  25.511  12.630  11.440
35224W        W96887   7.185   5.825   1.415
35225W        W96888  30.609  13.726  10.544
35226W        W96889  33.508  15.101   2.894
35227W        W96890  31.477  36.963  10.411
35228W        W96891   8.828  26.030   1.213
35229W        W96892  40.003  17.143  11.577
35230W        W96893  25.062  18.701  14.420
35231W        W96894  33.518  43.462   1.416
35232W        W96895  10.705  13.286  14.282
35233W        W96896  12.226  12.739   3.786
35234W        W96897  12.129  18.236  13.794
35235W        W96898  11.649  31.117   4.728
35236W        W96899   6.806  18.263  14.807
35237W        W96900  37.554   3.761  12.441
35238W        W96901  29.174  13.128   2.833
35239W        W96902   6.912  35.378  11.908
35240W        W96903   1.889  30.563  14.952
35241W        W96904  10.211  12.353  12.025
35242W        W96905  23.697  36.997  14.803
35243W        W96906   3.440  39.482   4.225
35244W        W96907  39.052   2.781  11.922
35245W        W96908  31.050  21.153   9.673
35246W        W96909  39.365  27.062   2.336
35247W        W96910  26.521  38.425   2.742
35248W        W96911  21.600  21.206   3.632
35249W        W96912  38.540  17.723  12.368
35250W        W96913  42.314  21.649   4.629
35251W        W96914  25.618  18.623  13.039
35252W        W96915  10.768   7.232  13.813
35253W        W96916  12.278  10.723   5.186
35254W        W96917   9.152  43.953  12.571
35255W        W96918   6.815   6.228  13.962
35256W        W96919  38.063  10.352  12.913
35257W        W96920  12.810  15.742   2.820
35258W        W96921  14.129  13.807  14.327
35259W        W96922  15.272  39.983   5.157
35260W        W96923   7.312   1.847  10.595
35261W        W96924  19.574   1.387  14.325
35262W        W96925  25.070  19.767  12.468
35263W        W96926  17.627  25.583  12.867
35264W        W96927  26.602  26.528   4.285
35265W        W96928  39.376  27.967   2.679
35266W        W96929  28.985  15.295  14.400
35267W        W96930   3.944  32.127   4.234
35268W        W96931   7.367  38.416   3.804
35269W        W96932   2.331  42.434   0.868
35270W        W96933  23.028   7.196  10.569
35271W        W96934   5.752  39.051  11.000
35272W        W96935   9.682  24.020  13.358
35273W        W96936  33.578   2.417   5.143
35274W        W96937  21.141  33.591   5.143
35275W        W96938  29.126  15.172  13.949
35276W        W96939  11.320  41.377   0.774
35277W        W96940   2.284  14.327   1.928
35278W        W96941  33.975  39.382  14.889
35279W        W96942  10.328  37.966  10.422
35280W        W96943   8.864  42.426  12.965
35281W        W96944   5.287   2.389   2.728
35282W        W96945  22.652  40.399  12.981
35283W        W96946   2.294   3.732   3.307
35284W        W96947  12.212  20.527   0.425
35285W        W96948  43.804   0.787   4.700
35286W        W96949  23.639  21.636   4.608
35287W        W96950   3.334  22.234   1.445
35288W        W96951  26.118  23.100   3.760
35289W        W96952   8.803   4.399  11.887
35290W        W96953   3.225   2.862   4.728
35291W        W96954  31.079   0.847   3.771
35292W        W96955  17.572  36.011  10.471
35293W        W96956  44.877  14.692   1.771
35294W        W96957  11.145  36.043  12.990
35295W        W96958  39.833  18.160  10.935
35296W        W96959  20.245  37.066  13.404
35297W        W96960  32.556  19.664   5.322
35298W        W96961  21.610  43.323  10.501
35299W        W96962  20.129  38.823  12.896
35300W        W96963  23.156  15.703   3.296
35301W        W96964  31.070  22.667  12.422
35302W        W96965  26.457   9.341  13.473
35303W        W96966  13.653  29.952  13.003
35304W        W96967  25.163  33.583  12.886
35305W        W96968  37.424  41.823  13.545
35306W        W96969   3.710  22.742  10.599
35307W        W96970   6.889  27.641  14.292
35308W        W96971  24.139  22.575  13.498
35309W        W96972  30.045  22.740   5.265
35310W        W96973  31.968  34.437   4.280
35311W        W96974   5.711  42.022   2.715
35312W        W96975  24.138  25.147   3.810
35313W        W96976  34.581  36.476  12.423
35314W        W96977  22.200  17.709   3.376
35315W        W96978  26.015   5.363   0.965
35316W        W96979  38.856  23.610  13.380
35317W        W96980  20.725  44.784   3.752
35318W        W96981   2.792  30.939  10.903
35319W        W96982  33.445  31.126   3.244
35320W        W96983   2.255  17.161  11.430
35321W        W96984  41.973   0.283   4.347
35322W        W96985  35.861  18.162  11.574
35323W        W96986   5.875   6.328   0.401
35324W        W96987   6.863  42.850   4.735
35325W        W96988  39.402  19.616   2.410
35326W        W96989  42.979  42.018  13.430
35327W        W96990   9.820   1.818  12.903
35328W        W96991  40.390  15.685  10.019
35329W        W96992  30.566  22.212   2.722
35330W        W96993  27.673  10.848  12.081
35331W        W96994  38.070  39.916  11.068
35332W        W96995  38.920  20.708  14.787
35333W        W96996  21.043  38.066  11.071
35334W        W96997  17.645  26.535  14.349
35335W        W96998  15.152   3.257  13.792
35336W        W96999  32.935   0.795   4.314
35337W        W97000  21.715  12.186   3.367
35338W        W97001  22.208  11.321   0.372
35339W        W97002  17.201  16.682  11.556
35340W        W97003  39.391  22.633  12.352
35341W        W97004  29.464  43.505   2.784
35342W        W97005  20.561  30.590   2.787
35343W        W97006  19.244   2.458  13.519
35344W        W97007  18.594   2.417   4.611
35345W        W97008  18.151   2.907  11.482
35346W        W97009   3.807  35.027   4.705
35347W        W97010  42.938  37.397   5.197
35348W        W97011  37.840  33.956  11.033
35349W        W97012  44.341   1.405  10.457
35350W        W97013  34.966   2.226   5.192
35351W        W97014   3.226  22.521   2.309
35352W        W97015   2.748  24.160  12.062
35353W        W97016  37.536  31.572   4.291
35354W        W97017   9.826  13.769   3.198
35355W        W97018  32.521   5.383  14.020
35356W        W97019   3.424   1.302  12.488
35357W        W97020  30.041  21.605  11.374
35358W        W97021  40.449  22.159   0.251
35359W        W97022  41.984  28.945   0.889
35360W        W97023  35.599   3.846  13.536
35361W        W97024  42.025  17.205   0.397
35362W        W97025   7.837   9.327   5.103
35363W        W97026  16.094  11.647  12.089
35364W        W97027  43.925  41.295   1.754
35365W        W97028   4.350  28.055  10.501
35366W        W97029   0.466  23.624   2.246
35367W        W97030  22.243  11.654  14.006
35368W        W97031  29.172  38.336   0.293
35369W        W97032  21.544  27.160   4.835
35370W        W97033   7.295  12.153  14.462
35371W        W97034   8.692  32.116   1.292
35372W        W97035  38.480  10.755   0.258
35373W        W97036  36.352  24.599   3.322
35374W        W97037  39.485   7.361   0.377
35375W        W97038  12.630  42.823  10.616
35376W        W97039  20.151   0.930   1.785
35377W        W97040   5.881  20.064  11.070
35378W        W97041  21.729   9.173  11.504
35379W        W97042  22.134  39.896   3.348
35380W        W97043  21.050  25.064   2.809
35381W        W97044  18.674  37.486  10.034
35382W        W97045  19.060  35.033   0.302
35383W        W97046  26.009   1.963  10.155
35384W        W97047  21.654  30.420   3.768
35385W        W97048  41.364   5.435  10.637
35386W        W97049  22.068  37.871  11.440
35387W        W97050  39.457   2.365   1.910
35388W        W97051   3.908  22.736   3.328
35389W        W97052   3.236   0.911   2.287
35390W        W97053   7.795  25.656   0.834
35391W        W97054  40.933  32.123   1.760
35392W        W97055  22.141  16.728   3.698
35393W        W97056  12.169  27.605  12.519
35394W        W97057  28.112  30.922   0.291
35395W        W97058   3.926  42.511   0.335
35396W        W97059   0.316   3.323   2.722
35397W        W97060   5.914  40.977   1.338
35398W        W97061  37.024   5.365  12.512
35399W        W97062  40.503   7.726  11.006
35400W        W97063  24.145   2.386  14.914
35401W        W97064   8.824  13.205   2.302
35402W        W97065  37.512  34.530  13.370
35403W        W97066   8.239  17.696  14.829
35404W        W97067  10.803  13.176  10.409
35405W        W97068  20.557   7.257  13.844
35406W        W97069  35.925  13.741   2.402
35407W        W97070  28.993  38.494   3.350
35408W        W97071  11.245  27.000   1.249
35409W        W97072   0.988  25.548   4.195
35410W        W97073  24.230  36.394  12.460
35411W        W97074  41.923  36.873  12.372
35412W        W97075  15.204  24.581   1.865
35413W        W97076   6.846  43.395  12.375
35414W        W97077  41.801  30.054   1.268
35415W        W97078  28.093  34.881  11.540
35416W        W97079  36.539  29.047  10.980
35417W        W97080  16.191  15.779   1.740
35418W        W97081  22.581  23.606   1.412
35419W        W97082  31.048  40.965  14.296
35420W        W97083  22.673  42.985   5.212
35421W        W97084   6.885  25.995   1.827
35422W        W97085  25.501  30.458   2.865
35423W        W97086  35.865  16.084   3.265
35424W        W97087  23.592  38.349   2.859
35425W        W97088  17.240  32.081  13.973
35426W        W97089  25.046  24.074  11.976
35427W        W97090   3.259   3.828  12.855
35428W        W97091  42.316  31.559   3.691
35429W        W97092  23.194  15.241  10.632
35430W        W97093   4.936  23.587   9.942
35431W        W97094  32.903  23.564  12.935
35432W        W97095  34.497  10.801   2.234
35433W        W97096  19.103  26.088   0.308
35434W        W97097  41.455   5.414   0.336
35435W        W97098  38.843  32.059   4.147
35436W        W97099  32.057  22.013   0.852
35437W        W97100  30.608   6.210  14.434
35438W        W97101  16.617  34.086  11.537
35439W        W97102  16.739  19.691   3.206
35440W        W97103   8.296  33.416   1.215
35441W        W97104   2.428  28.493  10.931
35442W        W97105  40.829  22.508   0.781
35443W        W97106  25.643  30.146  10.989
35444W        W97107   8.785  25.104  12.381
35445W        W97108  32.439  43.804  11.868
35446W        W97109   6.833  15.739   2.816
35447W        W97110  42.982   7.819  13.833
35448W        W97111   9.852   2.888   0.952
35449W        W97112   6.823   8.352  10.466
35450W        W97113  36.588   6.315   4.217
35451W        W97114  10.818   6.742   5.280
35452W        W97115  22.705  19.646   0.812
35453W        W97116  44.467  28.943   4.636
35454W        W97117  21.711   2.258   3.793
35455W        W97118  41.526  22.221   3.193
35456W        W97119  19.060   4.745   1.862
35457W        W97120  23.620  19.535   4.143
35458W        W97121  20.073   2.904   9.566
35459W        W97122  42.450  34.983  11.118
35460W        W97123  14.214  14.822   4.191
35461W        W97124  26.178  36.527   2.775
35462W        W97125  39.978  39.453   2.238
35463W        W97126  10.244  22.712   3.804
35464W        W97127  42.977  27.489  11.929
35465W        W97128  40.893  11.834   0.906
35466W        W97129  13.769  18.117   2.202
35467W        W97130  40.901  29.573   4.749
35468W        W97131   1.454  43.816   0.360
35469W        W97132  19.186  10.296   0.334
35470W        W97133  39.419  40.918   0.446
35471W        W97134  13.811  43.925  12.410
35472W        W97135   7.694  23.584   2.814
35473W        W97136  34.475   8.681   2.794
35474W        W97137  34.565  29.084  13.377
35475W        W97138  20.267  15.753   5.229
35476W        W97139  38.501   0.323   2.339
35477W        W97140  32.891  44.471   1.845
35478W        W97141  44.978  23.230  14.347
35479W        W97142  41.365  37.439   0.352
35480W        W97143  16.676  37.524   1.797
35481W        W97144  22.668  29.091  13.351
35482W        W97145  16.747  42.814   0.449
35483W        W97146  18.176  33.880  13.872
35484W        W97147  34.946  23.985  11.043
35485W        W97148  33.103   9.848  12.471
35486W        W97149   0.315   5.930  11.925
35487W        W97150  17.704  17.670  10.988
35488W        W97151  34.522  41.817   4.291
35489W        W97152  11.721  27.086  11.505
35490W        W97153  21.157  26.057  14.834
35491W        W97154   6.717  15.644   0.845
35492W        W97155  13.617  25.039  14.875
35493W        W97156  38.926   9.376  11.078
35494W        W97157   4.736  16.270   0.772
35495W        W97158  33.613  22.190   0.950
35496W        W97159  29.437  41.990   5.319
35497W        W97160  10.828   2.932   4.680
35498W        W97161  26.074  43.779   3.752
35499W        W97162  33.936  27.996  11.945
35500W        W97163  19.584  42.945  11.030
35501W        W97164  23.199  24.576  10.471
35502W        W97165  24.683  25.976  14.275
35503W        W97166  23.137  25.068   3.216
35504W        W97167  38.032  19.645   2.284
35505W        W97168   8.261   3.950   1.876
35506W        W97169  12.206  30.455  10.452
35507W        W97170  39.536   9.247  14.320
35508W        W97171  21.071  16.614   0.865
35509W        W97172  11.745  14.113   4.776
35510W        W97173  10.761  27.683   1.803
35511W        W97174  35.402  32.032   4.124
35512W        W97175  10.262  33.905  10.455
35513W        W97176   9.337  39.919  14.292
35514W        W97177  30.056  25.086   1.399
35515W        W97178  34.614  13.239  13.330
35516W        W97179   1.740  22.242  11.398
35517W        W97180   1.946   5.715  14.414
35518W        W97181  38.992  15.706  10.452
35519W        W97182   4.769  27.515   2.183
35520W        W97183  33.508  40.040  10.513
35521W        W97184  10.870  30.633  12.343
35522W        W97185  31.524  20.104  14.824
35523W        W97186  39.461   7.760   1.879
35524W        W97187  10.295  40.332  11.534
35525W        W97188  16.664  38.956  10.607
35526W        W97189  33.517  28.108  11.413
35527W        W97190   5.239  14.096   4.820
35528W        W97191  42.500  26.679   0.820
35529W        W97192   1.914   7.735   3.368
35530W        W97193   5.300  34.425   1.909
35531W        W97194  37.417  34.040   4.135
35532W        W97195   1.782  41.487  14.278
35533W        W97196  36.962   8.693   2.214
35534W        W97197  40.394   1.313  12.093
35535W        W97198  40.956  25.569  10.471
35536W        W97199  34.403  40.858   0.846
35537W        W97200  15.594  33.408   1.358
35538W        W97201  21.124  20.662   1.885
35539W        W97202  30.429   4.406   4.162
35540W        W97203  18.708  21.186  13.346
35541W        W97204   1.290   7.894  13.979
35542W        W97205  32.407  24.066  12.541
35543W        W97206  22.217  37.536   1.369
35544W        W97207  21.527  36.976   2.661
35545W        W97208  32.633   0.435  14.016
35546W        W97209  40.932  23.123   2.785
35547W        W97210  36.367  29.546  12.066
35548W        W97211  32.513  19.625   1.394
35549W        W97212  43.987  12.816  12.093
35550W        W97213  43.496  25.162   2.403
35551W        W97214  37.861  25.061   3.658
35552W        W97215  17.068  34.573  12.067
35553W        W97216  19.089  17.136   3.677
35554W        W97217  26.587  15.315  12.453
35555W        W97218  25.659  18.245  14.393
35556W        W97219   3.938  31.403  12.048
35557W        W97220  14.810  11.692   1.929
35558W        W97221  17.643  21.610  12.938
35559W        W97222  38.913  38.379   3.347
35560W        W97223  20.153  24.162   3.704
35561W        W97224  13.808  44.914   4.285
35562W        W97225  30.970  24.485  10.494
35563W        W97226  41.295   7.300  11.541
35564W        W97227   6.302  26.494   3.208
35565W        W97228  30.468   5.692   0.299
35566W        W97229  34.608  11.228   2.676
35567W        W97230  12.692  23.493   1.416
35568W        W97231  35.398  21.580  11.949
35569W        W97232  41.803  29.501   3.770
35570W        W97233   9.310   8.843  10.154
35571W        W97234  39.956  25.033   3.753
35572W        W97235   4.297  23.121  12.342
35573W        W97236  11.740  20.728   0.407
35574W        W97237  39.013   3.734   0.374
35575W        W97238  40.995  28.466  11.570
35576W        W97239  44.453   9.231   0.334
35577W        W97240   8.402  30.600   3.632
35578W        W97241  32.990  35.535  12.348
35579W        W97242   9.680  36.569  13.421
35580W        W97243  14.165   3.315  10.502
35581W        W97244  12.644   0.269  14.963
35582W        W97245  32.974   5.283  11.574
35583W        W97246  17.723  35.508  14.859
35584W        W97247   7.233  28.966  14.442
35585W        W97248   1.887  17.734   3.833
35586W        W97249  11.211  16.271   4.766
35587W        W97250  22.099  18.116   2.251
35588W        W97251   1.805  25.143  10.957
35589W        W97252  39.415  10.854  10.407
35590W        W97253   8.708  39.458   1.327
35591W        W97254  29.568   9.216  11.520
35592W        W97255  18.129  10.221   0.415
35593W        W97256  25.606   5.912  14.869
35594W        W97257  27.524  13.196  11.963
35595W        W97258  36.575   6.818  14.971
35596W        W97259  15.724  41.025   0.441
35597W        W97260  14.284  11.344  14.891
35598W        W97261   5.414  16.221   4.627
35599W        W97262   3.751  38.334  11.103
35600W        W97263   9.772  15.136  14.484
35601W        W97264   5.410  30.159   0.286
35602W        W97265  24.996   3.893  14.485
35603W        W97266  36.370  27.517  12.964
35604W        W97267  23.536  16.101  14.879
35605W        W97268  19.659  19.630  14.327
35606W        W97269  29.151  24.114   4.190
35607W        W97270  32.504   6.735   3.214
35608W        W97271  25.516  18.762  14.332
35609W        W97272  17.734  32.558   2.254
35610W        W97273  34.500   5.930  14.998
35611W        W97274  18.552   2.284  11.879
35612W        W97275  27.605  18.593  11.025
35613W        W97276   1.782  16.087  11.128
35614W        W97277  36.380  31.613  10.529
35615W        W97278  20.758   3.910  11.549
35616W        W97279   5.351  28.439  10.932
35617W        W97280  41.035   7.375   1.232
35618W        W97281   8.292  32.021   1.441
35619W        W97282  33.433  13.166   5.094
35620W        W97283  37.004  42.513   2.863
35621W        W97284   8.241  24.126  11.921
35622W        W97285  22.094  33.096   2.715
35623W        W97286   0.869   0.838   4.126
35624W        W97287  42.282  18.153   2.689
35625W        W97288  42.892   4.412   1.407
35626W        W97289  42.861  14.173  12.361
35627W        W97290  33.481  44.871  11.498
35628W        W97291  19.056  40.405  11.992
35629W        W97292  32.536   9.703  12.027
35630W        W97293  29.023  29.584   0.866
35631W        W97294  26.090  44.815  11.934
35632W        W97295  27.476  29.980   1.374
35633W        W97296  38.964  29.110  11.509
35634W        W97297   2.925  44.812  11.985
35635W        W97298  34.582  25.713  10.495
35636W        W97299  32.573  15.661   1.288
35637W        W97300   1.300   9.285   2.229
35638W        W97301  18.201   7.414  14.991
35639W        W97302  20.090   5.908  12.079
35640W        W97303  29.928  42.930  14.912
35641W        W97304  10.263  43.299   4.629
35642W        W97305   9.355  42.971   1.753
35643W        W97306  41.530   8.833   9.630
35644W        W97307   2.351  13.179   0.379
35645W        W97308  28.985  18.268   2.368
35646W        W97309   6.710  37.994  14.856
35647W        W97310  35.947  29.097   3.825
35648W        W97311  19.608  17.211   2.688
35649W        W97312  15.743   8.278   4.217
35650W        W97313  37.437  25.615  14.353
35651W        W97314   2.777   3.892  11.092
35652W        W97315  15.605  10.285   0.779
35653W        W97316   8.865  42.316   2.304
35654W        W97317  15.265   1.444  13.350
35655W        W97318   6.362  35.854   0.284
35656W        W97319  17.244  39.019  14.994
35657W        W97320  44.010  34.912   2.388
35658W        W97321  38.951  16.240   0.421
35659W        W97322   1.814  31.611   0.958
35660W        W97323   7.270   7.830  10.083
35661W        W97324  12.797  29.456  11.017
35662W        W97325  18.186  24.611  13.506
35663W        W97326   7.780  39.945   0.951
35664W        W97327  17.677  40.010   3.635
35665W        W97328  11.703  30.597  11.118
35666W        W97329   0.420  33.563  11.610
35667W        W97330  11.814  22.558   1.917
35668W        W97331  33.055  27.123  13.910
35669W        W97332  12.687  14.748   4.802
35670W        W97333  43.319   9.307   2.724
35671W        W97334   5.743  17.097   1.427
35672W        W97335  39.354  22.550  14.425
35673W        W97336  28.656  32.086   4.808
35674W        W97337  17.202  20.255  11.474
35675W        W97338   3.844  19.631  14.430
35676W        W97339  27.101   8.196   2.232
35677W        W97340  23.671  19.189   1.381
35678W        W97341   6.215  33.543   5.244
35679W        W97342   7.231  28.654  10.553
35680W        W97343   3.272  42.007   3.777
35681W        W97344  29.512  40.519  10.634
35682W        W97345  11.276  28.161  11.373
35683W        W97346  25.537   4.303   1.817
35684W        W97347  25.593  35.961   0.244
35685W        W97348  10.864  33.405  13.451
35686W        W97349  28.939  40.381   4.688
35687W        W97350  12.196  40.036   3.232
35688W        W97351  27.153  20.668  14.787
35689W        W97352  29.425  32.983  10.408
35690W        W97353  36.509  38.871   2.857
35691W        W97354  21.612  42.321   1.445
35692W        W97355  41.840  22.553   4.785
35693W        W97356  23.034  38.526   1.815
35694W        W97357  36.077   3.291   1.833
35695W        W97358  40.394  28.539   0.887
35696W        W97359  20.102  13.156   0.356
35697W        W97360  43.913  21.640  13.912
35698W        W97361  43.406  12.752  11.050
35699W        W97362  44.944   1.820  11.432
35700W        W97363  29.641  43.015  11.114
35701W        W97364  41.538  40.863  14.298
35702W        W97365  33.069   4.904   4.786
35703W        W97366   2.881  15.264   3.671
35704W        W97367  27.083   0.310  11.982
35705W        W97368   1.367  21.674  12.908
35706W        W97369  26.651  38.044  14.498
35707W        W97370  34.608  17.734   1.770
35708W        W97371  12.228  36.948  10.037
35709W        W97372  43.387  42.834   1.907
35710W        W97373  26.569  32.601  14.370
35711W        W97374  22.623  32.011   1.231
35712W        W97375  36.466  35.011  13.956
35713W        W97376  38.348  11.670   1.868
35714W        W97377  40.846  26.999  11.902
35715W        W97378  27.576  34.026   0.294
35716W        W97379  41.870  12.143  10.596
35717W        W97380   9.150  23.580  11.515
35718W        W97381  22.052  30.520   3.292
35719W        W97382  38.990  21.069  11.476
35720W        W97383  23.070  29.999   1.880
35721W        W97384  12.302   4.716   0.280
35722W        W97385  14.209  29.139  14.465
35723W        W97386  40.342  21.552  11.582
35724W        W97387  44.500  24.108   3.786
35725W        W97388  15.640   2.345   2.284
35726W        W97389  20.056   8.306  13.515
35727W        W97390  21.613  26.150  13.816
35728W        W97391  16.211  23.200  11.042
35729W        W97392  16.621  39.035  12.017
35730W        W97393  31.553  22.621  14.373
35731W        W97394  20.568   8.209   3.727
35732W        W97395  26.546   3.284   2.195
35733W        W97396  18.157  20.084   3.331
35734W        W97397  33.531  19.079  10.110
35735W        W97398  20.687  25.598   0.746
35736W        W97399  16.813  22.122  14.353
35737W        W97400  41.426  32.514   4.648
35738W        W97401  16.718  41.445   2.784
35739W        W97402  13.805  38.564   0.881
35740W        W97403  35.481  12.695  10.618
35741W        W97404  25.503   4.329   1.237
35742W        W97405  39.010   0.777  14.408
35743W        W97406   6.753  26.159  14.328
35744W        W97407  11.189  32.022  14.876
35745W        W97408  17.241  30.079   3.187
35746W        W97409   4.913  28.527  13.050
35747W        W97410  42.989  20.626  13.935
35748W        W97411  33.607   4.938  10.960
35749W        W97412  27.622   1.327  10.490
35750W        W97413  21.554  16.628   4.248
35751W        W97414   0.820  14.285   2.339
35752W        W97415  28.969  43.320  14.764
35753W        W97416  38.049  13.706  12.830
35754W        W97417   2.337  44.827   2.729
35755W        W97418  19.651  34.438  11.118
35756W        W97419   3.456  26.205  13.521
35757W        W97420  42.474  11.214   3.640
35758W        W97421  32.557  12.781  14.463
35759W        W97422  42.813  30.150   1.756
35760W        W97423   1.430  35.863  11.548
35761W        W97424   8.757   0.899  13.857
35762W        W97425  26.503  31.124  12.465
35763W        W97426  27.121  38.047   4.818
35764W        W97427  41.467  16.648   4.678
35765W        W97428  16.713  43.825   3.336
35766W        W97429  40.955  34.879   0.882
35767W        W97430  33.445  41.963  14.858
35768W        W97431  12.147  10.812   1.228
35769W        W97432  25.039  27.605  13.464
35770W        W97433  22.620  17.233   4.121
35771W        W97434   4.436  27.953  11.107
35772W        W97435   5.830  22.015  12.898
35773W        W97436  18.766  28.612  12.527
35774W        W97437  31.908  43.451   4.332
35775W        W97438  41.960  27.575  12.860
35776W        W97439  22.511  39.441   4.757
35777W        W97440  26.641  12.758  10.405
35778W        W97441  40.957  10.669  14.902
35779W        W97442  40.841  35.466  12.531
35780W        W97443  17.792  20.639  14.443
35781W        W97444  19.065  12.741  13.020
35782W        W97445  29.648  43.411  11.122
35783W        W97446  14.194  44.886  11.027
35784W        W97447  26.191  17.134  12.096
35785W        W97448  26.610   1.781   3.782
35786W        W97449  27.087  19.210   4.273
35787W        W97450  17.794  41.789   2.808
35788W        W97451  41.324  11.287   0.377
35789W        W97452  27.041   4.345  12.064
35790W        W97453   1.741   3.843   1.330
35791W        W97454  32.083  15.224   0.882
35792W        W97455  14.816   2.248   1.335
35793W        W97456  12.191  42.948   1.803
35794W        W97457  31.040   8.176  14.827
35795W        W97458  13.305   9.293   4.727
35796W        W97459  27.082   7.842   0.877
35797W        W97460   1.422  11.303   4.350
35798W        W97461  26.625  34.900   1.408
35799W        W97462  23.134  14.715  10.893
35800W        W97463  23.593  30.424   3.848
35801W        W97464  21.701  39.439  11.902
35802W        W97465  43.861  43.791   3.347
35803W        W97466  24.533  23.660  14.024
35804W        W97467  22.684  40.455   0.307
35805W        W97468   1.375  18.725  14.940
35806W        W97469  22.011   4.323   0.458
35807W        W97470   1.426  23.230   2.256
35808W        W97471  43.925  32.057  10.598
35809W        W97472   9.760  40.429   3.182
35810W        W97473  32.499  44.780   0.443
35811W        W97474  11.634  28.975   1.852
35812W        W97475  33.576   1.865   1.778
35813W        W97476   7.680  21.245  13.870
35814W        W97477  32.434  10.294  11.038
35815W        W97478  37.900  13.163  11.073
35816W        W97479  11.704  10.699  10.482
35817W        W97480   1.903  29.542  13.896
35818W        W97481  29.153  16.194   4.690
35819W        W97482  41.021  33.919  13.967
35820W        W97483  27.544  43.896  12.575
35821W        W97484  13.716  22.554  10.622
35822W        W97485  34.553  34.440  11.996
35823W        W97486  27.189  40.468  11.898
35824W        W97487  25.643   2.235   3.807
35825W        W97488  38.924  34.881  12.085
35826W        W97489  17.146  12.778  13.795
35827W        W97490  19.739  24.613   0.314
35828W        W97491   9.779  12.685   1.833
35829W        W97492   7.285  24.036   2.317
35830W        W97493  35.091  31.635   0.899
35831W        W97494  38.385  27.982   2.285
35832W        W97495  37.088  17.104  11.516
35833W        W97496  27.157  10.775   0.920
35834W        W97497  11.179  26.637   3.796
35835W        W97498  10.291  13.309   4.674
35836W        W97499  26.126  14.231  10.558
35837W        W97500  39.345  18.719  13.928
35838W        W97501  27.024  22.155   2.886
35839W        W97502  31.564  39.861   3.186
35840W        W97503  36.432   5.802   5.280
35841W        W97504  41.953  38.027  13.374
35842W        W97505  34.963  35.501   3.859
35843W        W97506  41.034   7.229  11.034
35844W        W97507  16.716  33.060   0.930
35845W        W97508  28.946  30.068  13.014
35846W        W97509  33.948  11.127  14.857
35847W        W97510   8.798  19.581   4.810
35848W        W97511  24.067  33.000  12.445
35849W        W97512  26.999  42.380  12.544
35850W        W97513   3.219  12.152   4.119
35851W        W97514   9.254   9.709  10.492
35852W        W97515   9.148  15.744  14.481
35853W        W97516  34.523   9.343   4.354
35854W        W97517  41.307  19.699   3.301
35855W        W97518  12.726  42.816  11.862
35856W        W97519  13.293  21.737  12.096
35857W        W97520  44.468  36.484  12.042
35858W        W97521  25.205   3.914  10.543
35859W        W97522  17.306   8.207   1.795
35860W        W97523  12.770  20.691  11.489
35861W        W97524  33.515  10.362   3.740
35862W        W97525   4.704   3.935   2.305
35863W        W97526   3.747   3.293   4.792
35864W        W97527   8.865   2.857   3.244
35865W        W97528  15.680  42.513  14.837
35866W        W97529  20.761   4.305  14.806
35867W        W97530  21.551  16.149   4.164
35868W        W97531  14.640  23.623   1.705
35869W        W97532  35.587   2.898   1.727
35870W        W97533  24.069  19.748   2.700
35871W        W97534  38.071  36.954   2.757
35872W        W97535  17.238  20.678  11.495
35873W        W97536  22.167  12.762  10.457
35874W        W97537  15.780  31.555   0.834
35875W        W97538  13.720   9.377  11.868
35876W        W97539  36.095  16.294  13.013
35877W        W97540  26.075  18.170   1.322
35878W        W97541  18.626   5.726   1.397
35879W        W97542  15.639  22.684   0.396
35880W        W97543  28.599  35.038  10.984
35881W        W97544  27.023  14.276   3.844
35882W        W97545  29.625   7.288  14.305
35883W        W97546  16.098  16.591   4.298
35884W        W97547  40.486   2.725   4.672
35885W        W97548  40.988  20.626  11.917
35886W        W97549  26.971  33.958  12.980
35887W        W97550  44.292  10.647   0.807
35888W        W97551   2.288  12.246   2.742
35889W        W97552  25.493   7.364   4.266
35890W        W97553  14.678  25.591  12.440
35891W        W97554  15.583  31.533  10.618
35892W        W97555  13.610  39.439   3.384
35893W        W97556   6.836   1.971  14.787
35894W        W97557   3.897  10.701  14.987
35895W        W97558  27.021  13.727  13.833
35896W        W97559  16.792  12.267  11.064
35897W        W97560  37.032  10.315   5.198
35898W        W97561  44.919  28.567   1.701
35899W        W97562  41.820  34.921  11.986
35900W        W97563  32.493  27.967   4.646
35901W        W97564  36.918   2.872  13.017
35902W        W97565  36.029   4.879   1.232
35903W        W97566  17.613  27.687  13.379
35904W        W97567  14.096  28.644  13.927
35905W        W97568   9.801   7.907   2.191
35906W        W97569   5.719  38.958  12.416
35907W        W97570   8.402  11.667   2.865
35908W        W97571  34.383  13.600  11.425
35909W        W97572  33.460  22.170   3.741
35910W        W97573   2.385  43.002   5.206
35911W        W97574  10.645  12.820  13.833
35912W        W97575  23.566   3.709   0.731
35913W        W97576  20.678  43.935  14.913
35914W        W97577  28.941  34.570   2.364
35915W        W97578  41.023  11.232   2.403
35916W        W97579  26.594  19.236  13.045
35917W        W97580   6.905   7.884   1.433
35918W        W97581  18.292  13.331  10.510
35919W        W97582  18.786  14.156   2.376
35920W        W97583  41.042   7.796   9.962
35921W        W97584  28.445  39.874   4.671
35922W        W97585   6.185  21.041   9.938
35923W        W97586  31.537  10.298  10.449
35924W        W97587  10.145  16.127   4.300
35925W        W97588  15.328   5.337  11.111
35926W        W97589  24.489  22.730  11.932
35927W        W97590  18.189   7.337   0.815
35928W        W97591  22.690  39.441  12.507
35929W        W97592   1.820  41.294   2.371
35930W        W97593  10.371  40.968  12.014
35931W        W97594   1.768  38.839  13.968
35932W        W97595  16.214  43.498   3.147
35933W        W97596  39.443  12.151   0.830
35934W        W97597  34.553  41.338   0.921
35935W        W97598  16.647  38.342   4.194
35936W        W97599  21.225  31.570  13.017
35937W        W97600  40.367  15.313  12.461
35938W        W97601   5.259  44.383   1.748
35939W        W97602  35.555  42.915  13.912
35940W        W97603  17.179  13.685   0.480
35941W        W97604   0.432  35.110   3.799
35942W        W97605  43.424  13.332  11.890
35943W        W97606  17.222  11.222  11.988
35944W        W97607  37.548  40.529   4.217
35945W        W97608   0.288  22.014  11.559
35946W        W97609  10.860  14.097   2.243
35947W        W97610  13.199   0.454   1.340
35948W        W97611  21.708   9.331  10.477
35949W        W97612   4.211  44.816  12.482
35950W        W97613  39.988  32.100   0.901
35951W        W97614   5.280  40.801  14.015
35952W        W97615  11.152  36.033  12.555
35953W        W97616   9.749  17.606  14.877
35954W        W97617  26.550   9.384  10.433
35955W        W97618  29.586  30.041   4.173
35956W        W97619  21.252   5.692  12.999
35957W        W97620  21.547  26.654  14.454
35958W        W97621  10.198  37.917  13.010
35959W        W97622   3.292  33.578  12.055
35960W        W97623  18.590   3.823  12.351
35961W        W97624  10.786  35.859   3.768
35962W        W97625  19.143   0.271   4.785
35963W        W97626  41.853   3.356  12.522
35964W        W97627  32.600  33.540  11.551
35965W        W97628   8.820  14.169  14.473
35966W        W97629  23.125  23.613  12.408
35967W        W97630   5.259  37.849  14.815
35968W        W97631  34.404  40.372   3.748
35969W        W97632  12.827  26.591  14.758
35970W        W97633  41.361  18.213   4.614
35971W        W97634  19.739  28.454   4.209
35972W        W97635  40.366   1.252  13.058
35973W        W97636  28.029  22.688  10.958
35974W        W97637  42.781  20.764   0.780
35975W        W97638  31.898  31.508   0.754
35976W        W97639  28.569   9.236   1.276
35977W        W97640  30.657   5.207   3.235
35978W        W97641   2.741  18.721  10.965
35979W        W97642  11.631  27.035   4.276
35980W        W97643  33.524  43.443   1.811
35981W        W97644   7.840  24.103   0.248
35982W        W97645  12.727  39.542   4.322
35983W        W97646   0.332  27.689   4.740
35984W        W97647   1.391   1.261   2.268
35985W        W97648  40.377  35.915   9.958
35986W        W97649   9.665   4.254  10.491
35987W        W97650  17.086  36.517   2.380
35988W        W97651  28.115  11.273  12.534
35989W        W97652   7.686  19.053   3.692
35990W        W97653  39.472  10.268   0.353
35991W        W97654  16.167  33.530   2.383
35992W        W97655  39.885  30.631   4.206
35993W        W97656   9.320  37.918  11.412
35994W        W97657  14.259  40.436   5.241
35995W        W97658   7.787  37.004   2.357
35996W        W97659   3.925  31.621   2.410
35997W        W97660   3.420  20.235   0.851
35998W        W97661  14.115  10.641  13.389
35999W        W97662  37.067   6.841  12.095
36000W        W97663  16.190  35.933  12.578
36001W        W97664  11.364   2.283   1.744
36002W        W97665   4.935  31.032   5.278
36003W        W97666  44.313   3.270  14.511
36004W        W97667   9.655  43.396  14.431
36005W        W97668   2.226  39.063   4.336
36006W        W97669  32.934  38.493  11.445
36007W        W97670  39.945   6.192  10.901
36008W        W97671  44.859  21.075  10.920
36009W        W97672   4.766  42.323  11.917
36010W        W97673  15.138  30.149   1.355
36011W        W97674  37.409  29.921  13.505
36012W        W97675   4.815   0.765  11.459
36013W        W97676   9.842   4.708  14.320
36014W        W97677  39.361  23.190  13.792
36015W        W97678  14.725  18.609  14.328
36016W        W97679  29.141  17.105   3.349
36017W        W97680  29.071  31.569  11.439
36018W        W97681   4.406  36.480   3.720
36019W        W97682  26.537  14.607  11.596
36020W        W97683  22.639  14.685   0.450
36021W        W97684  17.264  17.754  12.399
36022W        W97685   7.281  26.984   2.398
36023W        W97686  31.033  16.140  12.426
36024W        W97687   6.367  14.813   2.381
36025W        W97688  38.464  26.682  11.464
36026W        W97689  10.767  18.255  10.416
36027W        W97690  26.480   5.773   1.352
36028W        W97691  11.293   7.184   0.776
36029W        W97692  18.557  10.831  11.970
36030W        W97693  21.616  42.776  11.514
36031W        W97694  20.742  44.272   2.758
36032W        W97695  25.998  24.663   9.664
36033W        W97696   6.705  26.530   5.172
36034W        W97697  10.371  32.117  12.928
36035W        W97698  22.176  16.693   4.335
36036W        W97699  36.930  21.735   2.872
36037W        W97700  11.761   9.816   0.934
36038W        W97701  29.562  11.351  10.610
36039W        W97702  29.081  13.117  13.519
36040W        W97703  18.560  42.864  12.874
36041W        W97704   2.723  14.612   0.431
36042W        W97705  21.230  25.013  13.316
36043W        W97706  37.403  16.167   4.597
36044W        W97707  39.010  37.366  12.352
36045W        W97708   8.699  22.688  12.413
36046W        W97709   1.805  27.065   0.763
36047W        W97710   8.397  12.272   1.229
36048W        W97711  43.405  10.212   4.688
36049W        W97712   8.338   0.834  12.006
36050W        W97713  16.681  25.978   0.899
36051W        W97714  21.019  26.521  11.070
36052W        W97715  39.011  43.516  12.575
36053W        W97716   0.316  13.703  13.480
36054W        W97717  35.490   8.214   4.729
36055W        W97718  24.222  28.546  13.823
36056W        W97719  42.297  34.558  12.071
36057W        W97720   0.988  10.801  14.315
36058W        W97721  16.578  44.963  10.600
36059W        W97722   4.706  30.121  12.846
36060W        W97723  38.991  21.541  11.039
36061W        W97724  22.242  29.490  11.878
36062W        W97725  24.490  11.738   1.314
36063W        W97726  42.874   6.249   2.307
36064W        W97727   2.394  40.367  14.473
36065W        W97728  33.894  43.333  14.396
36066W        W97729  15.252  30.459   1.431
36067W        W97730  44.766  34.518   2.810
36068W        W97731   8.689   8.681   0.906
36069W        W97732  34.490  44.964   1.833
36070W        W97733   6.353  31.430   0.898
36071W        W97734   8.791  17.252  11.611
36072W        W97735  22.586  22.546  10.142
36073W        W97736  42.409   7.192  14.905
36074W        W97737  31.114  39.395  11.033
36075W        W97738   3.427   3.718   1.428
36076W        W97739   4.730  16.238  11.440
36077W        W97740  32.945  24.613  10.073
36078W        W97741   8.403  40.866   3.191
36079W        W97742  29.164  21.058  13.414
36080W        W97743  21.571  33.452  13.931
36081W        W97744   1.864  36.470  12.006
36082W        W97745  25.138  21.054   0.479
36083W        W97746   3.430   9.254   3.322
36084W        W97747  33.941  21.160  10.050
36085W        W97748  41.954  11.851  14.858
36086W        W97749   1.437  43.394   1.912
36087W        W97750  29.508  14.603  13.969
36088W        W97751  13.661  11.645  11.469
36089W        W97752  27.629  36.366   4.285
36090W        W97753  27.018  17.637   1.229
36091W        W97754   9.869  28.947  14.292
36092W        W97755  40.402  13.701   0.836
36093W        W97756  20.702  29.514  13.368
36094W        W97757  36.036   7.343   2.382
36095W        W97758  22.579   0.331  11.995
36096W        W97759  14.118  18.200   3.745
36097W        W97760  28.574  18.614  14.847
36098W        W97761  38.005  31.087   4.257
36099W        W97762  44.438   9.804  14.839
36100W        W97763  35.893   6.872   3.189
36101W        W97764  13.741  42.787  11.451
36102W        W97765  38.434  23.524  12.532
36103W        W97766  31.034  24.152  13.329
36104W        W97767  24.514  13.795  12.067
36105W        W97768  17.617  23.509  11.104
36106W        W97769  18.574  40.996  12.358
36107W        W97770  27.649  27.520  10.515
36108W        W97771  28.987  42.450  14.994
36109W        W97772  40.899  18.727   2.315
36110W        W97773  34.593   9.842  13.842
36111W        W97774  33.958  18.292  14.839
36112W        W97775  25.158  20.549  13.058
36113W        W97776  24.649  22.205   4.148
36114W        W97777  18.156   5.794   2.746
36115W        W97778   2.736  12.848   2.890
36116W        W97779  40.805  33.019  14.904
36117W        W97780   4.822  33.994  10.954
36118W        W97781  13.305  23.210  10.894
36119W        W97782   7.337  43.460  10.992
36120W        W97783  28.680  12.327   2.279
36121W        W97784   8.866  43.353  11.051
36122W        W97785   9.270  37.972  13.918
36123W        W97786   6.204  22.710  14.969
36124W        W97787   7.382   6.842   3.866
36125W        W97788  22.699  39.452   0.772
36126W        W97789  16.083  22.247   1.925
36127W        W97790  27.174  42.880   3.233
36128W        W97791  25.512   4.230  12.903
36129W        W97792   0.478  10.182  13.986
36130W        W97793   1.424  31.966   3.676
36131W        W97794  37.440  24.695  12.966
36132W        W97795  36.387  12.820   0.292
36133W        W97796  25.583  20.539  11.516
36134W        W97797  40.933  30.010  12.559
36135W        W97798  28.659  12.805   0.960
36136W        W97799  38.975  21.120  12.497
36137W        W97800  34.589  15.774  11.918
36138W        W97801   4.237  38.042  12.907
36139W        W97802  41.924  35.106  11.466
36140W        W97803   2.370  25.004   4.703
36141W        W97804  43.437  41.018   2.865
36142W        W97805  12.762   6.912  13.475
36143W        W97806  43.840  10.653  11.573
36144W        W97807  24.141   5.714  10.910
36145W        W97808  42.379  25.648   0.898
36146W        W97809  27.055  12.121  11.964
36147W        W97810  35.572   9.365  14.936
36148W        W97811  27.146  12.162  12.983
36149W        W97812  44.780  28.043  14.991
36150W        W97813   9.888   0.892   2.850
36151W        W97814  40.837  42.351  10.935
36152W        W97815  24.186   4.387  14.868
36153W        W97816  34.873  40.406   5.294
36154W        W97817  42.405  33.553  12.370
36155W        W97818  15.748  35.584   3.175
36156W        W97819  14.307  29.424   5.263
36157W        W97820  35.028   8.348  12.900
36158W        W97821  20.595  37.456  11.032
36159W        W97822  13.252  12.341   0.936
36160W        W97823  41.532  33.395  11.952
36161W        W97824  14.112  38.858   2.747
36162W        W97825   3.230  20.258   5.138
36163W        W97826  14.764  24.580  11.105
36164W        W97827  30.420  13.682   0.905
36165W        W97828   4.902   9.208   5.215
36166W        W97829  34.043   7.378   0.256
36167W        W97830   1.304  41.976  14.382
36168W        W97831   7.803  20.645  14.967
36169W        W97832  39.858  22.532  12.469
36170W        W97833  18.699  17.104  10.029
36171W        W97834  40.020   3.793  11.464
36172W        W97835  41.998  27.522   3.861
36173W        W97836   2.779   6.682   1.387
36174W        W97837  42.835  23.678   2.822
36175W        W97838  17.657   0.360   0.852
36176W        W97839  27.582  21.576  12.560
36177W        W97840   3.288   5.411   0.935
36178W        W97841  23.617   0.373   1.368
36179W        W97842  21.519   1.752  13.896
36180W        W97843   8.696  11.178   1.421
36181W        W97844  27.625   3.282   4.218
36182W        W97845  31.930   0.252  11.407
36183W        W97846  41.892  17.201  12.495
36184W        W97847  28.493  33.464  10.541
36185W        W97848  31.592  32.950   0.791
36186W        W97849  30.095  41.408  12.029
36187W        W97850  36.084   8.244   2.260
36188W        W97851   4.331  28.675  12.570
36189W        W97852   9.214   4.398  11.480
36190W        W97853  35.392   7.778  11.941
36191W        W97854  31.948   5.435  13.064
36192W        W97855   0.761  28.564  14.465
36193W        W97856  28.072  33.625   0.416
36194W        W97857   1.930  28.159   1.919
36195W        W97858  44.000  26.544  12.892
36196W        W97859   9.798   6.757  14.423
36197W        W97860  43.330   3.378  12.453
36198W        W97861  42.442  16.294   3.317
36199W        W97862  10.712  14.613   1.813
36200W        W97863   5.282  32.391   4.796
36201W        W97864  18.784  26.970   0.395
36202W        W97865  21.626   9.331  10.978
36203W        W97866  17.232  25.065  11.919
36204W        W97867  23.008  15.815   1.874
36205W        W97868   9.235  18.746  12.864
36206W        W97869   1.248  19.537  12.949
36207W        W97870   2.796  44.798   2.335
36208W        W97871  40.984  21.636   2.329
36209W        W97872  23.203  12.683   2.739
36210W        W97873  10.709  23.085   1.329
36211W        W97874  16.712  26.554   1.723
36212W        W97875  34.378  14.833  12.835
36213W        W97876  33.526  24.492  11.033
36214W        W97877  28.519  13.118   3.836
36215W        W97878  26.998  15.159  11.867
36216W        W97879  25.605  22.607   2.760
36217W        W97880  27.573  38.954   2.360
36218W        W97881  23.649  18.154  10.524
36219W        W97882  38.470   9.256  12.908
36220W        W97883   6.308  14.188   0.353
36221W        W97884  18.696  30.090   2.242
36222W        W97885   6.878   1.294   4.664
36223W        W97886  35.860   8.269  14.859
36224W        W97887  11.171  21.717  11.473
36225W        W97888   4.349  21.055   3.826
36226W        W97889  24.639  32.998   2.767
36227W        W97890   4.394  34.014   3.179
36228W        W97891   8.838  16.306   0.838
36229W        W97892  33.538  15.755  14.356
36230W        W97893  22.015   8.834  10.501
36231W        W97894   7.294  17.135   2.412
36232W        W97895  30.528  20.723   5.659
36233W        W97896  37.533  18.602   4.676
36234W        W97897  27.622  18.587   0.954
36235W        W97898  37.374   7.199   9.669
36236W        W97899  30.034  30.051  10.545
36237W        W97900  35.989  40.376  14.338
36238W        W97901  34.533  34.606   1.810
36239W        W97902  12.172   5.751   0.452
36240W        W97903  17.111  23.694   3.331
36241W        W97904  27.449  17.115   4.754
36242W        W97905  28.628  34.976  14.451
36243W        W97906   7.364  34.886   3.823
36244W        W97907  24.128   7.343  10.644
36245W        W97908  18.553  26.652  12.039
36246W        W97909  29.141  23.196   2.737
36247W        W97910  35.471  20.543   3.747
36248W        W97911  10.804  38.042  10.493
36249W        W97912   8.871  11.847   4.791
36250W        W97913   0.873  36.527   4.330
36251W        W97914  39.875  36.437  14.923
36252W        W97915  39.449  37.017  14.424
36253W        W97916  33.416  37.834  13.809
36254W        W97917  15.629   3.307  10.014
36255W        W97918  41.019  25.034  14.429
36256W        W97919  24.593   9.389  10.913
36257W        W97920   9.880   5.224  12.046
36258W        W97921   9.264   6.725  14.784
36259W        W97922  17.641  18.548   4.756
36260W        W97923  31.906  44.008  11.958
36261W        W97924  19.069   6.859   4.163
36262W        W97925  25.531  11.763  13.977
36263W        W97926  20.191  29.153  12.482
36264W        W97927  13.159   4.247  13.546
36265W        W97928  32.484  14.725   0.457
36266W        W97929   6.342   9.210  10.946
36267W        W97930  36.035   6.305   0.395
36268W        W97931  32.048  30.951   1.251
36269W        W97932   1.309  10.163   2.856
36270W        W97933  10.180  28.658   1.319
36271W        W97934  36.021  19.172   1.366
36272W        W97935  10.821  20.599  13.857
36273W        W97936  42.435  35.359   0.927
36274W        W97937  41.463  15.797   4.632
36275W        W97938  12.186  38.064  12.056
36276W        W97939   6.326   5.324  12.546
36277W        W97940   0.859  20.570  14.342
36278W        W97941  37.056  20.096  12.471
36279W        W97942  25.542  38.037  13.545
36280W        W97943  12.314  21.056   9.921
36281W        W97944  24.656  41.977   2.333
36282W        W97945  42.375  17.651  13.976
36283W        W97946  21.691   6.712  11.446
36284W        W97947  12.836  16.127   0.816
36285W        W97948  35.920  17.126  13.412
36286W        W97949  11.335   4.864  12.062
36287W        W97950   8.353  17.092   0.438
36288W        W97951  16.075  31.132  10.626
36289W        W97952  33.977  12.349   2.375
36290W        W97953  18.739  26.673   3.630
36291W        W97954  21.138   3.341   3.812
36292W        W97955  32.390  28.520   3.775
36293W        W97956   0.254  38.498  13.845
36294W        W97957  31.641  25.091  14.957
36295W        W97958  12.218  21.114   1.398
36296W        W97959   8.819  25.533   2.824
36297W        W97960  14.131  28.586  11.909
36298W        W97961   2.788   9.648  14.848
36299W        W97962   2.839  37.897   4.224
36300W        W97963  38.462  17.256   1.704
36301W        W97964  12.361   1.422  10.926
36302W        W97965   9.838  32.486   4.144
36303W        W97966  17.167   8.382  14.832
36304W        W97967  17.773  40.368   0.427
36305W        W97968  30.550   2.369   4.615
36306W        W97969  40.823  28.452   3.736
36307W        W97970  44.948  32.396   1.425
36308W        W97971  35.986  20.047   1.770
36309W        W97972  19.621  32.483  11.975
36310W        W97973  39.026  37.582  13.055
36311W        W97974  20.075  10.241  10.531
36312W        W97975  23.569  12.681  14.398
36313W        W97976  17.693  16.804   1.424
36314W        W97977  10.783  14.235   1.772
36315W        W97978  22.146  24.505   4.159
36316W        W97979  12.682  24.688  10.535
36317W        W97980  14.775  18.055  10.152
36318W        W97981  32.887  26.151  11.460
36319W        W97982  30.134  21.054   0.424
36320W        W97983  32.993  38.868  13.385
36321W        W97984  38.961  18.061   4.284
36322W        W97985  30.572   5.831   0.747
36323W        W97986   5.324  21.223  12.067
36324W        W97987  33.469  11.775  14.029
36325W        W97988  18.262  14.097  13.359
36326W        W97989  39.476  15.276  13.399
36327W        W97990   1.479  41.482  14.832
36328W        W97991   8.199  20.731   0.770
36329W        W97992  28.128  37.875  12.012
36330W        W97993  23.581  42.931   4.719
36331W        W97994  40.999  23.509   1.303
36332W        W97995  17.264   4.843  12.041
36333W        W97996  14.332  18.746   0.323
36334W        W97997  39.922  10.760   4.277
36335W        W97998   6.887   9.827  10.931
36336W        W97999  15.738  13.321   2.798
36337W        W98000  36.374  25.962   2.346
36338W        W98001   3.733  19.610   2.201
36339W        W98002  14.761  41.449  12.353
36340W        W98003  39.849  28.680  13.395
36341W        W98004  36.535  18.559   4.813
36342W        W98005  12.162  16.687   4.301
36343W        W98006  32.582   0.805  12.517
36344W        W98007  23.184  20.693  10.997
36345W        W98008  21.077  44.362   5.249
36346W        W98009  44.756  14.192   3.326
36347W        W98010  14.150  21.709  10.584
36348W        W98011  41.398  15.194   1.840
36349W        W98012  14.829   1.741   0.254
36350W        W98013  41.848   9.247   1.232
36351W        W98014  30.610  23.157   1.282
36352W        W98015  41.877  29.541  13.040
36353W        W98016  27.527  33.024  13.812
36354W        W98017  31.502  33.117  11.963
36355W        W98018  13.674  29.553   4.665
36356W        W98019  15.290  32.634   3.672
36357W        W98020   0.963  10.266   4.671
36358W        W98021   0.940  30.929  13.943
36359W        W98022  37.038  37.024   0.870
36360W        W98023  32.133  35.471  14.012
36361W        W98024  21.129   1.887  12.866
36362W        W98025  34.411  36.089   0.922
36363W        W98026   0.327  38.981  13.399
36364W        W98027  15.804   8.811  10.061
36365W        W98028   4.888  39.436  10.451
36366W        W98029  26.128  39.345   5.082
36367W        W98030  16.725  42.342   2.360
36368W        W98031  36.935   1.890   2.179
36369W        W98032   8.706  39.470  10.557
36370W        W98033   1.800  21.703   4.645
36371W        W98034  44.832  27.146   3.246
36372W        W98035   1.804  13.650   4.337
36373W        W98036  31.083   5.811   1.806
36374W        W98037  19.138  12.128   3.838
36375W        W98038   5.368   3.864  10.468
36376W        W98039  42.945  31.430   3.713
36377W        W98040  41.503  20.676   1.323
36378W        W98041  22.628  44.986   0.963
36379W        W98042  19.718   5.396  11.945
36380W        W98043   3.322  44.762  13.799
36381W        W98044  16.802  20.648   4.277
36382W        W98045  39.861  20.145  13.948
36383W        W98046  23.679  32.521   1.915
36384W        W98047  41.914  29.173  10.631
36385W        W98048  31.457  37.355   5.184
36386W        W98049  38.343   9.220  11.553
36387W        W98050  23.684  32.029  11.925
36388W        W98051  32.459  36.426   2.705
36389W        W98052   8.750  10.706   1.745
36390W        W98053  43.942  26.021  12.538
36391W        W98054  29.615  31.940  13.916
36392W        W98055   4.801  26.539  12.579
36393W        W98056  44.474  16.120   2.185
36394W        W98057  20.691  41.029   1.425
36395W        W98058  27.126  31.941   3.796
36396W        W98059  11.860  36.856   1.240
36397W        W98060  29.080   2.328   2.855
36398W        W98061  42.956  35.958   0.780
36399W        W98062  35.871  30.157   3.754
36400W        W98063  14.297  26.185   4.257
36401W        W98064   8.356   8.366  11.380
36402W        W98065  32.987  33.482   4.797
36403W        W98066  37.571   6.276   1.751
36404W        W98067  39.314  27.959   2.381
36405W        W98068   3.311  34.086  11.924
36406W        W98069  28.595  41.479   3.678
36407W        W98070  19.107   1.375  11.892
36408W        W98071   5.265  25.472  11.576
36409W        W98072  38.860  19.698  11.417
36410W        W98073   0.813  13.254  11.886
36411W        W98074  35.568  33.938  12.995
36412W        W98075  28.540   4.298  14.971
36413W        W98076   6.303  13.334   3.365
36414W        W98077  27.663  21.153  13.528
36415W        W98078  44.339  11.709   0.789
36416W        W98079  23.031  11.742   4.324
36417W        W98080  21.143   3.828   4.640
36418W        W98081   3.813  18.196  14.406
36419W        W98082  35.407  43.433  10.958
36420W        W98083  34.517   0.940  11.876
36421W        W98084  26.538  27.664   0.889
36422W        W98085   3.735  11.709  10.600
36423W        W98086  44.818  25.579  12.055
36424W        W98087  39.987  39.320  11.915
36425W        W98088  15.316  34.957   3.735
36426W        W98089  23.696  11.858  12.566
36427W        W98090   3.400  44.902  14.913
36428W        W98091  22.998  20.274   4.612
36429W        W98092   5.383  22.126  13.357
36430W        W98093  10.875  43.916  13.394
36431W        W98094  41.480   8.184   0.311
36432W        W98095  38.049   1.248   2.289
36433W        W98096  28.588   5.823  11.015
36434W        W98097  32.558  39.518  13.503
36435W        W98098  35.989  16.285   3.740
36436W        W98099  31.556  16.808   1.249
36437W        W98100  12.322  36.387   0.335
36438W        W98101  31.593  33.608  13.832
36439W        W98102  14.124  29.053   0.789
36440W        W98103  39.436  11.284   4.120
36441W        W98104  19.742  10.640  13.413
36442W        W98105  13.130   0.352   0.303
36443W        W98106  44.857  22.997   1.397
36444W        W98107  25.992  31.615   2.678
36445W        W98108  34.047   4.763  14.850
36446W        W98109  27.084  31.909  13.407
36447W        W98110  20.726  37.845  12.069
36448W        W98111  29.640  13.783   2.247
36449W        W98112  41.859  16.292   0.404
36450W        W98113  10.137  19.071   2.690
36451W        W98114  27.027   6.323  12.430
36452W        W98115   7.809  10.827  12.487
36453W        W98116  42.904  33.561  11.436
36454W        W98117  28.533   8.785   0.727
36455W        W98118  15.782  23.031  12.536
36456W        W98119  12.286  44.887   4.599
36457W        W98120   9.832  41.376  13.548
36458W        W98121  17.283  42.909  13.450
36459W        W98122  38.451  41.439   0.904
36460W        W98123   7.704  12.253  11.905
36461W        W98124  28.048  39.358   1.375
36462W        W98125  43.279  44.455   4.655
36463W        W98126  22.592   7.680  12.351
36464W        W98127  33.006  27.668  11.477
36465W        W98128   6.274  15.687   2.263
36466W        W98129  25.101  13.265  12.895
36467W        W98130   7.223  38.917   0.940
36468W        W98131  11.625  41.885  11.004
36469W        W98132  42.794  34.416  13.929
36470W        W98133   5.310   9.769   0.947
36471W        W98134  19.537  20.175   5.190
36472W        W98135   6.726  44.823  12.418
36473W        W98136  39.997  21.673  12.989
36474W        W98137  24.557  43.401   1.434
36475W        W98138   8.661  17.780   1.831
36476W        W98139   7.246  11.813   2.325
36477W        W98140   1.369  32.570  11.423
36478W        W98141  30.120   6.896   0.389
36479W        W98142  36.864   9.214  10.419
36480W        W98143  24.714  15.579   1.301
36481W        W98144  38.052  38.421  12.090
36482W        W98145  42.519   3.279  12.018
36483W        W98146   1.967  34.020  14.945
36484W        W98147  19.629  28.146  13.891
36485W        W98148  23.595  33.099  12.353
36486W        W98149  23.548   8.730   2.308
36487W        W98150  22.595  31.480  11.958
36488W        W98151  37.934  21.081  13.429
36489W        W98152  33.096   6.317  12.946
36490W        W98153  15.156  35.983  14.031
36491W        W98154  38.536   1.917  13.062
36492W        W98155  37.910  22.519  14.441
36493W        W98156  10.797  10.145   5.164
36494W        W98157  18.247  27.631  13.327
36495W        W98158  26.562   1.296  11.527
36496W        W98159  43.362  37.553   2.187
36497W        W98160  22.203  30.140  14.849
36498W        W98161  21.580  29.111  11.941
36499W        W98162  40.479  12.709  14.017
36500W        W98163  23.208   9.866   4.245
36501W        W98164  28.148   3.240   3.188
36502W        W98165   1.459  23.668   0.382
36503W        W98166  26.076  39.534   1.391
36504W        W98167  11.829  13.708  13.327
36505W        W98168   0.797  17.639  11.908
36506W        W98169  12.777  38.862  11.898
36507W        W98170   2.440  20.748   0.285
36508W        W98171  31.488  19.635  11.911
36509W        W98172  40.843  33.520  11.426
36510W        W98173  37.357  21.093  14.352
36511W        W98174  27.450  43.346  13.021
36512W        W98175   6.795  18.082   4.779
36513W        W98176  35.882  11.330   4.756
36514W        W98177  12.178  18.553  11.551
36515W        W98178  25.070   8.798   0.405
36516W        W98179   1.861  32.413   1.356
36517W        W98180  30.065   2.874  11.085
36518W        W98181  25.667   9.808   2.821
36519W        W98182   2.241  34.595   1.930
36520W        W98183  25.086  22.205  12.562
36521W        W98184  36.427   9.854   4.190
36522W        W98185  26.962  39.980   0.812
36523W        W98186  42.919  34.913  10.935
36524W        W98187   0.844  17.303   3.719
36525W        W98188  28.969  40.882   1.352
36526W        W98189  12.289  21.520   3.245
36527W        W98190  33.025  23.496  14.369
36528W        W98191  44.755   2.414  13.945
36529W        W98192   0.861  22.043   1.934
36530W        W98193  22.630  33.969  14.295
36531W        W98194   8.767  21.150  14.486
36532W        W98195   0.263  35.497  12.377
36533W        W98196  18.140  42.424  11.589
36534W        W98197  15.761  15.150   2.881
36535W        W98198   9.657  43.907  13.477
36536W        W98199  16.287  13.720   3.331
36537W        W98200  26.531  35.094   4.179
36538W        W98201  20.247   1.265  14.487
36539W        W98202  12.742  11.704  11.610
36540W        W98203  28.558  23.614   4.344
36541W        W98204  23.716   4.790   4.625
36542W        W98205   6.343   6.263   3.320
36543W        W98206  41.946  40.843  14.318
36544W        W98207  44.311   2.323  13.942
36545W        W98208  33.082  12.213   2.777
36546W        W98209  14.258  13.747  11.474
36547W        W98210  21.100   9.790   3.304
36548W        W98211  35.477   8.680   1.339
36549W        W98212  27.511  21.020   2.271
36550W        W98213   8.824  13.287   3.856
36551W        W98214  30.561  33.573   1.846
36552W        W98215  16.231  37.344   1.913
36553W        W98216   5.801  40.812  13.927
36554W        W98217   8.860   2.873   4.300
36555W        W98218   4.215  38.989  11.037
36556W        W98219  11.769  22.695  14.970
36557W        W98220  30.522  33.923   0.248
36558W        W98221  32.005   6.209  13.870
36559W        W98222  25.118  35.442  14.375
36560W        W98223  44.363  44.353   2.857
36561W        W98224  15.277  17.664  13.887
36562W        W98225  33.930  26.034   2.288
36563W        W98226  25.560  44.414  10.616
36564W        W98227  36.997  42.007  10.465
36565W        W98228  25.634  26.170   9.543
36566W        W98229  19.176  43.448   2.353
36567W        W98230  27.521   9.227  14.449
36568W        W98231  15.666  22.525   3.701
36569W        W98232  20.743  41.324  10.935
36570W        W98233  32.594  12.666   5.142
36571W        W98234  40.491  39.442  13.431
36572W        W98235  18.678  27.079   0.793
36573W        W98236  19.672  39.036   2.774
36574W        W98237  29.036   3.915   4.707
36575W        W98238   3.856  15.700  12.095
36576W        W98239  12.339  11.841   3.239
36577W        W98240   2.752  24.713   3.283
36578W        W98241  25.692   4.416  11.383
36579W        W98242  20.119  17.726  14.941
36580W        W98243  41.435  25.994   2.206
36581W        W98244  26.492  38.424  10.617
36582W        W98245  12.765  44.263  12.001
36583W        W98246  24.027  33.890   2.778
36584W        W98247  18.697  11.744  10.530
36585W        W98248  42.902   5.910  11.530
36586W        W98249  13.128  33.444   3.359
36587W        W98250  43.009  14.316  10.910
36588W        W98251  27.034  33.425  14.512
36589W        W98252  26.097  34.368   3.840
36590W        W98253   0.804  44.772  11.989
36591W        W98254  13.121  22.240   2.876
36592W        W98255  21.543  18.762  12.452
36593W        W98256  33.988  24.550   0.933
36594W        W98257  17.264   4.867   1.347
36595W        W98258   9.314   3.936   3.803
36596W        W98259  24.198  10.337  13.869
36597W        W98260   9.236  12.743  10.574
36598W        W98261  41.532  26.676  12.935
36599W        W98262  15.307  39.854   1.697
36600W        W98263  36.499  38.060   1.268
36601W        W98264  36.406  28.563  12.383
36602W        W98265  23.539  10.692  11.568
36603W        W98266  38.006  38.526  13.312
36604W        W98267  25.570  32.036   2.203
36605W        W98268  10.218  19.125  11.601
36606W        W98269  38.950  34.972   9.949
36607W        W98270  32.635   0.878  10.051
36608W        W98271  31.145   0.893  11.986
36609W        W98272  35.505  21.607   4.784
36610W        W98273   3.282   7.717   3.756
36611W        W98274   3.939  39.888   1.787
36612W        W98275  11.788  33.471   3.745
36613W        W98276  18.199  36.533  10.948
36614W        W98277  35.067  30.967   4.607
36615W        W98278  16.646  22.181  14.853
36616W        W98279  32.608   8.305  14.369
36617W        W98280  32.048  10.191  14.850
36618W        W98281  29.551  31.922  11.402
36619W        W98282   3.907  17.148  10.058
36620W        W98283   2.753  37.923   2.694
36621W        W98284  27.601   3.801  14.372
36622W        W98285  31.983  44.469  13.499
36623W        W98286  28.960   9.239  11.379
36624W        W98287  29.468  34.586  14.358
36625W        W98288  23.542   7.226   0.903
36626W        W98289  22.068  11.832   0.961
36627W        W98290  26.006  22.618  11.049
36628W        W98291  21.579  18.247   4.179
36629W        W98292  43.831  43.801   0.423
36630W        W98293  30.490  39.041  13.030
36631W        W98294   1.873  38.346  12.986
36632W        W98295  14.268  17.639   1.816
36633W        W98296  30.970  44.824  14.874
36634W        W98297  23.182  18.294   4.632
36635W        W98298   7.196   6.413   2.223
36636W        W98299  15.738  20.057  10.530
36637W        W98300  30.932  15.099   4.602
36638W        W98301  11.703  18.136  10.922
36639W        W98302  33.576  31.538   4.348
36640W        W98303   2.326  11.720   0.792
36641W        W98304  17.606  39.990   2.805
36642W        W98305  42.920  38.044   0.385
36643W        W98306  18.204  42.847   3.187
36644W        W98307  41.469  32.441   0.303
36645W        W98308   2.273  24.674   1.289
36646W        W98309   0.449  16.099  11.464
36647W        W98310  34.595   6.400  12.066
36648W        W98311  32.397  36.572  10.994
36649W        W98312   6.347  13.778   1.806
36650W        W98313   1.880  10.216  14.026
36651W        W98314  18.568   2.937   4.633
36652W        W98315  40.489  12.667  12.411
36653W        W98316  14.108  27.042   1.777
36654W        W98317  40.943  19.654   1.806
36655W        W98318   4.869  27.097   4.352
36656W        W98319  25.713  41.950  13.898
36657W        W98320  33.606  19.158  12.079
36658W        W98321   0.875  19.138   0.282
36659W        W98322  44.841   4.732  11.512
36660W        W98323  24.649  44.894  14.031
36661W        W98324  26.688  41.475  11.502
36662W        W98325  37.464  33.524  10.450
36663W        W98326  13.307  27.082  12.478
36664W        W98327   0.894  11.690   1.449
36665W        W98328  22.195  15.142   2.392
36666W        W98329  15.621  17.696   0.829
36667W        W98330  10.731  37.577  11.595
36668W        W98331   5.875  27.508  14.417
36669W        W98332  30.968  43.939  11.915
36670W        W98333  12.209   8.861   3.356
36671W        W98334  31.429   4.748  14.277
36672W        W98335  42.919  36.563   3.154
36673W        W98336  14.273  22.206  12.830
36674W        W98337  44.451  18.591  11.394
36675W        W98338  33.915  23.109   5.207
36676W        W98339  28.552  41.964  14.482
36677W        W98340  28.125  10.672   0.444
36678W        W98341  41.432  11.126  10.479
36679W        W98342   7.352  22.123   2.668
36680W        W98343  43.310   3.231  13.983
36681W        W98344  36.063   5.396  14.474
36682W        W98345  27.082  24.036   4.831
36683W        W98346  31.583   9.766   4.798
36684W        W98347  20.163   0.868  14.931
36685W        W98348  33.921   7.834   1.391
36686W        W98349  31.491  17.779  14.372
36687W        W98350  16.210  27.192   2.398
36688W        W98351  37.392   3.354   5.123
36689W        W98352   9.645  18.226  11.871
36690W        W98353  25.193  15.784  11.437
36691W        W98354  37.938  40.054   3.163
36692W        W98355  14.742  41.401  14.005
36693W        W98356  36.972  16.158   4.253
36694W        W98357  44.898  42.299  11.598
36695W        W98358  30.133  28.450  13.813
36696W        W98359  35.879  42.490   0.447
36697W        W98360  37.559  21.129   3.848
36698W        W98361  36.985  37.946  13.815
36699W        W98362  36.097  19.280   3.315
36700W        W98363   9.374  38.547   2.413
36701W        W98364  42.777  32.601  11.963
36702W        W98365  32.124  34.560  14.979
36703W        W98366  16.580  33.577  13.545
36704W        W98367  39.380   5.225  14.416
36705W        W98368  25.592  34.423  10.988
36706W        W98369   5.796   7.871  14.958
36707W        W98370   7.336  36.901  10.498
36708W        W98371   6.396  33.006  13.497
36709W        W98372  29.561  19.579   0.293
36710W        W98373  10.243   6.872   2.336
36711W        W98374   8.693   6.230   2.743
36712W        W98375  34.872  43.462   2.780
36713W        W98376  30.982   4.714   5.136
36714W        W98377  13.291   0.910  10.141
36715W        W98378  31.484  24.074  11.403
36716W        W98379  43.430  20.230  14.296
36717W        W98380  28.464  37.085   2.854
36718W        W98381  12.211  32.391  14.449
36719W        W98382  30.630   6.226  10.610
36720W        W98383   4.773  20.207  10.522
36721W        W98384  26.551  18.749   5.147
36722W        W98385   3.313  30.560   2.202
36723W        W98386   1.463   7.812   0.430
36724W        W98387   9.272  24.095  12.913
36725W        W98388   8.854  11.720  13.060
36726W        W98389  13.716  36.946   1.731
36727W        W98390  28.984   9.158   1.370
36728W        W98391  14.222   5.829  12.487
36729W        W98392   8.251  16.075   0.351
36730W        W98393  21.114  44.280  12.971
36731W        W98394  23.590   0.779  12.007
36732W        W98395  15.717   4.393   3.795
36733W        W98396  41.963   6.280   0.965
36734W        W98397  29.429  24.657  12.040
36735W        W98398   9.824  12.740  12.435
36736W        W98399  33.947  24.996  11.032
36737W        W98400  20.745  20.187   2.332
36738W        W98401  39.014  35.983   4.173
36739W        W98402   5.919  11.328  11.427
36740W        W98403  38.974  21.641  12.403
36741W        W98404  20.112  24.672   4.823
36742W        W98405  11.635   8.176  14.930
36743W        W98406  21.091   6.719  10.620
36744W        W98407  15.107  43.466  10.470
36745W        W98408  17.246  13.319  13.843
36746W        W98409   8.728  26.064  13.464
36747W        W98410  26.031  33.913   0.342
36748W        W98411  17.085  36.581   9.572
36749W        W98412   2.924  40.892  14.912
36750W        W98413  18.083  36.895   1.442
36751W        W98414   2.797  22.721   3.801
36752W        W98415  41.476  20.200   4.640
36753W        W98416   7.277  33.069   4.745
36754W        W98417  37.446   3.950   1.365
36755W        W98418  40.388  19.223  14.495
36756W        W98419   6.393  44.395   3.201
36757W        W98420  16.592  43.271  13.871
36758W        W98421   1.455  17.593   2.782
36759W        W98422  32.609  31.482  12.996
36760W        W98423  29.172  38.356   9.477
36761W        W98424  19.755  10.775   1.363
36762W        W98425  37.850  33.453   1.247
36763W        W98426   7.717  18.200  13.506
36764W        W98427  14.197   2.313  14.799
36765W        W98428   9.810   0.821  11.022
36766W        W98429  16.205  13.651  14.922
36767W        W98430  36.426  10.866   4.200
36768W        W98431  40.455  42.990   5.279
36769W        W98432  39.484   4.277   3.845
36770W        W98433   8.817  13.137  13.064
36771W        W98434   1.897  25.709  11.441
36772W        W98435   8.694  20.134   3.326
36773W        W98436  18.245  29.072  14.363
36774W        W98437  35.414   1.422  11.572
36775W        W98438  41.986   8.695  14.502
36776W        W98439  30.646  43.324  13.027
36777W        W98440  22.627  24.535   4.251
36778W        W98441   9.192  42.372   4.151
36779W        W98442  31.609  26.547   1.322
36780W        W98443   6.383   6.350   5.256
36781W        W98444  18.093  42.010   0.300
36782W        W98445   8.729  41.962   0.467
36783W        W98446  37.017  21.168  14.303
36784W        W98447  26.476  26.685  10.913
36785W        W98448  43.428  18.585   2.326
36786W        W98449  24.119  33.468  12.837
36787W        W98450  21.684   3.784   0.943
36788W        W98451  30.556  27.454   0.746
36789W        W98452  13.695  20.201   1.745
36790W        W98453  10.836  42.458  11.876
36791W        W98454  33.027  36.547   0.250
36792W        W98455  22.683  33.997   4.304
36793W        W98456  26.503  33.415  11.529
36794W        W98457  32.058  16.307  10.540
36795W        W98458  10.665  34.610  11.516
36796W        W98459   4.819  16.104  12.935
36797W        W98460  29.660  34.392   4.315
36798W        W98461  15.650  12.835   5.138
36799W        W98462  21.710  25.046   3.289
36800W        W98463  30.467  15.326  13.315
36801W        W98464  20.056  26.988  12.407
36802W        W98465  43.781  15.220  13.799
36803W        W98466  23.722  20.058   3.186
36804W        W98467   9.351  19.070  11.559
36805W        W98468  11.333   9.775  11.977
36806W        W98469  31.033  40.932  12.368
36807W        W98470  19.662   6.837   4.191
36808W        W98471  35.453  18.155   0.878
36809W        W98472  44.816  35.538  12.423
36810W        W98473  26.009  41.300   1.924
36811W        W98474  44.926  18.583   1.404
36812W        W98475  22.094  41.882   3.307
36813W        W98476  30.542  35.546  10.893
36814W        W98477  13.800  43.508  14.764
36815W        W98478  23.111  34.476  13.387
36816W        W98479  30.126  10.843  10.956
36817W        W98480  36.928  29.127  10.524
36818W        W98481  27.545  22.013  11.582
36819W        W98482  23.527   2.899  13.415
36820W        W98483  35.522   9.845   0.818
36821W        W98484  19.758  12.122  11.868
36822W        W98485  30.990  16.175   4.126
36823W        W98486  32.589   5.287   3.260
36824W        W98487  14.621   7.278  14.303
36825W        W98488  23.066  41.473  10.007
36826W        W98489   4.262   1.304  13.000
36827W        W98490   0.342  27.997   4.258
36828W        W98491  31.929   9.252   3.374
36829W        W98492  40.546   3.813   2.684
36830W        W98493   0.442  43.433  10.888
36831W        W98494   4.316   5.436   1.778
36832W        W98495  42.003   0.984  12.945
36833W        W98496  32.020  37.034  13.337
36834W        W98497  33.472  36.938  10.435
36835W        W98498   1.909  30.039  14.366
36836W        W98499  43.985  13.197  13.804
36837W        W98500  32.547  23.721  12.900
36838W        W98501  42.890  14.822  11.525
36839W        W98502  16.170   2.281  13.307
36840W        W98503   6.336  28.165   1.710
36841W        W98504  31.927  36.507  13.441
36842W        W98505  40.879  30.971  10.608
36843W        W98506  10.205  10.205  14.897
36844W        W98507  42.897  25.092   3.842
36845W        W98508   1.348   3.434   0.774
36846W        W98509  18.638   6.815   3.189
36847W        W98510   5.856  18.701   0.340
36848W        W98511   4.256  42.917  13.338
36849W        W98512  44.822  28.145  13.028
36850W        W98513  36.941   7.795  11.909
36851W        W98514  20.222   1.263  11.499
36852W        W98515   6.213  38.019   0.327
36853W        W98516  40.982  22.197   2.388
36854W        W98517   5.400  29.643   3.156
36855W        W98518  20.708   4.398   1.336
36856W        W98519  15.588   3.916  13.476
36857W        W98520  11.839  33.386   1.270
36858W        W98521   6.339  32.461  13.004
36859W        W98522  29.625  14.108   1.258
36860W        W98523   0.980  37.455   1.736
36861W        W98524  18.280  17.228   0.383
36862W        W98525  40.857  26.091   3.749
36863W        W98526  41.933  42.899   0.790
36864W        W98527  14.271  11.217  11.039
36865W        W98528  32.046  43.013  11.485
36866W        W98529  40.499  28.475  14.808
36867W        W98530  38.942  43.872  11.471
36868W        W98531  35.494  36.863   4.278
36869W        W98532  38.506  39.936  14.967
36870W        W98533   5.904  11.802  11.554
36871W        W98534  27.196  11.339   0.422
36872W        W98535  44.273  23.056  12.906
36873W        W98536  16.281  18.786  13.996
36874W        W98537   1.241  25.137  11.975
36875W        W98538  30.546  43.433   0.436
36876W        W98539   9.854  30.095   1.411
36877W        W98540  17.719  42.515  14.983
36878W        W98541  20.264  31.084  11.090
36879W        W98542  41.352  44.959  14.960
36880W        W98543  33.612  26.491   1.436
36881W        W98544  26.148  38.523   0.293
36882W        W98545  13.219  28.974  14.002
36883W        W98546   9.881  13.195   4.658
36884W        W98547  25.120   6.921   0.809
36885W        W98548   4.224  23.988  14.794
36886W        W98549  11.193  17.298  12.030
36887W        W98550  10.719  13.819   1.924
36888W        W98551  31.088  23.049   4.636
36889W        W98552  13.110  11.625   4.221
36890W        W98553  43.905  27.553  11.097
36891W        W98554  35.453   5.404  14.838
36892W        W98555  26.515  20.559  14.296
36893W        W98556  16.597  40.345   1.313
36894W        W98557  28.536   3.719  14.881
36895W        W98558  40.822   6.740   0.400
36896W        W98559   8.855  14.591  12.535
36897W        W98560  31.037  29.618   2.265
36898W        W98561   0.884  36.975   0.867
36899W        W98562  37.536  18.605   0.813
36900W        W98563   8.655  41.485   2.745
36901W        W98564  34.516  31.499  10.916
36902W        W98565  42.427  44.890   1.427
36903W        W98566   1.418  36.561   1.749
36904W        W98567  35.542   1.863  10.493
36905W        W98568  19.652  26.579   0.253
36906W        W98569  36.983  18.623  12.912
36907W        W98570  29.096   9.214  13.410
36908W        W98571  24.523  36.026  12.033
36909W        W98572  28.978  16.124  12.045
36910W        W98573   2.322  13.616  13.368
36911W        W98574   2.244  21.254  13.484
36912W        W98575  23.730  42.842   2.186
36913W        W98576   7.172   9.760   3.282
36914W        W98577   0.950  26.065  13.383
36915W        W98578  29.118  13.653  13.394
36916W        W98579  25.985  11.216  10.548
36917W        W98580  21.234  10.175  10.958
36918W        W98581  11.177  36.033   3.151
36919W        W98582  43.493   2.741   4.163
36920W        W98583  19.272   7.324  12.001
36921W        W98584  13.175  19.584   0.756
36922W        W98585  22.193   2.457   1.765
36923W        W98586  26.689  24.197  12.382
36924W        W98587  38.455  28.651   3.311
36925W        W98588  23.078  44.446   3.300
36926W        W98589   5.710  31.598   1.916
36927W        W98590  39.420  29.431  14.453
36928W        W98591  19.534  13.613  11.385
36929W        W98592   1.803  38.846   1.899
36930W        W98593  41.383  22.554   3.181
36931W        W98594  11.129  11.852  10.034
36932W        W98595  25.638  41.339   9.549
36933W        W98596  24.072  14.311   4.308
36934W        W98597  44.341  21.248  14.458
36935W        W98598  18.723  37.884   3.146
36936W        W98599  30.984   6.249  12.088
36937W        W98600  23.515  19.617   3.679
36938W        W98601  18.294  19.192   5.277
36939W        W98602  40.359  25.712  14.830
36940W        W98603   3.856  22.211   3.194
36941W        W98604  30.943  22.697  14.759
36942W        W98605  12.345   0.853   3.160
36943W        W98606  34.090  32.597  13.370
36944W        W98607  20.539  15.137   2.220
36945W        W98608  35.901   9.337  13.447
36946W        W98609  12.757  13.117   4.615
36947W        W98610  37.502  42.494  11.882
36948W        W98611  27.019  23.029   0.254
36949W        W98612  18.286   7.666   0.807
36950W        W98613  29.918  21.254   2.415
36951W        W98614  15.577   5.301   3.656
36952W        W98615   6.812  14.643  11.611
36953W        W98616  25.056  25.048  11.542
36954W        W98617  23.230  14.161   5.099
36955W        W98618  40.388  32.445  14.798
36956W        W98619  36.417  44.486  10.982
36957W        W98620  35.065   2.772  13.898
36958W        W98621  37.080  28.955  14.761
36959W        W98622  15.717   4.760   2.273
36960W        W98623   8.294  41.022   2.676
36961W        W98624  19.773   5.687  11.544
36962W        W98625  20.083  27.115  10.460
36963W        W98626  33.519  31.962  13.491
36964W        W98627  42.287  12.272   3.775
36965W        W98628  18.779   5.428   0.874
36966W        W98629  26.993  40.385  13.938
36967W        W98630  28.553  32.009   1.284
36968W        W98631  36.475  35.507  13.391
36969W        W98632   3.358  34.098   1.742
36970W        W98633  20.186  27.491  14.015
36971W        W98634  39.926  33.519   4.148
36972W        W98635  18.279  35.412  13.478
36973W        W98636   8.770  38.340  14.444
36974W        W98637   4.429  32.051   3.178
36975W        W98638  29.468  44.883   1.910
36976W        W98639  43.466  21.243   1.413
36977W        W98640   9.752  27.574  11.409
36978W        W98641  44.258  25.151  14.440
36979W        W98642   8.792  21.577  13.043
36980W        W98643  16.799  42.846   2.861
36981W        W98644   4.776   9.839  10.605
36982W        W98645  27.004  43.846   0.854
36983W        W98646  27.652  25.608   2.344
36984W        W98647  21.614  37.515  14.337
36985W        W98648  43.972  43.926  13.496
36986W        W98649  13.816  26.077   2.260
36987W        W98650  14.708  11.173   0.350
36988W        W98651  39.519  43.350   2.789
36989W        W98652  11.316  21.091  14.316
36990W        W98653  37.556  24.155  14.891
36991W        W98654  28.455  39.971   3.670
36992W        W98655  16.187  44.763  11.989
36993W        W98656  43.416  33.942  13.349
36994W        W98657  14.148   4.920  11.376
36995W        W98658  17.205  22.683  11.045
36996W        W98659  36.569  31.445  13.873
36997W        W98660  13.651  19.068   4.830
36998W        W98661   2.760  17.771  14.797
36999W        W98662   0.362  27.573   2.683
37000W        W98663  27.156  12.128  14.867
37001W        W98664  43.333  41.310   5.092
37002W        W98665   1.457  26.113   4.278
37003W        W98666  35.019   1.847  11.093
37004W        W98667  25.120   4.715  13.496
37005W        W98668  18.143   8.392  14.415
37006W        W98669  26.572  42.338  13.826
37007W        W98670  15.798  39.989   1.791
37008W        W98671   7.673  40.454   1.433
37009W        W98672  36.927  22.616   1.312
37010W        W98673  33.401  42.300   0.731
37011W        W98674   4.246  25.638   3.238
37012W        W98675  26.600   1.426  11.102
37013W        W98676  10.334  21.681   2.848
37014W        W98677  19.200  36.538  11.085
37015W        W98678  40.442   8.161   4.676
37016W        W98679   3.825  19.129  10.636
37017W        W98680  33.560  22.150   4.715
37018W        W98681   7.265  42.326  12.360
37019W        W98682   0.408  11.731   1.303
37020W        W98683  22.998  19.769  10.615
37021W        W98684   0.831  26.456   3.658
37022W        W98685   0.395  42.341   2.731
37023W        W98686  44.267   5.691   0.894
37024W        W98687  33.465   2.757  11.405
37025W        W98688  40.442  16.585   4.700
37026W        W98689  44.903  14.095   5.775
37027W        W98690  11.191  25.016  11.451
37028W        W98691   8.375  41.522  10.564
37029W        W98692  44.362  36.009   5.242
37030W        W98693  38.907   7.859  12.889
37031W        W98694  28.623   6.419   3.233
37032W        W98695  19.719  25.988  13.864
37033W        W98696   1.441   0.900  11.476
37034W        W98697  43.862  11.231  11.443
37035W        W98698  11.741  19.184   2.371
37036W        W98699   3.903   4.336  11.025
37037W        W98700   7.247  19.708  14.382
37038W        W98701  21.694  13.121  10.580
37039W        W98702  13.276  18.254  12.003
37040W        W98703  37.364  37.372  13.432
37041W        W98704  19.088  10.833   3.781
37042W        W98705  30.478  18.146  12.094
37043W        W98706  16.568  14.170  14.426
37044W        W98707  32.108  29.142  14.299
37045W        W98708   8.247  25.102  12.492
37046W        W98709  26.457   8.820   0.797
37047W        W98710  36.347   6.752   3.230
37048W        W98711  32.080  20.692  12.840
37049W        W98712  31.121  33.473  12.484
37050W        W98713  44.327  30.943  14.302
37051W        W98714   2.787  27.607  14.433
37052W        W98715  42.013  40.418   2.316
37053W        W98716  39.887  24.144  11.478
37054W        W98717  12.850  38.510  14.949
37055W        W98718  21.077  10.267   2.202
37056W        W98719  36.573   8.862   0.246
37057W        W98720  35.484  28.101  12.045
37058W        W98721   8.841  17.158  10.503
37059W        W98722  38.907  23.030   3.378
37060W        W98723  12.807  11.133  10.430
37061W        W98724   7.356  43.896  12.444
37062W        W98725  35.069   5.230   1.249
37063W        W98726  41.411  23.240  12.499
37064W        W98727  10.301  42.285   2.684
37065W        W98728   2.931   0.464  13.011
37066W        W98729  25.587  40.451   0.812
37067W        W98730  13.113  14.650   2.770
37068W        W98731  31.062  28.108   3.345
37069W        W98732  39.953  15.281  14.767
37070W        W98733   8.367  32.525  13.877
37071W        W98734  22.189  15.719   0.816
37072W        W98735  26.991   5.914   0.837
37073W        W98736  21.690  42.894  11.861
37074W        W98737  37.993   2.836  10.570
37075W        W98738  40.013   9.157  10.937
37076W        W98739   2.244  15.712   2.749
37077W        W98740  15.160  27.160   1.818
37078W        W98741   9.330  39.324   2.391
37079W        W98742  37.926  14.787  11.962
37080W        W98743  24.093  38.447  14.312
37081W        W98744  10.252  33.887  12.953
37082W        W98745  24.155  35.854  10.635
37083W        W98746   2.944  37.078   2.297
37084W        W98747  17.083  42.487  13.964
37085W        W98748  13.201  21.186   0.796
37086W        W98749  27.021  10.656  10.981
37087W        W98750   8.745  20.530  14.867
37088W        W98751  44.480  29.555  14.987
37089W        W98752  10.159  20.214   2.848
37090W        W98753  28.125  12.779   1.808
37091W        W98754  14.748  41.882  13.878
37092W        W98755  24.225  26.528   3.174
37093W        W98756  38.873   3.843   3.366
37094W        W98757   6.340  28.176  11.876
37095W        W98758  24.098  27.590  11.582
37096W        W98759   0.836  25.119   3.841
37097W        W98760  28.010  10.204   2.333
37098W        W98761   2.430  41.458   0.864
37099W        W98762  17.086   6.898  10.614
37100W        W98763  33.420  31.959  14.360
37101W        W98764  44.975  39.537  12.367
37102W        W98765  14.811  19.636  10.411
37103W        W98766  21.045  11.279   3.653
37104W        W98767  18.118  13.310   2.310
37105W        W98768  29.115  31.947  12.992
37106W        W98769  19.677  38.364  11.106
37107W        W98770  36.998  21.232  10.961
37108W        W98771  34.426   5.366   4.225
37109W        W98772   1.889  36.844  13.426
37110W        W98773   6.288   6.278   2.679
37111W        W98774  29.016  22.509  10.560
37112W        W98775  43.313  38.433   0.750
37113W        W98776   2.268  23.578   0.385
37114W        W98777   0.910  12.767   0.893
37115W        W98778  26.679  28.974   1.753
37116W        W98779  20.647   0.447   9.983
37117W        W98780   5.798  35.424  14.971
37118W        W98781  27.974  28.992  10.596
37119W        W98782   8.877   1.878  13.490
37120W        W98783  39.929   0.315  11.416
37121W        W98784  21.599  31.075  12.571
37122W        W98785  32.141  18.059  12.366
37123W        W98786  19.627   9.654  10.645
37124W        W98787  18.697  20.034   4.834
37125W        W98788  43.766   2.786   4.337
37126W        W98789  19.208  25.143   2.385
37127W        W98790  22.615  12.823   0.281
37128W        W98791  31.110  30.161   4.251
37129W        W98792  22.746  42.972  10.890
37130W        W98793  31.481   0.752  14.820
37131W        W98794  10.170  16.605  10.076
37132W        W98795   0.278  19.134   0.437
37133W        W98796  40.914  11.653   1.911
37134W        W98797  19.652  40.921   0.953
37135W        W98798  30.012  29.528   3.758
37136W        W98799  41.826   6.879   4.295
37137W        W98800  40.999  43.819   2.381
37138W        W98801  14.154  29.174  13.015
37139W        W98802  10.662   4.746   0.740
37140W        W98803  17.695  11.204   1.805
37141W        W98804  20.574   7.910  10.449
37142W        W98805  31.112  15.715   1.338
37143W        W98806  14.183  31.435   1.904
37144W        W98807  11.756  41.354  11.900
37145W        W98808  18.168  43.899   1.725
37146W        W98809  21.126  40.451  12.033
37147W        W98810  21.048  12.751  11.568
37148W        W98811  29.627  22.118   0.814
37149W        W98812  30.519  28.997  10.889
37150W        W98813  37.511  31.010   1.227
37151W        W98814  23.211  38.071  13.874
37152W        W98815  38.566  32.399   1.350
37153W        W98816  42.363  26.018  10.962
37154W        W98817  43.287  23.087  11.881
37155W        W98818  34.907  11.282   2.860
37156W        W98819  18.610  19.540  13.942
37157W        W98820  38.059  38.326   4.129
37158W        W98821  42.522  22.649   4.210
37159W        W98822  19.066  26.479   5.127
37160W        W98823  19.751  15.183  11.402
37161W        W98824  11.343  25.512   1.322
37162W        W98825   5.928  44.461   4.685
37163W        W98826  37.532   5.704  12.531
37164W        W98827  40.814  12.171   0.294
37165W        W98828  26.580  23.518   0.413
37166W        W98829  22.064  42.320  13.341
37167W        W98830   5.260  41.855  14.503
37168W        W98831  18.115   3.723  13.324
37169W        W98832  21.591   4.413   2.278
37170W        W98833  13.108   0.928  11.485
37171W        W98834  10.754  11.219   4.833
37172W        W98835  17.069  43.842  11.925
37173W        W98836  19.581  19.200  13.791
37174W        W98837  40.504  13.749   1.751
37175W        W98838  13.278  34.062   1.442
37176W        W98839  32.913  29.112   2.829
37177W        W98840  26.522  34.534   0.301
37178W        W98841  42.924  16.188  10.470
37179W        W98842  10.295  14.814  13.970
37180W        W98843  36.490  36.002  13.319
37181W        W98844  44.841  32.618   4.304
37182W        W98845  23.034   1.908  14.331
37183W        W98846  31.611  43.911  10.564
37184W        W98847   8.312  21.102   4.278
37185W        W98848  11.288  25.999  14.836
37186W        W98849  36.000  16.188  14.363
37187W        W98850   4.290  12.833  13.913
37188W        W98851  29.609  19.740   3.828
37189W        W98852  41.526  23.730   1.309
37190W        W98853  11.634  31.988  12.499
37191W        W98854  12.756  30.955  13.003
37192W        W98855  35.559  11.330  14.986
37193W        W98856  42.849  39.495   2.777
37194W        W98857  38.518  40.544  12.949
37195W        W98858  11.853   5.795  14.940
37196W        W98859   7.265  44.495  10.609
37197W        W98860  12.738  34.481  12.986
37198W        W98861   6.213  15.676  14.012
37199W        W98862  41.868   5.436   2.284
37200W        W98863  35.388  25.547  14.450
37201W        W98864  33.937   8.681   4.249
37202W        W98865  32.038  31.476   1.333
37203W        W98866   4.255   7.348   2.714
37204W        W98867  12.774  16.678   0.313
37205W        W98868   5.284  29.921   2.219
37206W        W98869  12.354  41.398  14.980
37207W        W98870  15.205  16.154   3.336
37208W        W98871   0.371  30.020  13.998
37209W        W98872   5.847  19.586   1.792
37210W        W98873  36.386  28.038  13.997
37211W        W98874  31.979  29.638  14.782
37212W        W98875   8.900  15.142  12.354
37213W        W98876   1.818  28.012  13.816
37214W        W98877  24.087  13.643  12.063
37215W        W98878  21.552  38.342  10.535
37216W        W98879   9.157   8.182  11.871
37217W        W98880   7.742   6.281   1.931
37218W        W98881  34.041  17.796  11.076
37219W        W98882  31.640   9.875   1.409
37220W        W98883  31.153  29.954   0.895
37221W        W98884  44.832   7.723  12.353
37222W        W98885  11.194   1.464   0.388
37223W        W98886  26.701  41.430   0.445
37224W        W98887  41.431  42.027   0.965
37225W        W98888  19.554  24.713   1.250
37226W        W98889  12.159  31.026   0.264
37227W        W98890  26.969  10.161  10.505
37228W        W98891   8.671  14.138   1.719
37229W        W98892  32.917  42.353  14.441
37230W        W98893  19.068  24.085   0.455
37231W        W98894  21.063   4.705  14.790
37232W        W98895  20.093  25.694  13.360
37233W        W98896  38.843  44.281   4.750
37234W        W98897  38.890   9.775  11.961
37235W        W98898  37.363   0.850   5.138
37236W        W98899  28.006  32.614  13.859
37237W        W98900   9.871  36.996  14.330
37238W        W98901  27.643  24.525  12.450
37239W        W98902   2.317  27.075  10.418
37240W        W98903  35.076  23.717  10.989
37241W        W98904  39.056  34.019  13.060
37242W        W98905   7.905  13.265  13.445
37243W        W98906  28.547  20.581   0.956
37244W        W98907  13.827  34.086  11.037
37245W        W98908  14.721  39.359   2.861
37246W        W98909  44.297  31.479  13.518
37247W        W98910  20.218  10.220  13.517
37248W        W98911   8.277   2.806  10.932
37249W        W98912  20.586  24.492  11.568
37250W        W98913   8.396  24.019   2.402
37251W        W98914  24.492  26.955   4.150
37252W        W98915   6.318  16.183   4.237
37253W        W98916  38.538  20.090  14.393
37254W        W98917  23.070  39.855  12.359
37255W        W98918  30.616  20.061   4.778
37256W        W98919  38.859  38.024  12.467
37257W        W98920  32.037  41.342   0.891
37258W        W98921  42.958   6.290   4.312
37259W        W98922  23.012   2.805   3.222
37260W        W98923  14.166  15.703  14.006
37261W        W98924  34.416   9.233   1.696
37262W        W98925  27.619  38.454  12.079
37263W        W98926  44.796   0.804  12.524
37264W        W98927  32.061  17.224   0.266
37265W        W98928  11.630  23.039  12.880
37266W        W98929  15.650  36.026   2.810
37267W        W98930  32.469   1.461  10.953
37268W        W98931  33.000  15.090   2.373
37269W        W98932   7.711  29.018  11.586
37270W        W98933  27.528  28.537  13.958
37271W        W98934   0.454   7.269  13.365
37272W        W98935  11.756   5.850   4.327
37273W        W98936  40.494  11.293   1.279
37274W        W98937  17.725   4.298  11.020
37275W        W98938   4.430   5.734  11.094
37276W        W98939  16.209  24.120   1.886
37277W        W98940  21.065  43.440  14.956
37278W        W98941   3.445  16.252   2.313
37279W        W98942  18.263  13.324   1.349
37280W        W98943  34.921  14.754  10.981
37281W        W98944  34.062  27.043   2.264
37282W        W98945  32.953  31.113   1.806
37283W        W98946  19.199  20.666  10.591
37284W        W98947  41.970  41.950  14.381
37285W        W98948  29.440  19.598  10.616
37286W        W98949   8.879  44.803   4.306
37287W        W98950  16.130  37.541  13.544
37288W        W98951   9.744  23.080  13.912
37289W        W98952  33.892  10.740  10.621
37290W        W98953  22.167  18.199  10.495
37291W        W98954   9.379   4.286  10.952
37292W        W98955   1.283   6.848   3.741
37293W        W98956  42.343  26.146  14.316
37294W        W98957  35.478  41.810  11.376
37295W        W98958  15.701  44.450  13.873
37296W        W98959  44.928   4.447  14.952
37297W        W98960  10.255  20.173  11.055
37298W        W98961   9.383  33.406  11.063
37299W        W98962  37.450  26.464   4.271
37300W        W98963  30.650  25.109  12.530
37301W        W98964   3.936  10.638   2.317
37302W        W98965   5.249   2.775  12.348
37303W        W98966  35.573  33.898  14.356
37304W        W98967  38.901  18.706   3.223
37305W        W98968  42.854  22.601   0.727
37306W        W98969   3.830  30.118  13.036
37307W        W98970  18.054  32.518   2.278
37308W        W98971  27.670   9.167   3.281
37309W        W98972  36.948  17.140   2.685
37310W        W98973  24.005   6.318  11.541
37311W        W98974  11.292  14.815   4.729
37312W        W98975  18.788  24.721  10.568
37313W        W98976   6.247  42.316  14.826
37314W        W98977  43.365  30.005   1.299
37315W        W98978  17.123  33.528   4.178
37316W        W98979  14.741  28.180  12.972
37317W        W98980  35.580  39.064  12.081
37318W        W98981  27.129  42.471   3.170
37319W        W98982  24.129  39.050  10.446
37320W        W98983  33.964  25.100   4.190
37321W        W98984  40.938   8.822  12.996
37322W        W98985  13.764  28.087  11.440
37323W        W98986  23.154   0.922   4.760
37324W        W98987  43.983  31.442  12.382
37325W        W98988  17.253  37.528   2.411
37326W        W98989  40.331  42.940  12.467
37327W        W98990  25.137  34.989  12.526
37328W        W98991  34.507  29.110   4.191
37329W        W98992  22.039  34.974  12.093
37330W        W98993  32.530  22.614  14.487
37331W        W98994   7.225   4.253   3.146
37332W        W98995  40.032  40.310   2.679
37333W        W98996  19.185  17.622  12.908
37334W        W98997   0.919   6.858   4.653
37335W        W98998  10.163  33.575   0.475
37336W        W98999  22.719  11.664  14.025
37337W        W99000  26.187  27.997   1.431
37338W        W99001  39.353  20.558   3.840
37339W        W99002  32.051  11.839   5.106
37340W        W99003  20.135  26.151   2.751
37341W        W99004  38.895  17.071  10.585
37342W        W99005  11.691   6.299  12.838
37343W        W99006  13.807  25.065   0.729
37344W        W99007   6.232   0.791   9.971
37345W        W99008  18.174   1.380   2.178
37346W        W99009  33.475  16.590  13.880
37347W        W99010   5.286  10.267   0.287
37348W        W99011  20.592  26.627  11.936
37349W        W99012  19.068   4.321  14.286
37350W        W99013  11.297  26.992   1.736
37351W        W99014  11.163  25.160   3.778
37352W        W99015   9.663  14.766  10.562
37353W        W99016  27.644  11.310  10.933
37354W        W99017   3.222  25.493  13.971
37355W        W99018  25.505  13.273  12.345
37356W        W99019   0.481  33.576   3.177
37357W        W99020  11.177  41.401  14.436
37358W        W99021  38.409  31.139  11.475
37359W        W99022   7.408  34.868   1.859
37360W        W99023  41.362  12.765   3.309
37361W        W99024  38.329  32.937   2.298
37362W        W99025  34.472  35.519   2.788
37363W        W99026   2.437  19.058   1.898
37364W        W99027  10.638   4.788  10.970
37365W        W99028   5.395  21.020   2.329
37366W        W99029  44.363   3.271  12.411
37367W        W99030  16.151  34.403   3.201
37368W        W99031  43.439   3.885   2.888
37369W        W99032  15.240  24.048  10.912
37370W        W99033  38.922  42.909  10.907
37371W        W99034  21.740  34.917  11.060
37372W        W99035  32.561   0.296  12.013
37373W        W99036  19.069  39.369   4.277
37374W        W99037  31.913  36.070  12.468
37375W        W99038   7.263  33.612   1.386
37376W        W99039  37.052  32.460  10.436
37377W        W99040  22.049  11.193   1.772
37378W        W99041  29.511  25.098   2.255
37379W        W99042  25.965   7.800  13.546
37380W        W99043  21.207   3.253  13.855
37381W        W99044  12.212  27.131  11.498
37382W        W99045  28.058  29.541  13.954
37383W        W99046  25.469  17.742  14.782
37384W        W99047   5.300  34.615   0.948
37385W        W99048  30.428  20.768   0.925
37386W        W99049  44.908  11.222  13.548
37387W        W99050  39.842  43.009  13.036
37388W        W99051   1.351  40.967  13.440
37389W        W99052  42.966  43.996   0.902
37390W        W99053  20.078  32.117   1.292
37391W        W99054  14.104   9.839   1.313
37392W        W99055   9.297  21.068   0.378
37393W        W99056  41.320  18.191   4.276
37394W        W99057  19.536  16.229   4.734
37395W        W99058  15.145   4.346  11.464
37396W        W99059  15.579  44.823  13.471
37397W        W99060  16.786   6.755  10.542
37398W        W99061  38.494  30.561  14.758
37399W        W99062  23.082  19.094   2.185
37400W        W99063  26.639  29.003   0.845
37401W        W99064  41.488  26.499   2.305
37402W        W99065  24.651  40.987  12.446
37403W        W99066  37.451  36.964  12.422
37404W        W99067  13.799  27.976  13.840
37405W        W99068  27.451   7.742   0.338
37406W        W99069  19.156  28.648   4.675
37407W        W99070  31.518  18.063  12.867
37408W        W99071  36.446  23.236  13.487
37409W        W99072  23.633  38.016  13.538
37410W        W99073   0.372  13.220   1.431
37411W        W99074  30.431  16.201  11.070
37412W        W99075  15.092   1.959  11.598
37413W        W99076   6.379  24.528  13.810
37414W        W99077  32.531  23.220   0.803
37415W        W99078   1.928  29.666  12.953
37416W        W99079   6.726  30.607  10.996
37417W        W99080   9.787   5.920  10.986
37418W        W99081   6.242  23.494  14.928
37419W        W99082  23.196   5.894   4.625
37420W        W99083  30.562  33.078  12.546
37421W        W99084  12.652  42.393  13.387
37422W        W99085  25.007  13.762  12.516
37423W        W99086   3.447  43.459   0.784
37424W        W99087   5.755   6.354   2.677
37425W        W99088   8.768  30.924   2.853
37426W        W99089  42.990  42.908  14.952
37427W        W99090  34.492  11.677  10.553
37428W        W99091  18.277   8.220   0.459
37429W        W99092  20.573   8.294   2.829
37430W        W99093  16.755  25.971   2.317
37431W        W99094  20.582   1.408   2.745
37432W        W99095  13.628  44.894   3.647
37433W        W99096  37.508  19.061   0.466
37434W        W99097  37.448   3.951  10.895
37435W        W99098  24.704  33.394  12.466
37436W        W99099  33.397  14.609   2.835
37437W        W99100  27.114  26.115   4.165
37438W        W99101  42.963  20.723  11.461
37439W        W99102  35.999   4.417  12.368
37440W        W99103  34.115  21.610  13.483
37441W        W99104   1.241  25.023   0.958
37442W        W99105  22.179   8.731   4.318
37443W        W99106   6.329  43.994   4.307
37444W        W99107  20.234  43.492  10.501
37445W        W99108  41.032  25.635   3.806
37446W        W99109  39.945  16.183  12.496
37447W        W99110  10.313  15.158   4.211
37448W        W99111   4.260  18.717  13.033
37449W        W99112   5.848  39.501  14.490
37450W        W99113  22.639  16.101   4.121
37451W        W99114  43.928  10.769  13.984
37452W        W99115  12.315  23.034   3.176
37453W        W99116  25.642   4.820  13.894
37454W        W99117  29.120  34.532  10.565
37455W        W99118  25.506  35.975   3.815
37456W        W99119  10.359  42.874   0.257
37457W        W99120   1.939  34.392   3.747
37458W        W99121  24.658  29.517  14.382
37459W        W99122  33.580   1.761  11.444
37460W        W99123   5.757  32.095  10.970
37461W        W99124  38.898   9.223   5.201
37462W        W99125  29.498  20.039   2.354
37463W        W99126  13.185  17.707  13.960
37464W        W99127  11.807  17.787  14.411
37465W        W99128  13.151  23.063   1.737
37466W        W99129   6.827  18.574  10.540
37467W        W99130  35.978  22.688  14.349
37468W        W99131  42.433  39.841  11.376
37469W        W99132  42.513  36.987  14.430
37470W        W99133  21.730   6.355   4.642
37471W        W99134  33.912  10.159  10.118
37472W        W99135  32.449   5.798  12.006
37473W        W99136  23.007  16.716   0.467
37474W        W99137  37.924  39.415   2.878
37475W        W99138  16.796   1.892   0.854
37476W        W99139  13.676   4.293   1.366
37477W        W99140   8.851  42.434  11.937
37478W        W99141   8.881  12.812   2.902
37479W        W99142   1.818   9.791   3.155
37480W        W99143  30.056  14.293   4.752
37481W        W99144  36.905   1.460   1.353
37482W        W99145   9.364  42.872   1.368
37483W        W99146  43.934  22.104  10.903
37484W        W99147  34.877   6.745   3.377
37485W        W99148  23.592  38.903  14.420
37486W        W99149   4.287  16.227   3.340
37487W        W99150  21.196  39.927  12.022
37488W        W99151  31.128  33.528   3.635
37489W        W99152   3.850  37.356   1.921
37490W        W99153   4.944  20.702   1.750
37491W        W99154  12.197  44.968   2.742
37492W        W99155  38.852  39.503  10.532
37493W        W99156  38.548  41.328  10.573
37494W        W99157  19.278  12.809   2.255
37495W        W99158   6.247  27.007  11.552
37496W        W99159  14.304  36.084  11.932
37497W        W99160  37.407  21.632  13.336
37498W        W99161  27.981   9.350   0.475
37499W        W99162  10.754  39.538  12.393
37500W        W99163  16.144   3.413   0.730
37501W        W99164  31.976  23.726  14.857
37502W        W99165  25.118  33.546   1.738
37503W        W99166  36.482  44.386   0.369
37504W        W99167  16.682  37.398  13.052
37505W        W99168  26.054  33.579  11.403
37506W        W99169  31.951  41.870   1.770
37507W        W99170  42.411  19.707  10.635
37508W        W99171  18.232  10.193  14.929
37509W        W99172  24.149  14.199   1.369
37510W        W99173  30.517  30.035   4.214
37511W        W99174  16.667  18.273   2.269
37512W        W99175  16.669  18.772  11.489
37513W        W99176  35.055  35.867   4.214
37514W        W99177  21.072  34.559  12.019
37515W        W99178  34.422  15.153  12.018
37516W        W99179  15.812  31.069  12.983
37517W        W99180  21.681  35.091   1.828
37518W        W99181  13.692  21.053   0.404
37519W        W99182  32.885  16.288   0.826
37520W        W99183  36.466  25.668  12.884
37521W        W99184  13.787  16.233   0.911
37522W        W99185  34.486  37.970  13.496
37523W        W99186  39.865  29.954  12.930
37524W        W99187  33.517  26.474   3.229
37525W        W99188  10.299  31.569  13.495
37526W        W99189  22.154  24.064   3.792
37527W        W99190   1.844  15.577   1.803
37528W        W99191  33.551  27.485  11.906
37529W        W99192  30.959  18.117  14.923
37530W        W99193  33.601  11.858  13.435
37531W        W99194  13.329  40.508  12.503
37532W        W99195  41.887  33.057   1.421
37533W        W99196  19.656  29.089   2.754
37534W        W99197  16.305  35.396  11.517
37535W        W99198  25.694  10.309   4.319
37536W        W99199  43.956  44.982   0.417
37537W        W99200  16.084  10.281   9.992
37538W        W99201  30.074  27.516   1.428
37539W        W99202  41.330   4.400  13.313
37540W        W99203   7.213  20.666  11.128
37541W        W99204   8.862  13.683   3.820
37542W        W99205   3.223  16.105  11.860
37543W        W99206  42.999  39.351  14.318
37544W        W99207   2.889  25.196  13.369
37545W        W99208  13.136  37.459  13.517
37546W        W99209  27.099  12.804   4.704
37547W        W99210  42.447  21.025   1.886
37548W        W99211   2.852   0.259   0.480
37549W        W99212  32.935   5.709   0.742
37550W        W99213  14.336   0.783  10.613
37551W        W99214   5.395   6.404   2.679
37552W        W99215  40.526  30.456   1.918
37553W        W99216   8.749  23.074  13.878
37554W        W99217  10.270  12.740   5.224
37555W        W99218  36.546  21.080  12.054
37556W        W99219  42.992   6.354   0.357
37557W        W99220  25.543  14.182   1.844
37558W        W99221  30.962  41.036  14.814
37559W        W99222  18.588  31.468  11.483
37560W        W99223  36.480  39.450  13.064
37561W        W99224   4.817  39.332  14.489
37562W        W99225   9.686  38.457  14.863
37563W        W99226  37.914  17.592   0.289
37564W        W99227  20.173  21.518   1.740
37565W        W99228  29.522   6.876   2.768
37566W        W99229  44.375  17.640   1.933
37567W        W99230  12.717  33.126  11.965
37568W        W99231  15.682  15.749  12.347
37569W        W99232  25.148  18.566  11.518
37570W        W99233  26.072  32.095   1.277
37571W        W99234  44.771  40.308  14.478
37572W        W99235  33.064   1.280   1.851
37573W        W99236   1.844  30.471   4.621
37574W        W99237  16.740  17.222  12.927
37575W        W99238   1.789  38.416  13.890
37576W        W99239  33.938  36.411  13.799
37577W        W99240  14.795  25.111   5.147
37578W        W99241  17.172  37.842  12.348
37579W        W99242  21.239  43.346   2.218
37580W        W99243  27.532  16.734  13.345
37581W        W99244  17.751  37.387  13.534
37582W        W99245  16.149   9.699   1.355
37583W        W99246   8.660  26.031   1.744
37584W        W99247  36.530  20.619   3.855
37585W        W99248  13.616  13.126   4.220
37586W        W99249   0.388  40.037   1.752
37587W        W99250  33.946  25.100   1.341
37588W        W99251  42.965  42.351  13.013
37589W        W99252  34.101  26.952  13.797
37590W        W99253  39.477   6.244   3.677
37591W        W99254  33.108  34.416  14.450
37592W        W99255  16.630   5.349  14.290
37593W        W99256  29.443   8.293  10.998
37594W        W99257  40.929   7.274   0.287
37595W        W99258  24.158   8.249   4.343
37596W        W99259  34.410  30.447  10.407
37597W        W99260  10.699  17.298   3.153
37598W        W99261  33.565  29.174  12.566
37599W        W99262   1.762  14.722   0.331
37600W        W99263  14.809  15.103   3.790
37601W        W99264  20.557  30.588   1.392
37602W        W99265  30.038   3.755   2.316
37603W        W99266   4.249  13.198  12.538
37604W        W99267  43.781  34.909  14.010
37605W        W99268  28.504  15.602   0.896
37606W        W99269  42.374  41.528   4.601
37607W        W99270  35.369  44.385   0.941
37608W        W99271  24.988   3.376   0.738
37609W        W99272   0.788  29.006   4.725
37610W        W99273   8.165  39.429   0.318
37611W        W99274   7.198  40.942  14.466
37612W        W99275  13.275   7.301   9.977
37613W        W99276  38.963  16.735  13.547
37614W        W99277  40.883  23.183   4.257
37615W        W99278   4.313  28.662  11.545
37616W        W99279  13.108  29.026   3.147
37617W        W99280  35.960  15.172   1.898
37618W        W99281  13.841  40.021  13.945
37619W        W99282  27.178  41.859   2.692
37620W        W99283  19.623  16.144   0.416
37621W        W99284  25.545  15.250   3.379
37622W        W99285  39.995  18.689   3.831
37623W        W99286  42.288  22.537  10.892
37624W        W99287   8.850  37.555  14.022
37625W        W99288  39.551  38.855  10.938
37626W        W99289  26.166  10.157   1.429
37627W        W99290  39.506  25.527   3.725
37628W        W99291   6.326   4.933  11.943
37629W        W99292  16.237   1.811   0.783
37630W        W99293  43.904  25.177  13.874
37631W        W99294  30.996  28.617   1.866
37632W        W99295   9.828   0.299  10.912
37633W        W99296  34.991   6.280   4.601
37634W        W99297  38.045  30.435  13.824
37635W        W99298  39.557  20.586  10.514
37636W        W99299  35.571  23.503   2.741
37637W        W99300  15.769   5.367  13.878
37638W        W99301  40.458  20.578   1.913
37639W        W99302   7.206  21.241   0.753
37640W        W99303   5.293  19.543  12.497
37641W        W99304  16.689  18.155   3.675
37642W        W99305  44.361  28.675   0.782
37643W        W99306  14.705   9.812  10.950
37644W        W99307  29.955   7.756  12.408
37645W        W99308  12.838  32.525   3.238
37646W        W99309  43.877  41.519   3.366
37647W        W99310  42.288   6.678   3.803
37648W        W99311  24.167  34.382  13.891
37649W        W99312   4.714  39.450   3.234
37650W        W99313  11.808  32.410   9.942
37651W        W99314  31.089  40.893  10.520
37652W        W99315  11.693  32.451  11.546
37653W        W99316  31.062  38.056   3.363
37654W        W99317  39.938  42.014  14.015
37655W        W99318  21.619  29.988  10.543
37656W        W99319  10.265  18.097  10.478
37657W        W99320  18.690  23.541   2.351
37658W        W99321   1.885  19.641   3.331
37659W        W99322   6.300  28.164   1.407
37660W        W99323  44.920  13.652   2.299
37661W        W99324   0.907  32.027   2.236
37662W        W99325  29.021  15.687  12.551
37663W        W99326   8.831  35.368  11.894
37664W        W99327  32.970  39.548  11.546
37665W        W99328   6.911  27.614   0.818
37666W        W99329   2.832  13.737   2.409
37667W        W99330   9.256  41.469   2.399
37668W        W99331  43.915  17.690   2.752
37669W        W99332  42.820  31.918   2.322
37670W        W99333  44.341  15.781  12.457
37671W        W99334  22.555   0.265   4.696
37672W        W99335  33.048  27.965  10.428
37673W        W99336  36.584  34.894   4.832
37674W        W99337  28.110  18.286   4.789
37675W        W99338  14.143  41.799  11.547
37676W        W99339  44.336  13.272  10.615
37677W        W99340  25.189  10.866  12.552
37678W        W99341   3.444  10.296   4.697
37679W        W99342   9.765   0.415   1.233
37680W        W99343   8.839   3.265   2.388
37681W        W99344  10.364  10.337  12.946
37682W        W99345  32.141  38.927  12.490
37683W        W99346  18.215  25.990   1.834
37684W        W99347  38.383  22.692   0.348
37685W        W99348  43.917  19.745  14.790
37686W        W99349  23.180   4.440   0.329
37687W        W99350  33.489  28.586   3.333
37688W        W99351  39.420  16.675  10.590
37689W        W99352   7.190  24.023   2.871
37690W        W99353  40.386  25.109  10.500
37691W        W99354  14.674  23.555  10.921
37692W        W99355  10.697  43.468   0.808
37693W        W99356  29.122   8.250   3.677
37694W        W99357  32.544  43.914  14.969
37695W        W99358  18.087  40.438   0.954
37696W        W99359  33.534   2.835   4.815
37697W        W99360  40.386  33.944  11.023
37698W        W99361  30.041  14.784  10.532
37699W        W99362  20.540  38.475   1.879
37700W        W99363  14.652  39.017   3.758
37701W        W99364  39.944  27.526   4.237
37702W        W99365  43.347  42.893   0.376
37703W        W99366  13.116  44.469   4.598
37704W        W99367  19.281  12.297  10.606
37705W        W99368  39.476  20.732   4.753
37706W        W99369  36.099  21.674   9.494
37707W        W99370  18.604  41.476  10.130
37708W        W99371  18.790   0.827   3.773
37709W        W99372   3.948  36.959   3.736
37710W        W99373  11.349  33.397   3.177
37711W        W99374  41.430  42.466   4.236
37712W        W99375  30.513  31.110  12.429
37713W        W99376  32.540   4.269   3.772
37714W        W99377  28.670   0.325   2.759
37715W        W99378  40.849   7.713  11.605
37716W        W99379  36.908  33.967  12.871
37717W        W99380  44.303  11.713  11.005
37718W        W99381   2.328  19.165  12.857
37719W        W99382  22.506  35.961  13.850
37720W        W99383  27.460  11.627   4.320
37721W        W99384   2.927  42.388  11.557
37722W        W99385  12.704  36.573  12.036
37723W        W99386  26.684  18.662  10.992
37724W        W99387   1.867  29.458   3.783
37725W        W99388  35.461  42.021  13.358
37726W        W99389  19.610  34.945  14.898
37727W        W99390  28.672   6.215   2.890
37728W        W99391  33.429  44.969  10.959
37729W        W99392  42.998  43.404   3.763
37730W        W99393   3.240  38.369   1.214
37731W        W99394  11.188  34.572  10.638
37732W        W99395  36.501  16.621   4.742
37733W        W99396  36.873  38.993   4.750
37734W        W99397  22.707  39.941  11.864
37735W        W99398   9.654  38.919   4.114
37736W        W99399  19.686  18.264   2.876
37737W        W99400  44.411  24.539  14.811
37738W        W99401  24.538  11.811   1.791
37739W        W99402  34.945  13.337   0.389
37740W        W99403  30.486  33.425   4.343
37741W        W99404  42.026  21.588  12.952
37742W        W99405   6.384  39.851  10.626
37743W        W99406  23.190  13.644   1.702
37744W        W99407  33.457  32.497  14.848
37745W        W99408  33.459   8.299  12.460
37746W        W99409  40.378   9.854   2.325
37747W        W99410  37.360  43.974  11.019
37748W        W99411  17.234   6.816  11.986
37749W        W99412  34.437  42.004  13.474
37750W        W99413  22.128  39.018  11.399
37751W        W99414  43.796   0.338  14.437
37752W        W99415   9.382   2.336   4.741
37753W        W99416  36.921   1.470  11.586
37754W        W99417   9.856  10.370  13.335
37755W        W99418   6.787   2.447   2.413
37756W        W99419  34.974  37.060  14.890
37757W        W99420  11.372  39.342   9.570
37758W        W99421  21.071  10.707   3.235
37759W        W99422   3.355  41.308  13.942
37760W        W99423  28.172   6.396  13.342
37761W        W99424  41.879  32.943  10.473
37762W        W99425  25.642  26.542  13.503
37763W        W99426  12.330  21.591   2.402
37764W        W99427  15.222  32.936  14.298
37765W        W99428  39.852  10.220   2.785
37766W        W99429  33.969  29.638   2.317
37767W        W99430  12.273  20.643   1.768
37768W        W99431  20.563  16.730  14.296
37769W        W99432  41.817  21.233   1.387
37770W        W99433  13.269  25.198  13.446
37771W        W99434  34.971   9.163   2.393
37772W        W99435  16.793  41.530   2.211
37773W        W99436  30.424  19.700   0.441
37774W        W99437  22.644  23.041   3.146
37775W        W99438  19.191   3.444   3.201
37776W        W99439  37.998  44.404   2.899
37777W        W99440   2.291   9.246  12.421
37778W        W99441   9.251   7.276  10.458
37779W        W99442   9.392   4.768  14.371
37780W        W99443  42.334  30.584   1.260
37781W        W99444   6.327   4.929  12.935
37782W        W99445  40.364  10.303   2.255
37783W        W99446  28.486  17.674   3.705
37784W        W99447  22.214  21.021   3.643
37785W        W99448  11.239  44.792  12.983
37786W        W99449   5.922  24.585  13.545
37787W        W99450  36.574   3.904  12.460
37788W        W99451  11.789  12.693   4.681
37789W        W99452   6.208  34.897   0.774
37790W        W99453   5.272  25.064  12.063
37791W        W99454  29.531  43.820   4.189
37792W        W99455  36.540  29.122  13.403
37793W        W99456  33.033  11.749   3.151
37794W        W99457   4.402  34.375   2.891
37795W        W99458  39.490  15.142  14.987
37796W        W99459   5.864  10.261  10.955
37797W        W99460  23.188   7.836  11.997
37798W        W99461  39.523  13.257  13.526
37799W        W99462   7.817  28.065   0.962
37800W        W99463  22.690   1.791   9.946
37801W        W99464  11.196  32.074  11.879
37802W        W99465   1.804  20.044   5.313
37803W        W99466  20.543  20.535  12.083
37804W        W99467  21.726  43.406   4.150
37805W        W99468  22.670  30.618   2.809
37806W        W99469  31.508  39.552   4.831
37807W        W99470   5.273  11.276  12.541
37808W        W99471  41.378   4.925  11.886
37809W        W99472  40.922  33.949   4.672
37810W        W99473  14.670  22.062   0.944
37811W        W99474  28.469  26.634   1.403
37812W        W99475  23.725  15.771   0.358
37813W        W99476  11.208   7.677   2.335
37814W        W99477  11.683   9.665   2.272
37815W        W99478  25.009  34.885  14.515
37816W        W99479  41.848  40.000   1.311
37817W        W99480   8.699  40.816  10.926
37818W        W99481  12.793  14.223   4.231
37819W        W99482   9.196  18.208  12.027
37820W        W99483  27.167  26.200   0.463
37821W        W99484  25.213  15.311   2.820
37822W        W99485  15.591  30.972  10.889
37823W        W99486  31.955  12.788  14.347
37824W        W99487  42.410  12.833   3.152
37825W        W99488  20.064  24.583  11.453
37826W        W99489  16.276  38.068   1.296
37827W        W99490  38.908  11.732  13.012
37828W        W99491  28.049  29.074   1.707
37829W        W99492   4.314  42.453   1.846
37830W        W99493  26.495  10.178  10.923
37831W        W99494  24.700  11.356  14.331
37832W        W99495  38.858  18.226  10.071
37833W        W99496  44.881  38.412   4.157
37834W        W99497  26.971  43.497   0.317
37835W        W99498  39.865  36.364  12.509
37836W        W99499  26.966   9.235  10.574
37837W        W99500  31.463  23.118   3.693
37838W        W99501   5.310  34.454   3.706
37839W        W99502   2.464   2.287  12.549
37840W        W99503  12.360  36.972   1.755
37841W        W99504  22.232  29.626   4.801
37842W        W99505  25.582  41.043  14.409
37843W        W99506  27.609  10.660  13.835
37844W        W99507  18.746   1.386   0.825
37845W        W99508  13.680  36.063  10.542
37846W        W99509   7.749  24.638  14.383
37847W        W99510  30.104  10.703  10.540
37848W        W99511   1.301  31.519  10.526
37849W        W99512  33.004  17.122  12.827
37850W        W99513  11.762  44.788  11.943
37851W        W99514  31.995  38.981   1.382
37852W        W99515  42.405  44.329  14.329
37853W        W99516  40.954   4.781  11.008
37854W        W99517   9.288   5.294  12.363
37855W        W99518  23.007  24.024   3.320
37856W        W99519  26.555  44.844   2.381
37857W        W99520   9.172   0.956  12.067
37858W        W99521  16.728   2.370  11.377
37859W        W99522  32.953  15.143   4.315
37860W        W99523   9.361   7.359   2.232
37861W        W99524  34.518  38.049   1.918
37862W        W99525  24.034  32.072   1.309
37863W        W99526  25.574  22.042  10.560
37864W        W99527  41.456  20.232  10.977
37865W        W99528  21.161  10.295   1.280
37866W        W99529  27.173   4.385   0.436
37867W        W99530   5.819  34.027   3.204
37868W        W99531  31.083  17.090  10.591
37869W        W99532  34.409   3.312  14.770
37870W        W99533  43.345  38.929   1.238
37871W        W99534  13.838  36.855  11.892
37872W        W99535  41.925  33.387   0.869
37873W        W99536   1.373  29.502  11.029
37874W        W99537  25.998  37.374  11.995
37875W        W99538  10.767  27.163   4.638
37876W        W99539   7.717  35.041  12.878
37877W        W99540   1.885  23.709  11.481
37878W        W99541  27.050  12.633  10.951
37879W        W99542  21.263  18.683   4.236
37880W        W99543  28.588  38.937   1.320
37881W        W99544  43.823  19.600  11.065
37882W        W99545   5.701  17.223   3.309
37883W        W99546  13.179  39.330   3.273
37884W        W99547  42.487  17.669  11.483
37885W        W99548  15.126  12.167  11.486
37886W        W99549  17.561  36.579   4.161
37887W        W99550   5.702   0.283   4.704
37888W        W99551  24.049   2.929   0.261
37889W        W99552  28.017   4.857   3.357
37890W        W99553  30.923  16.758   4.772
37891W        W99554  19.586   1.871  12.416
37892W        W99555   0.984   8.784   9.952
37893W        W99556  17.606  39.853   4.150
37894W        W99557  27.995  42.317   0.248
37895W        W99558  31.031  38.426  14.394
37896W        W99559   6.904  23.169   2.803
37897W        W99560  39.955  33.977   0.922
37898W        W99561  32.584  43.004   2.778
37899W        W99562  13.341  36.351   2.798
37900W        W99563  12.677  32.014   2.799
37901W        W99564  19.618  24.073   2.863
37902W        W99565  34.499  21.593   2.892
37903W        W99566  37.929  22.571   3.792
37904W        W99567  42.400   2.743  10.486
37905W        W99568  37.858   7.219  10.487
37906W        W99569  43.360  41.843  14.856
37907W        W99570   3.438  38.514   2.295
37908W        W99571  27.658  24.109  11.096
37909W        W99572  20.558  40.477  11.593
37910W        W99573   0.742  37.938   3.165
37911W        W99574  41.011  39.504   2.302
37912W        W99575  21.517  36.064   3.268
37913W        W99576   0.493  17.745  14.995
37914W        W99577  26.635  42.366   0.907
37915W        W99578  16.735  31.424   3.673
37916W        W99579  10.194  19.103  10.925
37917W        W99580  44.904   5.759   0.966
37918W        W99581  21.516   2.783  13.414
37919W        W99582  27.539  38.042  11.097
37920W        W99583   3.328  33.028   1.859
37921W        W99584  28.566  13.697  12.001
37922W        W99585  40.805  28.182  14.775
37923W        W99586  42.914  26.649   3.266
37924W        W99587  44.995  40.430  12.577
37925W        W99588  15.744   5.212   0.346
37926W        W99589  36.886  16.610   1.281
37927W        W99590  33.498  11.758   5.259
37928W        W99591  24.509  27.021  12.904
37929W        W99592  16.602  29.171   4.303
37930W        W99593   0.930  15.166  14.946
37931W        W99594  23.584  42.366   1.280
37932W        W99595  40.950  40.469   0.911
37933W        W99596   6.885  42.334   0.848
37934W        W99597  13.690  18.653  11.387
37935W        W99598  19.115  33.400  13.001
37936W        W99599  33.480   6.713   3.770
37937W        W99600  24.678  34.465   2.697
37938W        W99601  18.725   2.722   1.354
37939W        W99602  44.876  31.111  10.888
37940W        W99603  23.634  16.117   3.212
37941W        W99604  41.923  18.546   0.413
37942W        W99605  24.126  34.612   3.642
37943W        W99606  28.512   7.739   3.368
37944W        W99607  32.425  27.560   1.251
37945W        W99608  19.665   8.282  11.421
37946W        W99609  17.568   1.410  14.793
37947W        W99610   8.259  18.689  14.953
37948W        W99611  25.013  25.618  11.918
37949W        W99612  15.165  30.456   3.756
37950W        W99613  38.347  42.476   4.327
37951W        W99614  37.336  31.642  13.944
37952W        W99615  18.573  27.947   3.855
37953W        W99616  24.599  17.096   3.157
37954W        W99617  11.225  44.449  12.075
37955W        W99618   0.945  13.178   4.322
37956W        W99619   5.882  39.475   0.771
37957W        W99620  11.181  22.245   1.873
37958W        W99621  20.136  23.091  14.417
37959W        W99622   6.875   2.358   4.692
37960W        W99623  42.021  39.949  13.333
37961W        W99624  24.605   8.266  11.426
37962W        W99625  37.907  23.718  10.425
37963W        W99626  32.921  16.128  11.398
37964W        W99627  39.367  34.575   2.848
37965W        W99628   9.864   9.715   1.218
37966W        W99629  43.843  11.243  13.358
37967W        W99630  28.603  17.293   4.807
37968W        W99631  22.209  40.023   1.759
37969W        W99632  33.500  11.263   4.290
37970W        W99633  11.300  13.806  13.508
37971W        W99634  34.399   6.333   1.910
37972W        W99635  43.971  18.790  14.422
37973W        W99636  36.989  32.969   2.409
37974W        W99637   8.299  22.143   4.302
37975W        W99638  19.712  42.457  13.363
37976W        W99639   7.403  38.411  11.010
37977W        W99640   0.408  23.224   1.440
37978W        W99641  17.773   9.726   2.880
37979W        W99642  41.483  26.697  13.834
37980W        W99643   4.927  31.991   3.178
37981W        W99644  38.954  20.707   0.270
37982W        W99645  16.252  21.672  14.461
37983W        W99646   3.718  14.767   0.337
37984W        W99647  38.372  33.880  14.910
37985W        W99648  36.379   0.442  13.848
37986W        W99649  18.103  13.666   4.796
37987W        W99650  15.617  17.123   3.649
37988W        W99651  39.487  34.114  10.900
37989W        W99652  41.351  26.658  13.324
37990W        W99653  12.681  12.707  11.406
37991W        W99654  33.605  22.116  12.845
37992W        W99655   4.392   5.324   3.707
37993W        W99656  31.921  34.586  12.388
37994W        W99657  43.436  12.298   1.841
37995W        W99658  28.174  28.041   0.797
37996W        W99659  10.375  34.872   1.883
37997W        W99660  14.825  26.564  11.075
37998W        W99661   5.236  35.879  10.523
37999W        W99662  17.102   3.932   0.864
38000W        W99663   4.816  15.682   5.088
38001W        W99664  31.007  43.412  12.940
38002W        W99665  13.126  11.636   3.150
38003W        W99666   8.257  20.598  12.541
38004W        W99667   5.197   5.821   1.409
38005W        W99668  43.379  42.967  11.595
38006W        W99669  12.246  17.789  14.382
38007W        W99670  33.581  17.296  14.761
38008W        W99671  28.003   8.874  14.316
38009W        W99672   7.283  43.787  13.912
38010W        W99673  14.754  32.984  13.949
38011W        W99674  19.549  42.974   3.697
38012W        W99675   6.716  27.527  12.833
38013W        W99676  10.197  32.070  14.905
38014W        W99677  19.072   1.433   1.873
38015W        W99678   5.350  30.030   0.915
38016W        W99679  36.910  27.519   0.473
38017W        W99680  29.456  16.270   3.660
38018W        W99681  40.960  37.969  12.507
38019W        W99682  28.477  42.516  12.074
38020W        W99683  35.532   1.910  11.582
38021W        W99684  25.487  20.690  13.394
38022W        W99685  30.446  28.642  13.512
38023W        W99686  31.042  33.127  12.009
38024W        W99687  22.626  16.598  13.415
38025W        W99688   2.272  28.163   3.693
38026W        W99689  34.934  19.723   0.367
38027W        W99690  25.504  42.997  14.026
38028W        W99691  10.701   0.291  12.834
38029W        W99692  13.156  33.418   5.106
38030W        W99693  37.936  42.515   3.176
38031W        W99694  44.480   5.758   1.420
38032W        W99695   9.367  13.299   3.337
38033W        W99696  18.653  14.808  14.349
38034W        W99697  38.999  13.235   4.601
38035W        W99698  38.035  14.249   1.432
38036W        W99699  29.110   4.399  13.881
38037W        W99700  21.672  34.443  12.992
38038W        W99701   6.713  30.120   4.738
38039W        W99702   1.863  12.745   1.820
38040W        W99703  39.347  33.395   2.307
38041W        W99704   2.456  10.743   2.286
38042W        W99705   1.447  23.183   0.294
38043W        W99706   8.296  29.010   3.204
38044W        W99707  20.260  38.878  10.534
38045W        W99708  34.906  40.488  12.445
38046W        W99709  40.017  14.731  11.978
38047W        W99710  25.032   2.408  13.358
38048W        W99711  33.384  18.248  12.031
38049W        W99712  34.439   3.896  11.929
38050W        W99713  29.072  35.077   3.176
38051W        W99714  38.497   7.864   1.865
38052W        W99715  17.585   6.768  12.493
38053W        W99716  35.487  22.535   3.763
38054W        W99717  21.069  21.588  11.044
38055W        W99718   2.803  19.700  13.392
38056W        W99719  33.563  43.436  12.918
38057W        W99720   9.252  13.285  13.047
38058W        W99721  27.971  28.174   1.809
38059W        W99722  32.430  42.822  10.990
38060W        W99723  42.880  11.362  10.515
38061W        W99724  36.591   2.393  12.981
38062W        W99725   4.935  32.058  12.063
38063W        W99726  14.180   7.667   1.722
38064W        W99727  24.669  31.128  14.008
38065W        W99728   3.950  40.333  11.484
38066W        W99729  24.998  24.073   3.706
38067W        W99730  18.754   0.792  14.333
38068W        W99731   4.872  38.450  12.059
38069W        W99732  10.878  17.618   4.235
38070W        W99733  16.183  12.339  12.893
38071W        W99734  37.872  19.551   4.682
38072W        W99735  21.179  21.571   0.400
38073W        W99736  27.479  25.207   0.397
38074W        W99737  44.921  25.486   3.677
38075W        W99738   1.923  28.092   2.674
38076W        W99739   5.361  35.465   3.334
38077W        W99740  16.738   4.234   1.785
38078W        W99741  44.771  37.919   2.693
38079W        W99742  25.175  39.840  12.059
38080W        W99743  29.564   2.268  14.996
38081W        W99744   1.286  25.095   2.208
38082W        W99745  30.609  20.576   4.647
38083W        W99746  23.556  10.709  14.866
38084W        W99747   8.399   0.790   4.712
38085W        W99748  11.739  32.120  12.082
38086W        W99749  14.693  17.778  13.916
38087W        W99750  30.550  23.986  13.460
38088W        W99751  22.081  30.128  10.594
38089W        W99752  16.665  36.021  10.989
38090W        W99753  27.118  32.491  14.974
38091W        W99754   1.806  37.351   1.717
38092W        W99755  28.002  31.136   0.852
38093W        W99756  11.235  41.327   0.287
38094W        W99757   4.870  15.666  10.998
38095W        W99758  37.430  14.143  11.966
38096W        W99759  23.147  23.997  11.983
38097W        W99760  30.416  35.527   3.725
38098W        W99761  40.009  12.727   3.834
38099W        W99762  22.688   4.856  13.496
38100W        W99763   2.368   7.882   2.687
38101W        W99764   6.394  13.319  11.571
38102W        W99765  18.264  34.119   2.728
38103W        W99766   1.436  22.506  12.342
38104W        W99767  26.143  14.115  11.935
38105W        W99768  23.099  28.538  12.567
38106W        W99769  20.531  14.223   4.324
38107W        W99770  39.982   8.718  13.436
38108W        W99771  33.555  43.898  14.842
38109W        W99772  21.043  27.086  13.538
38110W        W99773  42.783  41.891   4.172
38111W        W99774  35.885  40.954   1.341
38112W        W99775  40.480  26.620   0.402
38113W        W99776  31.490  33.927  13.034
38114W        W99777  27.520  17.123   2.736
38115W        W99778  11.258  44.818  14.503
38116W        W99779  22.567  37.476   0.934
38117W        W99780  40.352  29.073  11.098
38118W        W99781  25.007  18.206  13.945
38119W        W99782   7.828  43.815   4.617
38120W        W99783  32.034   4.714  10.539
38121W        W99784  34.466   9.766   1.895
38122W        W99785  38.873  34.386   1.443
38123W        W99786  44.842   3.877   2.231
38124W        W99787  42.518   3.935   1.424
38125W        W99788   7.799  42.782   2.345
38126W        W99789   1.817  18.146   4.771
38127W        W99790  15.669  13.299   3.367
38128W        W99791   9.846   8.275   1.303
38129W        W99792  16.667  34.572  10.041
38130W        W99793   4.450  25.079  10.473
38131W        W99794  44.997  12.660  13.334
38132W        W99795   2.914  20.035   2.259
38133W        W99796  38.425  42.805  13.507
38134W        W99797   7.308  26.555   3.686
38135W        W99798  30.928  19.080  14.945
38136W        W99799  15.771  39.972   0.369
38137W        W99800   8.812  42.510  10.525
38138W        W99801  27.015   0.836  11.382
38139W        W99802  42.817  23.180  13.492
38140W        W99803   4.417  15.313  13.374
38141W        W99804  33.475  25.180   2.309
38142W        W99805   8.295   0.470  13.043
38143W        W99806   7.819  17.300   2.670
38144W        W99807  26.560  16.616  14.768
38145W        W99808  23.521  14.236  14.942
38146W        W99809  42.925  11.282  13.017
38147W        W99810   5.768  21.610  11.418
38148W        W99811  32.545  35.358  13.055
38149W        W99812   8.319  27.076  11.916
38150W        W99813  18.611   8.246   2.733
38151W        W99814  21.041  26.673  12.352
38152W        W99815   9.728  34.105  11.031
38153W        W99816  35.866   0.447   0.407
38154W        W99817   5.840  33.946  12.964
38155W        W99818  44.467  19.232  11.066
38156W        W99819   3.329  31.523  12.492
38157W        W99820  33.988  31.974  13.818
38158W        W99821  44.483   9.239  14.024
38159W        W99822  43.328  11.729  12.414
38160W        W99823   4.874  25.042  12.031
38161W        W99824  44.267   8.365   0.839
38162W        W99825  43.927  26.558   1.805
38163W        W99826  18.288  23.552   3.633
38164W        W99827   9.373  11.276  13.542
38165W        W99828  16.163  12.670  11.076
38166W        W99829  11.324  14.324   4.265
38167W        W99830  26.512   3.788  11.424
38168W        W99831  39.489  24.155   0.790
38169W        W99832  14.788  32.904   0.285
38170W        W99833   0.897   2.932   0.862
38171W        W99834   9.157  15.740   4.721
38172W        W99835   3.316   0.838  10.534
38173W        W99836  37.460  25.583  13.893
38174W        W99837  11.218  25.472   4.828
38175W        W99838  42.470  40.831  10.900
38176W        W99839  28.477  16.605   3.776
38177W        W99840  34.950  14.230   4.168
38178W        W99841  39.527  28.027   4.749
38179W        W99842   8.896   7.812  10.120
38180W        W99843  39.423   9.247   3.699
38181W        W99844  29.094  39.021   3.318
38182W        W99845   9.161  44.841  10.932
38183W        W99846  17.193  17.725   3.170
38184W        W99847   8.864  33.442   1.922
38185W        W99848   0.415  20.748  14.812
38186W        W99849  23.216  16.222  11.588
38187W        W99850  13.212  15.582   4.118
38188W        W99851   3.756  20.530   1.800
38189W        W99852  29.463  25.132  12.001
38190W        W99853  43.498  33.048  11.879
38191W        W99854  30.924  20.729   3.856
38192W        W99855  27.114  18.166   0.863
38193W        W99856   8.777  16.718  14.780
38194W        W99857  35.559  19.617   0.360
38195W        W99858  25.984  38.378  13.405
38196W        W99859   8.788  35.395  11.436
38197W        W99860  36.474  21.246   1.228
38198W        W99861  34.561  11.641  13.372
38199W        W99862  43.515  24.978   4.233
38200W        W99863  23.208  22.212  13.334
38201W        W99864  40.365  10.693   0.907
38202W        W99865  25.638  25.111   3.387
38203W        W99866  13.655   5.314  11.072
38204W        W99867   0.788  34.447   0.290
38205W        W99868  18.289  14.643  10.980
38206W        W99869  21.070   4.338  11.052
38207W        W99870   7.209   1.828   3.630
38208W        W99871  38.423  32.444  11.609
38209W        W99872  39.894  32.456  13.804
38210W        W99873  37.916  41.877  11.409
38211W        W99874  10.650   2.928   2.276
38212W        W99875   0.478  27.666   1.424
38213W        W99876  20.031  14.625  13.892
38214W        W99877  10.306  40.028  12.497
38215W        W99878  32.080  20.769   1.319
38216W        W99879  21.729  12.701  12.536
38217W        W99880  40.469   7.342  12.563
38218W        W99881   3.711  35.890  12.893
38219W        W99882  39.062  27.528  11.976
38220W        W99883  14.154  38.396   5.090
38221W        W99884  43.316  18.680   1.381
38222W        W99885  20.643   0.360   0.380
38223W        W99886  11.263  43.949  13.526
38224W        W99887  44.493   2.850   3.246
38225W        W99888   6.893   8.849   1.751
38226W        W99889  28.979  33.423   3.162
38227W        W99890  22.026  25.706  12.487
38228W        W99891   5.911  40.806  12.918
38229W        W99892  29.603  13.731  11.593
38230W        W99893  12.734  43.491  13.451
38231W        W99894  35.880   2.833  11.117
38232W        W99895  28.963  24.125   0.804
38233W        W99896  24.128  31.137   4.749
38234W        W99897  37.067  44.839   4.747
38235W        W99898  15.126  22.726  10.999
38236W        W99899  25.102  16.175   3.796
38237W        W99900   4.288  34.088  13.378
38238W        W99901  18.095  11.771  10.457
38239W        W99902  16.774  12.201   4.166
38240W        W99903  27.449  38.428   2.260
38241W        W99904  16.253  11.237  11.521
38242W        W99905  12.637  33.403   4.824
38243W        W99906  35.954  10.754   3.170
38244W        W99907   8.686  41.323   0.319
38245W        W99908   6.841   9.684  14.301
38246W        W99909   7.171   0.767  14.868
38247W        W99910  24.176  16.777   2.770
38248W        W99911   6.391  32.060   5.154
38249W        W99912  27.646   8.205   4.821
38250W        W99913   4.258   2.934   0.897
38251W        W99914  44.268   5.365   4.349
38252W        W99915  24.173  40.518  11.376
38253W        W99916   1.782   0.956   4.624
38254W        W99917  11.819  42.813  14.849
38255W        W99918  31.093  39.982   2.251
38256W        W99919   6.219  36.578   1.856
38257W        W99920  36.441  18.700  12.972
38258W        W99921  35.593  43.949   0.312
38259W        W99922  43.390  26.493   1.857
38260W        W99923  40.443  44.975   4.630
38261W        W99924  30.058  35.073   4.335
38262W        W99925   7.193  17.304   1.212
38263W        W99926  14.192  18.656  11.472
38264W        W99927  20.132   2.290  13.412
38265W        W99928  11.181  36.569  13.345
38266W        W99929  20.119   4.428  13.000
38267W        W99930  25.109  19.182   2.349
38268W        W99931  11.790  35.439   2.760
38269W        W99932   8.252  33.475  13.473
38270W        W99933   9.381   7.383   4.151
38271W        W99934  34.066  33.403   3.156
38272W        W99935  24.535  42.310  10.051
38273W        W99936  26.109   8.385   4.261
38274W        W99937   7.314  22.655   3.352
38275W        W99938  18.564   0.385   0.408
38276W        W99939  15.286  13.776  11.993
38277W        W99940  40.448  16.693  13.807
38278W        W99941  10.796  40.325  14.470
38279W        W99942   7.362   6.799   4.699
38280W        W99943   5.830  22.007   1.271
38281W        W99944   8.298   8.898   5.248
38282W        W99945   4.779   5.220  11.611
38283W        W99946  33.621  25.141   5.218
38284W        W99947  29.983  33.938  11.518
38285W        W99948   6.751  17.210  11.593
38286W        W99949  36.406   4.229   3.183
38287W        W99950  13.125   7.819  10.155
38288W        W99951  19.618  39.400   2.758
38289W        W99952  36.962  15.115   2.668
38290W        W99953  44.001   0.376   3.664
38291W        W99954   4.403  29.462   3.299
38292W        W99955  43.817   1.383   2.218
38293W        W99956  34.056  37.454  14.332
38294W        W99957   3.220  24.495   0.387
38295W        W99958  16.577   8.222   3.841
38296W        W99959   0.754  17.069  12.095
38297W        W99960  35.060  20.129  13.324
38298W        W99961  36.949  23.671  14.918
38299W        W99962   3.799  43.014   3.347
38300W        W99963   1.360  33.626  10.471
38301W        W99964  39.019  43.947  12.884
38302W        W99965  35.032  17.231  11.053
38303W        W99966  21.137  21.543   4.297
38304W        W99967  37.531  39.503  12.848
38305W        W99968  31.993  32.428   0.482
38306W        W99969  43.939   8.341   3.381
38307W        W99970  27.974  28.108  14.361
38308W        W99971  23.020  22.745   0.431
38309W        W99972  29.023  28.448   0.810
38310W        W99973  38.899  32.112  11.101
38311W        W99974  30.052   3.929   4.138
38312W        W99975  35.891   9.295  12.949
38313W        W99976  33.012   8.362   3.725
38314W        W99977  13.795  17.757   1.302
38315W        W99978  35.087  31.444  10.428
38316W        W99979  14.597   4.450  10.944
38317W        W99980  13.184  23.715   4.118
38318W        W99981  28.458  44.962  12.431
38319W        W99982  32.411  39.933  12.500
38320W        W99983  16.140   3.316   4.288
38321W        W99984  29.453  13.651  14.412
38322W        W99985  23.171  30.601  11.531
38323W        W99986  39.044  20.626   4.746
38324W        W99987  13.241   2.414  13.051
38325W        W99988  26.573  10.861  12.856
38326W        W99989  42.341  19.066  13.328
38327W        W99990  11.697  29.467   0.266
38328W        W99991  16.697   3.404   0.307
38329W        W99992  16.288  43.794  11.088
38330W        W99993  26.179   1.241   4.637
38331W        W99994  43.866  33.569  12.985
38332W        W99995  37.523  21.174  13.352
38333W        W99996  10.696  10.762   1.895
38334W        W99997  40.425   9.276   1.304
38335W        W99998   0.759  37.845   3.753
38336W        W99999  30.437  39.518  10.462
38337W        W    0  36.921  40.341   2.236
38338W        W    1  20.134  40.488  12.901
38339W        W    2   9.349  19.749  10.931
38340W        W    3  22.563  32.928   1.704
38341W        W    4  43.402  20.189   1.353
38342W        W    5  29.947  26.957   0.829
38343W        W    6  31.516  41.015   0.961
38344W        W    7   6.239  14.179  11.872
38345W        W    8  30.580  34.887   1.755
38346W        W    9   9.274  32.430  10.426
38347W        W   10  11.824  12.224   1.290
38348W        W   11  27.599  36.346   2.875
38349W        W   12  18.694  22.024   3.252
38350W        W   13  34.466  39.480   4.656
38351W        W   14  26.187  23.999  13.360
38352W        W   15  38.017  38.558  11.523
38353W        W   16  40.525   5.433   0.336
38354W        W   17  43.282  26.970   2.692
38355W        W   18  11.834   2.877   0.735
38356W        W   19  37.358   7.416   1.893
38357W        W   20  40.438   8.179   2.390
38358W        W   21  26.992  14.277   0.311
38359W        W   22  13.227  17.308   1.744
38360W        W   23  25.178   7.678   4.246
38361W        W   24  44.407  41.044  12.830
38362W        W   25  28.981  19.069  14.851
38363W        W   26  25.020  14.756  11.561
38364W        W   27  22.532  19.044   3.828
38365W        W   28  19.559  32.991  13.882
38366W        W   29   7.175  37.935  14.825
38367W        W   30   1.760   5.815   4.303
38368W        W   31  41.868  41.418   4.254
38369W        W   32   8.342  24.098  14.419
38370W        W   33  27.538   2.754   0.961
38371W        W   34  16.601  25.037   0.259
38372W        W   35  13.757  43.908  12.087
38373W        W   36  41.465  28.456   4.620
38374W        W   37  22.100  44.814   2.762
38375W        W   38  21.226  39.835  11.441
38376W        W   39  36.033  42.866   2.334
38377W        W   40  14.196  32.395   4.288
38378W        W   41  17.603   7.818   2.796
38379W        W   42   7.334  29.957  10.468
38380W        W   43  43.895  14.779  14.380
38381W        W   44  17.296  10.765  12.016
38382W        W   45   5.771   8.285  11.513
38383W        W   46   2.813  13.189  11.412
38384W        W   47  17.704  18.765   1.397
38385W        W   48   5.250  40.463  14.491
38386W        W   49  32.956  22.706   2.769
38387W        W   50  26.137   5.778  14.299
38388W        W   51  14.651   8.185  14.851
38389W        W   52  26.699  39.488   9.962
38390W        W   53  26.057   2.274  10.482
38391W        W   54  12.659  27.975  12.573
38392W        W   55  10.869  22.647   3.776
38393W        W   56  29.981  19.549   2.718
38394W        W   57  17.658  44.304   2.340
38395W        W   58  16.107  39.362  11.112
38396W        W   59  32.992  33.509  12.059
38397W        W   60  12.278  13.168   0.745
38398W        W   61   3.886  40.455   3.234
38399W        W   62   3.259   2.254   5.195
38400W        W   63  14.664  21.217  12.549
38401W        W   64  43.501  44.932   0.469
38402W        W   65   0.427  29.106   4.783
38403W        W   66  39.472  16.785   4.310
38404W        W   67  10.707  28.608   4.674
38405W        W   68  44.755  36.433  14.481
38406W        W   69  19.231  25.110  12.358
38407W        W   70  38.458   1.951  13.426
38408W        W   71  39.446   8.841   3.191
38409W        W   72   5.231  36.428  13.376
38410W        W   73  24.637  21.122  13.797
38411W        W   74   5.843  37.055  13.440
38412W        W   75  29.106  11.287  11.419
38413W        W   76  24.075   9.647  12.843
38414W        W   77  17.076   4.891   3.675
38415W        W   78  32.625  39.949   0.865
38416W        W   79  22.535   7.264  10.957
38417W        W   80  40.964  20.663  14.818
38418W        W   81  34.979  19.189  14.503
38419W        W   82  37.067  10.722   3.703
38420W        W   83  33.584  31.506   3.257
38421W        W   84  36.380   0.879   0.299
38422W        W   85   3.921   6.776  13.932
38423W        W   86  19.665  15.762   0.264
38424W        W   87  42.883  43.898   1.811
38425W        W   88  44.770  43.360  14.934
38426W        W   89  15.160   2.748  13.429
38427W        W   90   5.714  34.019   4.269
38428W        W   91  28.676  43.858   3.215
38429W        W   92  26.117   4.264   1.340
38430W        W   93  37.906   2.820   0.943
38431W        W   94  12.346  23.624  11.571
38432W        W   95   2.353  39.973   3.656
38433W        W   96   1.364   3.348  10.447
38434W        W   97   8.354  16.291  13.858
38435W        W   98  24.222   9.244  13.891
38436W        W   99  32.052  21.626  14.505
38437W        W  100  44.399   5.408  12.983
38438W        W  101  33.000  33.009  13.017
38439W        W  102  26.993  41.321   1.705
38440W        W  103   3.385  29.644   4.804
38441W        W  104  30.509   4.280  14.489
38442W        W  105  21.628   7.413   2.399
38443W        W  106  34.484  30.588   2.810
38444W        W  107  22.682  29.471   1.903
38445W        W  108  21.060  42.018   4.774
38446W        W  109  10.367  35.880  12.992
38447W        W  110  42.814  35.871   2.815
38448W        W  111   4.853  24.039   1.225
38449W        W  112  16.220  40.533   3.229
38450W        W  113  38.999  17.078   2.694
38451W        W  114   2.292  31.973  12.064
38452W        W  115  32.085   4.360   1.322
38453W        W  116  41.895  13.257   4.276
38454W        W  117  22.648  31.150   1.716
38455W        W  118  16.625  43.269  13.366
38456W        W  119  29.637   0.258  12.569
38457W        W  120  16.125  41.333  12.838
38458W        W  121  33.020  16.179   3.183
38459W        W  122  37.964  42.799  10.601
38460W        W  123  19.552  28.598  10.600
38461W        W  124   6.367   6.900  13.441
38462W        W  125  26.094   6.767  14.907
38463W        W  126  43.857  23.021   0.858
38464W        W  127  18.279   6.334   2.821
38465W        W  128  17.656  22.094   2.876
38466W        W  129  12.765  27.041  13.431
38467W        W  130   0.451  39.055  14.470
38468W        W  131  29.603  14.230  13.434
38469W        W  132  10.807  28.449  14.286
38470W        W  133   1.240  23.182  10.928
38471W        W  134  22.137  32.012  13.939
38472W        W  135   5.768  30.068   4.176
38473W        W  136  26.606  32.475   2.263
38474W        W  137   4.432   4.230   3.241
38475W        W  138  21.199  12.356   3.729
38476W        W  139  30.095  27.953  13.039
38477W        W  140   8.263  16.675   4.276
38478W        W  141  23.157  32.988   3.737
38479W        W  142   5.721  15.161  11.489
38480W        W  143   4.437   8.401   1.243
38481W        W  144  10.190  20.189   3.173
38482W        W  145  25.069  36.399   3.659
38483W        W  146  26.647  34.893  11.589
38484W        W  147  21.710  23.626  13.451
38485W        W  148  43.969  26.474  11.378
38486W        W  149  40.901  35.441  10.600
38487W        W  150  31.120   4.302  14.275
38488W        W  151  15.811   7.828   3.734
38489W        W  152   4.388  26.206   3.363
38490W        W  153  16.676  33.012   2.797
38491W        W  154  23.651  33.039  11.409
38492W        W  155   6.818  17.669   3.770
38493W        W  156  40.894  37.352   3.788
38494W        W  157   4.436  34.060   4.686
38495W        W  158  13.178  14.269   4.654
38496W        W  159  29.565  35.911   4.787
38497W        W  160  29.632  34.069  13.471
38498W        W  161  15.683  19.656  12.360
38499W        W  162  36.070  38.337  12.887
38500W        W  163  16.280  30.007   0.473
38501W        W  164   3.461  30.487   4.230
38502W        W  165  15.620  43.785   0.944
38503W        W  166  29.652  40.439   3.748
38504W        W  167   7.697  20.039  10.575
38505W        W  168   2.425  37.558   0.962
38506W        W  169  36.098  23.018  10.511
38507W        W  170  17.231  11.354  12.967
38508W        W  171  25.072   9.310   2.335
38509W        W  172  37.973  34.996  11.468
38510W        W  173  32.596  31.588  14.929
38511W        W  174  40.445  14.165  12.977
38512W        W  175  35.569  24.643   1.339
38513W        W  176  25.986  11.696   1.360
38514W        W  177  27.134  13.126  10.550
38515W        W  178  26.106  40.978   4.290
38516W        W  179  20.074  38.961   2.773
38517W        W  180  18.629  43.969   3.680
38518W        W  181  37.337  19.630   1.398
38519W        W  182  29.656  24.101  11.922
38520W        W  183  28.666  27.637  14.351
38521W        W  184  22.571   3.877  10.627
38522W        W  185   1.957   2.285   4.838
38523W        W  186  27.520  10.246   3.327
38524W        W  187  35.891  31.900  13.460
38525W        W  188  32.452  38.956   1.929
38526W        W  189  15.781  35.985  13.885
38527W        W  190  28.676  13.240  12.398
38528W        W  191  31.151   7.295   0.793
38529W        W  192  35.095  38.825  13.825
38530W        W  193  10.848  37.408   4.665
38531W        W  194  36.043  10.222  12.931
38532W        W  195   3.347  17.198   1.921
38533W        W  196  38.419  18.162   0.319
38534W        W  197  13.676  15.219   4.253
38535W        W  198  18.679   8.167  11.372
38536W        W  199   3.343  32.061  10.524
38537W        W  200  11.226   4.732  14.846
38538W        W  201  13.656  42.385  12.567
38539W        W  202   3.860  43.376   0.362
38540W        W  203  35.063   4.772   4.746
38541W        W  204  39.359  27.186  11.515
38542W        W  205  21.566  42.992   3.640
38543W        W  206  22.075  13.138   2.698
38544W        W  207  36.426  44.353  14.910
38545W        W  208  14.603  35.945  13.478
38546W        W  209  27.961  24.155   1.370
38547W        W  210  31.624  13.615  11.045
38548W        W  211  43.992  28.133   4.283
38549W        W  212  35.367  40.336  13.895
38550W        W  213  43.341   9.860   4.119
38551W        W  214  13.290  11.705  12.885
38552W        W  215   2.441  22.657  13.804
38553W        W  216  13.205  25.152  12.998
38554W        W  217   5.831   7.898  13.461
38555W        W  218   7.723  13.339   4.331
38556W        W  219  18.699  30.535   9.960
38557W        W  220  23.540   6.186  14.306
38558W        W  221  39.517  21.245   1.904
38559W        W  222  39.823  31.024   1.403
38560W        W  223  43.329   9.227  13.034
38561W        W  224  13.241  27.528   3.680
38562W        W  225  31.026  15.766  12.011
38563W        W  226  20.237   6.401  14.446
38564W        W  227  19.210  32.095  11.057
38565W        W  228  29.038   0.464   4.153
38566W        W  229   9.703  38.448   2.823
38567W        W  230   2.861   3.846   0.737
38568W        W  231  21.030  27.635  13.400
38569W        W  232   8.761  40.040   0.300
38570W        W  233  20.042  20.053   0.341
38571W        W  234  34.401  21.024   3.836
38572W        W  235   3.384  10.765  10.427
38573W        W  236   0.411  40.384   0.379
38574W        W  237   8.679   0.972   1.242
38575W        W  238   5.705  35.899   4.243
38576W        W  239   2.835  41.962  11.549
38577W        W  240   3.752  26.178   0.440
38578W        W  241  34.494  35.901  14.905
38579W        W  242  24.132  23.192   1.225
38580W        W  243  36.426   9.289  13.013
38581W        W  244  39.877   2.314   2.787
38582W        W  245  24.484  23.710  10.594
38583W        W  246  44.965  37.079  11.858
38584W        W  247  31.565  20.185  13.869
38585W        W  248  31.968   3.778  10.908
38586W        W  249  28.660   0.427   3.307
38587W        W  250  23.713  36.006   4.245
38588W        W  251   6.697   4.759   4.647
38589W        W  252  28.677  40.001   2.262
38590W        W  253  42.949  20.596   4.237
38591W        W  254  20.742   6.905  11.019
38592W        W  255   9.366  32.408  12.870
38593W        W  256  28.537   0.456  14.973
38594W        W  257  15.084  27.135   3.699
38595W        W  258  38.430   1.911   1.333
38596W        W  259   1.279   9.226  11.034
38597W        W  260  28.477  29.634   4.829
38598W        W  261  10.204  11.863  13.861
38599W        W  262  28.979   8.398   4.776
38600W        W  263  38.489  37.863  11.427
38601W        W  264  25.587   2.301  14.952
38602W        W  265  44.756   1.755  13.999
38603W        W  266   1.252  44.826  14.867
38604W        W  267  14.783  32.916  12.436
38605W        W  268   1.911  21.231   1.267
38606W        W  269  23.651  44.945   1.423
38607W        W  270  11.241  26.651   1.815
38608W        W  271   6.842   6.755   0.762
38609W        W  272  25.983  10.167  13.306
38610W        W  273  15.627  35.395   3.807
38611W        W  274   5.329  37.866   3.355
38612W        W  275  29.957   8.790   2.395
38613W        W  276   4.822  11.297   1.851
38614W        W  277  13.691   9.199   2.307
38615W        W  278  35.949   0.248  14.471
38616W        W  279  33.418  33.422   0.961
38617W        W  280  37.534  14.118   3.235
38618W        W  281  43.892  38.075  12.958
38619W        W  282  15.810  32.892  13.917
38620W        W  283  27.953   2.287  12.894
38621W        W  284  14.153  18.713   0.915
38622W        W  285  39.908  29.634   0.478
38623W        W  286  23.127  44.379  12.981
38624W        W  287  29.448  21.731  12.536
38625W        W  288  22.584  14.188   1.726
38626W        W  289  10.740  31.954   3.716
38627W        W  290  37.882  11.142  11.956
38628W        W  291  23.027  20.622  12.025
38629W        W  292  36.507  39.974  13.858
38630W        W  293   3.863  12.683   4.703
38631W        W  294  41.443  33.104   1.412
38632W        W  295  32.564  25.045  13.808
38633W        W  296  21.129  39.460  14.395
38634W        W  297  18.627  42.392  12.984
38635W        W  298  44.437  20.038  11.460
38636W        W  299  35.056  23.627  12.936
38637W        W  300  20.763  35.091  13.881
38638W        W  301  22.171  44.947  12.533
38639W        W  302  29.064  30.600   1.413
38640W        W  303  43.844   7.198   1.864
38641W        W  304  22.629  28.010   2.395
38642W        W  305  36.844  30.091  11.603
38643W        W  306  18.745  18.286  13.991
38644W        W  307  41.799   6.417   0.267
38645W        W  308  39.846  15.232   4.729
38646W        W  309  42.380  11.753   1.784
38647W        W  310  34.527  26.696   4.330
38648W        W  311  41.363  28.169  11.026
38649W        W  312  17.168  15.789   1.883
38650W        W  313  41.944  41.902  12.412
38651W        W  314   2.280  30.943  13.047
38652W        W  315  14.613  41.414  13.448
38653W        W  316  15.633  30.988  14.324
38654W        W  317  34.871  20.259   2.266
38655W        W  318  12.807  39.999   2.699
38656W        W  319   4.766  13.785   0.247
38657W        W  320  17.706  44.426  13.808
38658W        W  321   7.171  32.946  11.082
38659W        W  322  17.674  25.030  11.517
38660W        W  323  33.438  44.808   0.267
38661W        W  324  44.301  30.600   4.787
38662W        W  325  17.632  42.336   2.197
38663W        W  326  42.415   1.303   1.259
38664W        W  327  30.081  27.480  12.552
38665W        W  328   7.688  41.010   4.660
38666W        W  329  41.950  26.667  11.968
38667W        W  330  40.959   3.280  11.875
38668W        W  331  26.608  32.090  11.414
38669W        W  332  36.028  13.346  14.915
38670W        W  333  10.257  30.082  12.984
38671W        W  334  38.414  42.917  10.936
38672W        W  335  11.279  36.581   3.631
38673W        W  336  18.723  20.161  12.501
38674W        W  337  35.592   3.939  12.344
38675W        W  338   9.280  36.082   5.153
38676W        W  339  26.957   5.393   3.185
38677W        W  340  18.547  41.979  13.335
38678W        W  341  19.643  24.218   1.702
38679W        W  342  36.419  15.695  13.990
38680W        W  343  32.509  13.161  14.312
38681W        W  344  22.551   5.369   2.367
38682W        W  345  18.660  13.309  14.983
38683W        W  346  25.121  43.339  11.374
38684W        W  347   9.321  21.535  14.460
38685W        W  348  24.509   6.914   1.387
38686W        W  349  35.574  13.234   3.760
38687W        W  350  37.980  40.927  10.988
38688W        W  351  33.002  23.634  13.319
38689W        W  352  22.246  32.906   4.191
38690W        W  353  22.605  42.860   3.695
38691W        W  354  37.347   0.373  12.435
38692W        W  355  43.880  33.954  13.332
38693W        W  356  39.818  35.099   4.209
38694W        W  357  15.185   3.929   3.797
38695W        W  358   0.470   6.236   4.351
38696W        W  359  43.272   0.409  11.419
38697W        W  360   1.915  35.512   1.347
38698W        W  361  23.679  36.367  12.874
38699W        W  362   6.701   8.337  13.875
38700W        W  363  12.815  14.667  13.041
38701W        W  364  32.993  33.447   3.356
38702W        W  365   9.708  44.945  11.918
38703W        W  366  31.968  23.987   4.636
38704W        W  367  22.624  44.401   5.199
38705W        W  368  10.746  26.134  14.805
38706W        W  369  10.765  28.184  13.320
38707W        W  370  13.782  33.097   2.357
38708W        W  371  42.965   0.481   2.187
38709W        W  372  24.673   6.815  14.450
38710W        W  373  32.486   7.824  13.941
38711W        W  374  34.497  29.976  12.869
38712W        W  375  30.517  35.994   4.325
38713W        W  376  16.127  14.172  10.468
38714W        W  377  12.131  14.212  14.416
38715W        W  378  41.848  44.855  14.348
38716W        W  379  20.559  24.031  13.980
38717W        W  380  41.904  18.653  12.445
38718W        W  381  16.808   3.851  11.863
38719W        W  382  22.194  40.044  11.439
38720W        W  383  30.615  29.462   4.257
38721W        W  384   0.806  43.317  14.464
38722W        W  385  10.779  29.125  11.941
38723W        W  386   9.650  40.404  12.347
38724W        W  387  20.063  43.008   4.765
38725W        W  388  27.131  37.360   4.337
38726W        W  389  25.564  28.941   5.645
38727W        W  390  19.607  32.514   4.145
38728W        W  391  26.493  13.798   5.106
38729W        W  392   1.315  41.511  13.895
38730W        W  393  24.157  39.842  14.885
38731W        W  394   7.312  18.280   0.319
38732W        W  395  18.774  35.543  13.464
38733W        W  396  34.377  19.171  12.409
38734W        W  397  33.512  14.145  11.083
38735W        W  398   3.838  34.060  12.486
38736W        W  399  19.282  27.083  11.409
38737W        W  400   2.938  26.061  14.946
38738W        W  401  12.153   8.353  12.012
38739W        W  402  10.725  37.073  11.551
38740W        W  403  42.340  34.385   1.428
38741W        W  404  27.614  16.717  10.963
38742W        W  405   6.388   5.205   2.692
38743W        W  406  19.605  10.319  12.038
38744W        W  407  17.625   6.401   3.647
38745W        W  408   9.820  41.895  13.369
38746W        W  409  17.175  20.074   0.886
38747W        W  410   0.382  13.284   0.825
38748W        W  411  16.223  41.996  11.075
38749W        W  412   1.410  16.658  13.837
38750W        W  413  13.650  33.999  13.002
38751W        W  414   0.360  42.816  12.555
38752W        W  415  11.160  38.528  14.819
38753W        W  416  25.090  32.608  10.562
38754W        W  417  12.121  24.132   3.784
38755W        W  418   4.849  41.323   1.413
38756W        W  419  20.232  10.354   1.865
38757W        W  420  25.691  28.630  12.347
38758W        W  421   1.885  19.204   1.758
38759W        W  422  40.361  37.881   1.210
38760W        W  423  27.145  43.996  10.061
38761W        W  424  20.141   8.198  10.484
38762W        W  425  35.446  32.564  13.423
38763W        W  426   5.913   8.356   0.926
38764W        W  427  23.564  12.165  11.455
38765W        W  428   6.784   8.380  11.577
38766W        W  429  33.058  36.564  12.547
38767W        W  430  14.268   7.378  11.521
38768W        W  431  32.501   2.471  13.854
38769W        W  432  19.155  44.990  10.418
38770W        W  433  24.628  30.958   2.863
38771W        W  434  39.342  42.840   1.697
38772W        W  435  24.039   1.964  14.278
38773W        W  436   0.786  18.784   2.254
38774W        W  437   2.313   1.343   0.848
38775W        W  438  25.030  10.791  14.961
38776W        W  439  10.259   4.914   0.948
38777W        W  440  25.507  22.596  10.515
38778W        W  441   6.894  38.436   2.735
38779W        W  442  11.832   1.290  11.424
38780W        W  443   8.166   8.386   0.285
38781W        W  444  21.639  17.678  13.043
38782W        W  445  21.755  25.112   2.850
38783W        W  446   0.847  21.062  13.356
38784W        W  447  21.219  44.820   0.318
38785W        W  448  37.571  18.759   0.385
38786W        W  449  35.585  37.489  12.505
38787W        W  450  44.309  13.135   4.801
38788W        W  451  15.259   5.379  13.545
38789W        W  452  40.420   6.688  10.569
38790W        W  453   4.260  20.135   1.417
38791W        W  454   5.741  36.866   1.379
38792W        W  455   9.364   4.768   0.369
38793W        W  456   2.414  10.670  13.466
38794W        W  457  11.233   6.902   5.690
38795W        W  458  31.063   6.784  13.336
38796W        W  459  18.161  41.019   3.767
38797W        W  460   4.415  25.660   2.412
38798W        W  461  10.852  14.294   2.852
38799W        W  462  22.075  27.976   2.349
38800W        W  463  32.430  11.824  12.363
38801W        W  464  30.553   4.844   1.300
38802W        W  465  19.045  39.895  13.840
38803W        W  466   3.717  13.313   2.353
38804W        W  467  17.149  25.014   5.176
38805W        W  468  12.755  24.979  11.914
38806W        W  469  31.635  34.537  13.934
38807W        W  470  19.047  28.991  10.428
38808W        W  471  13.691  23.148  12.458
38809W        W  472  14.204   2.744   0.348
38810W        W  473  17.749  34.120   4.308
38811W        W  474  26.086  28.036  12.930
38812W        W  475  28.513  41.480   2.275
38813W        W  476  23.563  24.557  12.045
38814W        W  477  36.900   8.404   2.710
38815W        W  478   0.268  23.654  13.503
38816W        W  479   6.324  36.896   1.244
38817W        W  480   0.294  37.026  14.297
38818W        W  481  42.479  40.905   1.365
38819W        W  482  14.337  21.617   2.677
38820W        W  483   9.243  31.963   1.716
38821W        W  484   0.475  23.039  10.487
38822W        W  485  32.116   0.780   4.333
38823W        W  486  22.113  40.814  14.025
38824W        W  487  16.072  31.460  10.976
38825W        W  488  32.063  39.465  11.524
38826W        W  489  44.334  40.882  14.347
38827W        W  490  32.431  16.118   0.936
38828W        W  491  29.612  43.812   2.395
38829W        W  492  27.601  20.119   2.755
38830W        W  493  35.522  16.209   0.826
38831W        W  494  32.112  41.031  12.843
38832W        W  495  27.568   0.297  11.410
38833W        W  496  29.647  11.235   1.857
38834W        W  497   0.276  37.055  11.573
38835W        W  498  26.174  40.956  14.362
38836W        W  499  11.703  33.460   4.714
38837W        W  500  38.829   2.938  12.975
38838W        W  501  38.900  25.972  13.829
38839W        W  502   1.799  28.592  13.839
38840W        W  503  10.160  18.070  14.402
38841W        W  504  30.959  38.520  14.798
38842W        W  505   2.728  32.625  11.856
38843W        W  506   6.678  10.706  12.398
38844W        W  507  13.629  31.063   4.802
38845W        W  508   6.744  11.342   3.211
38846W        W  509  18.128  12.297   2.296
38847W        W  510  21.155  33.084   1.315
38848W        W  511  38.877  15.104  14.829
38849W        W  512  38.998  41.991  11.413
38850W        W  513  30.497  34.030   3.319
38851W        W  514   6.210  23.195  10.418
38852W        W  515   1.870  27.126   2.683
38853W        W  516  26.030  24.549  10.893
38854W        W  517  43.900  15.096   2.764
38855W        W  518  28.930   0.474   3.730
38856W        W  519  21.180  40.517  12.852
38857W        W  520  41.919  43.347   2.406
38858W        W  521  25.058  22.083  14.859
38859W        W  522  43.335  23.138  14.889
38860W        W  523  25.990  42.798   9.937
38861W        W  524  38.998  39.016   0.340
38862W        W  525   4.771  23.088   0.733
38863W        W  526  33.908  13.754   0.790
38864W        W  527   2.416  14.105  10.569
38865W        W  528   9.727  39.856   1.241
38866W        W  529  12.769  24.228  11.030
38867W        W  530  33.894  16.261   0.372
38868W        W  531  38.568  23.047  14.911
38869W        W  532   4.924  42.903  10.973
38870W        W  533   3.276  23.127  12.404
38871W        W  534   9.305  37.894   2.301
38872W        W  535   2.379  39.398   3.355
38873W        W  536  42.874  43.785  14.910
38874W        W  537  31.411  15.672   4.270
38875W        W  538  22.712  32.400   0.852
38876W        W  539  35.515  10.224   1.830
38877W        W  540  26.120   5.704   2.209
38878W        W  541  20.264  41.830  13.792
38879W        W  542  43.442  32.486   4.674
38880W        W  543  12.784   4.896   4.243
38881W        W  544   4.773  11.734   2.772
38882W        W  545  34.528  12.810   1.786
38883W        W  546  15.328  16.078   0.899
38884W        W  547  24.554  10.682   0.774
38885W        W  548  33.114   2.344   0.864
38886W        W  549   9.680  24.097  11.936
38887W        W  550   1.319  13.838  13.055
38888W        W  551  22.157  20.045   4.788
38889W        W  552  13.750  37.841  14.499
38890W        W  553  32.583  35.408   3.372
38891W        W  554  36.564  21.030   3.154
38892W        W  555  11.672   4.798  11.562
38893W        W  556  36.510   5.797  10.046
38894W        W  557  43.878  20.031  11.951
38895W        W  558  33.426  40.325  10.972
38896W        W  559  27.054  39.454  11.936
38897W        W  560  36.355  39.000  13.899
38898W        W  561  35.513  26.989  12.000
38899W        W  562  29.525   2.458  12.049
38900W        W  563  35.854  40.385  12.457
38901W        W  564  41.044  44.950  11.424
38902W        W  565   1.791   7.887   1.366
38903W        W  566   1.335   2.848   1.314
38904W        W  567  34.457  37.481  14.978
38905W        W  568  36.432   8.184   3.325
38906W        W  569  33.874   2.449  12.981
38907W        W  570  11.805  32.487   0.324
38908W        W  571  26.530   2.329  11.095
38909W        W  572  12.265  42.853   0.452
38910W        W  573   0.287  29.937   0.826
38911W        W  574  14.134  35.037  14.961
38912W        W  575   0.947  20.685  10.630
38913W        W  576  23.189  29.506  12.522
38914W        W  577  35.479  35.521  13.028
38915W        W  578  26.499   8.386   3.355
38916W        W  579  26.084  44.324  14.938
38917W        W  580  24.551  34.470  14.350
38918W        W  581  19.222   5.823   2.684
38919W        W  582   5.226   3.916   4.660
38920W        W  583  27.941  28.659   4.751
38921W        W  584  18.050  11.189  11.014
38922W        W  585   9.186  27.660  12.012
38923W        W  586  25.214  20.535   2.887
38924W        W  587  33.962  35.974  12.082
38925W        W  588  30.040  14.277   2.800
38926W        W  589  32.435  40.303  14.336
38927W        W  590  27.688  36.479  10.431
38928W        W  591  26.201  37.901  10.107
38929W        W  592   4.310  22.202  14.350
38930W        W  593  32.958  20.101   2.318
38931W        W  594   5.399   7.829  11.862
38932W        W  595   5.857   4.339  11.508
38933W        W  596  41.500  43.905   1.846
38934W        W  597  15.127  35.042  10.539
38935W        W  598  28.573  11.176  13.976
38936W        W  599   2.828  29.986  10.525
38937W        W  600  37.419  33.963  11.049
38938W        W  601  13.732   4.267  11.394
38939W        W  602  14.123  39.366   0.776
38940W        W  603   4.884  25.182   0.910
38941W        W  604   5.796  19.585   3.660
38942W        W  605  30.533  40.460   4.316
38943W        W  606  34.098  27.457  13.435
38944W        W  607  44.499  33.398  13.907
38945W        W  608  27.153  23.227  13.020
38946W        W  609  43.795   5.348   5.146
38947W        W  610  41.513  20.632   4.775
38948W        W  611  25.616  21.113   4.122
38949W        W  612  23.096  21.698  13.967
38950W        W  613  11.229  20.752   3.387
38951W        W  614  25.072  43.008   0.864
38952W        W  615   6.348  32.136  14.388
38953W        W  616  18.604  24.065   2.193
38954W        W  617  42.422  27.188   1.280
38955W        W  618  17.630  44.955   0.731
38956W        W  619  42.488   7.246   1.864
38957W        W  620   6.340  13.183   2.694
38958W        W  621  16.097  22.076  14.354
38959W        W  622  17.293   3.302  12.539
38960W        W  623  16.212  19.146  13.009
38961W        W  624  22.735  33.394  13.512
38962W        W  625  43.807  27.990  11.502
38963W        W  626  36.975  21.515  12.455
38964W        W  627  34.878   9.165   3.250
38965W        W  628  13.108  22.528  13.542
38966W        W  629  19.206  12.839  13.449
38967W        W  630  24.145  37.031  11.930
38968W        W  631  38.919  22.610   5.211
38969W        W  632  26.613   7.848  14.963
38970W        W  633   8.782  19.685  12.510
38971W        W  634  32.472  24.653  13.363
38972W        W  635  31.034  16.611   3.714
38973W        W  636  43.771  32.615  14.441
38974W        W  637  39.948   2.934  10.499
38975W        W  638   6.384  22.500  11.066
38976W        W  639  34.905  22.153  12.006
38977W        W  640   0.889  10.284   1.435
38978W        W  641  20.103  35.908  12.411
38979W        W  642  36.033  39.962  11.371
38980W        W  643  38.992   2.354  10.412
38981W        W  644   6.746  23.701  14.442
38982W        W  645  13.620  37.015   3.343
38983W        W  646  34.544  14.636   3.857
38984W        W  647  29.573   9.330  14.328
38985W        W  648  21.147  26.032   3.386
38986W        W  649   6.745  17.686   4.153
38987W        W  650  12.334  39.008  11.531
38988W        W  651  21.698  41.292  10.498
38989W        W  652  28.463  36.963   1.826
38990W        W  653  44.761  14.205  10.019
38991W        W  654  11.642  43.494  12.455
38992W        W  655   6.334  26.049  11.571
38993W        W  656  42.802  19.591  11.120
38994W        W  657  37.853   5.760   0.468
38995W        W  658   8.721  21.626  11.952
38996W        W  659  37.433  14.173   9.931
38997W        W  660  25.714   5.406   0.256
38998W        W  661  42.507  19.153   3.733
38999W        W  662  44.879  35.508  13.391
39000W        W  663  16.663   9.643   3.814
39001W        W  664   3.437  35.862  11.454
39002W        W  665  17.602   2.779   3.307
39003W        W  666  41.963   3.881   0.845
39004W        W  667  11.311  35.904   4.203
39005W        W  668  31.151  18.236  13.044
39006W        W  669  26.977  11.723  12.472
39007W        W  670   8.754  27.010  14.465
39008W        W  671   1.324   3.282   4.735
39009W        W  672  18.235  39.942   1.267
39010W        W  673   6.410   3.793   4.619
39011W        W  674  24.079  10.238   4.135
39012W        W  675  22.544  39.495  12.967
39013W        W  676  32.475  11.777  10.499
39014W        W  677  36.503  12.253   1.435
39015W        W  678  17.644  14.743   3.814
39016W        W  679  28.076  23.621  12.487
39017W        W  680  25.978  44.271   1.739
39018W        W  681  37.343   8.376  13.795
39019W        W  682  26.642  32.929  12.354
39020W        W  683  14.225  39.826  12.891
39021W        W  684  25.120  26.106  14.893
39022W        W  685  10.168  38.075   2.686
39023W        W  686  28.645   1.448   0.919
39024W        W  687  19.117  26.044  11.127
39025W        W  688  35.489  18.160   5.304
39026W        W  689  22.503   4.716   4.648
39027W        W  690  29.019  41.382  10.058
39028W        W  691  17.195  36.920   0.259
39029W        W  692  39.492  21.156  10.949
39030W        W  693  14.703  34.446  11.043
39031W        W  694   2.910  38.075   2.224
39032W        W  695  19.673   3.390  13.037
39033W        W  696  32.614   9.391  12.062
39034W        W  697  13.133  22.170   1.225
39035W        W  698  23.491   1.364  10.634
39036W        W  699  42.810  37.912  14.290
39037W        W  700   7.810  32.895  12.467
39038W        W  701  36.891  17.250   3.789
39039W        W  702  20.609  18.240   1.712
39040W        W  703  43.914  23.616  13.043
39041W        W  704  22.576  35.015   2.389
39042W        W  705  18.144  44.445   3.803
39043W        W  706  32.625  37.407   2.397
39044W        W  707  25.671  22.239  12.981
39045W        W  708  33.077  28.644  14.377
39046W        W  709  35.436  25.563   4.333
39047W        W  710  41.405   2.794  13.400
39048W        W  711   9.663   8.870  11.948
39049W        W  712  32.020   6.305   2.687
39050W        W  713  23.492  26.027   1.756
39051W        W  714  28.663  24.176  13.983
39052W        W  715  35.971  42.883  11.975
39053W        W  716  20.752  35.939  14.283
39054W        W  717  26.069  15.208  13.856
39055W        W  718   2.852  27.676   1.871
39056W        W  719   5.292   5.728  11.876
39057W        W  720   8.237  27.642   3.667
39058W        W  721  33.424  14.121   0.861
39059W        W  722   7.886  30.524   0.777
39060W        W  723   3.748   6.717   0.460
39061W        W  724  36.910  32.010   0.441
39062W        W  725  15.222  37.854   2.310
39063W        W  726  10.197  20.556  13.491
39064W        W  727  43.957  12.168   2.829
39065W        W  728  24.111   6.812  14.337
39066W        W  729  29.536  29.931  12.411
39067W        W  730  35.051  34.923  11.412
39068W        W  731  34.015  36.058   4.724
39069W        W  732  17.070   9.737  12.850
39070W        W  733  43.879   0.370   3.354
39071W        W  734  37.362  21.230   0.453
39072W        W  735  23.162  19.547  14.975
39073W        W  736  11.257  15.089  14.991
39074W        W  737  15.685  18.165   3.753
39075W        W  738  29.469  37.921   2.254
39076W        W  739   5.782  42.328  13.509
39077W        W  740  21.520  12.127   2.210
39078W        W  741   4.279  14.657   1.319
39079W        W  742  35.425  21.605   2.315
39080W        W  743  18.209   9.234   0.774
39081W        W  744   4.814  39.992  14.898
39082W        W  745  22.556  33.903  10.071
39083W        W  746  13.111  35.029   3.284
39084W        W  747  37.844  30.149   1.257
39085W        W  748  23.001   7.279   2.702
39086W        W  749   6.287  44.290   5.243
39087W        W  750  28.534  37.400  14.766
39088W        W  751   1.288   4.890   1.327
39089W        W  752  21.160  34.582   2.711
39090W        W  753  18.139   5.305  11.416
39091W        W  754   5.754  33.938   1.777
39092W        W  755   3.456  21.542  14.867
39093W        W  756  26.089  35.910   2.384
39094W        W  757  11.748  13.673   3.381
39095W        W  758   5.725  24.688   4.304
39096W        W  759  21.118  16.808   3.306
39097W        W  760  10.872  22.743  12.542
39098W        W  761  22.042  24.643  10.457
39099W        W  762  43.836   9.829   2.373
39100W        W  763   4.305   9.195  13.992
39101W        W  764  23.056   0.303  11.522
39102W        W  765   6.214  31.912  12.891
39103W        W  766  10.736  34.926  12.987
39104W        W  767  13.630  19.174  12.865
39105W        W  768  29.036   4.265  10.474
39106W        W  769  36.031  21.537  10.058
39107W        W  770   4.927   5.390   0.274
39108W        W  771   2.930   0.787   0.452
39109W        W  772  30.101  33.038   2.263
39110W        W  773  22.219  33.407  13.379
39111W        W  774  38.969   3.940  13.342
39112W        W  775  12.717   4.278  11.117
39113W        W  776  26.537   9.682   0.454
39114W        W  777  26.195  19.694  11.391
39115W        W  778   3.419  18.115   0.831
39116W        W  779  34.499  43.402  10.567
39117W        W  780   1.774  28.621   1.883
39118W        W  781  12.224  27.552   0.855
39119W        W  782  27.042  17.132   1.283
39120W        W  783  43.020  39.887   1.766
39121W        W  784  40.526  40.417  11.594
39122W        W  785   4.799  27.524   1.753
39123W        W  786   8.783  41.920   0.772
39124W        W  787  23.124  36.521  13.799
39125W        W  788   9.332   1.432  12.426
39126W        W  789  32.041  43.355  13.794
39127W        W  790  38.982   9.793  14.357
39128W        W  791  37.935   5.740  11.516
39129W        W  792   9.382  25.665  13.428
39130W        W  793  10.237  18.161   2.726
39131W        W  794  36.033   8.775   3.725
39132W        W  795  36.903  20.559  11.958
39133W        W  796  34.034  40.931   2.352
39134W        W  797  16.192  26.979   0.437
39135W        W  798  31.024  44.900  11.879
39136W        W  799   0.773  26.004  14.935
39137W        W  800   1.856   9.241  12.953
39138W        W  801  38.426  14.311   1.934
39139W        W  802   0.292  13.312  12.070
39140W        W  803   9.854  15.148   2.799
39141W        W  804  17.104  21.110  14.319
39142W        W  805  36.566   1.351   0.481
39143W        W  806   1.464  25.647  13.871
39144W        W  807   6.422   0.945  13.980
39145W        W  808   6.740  37.509   3.655
39146W        W  809   0.417  34.926   2.688
39147W        W  810  33.413  15.167   4.300
39148W        W  811   1.890  32.023   0.314
39149W        W  812  12.641   0.433   3.296
39150W        W  813  24.481  30.511   2.711
39151W        W  814  12.231  36.014  12.901
39152W        W  815  40.885  11.721   0.430
39153W        W  816  42.861  16.772  14.502
39154W        W  817  25.202   5.339   5.134
39155W        W  818  42.932  23.727  14.029
39156W        W  819  43.785  28.112  13.384
39157W        W  820  39.049  29.652  10.894
39158W        W  821  44.414  38.365  14.030
39159W        W  822  31.989  30.050   2.688
39160W        W  823  15.706   1.908  14.817
39161W        W  824  15.682  26.479  13.024
39162W        W  825  41.786  15.295  13.826
39163W        W  826  21.107  22.721  10.438
39164W        W  827  33.883  10.727   1.725
39165W        W  828  40.809  11.143   2.762
39166W        W  829  40.400  38.446  10.520
39167W        W  830  44.761  35.567  12.028
39168W        W  831  19.699  35.958   0.352
39169W        W  832   5.727  31.127  11.494
39170W        W  833  14.291  31.134  14.506
39171W        W  834   4.847  37.409   2.840
39172W        W  835  35.426  37.833   1.321
39173W        W  836  39.361   5.230  13.314
39174W        W  837  42.951  26.555   2.306
39175W        W  838  40.955   3.896   3.347
39176W        W  839  20.703  19.272   2.191
39177W        W  840  14.154  32.496  13.349
39178W        W  841  12.322  15.296  13.351
39179W        W  842  39.886  11.760   0.738
39180W        W  843  30.163  34.497  10.972
39181W        W  844  19.644  27.557  10.506
39182W        W  845  28.590  13.624   1.210
39183W        W  846  11.813  41.026  13.474
39184W        W  847  28.435  38.874   0.249
39185W        W  848  32.605  28.184   2.869
39186W        W  849  15.645  33.496  11.046
39187W        W  850   2.840  33.081   0.871
39188W        W  851   6.381  22.674   4.740
39189W        W  852  42.777  40.816  14.902
39190W        W  853   7.251  36.085  12.965
39191W        W  854  22.081  21.523  14.997
39192W        W  855   2.236  30.126   4.673
39193W        W  856  25.166  36.382  11.583
39194W        W  857  39.532  18.224   0.293
39195W        W  858  24.668  24.662  14.859
39196W        W  859   9.850  44.389   1.729
39197W        W  860  27.142  18.194  11.117
39198W        W  861  23.652  27.646   3.173
39199W        W  862  43.369  41.521   0.269
39200W        W  863   0.369  26.569  12.391
39201W        W  864  11.742  36.928  12.913
39202W        W  865  12.744  30.595   4.789
39203W        W  866  31.104  17.615   0.880
39204W        W  867   1.964  25.134   2.673
39205W        W  868  37.376  33.935  12.569
39206W        W  869   3.421  43.859   3.157
39207W        W  870  11.868  13.165  12.881
39208W        W  871  29.600  34.042  11.086
39209W        W  872   0.758  30.518  10.573
39210W        W  873  26.194  28.034  11.866
39211W        W  874  30.081   5.293  10.426
39212W        W  875  37.390  29.108  11.957
39213W        W  876  37.057  31.460  10.614
39214W        W  877  43.014  35.939  13.480
39215W        W  878  15.102  35.492  13.542
39216W        W  879  40.822   8.827   4.308
39217W        W  880  42.496  16.781   4.757
39218W        W  881  34.897  26.645  12.865
39219W        W  882  13.701  31.956   1.884
39220W        W  883  28.537  18.772  12.930
39221W        W  884   4.935  15.185   1.339
39222W        W  885  31.511  43.391  12.965
39223W        W  886  11.281  43.004   2.291
39224W        W  887   0.834  22.089  14.855
39225W        W  888  36.457  36.091   3.798
39226W        W  889  31.943  12.657  14.980
39227W        W  890   8.406  33.379   2.182
39228W        W  891  31.543  14.647  12.467
39229W        W  892   3.428  44.283   4.756
39230W        W  893   0.948  11.637   3.795
39231W        W  894  41.994   3.362  14.299
39232W        W  895   8.747  38.970  11.488
39233W        W  896  27.940   3.351  12.429
39234W        W  897  12.304  28.032  13.484
39235W        W  898  22.700  31.538  10.955
39236W        W  899  25.140  21.677  13.849
39237W        W  900   8.733   4.330   1.865
39238W        W  901   3.405  38.841  11.588
39239W        W  902  11.675  39.492   3.824
39240W        W  903   3.402  19.164   1.911
39241W        W  904  18.715  20.247   0.395
39242W        W  905  26.069  20.194   4.242
39243W        W  906   1.745  32.000   5.099
39244W        W  907   1.829  14.743   3.858
39245W        W  908  44.473  22.150  12.557
39246W        W  909  23.546   5.408  10.160
39247W        W  910  33.385  28.144  14.998
39248W        W  911   1.945  35.538  14.801
39249W        W  912  27.568  44.397   0.949
39250W        W  913  26.166  18.131  13.893
39251W        W  914   6.243  38.000  14.973
39252W        W  915  35.960  26.020   1.797
39253W        W  916  36.372   9.370   1.783
39254W        W  917  19.608  41.954  13.485
39255W        W  918  15.165  19.251  14.473
39256W        W  919  14.296  18.738   1.799
39257W        W  920  41.505  30.918   0.434
39258W        W  921  17.619   9.150  12.968
39259W        W  922  22.736   2.339   0.411
39260W        W  923  15.107  12.638  10.610
39261W        W  924   7.792   9.182   3.789
39262W        W  925   3.857  44.971   3.673
39263W        W  926   8.855   5.233   3.323
39264W        W  927  13.126  10.292   0.431
39265W        W  928  39.868  18.710  12.529
39266W        W  929   9.863  34.546  11.412
39267W        W  930  38.825  13.704   1.735
39268W        W  931   8.857  20.235  12.484
39269W        W  932  13.766  37.346   3.252
39270W        W  933  13.830  44.367   1.226
39271W        W  934  28.133  28.058   2.711
39272W        W  935  28.006   8.387  14.992
39273W        W  936  40.361   2.434  14.886
39274W        W  937  14.099   7.199  11.934
39275W        W  938   6.235  19.633   2.396
39276W        W  939  42.930  13.672   3.635
39277W        W  940  38.477   2.728  11.417
39278W        W  941   9.161  10.362   1.908
39279W        W  942  41.907  18.065   1.831
39280W        W  943  20.101  19.107  14.950
39281W        W  944  44.957  12.672   1.759
39282W        W  945  27.514  29.145  11.443
39283W        W  946   3.422   0.819  14.339
39284W        W  947  25.472  30.646   5.084
39285W        W  948  37.537  10.249  10.931
39286W        W  949  31.445  35.468   4.132
39287W        W  950  36.860  22.124   4.352
39288W        W  951  23.031  28.146  11.462
39289W        W  952  13.176  33.427   4.803
39290W        W  953  16.652  18.571  14.404
39291W        W  954  18.234  12.762  11.056
39292W        W  955  21.156   7.194   3.194
39293W        W  956   5.842   3.341  13.861
39294W        W  957  13.609  38.404   0.265
39295W        W  958  26.064  35.434   3.706
39296W        W  959  43.287  12.757  12.970
39297W        W  960  26.464   6.860  10.410
39298W        W  961   5.213  12.708   4.754
39299W        W  962   2.818  31.518   1.401
39300W        W  963  42.821  16.732  12.513
39301W        W  964  37.472  11.203   1.747
39302W        W  965  37.464  32.618  13.342
39303W        W  966  30.013   5.393  12.483
39304W        W  967  10.852  20.088   4.805
39305W        W  968  31.645  39.338   4.325
39306W        W  969  37.069  29.160   2.859
39307W        W  970  31.119  15.791  10.421
39308W        W  971  28.147  17.724  13.815
39309W        W  972  25.563  27.969  12.042
39310W        W  973  13.678  14.699  10.904
39311W        W  974  36.497  33.890   3.167
39312W        W  975  42.007  37.555   3.382
39313W        W  976  44.927  39.560   0.356
39314W        W  977  27.612  18.750   2.416
39315W        W  978  39.524  28.010  11.969
39316W        W  979  20.224  21.098  14.323
39317W        W  980  37.016  38.401  10.513
39318W        W  981   9.338  13.666   0.952
39319W        W  982  21.616   4.310  11.478
39320W        W  983  28.622   0.869   0.408
39321W        W  984  24.144  28.138  10.499
39322W        W  985  15.280   2.794   1.382
39323W        W  986  16.651   6.736  12.452
39324W        W  987  31.529  11.306  11.958
39325W        W  988  35.022   0.325  12.566
39326W        W  989   0.449  10.158   4.344
39327W        W  990  18.584  27.063   1.231
39328W        W  991  15.190  34.047  11.116
39329W        W  992  36.569  33.917  14.027
39330W        W  993  30.115   8.695  10.994
39331W        W  994  24.202  23.507  12.553
39332W        W  995  12.816  24.591   4.616
39333W        W  996  27.530   5.327   1.884
39334W        W  997  24.228  34.119  14.965
39335W        W  998  15.257  33.453  10.940
39336W        W  999  24.205   8.354   0.816
39337W        W 1000  19.236  43.766   0.375
39338W        W 1001  44.372  17.230  11.020
39339W        W 1002  22.539   7.683   2.823
39340W        W 1003  18.178   4.767  11.091
39341W        W 1004  10.811  39.374  14.884
39342W        W 1005   6.187  23.098  13.421
39343W        W 1006  36.061  39.909   4.622
39344W        W 1007  33.989  19.746  12.931
39345W        W 1008  32.494  17.152  11.612
39346W        W 1009  19.762  38.489  12.429
39347W        W 1010   8.734  42.319  11.030
39348W        W 1011   2.469  10.828   1.218
39349W        W 1012  40.528   2.297  13.055
39350W        W 1013   3.900  22.211  12.021
39351W        W 1014   1.440  22.671   3.355
39352W        W 1015  12.262  35.541  13.383
39353W        W 1016  36.522  30.493  14.499
39354W        W 1017  26.520  26.518   2.352
39355W        W 1018  17.661   9.857   0.958
39356W        W 1019   2.724  27.454   2.807
39357W        W 1020   4.815  30.938   1.814
39358W        W 1021  39.059  23.144   3.720
39359W        W 1022   5.352  11.274   3.841
39360W        W 1023  26.564  39.523  12.343
39361W        W 1024  21.551  29.022   5.093
39362W        W 1025  17.576  16.689   1.730
39363W        W 1026  33.127  21.147   0.458
39364W        W 1027  10.715  12.780  12.491
39365W        W 1028  39.505  24.520   1.871
39366W        W 1029  24.707  41.424   4.348
39367W        W 1030  39.996  26.199   3.697
39368W        W 1031  33.895   0.418  13.795
39369W        W 1032  12.191   4.747   2.277
39370W        W 1033  35.950  37.077   0.396
39371W        W 1034  19.241  18.081   2.671
39372W        W 1035  32.980   5.435  13.815
39373W        W 1036  29.070  43.840  12.054
39374W        W 1037  25.675  39.329  10.091
39375W        W 1038  26.083  14.752  11.116
39376W        W 1039  42.401  11.832  10.477
39377W        W 1040  14.201  43.481   1.376
39378W        W 1041  17.777  12.824   3.729
39379W        W 1042  24.112  24.642   2.768
39380W        W 1043   5.302  29.553  13.537
39381W        W 1044  15.703   5.691   0.332
39382W        W 1045  13.744   9.689   2.772
39383W        W 1046  40.479  11.841  13.801
39384W        W 1047  31.006   0.329   0.862
39385W        W 1048  41.866  11.659  13.873
39386W        W 1049  42.918  16.163  14.952
39387W        W 1050  39.940   7.717  11.379
39388W        W 1051  31.995  38.938   2.868
39389W        W 1052  16.770  42.933   1.712
39390W        W 1053   5.397   1.328   2.379
39391W        W 1054  36.939  39.029  13.367
39392W        W 1055   6.745  18.110  10.963
39393W        W 1056  35.953   8.729   0.478
39394W        W 1057  22.685  26.469   4.641
39395W        W 1058   4.305  32.563  13.464
39396W        W 1059  31.433  22.594   4.718
39397W        W 1060  30.033  10.786   1.806
39398W        W 1061  38.536  12.804   0.392
39399W        W 1062   8.198  27.072  13.384
39400W        W 1063  36.497  40.844  10.407
39401W        W 1064  42.351  39.923   0.273
39402W        W 1065  29.520  21.612  13.798
39403W        W 1066  13.703  27.000  12.576
39404W        W 1067   9.836  13.230   2.264
39405W        W 1068  12.186  20.615  14.473
39406W        W 1069  42.921  32.991  14.490
39407W        W 1070  14.287  36.956   0.736
39408W        W 1071  32.417  12.196  13.896
39409W        W 1072  36.973  42.408  10.406
39410W        W 1073  44.392  12.137  12.448
39411W        W 1074  37.837  37.058  13.456
39412W        W 1075  36.940   4.211  11.558
39413W        W 1076  26.458  35.899  13.407
39414W        W 1077  19.271  24.615  10.955
39415W        W 1078  37.388  33.929  10.538
39416W        W 1079  30.940  43.988  13.398
39417W        W 1080  42.432  44.883   3.184
39418W        W 1081  37.996   1.967   3.681
39419W        W 1082   2.417  28.001   1.701
39420W        W 1083   5.816   3.776   3.294
39421W        W 1084   8.392  33.993   0.955
39422W        W 1085  31.130  21.710  11.395
39423W        W 1086  26.190  41.417   2.722
39424W        W 1087  36.524  15.696  11.068
39425W        W 1088  32.470  17.289   4.629
39426W        W 1089  21.652  34.566  10.895
39427W        W 1090   2.907  41.843  14.440
39428W        W 1091  12.319  15.821  11.525
39429W        W 1092  38.403  34.467   4.116
39430W        W 1093  24.085  31.939  10.558
39431W        W 1094   4.325  32.060   4.244
39432W        W 1095  12.723  22.507  14.352
39433W        W 1096  31.473  22.168  11.111
39434W        W 1097  13.199  17.252   4.742
39435W        W 1098   6.857   8.324  12.841
39436W        W 1099  39.462   1.266  11.544
39437W        W 1100   7.839  19.623   4.117
39438W        W 1101  15.292  26.566  13.872
39439W        W 1102  38.340  38.375  13.438
39440W        W 1103  12.196  35.078   0.347
39441W        W 1104   4.435  29.510   4.707
39442W        W 1105  38.000  39.457  13.452
39443W        W 1106  23.553  37.467   1.864
39444W        W 1107  39.808  33.598   3.759
39445W        W 1108   1.286  20.640  10.585
39446W        W 1109  10.796  11.672   2.284
39447W        W 1110  11.844  24.091  13.350
39448W        W 1111  28.124   9.761  10.975
39449W        W 1112  32.392  36.065   0.832
39450W        W 1113  26.681  37.983  12.406
39451W        W 1114   2.371  31.939   0.964
39452W        W 1115  25.013  31.040  10.476
39453W        W 1116  14.591  20.178   4.678
39454W        W 1117   9.304  18.550   3.253
39455W        W 1118  18.643   1.357  14.390
39456W        W 1119   8.885  14.235  10.548
39457W        W 1120  20.068  25.678   3.350
39458W        W 1121  41.874  32.924  11.389
39459W        W 1122   5.193   8.850  11.373
39460W        W 1123  22.138  41.995  13.458
39461W        W 1124   2.958   9.342   3.291
39462W        W 1125  44.773  34.930   1.724
39463W        W 1126  26.119  12.829  12.029
39464W        W 1127   7.876  14.788   4.148
39465W        W 1128   1.374  39.882   0.901
39466W        W 1129  40.023  31.463   0.396
39467W        W 1130  27.656   8.752   4.739
39468W        W 1131  41.300  21.743  14.985
39469W        W 1132  40.898  15.607  11.878
39470W        W 1133  13.319  38.013   9.933
39471W        W 1134  37.056  32.540   0.920
39472W        W 1135   4.803  40.369   1.368
39473W        W 1136  34.392  11.809  13.929
39474W        W 1137  13.183  36.467  12.405
39475W        W 1138  29.617  25.575  12.093
39476W        W 1139   1.254  42.833   4.798
39477W        W 1140  13.260  28.563   2.300
39478W        W 1141   9.152  37.904  13.408
39479W        W 1142   7.789  14.718  12.891
39480W        W 1143   7.896  40.929  14.816
39481W        W 1144  44.462   8.160  13.404
39482W        W 1145  23.559  26.980  11.487
39483W        W 1146  37.910  29.088   0.327
39484W        W 1147  15.611  43.468   4.609
39485W        W 1148  30.143  39.827   0.386
39486W        W 1149   2.904  36.352   2.412
39487W        W 1150  33.915  33.613  10.617
39488W        W 1151   2.346  30.008   1.852
39489W        W 1152   5.346  11.807   2.401
39490W        W 1153   8.400   8.225  14.503
39491W        W 1154  30.559  12.116  13.379
39492W        W 1155  12.268  17.074   0.844
39493W        W 1156  19.602  15.643   3.168
39494W        W 1157  40.905   1.361  13.995
39495W        W 1158  34.115  40.952   0.767
39496W        W 1159  13.742   9.728  10.594
39497W        W 1160   4.409  19.111   1.708
39498W        W 1161  42.405  11.234   0.367
39499W        W 1162  25.653  34.902  10.474
39500W        W 1163  40.371   6.859   3.790
39501W        W 1164  29.956  19.554  12.887
39502W        W 1165  25.006  35.981  14.881
39503W        W 1166  18.703   6.383  10.450
39504W        W 1167  23.637   9.749  10.423
39505W        W 1168  27.007   3.312   9.925
39506W        W 1169  33.578   1.844  14.384
39507W        W 1170  31.150   2.933  11.006
39508W        W 1171  38.555   8.778   3.254
39509W        W 1172  22.062   0.776  10.607
39510W        W 1173  25.503  22.552   3.744
39511W        W 1174   1.443  24.551  10.612
39512W        W 1175   5.290  12.229   4.805
39513W        W 1176   0.421  37.942   4.134
39514W        W 1177   0.300   7.796  12.380
39515W        W 1178  32.410   5.696   4.136
39516W        W 1179   1.412  26.040  11.088
39517W        W 1180  19.580   3.331  10.058
39518W        W 1181  41.310  11.689   2.367
39519W        W 1182  18.116  35.470  10.562
39520W        W 1183  11.630  44.811   0.838
39521W        W 1184   0.820  35.966   1.211
39522W        W 1185  14.711   2.772  12.415
39523W        W 1186  31.549  32.987  11.400
39524W        W 1187  42.883  16.226  11.092
39525W        W 1188   6.853   0.277  10.424
39526W        W 1189   2.821  38.403  14.402
39527W        W 1190  38.996  16.176   1.888
39528W        W 1191  15.630  44.325   1.416
39529W        W 1192  41.859  41.401  14.865
39530W        W 1193   3.445  41.507  10.640
39531W        W 1194  15.588  22.132  12.067
39532W        W 1195   3.229  27.032  12.954
39533W        W 1196  40.902   8.267   3.662
39534W        W 1197  20.615  19.245  11.427
39535W        W 1198  29.512  26.014   0.836
39536W        W 1199  11.821  43.898  12.350
39537W        W 1200  16.202   8.260   2.865
39538W        W 1201  30.975   2.282   1.762
39539W        W 1202  39.948  35.854   4.647
39540W        W 1203  16.574  26.566  10.581
39541W        W 1204  19.081  27.136   3.226
39542W        W 1205  30.547  19.769  11.934
39543W        W 1206  30.649  25.976  11.092
39544W        W 1207  24.555  36.055   0.261
39545W        W 1208  23.634   8.896  11.943
39546W        W 1209  20.042  10.873  11.122
39547W        W 1210  26.033  42.932   5.662
39548W        W 1211  29.507  15.761  10.630
39549W        W 1212  16.621  37.450   0.889
39550W        W 1213  20.214  41.827   2.888
39551W        W 1214  35.009  27.175  14.883
39552W        W 1215  17.306  32.142   5.117
39553W        W 1216   8.293  22.552  13.437
39554W        W 1217   0.786  40.396  11.480
39555W        W 1218  40.940  29.117  11.487
39556W        W 1219  10.314  39.983   2.687
39557W        W 1220  17.560  31.452  12.928
39558W        W 1221  28.937  22.651   2.276
39559W        W 1222  25.627   1.802   4.342
39560W        W 1223  13.332   0.887  11.015
39561W        W 1224  33.116  43.013  13.807
39562W        W 1225  44.932  38.450   2.817
39563W        W 1226  17.575   8.789  14.384
39564W        W 1227  10.263  16.719   4.780
39565W        W 1228  24.714  10.235  14.408
39566W        W 1229   7.699  12.225   2.205
39567W        W 1230  28.601  40.971   5.116
39568W        W 1231  24.011   4.880   2.690
39569W        W 1232  41.411   3.899  14.863
39570W        W 1233  24.507  27.681   4.712
39571W        W 1234  42.816  19.610  10.070
39572W        W 1235   6.788  21.232  12.543
39573W        W 1236  28.625  29.621  13.470
39574W        W 1237  22.665  41.790  14.993
39575W        W 1238  26.044  27.543   2.223
39576W        W 1239   8.842   2.888  13.913
39577W        W 1240   7.835  39.516  10.957
39578W        W 1241  37.077   2.399   3.671
39579W        W 1242  37.569  28.636   1.210
39580W        W 1243  10.637   0.781  12.433
39581W        W 1244   5.217   6.814  12.375
39582W        W 1245   1.772  32.582   3.342
39583W        W 1246  17.705  17.091   3.678
39584W        W 1247  25.044   4.763  11.042
39585W        W 1248  21.228  37.394   4.194
39586W        W 1249   7.338   7.900  10.559
39587W        W 1250  34.897  30.118   4.771
39588W        W 1251  36.929  28.461   3.376
39589W        W 1252   0.747   1.935  11.874
39590W        W 1253  17.657   5.385   4.654
39591W        W 1254  12.312  18.063   4.738
39592W        W 1255   4.263  30.455   1.248
39593W        W 1256  17.800  35.512   2.786
39594W        W 1257  23.648  44.981  11.943
39595W        W 1258  17.661  17.292  10.481
39596W        W 1259  39.429   4.837  10.147
39597W        W 1260  10.755   3.375   1.273
39598W        W 1261   2.783   4.220  10.951
39599W        W 1262   8.834  40.393   0.272
39600W        W 1263  14.743   7.335   2.383
39601W        W 1264   6.923  10.729   2.741
39602W        W 1265   6.796  44.424  12.504
39603W        W 1266  27.543   2.393  12.845
39604W        W 1267  44.446  42.994   9.966
39605W        W 1268  12.629  24.132   2.353
39606W        W 1269   8.708   2.826   1.266
39607W        W 1270   1.397   4.909  11.384
39608W        W 1271  16.748   5.379  14.960
39609W        W 1272  23.717  39.046  10.148
39610W        W 1273  14.784  12.274  13.021
39611W        W 1274  15.213  37.981  12.959
39612W        W 1275   0.884  34.533  11.543
39613W        W 1276   4.213  25.116   0.930
39614W        W 1277  27.117  24.698   2.742
39615W        W 1278   7.727  16.198  14.510
39616W        W 1279  17.729  44.764  12.429
39617W        W 1280  25.040  37.015  12.061
39618W        W 1281   2.771  24.988   0.775
39619W        W 1282   2.802  28.140   3.724
39620W        W 1283  41.001  33.939  12.915
39621W        W 1284  38.854  40.866   2.336
39622W        W 1285  33.470  26.102   0.329
39623W        W 1286  32.535  12.142  12.566
39624W        W 1287  35.058  22.009   1.809
39625W        W 1288  10.238  12.831   4.786
39626W        W 1289  37.451  35.915   3.777
39627W        W 1290  43.850  34.929   4.829
39628W        W 1291  13.323  15.700  14.323
39629W        W 1292  13.684  23.000  14.424
39630W        W 1293  35.444  10.664  13.454
39631W        W 1294  17.209   5.699  14.341
39632W        W 1295  17.114  31.998  13.510
39633W        W 1296  44.392  10.801  14.334
39634W        W 1297   2.758  43.820  10.927
39635W        W 1298   4.398   3.802   0.862
39636W        W 1299  32.937  26.686  11.532
39637W        W 1300  11.333  28.129   4.715
39638W        W 1301   6.253   0.856  13.375
39639W        W 1302  38.885  42.017   1.421
39640W        W 1303  38.558   8.689   4.133
39641W        W 1304   1.476   1.939   1.797
39642W        W 1305  35.390   4.382   4.764
39643W        W 1306  20.727  13.327   5.784
39644W        W 1307  25.209  20.704  12.041
39645W        W 1308  22.536  37.496   4.679
39646W        W 1309  37.418   2.786  13.889
39647W        W 1310  14.222  13.218  12.022
39648W        W 1311  30.955  44.473   4.149
39649W        W 1312  11.725  23.541   3.724
39650W        W 1313  30.093  44.438  11.123
39651W        W 1314  32.484  13.618   3.378
39652W        W 1315  13.324  18.273   2.419
39653W        W 1316  29.127   9.759   4.261
39654W        W 1317  28.986  36.527  14.900
39655W        W 1318  15.763  42.888   1.290
39656W        W 1319   1.364  24.065   0.472
39657W        W 1320  35.066   5.796  14.490
39658W        W 1321  38.543  39.963   4.312
39659W        W 1322  42.866  28.964   4.349
39660W        W 1323  11.742  40.520   0.834
39661W        W 1324  33.485  23.719   4.654
39662W        W 1325  19.096  25.049   4.288
39663W        W 1326  26.668  22.510   2.738
39664W        W 1327  23.160   4.301   0.767
39665W        W 1328  37.386  24.113   1.272
39666W        W 1329  38.854   8.257  10.615
39667W        W 1330  21.744   2.245  13.884
39668W        W 1331  19.729  34.502   0.267
39669W        W 1332  23.141  17.605   2.827
39670W        W 1333  13.755  43.430  11.918
39671W        W 1334  35.455  34.938   4.160
39672W        W 1335  27.952  16.739   3.713
39673W        W 1336  15.195  42.876   5.124
39674W        W 1337  38.470   5.312   2.680
39675W        W 1338  28.076  39.033  13.403
39676W        W 1339  43.865  39.342  14.442
39677W        W 1340   2.845  30.636   3.758
39678W        W 1341  19.053   4.206  10.620
39679W        W 1342  39.459   3.769   0.248
39680W        W 1343   9.224   3.303  14.980
39681W        W 1344  41.350   6.879   0.808
39682W        W 1345   1.873  19.286  11.888
39683W        W 1346  11.308   9.760  10.608
39684W        W 1347  23.571  19.203   0.825
39685W        W 1348  22.124   5.838  11.605
39686W        W 1349  33.008   3.804  10.428
39687W        W 1350  29.059  22.222   2.844
39688W        W 1351  15.213  22.134   3.635
39689W        W 1352   6.922  18.643   3.839
39690W        W 1353  35.858  32.894   3.760
39691W        W 1354  44.290  36.096  12.472
39692W        W 1355  43.430  27.965   2.293
39693W        W 1356  17.092  42.914  14.782
39694W        W 1357  36.389  15.709  11.899
39695W        W 1358  44.928  39.344   3.862
39696W        W 1359   8.274  14.633  10.923
39697W        W 1360  21.645  35.075   4.137
39698W        W 1361  22.521   1.330  10.976
39699W        W 1362  23.555   4.253   3.374
39700W        W 1363   8.668  19.641  11.032
39701W        W 1364  27.191  30.059  14.969
39702W        W 1365  33.910  17.288   1.355
39703W        W 1366  43.877   3.317   4.740
39704W        W 1367   5.273  10.372   3.741
39705W        W 1368  30.038   2.352   2.664
39706W        W 1369   5.278   2.247  13.996
39707W        W 1370  14.636  14.807  13.939
39708W        W 1371  17.195  21.119  12.342
39709W        W 1372  20.244  31.115   1.404
39710W        W 1373  16.156  29.618   0.293
39711W        W 1374  12.822  33.959   4.810
39712W        W 1375  23.141  42.409   4.727
39713W        W 1376  33.478  39.365   1.864
39714W        W 1377  36.924  16.136  10.558
39715W        W 1378  16.660   6.413   2.254
39716W        W 1379  22.220   0.368   3.686
39717W        W 1380  24.522   2.347  10.628
39718W        W 1381  13.748  24.688  10.602
39719W        W 1382   0.383  21.551  13.974
39720W        W 1383  38.915  18.066  10.975
39721W        W 1384  32.431  21.203   1.216
39722W        W 1385   3.243   3.290   1.308
39723W        W 1386  39.992   0.441   4.291
39724W        W 1387  18.755   0.763  14.822
39725W        W 1388  15.808  23.682  13.365
39726W        W 1389  16.229  34.980   0.869
39727W        W 1390   2.232  35.026  10.601
39728W        W 1391  14.104  31.515   2.368
39729W        W 1392  30.104  21.704   2.764
39730W        W 1393  16.799  31.043   4.355
39731W        W 1394  16.727  43.980   2.826
39732W        W 1395   8.813  12.611  14.511
39733W        W 1396  31.636   6.351  12.498
39734W        W 1397  29.464   9.711  12.841
39735W        W 1398  12.329   4.894  12.401
39736W        W 1399  14.660  36.054  11.423
39737W        W 1400  18.144  12.639   0.771
39738W        W 1401   0.430   5.432   1.264
39739W        W 1402  33.475  22.745   0.760
39740W        W 1403  33.430  27.626   4.232
39741W        W 1404   7.875  25.620   4.339
39742W        W 1405  23.691   0.438  10.904
39743W        W 1406  24.491  38.431   4.705
39744W        W 1407  22.064   6.922  10.568
39745W        W 1408   6.858  12.146   2.189
39746W        W 1409  32.603  40.402   4.656
39747W        W 1410  33.985  11.284  14.329
39748W        W 1411  13.765   2.331   4.837
39749W        W 1412   6.201  19.610  12.515
39750W        W 1413  20.087  25.158  13.024
39751W        W 1414  10.632   0.383   2.390
39752W        W 1415  35.382   4.939  13.415
39753W        W 1416  12.766   4.915  12.425
39754W        W 1417  33.499  14.301   2.380
39755W        W 1418   6.702  37.864   2.332
39756W        W 1419   7.711  25.049  12.090
39757W        W 1420   2.836  43.022   4.737
39758W        W 1421  43.015   3.751  11.062
39759W        W 1422  25.972  29.612  14.871
39760W        W 1423   8.220   5.362   1.371
39761W        W 1424  32.996  24.700   5.664
39762W        W 1425  19.697  42.319   2.731
39763W        W 1426   4.942   1.249  11.496
39764W        W 1427   3.745  37.874   3.727
39765W        W 1428  44.808   6.342   3.197
39766W        W 1429  36.849   4.302  11.061
39767W        W 1430  10.866   6.868   3.760
39768W        W 1431  25.985  37.373   1.800
39769W        W 1432  43.852  24.587  13.935
39770W        W 1433   8.369  11.713  12.073
39771W        W 1434  17.219  15.704  14.874
39772W        W 1435  26.061  27.999   3.705
39773W        W 1436  16.678  17.291  10.986
39774W        W 1437   1.916  23.151  12.501
39775W        W 1438  43.921  15.677  13.837
39776W        W 1439  42.005  33.902  12.000
39777W        W 1440   1.435  30.606   1.871
39778W        W 1441   6.745   2.821  13.993
39779W        W 1442  39.829  14.253   1.865
39780W        W 1443  39.424  31.032   2.384
39781W        W 1444  19.060  39.497  11.871
39782W        W 1445  13.830   5.709   2.664
39783W        W 1446  18.596   0.494  11.115
39784W        W 1447  38.384   4.784  14.982
39785W        W 1448  19.676  35.038   4.633
39786W        W 1449  34.502  26.582  13.367
39787W        W 1450  20.044   4.430   2.371
39788W        W 1451   0.410  12.668   0.787
39789W        W 1452  13.840  16.752   3.815
39790W        W 1453  12.342   1.359   3.858
39791W        W 1454  16.109  42.328  10.469
39792W        W 1455  36.929  23.215   0.344
39793W        W 1456  36.075  22.738   3.209
39794W        W 1457  28.524   4.841  13.319
39795W        W 1458  14.692  18.706  10.417
39796W        W 1459  37.935  34.489   4.238
39797W        W 1460  13.198  41.944   4.177
39798W        W 1461   6.863  11.658  12.404
39799W        W 1462  19.066  34.369  13.032
39800W        W 1463  17.076  39.954   4.809
39801W        W 1464  31.931  13.110  13.948
39802W        W 1465  25.163  43.850   2.312
39803W        W 1466  38.350  15.689  11.894
39804W        W 1467  11.733   9.329  13.308
39805W        W 1468   0.781   8.202   1.915
39806W        W 1469  21.140  28.508   3.267
39807W        W 1470  31.040  26.093  12.823
39808W        W 1471  27.961  28.956   1.244
39809W        W 1472  19.264  25.034   1.433
39810W        W 1473  39.890  37.463  10.959
39811W        W 1474  21.236  26.577   9.959
39812W        W 1475  36.046  37.043  11.061
39813W        W 1476  18.634  32.102   4.810
39814W        W 1477   3.460   7.869  12.970
39815W        W 1478  18.691  12.150  11.969
39816W        W 1479  39.859  20.101  10.936
39817W        W 1480   8.796  22.230  12.363
39818W        W 1481  14.699   8.683   2.810
39819W        W 1482   2.321  40.828   3.702
39820W        W 1483  23.643   5.813   3.688
39821W        W 1484  25.632   0.283   2.318
39822W        W 1485  18.639  39.375   2.679
39823W        W 1486  22.094  16.236   1.858
39824W        W 1487  16.227   5.744  12.860
39825W        W 1488  37.044  28.073  11.127
39826W        W 1489  10.633   6.419  14.465
39827W        W 1490  34.482  32.096  14.456
39828W        W 1491   3.256  15.248   1.222
39829W        W 1492  22.007  32.527  12.494
39830W        W 1493  12.220   2.355   0.380
39831W        W 1494  43.853  27.059  13.938
39832W        W 1495  31.421   4.944   3.343
39833W        W 1496  32.615   3.840  12.415
39834W        W 1497  24.029  33.616   2.685
39835W        W 1498  18.292  36.989   3.682
39836W        W 1499  21.075   4.743   2.691
39837W        W 1500  36.097   8.173   2.729
39838W        W 1501  22.115  35.950   4.806
39839W        W 1502   8.695  32.417  12.508
39840W        W 1503  21.067  10.299  12.855
39841W        W 1504  31.981  15.667   2.288
39842W        W 1505  44.900  44.785   0.281
39843W        W 1506  35.058  38.922  12.007
39844W        W 1507  16.795  14.288   0.870
39845W        W 1508  39.870  44.441   3.158
39846W        W 1509   0.275  10.633   0.427
39847W        W 1510  11.747  16.784   1.881
39848W        W 1511  11.721  36.361   2.331
39849W        W 1512  38.049  19.682  14.961
39850W        W 1513  34.909   2.450  12.840
39851W        W 1514  15.166  35.432   3.728
39852W        W 1515  27.513  30.540  13.997
39853W        W 1516  33.108  19.665  13.981
39854W        W 1517  26.037   1.734   1.838
39855W        W 1518  12.644   1.901  14.416
39856W        W 1519   0.413  24.128   0.344
39857W        W 1520  18.738  13.811  10.578
39858W        W 1521  44.008  29.632  12.887
39859W        W 1522   5.369  25.084   1.252
39860W        W 1523  20.628   5.356  12.448
39861W        W 1524  33.503  10.241  14.514
39862W        W 1525   9.823  38.478  12.365
39863W        W 1526   5.836   3.846   2.755
39864W        W 1527  19.284  17.247  10.027
39865W        W 1528  43.956  35.489   1.929
39866W        W 1529  18.719  30.135  14.831
39867W        W 1530  42.906  12.805   1.286
39868W        W 1531  44.777  22.737  10.498
39869W        W 1532   8.263  15.782  11.417
39870W        W 1533  44.918  19.599  13.050
39871W        W 1534  28.592  41.813   2.689
39872W        W 1535  27.155  43.441  12.524
39873W        W 1536  40.352  41.469   2.808
39874W        W 1537   5.300  23.112  11.491
39875W        W 1538  12.294   3.926  10.549
39876W        W 1539   8.275  44.285  14.336
39877W        W 1540  18.221  39.827  13.041
39878W        W 1541   9.648  38.437   0.393
39879W        W 1542  36.943  22.136   4.636
39880W        W 1543   7.395   3.255   4.751
39881W        W 1544  38.532  21.638  14.784
39882W        W 1545  23.549  18.209  13.989
39883W        W 1546  15.305  21.643   4.234
39884W        W 1547  27.449  24.145   2.826
39885W        W 1548  13.234  34.380   0.335
39886W        W 1549  20.220   4.326  10.994
39887W        W 1550  23.625  40.434   5.141
39888W        W 1551  31.905  12.701  12.920
39889W        W 1552  41.930  41.878   0.792
39890W        W 1553   8.277   1.399   4.171
39891W        W 1554   7.786   2.846  11.989
39892W        W 1555   2.432  35.070   3.306
39893W        W 1556  15.301  43.297   0.903
39894W        W 1557  12.348  12.781  10.640
39895W        W 1558  36.521  41.796   2.358
39896W        W 1559   8.657  19.672  14.818
39897W        W 1560  23.044   5.791  12.057
39898W        W 1561  31.555  42.912   2.862
39899W        W 1562  38.873  33.431   3.738
39900W        W 1563  31.429  32.505  14.857
39901W        W 1564  11.832  34.476   5.286
39902W        W 1565  35.038  38.004   4.730
39903W        W 1566  15.220  41.926   3.784
39904W        W 1567  15.230  10.805   2.307
39905W        W 1568  17.795  43.406  13.544
39906W        W 1569  19.070  39.057   2.741
39907W        W 1570  17.140  22.505   4.615
39908W        W 1571  13.739  14.666   2.800
39909W        W 1572   2.346  42.850  12.567
39910W        W 1573  19.574  25.095  14.905
39911W        W 1574  21.513  27.081   0.279
39912W        W 1575  29.008  32.994   4.697
39913W        W 1576  23.625  43.775  11.108
39914W        W 1577   0.256   7.767  10.407
39915W        W 1578  37.855  21.693  12.572
39916W        W 1579  17.271   1.825   0.265
39917W        W 1580  44.852   0.937  11.387
39918W        W 1581  25.065  33.023  10.917
39919W        W 1582  12.798  34.058  11.999
39920W        W 1583   8.278   3.897  10.963
39921W        W 1584   1.768   4.437  10.634
39922W        W 1585  42.329   0.483  13.964
39923W        W 1586  31.538  27.609  13.391
39924W        W 1587  25.477  16.667   2.675
39925W        W 1588  19.081  23.987   3.276
39926W        W 1589  15.718  16.585   4.350
39927W        W 1590   6.408  11.846  14.387
39928W        W 1591   0.952  42.443  10.563
39929W        W 1592  20.742  25.625   2.314
39930W        W 1593  33.453  10.715   4.718
39931W        W 1594  19.650   1.765   4.211
39932W        W 1595  27.168  30.596   5.261
39933W        W 1596  10.656   9.764  10.568
39934W        W 1597  44.326   2.774   4.274
39935W        W 1598   2.964  43.453  12.077
39936W        W 1599  35.090  14.178  10.979
39937W        W 1600  13.651  37.973  14.984
39938W        W 1601  25.609   3.220   4.114
39939W        W 1602  29.157  24.648   3.645
39940W        W 1603  10.368  28.506   1.733
39941W        W 1604   3.942  17.201  13.910
39942W        W 1605   5.364  36.069   1.340
39943W        W 1606  34.898  42.350  13.003
39944W        W 1607  29.554  15.723   0.429
39945W        W 1608  12.648  28.673  12.506
39946W        W 1609  38.922  41.028   0.409
39947W        W 1610  18.155  23.582  12.897
39948W        W 1611  38.857  33.090  11.904
39949W        W 1612   1.333  38.881   1.736
39950W        W 1613  42.784  21.159  13.027
39951W        W 1614  21.251  14.242   0.849
39952W        W 1615  14.669  24.046   4.645
39953W        W 1616   8.302  39.882  14.834
39954W        W 1617  23.052  35.054   0.277
39955W        W 1618   0.743  42.486   1.412
39956W        W 1619  34.583  13.677   1.251
39957W        W 1620  12.154   3.357  13.454
39958W        W 1621  21.601  28.494   3.295
39959W        W 1622  37.383  15.645  13.483
39960W        W 1623   3.743  37.014   0.828
39961W        W 1624   4.446   9.685   1.366
39962W        W 1625   7.321  43.810  12.823
39963W        W 1626  40.917   5.773   2.348
39964W        W 1627  19.162  40.948  12.078
39965W        W 1628   5.896   0.482   1.346
39966W        W 1629  33.005  35.027  10.962
39967W        W 1630  21.591  13.664  12.404
39968W        W 1631  37.541   2.465  12.851
39969W        W 1632  12.183  20.098   2.270
39970W        W 1633  30.050  14.720   4.243
39971W        W 1634  41.851  14.662   2.803
39972W        W 1635   3.943  41.829  11.463
39973W        W 1636  35.057  36.914  12.081
39974W        W 1637  28.129  21.616  12.987
39975W        W 1638  21.041  31.013   1.905
39976W        W 1639  26.671  14.725   0.780
39977W        W 1640  16.681  15.776  14.348
39978W        W 1641  43.838  34.979  11.914
39979W        W 1642  25.693  34.928   2.740
39980W        W 1643  10.678  18.723  12.991
39981W        W 1644  20.527  44.481   3.676
39982W        W 1645  43.360  38.879   1.802
39983W        W 1646  29.458  22.207   3.372
39984W        W 1647  35.590  42.792   0.878
39985W        W 1648   7.715  13.321   2.841
39986W        W 1649  43.941  10.811   1.717
39987W        W 1650  19.734  22.014  11.498
39988W        W 1651   4.854  37.066  13.448
39989W        W 1652  13.221   7.799   2.398
39990W        W 1653  13.608  38.885   4.296
39991W        W 1654  19.591  18.061   4.802
39992W        W 1655  19.195   6.206  13.063
39993W        W 1656  30.162  28.133  11.511
39994W        W 1657  12.638  24.047   1.425
39995W        W 1658  28.109   3.224   4.327
39996W        W 1659  34.543   3.412   1.296
39997W        W 1660  10.371  25.079  13.333
39998W        W 1661  11.723  21.168   4.718
39999W        W 1662  38.025   6.214  13.312
40000W        W 1663   1.873   3.426  13.879
40001W        W 1664  34.082   6.401  11.545
40002W        W 1665  13.782  12.249   2.699
40003W        W 1666  34.395  37.893   2.376
40004W        W 1667  33.430  32.616  13.993
40005W        W 1668  39.369  33.557   1.896
40006W        W 1669  25.090  24.488   2.328
40007W        W 1670  26.202  37.877  11.998
40008W        W 1671  19.760   1.877  13.420
40009W        W 1672  17.254  11.361  10.104
40010W        W 1673  39.012  24.200   4.741
40011W        W 1674  32.434  34.083   4.623
40012W        W 1675   2.720  24.127   1.882
40013W        W 1676  34.866  32.627  13.504
40014W        W 1677  15.280   3.296  12.879
40015W        W 1678  16.093  44.328   3.235
40016W        W 1679  25.984  16.640   2.837
40017W        W 1680  25.657  43.280   1.406
40018W        W 1681  24.136  31.622  11.377
40019W        W 1682  43.275  22.124  12.432
40020W        W 1683  21.173   0.275  12.352
40021W        W 1684  32.941  25.617   0.381
40022W        W 1685  12.285  20.718  14.780
40023W        W 1686  13.146  26.961  13.392
40024W        W 1687  14.645  18.630  12.936
40025W        W 1688  20.568  32.019   0.377
40026W        W 1689  10.735  22.215   4.162
40027W        W 1690  11.787  11.853  12.547
40028W        W 1691  23.668  13.688  10.600
40029W        W 1692   5.227  39.852   4.152
40030W        W 1693   7.839  16.173   4.803
40031W        W 1694  37.017  16.621   3.384
40032W        W 1695  33.461  40.858  12.944
40033W        W 1696   9.861  17.800   4.834
40034W        W 1697   6.862  17.646   3.358
40035W        W 1698  43.786  39.420   2.729
40036W        W 1699  12.179  18.126   4.143
40037W        W 1700  29.653  40.543  12.999
40038W        W 1701  38.867   2.724   3.637
40039W        W 1702  30.987  19.093  10.586
40040W        W 1703  11.827  37.439  12.951
40041W        W 1704  39.315  15.760  10.497
40042W        W 1705  38.032  38.928   4.317
40043W        W 1706  41.434  26.073   2.841
40044W        W 1707  38.421  20.082  12.823
40045W        W 1708  10.164   2.328  10.629
40046W        W 1709   4.711  10.285   5.161
40047W        W 1710   8.339   3.381  14.491
40048W        W 1711   0.295   1.347  11.022
40049W        W 1712   1.437   1.897  14.872
40050W        W 1713  26.987   2.369   4.651
40051W        W 1714   9.342  19.649  13.801
40052W        W 1715  27.062   9.844   1.298
40053W        W 1716  16.619  31.496   0.256
40054W        W 1717  44.931   1.958  11.003
40055W        W 1718  41.902  18.639   9.970
40056W        W 1719   7.220   0.873   2.286
40057W        W 1720  18.722  26.482   1.218
40058W        W 1721   5.210  10.878  11.437
40059W        W 1722  40.054  25.597  13.491
40060W        W 1723  33.124  28.027  12.400
40061W        W 1724  12.628  12.193   3.856
40062W        W 1725  34.018  40.517  11.051
40063W        W 1726  15.631  34.437  13.840
40064W        W 1727   9.689   9.837   3.256
40065W        W 1728  13.173   1.363  11.903
40066W        W 1729   2.854  26.029  12.878
40067W        W 1730   5.323  31.433  10.483
40068W        W 1731  26.185  30.951  13.432
40069W        W 1732   0.886  30.451   3.768
40070W        W 1733  28.557  14.271  13.332
40071W        W 1734  17.623  12.289   1.439
40072W        W 1735   1.414  17.293   3.386
40073W        W 1736  27.152  10.347  12.510
40074W        W 1737  18.211   1.295   1.823
40075W        W 1738  29.969  16.680   0.788
40076W        W 1739   3.218  13.819  12.911
40077W        W 1740  11.347  10.858   2.888
40078W        W 1741  12.719   8.186   3.153
40079W        W 1742  14.668  35.478  13.992
40080W        W 1743  29.450  12.793   3.222
40081W        W 1744   8.796  38.480  10.624
40082W        W 1745  36.371  42.852   4.653
40083W        W 1746  25.018  34.394  10.981
40084W        W 1747   9.863  10.872  10.475
40085W        W 1748  44.463  35.451   3.370
40086W        W 1749  20.130   3.313  12.399
40087W        W 1750  41.019  30.632  14.485
40088W        W 1751  19.083   7.667   0.378
40089W        W 1752  29.945  12.253  14.791
40090W        W 1753  31.108  42.874   4.833
40091W        W 1754  23.662  37.949   2.668
40092W        W 1755   1.248  11.263   2.742
40093W        W 1756  36.083  44.385  10.017
40094W        W 1757  36.488   2.358  11.078
40095W        W 1758  20.716   1.472   3.283
40096W        W 1759   3.733   1.344  11.072
40097W        W 1760  28.972  27.652   2.406
40098W        W 1761   7.332  30.579   1.739
40099W        W 1762  41.861   5.829   3.743
40100W        W 1763  26.182  25.524  13.460
40101W        W 1764  11.145   2.806  13.852
40102W        W 1765  30.962  26.130   2.295
40103W        W 1766  42.944   7.853  13.397
40104W        W 1767  28.660  22.011   2.774
40105W        W 1768  31.105  18.210   3.213
40106W        W 1769  29.138  44.349  14.006
40107W        W 1770  19.639  18.101  10.933
40108W        W 1771  38.865  25.010  14.881
40109W        W 1772  42.493  14.767   0.831
40110W        W 1773  25.590  38.936   0.420
40111W        W 1774  16.786  28.011   0.842
40112W        W 1775  39.003  19.725  10.957
40113W        W 1776  39.470  35.439  14.469
40114W        W 1777   6.277  14.195   0.746
40115W        W 1778   8.337  30.489   3.221
40116W        W 1779  31.004  30.421   0.392
40117W        W 1780   9.725   5.380   1.709
40118W        W 1781  12.685  10.634  13.528
40119W        W 1782  44.309   8.762   2.782
40120W        W 1783  22.015  21.066   2.821
40121W        W 1784   7.252  24.167  13.795
40122W        W 1785  25.153  23.690  11.040
40123W        W 1786  38.425   5.811  12.874
40124W        W 1787   3.333  27.595   0.355
40125W        W 1788  27.153   8.377  14.967
40126W        W 1789  23.654  40.043   9.475
40127W        W 1790  16.151  44.294  14.283
40128W        W 1791  41.337  30.115  11.485
40129W        W 1792  32.486  41.831   2.797
40130W        W 1793  22.643  22.601   3.812
40131W        W 1794  11.187  43.416  12.431
40132W        W 1795   8.688  41.012  14.881
40133W        W 1796  36.465  36.482   2.766
40134W        W 1797   8.253  35.419   1.715
40135W        W 1798  29.560  26.648   2.670
40136W        W 1799   0.958  22.134  14.028
40137W        W 1800  30.122   3.405   4.623
40138W        W 1801   4.925  24.975   3.644
40139W        W 1802   7.415  11.146   0.249
40140W        W 1803  29.175  41.410   2.317
40141W        W 1804  12.754  40.833   3.633
40142W        W 1805   5.818   6.426  11.045
40143W        W 1806  43.296  41.516   2.824
40144W        W 1807  26.614  17.248  10.994
40145W        W 1808  25.127  29.953   4.120
40146W        W 1809   7.268   5.364   4.630
40147W        W 1810  15.810  34.074  13.826
40148W        W 1811  32.637  38.873   0.433
40149W        W 1812  25.205  36.903  12.962
40150W        W 1813  16.693  21.701  14.494
40151W        W 1814  12.258  39.401   2.238
40152W        W 1815  21.622  40.362   2.332
40153W        W 1816  32.073  25.966   1.261
40154W        W 1817  16.293  34.537   4.720
40155W        W 1818  39.988  32.465   2.666
40156W        W 1819  12.160  37.538   1.912
40157W        W 1820  33.961  35.512   0.476
40158W        W 1821  36.069  16.210  10.556
40159W        W 1822  11.167  19.269   3.238
40160W        W 1823  43.397  23.672   4.771
40161W        W 1824   1.875   4.889  11.032
40162W        W 1825  12.340   9.688  14.309
40163W        W 1826  25.615   5.364   5.295
40164W        W 1827   7.760  21.641   3.246
40165W        W 1828  43.772  15.784   1.695
40166W        W 1829  41.371   7.830   3.188
40167W        W 1830  19.776  27.986   0.957
40168W        W 1831  20.104  36.589  14.411
40169W        W 1832   7.768  16.600   0.778
40170W        W 1833  23.658   6.883   1.921
40171W        W 1834  15.698  43.774  13.903
40172W        W 1835   7.171  38.908  14.902
40173W        W 1836   3.393  24.564  15.000
40174W        W 1837  17.305  41.949   3.754
40175W        W 1838  26.023   1.851  11.417
40176W        W 1839  36.068  26.612   5.192
40177W        W 1840   5.875  18.744  10.452
40178W        W 1841  24.509  31.597   1.346
40179W        W 1842  14.185  15.668   1.269
40180W        W 1843  31.920  37.892  13.910
40181W        W 1844  17.180   4.241   3.726
40182W        W 1845  36.010  19.256  11.612
40183W        W 1846   9.728  18.761   3.778
40184W        W 1847  34.603   5.768  13.979
40185W        W 1848   5.227  27.526   0.877
40186W        W 1849  16.282  38.516  10.532
40187W        W 1850  39.979  21.724   4.140
40188W        W 1851  19.583  38.551   0.934
40189W        W 1852  13.321  14.315  13.984
40190W        W 1853   0.913  40.882   2.266
40191W        W 1854   1.312  30.113  12.393
40192W        W 1855  25.065   0.457   1.237
40193W        W 1856  13.143  10.210   0.914
40194W        W 1857  42.398  11.287  12.062
40195W        W 1858   2.928  40.929  11.396
40196W        W 1859   5.219  16.234  11.934
40197W        W 1860  24.059  22.562  10.982
40198W        W 1861  29.543  16.621   3.344
40199W        W 1862  39.900  27.088  13.804
40200W        W 1863  37.373  23.205   1.295
40201W        W 1864  16.127   4.874  14.503
40202W        W 1865  20.085  44.395  11.547
40203W        W 1866  41.929  17.305   3.720
40204W        W 1867  42.882  35.067   2.821
40205W        W 1868   1.355  23.614   4.232
40206W        W 1869  24.216  44.005   2.272
40207W        W 1870  36.538  44.983   3.841
40208W        W 1871  21.699  29.945  13.376
40209W        W 1872   3.408  44.275   0.326
40210W        W 1873  44.805  29.135  12.005
40211W        W 1874  31.490  15.217   1.752
40212W        W 1875  42.803  42.860  13.915
40213W        W 1876  34.014   5.822  14.012
40214W        W 1877  17.163  43.009   3.213
40215W        W 1878   4.920  15.629  10.047
40216W        W 1879  29.559  43.895  13.805
40217W        W 1880  12.718   3.794  10.941
40218W        W 1881  24.096  27.574   2.193
40219W        W 1882   3.310   0.367   2.379
40220W        W 1883  34.039  43.508   3.174
40221W        W 1884   0.407  38.983  10.955
40222W        W 1885  40.943  33.127  12.385
40223W        W 1886   0.814   4.208  11.567
40224W        W 1887  18.665  41.872  11.493
40225W        W 1888  44.773  18.074   4.271
40226W        W 1889   0.466   1.436  13.530
40227W        W 1890  21.249  31.447   1.935
40228W        W 1891  28.472  41.349   1.926
40229W        W 1892  14.264  22.703  13.050
40230W        W 1893  37.028  34.878  11.546
40231W        W 1894  40.894  30.657  11.096
40232W        W 1895  36.864   0.466   4.251
40233W        W 1896  40.331  18.742   1.304
40234W        W 1897  12.200  43.348   2.221
40235W        W 1898  11.712  36.568  11.960
40236W        W 1899  21.025  19.079  10.577
40237W        W 1900   2.299  31.473   1.451
40238W        W 1901   8.762  32.587  12.825
40239W        W 1902   3.362  23.024  14.935
40240W        W 1903  20.208  25.627  12.879
40241W        W 1904  25.542  30.013   3.168
40242W        W 1905  23.646   8.318   3.328
40243W        W 1906  11.720   3.754  10.578
40244W        W 1907  16.137  33.442   3.226
40245W        W 1908   9.230  37.370   2.225
40246W        W 1909  23.571  30.581  12.377
40247W        W 1910   5.775  28.026   1.738
40248W        W 1911   8.710  10.212  12.852
40249W        W 1912  23.137  31.981  12.908
40250W        W 1913  38.846  16.259   0.846
40251W        W 1914  30.514  32.501  11.872
40252W        W 1915   8.258  10.846  11.857
40253W        W 1916   0.916  41.862  14.320
40254W        W 1917  16.605  40.957   1.212
40255W        W 1918  19.120  23.661  10.405
40256W        W 1919   1.772  35.870   0.435
40257W        W 1920  11.815  17.200  12.871
40258W        W 1921  44.285  38.939   3.747
40259W        W 1922   2.359  13.244   3.234
40260W        W 1923  21.124  23.731   0.938
40261W        W 1924  31.623  23.563  11.015
40262W        W 1925   1.775  33.532  14.811
40263W        W 1926  17.734  33.036  14.969
40264W        W 1927  40.040   0.482  14.430
40265W        W 1928  10.758  32.522  14.801
40266W        W 1929  44.302  37.449  10.502
40267W        W 1930  34.876  22.627   3.356
40268W        W 1931   9.773   4.320  14.297
40269W        W 1932  31.129  32.519   3.247
40270W        W 1933  42.524  30.007   4.145
40271W        W 1934  14.233  11.639   1.852
40272W        W 1935  43.874  37.540   2.855
40273W        W 1936  31.991  29.583   0.738
40274W        W 1937  12.670  36.488  11.071
40275W        W 1938  12.649  10.755  11.434
40276W        W 1939  27.145   3.238   1.267
40277W        W 1940  13.263  35.015   4.126
40278W        W 1941   0.252   2.335   1.341
40279W        W 1942  11.308  10.827   1.835
40280W        W 1943  37.520  33.593   1.891
40281W        W 1944   9.290  36.591   4.223
40282W        W 1945  38.381  14.732   2.307
40283W        W 1946   9.838  20.211   3.691
40284W        W 1947  44.261  26.657   3.685
40285W        W 1948  19.728  11.190  14.503
40286W        W 1949  42.524   7.715  13.818
40287W        W 1950  27.446  15.288   2.790
40288W        W 1951  34.874  35.519  14.987
40289W        W 1952  31.458   8.339  10.089
40290W        W 1953  11.843  33.052  11.961
40291W        W 1954   6.280  24.031   3.381
40292W        W 1955   1.314  13.618  13.325
40293W        W 1956  15.148  26.564   1.872
40294W        W 1957  44.813  36.409  14.015
40295W        W 1958   7.175   2.371   1.370
40296W        W 1959  43.319  29.471   1.337
40297W        W 1960  10.196  32.412  12.574
40298W        W 1961  18.278  10.682   1.862
40299W        W 1962  44.951  12.738  13.869
40300W        W 1963  31.067  24.205   2.697
40301W        W 1964  12.246   2.830  11.951
40302W        W 1965  38.374  32.543   0.933
40303W        W 1966   0.342   7.908   2.895
40304W        W 1967  20.646  34.977   2.301
40305W        W 1968   4.245  40.401   2.250
40306W        W 1969  38.451  22.617  12.038
40307W        W 1970  26.588   5.732   3.152
40308W        W 1971   1.468  29.563   1.757
40309W        W 1972   2.948  17.761   1.907
40310W        W 1973  40.943   5.324  12.399
40311W        W 1974  10.258  34.048   2.808
40312W        W 1975  27.069  17.620  12.851
40313W        W 1976  29.434   3.840   0.482
40314W        W 1977  39.485  25.696  11.000
40315W        W 1978  14.180   7.364  14.279
40316W        W 1979  39.811  44.959   1.897
40317W        W 1980  17.786   9.800  11.040
40318W        W 1981  37.428  12.677   2.237
40319W        W 1982  23.601  44.422  12.832
40320W        W 1983   3.217   7.357   4.613
40321W        W 1984  33.038  35.091  13.357
40322W        W 1985  25.208   2.847   2.287
40323W        W 1986   3.268  41.806  14.815
40324W        W 1987   7.694  44.382   1.814
40325W        W 1988  14.761  14.673  13.472
40326W        W 1989   5.204  39.323   0.275
40327W        W 1990  19.658  25.482   3.677
40328W        W 1991  27.014   3.837  13.886
40329W        W 1992   4.298  35.590   0.360
40330W        W 1993  28.116   6.821   4.607
40331W        W 1994  20.066  15.789  10.001
40332W        W 1995  20.155  37.021  10.439
40333W        W 1996  10.816  29.573   0.727
40334W        W 1997   5.303  37.970   1.700
40335W        W 1998  29.525   2.310   2.328
40336W        W 1999  16.210  15.809   4.146
40337W        W 2000   3.740  17.766   4.312
40338W        W 2001  39.975  20.559  14.019
40339W        W 2002  38.487   7.320   1.246
40340W        W 2003  38.970  28.656  10.560
40341W        W 2004  39.880  30.656  13.489
40342W        W 2005  28.088   4.318  12.868
40343W        W 2006   2.409  37.338  11.372
40344W        W 2007  30.003   7.190   1.747
40345W        W 2008  17.147  16.157   0.777
40346W        W 2009  36.910   3.756   1.735
40347W        W 2010   8.405  31.118  12.512
40348W        W 2011  24.086  15.194  13.913
40349W        W 2012  10.318   5.828  14.850
40350W        W 2013  41.893  25.702   0.475
40351W        W 2014  34.086  42.938   2.264
40352W        W 2015  20.551  39.464  14.988
40353W        W 2016   1.959  18.186  13.795
40354W        W 2017  25.518  27.629  14.783
40355W        W 2018  29.625  43.323   3.270
40356W        W 2019   2.732  26.203   0.796
40357W        W 2020  12.165  15.644  14.983
40358W        W 2021  41.351  27.604   3.642
40359W        W 2022  23.582  16.670  10.442
40360W        W 2023  27.178  21.252   3.286
40361W        W 2024  31.986   1.777  12.477
40362W        W 2025  41.505  25.610  13.464
40363W        W 2026  33.547  16.753  10.576
40364W        W 2027  28.645   5.338  14.813
40365W        W 2028  29.513  25.514  10.494
40366W        W 2029  30.990  43.900   4.711
40367W        W 2030   7.669  21.248  11.046
40368W        W 2031   9.317  39.536   3.343
40369W        W 2032  15.089   7.235  11.525
40370W        W 2033  37.000   8.814   0.290
40371W        W 2034   7.715  10.209  12.068
40372W        W 2035  10.343  14.112  11.894
40373W        W 2036  36.534  42.906  13.012
40374W        W 2037  42.339  22.618   2.840
40375W        W 2038  27.561  16.171   4.744
40376W        W 2039   1.386   9.879  14.516
40377W        W 2040   5.343   7.705   3.293
40378W        W 2041  44.853  11.636  13.439
40379W        W 2042  17.752  29.493  12.512
40380W        W 2043   7.887  37.944   3.796
40381W        W 2044  39.353  41.956  11.023
40382W        W 2045   6.228  44.871   2.822
40383W        W 2046  17.179  35.890  12.876
40384W        W 2047   9.863  18.146   0.865
40385W        W 2048  22.234  39.378  11.025
40386W        W 2049  16.767   0.816   1.695
40387W        W 2050  25.642  39.367  14.998
40388W        W 2051  14.211  19.156   2.299
40389W        W 2052  41.513  22.159   2.330
40390W        W 2053  30.634  37.355  10.569
40391W        W 2054   5.224  25.086   3.295
40392W        W 2055  19.175  10.194  14.843
40393W        W 2056  28.137   1.471  10.088
40394W        W 2057  30.915  40.041   1.892
40395W        W 2058   4.930  40.364  12.971
40396W        W 2059  27.596   8.324   4.313
40397W        W 2060  35.520  16.777   3.852
40398W        W 2061   9.834  31.986   3.339
40399W        W 2062   0.270  20.073  13.442
40400W        W 2063   6.413  42.954   0.886
40401W        W 2064  19.134  33.546  13.502
40402W        W 2065   6.315   1.430   1.438
40403W        W 2066  25.488   1.331  12.497
40404W        W 2067  11.282  22.707   3.150
40405W        W 2068  13.204  24.074  14.485
40406W        W 2069  11.693  40.436   3.670
40407W        W 2070  30.127  13.308  11.884
40408W        W 2071  44.465  35.550  14.903
40409W        W 2072  39.053   9.239  14.424
40410W        W 2073  29.603  20.062  14.363
40411W        W 2074  39.396  40.868  12.407
40412W        W 2075  14.315  26.641  13.428
40413W        W 2076  37.568   6.336   2.395
40414W        W 2077  31.099  40.479   1.850
40415W        W 2078  17.575   2.460   3.285
40416W        W 2079   2.839  38.068   1.432
40417W        W 2080   1.392  12.133   1.926
40418W        W 2081   3.392   6.909  13.967
40419W        W 2082  22.611   6.379   3.341
40420W        W 2083  39.325   9.321  13.453
40421W        W 2084  21.076  19.176   3.333
40422W        W 2085  17.593   3.779   4.807
40423W        W 2086  21.747  29.026   3.715
40424W        W 2087   3.918  31.600  10.982
40425W        W 2088   0.346  10.694   4.158
40426W        W 2089   3.739   9.156  13.908
40427W        W 2090   7.872   2.907   1.272
40428W        W 2091  12.741  28.034  10.410
40429W        W 2092  25.063  10.173  11.033
40430W        W 2093  17.172   1.297  11.584
40431W        W 2094  29.540  18.700  10.157
40432W        W 2095  28.650  21.666  13.458
40433W        W 2096  17.226  26.622  12.451
40434W        W 2097  40.927   9.866   4.771
40435W        W 2098  17.202   3.274   4.258
40436W        W 2099   5.279  33.899  10.997
40437W        W 2100  38.488   8.670  10.532
40438W        W 2101  20.610  40.442   1.224
40439W        W 2102  41.853  33.588   2.212
40440W        W 2103  39.890  36.908  13.818
40441W        W 2104  20.761  31.041   0.244
40442W        W 2105  44.370  17.703   4.188
40443W        W 2106  15.733   7.697  10.639
40444W        W 2107  37.067   4.897  11.126
40445W        W 2108  20.173   3.812  13.830
40446W        W 2109   1.480  34.027  12.373
40447W        W 2110  37.889  36.386   2.311
40448W        W 2111  12.218   0.379  14.026
40449W        W 2112   9.200  36.919  12.466
40450W        W 2113  14.105  38.860  11.445
40451W        W 2114   4.316  35.993   4.613
40452W        W 2115  21.552  18.268   3.365
40453W        W 2116  37.974  31.070  13.353
40454W        W 2117  12.314  25.990   1.346
40455W        W 2118  29.629  35.013   2.799
40456W        W 2119  31.502  20.270   4.654
40457W        W 2120  41.294  34.418  13.046
40458W        W 2121  10.775  27.620   2.317
40459W        W 2122   3.934   7.685  10.494
40460W        W 2123  31.083   1.406  10.438
40461W        W 2124  21.523  21.722   3.762
40462W        W 2125  34.076   7.390   3.231
40463W        W 2126  29.439  13.813   4.166
40464W        W 2127  26.057  26.656   2.818
40465W        W 2128  27.029   3.729  11.550
40466W        W 2129   6.847  41.809   4.682
40467W        W 2130  42.873  22.079  13.453
40468W        W 2131  17.760   8.388  10.503
40469W        W 2132   7.706  30.013  14.975
40470W        W 2133  14.145   8.801   4.768
40471W        W 2134  24.611  23.046  12.043
40472W        W 2135  34.507  43.808  13.831
40473W        W 2136  12.255  19.740   0.336
40474W        W 2137  36.973  26.496   2.351
40475W        W 2138  24.584  41.332  12.373
40476W        W 2139  22.199  17.731  11.894
40477W        W 2140  17.127   3.435   5.199
40478W        W 2141   3.934   8.793  11.908
40479W        W 2142  10.836   8.807  11.412
40480W        W 2143   4.897  16.684   4.628
40481W        W 2144  23.989  24.091   9.447
40482W        W 2145   3.924  25.554  14.276
40483W        W 2146  36.093   6.734  12.904
40484W        W 2147  16.123  10.324  13.312
40485W        W 2148  16.638  34.595  13.030
40486W        W 2149  40.887  40.941   1.373
40487W        W 2150  32.551  30.473  11.002
40488W        W 2151  34.578  43.436   3.705
40489W        W 2152  16.749   5.894   2.758
40490W        W 2153  30.907  38.959  13.405
40491W        W 2154   5.380   3.230  10.511
40492W        W 2155  22.701  30.515   1.696
40493W        W 2156  32.423   9.274   3.659
40494W        W 2157  25.192  30.617  10.436
40495W        W 2158  10.708  20.591  11.607
40496W        W 2159  27.609  40.541  10.612
40497W        W 2160   9.307  14.199  14.481
40498W        W 2161  19.235  33.599   1.441
40499W        W 2162   1.284  19.204   2.189
40500W        W 2163  44.376  17.631   3.653
40501W        W 2164  20.737   2.285   9.532
40502W        W 2165  17.070  11.673   0.919
40503W        W 2166  12.779   1.837  11.557
40504W        W 2167   1.281  36.462   1.265
40505W        W 2168   1.273   5.749  12.017
40506W        W 2169  32.134  17.600   5.104
40507W        W 2170  26.072  44.931  12.511
40508W        W 2171  34.490  32.415   4.114
40509W        W 2172  23.046  28.031   1.350
40510W        W 2173  17.146  20.181  13.378
40511W        W 2174  15.272  33.441  13.308
40512W        W 2175   3.948  41.799  11.030
40513W        W 2176  40.901  26.951   2.700
40514W        W 2177  24.714  24.724  14.328
40515W        W 2178  12.803  22.524   2.296
40516W        W 2179   0.426  23.100   3.790
40517W        W 2180  14.288  24.707  14.868
40518W        W 2181  24.034  15.579   3.253
40519W        W 2182   0.282  11.331  12.028
40520W        W 2183  25.079  43.982  12.497
40521W        W 2184  30.584  18.217  10.531
40522W        W 2185   9.850  32.612   1.276
40523W        W 2186  42.931  14.197   9.956
40524W        W 2187  19.661  41.911  13.941
40525W        W 2188   8.184  28.637  13.509
40526W        W 2189  26.119   7.858   1.696
40527W        W 2190  14.282  42.471  14.414
40528W        W 2191  15.687  41.868  11.010
40529W        W 2192   5.368   1.874   4.711
40530W        W 2193   9.346  27.550   0.371
40531W        W 2194  32.110  36.929   4.664
40532W        W 2195  34.373  21.750  13.994
40533W        W 2196  30.018  34.963  12.849
40534W        W 2197  13.165  38.028  13.846
40535W        W 2198  28.535  41.402  14.456
40536W        W 2199   0.747  18.241  14.301
40537W        W 2200  16.248   3.736   3.312
40538W        W 2201  13.643  10.844  14.312
40539W        W 2202   3.285  27.568  12.060
40540W        W 2203  29.596  12.309  11.011
40541W        W 2204  37.061  11.298   0.964
40542W        W 2205  29.008  26.149   2.750
40543W        W 2206   4.746  34.054  12.956
40544W        W 2207  31.019  35.541   3.316
40545W        W 2208  26.502  13.656   2.403
40546W        W 2209  44.443   6.691   2.789
40547W        W 2210  17.719  20.705   3.727
40548W        W 2211  15.729   4.888   4.828
40549W        W 2212  28.596  40.351   3.330
40550W        W 2213  13.114  10.700   1.728
40551W        W 2214   6.780   7.821   2.880
40552W        W 2215  33.531  42.313  14.896
40553W        W 2216  15.793  28.502   0.453
40554W        W 2217  11.693  33.957  12.377
40555W        W 2218  44.777   9.351   3.671
40556W        W 2219   2.240  37.475   4.241
40557W        W 2220  18.776   2.838   4.123
40558W        W 2221  38.463  17.726   3.374
40559W        W 2222  41.997  33.589  10.450
40560W        W 2223  43.330  32.595   4.189
40561W        W 2224  32.132  38.509   5.112
40562W        W 2225  30.456  32.915  13.017
40563W        W 2226  41.981  30.072  11.975
40564W        W 2227  20.224  21.077   5.305
40565W        W 2228  11.676  14.664  13.911
40566W        W 2229   2.861  32.546   0.341
40567W        W 2230   2.311  38.069  11.094
40568W        W 2231   7.809   7.404   1.833
40569W        W 2232   6.393  22.611   2.901
40570W        W 2233  26.201   5.833  13.431
40571W        W 2234   2.333  28.514  13.538
40572W        W 2235  39.963  29.493   4.635
40573W        W 2236  19.098  42.013  11.485
40574W        W 2237   2.360  22.716   2.663
40575W        W 2238   3.778  36.992   0.382
40576W        W 2239  32.109   6.410  10.560
40577W        W 2240  25.990  38.400  14.879
40578W        W 2241  17.782  31.453  13.899
40579W        W 2242  34.079  18.090  10.977
40580W        W 2243  36.347  37.943  12.896
40581W        W 2244  16.751   2.367  12.944
40582W        W 2245  19.674   7.819   3.810
40583W        W 2246  11.204  19.108  14.005
40584W        W 2247  16.260  25.641  14.339
40585W        W 2248  28.543  27.620   2.669
40586W        W 2249  21.217  35.903   0.270
40587W        W 2250  23.114  23.640   3.663
40588W        W 2251  19.175  29.610   2.259
40589W        W 2252  12.772  26.178  13.459
40590W        W 2253  26.153   3.451   0.414
40591W        W 2254  27.584  32.531   4.156
40592W        W 2255  36.413   2.384   4.135
40593W        W 2256  13.835  34.525   2.370
40594W        W 2257  31.406  34.400  12.983
40595W        W 2258  25.539  40.880  13.393
40596W        W 2259  44.287  26.458   2.223
40597W        W 2260  41.305  29.084  14.419
40598W        W 2261  36.894   7.712  14.909
40599W        W 2262   4.710  33.542  14.782
40600W        W 2263  22.744  10.697   1.387
40601W        W 2264  34.026  14.238   3.155
40602W        W 2265  40.369  37.354  12.999
40603W        W 2266  41.929   5.791   4.226
40604W        W 2267   7.355  24.506   1.908
40605W        W 2268  36.066  42.294   0.912
40606W        W 2269  43.938   7.272   3.192
40607W        W 2270  13.769  30.589  11.858
40608W        W 2271  12.772  23.518   4.821
40609W        W 2272  38.545  42.918   1.725
40610W        W 2273  20.672  27.130   1.707
40611W        W 2274  18.146  22.025  14.450
40612W        W 2275  19.661  39.047  13.403
40613W        W 2276   5.209  30.497   2.304
40614W        W 2277   4.814   5.790   2.229
40615W        W 2278  31.578  14.822  14.512
40616W        W 2279  34.957  20.113  12.921
40617W        W 2280  28.485  15.703   3.163
40618W        W 2281  12.203  36.358  14.493
40619W        W 2282  33.967  14.299   1.430
40620W        W 2283   9.305  36.000  13.467
40621W        W 2284  29.002  31.134  14.980
40622W        W 2285  44.367  21.565  13.817
40623W        W 2286   9.888  36.066  14.893
40624W        W 2287  20.711  34.055  13.494
40625W        W 2288  25.065  28.144  12.512
40626W        W 2289   8.329  18.157  10.896
40627W        W 2290   1.751  38.336   0.770
40628W        W 2291  43.405  12.700  11.572
40629W        W 2292   8.205   6.420   0.316
40630W        W 2293  32.480   7.829   2.332
40631W        W 2294  33.395  36.874   2.405
40632W        W 2295  11.752  29.483  13.042
40633W        W 2296  31.481  23.229  10.921
40634W        W 2297  25.029  31.001   1.278
40635W        W 2298  18.629  44.395  13.043
40636W        W 2299  29.566   3.217  12.553
40637W        W 2300  31.589   1.429   0.885
40638W        W 2301  24.699  25.537   4.778
40639W        W 2302  18.197  30.622  11.567
40640W        W 2303  18.546  28.955   1.828
40641W        W 2304  10.811  38.351  11.559
40642W        W 2305  31.903  21.582  13.357
40643W        W 2306  39.543  27.025  14.281
40644W        W 2307  27.059  12.775   2.304
40645W        W 2308  36.466  30.634  14.020
40646W        W 2309  26.028   8.892  14.992
40647W        W 2310  19.123  42.447  10.919
40648W        W 2311  40.544  16.791  11.433
40649W        W 2312  15.111  18.152  12.416
40650W        W 2313  36.470  31.928   1.698
40651W        W 2314   1.802  18.603  12.969
40652W        W 2315  28.573  37.836  14.022
40653W        W 2316  42.995  40.473   1.785
40654W        W 2317  32.635  40.863   0.871
40655W        W 2318   2.399  42.295   4.607
40656W        W 2319  11.269  22.102  11.862
40657W        W 2320   5.374  41.463   1.933
40658W        W 2321  35.045   7.210   4.684
40659W        W 2322  13.731  26.523   1.386
40660W        W 2323   2.953   2.956  12.949
40661W        W 2324  34.370  17.622   2.277
40662W        W 2325  32.434  17.575   0.401
40663W        W 2326  23.546  12.657  11.373
40664W        W 2327   4.908  18.214   2.745
40665W        W 2328  32.886  26.557  12.978
40666W        W 2329   4.217  27.467   1.238
40667W        W 2330  20.163  39.457  11.582
40668W        W 2331   2.456  30.090   0.753
40669W        W 2332  21.740  21.546  13.357
40670W        W 2333   7.323  24.648   2.779
40671W        W 2334  23.713  29.150  11.874
40672W        W 2335  43.908   5.249   1.218
40673W        W 2336   2.929  18.753   3.326
40674W        W 2337  29.534  39.036   2.259
40675W        W 2338   2.316  38.009  13.359
40676W        W 2339  42.003   2.871  12.578
40677W        W 2340  30.511  21.754  10.545
40678W        W 2341  44.934  35.860  12.939
40679W        W 2342   8.165  25.497  12.516
40680W        W 2343  20.615   9.784  11.033
40681W        W 2344   9.646  28.002  13.453
40682W        W 2345  30.001   9.837   4.669
40683W        W 2346  28.489   9.659   2.869
40684W        W 2347   6.200  33.573   9.986
40685W        W 2348  38.421  22.056   0.878
40686W        W 2349   7.280  44.332   0.919
40687W        W 2350   6.399  22.052  10.568
40688W        W 2351  33.020  19.163  14.976
40689W        W 2352  25.714   1.406  13.322
40690W        W 2353   4.875   9.701   1.365
40691W        W 2354  36.544   5.902  12.074
40692W        W 2355   7.388  43.976  14.420
40693W        W 2356  39.480  13.123  12.907
40694W        W 2357  14.327  41.845   1.697
40695W        W 2358  31.476  25.600   1.928
40696W        W 2359  22.030  22.693  10.445
40697W        W 2360   6.681  29.511   2.403
40698W        W 2361  32.008   6.237   0.328
40699W        W 2362  34.912  43.276  10.414
40700W        W 2363  41.820  21.227   5.219
40701W        W 2364  19.146  43.839   2.192
40702W        W 2365  20.220  44.476   3.264
40703W        W 2366  10.640   7.351   3.285
40704W        W 2367   6.194   3.733  14.364
40705W        W 2368  34.971  29.127  13.811
40706W        W 2369  42.359  21.690  14.902
40707W        W 2370   9.702  34.607   0.750
40708W        W 2371  35.416  35.093  12.468
40709W        W 2372  43.807  26.142   1.922
40710W        W 2373  17.720   4.920  10.893
40711W        W 2374  15.177  22.176   4.603
40712W        W 2375  10.222  44.892  14.395
40713W        W 2376  36.076   8.841   2.367
40714W        W 2377  43.001   4.908   2.730
40715W        W 2378  32.048  20.684  11.919
40716W        W 2379   3.739  36.462  14.813
40717W        W 2380  16.263  24.564   4.221
40718W        W 2381  14.341  35.093  10.465
40719W        W 2382  44.769  14.325  11.413
40720W        W 2383   6.255  30.158   4.692
40721W        W 2384  20.584  29.614  12.998
40722W        W 2385  25.021   2.348  14.335
40723W        W 2386  17.714  43.941   4.653
40724W        W 2387  44.956  20.544   0.885
40725W        W 2388   4.726  38.422   2.258
40726W        W 2389  16.104  21.731  13.414
40727W        W 2390   5.839  10.196   0.848
40728W        W 2391  19.230  10.877  11.961
40729W        W 2392  11.692  11.310  10.450
40730W        W 2393  16.740  19.055  11.981
40731W        W 2394   6.358  39.319   0.880
40732W        W 2395  31.619   4.417  12.035
40733W        W 2396  33.564   5.314   4.222
40734W        W 2397  29.115   1.931  12.416
40735W        W 2398  27.976  16.148   2.393
40736W        W 2399  41.884  30.044   1.852
40737W        W 2400  27.680  18.694   1.448
40738W        W 2401  43.934  44.332  11.441
40739W        W 2402  32.502  42.979  11.532
40740W        W 2403  26.607  17.703  14.001
40741W        W 2404  44.851  17.181  12.578
40742W        W 2405  21.118   3.374   2.207
40743W        W 2406   8.700  44.393   0.943
40744W        W 2407  43.981  42.879  13.006
40745W        W 2408  31.071  32.443  13.949
40746W        W 2409  26.967   2.779  12.087
40747W        W 2410  43.859  27.691  14.920
40748W        W 2411  29.946   3.234   2.764
40749W        W 2412  15.306   6.321   4.317
40750W        W 2413  23.722   5.389   0.438
40751W        W 2414  31.081  22.581   4.345
40752W        W 2415   2.850  29.992   2.799
40753W        W 2416  30.527  30.033  13.026
40754W        W 2417  35.448   5.708   1.390
40755W        W 2418  20.744  15.239   3.820
40756W        W 2419  35.980  38.003   3.211
40757W        W 2420  30.165  32.141   4.273
40758W        W 2421   7.236  43.362  11.447
40759W        W 2422   8.745  37.834   0.413
40760W        W 2423   5.812  15.310   0.782
40761W        W 2424  10.212   7.690   3.316
40762W        W 2425   2.789  28.462   3.717
40763W        W 2426   3.750  37.508   5.263
40764W        W 2427  35.088  27.449   2.342
40765W        W 2428   9.802   2.805  13.826
40766W        W 2429  21.727   8.844   3.167
40767W        W 2430  34.895  36.025   1.928
40768W        W 2431  29.999  41.431  13.525
40769W        W 2432  28.104  32.593   2.735
40770W        W 2433   9.238  16.658   3.300
40771W        W 2434  25.217   7.417  11.469
40772W        W 2435  36.459  14.687   0.342
40773W        W 2436   9.804  28.023   3.642
40774W        W 2437  14.140  30.455  13.851
40775W        W 2438  40.319  43.332   1.387
40776W        W 2439  22.068  13.191  13.464
40777W        W 2440   8.171  40.045  11.034
40778W        W 2441  30.024  20.139  12.509
40779W        W 2442  16.094  41.039   0.732
40780W        W 2443  18.073  26.953  12.046
40781W        W 2444  44.447  30.461  14.322
40782W        W 2445  42.319  25.472  11.069
40783W        W 2446   5.232   0.303   2.801
40784W        W 2447   0.449  41.315  12.574
40785W        W 2448  23.640  36.092   0.306
40786W        W 2449  35.909  35.999   3.252
40787W        W 2450  37.913  30.028   2.216
40788W        W 2451  30.651   8.202  10.436
40789W        W 2452  30.117   6.723  14.800
40790W        W 2453  44.905  30.090   0.737
40791W        W 2454  37.565  20.688  13.959
40792W        W 2455  36.909  12.158   3.637
40793W        W 2456  17.230  17.674   0.770
40794W        W 2457   5.355  30.140   1.852
40795W        W 2458  16.210  31.588   1.256
40796W        W 2459  29.081   2.885   3.342
40797W        W 2460  14.823  39.960   3.632
40798W        W 2461  23.095   1.331  11.048
40799W        W 2462   6.745  44.995  14.341
40800W        W 2463  39.506   9.273   0.470
40801W        W 2464  21.561  36.042   1.297
40802W        W 2465  20.138  36.843  11.043
40803W        W 2466  31.619   2.901  14.422
40804W        W 2467  29.072  33.553  10.644
40805W        W 2468  18.105  44.773   1.786
40806W        W 2469  12.210  21.247  11.436
40807W        W 2470  24.125  33.413   4.167
40808W        W 2471   6.420  11.350   2.882
40809W        W 2472  23.622  12.328   3.197
40810W        W 2473  37.530   2.926   3.355
40811W        W 2474  36.456   9.796  12.517
40812W        W 2475  21.638  17.150  10.416
40813W        W 2476  32.111  17.782   9.964
40814W        W 2477  42.859  12.141   2.290
40815W        W 2478   6.388   9.207  11.569
40816W        W 2479   7.682  10.740  12.918
40817W        W 2480   5.820  35.920   1.350
40818W        W 2481  32.459  36.853   3.183
40819W        W 2482  13.635  18.154   1.367
40820W        W 2483   0.364  15.615   1.862
40821W        W 2484  44.983  32.053  12.384
40822W        W 2485  16.584  36.395  13.349
40823W        W 2486  43.865  19.121   3.822
40824W        W 2487  17.737  44.885   1.751
40825W        W 2488  34.483  22.594   1.245
40826W        W 2489  15.198   1.431   4.298
40827W        W 2490  42.886  27.658  12.894
40828W        W 2491  33.433  36.024  11.588
40829W        W 2492  33.957  23.575   0.803
40830W        W 2493  29.984  44.859   4.731
40831W        W 2494  36.924   7.796   3.645
40832W        W 2495  14.314   5.840  14.859
40833W        W 2496  27.453   8.862   1.340
40834W        W 2497  31.005  36.974  13.364
40835W        W 2498  31.067  37.337  12.465
40836W        W 2499  22.532  30.078   1.881
40837W        W 2500  41.390  15.699   1.259
40838W        W 2501  29.002  15.756   3.717
40839W        W 2502  18.167  27.686  12.925
40840W        W 2503  13.603   8.697   2.823
40841W        W 2504   2.436  44.450   0.727
40842W        W 2505  12.183  36.482   3.662
40843W        W 2506  10.810  37.414   0.929
40844W        W 2507  13.259  12.664   3.686
40845W        W 2508  34.530   9.151  12.872
40846W        W 2509  20.587  18.648   4.758
40847W        W 2510  34.477  16.710  13.348
40848W        W 2511   4.261   2.749  14.023
40849W        W 2512  31.452  42.031   4.351
40850W        W 2513  42.372   4.393  13.330
40851W        W 2514  26.512  42.395   3.306
40852W        W 2515  33.047  36.371  14.359
40853W        W 2516  44.993  39.437  10.952
40854W        W 2517  38.959  31.954  11.454
40855W        W 2518  40.838  22.025  10.981
40856W        W 2519  36.480  20.127   4.285
40857W        W 2520  34.578   2.298  13.329
40858W        W 2521  36.409   7.355  11.890
40859W        W 2522  38.361  20.120  12.087
40860W        W 2523  14.715  22.215   3.179
40861W        W 2524  42.026  10.761   0.266
40862W        W 2525  12.728  41.407   1.389
40863W        W 2526  41.792  43.321  13.546
40864W        W 2527  12.215  22.719   4.172
40865W        W 2528  33.453  24.122   1.292
40866W        W 2529  22.548  18.278   0.770
40867W        W 2530  26.500   6.276  12.834
40868W        W 2531  20.129  29.469  12.386
40869W        W 2532  39.948  28.483  11.416
40870W        W 2533   2.777  39.506  14.419
40871W        W 2534  20.665  38.039   4.301
40872W        W 2535  15.760  11.629  11.056
40873W        W 2536  19.643  43.808  11.112
40874W        W 2537  23.001  34.901  10.484
40875W        W 2538   2.896  27.653  10.495
40876W        W 2539   6.286  37.845  11.391
40877W        W 2540   1.941  14.668  14.369
40878W        W 2541  19.225  30.634   4.638
40879W        W 2542  15.129  11.227   4.148
40880W        W 2543   2.336   7.741   0.458
40881W        W 2544  17.654   0.491  10.571
40882W        W 2545  12.361   0.757   4.663
40883W        W 2546  39.854  11.777  13.332
40884W        W 2547  26.507  35.474   4.165
40885W        W 2548  39.431  26.004   1.262
40886W        W 2549  24.581   8.163  11.978
40887W        W 2550   0.429   0.755  13.859
40888W        W 2551  15.769   8.224   2.409
40889W        W 2552  17.253  22.155   3.779
40890W        W 2553  12.260  29.977  12.948
40891W        W 2554  41.892   1.762  13.809
40892W        W 2555  34.507  27.016   4.823
40893W        W 2556   7.726  10.312  11.084
40894W        W 2557   7.233  40.912   4.737
40895W        W 2558  15.756   4.857   1.720
40896W        W 2559  28.973  15.662  14.925
40897W        W 2560  19.050  33.435  12.059
40898W        W 2561  11.253   2.949  12.509
40899W        W 2562  35.057  35.884  12.428
40900W        W 2563  12.180  23.633   3.180
40901W        W 2564  26.505  40.397  13.514
40902W        W 2565  38.549  16.177  11.440
40903W        W 2566  41.531  35.560   2.294
40904W        W 2567  39.026  44.460   3.253
40905W        W 2568   5.322  39.474   2.222
40906W        W 2569  42.960  37.415  14.791
40907W        W 2570  40.809   1.969   2.377
40908W        W 2571   3.275  31.921  11.417
40909W        W 2572  32.893  38.909  13.025
40910W        W 2573   1.396  24.214  14.335
40911W        W 2574  42.283  18.165  13.036
40912W        W 2575  35.863   2.770   1.430
40913W        W 2576   7.242  40.994  11.439
40914W        W 2577  12.122   9.800  13.359
40915W        W 2578  15.744  13.154  13.389
40916W        W 2579   4.390  41.382  13.474
40917W        W 2580  10.837  22.529   2.723
40918W        W 2581  25.698  11.159   4.327
40919W        W 2582  22.024  36.569   2.702
40920W        W 2583   8.757  39.924   1.795
40921W        W 2584  11.191  42.445  10.953
40922W        W 2585  18.584   9.319  14.883
40923W        W 2586  28.633  10.646   1.271
40924W        W 2587  34.521  34.448  12.838
40925W        W 2588  32.466   5.331  10.148
40926W        W 2589   9.239  41.427   3.376
40927W        W 2590  23.027  34.393   1.243
40928W        W 2591  33.428  14.214  10.562
40929W        W 2592   1.239  22.730  13.475
40930W        W 2593  42.431  16.691  14.972
40931W        W 2594  37.048  36.926  12.462
40932W        W 2595   9.361  23.567  12.842
40933W        W 2596  43.478  39.480   1.319
40934W        W 2597  44.761  31.437   0.939
40935W        W 2598  19.131  29.956  13.810
40936W        W 2599  26.461  39.911   2.763
40937W        W 2600  11.173  36.022   0.792
40938W        W 2601   8.198  23.161  13.946
40939W        W 2602  32.635  36.068   1.864
40940W        W 2603  23.561  22.051  13.427
40941W        W 2604  13.184  27.099  14.439
40942W        W 2605   4.879   1.254   3.187
40943W        W 2606   6.399  39.899   1.240
40944W        W 2607  11.676   9.780  14.769
40945W        W 2608  36.387  22.169   2.299
40946W        W 2609  26.057  31.412  13.457
40947W        W 2610  25.083  18.616  13.418
40948W        W 2611  41.389  24.046   1.349
40949W        W 2612  14.756  34.089   0.248
40950W        W 2613  18.760  23.658   3.302
40951W        W 2614  34.426  40.423   0.951
40952W        W 2615  41.314  42.475  13.955
40953W        W 2616  38.470  39.316  12.448
40954W        W 2617  23.151   6.919  10.445
40955W        W 2618  21.064   5.832  10.490
40956W        W 2619   7.696   1.330  13.327
40957W        W 2620  17.257  33.497  12.450
40958W        W 2621  42.479   6.228   3.653
40959W        W 2622  26.482  11.232   9.959
40960W        W 2623   8.208  17.687   2.730
40961W        W 2624  12.765  15.271   0.445
40962W        W 2625  44.992  23.203   0.914
40963W        W 2626  26.608  24.173   0.768
40964W        W 2627   6.905  29.454  14.414
40965W        W 2628  26.456  29.643  13.983
40966W        W 2629   9.337  28.548   1.351
40967W        W 2630  36.028  39.031   2.841
40968W        W 2631   7.902   5.798  11.561
40969W        W 2632   3.754  30.041   4.644
40970W        W 2633   3.275  24.577   0.853
40971W        W 2634   0.451  37.050   1.322
40972W        W 2635  42.839  44.805   2.336
40973W        W 2636  32.020  15.737  11.998
40974W        W 2637   6.807  10.225  13.458
40975W        W 2638   5.770  26.038   2.189
40976W        W 2639  42.026  23.080   3.230
40977W        W 2640  23.991  16.137  11.601
40978W        W 2641   3.356  23.158  12.062
40979W        W 2642   3.785  18.190  11.881
40980W        W 2643  27.972  19.115   2.694
40981W        W 2644  10.650  34.471  13.954
40982W        W 2645   2.307  16.763   1.241
40983W        W 2646  19.238  14.626  14.368
40984W        W 2647  36.515   6.694   0.886
40985W        W 2648   0.915  43.292   2.792
40986W        W 2649  35.408  20.172  11.981
40987W        W 2650  36.544  20.700   1.775
40988W        W 2651  22.564   3.251  14.436
40989W        W 2652  38.841  33.080   3.832
40990W        W 2653  30.590   1.924  14.793
40991W        W 2654   8.253  41.922   0.908
40992W        W 2655  36.391  27.015   4.624
40993W        W 2656  22.120  14.122   3.761
40994W        W 2657  22.711   5.308  13.486
40995W        W 2658  14.809  14.685   4.311
40996W        W 2659  14.235   4.315  11.125
40997W        W 2660   8.750  31.152   5.103
40998W        W 2661  44.906  17.699  13.983
40999W        W 2662  28.179  41.922   0.260
41000W        W 2663  35.017  34.410   3.756
41001W        W 2664   1.247  10.746  11.065
41002W        W 2665  12.352  28.554   4.655
41003W        W 2666  14.195  31.938  13.425
41004W        W 2667  37.536   3.331  14.412
41005W        W 2668  32.964  10.296   1.279
41006W        W 2669   7.226  30.588  12.836
41007W        W 2670  29.630   7.189  14.905
41008W        W 2671   2.957  37.054   4.169
41009W        W 2672  18.173  35.530   1.399
41010W        W 2673  17.732  22.552  11.875
41011W        W 2674  35.572   4.372  12.004
41012W        W 2675  44.812  37.487   1.381
41013W        W 2676   7.903   6.698  14.800
41014W        W 2677  40.862  30.057   3.158
41015W        W 2678  15.627  39.916   4.251
41016W        W 2679  18.783  43.389  14.019
41017W        W 2680  39.353   4.880  11.586
41018W        W 2681  23.586  27.598   2.897
41019W        W 2682  30.593  18.190   5.291
41020W        W 2683  24.606  36.377   2.666
41021W        W 2684  43.908  36.460   3.870
41022W        W 2685   2.906   4.819   0.891
41023W        W 2686  18.192  34.459   1.238
41024W        W 2687  41.298  17.658  12.065
41025W        W 2688  15.706  34.872   3.329
41026W        W 2689  41.329  28.504  14.305
41027W        W 2690  40.390  20.666   2.756
41028W        W 2691   2.395  35.422   4.182
41029W        W 2692  13.345   7.813   5.766
41030W        W 2693  37.987  23.661   2.699
41031W        W 2694  40.498  26.564   9.921
41032W        W 2695  23.588  25.650  14.388
41033W        W 2696  29.062   5.439   2.762
41034W        W 2697   5.862  33.624   1.908
41035W        W 2698  23.732  36.529   4.333
41036W        W 2699  39.363   2.322  11.002
41037W        W 2700  14.190  18.583  12.920
41038W        W 2701  19.254  27.088   2.281
41039W        W 2702  33.122  22.013   2.810
41040W        W 2703  13.747  21.176   3.328
41041W        W 2704  43.303  37.974  12.021
41042W        W 2705  41.865  43.299  12.443
41043W        W 2706  38.863  33.115  14.965
41044W        W 2707   8.819  33.403   3.660
41045W        W 2708   5.411  30.467   1.401
41046W        W 2709  20.715  22.598   4.759
41047W        W 2710  13.693  28.560   0.917
41048W        W 2711  33.447  37.406   3.668
41049W        W 2712  40.323   4.354   2.238
41050W        W 2713  27.099  35.016  10.644
41051W        W 2714  29.572  12.736   1.837
41052W        W 2715  23.151  13.675  13.366
41053W        W 2716  21.143  13.280  11.974
41054W        W 2717  21.213  18.205   4.306
41055W        W 2718  36.992  43.514   1.787
41056W        W 2719   5.358  40.352   0.435
41057W        W 2720   1.335  40.806  10.975
41058W        W 2721  30.943  19.220  13.995
41059W        W 2722  30.112  28.118  14.931
41060W        W 2723  12.117  19.757   1.231
41061W        W 2724  15.321  21.147  13.825
41062W        W 2725  19.195  44.322   2.893
41063W        W 2726   8.749  12.632  13.061
41064W        W 2727   4.822  16.112   3.229
41065W        W 2728  30.922  13.822   0.300
41066W        W 2729  40.008  42.507   4.771
41067W        W 2730   1.376  34.409   3.747
41068W        W 2731  30.147  39.894  14.989
41069W        W 2732  29.175  37.514   1.434
41070W        W 2733  17.084   8.845  12.013
41071W        W 2734   4.931   7.846  12.899
41072W        W 2735  13.133  28.121   0.937
41073W        W 2736  24.594   4.721   2.758
41074W        W 2737   9.847   2.847   0.337
41075W        W 2738  34.414   2.420  11.521
41076W        W 2739  13.764  21.676   3.635
41077W        W 2740  39.842   2.962  14.392
41078W        W 2741   4.922  36.059  12.443
41079W        W 2742  35.377  43.325  13.904
41080W        W 2743  44.379  32.923   9.986
41081W        W 2744  35.544  35.512  14.376
41082W        W 2745  22.631  26.624   4.247
41083W        W 2746  37.975  12.839  13.024
41084W        W 2747  18.241  35.422   0.933
41085W        W 2748  44.797  28.136   4.182
41086W        W 2749  28.605  38.024   3.689
41087W        W 2750  37.864   7.204   4.671
41088W        W 2751  27.691   8.339   3.315
41089W        W 2752  10.162  21.144  11.084
41090W        W 2753  26.480  26.626   3.316
41091W        W 2754  31.402  25.492   2.283
41092W        W 2755  17.140   9.839   3.838
41093W        W 2756   9.656  37.390  11.892
41094W        W 2757   9.829  25.553  11.489
41095W        W 2758  38.533  31.420  13.895
41096W        W 2759   1.413  40.418  11.944
41097W        W 2760  27.662  30.108  13.978
41098W        W 2761  16.195  38.996  12.572
41099W        W 2762  11.678  29.536  14.498
41100W        W 2763  14.118  32.062  13.874
41101W        W 2764  23.986  15.091  10.452
41102W        W 2765   5.910   6.426  14.298
41103W        W 2766  25.972  11.649  14.334
41104W        W 2767  33.438   8.690   3.804
41105W        W 2768  36.084   8.231   4.734
41106W        W 2769  18.778  33.543   0.762
41107W        W 2770  13.294   2.953   3.650
41108W        W 2771   5.406  10.843   4.664
41109W        W 2772  30.076  22.746   2.217
41110W        W 2773  28.483  12.731  13.436
41111W        W 2774  18.713  26.186  13.504
41112W        W 2775   7.749  34.592   2.857
41113W        W 2776  29.561  12.261  13.379
41114W        W 2777  15.290  40.433   3.810
41115W        W 2778  27.078   2.395  11.027
41116W        W 2779  39.014  21.157  14.805
41117W        W 2780  44.830   5.765  12.388
41118W        W 2781  31.092  30.984   4.290
41119W        W 2782  25.573  34.406  12.343
41120W        W 2783  28.447  17.156   3.654
41121W        W 2784  35.483  34.921  11.901
41122W        W 2785  34.966  15.621   1.747
41123W        W 2786  43.882  38.360  12.411
41124W        W 2787  11.358  17.687   2.345
41125W        W 2788  38.411  38.992   1.839
41126W        W 2789  26.001  11.657  13.962
41127W        W 2790   5.729   8.675  13.002
41128W        W 2791  16.719  26.989  10.566
41129W        W 2792  35.365  43.880   4.818
41130W        W 2793  38.949  12.630  10.532
41131W        W 2794   3.946  17.697   3.735
41132W        W 2795  42.504   4.268  11.558
41133W        W 2796  10.200  32.906   2.396
41134W        W 2797  29.512   8.181  12.854
41135W        W 2798  27.041   8.383  11.543
41136W        W 2799  16.773  42.930  11.373
41137W        W 2800  42.333   5.753  10.933
41138W        W 2801  25.571  13.248  14.343
41139W        W 2802  36.429  32.501   1.239
41140W        W 2803   1.416  37.521  11.510
41141W        W 2804  13.167   0.922   0.726
41142W        W 2805  24.682  41.012   0.914
41143W        W 2806  18.564  28.082  11.990
41144W        W 2807  23.599  23.012   3.704
41145W        W 2808  28.531   6.334   0.452
41146W        W 2809  24.017  30.152  10.897
41147W        W 2810  31.463  26.133   4.670
41148W        W 2811  14.289  27.653  11.452
41149W        W 2812  10.264  19.167   2.377
41150W        W 2813  35.600   5.787  14.777
41151W        W 2814  23.142  42.484   3.322
41152W        W 2815  22.133  44.444   3.234
41153W        W 2816  32.555  16.214   2.261
41154W        W 2817  41.429   4.898   1.401
41155W        W 2818  44.820  11.650  14.409
41156W        W 2819   5.886  20.213  12.380
41157W        W 2820   9.785  38.972  11.927
41158W        W 2821  40.346  27.666   3.780
41159W        W 2822  35.101  43.004  12.948
41160W        W 2823   8.761  22.108   9.943
41161W        W 2824  15.740  28.462  11.573
41162W        W 2825  18.749  17.592   3.202
41163W        W 2826  14.792  44.475   4.823
41164W        W 2827  35.867  10.849  12.541
41165W        W 2828  20.162  39.883   3.378
41166W        W 2829  34.950  12.227   3.715
41167W        W 2830  19.538   1.810  12.896
41168W        W 2831  42.937   0.485  13.443
41169W        W 2832  25.596   3.915  13.356
41170W        W 2833  13.728  31.504  10.496
41171W        W 2834  17.301  16.267  14.017
41172W        W 2835  42.484   1.285  12.959
41173W        W 2836  41.023  18.593  11.101
41174W        W 2837  21.225  27.659  10.565
41175W        W 2838  21.178  28.158  11.950
41176W        W 2839  13.831  40.530   1.345
41177W        W 2840  25.130  15.805  11.972
41178W        W 2841  31.141  39.373  11.609
41179W        W 2842  18.205  15.219  13.996
41180W        W 2843  42.416  38.476   2.786
41181W        W 2844  28.134  35.546  12.551
41182W        W 2845  22.126   5.382  14.954
41183W        W 2846  22.104  31.902   2.773
41184W        W 2847  21.231  32.032   3.643
41185W        W 2848  34.943  32.913  10.576
41186W        W 2849  18.553  42.017   3.842
41187W        W 2850  41.889  11.807  12.555
41188W        W 2851   3.225  24.591  10.489
41189W        W 2852  21.126  15.734   1.276
41190W        W 2853  39.475  37.924   4.620
41191W        W 2854  16.739   1.794  13.059
41192W        W 2855  41.925   5.208   0.321
41193W        W 2856  40.501  18.620  14.428
41194W        W 2857   9.722  12.753   2.786
41195W        W 2858  25.691   6.343   3.276
41196W        W 2859  43.389  32.494  14.454
41197W        W 2860  27.999  14.699   4.621
41198W        W 2861  21.529  37.879  14.275
41199W        W 2862  22.077  29.026  11.558
41200W        W 2863  20.051  11.733  10.503
41201W        W 2864  30.576  15.311  11.478
41202W        W 2865  19.568  20.677  12.093
41203W        W 2866  24.014   9.667  11.374
41204W        W 2867  15.261  35.086   4.669
41205W        W 2868  17.642  17.125   1.253
41206W        W 2869   0.327  24.606   4.640
41207W        W 2870  26.604  28.163  10.559
41208W        W 2871  39.930   9.394  12.463
41209W        W 2872  10.828  16.699   2.404
41210W        W 2873  39.045  42.786  11.948
41211W        W 2874   7.691  20.044   4.227
41212W        W 2875  44.263  41.348   0.847
41213W        W 2876  12.836  44.790  12.552
41214W        W 2877  33.536  33.970   2.284
41215W        W 2878  25.531   3.255  14.992
41216W        W 2879   6.880   8.780  13.893
41217W        W 2880  42.293  36.532   4.665
41218W        W 2881   4.888  34.917   4.155
41219W        W 2882  26.130   9.698  14.446
41220W        W 2883  19.262  38.492   0.351
41221W        W 2884  43.389   3.402  14.425
41222W        W 2885   0.365  44.422  13.033
41223W        W 2886  17.791   9.372   3.188
41224W        W 2887  16.145  43.851   4.300
41225W        W 2888  19.555  12.825  12.935
41226W        W 2889   7.794  38.486   3.188
41227W        W 2890   7.869  39.991  12.832
41228W        W 2891  32.413   5.893   3.230
41229W        W 2892  14.328   4.344  13.933
41230W        W 2893  30.149   4.262  12.034
41231W        W 2894  37.417  18.690  13.054
41232W        W 2895  34.565  24.519  13.531
41233W        W 2896   0.440  18.564   0.812
41234W        W 2897  24.505  38.936  14.027
41235W        W 2898   1.749  44.345   1.268
41236W        W 2899   5.282  32.900   2.696
41237W        W 2900  34.014  38.521   2.761
41238W        W 2901   7.288  44.350   0.249
41239W        W 2902   9.668  29.515  11.885
41240W        W 2903  31.123  21.533   1.838
41241W        W 2904  27.183  27.150  12.955
41242W        W 2905  35.373  34.951   1.780
41243W        W 2906  27.460  44.457  14.004
41244W        W 2907  35.921  11.649  13.999
41245W        W 2908   9.152  15.280   4.629
41246W        W 2909  11.313   8.191   0.273
41247W        W 2910  40.875  38.558  12.940
41248W        W 2911  27.089  25.684   3.814
41249W        W 2912  32.073   8.825   2.412
41250W        W 2913  40.857  13.351   0.827
41251W        W 2914  24.975  30.477  11.380
41252W        W 2915  26.018   5.393   2.853
41253W        W 2916  24.066  20.589  12.381
41254W        W 2917  43.302  43.408  13.340
41255W        W 2918  39.527  28.007  11.552
41256W        W 2919  20.738   5.884  11.128
41257W        W 2920  16.737  22.217  12.082
41258W        W 2921  38.396   9.748   1.852
41259W        W 2922  32.631  34.873  13.308
41260W        W 2923  28.011  25.692   1.265
41261W        W 2924  42.888   7.742   2.255
41262W        W 2925  31.980  37.975  12.065
41263W        W 2926  30.590  20.179   5.671
41264W        W 2927  14.310   8.672   2.889
41265W        W 2928  19.282  29.066   3.837
41266W        W 2929  40.516  24.023   0.742
41267W        W 2930  29.995  30.541   3.641
41268W        W 2931  31.015  23.125   2.296
41269W        W 2932  39.393  38.994  10.605
41270W        W 2933   4.242   9.321   0.297
41271W        W 2934  36.980  12.834   3.646
41272W        W 2935   2.418  29.011  14.400
41273W        W 2936  38.869  41.377   4.768
41274W        W 2937  28.032  25.660  13.956
41275W        W 2938  39.881  10.244  11.071
41276W        W 2939   5.348  39.977   1.329
41277W        W 2940  14.710  29.988  12.084
41278W        W 2941  23.015   3.269   3.176
41279W        W 2942  12.209  40.446  11.987
41280W        W 2943  18.262   4.246  11.872
41281W        W 2944  25.701  22.236   3.682
41282W        W 2945  44.911  35.562  10.902
41283W        W 2946  35.456  32.138   4.794
41284W        W 2947   9.171  20.203   1.861
41285W        W 2948  20.209  42.009  12.493
41286W        W 2949  33.914   0.905  14.777
41287W        W 2950  39.916   0.984   2.895
41288W        W 2951  37.034  11.155  12.825
41289W        W 2952  35.888  27.109   2.818
41290W        W 2953  10.337  10.842  11.963
41291W        W 2954  34.379  38.917  10.591
41292W        W 2955  21.256   0.851  11.389
41293W        W 2956  14.638  27.568  12.006
41294W        W 2957   5.906  14.291  13.893
41295W        W 2958  27.035  11.702  14.315
41296W        W 2959  25.628  42.366  12.577
41297W        W 2960  12.333  42.488   3.365
41298W        W 2961   4.275  44.326   2.235
41299W        W 2962   2.258  13.774   0.271
41300W        W 2963  38.492  24.005   3.243
41301W        W 2964  11.195  13.346  13.481
41302W        W 2965  42.976   5.234   3.200
41303W        W 2966  20.752  19.062  13.822
41304W        W 2967  34.992  37.050   2.716
41305W        W 2968  26.970  31.919  11.087
41306W        W 2969   2.913  17.245  11.499
41307W        W 2970  23.517  22.604   9.553
41308W        W 2971   3.432  35.942   0.774
41309W        W 2972   6.692   6.418  10.977
41310W        W 2973   3.892  27.508   4.711
41311W        W 2974  42.926  16.703   2.231
41312W        W 2975  26.534  42.436  10.052
41313W        W 2976  43.995  37.484   0.930
41314W        W 2977  38.050  43.964   1.374
41315W        W 2978  37.923  16.612   2.819
41316W        W 2979  18.591  13.633   3.354
41317W        W 2980  20.179  37.553  12.371
41318W        W 2981  29.481  16.115  11.940
41319W        W 2982  41.012  18.114   3.216
41320W        W 2983  21.534   8.218   3.665
41321W        W 2984  27.952  34.040  13.363
41322W        W 2985  15.607  15.328   4.627
41323W        W 2986  38.536  38.522  13.041
41324W        W 2987  14.270  28.973  11.965
41325W        W 2988  14.234  29.923  13.511
41326W        W 2989  34.941  12.756  13.397
41327W        W 2990  24.533  41.999   0.412
41328W        W 2991  38.356  23.236   4.795
41329W        W 2992  17.170   1.437   3.827
41330W        W 2993  19.149   5.731   1.278
41331W        W 2994  14.735  15.782   0.734
41332W        W 2995  37.026   8.740  12.911
41333W        W 2996  41.876  38.889  14.401
41334W        W 2997  31.948   3.433  14.888
41335W        W 2998  15.108  22.061   1.853
41336W        W 2999  32.065  24.217  12.429
41337W        W 3000   1.949   3.899  11.119
41338W        W 3001  33.963  26.584  11.865
41339W        W 3002  10.672  12.355   2.268
41340W        W 3003  44.976  32.100   2.708
41341W        W 3004   4.413   4.424   2.885
41342W        W 3005   2.407  41.813  13.436
41343W        W 3006   4.838  37.003   2.333
41344W        W 3007  21.089  38.546  10.438
41345W        W 3008  34.068   3.745   3.760
41346W        W 3009  13.105   3.945  12.823
41347W        W 3010  36.961  36.055  12.522
41348W        W 3011  32.543   4.224  13.325
41349W        W 3012  13.813  35.955  14.981
41350W        W 3013  41.356  31.567   0.963
41351W        W 3014  28.541  35.919  10.931
41352W        W 3015   3.806   3.371  12.426
41353W        W 3016  32.063  41.926   2.665
41354W        W 3017  22.245  40.321   2.335
41355W        W 3018  12.338  21.078  13.862
41356W        W 3019  40.392  19.631   5.271
41357W        W 3020  19.279  43.454   2.787
41358W        W 3021  18.780   0.263  10.404
41359W        W 3022  41.915  30.656   4.277
41360W        W 3023  30.111  10.252   4.162
41361W        W 3024  36.956   2.910  14.880
41362W        W 3025  15.313  41.514   0.414
41363W        W 3026  13.734  10.676   1.379
41364W        W 3027  29.003   1.875   0.876
41365W        W 3028  42.856  33.513   2.739
41366W        W 3029  16.674  12.780   1.696
41367W        W 3030  40.423  26.139  12.964
41368W        W 3031  40.316  37.061   1.333
41369W        W 3032  43.305  31.595   2.770
41370W        W 3033  24.538  37.540   0.859
41371W        W 3034  37.408   8.276  11.888
41372W        W 3035  25.471  31.036   1.758
41373W        W 3036  27.597  44.969   4.683
41374W        W 3037  35.949  42.330   4.194
41375W        W 3038  42.823   3.803   1.265
41376W        W 3039  22.105  29.033  14.998
41377W        W 3040   6.265  13.295  12.892
41378W        W 3041   8.320   6.835  11.498
41379W        W 3042  26.100  13.805   0.935
41380W        W 3043  43.429   4.907  13.486
41381W        W 3044  43.797   6.744   0.735
41382W        W 3045  40.415  43.325   3.850
41383W        W 3046  14.655  22.109  10.635
41384W        W 3047  27.515  11.308   0.378
41385W        W 3048  34.951  20.082   1.387
41386W        W 3049  36.966   9.264   3.174
41387W        W 3050  42.810   6.857   4.217
41388W        W 3051  19.754   3.894  13.033
41389W        W 3052  39.319  39.472   2.788
41390W        W 3053  22.700  32.483   0.259
41391W        W 3054  30.614  33.610  13.951
41392W        W 3055  40.399  19.170   3.633
41393W        W 3056  39.555  31.535   4.692
41394W        W 3057  27.176   7.288  14.383
41395W        W 3058  34.377  21.598   0.930
41396W        W 3059  39.949   6.320  10.575
41397W        W 3060  33.408   3.232   3.693
41398W        W 3061  16.224   4.881  13.411
41399W        W 3062  26.197  30.542  11.868
41400W        W 3063  43.313  32.563   3.192
41401W        W 3064  28.544  16.732  11.425
41402W        W 3065  10.201  20.564   2.694
41403W        W 3066   7.686  16.647   3.340
41404W        W 3067  26.573  26.545   2.727
41405W        W 3068  40.367   1.907  14.768
41406W        W 3069  33.487   1.237   2.358
41407W        W 3070  43.869  21.135   1.762
41408W        W 3071   3.236  22.677  11.003
41409W        W 3072  29.171  18.169   2.776
41410W        W 3073  44.395  41.306   4.249
41411W        W 3074  31.031  15.106  14.897
41412W        W 3075  33.433  27.448   1.449
41413W        W 3076  19.707  38.899   0.792
41414W        W 3077   2.281  22.053  11.568
41415W        W 3078   7.846  17.731   1.838
41416W        W 3079  33.034  28.151   2.847
41417W        W 3080  37.915  12.673  12.502
41418W        W 3081   1.768  33.105  10.932
41419W        W 3082   1.336  14.695  13.966
41420W        W 3083  19.681  16.228   2.721
41421W        W 3084   5.834  16.158  13.982
41422W        W 3085  17.695  21.072   0.818
41423W        W 3086  44.394  35.942  10.946
41424W        W 3087  43.408  19.636  10.408
41425W        W 3088  36.565   5.711   4.791
41426W        W 3089  21.590  38.896   1.877
41427W        W 3090  27.161   5.293  11.496
41428W        W 3091  20.557  26.502  14.758
41429W        W 3092  10.712  29.004   0.243
41430W        W 3093  33.075  40.972   1.290
41431W        W 3094  23.125  35.439  13.496
41432W        W 3095  35.458  33.948   4.305
41433W        W 3096  31.644  35.429   2.821
41434W        W 3097  41.446  19.658   0.325
41435W        W 3098  23.636   6.320   1.219
41436W        W 3099  17.302   5.395  11.409
41437W        W 3100  20.118   5.852  14.941
41438W        W 3101  41.917  29.971  12.390
41439W        W 3102   7.386  16.174   1.287
41440W        W 3103  22.556   3.919   1.300
41441W        W 3104  33.468   0.383   4.252
41442W        W 3105  33.919  23.502   2.219
41443W        W 3106  27.451  30.937   1.776
41444W        W 3107  12.250   8.368  11.097
41445W        W 3108  18.211  14.611  12.415
41446W        W 3109  10.262   8.765  11.989
41447W        W 3110  20.061   7.710   1.730
41448W        W 3111   1.850   0.923  13.530
41449W        W 3112  12.672  13.330  14.455
41450W        W 3113  33.878  39.389   1.280
41451W        W 3114  26.685  29.559   2.834
41452W        W 3115  15.227  19.048  12.371
41453W        W 3116  15.657  21.045  10.506
41454W        W 3117  22.629  38.449  13.504
41455W        W 3118   1.442   8.773  11.018
41456W        W 3119  10.258  39.961   4.653
41457W        W 3120   3.740   7.185   5.150
41458W        W 3121  36.367  33.470   3.634
41459W        W 3122   7.778  27.453  10.915
41460W        W 3123  41.038  26.677  12.853
41461W        W 3124  34.045  39.965  14.356
41462W        W 3125  25.525  31.110  11.379
41463W        W 3126  22.554   1.872   3.311
41464W        W 3127  27.193  11.255  14.993
41465W        W 3128  19.645   9.160  10.509
41466W        W 3129   9.685  26.514  12.058
41467W        W 3130  13.344  16.790  14.883
41468W        W 3131  30.435   1.821   1.257
41469W        W 3132  31.020   1.969   1.356
41470W        W 3133  28.031   8.281  10.967
41471W        W 3134  10.709  15.663   0.268
41472W        W 3135   6.206  26.497   1.729
41473W        W 3136  40.875  17.672   0.453
41474W        W 3137   0.915   9.833  14.454
41475W        W 3138  34.505  17.686   1.326
41476W        W 3139  13.270  36.583   3.804
41477W        W 3140  11.161   6.217  11.864
41478W        W 3141   7.690  20.555  13.464
41479W        W 3142  15.657  17.637   4.763
41480W        W 3143   7.770   2.745   4.750
41481W        W 3144  22.040   6.804  13.861
41482W        W 3145  31.456  27.143  13.985
41483W        W 3146  27.597  41.863   1.757
41484W        W 3147  40.406  44.820  11.568
41485W        W 3148   9.739  22.597   1.694
41486W        W 3149   9.253  18.776   2.769
41487W        W 3150  15.772  21.685   1.399
41488W        W 3151  24.600  29.078   1.898
41489W        W 3152   0.329  44.779   1.348
41490W        W 3153  15.220  32.548   2.747
41491W        W 3154  34.554  34.987   2.821
41492W        W 3155  19.540  24.218  11.438
41493W        W 3156  21.634  13.627   0.781
41494W        W 3157  17.575  13.802   4.180
41495W        W 3158   4.356  36.445  13.803
41496W        W 3159   4.409   9.755  12.972
41497W        W 3160   4.241   3.372   2.688
41498W        W 3161   7.347  40.538  10.517
41499W        W 3162  24.218  10.662   0.748
41500W        W 3163  43.438  36.874   2.250
41501W        W 3164  40.378  42.794  10.597
41502W        W 3165   3.895  15.092   0.809
41503W        W 3166  15.615  44.288   3.708
41504W        W 3167   4.740  23.710  12.080
41505W        W 3168  25.550  24.601  11.524
41506W        W 3169  38.969  32.564  12.380
41507W        W 3170  24.640  14.673  11.538
41508W        W 3171  22.706  30.154   3.266
41509W        W 3172  32.586  44.920  11.101
41510W        W 3173  32.450  44.343  12.471
41511W        W 3174  22.524   4.357   0.835
41512W        W 3175  27.157   0.929  10.913
41513W        W 3176  37.986  25.061   4.186
41514W        W 3177  29.000  36.011   1.383
41515W        W 3178   2.408   4.441   4.300
41516W        W 3179  24.543  17.175  12.399
41517W        W 3180  16.761  41.977   2.228
41518W        W 3181   7.748  40.443   2.877
41519W        W 3182  13.635   9.337   3.793
41520W        W 3183  41.331   0.974  11.064
41521W        W 3184   1.302   7.906  10.406
41522W        W 3185  28.470  28.536   2.288
41523W        W 3186  21.541  29.923  11.422
41524W        W 3187  16.142  36.563   4.226
41525W        W 3188  37.984  14.102  13.912
41526W        W 3189  43.433  43.772  12.963
41527W        W 3190  12.712  37.894   4.606
41528W        W 3191   1.784  36.892  12.886
41529W        W 3192  43.838  43.483  13.997
41530W        W 3193  36.367  33.478   1.410
41531W        W 3194  16.131  32.487   1.382
41532W        W 3195  33.500  23.197   5.283
41533W        W 3196  29.006  41.947   1.211
41534W        W 3197  18.786  29.071  11.078
41535W        W 3198   3.388   7.206  10.105
41536W        W 3199   9.270  29.000  12.410
41537W        W 3200  18.119   6.871  11.015
41538W        W 3201  42.941  13.328  14.383
41539W        W 3202  32.634   1.957  12.041
41540W        W 3203  28.064   0.984   0.462
41541W        W 3204   6.849  44.469   3.850
41542W        W 3205  21.144  28.942   4.333
41543W        W 3206  38.394  29.159  13.908
41544W        W 3207  44.885  21.697   2.179
41545W        W 3208  39.900  19.704  12.832
41546W        W 3209  29.435  27.191  12.988
41547W        W 3210   8.773  11.174  13.343
41548W        W 3211  35.551  16.680  12.095
41549W        W 3212  29.465   7.705   0.418
41550W        W 3213  31.500  17.571  10.618
41551W        W 3214  28.933   3.361   3.722
41552W        W 3215  33.519  43.510   2.374
41553W        W 3216  13.736   8.721  10.100
41554W        W 3217   2.272  12.646   0.860
41555W        W 3218  30.921  17.156   1.816
41556W        W 3219   5.292  11.181  11.883
41557W        W 3220  15.762  42.030  11.949
41558W        W 3221  41.802  13.702   1.306
41559W        W 3222  21.719  40.436   0.962
41560W        W 3223   3.940   5.414   0.772
41561W        W 3224   4.399  43.488  13.337
41562W        W 3225  23.206  10.226  11.594
41563W        W 3226   9.795  44.334  13.375
41564W        W 3227   7.401  37.363  12.868
41565W        W 3228  42.493  34.911  12.941
41566W        W 3229   7.318  19.138   1.729
41567W        W 3230  37.468  43.787   4.284
41568W        W 3231  38.552  15.578   0.398
41569W        W 3232  14.645  31.441   1.724
41570W        W 3233  15.286  24.645   2.835
41571W        W 3234  20.141  37.547   5.115
41572W        W 3235  17.703  18.257  14.957
41573W        W 3236  18.241  33.401  11.118
41574W        W 3237  14.659  23.619   2.714
41575W        W 3238  23.163   3.364  10.969
41576W        W 3239  20.256  24.196  11.535
41577W        W 3240  39.936  30.057  11.076
41578W        W 3241   8.374  44.878   3.293
41579W        W 3242   2.754   3.235   4.608
41580W        W 3243  23.495   0.912  13.034
41581W        W 3244  12.818  34.539  13.861
41582W        W 3245  12.189   3.782   0.382
41583W        W 3246  34.546  10.790  13.405
41584W        W 3247  12.750  15.194  11.076
41585W        W 3248  19.747  11.727  10.905
41586W        W 3249  34.469   3.812  10.889
41587W        W 3250  23.209   1.863  12.877
41588W        W 3251  33.604  11.241  14.400
41589W        W 3252  31.518   6.874  14.888
41590W        W 3253  26.070   2.746  12.075
41591W        W 3254   7.844  19.264   0.842
41592W        W 3255   2.279  39.003  14.473
41593W        W 3256  29.635  42.789  12.964
41594W        W 3257  41.004  41.531  10.620
41595W        W 3258  32.483   3.848   3.698
41596W        W 3259  29.623  27.582   4.762
41597W        W 3260  18.185  11.701  12.856
41598W        W 3261  32.924  20.226   4.676
41599W        W 3262  30.513   2.340   3.171
41600W        W 3263  22.735  30.041   2.274
41601W        W 3264   8.715  43.855   2.740
41602W        W 3265  23.174  16.680  11.415
41603W        W 3266  28.023   9.377  12.831
41604W        W 3267   7.876  12.312   1.789
41605W        W 3268  28.477   2.314   4.781
41606W        W 3269  24.517  10.343   0.344
41607W        W 3270  23.207   5.335   5.121
41608W        W 3271   9.862  44.415  14.993
41609W        W 3272   3.880  34.384   0.243
41610W        W 3273  36.877   8.770  10.957
41611W        W 3274  27.686  34.872  12.511
41612W        W 3275   9.675  26.540  14.770
41613W        W 3276  35.857  29.041  14.773
41614W        W 3277   3.935   9.681   4.172
41615W        W 3278   7.175  21.574   0.804
41616W        W 3279   5.850  25.087   2.292
41617W        W 3280  43.792  36.961  13.931
41618W        W 3281  17.618  32.919  14.027
41619W        W 3282  25.184  42.475  11.549
41620W        W 3283   6.302  11.688   1.266
41621W        W 3284  25.679  13.194   0.856
41622W        W 3285   6.352  32.122  13.941
41623W        W 3286  36.024   4.822   2.766
41624W        W 3287  20.111  34.558   3.788
41625W        W 3288  22.106  30.427  12.847
41626W        W 3289  25.091   2.276  10.421
41627W        W 3290  42.874  31.985  10.915
41628W        W 3291  42.509  15.111  12.566
41629W        W 3292  40.840  10.185   0.739
41630W        W 3293   6.679  39.831  13.931
41631W        W 3294  20.687  12.333   1.330
41632W        W 3295  44.929  16.670  13.325
41633W        W 3296  28.943   1.448   0.872
41634W        W 3297  13.147  25.175  13.905
41635W        W 3298  17.613   9.710  11.937
41636W        W 3299  33.582  32.444  11.474
41637W        W 3300  20.686  40.308  14.018
41638W        W 3301  26.669  35.075  13.324
41639W        W 3302   1.319  25.485   4.191
41640W        W 3303  32.023  29.047  12.096
41641W        W 3304  32.939  19.180   5.174
41642W        W 3305   3.278  43.815  12.085
41643W        W 3306  23.653  33.964  10.446
41644W        W 3307  15.154   0.745  10.635
41645W        W 3308  33.099  28.929  14.001
41646W        W 3309  10.345  14.187   4.835
41647W        W 3310  10.718   1.439  12.362
41648W        W 3311  19.759  41.443   4.743
41649W        W 3312  10.149   3.725  10.938
41650W        W 3313  26.496   5.208   1.847
41651W        W 3314  28.021  39.316  11.502
41652W        W 3315   2.959  29.174   1.925
41653W        W 3316  12.122  13.151   1.760
41654W        W 3317   7.880  31.545   4.228
41655W        W 3318  28.111  38.544  11.568
41656W        W 3319  43.439   9.230  14.855
41657W        W 3320  29.433  22.132   1.256
41658W        W 3321   6.277  40.348   1.888
41659W        W 3322  20.153  22.502   3.202
41660W        W 3323  44.353  18.148  14.510
41661W        W 3324  42.371  29.046  12.488
41662W        W 3325   6.710  19.534  11.949
41663W        W 3326  12.844   8.398  11.488
41664W        W 3327   3.950  10.709   4.299
41665W        W 3328  13.166  23.522   0.924
41666W        W 3329  11.816   5.731  13.360
41667W        W 3330  20.697  19.049   3.835
41668W        W 3331   3.438  39.321   1.372
41669W        W 3332  34.578   4.821  11.048
41670W        W 3333  17.297   8.861   5.118
41671W        W 3334   8.347  30.559   4.780
41672W        W 3335   8.782   1.476  12.482
41673W        W 3336  25.975  37.039  12.882
41674W        W 3337  12.702   9.758   1.908
41675W        W 3338   8.711   2.964   2.190
41676W        W 3339  43.341  20.667   1.398
41677W        W 3340  16.260  26.113   1.355
41678W        W 3341  10.739  12.658  13.500
41679W        W 3342  20.637  27.180  11.907
41680W        W 3343   8.383   6.764  11.127
41681W        W 3344  22.095  26.537   4.656
41682W        W 3345  35.100  17.069   5.196
41683W        W 3346  20.156  34.945  12.544
41684W        W 3347   5.774  44.992  12.866
41685W        W 3348  35.038  21.075   2.403
41686W        W 3349  26.193  35.584   3.313
41687W        W 3350  28.571  12.717  14.860
41688W        W 3351   3.459  43.491  11.060
41689W        W 3352  39.368  31.527   4.283
41690W        W 3353  16.189   8.310  12.958
41691W        W 3354  13.643   5.240  12.908
41692W        W 3355   6.692   5.314   1.391
41693W        W 3356  42.461  43.309  10.912
41694W        W 3357  35.021   7.851   2.826
41695W        W 3358  26.596   1.948   0.344
41696W        W 3359   0.803  27.672   1.824
41697W        W 3360  43.489  44.398   3.859
41698W        W 3361  37.930  23.984   2.213
41699W        W 3362  42.335   7.187   2.200
41700W        W 3363   8.843  40.876   2.728
41701W        W 3364  39.870  26.553   4.618
41702W        W 3365  29.552  43.907  11.509
41703W        W 3366   4.241  29.552  13.540
41704W        W 3367  40.375  10.155  14.028
41705W        W 3368  14.249  38.366   0.742
41706W        W 3369  14.627  42.913   1.421
41707W        W 3370  35.561  31.982   0.439
41708W        W 3371  38.457   0.417   2.802
41709W        W 3372  20.668  37.444   3.163
41710W        W 3373  12.648   1.860   4.700
41711W        W 3374  34.447  17.285   0.829
41712W        W 3375  19.258  13.840  13.541
41713W        W 3376  22.713  31.899  11.471
41714W        W 3377  14.590  41.395   1.313
41715W        W 3378  23.046  26.070  12.953
41716W        W 3379  10.789  15.229  12.933
41717W        W 3380  15.240   3.880  12.563
41718W        W 3381  23.138  12.251  14.937
41719W        W 3382  37.913  44.881   0.809
41720W        W 3383  27.684  26.039   0.792
41721W        W 3384  41.864  27.633   1.782
41722W        W 3385  38.530  38.837  12.908
41723W        W 3386  12.821  20.111  12.846
41724W        W 3387  44.417  38.893   0.287
41725W        W 3388  14.220  20.651   3.709
41726W        W 3389   7.346  32.091  14.823
41727W        W 3390  44.847  44.497   3.254
41728W        W 3391  32.445   8.171  13.876
41729W        W 3392  28.984  10.723  10.985
41730W        W 3393  33.043  41.843  14.404
41731W        W 3394  12.617  35.438  14.369
41732W        W 3395  15.271   5.255  10.438
41733W        W 3396  34.018  29.622  10.939
41734W        W 3397   8.848   7.322  10.447
41735W        W 3398  18.650  29.555  13.977
41736W        W 3399   1.923  34.079  13.867
41737W        W 3400   7.759   1.358   3.236
41738W        W 3401   4.918   7.400   2.883
41739W        W 3402  27.084  37.960  10.574
41740W        W 3403  28.929  11.162  14.479
41741W        W 3404  31.135  37.424   0.276
41742W        W 3405  33.470   3.351  11.586
41743W        W 3406   7.871  37.441   0.761
41744W        W 3407   7.334   3.881  12.829
41745W        W 3408   9.885  44.307   4.819
41746W        W 3409   9.665   5.231  11.433
41747W        W 3410   8.779   7.888   1.907
41748W        W 3411  32.126  20.265  11.987
41749W        W 3412   4.401  37.842   1.754
41750W        W 3413   3.931  26.175  12.968
41751W        W 3414  34.415  21.243   2.365
41752W        W 3415   9.714  23.676  13.014
41753W        W 3416   6.702  12.787  13.969
41754W        W 3417  25.611  36.020  10.455
41755W        W 3418  37.879  27.127  13.992
41756W        W 3419  12.795  31.097   4.208
41757W        W 3420  30.921  19.121  11.873
41758W        W 3421  14.641  18.287   1.279
41759W        W 3422  40.937  10.155   4.336
41760W        W 3423  27.090   0.910  13.369
41761W        W 3424  40.004   0.295   1.890
41762W        W 3425  33.926  20.636   3.380
41763W        W 3426  18.609  35.055  11.501
41764W        W 3427  22.148  39.861   3.790
41765W        W 3428  25.172   8.669  13.442
41766W        W 3429  22.230  25.518   9.499
41767W        W 3430  44.801  28.007  11.883
41768W        W 3431  22.596  11.143  12.921
41769W        W 3432   8.707  16.640  14.000
41770W        W 3433   7.298  32.965  13.336
41771W        W 3434  25.583  24.601  13.523
41772W        W 3435  29.031   3.814  11.512
41773W        W 3436   6.685  31.994   0.874
41774W        W 3437  42.886   0.802   1.433
41775W        W 3438  42.979  42.294   4.784
41776W        W 3439  10.660  17.272  11.472
41777W        W 3440  20.210  23.683  12.531
41778W        W 3441  27.446  21.045  10.446
41779W        W 3442  24.710   8.720  14.454
41780W        W 3443   1.332   0.352  11.556
41781W        W 3444  32.435  36.485  12.017
41782W        W 3445  28.937  44.977  14.876
41783W        W 3446  29.607  38.943  10.553
41784W        W 3447  34.044  41.803   2.667
41785W        W 3448  24.717  23.080  14.762
41786W        W 3449  15.116   0.812  10.902
41787W        W 3450  43.323   6.284   2.682
41788W        W 3451  21.524  14.626  13.395
41789W        W 3452   0.288  15.234  12.552
41790W        W 3453  43.769   6.266   1.873
41791W        W 3454  35.039  17.190   3.693
41792W        W 3455  33.605  17.677   3.840
41793W        W 3456  10.832   4.707  10.109
41794W        W 3457  20.035  24.042  11.926
41795W        W 3458  35.884  24.013   2.273
41796W        W 3459  33.392  18.610   2.690
41797W        W 3460   9.671  16.672   1.781
41798W        W 3461   1.768   0.980   1.246
41799W        W 3462   4.871  29.038   1.918
41800W        W 3463  17.280  44.795  11.872
41801W        W 3464  16.697  19.229   3.677
41802W        W 3465  42.804   5.387   0.887
41803W        W 3466  28.581   4.894  14.275
41804W        W 3467  44.459  42.964   0.319
41805W        W 3468   3.415  27.517  12.410
41806W        W 3469  32.531  12.815   0.344
41807W        W 3470   9.845  10.292   4.280
41808W        W 3471  11.781  41.013  10.530
41809W        W 3472   5.200  15.756   0.461
41810W        W 3473  12.796  23.989   3.318
41811W        W 3474  15.265  24.522  10.559
41812W        W 3475  26.624  26.957   3.844
41813W        W 3476  34.508   2.255  12.904
41814W        W 3477   9.376  21.699   3.281
41815W        W 3478  17.683  28.681  10.980
41816W        W 3479  29.136   7.298   1.399
41817W        W 3480  14.146  34.376   4.234
41818W        W 3481  41.522  42.331   1.750
41819W        W 3482   5.230   6.801   2.274
41820W        W 3483  17.252  12.760  14.992
41821W        W 3484  22.709  21.593  11.875
41822W        W 3485   4.914   4.880  14.965
41823W        W 3486   7.675   8.860  10.409
41824W        W 3487  14.106  15.261   4.738
41825W        W 3488  34.111  35.965  12.954
41826W        W 3489  41.922   4.411   1.358
41827W        W 3490   6.285  37.486  10.925
41828W        W 3491  39.347   7.795  14.931
41829W        W 3492  38.456  37.832   1.708
41830W        W 3493  40.002   8.388   2.324
41831W        W 3494  39.538  10.788   4.354
41832W        W 3495  23.196  32.407  10.493
41833W        W 3496  21.143  22.076   4.205
41834W        W 3497  32.546  26.485   3.239
41835W        W 3498  38.430  44.891  13.853
41836W        W 3499  14.651  12.762  13.942
41837W        W 3500  16.277  24.658   4.719
41838W        W 3501  21.530   5.874  13.871
41839W        W 3502  36.390  27.657   2.407
41840W        W 3503  27.502  26.974   0.358
41841W        W 3504   8.868  35.522   3.686
41842W        W 3505   3.754  31.985  12.847
41843W        W 3506  18.684   4.396  13.358
41844W        W 3507  19.270  36.862   3.683
41845W        W 3508  40.839  19.065  13.450
41846W        W 3509   2.881  17.075  13.369
41847W        W 3510  42.329  12.317   0.812
41848W        W 3511  27.041  24.697  12.377
41849W        W 3512  36.377  32.493   3.187
41850W        W 3513  44.297  33.440   2.813
41851W        W 3514  25.583  10.676   3.356
41852W        W 3515  10.872   0.896  13.804
41853W        W 3516  32.925   8.719   4.710
41854W        W 3517  33.977  23.016   3.834
41855W        W 3518  20.111  38.925  14.377
41856W        W 3519  28.538  38.550  11.526
41857W        W 3520  42.979   3.275  12.071
41858W        W 3521  10.711  33.051  11.475
41859W        W 3522  33.114   3.232  12.831
41860W        W 3523  11.183  32.141   2.694
41861W        W 3524   8.257  31.144   0.928
41862W        W 3525  42.421   2.329  14.909
41863W        W 3526  18.571  32.086  13.360
41864W        W 3527  37.033  25.985  14.766
41865W        W 3528   7.390  33.930   0.911
41866W        W 3529  12.618  28.670  11.985
41867W        W 3530   5.377  22.577  13.470
41868W        W 3531   3.853  31.617  10.587
41869W        W 3532  41.848  19.097  12.567
41870W        W 3533  28.668  29.004   4.350
41871W        W 3534  22.232  18.187   4.707
41872W        W 3535  27.582  30.930   3.765
41873W        W 3536   7.847  42.495  12.551
41874W        W 3537  34.406  17.308   2.266
41875W        W 3538   1.324  20.527  14.819
41876W        W 3539  33.421  41.012  13.839
41877W        W 3540   0.820  18.283   1.362
41878W        W 3541  18.260   5.426   0.396
41879W        W 3542   2.798  13.264  14.388
41880W        W 3543  23.222   6.249   1.393
41881W        W 3544  26.098  19.715   1.928
41882W        W 3545   1.910  19.622   1.226
41883W        W 3546   8.273  16.638   3.273
41884W        W 3547   9.160  21.139   4.177
41885W        W 3548   9.775   8.658   2.231
41886W        W 3549  29.522   2.241  10.469
41887W        W 3550  38.950  40.893   0.795
41888W        W 3551  11.361  40.015  12.056
41889W        W 3552  38.857  13.301  12.900
41890W        W 3553  27.485  25.033  14.320
41891W        W 3554  36.932  26.151   2.845
41892W        W 3555  38.348  28.451  14.364
41893W        W 3556  32.465  35.883  12.437
41894W        W 3557  25.639  31.509   3.285
41895W        W 3558  17.616  43.455  12.094
41896W        W 3559  37.046  21.255  11.563
41897W        W 3560  35.956  36.858   1.277
41898W        W 3561   4.323  15.231   1.309
41899W        W 3562   8.748  38.465  12.468
41900W        W 3563  29.608  23.018   4.144
41901W        W 3564  27.181   6.694   2.360
41902W        W 3565  16.776  35.924  12.563
41903W        W 3566  32.535  44.353   2.847
41904W        W 3567  24.029  39.877  13.343
41905W        W 3568  27.658   3.851   2.831
41906W        W 3569   9.149   6.228   3.633
41907W        W 3570  23.631  24.973  12.893
41908W        W 3571  40.348   1.935  11.971
41909W        W 3572  31.946   2.741   2.385
41910W        W 3573  42.819   2.288  12.354
41911W        W 3574  28.969  14.167   5.259
41912W        W 3575   2.261   1.864   4.786
41913W        W 3576  33.955  14.736  13.963
41914W        W 3577  31.472  35.077   0.802
41915W        W 3578  14.684  35.894  12.355
41916W        W 3579  28.014  30.473   0.321
41917W        W 3580  41.791   8.761   9.982
41918W        W 3581  32.994  33.403  13.968
41919W        W 3582  41.881  22.503  11.875
41920W        W 3583  43.980  34.544   3.155
41921W        W 3584   8.235   8.301  13.034
41922W        W 3585  13.259  18.668   3.700
41923W        W 3586   7.839  43.888   1.439
41924W        W 3587   9.317   3.844   3.238
41925W        W 3588  24.525  37.951   3.187
41926W        W 3589  41.358  29.465  14.507
41927W        W 3590  44.340  38.453   1.783
41928W        W 3591  38.558  16.656   4.176
41929W        W 3592   2.770  30.430  11.901
41930W        W 3593  41.522  26.080   0.357
41931W        W 3594  17.584   3.758   0.840
41932W        W 3595  12.652  40.367   1.421
41933W        W 3596   6.378  38.819  11.885
41934W        W 3597  12.770  38.991   0.415
41935W        W 3598  26.683  43.813  13.963
41936W        W 3599  21.644   0.301  12.040
41937W        W 3600  39.884  26.462   3.357
41938W        W 3601  28.934  35.881   0.464
41939W        W 3602  35.853  21.583  12.866
41940W        W 3603  13.244  24.535  10.404
41941W        W 3604  27.148   2.730   2.297
41942W        W 3605  29.963  11.697  14.798
41943W        W 3606  35.948   8.361   3.349
41944W        W 3607  37.944  14.720  13.849
41945W        W 3608  15.083  13.327   3.796
41946W        W 3609   6.910   1.440  12.846
41947W        W 3610  20.268  41.977   0.314
41948W        W 3611  11.801  24.020  11.019
41949W        W 3612   5.826  22.065  14.338
41950W        W 3613  29.120   6.396   3.374
41951W        W 3614  21.221  13.814   0.473
41952W        W 3615  19.641  12.654   3.792
41953W        W 3616  23.526   5.905   2.688
41954W        W 3617  13.824  34.031   3.630
41955W        W 3618   2.380   5.760  13.890
41956W        W 3619  19.660  18.605  11.493
41957W        W 3620  34.542  26.655   3.720
41958W        W 3621  37.353  34.998   0.366
41959W        W 3622  34.971  26.206   1.814
41960W        W 3623  17.650  29.988   4.261
41961W        W 3624  35.992  16.751  12.557
41962W        W 3625   1.367  34.534  13.931
41963W        W 3626  21.700  29.475  10.561
41964W        W 3627  11.755  30.616   2.806
41965W        W 3628  39.014  29.465   1.212
41966W        W 3629  21.695  43.395  12.864
41967W        W 3630  29.139  32.055  11.081
41968W        W 3631  20.049  25.658  11.071
41969W        W 3632   1.938  30.510   3.850
41970W        W 3633  42.439  42.834  10.524
41971W        W 3634  40.480  24.533  11.522
41972W        W 3635  44.788  30.017  11.459
41973W        W 3636  34.000  31.566   0.341
41974W        W 3637  44.392  23.729   0.806
41975W        W 3638  30.984  33.880  12.494
41976W        W 3639  11.699   6.708   2.868
41977W        W 3640  44.300  32.630   0.809
41978W        W 3641  35.966  32.459  11.596
41979W        W 3642  40.889  38.432   2.681
41980W        W 3643  43.924  11.134  14.969
41981W        W 3644  16.159  38.342   4.269
41982W        W 3645  34.914   0.969   4.147
41983W        W 3646  32.605  23.045   3.804
41984W        W 3647  11.184  32.495   3.668
41985W        W 3648   3.850  35.943   2.360
41986W        W 3649  28.584  31.537  12.051
41987W        W 3650  13.784  43.510   0.934
41988W        W 3651  23.685  11.134   2.703
41989W        W 3652  43.487   4.389  12.502
41990W        W 3653  26.093   9.717  10.957
41991W        W 3654  24.163   9.248   4.312
41992W        W 3655  29.610  27.156   1.373
41993W        W 3656   0.804  35.005   0.319
41994W        W 3657  33.907  26.104  10.421
41995W        W 3658  26.048   7.417   4.317
41996W        W 3659  22.210  11.371  12.834
41997W        W 3660   7.766  29.640   2.353
41998W        W 3661  30.500   4.939   3.241
41999W        W 3662  43.413  13.641   0.744
42000W        W 3663   1.772   0.248  14.847
42001W        W 3664   6.234  36.958   0.255
42002W        W 3665  28.452  15.085   1.246
42003W        W 3666  11.811   8.848   2.243
42004W        W 3667  40.801   5.793   0.415
42005W        W 3668  42.848  12.258  11.427
42006W        W 3669  12.352  15.698  12.402
42007W        W 3670  34.872   2.378  11.971
42008W        W 3671  35.389  20.663   0.384
42009W        W 3672  19.112  26.661  12.485
42010W        W 3673  27.588   0.780   2.866
42011W        W 3674  21.180  40.453   4.837
42012W        W 3675  13.323  28.665   1.778
42013W        W 3676  38.839  15.797   3.863
42014W        W 3677  41.478  21.697   2.286
42015W        W 3678  18.739  42.891   2.180
42016W        W 3679  43.294  19.765   4.217
42017W        W 3680  18.686  10.193  12.893
42018W        W 3681  12.193  36.445  11.597
42019W        W 3682  37.372  20.659   3.292
42020W        W 3683  28.051  41.979  14.310
42021W        W 3684   2.827  37.470   4.150
42022W        W 3685  10.823  39.540  12.060
42023W        W 3686  37.478  24.991  13.946
42024W        W 3687   9.658  19.612  13.483
42025W        W 3688  25.109  40.968   0.403
42026W        W 3689  22.128   2.226   2.846
42027W        W 3690  32.910  10.328   0.856
42028W        W 3691  38.480   5.304  14.928
42029W        W 3692  32.908   3.385   4.119
42030W        W 3693  14.211  11.260  13.033
42031W        W 3694  43.409  26.630  12.362
42032W        W 3695   7.187  15.763  10.492
42033W        W 3696   1.393   2.959   1.792
42034W        W 3697  20.534  15.623  11.018
42035W        W 3698  16.612  21.121   3.192
42036W        W 3699   5.731  11.724  14.981
42037W        W 3700  29.651  44.441   9.964
42038W        W 3701  37.348  36.055   4.305
42039W        W 3702   8.788  32.119  13.864
42040W        W 3703  28.103  36.940  13.802
42041W        W 3704  32.579  25.635   3.728
42042W        W 3705   3.273   7.689   0.916
42043W        W 3706  14.786  33.556   5.142
42044W        W 3707  24.661  27.062   1.404
42045W        W 3708  35.428  25.156  11.955
42046W        W 3709  40.829  27.555  13.890
42047W        W 3710  16.607  44.983   1.241
42048W        W 3711  21.200  28.471  14.452
42049W        W 3712  26.166   4.416   4.832
42050W        W 3713  37.871  41.870   4.795
42051W        W 3714  35.065  40.536  14.447
42052W        W 3715  19.130  24.206   1.787
42053W        W 3716  31.524  23.684   0.267
42054W        W 3717   7.905  30.503  13.442
42055W        W 3718   6.875   5.368  11.089
42056W        W 3719  39.820  39.830   2.767
42057W        W 3720  18.225   2.335   4.293
42058W        W 3721  36.544   0.311  12.445
42059W        W 3722  12.706  26.673   0.912
42060W        W 3723   6.305  27.618   0.394
42061W        W 3724  16.789   3.216  11.060
42062W        W 3725   7.670  38.461  12.421
42063W        W 3726  28.567   7.701  11.942
42064W        W 3727  32.506  33.084   0.353
42065W        W 3728  43.869   2.335   0.798
42066W        W 3729  28.955  33.016  12.435
42067W        W 3730   4.755  33.466   4.707
42068W        W 3731  26.023  17.207   0.339
42069W        W 3732  21.209  41.952  14.982
42070W        W 3733  40.421   2.413  14.483
42071W        W 3734  19.225  20.585   0.844
42072W        W 3735  41.963  23.549  11.942
42073W        W 3736  10.793  23.605   0.959
42074W        W 3737   4.396  13.625   3.816
42075W        W 3738   6.323   9.809  11.870
42076W        W 3739   2.411  34.549   4.699
42077W        W 3740   3.266  22.154  13.839
42078W        W 3741   8.844   7.882  11.563
42079W        W 3742  23.663   6.807   4.246
42080W        W 3743   6.196   7.373   3.757
42081W        W 3744  15.822   9.669  11.528
42082W        W 3745   2.321  10.691   3.312
42083W        W 3746   8.804  19.169   0.346
42084W        W 3747  18.616  12.240   0.837
42085W        W 3748  39.414   8.744  12.947
42086W        W 3749  13.212   8.781  10.562
42087W        W 3750   2.965  12.137  11.012
42088W        W 3751  13.331  25.982   0.756
42089W        W 3752  30.970  28.083  10.951
42090W        W 3753  39.520   4.414  10.517
42091W        W 3754  33.610   0.758  10.639
42092W        W 3755  32.522  32.950   2.782
42093W        W 3756   8.218  30.140   3.232
42094W        W 3757   0.373   4.825   4.303
42095W        W 3758  11.366  42.361   4.242
42096W        W 3759  16.131  42.841  14.487
42097W        W 3760  11.691  19.708   3.291
42098W        W 3761  22.252  39.490  12.850
42099W        W 3762  29.630  38.905  11.547
42100W        W 3763  12.326  10.294   2.721
42101W        W 3764  43.500  31.002  13.807
42102W        W 3765  18.586  30.136  13.330
42103W        W 3766  26.685  34.484  12.003
42104W        W 3767  38.936   2.244  14.382
42105W        W 3768   9.170   5.370  10.550
42106W        W 3769  11.657  33.934   3.153
42107W        W 3770  22.090  10.834  12.057
42108W        W 3771  18.716  43.343   4.658
42109W        W 3772   4.320  25.200  11.409
42110W        W 3773  41.524  42.414  10.957
42111W        W 3774  25.540   3.887  10.114
42112W        W 3775   7.818   4.730   1.726
42113W        W 3776  16.159  22.079  10.900
42114W        W 3777  26.658  30.977  11.462
42115W        W 3778  24.577  26.584  10.460
42116W        W 3779   8.752   4.855  13.476
42117W        W 3780  11.259  38.486   0.348
42118W        W 3781  32.971  24.630   0.342
42119W        W 3782  24.187  27.518  13.952
42120W        W 3783   6.703   4.384   2.357
42121W        W 3784   5.424  39.987  11.018
42122W        W 3785  34.549  44.353   0.355
42123W        W 3786   0.390  15.633   2.319
42124W        W 3787  11.178   8.282   9.663
42125W        W 3788  21.118  37.041  11.002
42126W        W 3789  26.543  30.932  13.392
42127W        W 3790   3.369   8.865  10.508
42128W        W 3791  25.966  44.358  11.947
42129W        W 3792  27.090  10.238   4.300
42130W        W 3793  26.566  28.126   3.295
42131W        W 3794  15.123  18.772   2.278
42132W        W 3795  30.536  20.589  14.880
42133W        W 3796  41.384   9.276   2.240
42134W        W 3797  25.475  36.992   4.614
42135W        W 3798   6.420   6.913   1.906
42136W        W 3799  38.849  27.040  10.618
42137W        W 3800  21.553  13.655   3.295
42138W        W 3801  36.400  40.953  14.955
42139W        W 3802   6.782  22.099   2.713
42140W        W 3803  40.834  22.037   4.214
42141W        W 3804  34.991  15.595   1.325
42142W        W 3805  12.650   8.729   5.100
42143W        W 3806  10.333  43.465  11.920
42144W        W 3807  33.547  25.549  11.095
42145W        W 3808  26.689  24.064   0.262
42146W        W 3809   9.249  40.454  11.065
42147W        W 3810  38.888  16.313  14.003
42148W        W 3811  16.775  24.212  11.588
42149W        W 3812  42.477  27.466  14.311
42150W        W 3813  24.590  21.746   3.324
42151W        W 3814  11.193   3.882  12.474
42152W        W 3815  12.779  44.967   1.275
42153W        W 3816  27.690  31.568  11.965
42154W        W 3817  12.816  21.742  11.010
42155W        W 3818   5.390  20.164  13.860
42156W        W 3819  38.971   1.766  14.291
42157W        W 3820  27.995  20.642   4.352
42158W        W 3821   5.933  37.958  12.392
42159W        W 3822  43.489  40.310   0.801
42160W        W 3823   0.980   7.378   3.167
42161W        W 3824  35.008  26.483   4.634
42162W        W 3825  30.973  42.026  13.523
42163W        W 3826  20.668  23.559   2.265
42164W        W 3827  16.256  20.741  12.008
42165W        W 3828  13.148   7.264   2.712
42166W        W 3829   2.764   3.881   2.737
42167W        W 3830  15.638   8.694  11.518
42168W        W 3831  21.615  23.712   4.795
42169W        W 3832  40.993   9.243  13.908
42170W        W 3833  15.786  29.079  14.361
42171W        W 3834  20.745  15.187   9.545
42172W        W 3835  20.033  12.126  13.471
42173W        W 3836   5.802  14.241   2.676
42174W        W 3837  35.898   3.403   3.272
42175W        W 3838   2.455  19.553  12.339
42176W        W 3839  35.908  15.646  10.963
42177W        W 3840  35.418  29.021   3.201
42178W        W 3841  17.270  22.600  11.462
42179W        W 3842  15.087  35.877   3.659
42180W        W 3843  19.087  18.724   0.851
42181W        W 3844   2.913   1.470  14.282
42182W        W 3845   2.769  29.517  11.463
42183W        W 3846  39.531  22.652  11.948
42184W        W 3847  32.402  12.685   2.732
42185W        W 3848  12.186   3.822  11.900
42186W        W 3849  43.796  29.109   1.252
42187W        W 3850  15.313  38.827  13.829
42188W        W 3851  12.216  33.068   1.310
42189W        W 3852  32.540  17.658  14.783
42190W        W 3853  11.246  12.804   2.706
42191W        W 3854  24.998   5.309  11.938
42192W        W 3855  39.957  31.459  13.337
42193W        W 3856   6.287  17.203   4.281
42194W        W 3857   9.842  33.081  12.025
42195W        W 3858   9.793  41.380   0.287
42196W        W 3859  30.530  21.079   1.790
42197W        W 3860   3.831  44.857  11.096
42198W        W 3861  22.633  16.087  10.561
42199W        W 3862  31.544  24.562  11.048
42200W        W 3863  31.461  18.785   0.921
42201W        W 3864  25.619  20.203   3.640
42202W        W 3865  40.396  40.400   5.212
42203W        W 3866   3.441  15.755  12.379
42204W        W 3867   2.241  37.033   4.694
42205W        W 3868  10.754   2.255  12.964
42206W        W 3869   6.311  17.657   2.394
42207W        W 3870  22.501   6.186   4.700
42208W        W 3871  19.690   6.873   0.867
42209W        W 3872   4.732   7.202  11.379
42210W        W 3873   3.251  40.936  14.810
42211W        W 3874  43.272   8.307  12.411
42212W        W 3875  13.651  19.546  14.975
42213W        W 3876  16.287   0.353   0.256
42214W        W 3877   0.311  19.073  11.479
42215W        W 3878  12.736  22.145   3.160
42216W        W 3879   5.839   7.898   3.633
42217W        W 3880  23.709  17.605   1.389
42218W        W 3881  39.984  23.715   3.299
42219W        W 3882  28.479  25.207   4.619
42220W        W 3883  14.121  24.057   4.658
42221W        W 3884  41.457  34.573  14.360
42222W        W 3885   2.340  30.451   0.959
42223W        W 3886  19.775  40.315  13.012
42224W        W 3887  36.880  22.997   2.880
42225W        W 3888  20.530  25.680  11.409
42226W        W 3889   8.882  20.601  14.463
42227W        W 3890  15.116   5.222   4.823
42228W        W 3891  25.560   1.378   1.338
42229W        W 3892   1.966  28.669  11.511
42230W        W 3893  14.173  20.044  14.972
42231W        W 3894  44.336   2.822  14.897
42232W        W 3895  24.647  43.851   0.820
42233W        W 3896  27.152  14.256  13.447
42234W        W 3897  17.576  23.667  11.612
42235W        W 3898   7.349  15.734  11.038
42236W        W 3899  17.149   2.323  11.874
42237W        W 3900  37.979   1.408  11.387
42238W        W 3901  42.364  41.810   4.345
42239W        W 3902   6.852  22.560  12.421
42240W        W 3903  44.802  26.053  13.403
42241W        W 3904   6.801  15.593   4.262
42242W        W 3905  43.436  26.205   3.773
42243W        W 3906  15.273  25.045   0.343
42244W        W 3907  23.527  15.285  10.612
42245W        W 3908  31.962  38.556   2.807
42246W        W 3909   8.855  20.709   1.260
42247W        W 3910  11.820   1.787  13.318
42248W        W 3911   8.804  22.230   3.327
42249W        W 3912  40.951  20.225   2.779
42250W        W 3913  14.733  36.026  13.921
42251W        W 3914   3.750  44.791   1.344
42252W        W 3915  31.584  18.724   2.666
42253W        W 3916  27.465  24.168   4.263
42254W        W 3917  22.700  27.573   1.882
42255W        W 3918  37.982   5.735   3.305
42256W        W 3919  10.184   8.679  12.491
42257W        W 3920   3.904  23.679   0.837
42258W        W 3921  42.484  36.541   3.330
42259W        W 3922  23.191  15.224  13.318
42260W        W 3923  28.559  25.169   3.705
42261W        W 3924  44.970  40.329  14.896
42262W        W 3925   0.894  28.150   1.715
42263W        W 3926  24.143  10.330   0.251
42264W        W 3927  11.310  43.837   3.189
42265W        W 3928  27.471   5.296   2.867
42266W        W 3929  41.349  10.840   4.209
42267W        W 3930  42.832  28.179  10.545
42268W        W 3931  12.159  27.021  13.445
42269W        W 3932  19.042  40.958  14.896
42270W        W 3933  15.248   6.357   3.837
42271W        W 3934  16.315  25.559   4.830
42272W        W 3935  30.631  18.766  10.595
42273W        W 3936  13.196  34.073   0.807
42274W        W 3937  19.158   1.743   0.456
42275W        W 3938   9.663  18.679   0.871
42276W        W 3939  37.911   6.301  14.030
42277W        W 3940  29.965  28.448   2.679
42278W        W 3941  41.969  43.873  14.773
42279W        W 3942  14.262  26.494  12.384
42280W        W 3943  35.512  29.607   2.281
42281W        W 3944  20.263   9.870  13.947
42282W        W 3945   5.238  12.131  13.909
42283W        W 3946  19.719  13.116  10.890
42284W        W 3947  26.069  44.910   1.798
42285W        W 3948  34.612  21.147  10.645
42286W        W 3949  34.476  27.641  13.975
42287W        W 3950  41.982   3.930  13.925
42288W        W 3951  32.024  28.447   2.806
42289W        W 3952  40.436  23.651   3.711
42290W        W 3953  39.947   7.360   1.723
42291W        W 3954  31.108  42.892   3.771
42292W        W 3955  20.219  22.581  11.112
42293W        W 3956  14.657  10.700  13.971
42294W        W 3957  29.151  34.041  13.525
42295W        W 3958   9.341  29.651  10.475
42296W        W 3959  33.039  40.886   4.757
42297W        W 3960  23.004  11.723   2.851
42298W        W 3961  12.852  41.985   3.324
42299W        W 3962  41.513  20.232  14.996
42300W        W 3963   3.761  15.779   3.164
42301W        W 3964  36.878  38.961   1.879
42302W        W 3965  22.639  42.459   1.855
42303W        W 3966   5.907   2.349   1.381
42304W        W 3967  37.056  20.602   4.682
42305W        W 3968  37.400   3.266  10.505
42306W        W 3969  44.964  13.296   3.298
42307W        W 3970  22.038  30.643  14.496
42308W        W 3971  16.073  35.026   3.309
42309W        W 3972  25.016   6.908  13.839
42310W        W 3973  19.262  21.653   0.280
42311W        W 3974   7.371  11.805  11.001
42312W        W 3975  21.668   3.333   3.185
42313W        W 3976  12.138  24.709  10.435
42314W        W 3977   1.469  12.254  11.861
42315W        W 3978   6.375  36.850   1.870
42316W        W 3979  15.728  22.715   4.641
42317W        W 3980  26.030  38.874  14.458
42318W        W 3981   4.245  44.760  13.809
42319W        W 3982   5.313   3.388   1.296
42320W        W 3983  19.100  40.016   1.859
42321W        W 3984  26.984   1.749  13.035
42322W        W 3985  24.058   0.957  14.978
42323W        W 3986  12.679  10.657  13.038
42324W        W 3987  13.302  32.569  14.505
42325W        W 3988  43.912   4.284  13.501
42326W        W 3989  30.571  27.634  13.358
42327W        W 3990   9.861  12.225   2.795
42328W        W 3991  17.256  10.806   4.214
42329W        W 3992  42.026  31.097   2.696
42330W        W 3993  19.283  25.505   3.694
42331W        W 3994  25.631  41.021   1.223
42332W        W 3995  36.841  29.568   4.815
42333W        W 3996  34.559  36.977  13.045
42334W        W 3997  27.487   9.718   0.349
42335W        W 3998  37.402  30.647   0.896
42336W        W 3999  30.423  34.098  13.920
42337W        W 4000  40.452  26.510   0.783
42338W        W 4001   7.668   3.938  12.046
42339W        W 4002  24.640  14.656   4.319
42340W        W 4003  21.625   5.221  13.455
42341W        W 4004  35.529  12.292   1.358
42342W        W 4005  31.579  20.768  14.996
42343W        W 4006  15.626  34.118   2.817
42344W        W 4007  29.163   5.262  13.366
42345W        W 4008  31.104  16.198   0.921
42346W        W 4009  37.000   4.206  13.345
42347W        W 4010  25.475  28.078   0.403
42348W        W 4011   8.208  12.853  11.467
42349W        W 4012  30.965  22.528  10.951
42350W        W 4013  41.015  24.693  11.109
42351W        W 4014   0.361  38.994   1.919
42352W        W 4015  33.099  31.489   2.893
42353W        W 4016  19.242   1.934   4.150
42354W        W 4017  27.687  12.324  10.953
42355W        W 4018  20.696   5.423  10.147
42356W        W 4019  44.963  32.571   2.690
42357W        W 4020  34.017   8.830   0.909
42358W        W 4021  22.531  39.030   4.764
42359W        W 4022  36.944  17.152   3.202
42360W        W 4023   7.714   2.389  11.001
42361W        W 4024  29.166  11.158   2.274
42362W        W 4025   6.186  22.501  12.568
42363W        W 4026   9.867  10.164   2.203
42364W        W 4027  27.148   7.401  14.860
42365W        W 4028  13.179  22.178  11.439
42366W        W 4029  11.707  42.941  13.441
42367W        W 4030  34.943  22.059   0.466
42368W        W 4031   4.883  37.347   3.216
42369W        W 4032  21.231  23.561   2.374
42370W        W 4033  14.621  19.118  12.432
42371W        W 4034  44.945  16.734  11.453
42372W        W 4035  34.603  29.629  13.941
42373W        W 4036  38.422  34.469   2.332
42374W        W 4037  26.133  10.232  10.634
42375W        W 4038   3.401  36.434  12.998
42376W        W 4039  41.786  17.565  10.487
42377W        W 4040  40.838  27.943   4.231
42378W        W 4041  34.597  42.787  11.122
42379W        W 4042  32.474   4.933  14.399
42380W        W 4043  21.534  13.741  10.071
42381W        W 4044  26.476  22.547  14.464
42382W        W 4045   8.756   5.266   3.723
42383W        W 4046  10.215  29.128  11.528
42384W        W 4047  19.191  10.728   1.846
42385W        W 4048  32.104  20.703  11.601
42386W        W 4049  22.141   2.799   3.264
42387W        W 4050  37.472   4.886  12.568
42388W        W 4051  26.467  20.271   0.761
42389W        W 4052  15.182  41.806   0.304
42390W        W 4053   6.266  23.522  13.392
42391W        W 4054  29.935  13.184  13.347
42392W        W 4055  34.039   8.734   3.312
42393W        W 4056  41.369   2.394  10.921
42394W        W 4057   4.356   1.467  14.298
42395W        W 4058  17.742   2.837   2.202
42396W        W 4059  13.743  11.256  13.039
42397W        W 4060   8.223  14.289   3.730
42398W        W 4061  38.391  42.500  12.381
42399W        W 4062   0.329  10.668  11.972
42400W        W 4063  38.892  14.192  10.597
42401W        W 4064  36.371  20.641   4.197
42402W        W 4065  33.910  44.806  12.439
42403W        W 4066  33.949   2.264   1.711
42404W        W 4067  34.883   0.303   3.638
42405W        W 4068   9.368  10.279  10.965
42406W        W 4069  28.035  42.459  10.440
42407W        W 4070  25.645  33.573   3.829
42408W        W 4071   1.240  37.390   9.987
42409W        W 4072  40.055  33.462   0.939
42410W        W 4073  23.069  44.407  11.042
42411W        W 4074  24.533  15.652  13.030
42412W        W 4075  16.090  30.594   2.255
42413W        W 4076   2.939  23.733  12.859
42414W        W 4077   4.385  36.380  11.562
42415W        W 4078  44.490  31.038  12.408
42416W        W 4079  28.675   5.758   1.326
42417W        W 4080  17.252  26.581  13.546
42418W        W 4081   2.803  33.548  11.441
42419W        W 4082  35.867  40.428   1.741
42420W        W 4083  36.377  31.975  14.834
42421W        W 4084  11.182  36.881   3.791
42422W        W 4085  21.721   4.929   4.237
42423W        W 4086  18.586  34.877  10.476
42424W        W 4087  40.431  10.716   2.357
42425W        W 4088  10.819  32.476  10.590
42426W        W 4089  38.517   8.198   2.283
42427W        W 4090  38.368  44.261  12.946
42428W        W 4091  10.633  28.647  11.431
42429W        W 4092  27.163   9.759  10.554
42430W        W 4093  26.484  26.684  14.820
42431W        W 4094  24.078  21.734  11.403
42432W        W 4095  31.428  15.585  11.970
42433W        W 4096  12.687   5.244   4.616
42434W        W 4097  31.043  22.715   0.824
42435W        W 4098  23.614  14.682  11.903
42436W        W 4099  35.378  20.028   2.408
42437W        W 4100  24.116  20.598   3.324
42438W        W 4101   7.328  26.175   1.719
42439W        W 4102  12.657  40.897   2.668
42440W        W 4103  16.135  37.901  13.367
42441W        W 4104  17.622  19.737   2.901
42442W        W 4105  15.205   0.292   2.363
42443W        W 4106  26.207   4.305   4.130
42444W        W 4107  15.329  43.938  11.070
42445W        W 4108  14.678  40.819   0.382
42446W        W 4109  36.480  41.412   2.777
42447W        W 4110  38.514  40.864   1.341
42448W        W 4111  11.848  12.146   2.898
42449W        W 4112  23.520  39.874  13.351
42450W        W 4113  14.191  12.819   3.181
42451W        W 4114   4.246   2.452  13.381
42452W        W 4115  27.119  24.573   4.332
42453W        W 4116  37.050  44.974   2.665
42454W        W 4117  22.672   4.213  10.074
42455W        W 4118  28.123  12.158  13.385
42456W        W 4119   6.837  37.405   1.908
42457W        W 4120  20.536  36.575  14.359
42458W        W 4121  18.140   6.335  12.569
42459W        W 4122  25.055  18.132   2.758
42460W        W 4123  43.862  21.756  12.832
42461W        W 4124  13.610   5.908  11.514
42462W        W 4125  31.087  32.990   3.777
42463W        W 4126  25.681  17.286   4.196
42464W        W 4127  32.483  27.619   2.885
42465W        W 4128  10.152  43.843  12.923
42466W        W 4129  35.895   0.432  12.826
42467W        W 4130  25.974  22.583  11.567
42468W        W 4131  15.676  20.183   3.172
42469W        W 4132  14.189  31.404   1.442
42470W        W 4133  41.868  14.167   3.214
42471W        W 4134  15.161  31.590   0.844
42472W        W 4135  12.851  26.511   1.398
42473W        W 4136   2.267  18.680   3.746
42474W        W 4137  19.143  25.207  13.978
42475W        W 4138  19.547  39.925  13.024
42476W        W 4139  28.954   3.432   1.330
42477W        W 4140  32.971  19.659  11.462
42478W        W 4141  40.416   3.750   2.287
42479W        W 4142  29.495  15.804  11.556
42480W        W 4143  18.175  36.002   1.918
42481W        W 4144  31.108  24.006  11.522
42482W        W 4145  24.013   5.829   4.353
42483W        W 4146  27.066  44.309   2.276
42484W        W 4147  19.647  36.931  13.988
42485W        W 4148   4.741  24.523   4.720
42486W        W 4149   3.320  38.408  13.048
42487W        W 4150  25.174   8.240  14.796
42488W        W 4151   1.385   9.369   5.268
42489W        W 4152  23.571  18.151   0.447
42490W        W 4153  14.755  44.323  12.404
42491W        W 4154  29.026  13.740  11.477
42492W        W 4155  30.045  27.082   4.176
42493W        W 4156   1.345  36.405   4.796
42494W        W 4157  25.198  41.976   0.938
42495W        W 4158  15.773  29.666   1.708
42496W        W 4159  41.940  25.529  13.962
42497W        W 4160  26.558   8.900   4.166
42498W        W 4161   2.837  17.586  13.889
42499W        W 4162  18.707   4.400   1.370
42500W        W 4163  26.676  34.553  14.906
42501W        W 4164  15.624   3.311   4.176
42502W        W 4165  10.153  22.552  12.078
42503W        W 4166  32.486   2.396   0.309
42504W        W 4167  27.520   3.748   3.837
42505W        W 4168  12.333   5.272  12.369
42506W        W 4169  19.694   2.866  13.312
42507W        W 4170  19.683  43.443  11.452
42508W        W 4171  42.011  29.494   0.400
42509W        W 4172  15.157   1.879  12.511
42510W        W 4173  26.576   4.802  12.951
42511W        W 4174  14.807  19.268  14.489
42512W        W 4175   2.240  22.157   0.341
42513W        W 4176  35.868   8.743  12.999
42514W        W 4177   3.239   9.306   4.151
42515W        W 4178  11.827   7.736  13.801
42516W        W 4179  23.993  12.318   0.293
42517W        W 4180  35.510  12.786  14.780
42518W        W 4181  38.551  20.537  12.559
42519W        W 4182  21.103  19.056  14.297
42520W        W 4183  26.588   2.950  13.839
42521W        W 4184  43.273  26.206  13.494
42522W        W 4185  25.199  39.945   1.219
42523W        W 4186  44.421  11.766  13.353
42524W        W 4187  35.082  30.652   0.777
42525W        W 4188  43.874   8.827   2.267
42526W        W 4189  35.385  28.127  11.590
42527W        W 4190  16.110  22.160   4.686
42528W        W 4191  32.470  32.392  12.045
42529W        W 4192  43.889  25.639   0.325
42530W        W 4193  40.320  26.057   3.649
42531W        W 4194  14.095  33.521  12.995
42532W        W 4195   7.353  35.034   4.302
42533W        W 4196  26.499   8.655   0.353
42534W        W 4197   6.243  14.601   4.202
42535W        W 4198  38.443  12.776  13.926
42536W        W 4199  18.230  23.635  14.509
42537W        W 4200  25.983  31.018  10.518
42538W        W 4201   2.291   3.734   4.162
42539W        W 4202   2.770  12.779  13.489
42540W        W 4203  10.825   3.283  13.923
42541W        W 4204   3.283  44.957   4.136
42542W        W 4205   8.388  27.089  14.902
42543W        W 4206  30.491  36.887   4.598
42544W        W 4207  10.682  39.410   0.437
42545W        W 4208  24.482  36.912  12.976
42546W        W 4209  12.120  19.706  13.970
42547W        W 4210  38.909  43.375   4.825
42548W        W 4211  42.502  43.847  13.465
42549W        W 4212  31.549  31.140  13.945
42550W        W 4213   8.667  13.746  12.499
42551W        W 4214  42.351  24.668  13.372
42552W        W 4215   2.960  37.467   3.638
42553W        W 4216  25.127  34.864  13.987
42554W        W 4217   1.434  28.051  12.913
42555W        W 4218   3.324  28.439   0.917
42556W        W 4219  11.689  25.174   4.669
42557W        W 4220  43.368  20.613   2.769
42558W        W 4221   6.193  25.701  13.976
42559W        W 4222   7.364  12.256  12.035
42560W        W 4223  35.379  11.765   1.852
42561W        W 4224  29.063   3.832   2.355
42562W        W 4225  24.206   5.755   1.414
42563W        W 4226  14.264  36.004  11.437
42564W        W 4227  29.984  17.127   2.378
42565W        W 4228   9.728   2.289   2.414
42566W        W 4229  31.555  18.194   3.704
42567W        W 4230  19.059   8.785  12.977
42568W        W 4231  44.263  28.984  11.592
42569W        W 4232  37.507  17.560   0.849
42570W        W 4233  24.085  41.849   2.787
42571W        W 4234  23.085  16.722   1.742
42572W        W 4235  19.709  18.077  12.445
42573W        W 4236  16.275  38.043   2.264
42574W        W 4237  26.520  27.554  13.392
42575W        W 4238  38.338  27.155   1.434
42576W        W 4239  15.102  33.536  12.931
42577W        W 4240  25.117   4.783  10.408
42578W        W 4241  18.759  35.573  14.350
42579W        W 4242  36.073  13.623  11.090
42580W        W 4243  14.657  22.198  14.274
42581W        W 4244  12.343  37.973   2.713
42582W        W 4245  20.681  40.993  11.108
42583W        W 4246  35.036  10.843   2.376
42584W        W 4247  26.115   0.471  14.395
42585W        W 4248  10.270  10.158  14.309
42586W        W 4249  29.069   5.692   2.191
42587W        W 4250  20.262  17.304   1.825
42588W        W 4251   4.704  11.257   0.931
42589W        W 4252  17.784   6.370  13.040
42590W        W 4253  27.483   0.906   1.756
42591W        W 4254  33.095  25.188  14.866
42592W        W 4255  28.961  23.651   2.231
42593W        W 4256   7.836  22.222  14.023
42594W        W 4257  30.075   1.913  13.853
42595W        W 4258  16.295  33.991  11.543
42596W        W 4259  33.913  11.212  12.963
42597W        W 4260   7.371  40.457   0.865
42598W        W 4261  42.866  38.953  11.522
42599W        W 4262  35.565  27.566  12.384
42600W        W 4263   8.797  30.107  10.990
42601W        W 4264  38.341   7.699   3.816
42602W        W 4265  13.789   4.807  10.568
42603W        W 4266  42.379   1.739  11.975
42604W        W 4267  24.722  36.580  11.107
42605W        W 4268  29.118   4.445   3.267
42606W        W 4269  10.690   0.378  13.495
42607W        W 4270  23.654  17.706  14.365
42608W        W 4271  42.910   6.224  11.049
42609W        W 4272   8.726  28.605  12.994
42610W        W 4273  21.182   5.912   4.725
42611W        W 4274  44.455  44.924  12.058
42612W        W 4275  13.663  41.295  13.363
42613W        W 4276  26.171   3.871   1.216
42614W        W 4277  17.123  43.942  13.794
42615W        W 4278  36.056  41.431  11.568
42616W        W 4279  24.030  21.675   3.358
42617W        W 4280  14.293  14.722   0.836
42618W        W 4281  44.447  33.441   1.351
42619W        W 4282  37.439  39.831  13.901
42620W        W 4283   0.939  13.654   1.903
42621W        W 4284   9.803  30.048  14.821
42622W        W 4285  41.884  16.140  11.896
42623W        W 4286  34.919  21.055   1.398
42624W        W 4287  25.500  36.496   3.184
42625W        W 4288  23.627  24.030  14.421
42626W        W 4289  26.014  11.343  13.875
42627W        W 4290  22.734   2.253  11.089
42628W        W 4291  20.056   3.882   0.276
42629W        W 4292  22.538  12.258  10.455
42630W        W 4293  23.154  36.533   3.762
42631W        W 4294  26.660  40.903   9.964
42632W        W 4295  23.635  13.291   1.924
42633W        W 4296   2.938   0.769  10.430
42634W        W 4297  28.561  13.611  11.039
42635W        W 4298  39.315  17.287  13.990
42636W        W 4299  26.573  19.048   2.376
42637W        W 4300  40.961  17.667   2.280
42638W        W 4301  38.861  38.873   5.250
42639W        W 4302  20.579  44.922  10.428
42640W        W 4303  40.010  12.284   0.958
42641W        W 4304   1.951  39.912  10.429
42642W        W 4305  37.432  10.374  11.994
42643W        W 4306   6.859   4.815  11.935
42644W        W 4307  36.919  15.642   2.864
42645W        W 4308   1.446  11.841  14.983
42646W        W 4309  23.151  31.978  11.008
42647W        W 4310  38.821  19.276  14.910
42648W        W 4311  27.562  31.061  10.914
42649W        W 4312  27.128  21.562   2.890
42650W        W 4313   9.885   3.263  10.537
42651W        W 4314   7.730  11.691   1.287
42652W        W 4315  15.243  40.869  12.983
42653W        W 4316  38.454   2.376  13.442
42654W        W 4317  35.550  40.967   1.427
42655W        W 4318  29.493   5.263  11.021
42656W        W 4319  17.217  16.228  11.434
42657W        W 4320  34.912  18.660   4.239
42658W        W 4321  29.447  17.603  10.900
42659W        W 4322  42.347  32.918  13.501
42660W        W 4323  33.503   2.437  14.970
42661W        W 4324   8.288   8.763   0.765
42662W        W 4325  30.154  34.484  12.363
42663W        W 4326   1.331   5.226  12.043
42664W        W 4327  35.006   8.884   4.128
42665W        W 4328   3.255   2.254   3.223
42666W        W 4329   1.857  36.356   5.112
42667W        W 4330   7.370   4.749   0.870
42668W        W 4331   8.390  27.674   0.419
42669W        W 4332  35.550  36.950   2.711
42670W        W 4333  33.911  21.529   5.301
42671W        W 4334   8.360  36.956   1.715
42672W        W 4335  37.540  23.716  12.990
42673W        W 4336  39.426  10.818  11.069
42674W        W 4337  31.938  33.958   2.245
42675W        W 4338  14.778  38.452  14.838
42676W        W 4339  41.945   1.925  11.411
42677W        W 4340   3.870  26.167  12.561
42678W        W 4341  14.655  44.400  13.919
42679W        W 4342   6.426  20.257  11.989
42680W        W 4343  41.995  15.198   3.214
42681W        W 4344  43.918  42.393   3.325
42682W        W 4345  44.487  16.618  13.399
42683W        W 4346  16.584  35.540  10.541
42684W        W 4347  31.629  14.668  13.344
42685W        W 4348   2.293   5.297  11.491
42686W        W 4349  37.973  32.986  10.567
42687W        W 4350   6.861  37.930   2.838
42688W        W 4351   3.306  35.466  13.376
42689W        W 4352  21.670  32.554  12.951
42690W        W 4353  31.957  37.473  13.022
42691W        W 4354  16.754  23.682   2.842
42692W        W 4355  39.355   6.791   4.633
42693W        W 4356  44.954  13.728   2.847
42694W        W 4357  31.063  25.010  12.931
42695W        W 4358  20.146  32.608   4.337
42696W        W 4359  12.229  26.134  13.943
42697W        W 4360   3.790  34.925  13.503
42698W        W 4361  31.103  17.153   4.661
42699W        W 4362  42.505  38.928   0.793
42700W        W 4363  35.486  10.659  14.353
42701W        W 4364  30.124  38.989   0.840
42702W        W 4365  15.730  23.047   3.353
42703W        W 4366  42.286   1.455   4.328
42704W        W 4367   2.798  31.569  14.977
42705W        W 4368  40.468  13.789   2.392
42706W        W 4369  35.062  19.135  12.904
42707W        W 4370  43.509  20.601  13.877
42708W        W 4371   0.927  26.642   1.270
42709W        W 4372  13.695   8.403   0.872
42710W        W 4373  12.122   9.376  14.998
42711W        W 4374  33.001  10.714   1.266
42712W        W 4375   2.804  22.711  13.874
42713W        W 4376   3.331  38.828   2.810
42714W        W 4377  33.587  41.798   4.756
42715W        W 4378  39.369  37.384   0.963
42716W        W 4379  31.483  30.976  12.559
42717W        W 4380   4.235  41.877   4.332
42718W        W 4381  38.896   8.378   2.382
42719W        W 4382   4.743  13.604  11.535
42720W        W 4383   6.892  30.481  12.855
42721W        W 4384   3.432   8.227  10.481
42722W        W 4385  41.894  37.448   2.726
42723W        W 4386  13.742  17.198   2.702
42724W        W 4387  28.452   0.369  14.287
42725W        W 4388  36.017   5.806  10.040
42726W        W 4389  31.133  34.615   3.297
42727W        W 4390  33.886   3.351   4.777
42728W        W 4391  42.351  21.532  10.895
42729W        W 4392  18.201   6.839  14.867
42730W        W 4393  40.928   0.948  13.319
42731W        W 4394  27.003  42.295  11.538
42732W        W 4395  39.457  20.643  13.797
42733W        W 4396  39.009  15.229   2.362
42734W        W 4397  29.588  39.532   1.378
42735W        W 4398  14.249  32.984   2.753
42736W        W 4399  22.636  38.954   9.936
42737W        W 4400  23.217  17.257  14.866
42738W        W 4401  42.490  14.127  10.988
42739W        W 4402  40.527  29.437  14.768
42740W        W 4403  32.935  38.493   2.328
42741W        W 4404  18.193  36.998   2.672
42742W        W 4405  30.161  23.514  12.577
42743W        W 4406   7.789  29.963  10.643
42744W        W 4407  37.562   9.655   0.408
42745W        W 4408  15.600  35.931   0.309
42746W        W 4409  43.809   4.394  14.032
42747W        W 4410  15.309  35.904   1.828
42748W        W 4411  10.151  41.855  14.411
42749W        W 4412   8.375  17.233   0.818
42750W        W 4413  19.717  15.103   2.730
42751W        W 4414  44.322   7.742   2.414
42752W        W 4415  34.515  26.602  11.450
42753W        W 4416  13.300  32.025  11.485
42754W        W 4417  10.774  41.806   0.805
42755W        W 4418  14.665  40.441   3.327
42756W        W 4419   8.304   0.275  12.450
42757W        W 4420  42.874   9.801  10.050
42758W        W 4421  43.795  34.536   4.746
42759W        W 4422  44.436   2.881  14.395
42760W        W 4423  32.620   6.250  13.536
42761W        W 4424  36.485   8.307   2.757
42762W        W 4425  21.585  43.862   0.780
42763W        W 4426  44.416  22.144  14.826
42764W        W 4427  38.985   1.475  11.877
42765W        W 4428  25.206  41.822   2.695
42766W        W 4429  31.426   5.697   2.214
42767W        W 4430  21.030  31.983  12.349
42768W        W 4431   7.333  28.575  11.979
42769W        W 4432  19.285   6.225  10.503
42770W        W 4433  20.752  29.558   4.713
42771W        W 4434  43.410  36.893  11.966
42772W        W 4435  40.519   6.764   0.265
42773W        W 4436   4.795  33.104  12.496
42774W        W 4437  24.630  23.564  12.918
42775W        W 4438  44.416  28.944  14.320
42776W        W 4439  13.322   5.279   3.263
42777W        W 4440  21.647  15.780   2.419
42778W        W 4441  24.054  30.496  12.437
42779W        W 4442  29.965  26.684  13.427
42780W        W 4443  28.534  12.727   3.634
42781W        W 4444  23.060  42.422  10.962
42782W        W 4445  43.943  37.511   1.856
42783W        W 4446  12.251   6.804  11.510
42784W        W 4447   6.915  12.706   2.719
42785W        W 4448   2.925   2.287  11.055
42786W        W 4449  11.698  37.948   4.719
42787W        W 4450   5.317   7.243   4.625
42788W        W 4451   6.356  12.322  14.808
42789W        W 4452  23.517  43.433   4.265
42790W        W 4453  41.843   4.905   9.948
42791W        W 4454  31.053  41.924   4.633
42792W        W 4455   3.343  31.419  14.903
42793W        W 4456  11.310  19.246  11.925
42794W        W 4457  28.995  36.879   3.306
42795W        W 4458  23.105  25.986  11.457
42796W        W 4459  39.837  16.299   0.477
42797W        W 4460  43.976   2.370  11.519
42798W        W 4461  19.131   6.289   2.338
42799W        W 4462  18.060  26.952   2.262
42800W        W 4463  27.088  42.375  14.359
42801W        W 4464   5.892  33.082  13.380
42802W        W 4465   3.399  43.493   1.879
42803W        W 4466   8.237  32.410   0.921
42804W        W 4467   8.901  13.677   2.900
42805W        W 4468  27.179  32.489   0.316
42806W        W 4469  34.491   4.320  13.802
42807W        W 4470   6.415  12.759   0.336
42808W        W 4471  38.957   9.390   2.280
42809W        W 4472  42.865  38.016   4.810
42810W        W 4473  32.420  29.431  13.353
42811W        W 4474  44.961  39.025   3.192
42812W        W 4475  12.213  32.001  10.998
42813W        W 4476  18.208   1.253   4.654
42814W        W 4477  21.068  10.646  11.988
42815W        W 4478  44.269   6.424  10.488
42816W        W 4479  32.127  22.719   3.822
42817W        W 4480  27.975  22.639  11.604
42818W        W 4481  13.105  44.401  14.464
42819W        W 4482  26.579  25.692   1.795
42820W        W 4483  40.021  27.453  14.972
42821W        W 4484  41.994   9.300   2.697
42822W        W 4485  19.697  10.276   4.322
42823W        W 4486   8.880  41.358   4.294
42824W        W 4487  12.617  14.223   4.725
42825W        W 4488  35.010  11.236   1.295
42826W        W 4489   3.719  27.449   3.667
42827W        W 4490  22.567   1.413  12.994
42828W        W 4491  36.967   7.828   1.411
42829W        W 4492  24.979  17.296   1.921
42830W        W 4493  33.482  28.026   1.309
42831W        W 4494   2.280  26.640  13.334
42832W        W 4495  37.514  29.104   0.246
42833W        W 4496   9.739   8.406  12.892
42834W        W 4497  14.734  19.176  13.993
42835W        W 4498   5.220   6.342  12.560
42836W        W 4499  43.918  14.658  13.968
42837W        W 4500  10.192  35.567   2.717
42838W        W 4501  29.120  36.919   2.393
42839W        W 4502  24.133  40.052   0.349
42840W        W 4503   9.228  34.457  10.967
42841W        W 4504  26.149  21.242  11.016
42842W        W 4505  11.197  19.101   2.788
42843W        W 4506  38.029  27.095  14.322
42844W        W 4507  10.166  38.554   0.451
42845W        W 4508  20.574  33.043  13.471
42846W        W 4509  36.569  29.158   0.815
42847W        W 4510  22.536  13.260  14.328
42848W        W 4511  19.102   2.427  11.976
42849W        W 4512  21.512  40.365  11.521
42850W        W 4513  40.526  32.074  12.534
42851W        W 4514  19.194  35.360  11.416
42852W        W 4515  31.443  28.184   4.619
42853W        W 4516  23.526   8.693  12.443
42854W        W 4517  18.221  15.645  13.057
42855W        W 4518   4.931  34.490  14.512
42856W        W 4519  42.931  24.518  12.521
42857W        W 4520  32.029  27.612   4.167
42858W        W 4521  36.510   9.169   4.321
42859W        W 4522  11.150   0.284   1.899
42860W        W 4523  39.993  33.043   3.860
42861W        W 4524  19.687  34.987  14.283
42862W        W 4525  28.521   2.904  11.544
42863W        W 4526  43.864  37.471   3.741
42864W        W 4527   6.757  10.188   0.801
42865W        W 4528  35.967  43.899   3.318
42866W        W 4529   8.198  19.551   0.257
42867W        W 4530  22.696  29.557  12.341
42868W        W 4531   8.229  20.544   2.249
42869W        W 4532  17.772  25.689  14.005
42870W        W 4533   2.470  28.095   4.771
42871W        W 4534  39.970  33.539   2.853
42872W        W 4535  37.567  30.028  14.470
42873W        W 4536   2.893  23.035  11.103
42874W        W 4537  19.212  33.999   1.877
42875W        W 4538   7.308  27.556   2.702
42876W        W 4539   8.322  24.158   1.912
42877W        W 4540   6.734  17.794  13.941
42878W        W 4541  22.552   2.854   4.225
42879W        W 4542   6.384  36.420   2.666
42880W        W 4543  21.602   5.200   3.735
42881W        W 4544   3.282  28.959   0.802
42882W        W 4545  12.159  11.851  13.350
42883W        W 4546   5.898  43.405  10.504
42884W        W 4547  17.793   4.406   3.290
42885W        W 4548  15.791   6.767  13.431
42886W        W 4549  23.545  41.329  11.389
42887W        W 4550   2.385  18.160   2.779
42888W        W 4551  18.770  25.611  11.416
42889W        W 4552  18.082   2.434  11.558
42890W        W 4553  21.570   7.754  11.020
42891W        W 4554  26.073  30.164  10.619
42892W        W 4555  27.477   0.880  14.488
42893W        W 4556  22.240   0.321   2.896
42894W        W 4557  11.156  23.523   1.343
42895W        W 4558  26.020  33.946  10.535
42896W        W 4559  31.081  26.611  11.554
42897W        W 4560   0.950  27.195  12.578
42898W        W 4561  11.263  30.508   1.298
42899W        W 4562  11.367   6.749   4.353
42900W        W 4563  23.051  21.169   2.224
42901W        W 4564  18.183   2.260  10.521
42902W        W 4565  12.656   1.760   1.825
42903W        W 4566   8.654  14.177   4.205
42904W        W 4567  25.101  29.541  10.969
42905W        W 4568  20.069  37.029   4.732
42906W        W 4569  41.893   6.276  13.319
42907W        W 4570   3.330  17.090   2.757
42908W        W 4571  39.346  20.116   1.449
42909W        W 4572  26.112  23.648   3.179
42910W        W 4573  32.530  25.163  12.552
42911W        W 4574  18.639  28.493  11.925
42912W        W 4575   6.206  15.624  14.472
42913W        W 4576   8.342  26.571   3.240
42914W        W 4577  36.542   7.766   1.909
42915W        W 4578  44.269  41.802  10.920
42916W        W 4579  29.078  34.502   4.732
42917W        W 4580  17.653  10.869   1.312
42918W        W 4581  16.175  39.512  12.842
42919W        W 4582  35.571  17.599  13.451
42920W        W 4583  25.640   6.369  11.571
42921W        W 4584   5.703  38.460  10.628
42922W        W 4585  27.948   6.815   3.263
42923W        W 4586  44.847   2.860   2.871
42924W        W 4587  15.199  19.109  13.062
42925W        W 4588   3.830  30.608  10.615
42926W        W 4589   3.805  12.743   3.643
42927W        W 4590  15.761  14.826  10.484
42928W        W 4591  22.169  38.347  11.539
42929W        W 4592  30.463  13.834   2.216
42930W        W 4593  30.078   9.890  12.459
42931W        W 4594   9.708   0.345   0.340
42932W        W 4595  25.651   0.330  14.856
42933W        W 4596  39.933   5.426   1.741
42934W        W 4597  14.261  38.967   4.349
42935W        W 4598   1.772   4.718  13.927
42936W        W 4599   5.813  34.571   4.261
42937W        W 4600  15.231  41.500   0.932
42938W        W 4601   6.209  30.653   2.740
42939W        W 4602  15.772  39.373   3.382
42940W        W 4603  10.247  35.888   5.228
42941W        W 4604  26.974  24.537   1.215
42942W        W 4605  29.919  21.146   4.827
42943W        W 4606   3.272  12.326   4.838
42944W        W 4607  16.254   5.753   4.242
42945W        W 4608  19.604  44.888   0.842
42946W        W 4609  36.538  21.721   3.338
42947W        W 4610  41.906  11.741  13.402
42948W        W 4611   3.927  40.996  11.411
42949W        W 4612  35.424   3.808   5.771
42950W        W 4613  25.523  23.606   0.474
42951W        W 4614  17.283   3.345   2.895
42952W        W 4615  37.064  44.419  11.099
42953W        W 4616  26.566  14.651  14.964
42954W        W 4617  26.559   6.754   3.630
42955W        W 4618  20.055  33.890   4.262
42956W        W 4619  34.089  14.754   1.910
42957W        W 4620  24.092  28.008  11.855
42958W        W 4621  34.402  11.732   3.653
42959W        W 4622  29.153  36.034   4.602
42960W        W 4623  17.219   2.832   2.813
42961W        W 4624  44.453  16.263  13.451
42962W        W 4625  22.198  42.924  13.375
42963W        W 4626   4.236  26.467   1.256
42964W        W 4627  30.032  40.526   4.139
42965W        W 4628  27.155  22.651   4.685
42966W        W 4629  24.555  24.066   9.500
42967W        W 4630  39.382  39.031  14.849
42968W        W 4631  31.588  39.844   0.968
42969W        W 4632   8.766  40.332  11.378
42970W        W 4633  35.106  15.685   2.311
42971W        W 4634  43.867  32.129   3.841
42972W        W 4635  41.805  34.088   1.303
42973W        W 4636  13.645  16.098   3.282
42974W        W 4637  14.208  24.206   2.673
42975W        W 4638  17.647  32.541  14.970
42976W        W 4639  11.141  31.445   3.356
42977W        W 4640  22.198  15.695  12.078
42978W        W 4641  37.495   4.207   3.376
42979W        W 4642   9.338  18.686   0.395
42980W        W 4643  15.637  44.853  12.526
42981W        W 4644  12.669  13.243  11.607
42982W        W 4645  38.825  11.674   3.349
42983W        W 4646  21.550  19.218  11.949
42984W        W 4647  20.082   9.325   2.297
42985W        W 4648  41.963  27.958  10.640
42986W        W 4649  20.536  29.124   0.346
42987W        W 4650  15.236  23.695  14.329
42988W        W 4651  30.016  16.713  12.945
42989W        W 4652  35.504  36.386   1.397
42990W        W 4653   9.344  36.865   1.757
42991W        W 4654  13.800  28.574   2.280
42992W        W 4655  34.418  35.042   3.706
42993W        W 4656  13.789  37.457   2.828
42994W        W 4657   0.783   6.229   5.306
42995W        W 4658  15.286  34.408  14.859
42996W        W 4659  29.573  27.969   4.141
42997W        W 4660  14.812  40.887  12.557
42998W        W 4661  19.286  35.927  14.445
42999W        W 4662  24.614  15.294  12.349
43000W        W 4663  36.462  19.588  14.404
43001W        W 4664  36.096  17.157   4.687
43002W        W 4665  26.481  22.739  11.963
43003W        W 4666  15.742   4.913  14.890
43004W        W 4667  25.504  35.579  11.950
43005W        W 4668  23.599  18.611  11.066
43006W        W 4669  12.756  25.053   5.310
43007W        W 4670  33.607   2.366   3.857
43008W        W 4671  13.170  40.541   5.082
43009W        W 4672  21.255  12.687   3.836
43010W        W 4673  39.342   3.434  12.852
43011W        W 4674  17.746  26.132  12.823
43012W        W 4675  35.993   7.680  12.512
43013W        W 4676  43.824  32.942   1.309
43014W        W 4677  27.984  11.358   1.247
43015W        W 4678  33.419  20.062  13.329
43016W        W 4679  34.086  27.537   2.688
43017W        W 4680   9.232   9.809   1.933
43018W        W 4681  26.029  22.744  13.024
43019W        W 4682   7.785  35.978   3.249
43020W        W 4683  34.971   0.985   3.854
43021W        W 4684  40.834  18.197  14.275
43022W        W 4685  20.546   4.252   3.742
43023W        W 4686  25.485  19.278   0.883
43024W        W 4687  11.281   5.226   0.382
43025W        W 4688  41.515  10.372  11.582
43026W        W 4689  35.989  20.217   2.664
43027W        W 4690  27.668  28.072   0.748
43028W        W 4691  41.334  27.460   4.197
43029W        W 4692  14.223  11.195  10.462
43030W        W 4693   2.448  19.132  11.590
43031W        W 4694  17.649  36.500   1.225
43032W        W 4695  43.274  25.963   0.943
43033W        W 4696  43.889  15.264  10.014
43034W        W 4697   6.880  16.714  10.477
43035W        W 4698  20.686   8.328   4.838
43036W        W 4699  37.853  38.367   3.660
43037W        W 4700  23.012  40.950   2.295
43038W        W 4701  33.966  34.919   1.417
43039W        W 4702  17.225  15.095   1.879
43040W        W 4703  23.070   8.734   4.175
43041W        W 4704  16.797  16.711   2.234
43042W        W 4705  16.751   5.807  10.978
43043W        W 4706   3.252  24.206  14.386
43044W        W 4707  42.017   8.290  12.078
43045W        W 4708  16.094  14.666   1.859
43046W        W 4709   8.333  29.601  11.498
43047W        W 4710  21.620   5.725   4.324
43048W        W 4711  41.032  31.981   0.854
43049W        W 4712   5.929   8.401   0.443
43050W        W 4713  34.554  25.128   2.893
43051W        W 4714  14.154   7.772   3.849
43052W        W 4715   7.222  29.594   1.312
43053W        W 4716   6.385   7.703   4.837
43054W        W 4717  15.823   6.879  11.961
43055W        W 4718  31.575  36.403  13.521
43056W        W 4719  40.471   8.287  11.105
43057W        W 4720  31.498  11.836  14.800
43058W        W 4721  41.866   7.401   1.404
43059W        W 4722  21.111  12.240   4.622
43060W        W 4723  23.680  41.985   4.710
43061W        W 4724  19.162  31.534   0.335
43062W        W 4725  44.378  32.075  11.489
43063W        W 4726  37.468  27.684   0.384
43064W        W 4727  16.698  16.108  12.864
43065W        W 4728  42.872   9.323  12.936
43066W        W 4729  44.862  11.748   1.421
43067W        W 4730   1.389   5.417   3.199
43068W        W 4731  14.767  42.846  13.430
43069W        W 4732  22.595   3.912   0.775
43070W        W 4733  10.262  38.529  11.990
43071W        W 4734  35.491  20.711   1.801
43072W        W 4735  18.088  24.207  11.961
43073W        W 4736  17.679  39.369  10.942
43074W        W 4737  13.701  16.716  11.912
43075W        W 4738   7.194  17.669  14.435
43076W        W 4739   8.274  42.928   4.336
43077W        W 4740  27.629   5.849  11.448
43078W        W 4741  16.604  14.794  14.486
43079W        W 4742  13.671  35.066   2.856
43080W        W 4743  25.012  17.765   0.285
43081W        W 4744  19.186  40.904   4.770
43082W        W 4745  33.009   7.682   4.330
43083W        W 4746  22.655  38.567  14.833
43084W        W 4747  13.657  20.602  12.476
43085W        W 4748   5.734   3.763   0.384
43086W        W 4749   4.920  43.972   3.776
43087W        W 4750  34.026  40.494  13.490
43088W        W 4751  42.293  33.991   4.266
43089W        W 4752  21.092  19.750  13.859
43090W        W 4753  40.804  11.651   1.265
43091W        W 4754  10.841  28.146  12.476
43092W        W 4755  28.456  19.549  11.385
43093W        W 4756  16.247  13.129   9.985
43094W        W 4757  19.643  35.440  12.021
43095W        W 4758   9.698  30.997  11.087
43096W        W 4759  40.042  23.077   4.794
43097W        W 4760  31.539  35.103   1.365
43098W        W 4761  33.007  42.033   1.801
43099W        W 4762   7.264   1.333  13.326
43100W        W 4763  15.100  40.823   9.574
43101W        W 4764   9.817   4.243   0.881
43102W        W 4765   7.302  40.832   0.732
43103W        W 4766  24.224   2.735  12.053
43104W        W 4767  43.005  29.929   2.403
43105W        W 4768  34.016  22.009   1.760
43106W        W 4769  26.201   1.460  12.347
43107W        W 4770  17.596  23.629   1.311
43108W        W 4771  28.053  13.154   1.845
43109W        W 4772  43.483   8.173   4.255
43110W        W 4773   7.186   0.316   1.720
43111W        W 4774   1.296  29.136  11.943
43112W        W 4775  26.552  40.406  13.844
43113W        W 4776  32.457   0.442  14.862
43114W        W 4777   6.767  15.205   2.228
43115W        W 4778  18.194  23.208  13.375
43116W        W 4779   1.732  16.576   4.216
43117W        W 4780  14.115  40.382   0.265
43118W        W 4781  23.007  37.072  14.004
43119W        W 4782   1.312   4.734  13.466
43120W        W 4783  39.869  31.458  12.867
43121W        W 4784  17.118  20.630   0.747
43122W        W 4785  37.884  41.444   3.169
43123W        W 4786  41.841  17.714  12.995
43124W        W 4787  11.347  20.725  13.836
43125W        W 4788  20.690  31.093   0.855
43126W        W 4789   9.799   6.753   2.312
43127W        W 4790  31.647   2.360  12.982
43128W        W 4791  36.915  25.176  12.353
43129W        W 4792  11.864  34.994  12.471
43130W        W 4793  19.603   4.431   2.857
43131W        W 4794  34.912  41.443  11.606
43132W        W 4795  35.499  26.605   3.779
43133W        W 4796  14.710  30.557  10.927
43134W        W 4797  27.662  40.485  11.896
43135W        W 4798   7.255  42.821   4.312
43136W        W 4799  33.886  15.105  14.868
43137W        W 4800  42.997   6.764  11.045
43138W        W 4801  16.605  31.027  11.863
43139W        W 4802   9.695  14.203   0.949
43140W        W 4803  25.997  14.303  12.842
43141W        W 4804  18.631   8.836  10.940
43142W        W 4805  43.289  11.252   0.334
43143W        W 4806  14.240   4.389   0.274
43144W        W 4807  18.139  13.629   3.219
43145W        W 4808  35.959   1.741  13.989
43146W        W 4809  14.658   5.332  10.975
43147W        W 4810  30.023  22.706   2.675
43148W        W 4811   0.814  12.273  14.846
43149W        W 4812   2.956   6.786  11.527
43150W        W 4813  37.551  10.786  14.389
43151W        W 4814  20.571  42.482  12.092
43152W        W 4815  15.135  27.171   2.721
43153W        W 4816  34.379  23.635  11.084
43154W        W 4817  12.735  37.011   2.379
43155W        W 4818  30.557  33.547  13.310
43156W        W 4819  22.046  14.740   2.298
43157W        W 4820   9.721  24.716  12.074
43158W        W 4821  30.118   9.744  12.991
43159W        W 4822  38.975  22.232   0.328
43160W        W 4823  43.021  34.375   1.239
43161W        W 4824   9.786  18.126  14.865
43162W        W 4825  30.414  33.037  11.105
43163W        W 4826  29.128  14.187   0.792
43164W        W 4827  16.780   3.296   4.212
43165W        W 4828  34.534  23.608   3.154
43166W        W 4829  27.026  38.960  10.438
43167W        W 4830   3.311  11.650   2.750
43168W        W 4831  12.759  38.494  12.525
43169W        W 4832  22.217  26.622   1.423
43170W        W 4833   2.389   6.718   2.842
43171W        W 4834   1.263  19.179   3.235
43172W        W 4835  34.504  27.545   2.193
43173W        W 4836   9.884  43.514   3.791
43174W        W 4837  20.733  28.043  14.384
43175W        W 4838   4.741  42.387  10.411
43176W        W 4839   1.927  30.487  13.878
43177W        W 4840  34.942  11.656  10.027
43178W        W 4841  33.985   1.242   1.894
43179W        W 4842  28.544  11.672  13.469
43180W        W 4843  19.183  18.173   2.187
43181W        W 4844   1.852  41.890   1.738
43182W        W 4845  18.206  32.939  11.402
43183W        W 4846  27.106  32.065   2.873
43184W        W 4847   3.350  38.477   0.328
43185W        W 4848  14.252  20.203  11.938
43186W        W 4849  22.530  43.388   1.748
43187W        W 4850  13.154   3.454  12.967
43188W        W 4851  21.240   7.329   0.246
43189W        W 4852   0.383  44.766   3.321
43190W        W 4853   7.860  28.629  11.389
43191W        W 4854  20.178  21.735   0.243
43192W        W 4855  26.603  42.004   5.708
43193W        W 4856   9.705  44.866  10.520
43194W        W 4857  41.535  26.650   3.864
43195W        W 4858  25.486   2.301   0.377
43196W        W 4859  20.225  31.153  11.910
43197W        W 4860  25.043   2.361   2.901
43198W        W 4861  44.946   0.265  14.873
43199W        W 4862  33.923   3.777  13.967
43200W        W 4863  41.009  30.588   0.334
43201W        W 4864   0.314  23.543  13.838
43202W        W 4865   5.741  20.563   2.390
43203W        W 4866  39.988  31.136  13.877
43204W        W 4867  29.059  19.258  13.482
43205W        W 4868  33.473  44.372   9.961
43206W        W 4869  20.750  19.552  13.868
43207W        W 4870  15.651  36.040  14.877
43208W        W 4871  11.337  43.321  13.960
43209W        W 4872  20.107  22.636  10.457
43210W        W 4873  29.978  34.020   0.920
43211W        W 4874  44.469   7.388  14.436
43212W        W 4875  38.421  43.353  11.543
43213W        W 4876  20.271  44.828   4.620
43214W        W 4877   3.841   3.895   0.939
43215W        W 4878  22.556  20.625  11.128
43216W        W 4879  10.380  21.721   4.734
43217W        W 4880  28.988  34.992   2.293
43218W        W 4881  34.073  34.993   3.777
43219W        W 4882  14.339  10.230   2.788
43220W        W 4883  29.653  29.161   0.921
43221W        W 4884  15.685  17.085   2.898
43222W        W 4885  16.692  42.849  12.412
43223W        W 4886  41.376  37.515   4.792
43224W        W 4887  37.472  17.113  10.450
43225W        W 4888  23.229  34.978  10.949
43226W        W 4889  35.883  23.138  14.463
43227W        W 4890  36.083   7.692  14.903
43228W        W 4891  10.817  20.137  13.951
43229W        W 4892   2.765  19.282  10.474
43230W        W 4893  38.460  23.122  10.608
43231W        W 4894  40.369  18.765  12.379
43232W        W 4895  39.547  23.159   4.773
43233W        W 4896   0.888  33.042  10.946
43234W        W 4897  12.248  44.401  12.874
43235W        W 4898  17.698  42.777   3.673
43236W        W 4899  22.580  24.684  11.383
43237W        W 4900  24.612  40.311   0.280
43238W        W 4901  30.061  25.641   0.953
43239W        W 4902  23.151   5.362  13.358
43240W        W 4903  40.830  18.290   0.902
43241W        W 4904  39.429   5.301   2.300
43242W        W 4905  20.160  30.551  14.334
43243W        W 4906   1.820  21.257   3.183
43244W        W 4907  41.297  44.448  11.436
43245W        W 4908  32.105  29.429  13.526
43246W        W 4909  21.515  11.646   3.347
43247W        W 4910  29.138  27.110  11.511
43248W        W 4911  25.709  12.622  12.411
43249W        W 4912  18.064   4.246   1.793
43250W        W 4913  27.542  40.404   0.345
43251W        W 4914  21.208  14.608   0.754
43252W        W 4915  26.142  19.717   1.343
43253W        W 4916  15.622  28.026   2.754
43254W        W 4917  41.841  17.754  13.862
43255W        W 4918  30.603  44.368   3.702
43256W        W 4919  40.428  34.103  11.976
43257W        W 4920  35.454  19.249  13.019
43258W        W 4921  25.691   1.302  14.364
43259W        W 4922  13.281  44.759  13.966
43260W        W 4923  32.946  37.577  13.938
43261W        W 4924  39.343  24.550   0.291
43262W        W 4925  15.290  28.646   1.854
43263W        W 4926   8.345  22.691  14.339
43264W        W 4927  12.688   2.468   2.326
43265W        W 4928   9.789  29.174   2.342
43266W        W 4929  43.387  22.054   2.189
43267W        W 4930  36.046  28.492   1.852
43268W        W 4931   1.346  40.522   0.380
43269W        W 4932  30.081  17.590   4.343
43270W        W 4933   0.844  19.568   4.323
43271W        W 4934  29.646  23.178  12.577
43272W        W 4935  19.775  29.553  11.928
43273W        W 4936  25.970   9.224  13.421
43274W        W 4937  24.157   8.751  13.370
43275W        W 4938   3.904   1.354   4.339
43276W        W 4939  26.972  36.953   2.294
43277W        W 4940   5.914   0.874  12.944
43278W        W 4941  33.468  18.557   0.761
43279W        W 4942  32.079  36.035   3.867
43280W        W 4943  14.730   6.365  13.425
43281W        W 4944  17.087  36.966   4.284
43282W        W 4945   3.756  27.092  14.836
43283W        W 4946   7.301  26.473  12.528
43284W        W 4947  42.003  21.679  13.439
43285W        W 4948   4.736  25.603   2.771
43286W        W 4949   7.756  21.130   0.957
43287W        W 4950  25.108  32.995  13.474
43288W        W 4951  35.473  24.065  12.998
43289W        W 4952   3.360  25.102   0.883
43290W        W 4953   2.261  44.761  14.289
43291W        W 4954  16.703  34.384   1.707
43292W        W 4955  25.179   4.340   3.634
43293W        W 4956  42.524  18.746   3.757
43294W        W 4957   9.794   7.871   1.876
43295W        W 4958  16.290  31.089  13.486
43296W        W 4959  20.208  27.954   3.316
43297W        W 4960   0.880  21.113   1.713
43298W        W 4961  39.540  26.470  14.471
43299W        W 4962  32.069  22.065   0.252
43300W        W 4963  14.757  39.511  12.356
43301W        W 4964   0.295  39.433   4.284
43302W        W 4965  29.927  26.624   2.718
43303W        W 4966  34.864  33.072  11.055
43304W        W 4967  12.714   3.367  13.367
43305W        W 4968   2.231  21.578  10.479
43306W        W 4969   5.794  15.189  13.361
43307W        W 4970  26.090   4.276  13.058
43308W        W 4971  31.997  21.242  13.521
43309W        W 4972   6.392  40.896  10.547
43310W        W 4973   1.300  39.548  14.942
43311W        W 4974  33.626  41.404  10.906
43312W        W 4975  35.508  10.299   5.155
43313W        W 4976  18.087  14.144   2.227
43314W        W 4977  18.185  15.764  11.484
43315W        W 4978  44.918  13.240  13.902
43316W        W 4979  17.239  32.963  11.410
43317W        W 4980  41.459  24.204   1.862
43318W        W 4981  13.312  26.469  13.364
43319W        W 4982   5.712  30.124   1.867
43320W        W 4983  19.051  28.642  12.034
43321W        W 4984   2.328   7.345   3.151
43322W        W 4985   1.940  16.282  13.433
43323W        W 4986  20.148  20.186   2.237
43324W        W 4987   8.764  11.697  12.352
43325W        W 4988  17.213   2.913   4.624
43326W        W 4989  10.829  43.311   1.253
43327W        W 4990  19.134  34.429   0.815
43328W        W 4991  18.600  14.818   1.362
43329W        W 4992  12.254  32.014   4.122
43330W        W 4993   9.674  28.033  10.635
43331W        W 4994   7.666  40.836   3.813
43332W        W 4995  29.081  10.841  13.835
43333W        W 4996  27.506  38.902  10.513
43334W        W 4997  16.224  19.727  10.953
43335W        W 4998  38.828   8.160   3.383
43336W        W 4999  41.443   9.353   3.151
43337W        W 5000  35.370  17.157  14.983
43338W        W 5001  34.901  16.680   3.365
43339W        W 5002  27.550   9.253  10.438
43340W        W 5003  12.634  25.568  14.834
43341W        W 5004  18.133  20.674  13.357
43342W        W 5005  37.950   7.893   0.451
43343W        W 5006   0.929  15.138   4.721
43344W        W 5007  42.997  34.916  14.785
43345W        W 5008   0.384  20.549   2.778
43346W        W 5009  14.230   6.361  13.461
43347W        W 5010   5.232  31.417  10.981
43348W        W 5011  22.996  26.485   4.141
43349W        W 5012   8.691  13.788  11.578
43350W        W 5013   1.255  33.118   0.478
43351W        W 5014  21.178  41.439  10.925
43352W        W 5015  34.111  44.815  10.892
43353W        W 5016  24.140  35.590   4.757
43354W        W 5017  35.930  22.130   3.327
43355W        W 5018   2.751  39.835   1.780
43356W        W 5019  23.196  24.189   3.818
43357W        W 5020  17.580   8.708  13.469
43358W        W 5021  18.198  39.349  12.398
43359W        W 5022  20.069  18.720  12.073
43360W        W 5023   8.856  28.569  11.486
43361W        W 5024  35.564  16.661   1.901
43362W        W 5025  17.077  41.040   4.650
43363W        W 5026  10.833  40.967   1.723
43364W        W 5027  28.179  43.016  12.575
43365W        W 5028  23.070   9.749   3.204
43366W        W 5029  43.456  38.385  11.455
43367W        W 5030  18.200  41.494  11.421
43368W        W 5031  35.937  36.889   4.638
43369W        W 5032  32.978  24.161   2.774
43370W        W 5033  31.584  42.295   2.883
43371W        W 5034  13.813  11.206   2.681
43372W        W 5035  41.903   4.340   1.775
43373W        W 5036  40.451  30.555   4.267
43374W        W 5037  32.612  33.481  14.400
43375W        W 5038   6.749  35.105  12.432
43376W        W 5039   9.160  36.850  11.107
43377W        W 5040  21.741   2.369  11.455
43378W        W 5041   9.863  14.253  11.069
43379W        W 5042  37.435  36.039  13.908
43380W        W 5043  32.118   0.786   1.841
43381W        W 5044  35.015  35.552  13.340
43382W        W 5045  23.698  41.536  13.410
43383W        W 5046  27.688  11.818  14.031
43384W        W 5047  18.255   3.332   2.669
43385W        W 5048  38.015  26.001  13.990
43386W        W 5049  17.261  19.701   3.360
43387W        W 5050  23.999  30.061  13.895
43388W        W 5051  34.393  16.656  10.518
43389W        W 5052  36.584  10.321   3.684
43390W        W 5053  23.002  38.871   3.645
43391W        W 5054  24.195  11.708   4.601
43392W        W 5055  29.605  42.514   0.764
43393W        W 5056  16.220   2.953  13.488
43394W        W 5057   2.367  14.338  14.275
43395W        W 5058  15.301  10.809   4.752
43396W        W 5059  33.934   7.352   1.931
43397W        W 5060  27.119  44.859   4.174
43398W        W 5061  27.990  32.580  12.528
43399W        W 5062  32.522  18.616  10.927
43400W        W 5063  28.526  34.549  10.908
43401W        W 5064  19.240  21.522   3.232
43402W        W 5065  11.216  34.386   1.426
43403W        W 5066  14.743  35.503  10.955
43404W        W 5067  44.428  15.686  14.975
43405W        W 5068  10.720  23.533   4.288
43406W        W 5069   1.375   8.379   1.381
43407W        W 5070   1.818  13.621  13.378
43408W        W 5071  25.553   0.422  13.449
43409W        W 5072  12.245  11.230  14.443
43410W        W 5073  19.748  20.246  12.972
43411W        W 5074  23.214  26.145  14.459
43412W        W 5075  14.198   0.775   3.149
43413W        W 5076   4.839  26.177  12.561
43414W        W 5077  22.180  24.048   3.362
43415W        W 5078  18.725  22.035   2.817
43416W        W 5079  38.339  32.429   0.262
43417W        W 5080  29.082  13.829   0.771
43418W        W 5081  31.089   0.762  13.032
43419W        W 5082  32.595  11.793   3.195
43420W        W 5083  17.773  44.438  13.348
43421W        W 5084  39.856  31.983   3.764
43422W        W 5085  12.702  37.438  14.004
43423W        W 5086  17.639  12.835  13.044
43424W        W 5087  25.468  16.280  13.408
43425W        W 5088  42.481  25.979   3.283
43426W        W 5089  35.569  24.159   0.850
43427W        W 5090  14.650  42.800   2.739
43428W        W 5091   6.313  42.463   4.307
43429W        W 5092   9.316  34.615  14.444
43430W        W 5093  44.974  35.373  14.017
43431W        W 5094  10.786  35.919  14.941
43432W        W 5095  12.719  44.259   2.297
43433W        W 5096  15.780  27.128  12.844
43434W        W 5097   9.837  13.115  14.355
43435W        W 5098  30.011  24.695   4.236
43436W        W 5099  18.676   8.164  14.398
43437W        W 5100  35.901  26.186  14.445
43438W        W 5101  20.765  41.834   0.336
43439W        W 5102  15.311  18.175   1.761
43440W        W 5103  22.066  43.881   4.813
43441W        W 5104  14.229   6.360   1.768
43442W        W 5105  25.648   3.416  10.615
43443W        W 5106  15.750  39.406  13.522
43444W        W 5107  24.538  11.814   4.338
43445W        W 5108  41.298   8.257  13.477
43446W        W 5109  38.526  31.958  12.941
43447W        W 5110  38.871  39.382  10.143
43448W        W 5111  11.211  25.045  11.890
43449W        W 5112   7.382  29.520  14.504
43450W        W 5113   8.385  18.703  14.300
43451W        W 5114  40.876  11.644   2.843
43452W        W 5115  17.263  28.608  10.964
43453W        W 5116  34.032  25.191  10.433
43454W        W 5117  36.958  21.747  11.483
43455W        W 5118   0.437  41.295   1.411
43456W        W 5119   1.748  41.393  12.952
43457W        W 5120  12.819   9.224   1.221
43458W        W 5121  27.669  28.000   2.228
43459W        W 5122  16.786  31.003   0.391
43460W        W 5123   5.825  35.545   3.352
43461W        W 5124  42.432  44.960  11.406
43462W        W 5125  23.005  34.060   2.249
43463W        W 5126   1.469  11.662  13.492
43464W        W 5127  32.425  38.479  14.397
43465W        W 5128  40.951  38.070  10.609
43466W        W 5129  42.011  18.074  11.113
43467W        W 5130  35.601  18.782  12.347
43468W        W 5131  40.430  42.512  11.033
43469W        W 5132   7.181  44.794  13.015
43470W        W 5133  21.716  37.480  11.105
43471W        W 5134  12.250   3.875   4.137
43472W        W 5135  10.685  43.405   3.712
43473W        W 5136  40.465   8.266  14.000
43474W        W 5137   3.899  30.604   1.213
43475W        W 5138  36.464  17.174   3.803
43476W        W 5139  14.282   6.329  12.021
43477W        W 5140  12.304  38.563  10.492
43478W        W 5141  36.014  29.520  10.525
43479W        W 5142  11.796  35.950   9.934
43480W        W 5143  22.681  29.433   3.745
43481W        W 5144   0.891  14.165  12.872
43482W        W 5145  11.277  10.303   4.661
43483W        W 5146  33.116  23.643   4.711
43484W        W 5147  43.390  18.691   2.811
43485W        W 5148  44.290  10.859   3.376
43486W        W 5149  23.112   7.695  11.065
43487W        W 5150   1.799  16.178   0.933
43488W        W 5151  27.048   4.830  12.932
43489W        W 5152  18.755  40.413  13.312
43490W        W 5153  33.021  23.223  12.963
43491W        W 5154  21.031   3.792  13.892
43492W        W 5155  15.604  24.643   2.889
43493W        W 5156  28.953  29.661   1.798
43494W        W 5157   0.473  23.665   2.801
43495W        W 5158  33.937   1.771   0.414
43496W        W 5159  21.519  36.468   0.828
43497W        W 5160  10.708  32.093   0.744
43498W        W 5161  15.806  23.986   5.099
43499W        W 5162  31.565   2.320  10.923
43500W        W 5163  44.353   4.288   3.718
43501W        W 5164  23.198  39.061   0.311
43502W        W 5165   2.314   1.762   0.409
43503W        W 5166  15.129   5.367   0.927
43504W        W 5167   7.226  28.466   3.832
43505W        W 5168   9.667  17.756  14.504
43506W        W 5169  42.900  31.013   1.394
43507W        W 5170  35.415  43.973   2.794
43508W        W 5171  19.779   2.284   1.838
43509W        W 5172  27.016   8.840  14.427
43510W        W 5173  30.939   3.422   5.290
43511W        W 5174   6.345  24.142   1.756
43512W        W 5175   4.852  31.529  10.489
43513W        W 5176  21.652  38.824   4.769
43514W        W 5177   8.681  35.451  14.436
43515W        W 5178  34.943   5.756   2.894
43516W        W 5179  26.528  37.532  12.483
43517W        W 5180  32.057   2.369  10.542
43518W        W 5181  17.606  31.482   1.267
43519W        W 5182  15.730   1.285  13.357
43520W        W 5183  16.721  33.408  12.986
43521W        W 5184  38.846  28.463   3.824
43522W        W 5185  26.198  14.663  12.380
43523W        W 5186  12.734  25.148  13.043
43524W        W 5187  39.844  34.402  11.033
43525W        W 5188  30.970  23.620   1.843
43526W        W 5189  24.546   6.388  13.897
43527W        W 5190  26.139  21.590  10.640
43528W        W 5191  41.298  43.959  12.917
43529W        W 5192  16.126  40.508  14.825
43530W        W 5193  16.754  40.511  13.420
43531W        W 5194  16.112  36.916  14.388
43532W        W 5195  10.653  16.730   0.251
43533W        W 5196  44.821  32.895  13.367
43534W        W 5197   2.465   5.716  13.471
43535W        W 5198  40.909  27.106   4.262
43536W        W 5199  13.340   3.304  11.469
43537W        W 5200   6.707   3.234   2.389
43538W        W 5201  26.051  37.048   1.414
43539W        W 5202   2.752  32.586  13.993
43540W        W 5203  39.342  37.045   0.852
43541W        W 5204  13.604  27.041   4.268
43542W        W 5205  34.411   4.814  14.015
43543W        W 5206  37.450   6.238  10.416
43544W        W 5207  28.074  41.308  14.392
43545W        W 5208  34.491   2.229   1.730
43546W        W 5209   6.353  25.502  13.056
43547W        W 5210  40.806  16.143  14.336
43548W        W 5211  11.671  22.515   0.874
43549W        W 5212   6.694  17.217   2.863
43550W        W 5213  40.860  44.902   4.604
43551W        W 5214  37.887  44.414   1.254
43552W        W 5215  40.324  15.585  10.537
43553W        W 5216  38.479  22.586   2.366
43554W        W 5217  36.352   9.829   4.736
43555W        W 5218  25.563   5.781   0.384
43556W        W 5219  38.493  17.753  13.465
43557W        W 5220  29.502   2.887   2.242
43558W        W 5221  36.857  26.532   3.757
43559W        W 5222   3.262  29.980   3.184
43560W        W 5223  21.681  42.824  10.584
43561W        W 5224  30.087  32.962  13.981
43562W        W 5225  38.559   3.305   0.746
43563W        W 5226   7.690  41.880   2.868
43564W        W 5227  12.178   5.421   0.967
43565W        W 5228  13.281  35.954  14.323
43566W        W 5229   8.391   1.448   1.744
43567W        W 5230  22.565  19.261  14.995
43568W        W 5231  41.478   3.415  14.016
43569W        W 5232   2.325   9.236   0.745
43570W        W 5233  28.944  16.637   3.207
43571W        W 5234   3.397  39.842   3.771
43572W        W 5235  43.414  31.991  14.778
43573W        W 5236  20.197  30.165   2.680
43574W        W 5237  44.398  32.129  13.425
43575W        W 5238  38.471  26.667   1.841
43576W        W 5239  10.661   6.758  13.027
43577W        W 5240  33.912   7.669  11.865
43578W        W 5241  23.984  36.455  13.052
43579W        W 5242  13.831  27.944  12.432
43580W        W 5243  40.528   7.730  10.432
43581W        W 5244  37.486  24.003   2.900
43582W        W 5245  14.196   8.376   0.450
43583W        W 5246  44.472  20.731   0.767
43584W        W 5247  33.619   4.736   0.343
43585W        W 5248  42.438  41.291  13.473
43586W        W 5249  19.743  14.119  10.509
43587W        W 5250  12.665  38.519   1.272
43588W        W 5251  31.517  26.058   0.463
43589W        W 5252  14.783  13.770  12.008
43590W        W 5253  42.990  24.565  14.874
43591W        W 5254  41.004  24.213  10.921
43592W        W 5255  29.596  44.873  13.063
43593W        W 5256  10.720  12.616   3.285
43594W        W 5257  37.362   6.276   4.781
43595W        W 5258  41.489  10.645   3.757
43596W        W 5259  30.999  28.495   2.857
43597W        W 5260  30.566  25.530  13.313
43598W        W 5261  43.411  18.073  10.453
43599W        W 5262  22.151  29.617   2.183
43600W        W 5263  30.056  30.932   4.631
43601W        W 5264  32.941  21.075   2.894
43602W        W 5265  24.027  42.940  10.035
43603W        W 5266  29.119  13.648   3.683
43604W        W 5267   1.879  38.821  12.548
43605W        W 5268   7.275  34.878  12.477
43606W        W 5269   3.292   5.247  10.431
43607W        W 5270  38.444  21.167  12.575
43608W        W 5271  12.746  37.440   3.726
43609W        W 5272  31.521   0.849  12.383
43610W        W 5273   4.886   9.362   3.264
43611W        W 5274  26.955  33.950   1.286
43612W        W 5275  32.994   2.728  12.385
43613W        W 5276  23.664  12.133   1.784
43614W        W 5277  35.062  33.560   3.722
43615W        W 5278  15.724  28.149  14.816
43616W        W 5279  31.522  43.404   2.393
43617W        W 5280  18.641  18.556   2.315
43618W        W 5281  15.736   7.285   1.418
43619W        W 5282  40.370  35.925  11.561
43620W        W 5283  21.561  22.713   2.697
43621W        W 5284  42.487   3.318   0.441
43622W        W 5285   6.776  28.131  13.016
43623W        W 5286   2.469  36.449  13.316
43624W        W 5287  30.985  31.498  13.011
43625W        W 5288   6.298  38.368  11.510
43626W        W 5289  21.543  32.582  14.301
43627W        W 5290  22.706  41.989  13.877
43628W        W 5291  25.023  30.134  13.804
43629W        W 5292  37.963  44.823   0.361
43630W        W 5293  40.473   0.825  10.633
43631W        W 5294  33.427  38.518  13.839
43632W        W 5295  17.650  41.452   4.708
43633W        W 5296  38.394  12.797   4.706
43634W        W 5297  17.717  44.884   2.285
43635W        W 5298  11.862   6.749   1.885
43636W        W 5299   3.388   4.741   1.352
43637W        W 5300  17.279  24.111   1.327
43638W        W 5301  10.260   8.276   2.204
43639W        W 5302  16.181  31.904  10.557
43640W        W 5303  17.299  27.487  14.854
43641W        W 5304  35.592  26.486   1.217
43642W        W 5305  11.668  36.350  11.595
43643W        W 5306  41.523  24.154   2.314
43644W        W 5307  22.523  30.439  13.879
43645W        W 5308  33.587  26.596  13.413
43646W        W 5309  26.150  32.393   1.797
43647W        W 5310  23.681   3.919   2.250
43648W        W 5311   8.371   8.160  14.972
43649W        W 5312   2.965  43.276  14.888
43650W        W 5313  38.868  29.648  11.533
43651W        W 5314   1.875  21.704  10.521
43652W        W 5315  24.063  20.206   4.728
43653W        W 5316  43.964  30.095   3.837
43654W        W 5317   1.360  12.221   0.276
43655W        W 5318  10.257   6.717  10.513
43656W        W 5319  17.257  24.523   3.212
43657W        W 5320  26.597  38.455  13.395
43658W        W 5321  18.660  14.128   2.837
43659W        W 5322  23.058  11.630   4.639
43660W        W 5323  28.572  22.060   0.874
43661W        W 5324  21.079  25.009  11.117
43662W        W 5325  30.116   6.365  12.948
43663W        W 5326  26.063   6.232   4.163
43664W        W 5327  26.109  39.329  14.786
43665W        W 5328  37.499   5.318   4.801
43666W        W 5329  42.001  37.533  12.478
43667W        W 5330  27.070  12.848  13.468
43668W        W 5331  18.290   5.873   0.821
43669W        W 5332  29.457   7.250   0.293
43670W        W 5333  10.644  13.234   2.718
43671W        W 5334  38.409   2.428   0.366
43672W        W 5335  16.630   9.772   0.802
43673W        W 5336  44.354  41.341  13.835
43674W        W 5337  43.833  41.461  11.544
43675W        W 5338  41.385  34.559  12.521
43676W        W 5339  21.189  27.612   3.278
43677W        W 5340  18.221  22.198  10.525
43678W        W 5341  21.188  11.796  13.054
43679W        W 5342  25.077  38.821  12.506
43680W        W 5343  44.488  26.463   3.326
43681W        W 5344  35.034  40.944   2.896
43682W        W 5345  18.103  38.890  13.893
43683W        W 5346   9.189  37.940  11.885
43684W        W 5347  43.516   1.766  12.865
43685W        W 5348   1.843  26.104   0.427
43686W        W 5349   4.748  35.542  12.005
43687W        W 5350  20.742  25.501   3.165
43688W        W 5351  14.107   3.215   1.320
43689W        W 5352  25.631  17.638  10.428
43690W        W 5353  34.483   2.330   4.234
43691W        W 5354  40.979  43.975   4.170
43692W        W 5355   7.295   3.786   1.906
43693W        W 5356  37.030   7.356   3.351
43694W        W 5357   4.379  16.211   2.312
43695W        W 5358  28.049  35.425   0.774
43696W        W 5359  23.230   9.207   1.745
43697W        W 5360  40.992  41.356  11.063
43698W        W 5361  42.291  25.087   3.207
43699W        W 5362  14.623   7.340   1.833
43700W        W 5363  24.033   0.268  12.370
43701W        W 5364  11.843  15.167  14.284
43702W        W 5365  37.456  36.452  14.014
43703W        W 5366  27.498   8.723  12.885
43704W        W 5367   5.439  18.075  13.906
43705W        W 5368   1.261   9.273   4.610
43706W        W 5369  36.541  44.497  13.927
43707W        W 5370  42.361  17.610   0.805
43708W        W 5371  44.924   4.846  14.301
43709W        W 5372  10.706  31.900  13.325
43710W        W 5373  31.980  15.090  13.053
43711W        W 5374  24.490  10.854  11.505
43712W        W 5375  31.045  30.125   3.704
43713W        W 5376  31.123  33.404   0.958
43714W        W 5377   8.201  28.123  14.315
43715W        W 5378   8.213  21.113  13.876
43716W        W 5379  20.579  43.982   0.475
43717W        W 5380  10.279  27.021   0.443
43718W        W 5381  30.466   8.699  10.940
43719W        W 5382  31.025   2.449  10.521
43720W        W 5383  23.531  15.163   1.376
43721W        W 5384  42.499  10.211   0.874
43722W        W 5385  23.009  31.620   3.728
43723W        W 5386  23.724  22.086  13.947
43724W        W 5387  35.019  27.173   2.290
43725W        W 5388  13.176  43.948   3.192
43726W        W 5389  20.155  15.677  11.913
43727W        W 5390  28.497  12.136   0.948
43728W        W 5391  21.533  25.216  14.799
43729W        W 5392  40.451  24.700  12.925
43730W        W 5393  26.166  14.167  11.371
43731W        W 5394  32.061  30.159   3.293
43732W        W 5395   2.898  11.807   1.726
43733W        W 5396  21.153  22.125  12.396
43734W        W 5397  17.620  18.235  12.913
43735W        W 5398  36.398   0.323   0.341
43736W        W 5399  44.453  22.146   4.600
43737W        W 5400   4.883   4.238  12.433
43738W        W 5401  23.162  34.019  14.938
43739W        W 5402   3.328  42.399   1.265
43740W        W 5403  14.759   2.721   3.224
43741W        W 5404   4.795  34.029  13.346
43742W        W 5405  27.493   3.442  11.451
43743W        W 5406  26.469   6.339   2.677
43744W        W 5407  28.525   8.865  11.489
43745W        W 5408  29.102  39.456   3.843
43746W        W 5409   0.371  13.135   1.867
43747W        W 5410   7.223  41.877   2.286
43748W        W 5411  27.134  11.777  11.613
43749W        W 5412   3.432  12.243   3.768
43750W        W 5413  26.611  43.365   1.380
43751W        W 5414  38.415  16.640  12.365
43752W        W 5415  36.467  25.659   2.669
43753W        W 5416  39.974  16.738   3.859
43754W        W 5417  22.054  20.188   2.405
43755W        W 5418  23.617  18.158   3.239
43756W        W 5419  22.089   1.757   2.811
43757W        W 5420  15.672  44.406   1.738
43758W        W 5421  14.153  28.591  13.335
43759W        W 5422  14.124   1.783   4.733
43760W        W 5423  41.990  39.549   3.682
43761W        W 5424  16.212  22.066   2.316
43762W        W 5425  28.568  20.724   0.462
43763W        W 5426  26.621  38.417  14.355
43764W        W 5427  31.008  18.590  14.801
43765W        W 5428  11.170  20.273  12.354
43766W        W 5429  44.497  16.295  10.513
43767W        W 5430  20.097  15.167  14.003
43768W        W 5431  22.997  39.955   1.222
43769W        W 5432  38.452  30.975  14.029
43770W        W 5433  32.433  10.359   4.152
43771W        W 5434  15.268   6.195  13.841
43772W        W 5435  36.856  41.007  14.281
43773W        W 5436  17.736  12.783   2.270
43774W        W 5437  28.982   1.792  11.415
43775W        W 5438  42.367   6.330  11.994
43776W        W 5439  14.789  24.489  11.953
43777W        W 5440  23.079  23.117   4.348
43778W        W 5441   6.708  29.133   4.690
43779W        W 5442  12.842  33.879  14.454
43780W        W 5443  36.864  42.787  14.000
43781W        W 5444  17.116  12.774   1.798
43782W        W 5445   6.338  11.311  11.540
43783W        W 5446   5.296   4.792  12.456
43784W        W 5447   5.209  37.394  14.338
43785W        W 5448  21.078   1.779   2.699
43786W        W 5449  12.162  32.608   0.846
43787W        W 5450  34.942   0.984  10.537
43788W        W 5451   3.726   7.203   4.661
43789W        W 5452   9.190  12.664   3.680
43790W        W 5453  26.137   2.325   3.288
43791W        W 5454  32.512  44.782   0.779
43792W        W 5455  31.449   6.264  13.497
43793W        W 5456   7.236  16.090  11.581
43794W        W 5457  29.443  16.734   0.328
43795W        W 5458  38.469  15.188   4.234
43796W        W 5459  19.168  10.174  11.995
43797W        W 5460  17.227  33.989   0.774
43798W        W 5461  22.103  32.410  10.586
43799W        W 5462  26.185  29.041   0.284
43800W        W 5463   7.669  42.462   1.226
43801W        W 5464  31.141   0.914  12.440
43802W        W 5465  43.370  19.071   3.183
43803W        W 5466   7.363  32.064   0.444
43804W        W 5467   7.396  34.480  12.033
43805W        W 5468  42.939  40.425  12.525
43806W        W 5469  28.176  38.851   1.729
43807W        W 5470  10.161  19.104   3.655
43808W        W 5471   2.470  28.565   1.852
43809W        W 5472  44.831  30.040  11.043
43810W        W 5473  33.416  40.433   9.978
43811W        W 5474  29.075  38.065  11.926
43812W        W 5475  27.177  38.949   4.805
43813W        W 5476  29.019  15.636  10.099
43814W        W 5477  33.484  28.551  13.871
43815W        W 5478  15.794  13.193  10.138
43816W        W 5479  40.411  33.954  12.517
43817W        W 5480  30.038  16.105  10.572
43818W        W 5481   9.672   7.257   1.309
43819W        W 5482  11.733  20.604   3.279
43820W        W 5483  23.206  28.659  12.023
43821W        W 5484   0.835  41.904   3.742
43822W        W 5485  13.332  29.058   2.275
43823W        W 5486   7.703   7.857   3.249
43824W        W 5487  43.852  39.045   3.351
43825W        W 5488  31.489  40.323   3.269
43826W        W 5489  26.617  40.032  11.544
43827W        W 5490  13.818  23.588   2.317
43828W        W 5491  34.557  32.029   4.739
43829W        W 5492  17.307  19.751   4.334
43830W        W 5493  43.826  31.100  13.432
43831W        W 5494  38.378  27.094   3.250
43832W        W 5495  28.659   8.391   0.913
43833W        W 5496  16.230   1.821   4.806
43834W        W 5497  19.070  15.218   0.750
43835W        W 5498   4.224  13.144   0.911
43836W        W 5499  38.998   9.191   0.302
43837W        W 5500   0.466  44.897  13.498
43838W        W 5501  18.059  14.302   1.310
43839W        W 5502  37.414   4.407  14.329
43840W        W 5503   3.866  31.969  13.524
43841W        W 5504  23.556  18.627   2.730
43842W        W 5505  40.875  28.988   2.322
43843W        W 5506  31.997  16.641   3.791
43844W        W 5507  27.569   6.424   4.150
43845W        W 5508  23.067   9.264  12.415
43846W        W 5509  13.128  27.666   3.271
43847W        W 5510  38.941   3.333  14.764
43848W        W 5511  40.859  30.938   4.727
43849W        W 5512  14.806  41.037   4.769
43850W        W 5513  36.980  28.459  11.129
43851W        W 5514   1.238  19.705  13.813
43852W        W 5515   3.415  24.547   2.286
43853W        W 5516  44.805   1.779  10.568
43854W        W 5517  30.546   1.437   4.668
43855W        W 5518  16.690  24.999  12.056
43856W        W 5519  28.167  28.603   3.630
43857W        W 5520   1.809   4.300  14.876
43858W        W 5521  32.464  43.279  12.500
43859W        W 5522   3.851   3.838   1.931
43860W        W 5523  17.288  10.340   0.481
43861W        W 5524  14.282  36.975  14.323
43862W        W 5525  31.041   5.392   0.481
43863W        W 5526   9.794  16.316   0.346
43864W        W 5527   4.213  29.163  13.003
43865W        W 5528  18.188  14.204   3.645
43866W        W 5529  10.202  37.437   0.412
43867W        W 5530  10.223  17.792   2.191
43868W        W 5531  18.584  24.190  14.835
43869W        W 5532  15.580  18.579   4.782
43870W        W 5533  11.709  24.642  10.555
43871W        W 5534  34.083  40.355   4.603
43872W        W 5535  35.903  38.499   3.798
43873W        W 5536  44.465   0.804   0.911
43874W        W 5537  41.895   7.239   9.516
43875W        W 5538  37.429  39.507   1.882
43876W        W 5539  23.143   3.865  14.409
43877W        W 5540   3.796   6.781  14.963
43878W        W 5541   2.743   9.207   2.417
43879W        W 5542   7.376  27.623  13.499
43880W        W 5543  14.304  34.579   9.983
43881W        W 5544   4.886   6.278   4.205
43882W        W 5545  43.413  24.018  11.473
43883W        W 5546  25.182   6.759  14.503
43884W        W 5547  10.701  40.385  10.435
43885W        W 5548   8.747  18.630   1.889
43886W        W 5549   9.167  22.608  12.369
43887W        W 5550  15.702  42.847  14.866
43888W        W 5551  40.054   1.776  10.623
43889W        W 5552  44.898  26.151   1.745
43890W        W 5553  34.428  16.812  14.456
43891W        W 5554  13.644  16.211   2.209
43892W        W 5555  16.238  16.784  13.317
43893W        W 5556  19.540  18.669   4.197
43894W        W 5557  21.048   4.857  12.063
43895W        W 5558   1.264  18.646  14.355
43896W        W 5559  17.556  17.776   4.255
43897W        W 5560  42.456  33.979  11.385
43898W        W 5561   3.280  14.631  12.881
43899W        W 5562  26.103   0.415  14.797
43900W        W 5563  22.135  28.550  11.967
43901W        W 5564   3.364  22.628  11.600
43902W        W 5565  37.551  27.678  10.411
43903W        W 5566   4.846  30.076  14.499
43904W        W 5567   0.818  14.775   0.903
43905W        W 5568  44.329   3.397   2.679
43906W        W 5569  23.191  18.640   2.724
43907W        W 5570  24.539  18.240  11.029
43908W        W 5571   8.739  43.377   4.658
43909W        W 5572   5.327  11.232   1.435
43910W        W 5573  41.322  13.670  14.276
43911W        W 5574  18.294  25.597   1.391
43912W        W 5575  23.222  27.122   1.862
43913W        W 5576   0.395  14.622  10.089
43914W        W 5577  44.372  12.151   0.967
43915W        W 5578  17.252  41.525  12.952
43916W        W 5579  29.588  15.168  12.893
43917W        W 5580  34.963   8.282  10.914
43918W        W 5581   4.902  21.660   1.708
43919W        W 5582  27.480   8.720   0.392
43920W        W 5583  37.543  44.498   4.152
43921W        W 5584  13.337  15.277   4.304
43922W        W 5585  35.091  30.158   3.310
43923W        W 5586  24.706  29.932   2.756
43924W        W 5587  30.530  41.515   2.214
43925W        W 5588  28.527  21.096   2.402
43926W        W 5589  21.161  23.137   1.267
43927W        W 5590  24.718   0.381  10.619
43928W        W 5591  28.015  41.493  12.393
43929W        W 5592  21.056  37.056  12.940
43930W        W 5593  41.505  15.726  10.423
43931W        W 5594  23.037   6.869   1.231
43932W        W 5595   2.418  29.950  13.496
43933W        W 5596   3.846  43.311  13.345
43934W        W 5597  24.043   8.232   2.799
43935W        W 5598  19.541  33.503   2.278
43936W        W 5599  23.697  36.573  11.481
43937W        W 5600   3.907  28.136  13.998
43938W        W 5601  36.533  25.117   1.239
43939W        W 5602  15.633  28.680   3.648
43940W        W 5603  15.763  22.738  14.786
43941W        W 5604   8.826  30.479   0.907
43942W        W 5605  44.840  33.038   4.175
43943W        W 5606  20.225  33.989   1.816
43944W        W 5607  23.543  43.849   4.238
43945W        W 5608  15.177  25.554   1.396
43946W        W 5609   0.347   3.754   1.358
43947W        W 5610  29.497  11.296   1.365
43948W        W 5611  12.670  44.986   1.764
43949W        W 5612  22.995  20.635  14.810
43950W        W 5613  27.604   6.243   3.739
43951W        W 5614  32.564  43.369   2.388
43952W        W 5615   0.868  43.327  14.954
43953W        W 5616  35.031  20.652  13.870
43954W        W 5617  17.217  32.029   4.784
43955W        W 5618  17.103   2.343  12.841
43956W        W 5619   4.225  44.848  12.069
43957W        W 5620  19.655  21.659  14.455
43958W        W 5621  37.444  43.855  14.480
43959W        W 5622  39.494   8.187   3.185
43960W        W 5623   5.817  20.038   3.225
43961W        W 5624  18.202   1.249  10.992
43962W        W 5625   9.260  29.030  14.816
43963W        W 5626   8.212   4.769  13.402
43964W        W 5627  24.041  34.914  10.611
43965W        W 5628  31.454   1.929   4.651
43966W        W 5629  11.766  16.724   0.291
43967W        W 5630  27.151  10.711  13.479
43968W        W 5631  35.903  25.601  12.498
43969W        W 5632   4.905  13.345  14.921
43970W        W 5633  10.311  36.442  10.641
43971W        W 5634  26.092  26.990   0.459
43972W        W 5635  27.183  15.587  14.489
43973W        W 5636   1.908  37.004   1.298
43974W        W 5637  23.985   9.735   4.307
43975W        W 5638  27.580  33.382  12.421
43976W        W 5639  40.393  31.097  11.126
43977W        W 5640  35.908  13.744  13.064
43978W        W 5641  41.837  11.373   0.374
43979W        W 5642  12.142  40.817  11.041
43980W        W 5643  14.286  16.590  13.427
43981W        W 5644  37.496   8.816  11.507
43982W        W 5645  30.115   3.324   1.709
43983W        W 5646  31.025  39.931  13.486
43984W        W 5647  44.787  14.137   4.244
43985W        W 5648  25.698  22.644  13.817
43986W        W 5649   1.826   4.906   3.153
43987W        W 5650  21.091   1.383  13.495
43988W        W 5651  19.239   0.425  13.870
43989W        W 5652  40.897  25.536  11.419
43990W        W 5653   1.472   7.372   9.941
43991W        W 5654  10.253  23.530  13.809
43992W        W 5655  41.365  33.056   1.769
43993W        W 5656  15.598  44.973   1.743
43994W        W 5657   5.690   8.239  14.837
43995W        W 5658  11.204  14.207   2.900
43996W        W 5659   4.775  25.532  14.937
43997W        W 5660  36.582  34.458  11.972
43998W        W 5661  23.230  24.517   2.376
43999W        W 5662   3.907  42.789   0.860
44000W        W 5663  15.187  35.561   2.223
44001W        W 5664  40.451   5.816  10.985
44002W        W 5665   3.737  25.569  11.049
44003W        W 5666  26.121  23.040   1.824
44004W        W 5667   3.885  15.813   1.253
44005W        W 5668  32.466  26.497   4.790
44006W        W 5669  26.479  36.480   2.733
44007W        W 5670  35.061  39.061  14.420
44008W        W 5671   6.317  44.793  11.380
44009W        W 5672  41.488   7.329   1.845
44010W        W 5673  39.003  11.867   1.292
44011W        W 5674  11.285  29.922   2.248
44012W        W 5675  20.705  43.357  10.981
44013W        W 5676  40.437   6.728   0.939
44014W        W 5677  28.589  31.115   0.739
44015W        W 5678   9.161  22.108  14.293
44016W        W 5679  20.563   7.853   0.863
44017W        W 5680  34.380  10.342  13.391
44018W        W 5681  22.154  12.230  14.300
44019W        W 5682  30.069  35.539   4.213
44020W        W 5683  24.690  40.303   1.387
44021W        W 5684  25.534  23.077   4.598
44022W        W 5685  33.957  33.589  12.354
44023W        W 5686  17.729  31.052   2.285
44024W        W 5687  10.843   0.933   3.168
44025W        W 5688  29.999   8.787  11.584
44026W        W 5689  34.017  15.280  12.549
44027W        W 5690  43.850   3.720  13.990
44028W        W 5691  41.409  44.482  10.484
44029W        W 5692  22.087  38.945  13.846
44030W        W 5693   8.742  25.611   2.400
44031W        W 5694   8.160  15.610  11.048
44032W        W 5695  43.912  39.928  14.015
44033W        W 5696   1.360  25.054   2.840
44034W        W 5697  10.212  19.179   0.308
44035W        W 5698  30.658  35.042  10.628
44036W        W 5699  23.582  32.077   4.699
44037W        W 5700  22.995  25.215   2.351
44038W        W 5701  39.432  19.134  11.960
44039W        W 5702   9.387  37.470  12.523
44040W        W 5703  10.220  41.412   4.220
44041W        W 5704   9.698   8.264   0.940
44042W        W 5705   9.670  17.207  11.007
44043W        W 5706  17.256  18.144   4.189
44044W        W 5707   3.917   8.740  13.496
44045W        W 5708   6.369   5.919   1.718
44046W        W 5709   3.841  11.862   3.380
44047W        W 5710  38.918  16.721  10.977
44048W        W 5711  44.763  14.798  14.879
44049W        W 5712   2.906  19.100  14.483
44050W        W 5713   2.465  23.665   4.613
44051W        W 5714  16.580   0.955   4.611
44052W        W 5715   0.745   4.869  11.572
44053W        W 5716  19.616  42.311   4.794
44054W        W 5717  14.218  39.318  10.057
44055W        W 5718  17.586  33.594   0.838
44056W        W 5719  44.884  28.542   0.382
44057W        W 5720  43.491   1.344   2.327
44058W        W 5721  34.610  31.432   1.373
44059W        W 5722  25.698  20.080  11.506
44060W        W 5723  33.973  12.657  11.078
44061W        W 5724  38.511  36.376   4.168
44062W        W 5725   0.814  15.311   0.376
44063W        W 5726  10.300   4.769   4.730
44064W        W 5727   2.261  22.717  11.532
44065W        W 5728  32.075  37.962  14.792
44066W        W 5729  42.827  25.010   1.236
44067W        W 5730  35.389  13.671   3.745
44068W        W 5731   5.324   4.925  13.948
44069W        W 5732  23.539  28.619   3.213
44070W        W 5733  23.625   1.751   2.407
44071W        W 5734  30.988  10.165   3.268
44072W        W 5735  29.130   1.304   4.209
44073W        W 5736  36.899  27.574  12.913
44074W        W 5737   0.793   2.926   1.342
44075W        W 5738  20.727  29.502   0.901
44076W        W 5739  20.051  37.395   4.790
44077W        W 5740  43.313   5.840  14.771
44078W        W 5741  42.779  24.206   1.281
44079W        W 5742  12.268  41.328  10.630
44080W        W 5743  18.138  37.451   5.250
44081W        W 5744  43.976   3.316  12.092
44082W        W 5745  39.368  20.208   4.635
44083W        W 5746  38.533  36.014  12.497
44084W        W 5747  30.928  44.320  13.036
44085W        W 5748  33.959  15.747   3.240
44086W        W 5749  15.788  40.378  14.930
44087W        W 5750  37.471  34.014   4.606
44088W        W 5751  13.845   0.489   0.916
44089W        W 5752  42.323  18.160  11.986
44090W        W 5753   9.875  13.763   2.183
44091W        W 5754  29.455  25.203  12.837
44092W        W 5755   5.319  13.627  12.504
44093W        W 5756  42.014  41.962   1.271
44094W        W 5757   7.289  13.612  11.002
44095W        W 5758  43.291  25.036  10.542
44096W        W 5759   9.226  11.320   0.811
44097W        W 5760  44.848  21.072   1.368
44098W        W 5761  17.137  23.542  10.103
44099W        W 5762  35.422  37.565  10.954
44100W        W 5763  29.621  40.544   1.233
44101W        W 5764  34.505   8.236   3.833
44102W        W 5765  18.201   1.739  12.430
44103W        W 5766  21.218  41.445  13.532
44104W        W 5767  27.060  30.483  11.597
44105W        W 5768  34.942  22.524  13.409
44106W        W 5769   6.291  32.085   1.324
44107W        W 5770   4.352  41.437  12.566
44108W        W 5771  17.734  38.463  13.341
44109W        W 5772  21.675  10.297   4.642
44110W        W 5773   3.306  44.274   1.719
44111W        W 5774  28.953  16.578  11.529
44112W        W 5775  20.721  39.054  10.934
44113W        W 5776  29.974  41.922  11.000
44114W        W 5777   8.654   5.888  10.907
44115W        W 5778  25.992  17.130   0.808
44116W        W 5779   9.830  28.604  10.523
44117W        W 5780  18.725  16.735  12.416
44118W        W 5781  44.771  18.649  11.867
44119W        W 5782  13.706  38.953  11.444
44120W        W 5783   4.379  18.760  13.996
44121W        W 5784  30.574  10.719  11.028
44122W        W 5785  27.047  34.388   2.825
44123W        W 5786  11.717  15.141   0.337
44124W        W 5787  10.826   5.285   4.308
44125W        W 5788  36.895  26.646   4.627
44126W        W 5789  31.588  37.423   2.325
44127W        W 5790  30.945  44.823  13.406
44128W        W 5791  39.897  28.480  14.918
44129W        W 5792  20.540  26.461  13.375
44130W        W 5793   9.852  33.937  12.855
44131W        W 5794   0.281   4.793   2.731
44132W        W 5795  24.973  27.064   5.696
44133W        W 5796   2.332  25.129   2.403
44134W        W 5797  29.089  43.950  13.049
44135W        W 5798   7.399  10.660  10.571
44136W        W 5799  25.177  13.189  12.051
44137W        W 5800  37.533  33.050  10.494
44138W        W 5801  34.385  36.031   1.312
44139W        W 5802  42.516  41.373  11.509
44140W        W 5803  17.134  40.816   3.202
44141W        W 5804   5.423  32.522   4.115
44142W        W 5805  43.380   5.421  11.981
44143W        W 5806  19.172  24.683   2.182
44144W        W 5807   9.159  23.708   3.326
44145W        W 5808  40.811  13.333  13.928
44146W        W 5809   3.346   4.820  10.927
44147W        W 5810  35.460  10.303  11.917
44148W        W 5811   4.918  12.845  10.992
44149W        W 5812   4.941  36.036  11.436
44150W        W 5813  33.059  31.099   2.890
44151W        W 5814  24.704  31.115   2.264
44152W        W 5815  41.829  43.338  10.945
44153W        W 5816  11.771   0.801  13.798
44154W        W 5817  35.864  26.458   4.734
44155W        W 5818  31.042  34.112  13.870
44156W        W 5819  34.456  15.723  14.913
44157W        W 5820  44.892  35.577  10.448
44158W        W 5821  34.024  40.882   1.765
44159W        W 5822   0.462  37.387   2.352
44160W        W 5823   1.284  38.915  14.764
44161W        W 5824  29.558   9.311  12.833
44162W        W 5825  13.717   5.284   2.670
44163W        W 5826  15.820  20.720  14.859
44164W        W 5827   6.736  22.117   1.296
44165W        W 5828  10.278   6.258   9.669
44166W        W 5829  19.256  27.522  13.894
44167W        W 5830  22.530  38.927  13.499
44168W        W 5831  14.338  25.705   3.246
44169W        W 5832  40.341  33.499  13.949
44170W        W 5833   2.947   4.228   1.382
44171W        W 5834  35.875  43.874  10.619
44172W        W 5835  29.468  25.563   2.705
44173W        W 5836  44.993  21.673  10.620
44174W        W 5837  10.228  30.937   3.179
44175W        W 5838  23.178  35.964   4.322
44176W        W 5839  33.604  31.562  10.610
44177W        W 5840  18.184  24.544   4.329
44178W        W 5841  10.737  15.323  13.910
44179W        W 5842  28.039  13.730   4.116
44180W        W 5843  39.376  13.633   4.226
44181W        W 5844  33.462  31.920  11.915
44182W        W 5845  23.030  36.447   3.275
44183W        W 5846  12.699  44.384   1.282
44184W        W 5847  29.480  44.267   3.824
44185W        W 5848  24.006  39.046   4.607
44186W        W 5849  39.539   8.864  13.961
44187W        W 5850  20.245  29.470   1.842
44188W        W 5851  13.742  18.782  11.934
44189W        W 5852   4.902  44.436  12.854
44190W        W 5853  44.400  17.184  11.525
44191W        W 5854  27.624  29.149   3.282
44192W        W 5855   9.336  17.567  11.052
44193W        W 5856  12.193  35.387   3.715
44194W        W 5857   1.859  23.021   0.905
44195W        W 5858  43.840  25.018   4.703
44196W        W 5859   1.284  36.997   0.445
44197W        W 5860  28.051   6.830  11.585
44198W        W 5861   2.389  21.250  12.037
44199W        W 5862  20.630   9.373  14.003
44200W        W 5863  31.150  43.976   1.291
44201W        W 5864  21.095  38.862   0.424
44202W        W 5865  42.852   2.465  10.927
44203W        W 5866  30.561   3.365   0.362
44204W        W 5867  34.985  41.933   1.301
44205W        W 5868  21.588  19.673  10.580
44206W        W 5869  34.024  19.195  12.420
44207W        W 5870  15.654  32.032   3.381
44208W        W 5871   1.789   9.272  11.953
44209W        W 5872  18.126  28.573  14.503
44210W        W 5873   8.851  23.035   2.288
44211W        W 5874  33.531  30.513   1.707
44212W        W 5875  11.766  10.716   1.347
44213W        W 5876  22.033  21.723   0.761
44214W        W 5877  12.163  43.475   4.829
44215W        W 5878  41.454  26.626  11.991
44216W        W 5879  20.757  28.670   1.388
44217W        W 5880  17.170  23.706  14.465
44218W        W 5881  34.091  15.718  14.995
44219W        W 5882  28.581  25.580   3.666
44220W        W 5883   0.868  24.601   2.891
44221W        W 5884   0.283  42.497   3.810
44222W        W 5885  24.520   7.196  12.856
44223W        W 5886  31.480   3.228   0.807
44224W        W 5887  17.678   9.377   0.252
44225W        W 5888  33.944  25.708  12.525
44226W        W 5889  40.020   7.217   9.985
44227W        W 5890   3.223  31.987   4.779
44228W        W 5891  34.873  29.602  12.891
44229W        W 5892  19.268   5.244   4.762
44230W        W 5893  31.014  36.943  10.919
44231W        W 5894   4.698  15.297   2.844
44232W        W 5895   9.275  12.804   5.219
44233W        W 5896   4.846  22.607   5.289
44234W        W 5897   9.190  35.056  11.518
44235W        W 5898  24.116  19.267  14.504
44236W        W 5899   1.875  19.703   2.317
44237W        W 5900  19.629  11.166   1.893
44238W        W 5901  32.959  43.936   1.881
44239W        W 5902  44.784  43.807   4.119
44240W        W 5903  38.003  10.302  10.152
44241W        W 5904  30.575  43.278   0.786
44242W        W 5905  20.190  36.097  13.330
44243W        W 5906  30.102   6.915   2.382
44244W        W 5907  41.909  27.014   4.762
44245W        W 5908  41.804  29.585  11.524
44246W        W 5909   7.799  35.483  10.993
44247W        W 5910  13.667  43.777   2.273
44248W        W 5911   1.478  38.571  12.560
44249W        W 5912  16.177   0.312  14.308
44250W        W 5913  16.167  10.822  13.461
44251W        W 5914   7.342  17.591  14.900
44252W        W 5915  42.011  35.402   3.630
44253W        W 5916  40.387   8.708   1.359
44254W        W 5917   0.855  33.615   4.602
44255W        W 5918  24.718  40.010   2.769
44256W        W 5919   4.420  29.067  11.942
44257W        W 5920  17.259   0.807   2.871
44258W        W 5921   0.365  14.599   0.389
44259W        W 5922  34.532   8.286  10.530
44260W        W 5923  29.051   2.813  11.387
44261W        W 5924   1.941   8.758  14.292
44262W        W 5925  37.387  26.544  10.152
44263W        W 5926  28.435  44.302  10.507
44264W        W 5927  32.517  36.549   3.819
44265W        W 5928  36.567   5.809  12.833
44266W        W 5929  17.286  19.123  13.831
44267W        W 5930  28.437  41.521   0.369
44268W        W 5931  10.203  31.639  12.085
44269W        W 5932  30.446  44.451  10.551
44270W        W 5933   4.222  12.648   1.712
44271W        W 5934  11.206   4.413   3.637
44272W        W 5935  31.016  16.310  14.006
44273W        W 5936  26.588  25.158  14.375
44274W        W 5937  10.667  36.841   2.348
44275W        W 5938  24.088  19.122  12.579
44276W        W 5939  26.525  40.513  11.551
44277W        W 5940  41.505   5.751  14.947
44278W        W 5941  12.729   8.898   2.275
44279W        W 5942   9.295  10.709   0.243
44280W        W 5943  14.829  25.127   9.928
44281W        W 5944  26.024   6.806  11.518
44282W        W 5945  28.984  25.061   4.700
44283W        W 5946  20.525  31.419  11.416
44284W        W 5947   7.353  18.715  14.897
44285W        W 5948  27.194  43.451  11.576
44286W        W 5949  37.444   9.814   3.745
44287W        W 5950  27.463  28.106   2.840
44288W        W 5951  33.615  27.507  11.030
44289W        W 5952  38.446   1.238   3.330
44290W        W 5953  38.043  33.606  12.345
44291W        W 5954  13.760  23.671   1.247
44292W        W 5955   7.386  22.120   0.815
44293W        W 5956  37.854  43.325   0.332
44294W        W 5957  12.349  21.689  11.088
44295W        W 5958  13.664  40.845   5.159
44296W        W 5959   8.365  34.605   1.347
44297W        W 5960  41.422  38.988   2.749
44298W        W 5961  22.683  17.607  12.340
44299W        W 5962  24.224  21.084   1.402
44300W        W 5963   0.931   0.751   2.862
44301W        W 5964   3.448  23.216   0.883
44302W        W 5965   7.894  25.673  11.116
44303W        W 5966  33.907  36.580   1.440
44304W        W 5967  26.117  37.429   1.301
44305W        W 5968  15.242  23.657  12.577
44306W        W 5969  17.559  26.012  12.458
44307W        W 5970  13.167  12.342  12.898
44308W        W 5971  38.854  19.108  13.987
44309W        W 5972  11.319  17.592   2.788
44310W        W 5973   3.324  39.950  12.846
44311W        W 5974  16.812  13.779  14.352
44312W        W 5975  16.232  22.243  12.990
44313W        W 5976  30.121  26.989  11.544
44314W        W 5977  29.589  12.742  10.625
44315W        W 5978  30.546   1.957   4.138
44316W        W 5979  10.298  44.471  10.066
44317W        W 5980  38.388  11.159  14.493
44318W        W 5981  21.192   8.269   1.344
44319W        W 5982  11.688  15.246   3.826
44320W        W 5983  27.039  28.173   2.811
44321W        W 5984  36.405  14.777   0.956
44322W        W 5985  39.403  24.218  11.935
44323W        W 5986  31.600  20.565   1.756
44324W        W 5987  35.460  15.736  11.938
44325W        W 5988  32.400   3.777   0.880
44326W        W 5989  37.559  43.430  11.128
44327W        W 5990  12.118  42.360   1.313
44328W        W 5991   3.420  21.589  13.825
44329W        W 5992  40.510  36.394  14.426
44330W        W 5993  44.430  27.089   1.814
44331W        W 5994  40.821  31.531   0.843
44332W        W 5995  29.474  28.641  11.496
44333W        W 5996  41.949  11.187   1.226
44334W        W 5997   1.360  31.034  13.844
44335W        W 5998  43.313  25.049  13.308
44336W        W 5999  40.529  11.176  13.058
44337W        W 6000  12.251  34.112   3.822
44338W        W 6001  14.280  39.871  12.030
44339W        W 6002  29.037  40.930  11.071
44340W        W 6003  14.809   5.933  13.462
44341W        W 6004  15.722  31.056   4.814
44342W        W 6005  33.056  28.569  11.547
44343W        W 6006  36.933  43.502   3.147
44344W        W 6007  29.088   9.264   0.283
44345W        W 6008  32.612  32.916  12.501
44346W        W 6009  40.985  31.418  13.385
44347W        W 6010  10.269  40.395   5.134
44348W        W 6011  43.831  41.354   0.913
44349W        W 6012  31.480  10.654   1.389
44350W        W 6013  24.045  32.070  12.494
44351W        W 6014  31.451  43.342   4.141
44352W        W 6015  26.016  34.017   4.762
44353W        W 6016  41.339  29.128   0.752
44354W        W 6017   4.882  41.404   4.685
44355W        W 6018   4.408  31.571   1.384
44356W        W 6019  12.762   6.211   2.369
44357W        W 6020  21.677  22.672   2.403
44358W        W 6021   3.911  30.035  14.907
44359W        W 6022   8.173   6.323   2.895
44360W        W 6023  33.413  23.719   3.711
44361W        W 6024  33.971   8.314   2.785
44362W        W 6025  41.301  19.669  14.474
44363W        W 6026  21.254  22.017  10.953
44364W        W 6027  39.452   5.342   3.799
44365W        W 6028  19.768  31.906  10.487
44366W        W 6029  11.683  36.392   3.785
44367W        W 6030  43.379  36.842   4.180
44368W        W 6031   5.786  33.946   2.382
44369W        W 6032  31.084   5.717   0.741
44370W        W 6033  43.393  38.031  11.437
44371W        W 6034  34.454   2.792   3.158
44372W        W 6035   9.685   2.278   4.722
44373W        W 6036  36.024  41.035  12.067
44374W        W 6037  12.804  27.488  13.407
44375W        W 6038  39.440  20.597   0.455
44376W        W 6039  33.061   9.379   0.943
44377W        W 6040   9.659  34.528   1.306
44378W        W 6041  37.990   3.357   4.759
44379W        W 6042  40.960  19.241   0.877
44380W        W 6043   3.751  22.251   1.431
44381W        W 6044   4.799  40.304   2.250
44382W        W 6045  44.429  42.387  11.379
44383W        W 6046  25.077   4.411   0.476
44384W        W 6047  40.903  40.518   2.901
44385W        W 6048  14.151  30.658   2.355
44386W        W 6049   8.217  41.014  10.524
44387W        W 6050  24.106  13.699  14.493
44388W        W 6051  10.217  28.111   2.866
44389W        W 6052   8.876   3.383  10.558
44390W        W 6053   3.722  12.690   0.730
44391W        W 6054  17.172  38.025  14.391
44392W        W 6055  17.286  35.464   1.272
44393W        W 6056  18.110  12.734  12.439
44394W        W 6057  37.844  36.349   4.826
44395W        W 6058   0.270  31.952   2.188
44396W        W 6059  26.026  13.817  11.518
44397W        W 6060  21.642  27.456  14.031
44398W        W 6061   2.755  15.615  10.577
44399W        W 6062  17.117   9.735  12.092
44400W        W 6063  15.210  17.709  14.370
44401W        W 6064  20.241  41.342  13.548
44402W        W 6065  15.756  14.311   2.381
44403W        W 6066  23.154  11.321  11.992
44404W        W 6067  41.903  22.152  14.960
44405W        W 6068   1.373  28.463   2.225
44406W        W 6069   3.301   7.177   3.834
44407W        W 6070  37.372  36.365  11.531
44408W        W 6071  20.761  36.041  10.986
44409W        W 6072  26.699  36.845  14.003
44410W        W 6073  21.746  22.117  11.993
44411W        W 6074  26.074  30.973   4.317
44412W        W 6075   2.735  36.371   1.911
44413W        W 6076  17.759  17.667   0.438
44414W        W 6077  37.351  31.519  13.460
44415W        W 6078  44.818  15.328   4.180
44416W        W 6079  37.423  15.134   2.849
44417W        W 6080  10.723  36.897   0.733
44418W        W 6081  17.673  41.882  14.403
44419W        W 6082  17.218  14.289   2.386
44420W        W 6083  24.036   3.929   2.237
44421W        W 6084  44.977  20.687   4.759
44422W        W 6085   3.379   5.227  11.403
44423W        W 6086  36.527  44.402   4.632
44424W        W 6087  21.512  25.169   4.830
44425W        W 6088  21.020   0.468  10.129
44426W        W 6089  37.983  41.424  12.886
44427W        W 6090  42.377  37.946   4.165
44428W        W 6091  40.380  29.455   0.302
44429W        W 6092   5.733   4.223   2.219
44430W        W 6093  11.127  16.288  10.528
44431W        W 6094  25.116  15.667   4.246
44432W        W 6095  20.556  31.081   3.789
44433W        W 6096  36.550  38.018   2.689
44434W        W 6097  11.306   1.785   3.322
44435W        W 6098  24.634  39.463  12.401
44436W        W 6099   3.394   2.853   0.940
44437W        W 6100  37.506  31.905  11.103
44438W        W 6101  31.089  30.036  14.787
44439W        W 6102  34.942  31.937  13.402
44440W        W 6103   6.247  14.178  10.579
44441W        W 6104   5.847  42.284   4.204
44442W        W 6105  44.328  43.336  14.481
44443W        W 6106   6.258  27.087   3.714
44444W        W 6107  40.380  17.636   3.236
44445W        W 6108  18.208  12.265  10.113
44446W        W 6109  36.024  34.087   0.922
44447W        W 6110  27.652  19.109  13.999
44448W        W 6111   7.276  14.228   3.354
44449W        W 6112   0.906  30.422  11.522
44450W        W 6113  43.861  40.000   2.833
44451W        W 6114   0.743  44.266   0.347
44452W        W 6115  26.521  12.719   3.212
44453W        W 6116  41.318  39.338   2.334
44454W        W 6117  19.226  41.931  12.023
44455W        W 6118   5.751  10.876   4.625
44456W        W 6119  11.793  40.514  11.960
44457W        W 6120  26.582  25.109   2.335
44458W        W 6121   3.793  33.924   2.791
44459W        W 6122  25.085  30.535  13.503
44460W        W 6123  38.019  27.519   4.187
44461W        W 6124  43.834  35.890   0.416
44462W        W 6125  15.608  17.650   2.189
44463W        W 6126  20.707  44.398  14.857
44464W        W 6127  12.220  27.025  14.889
44465W        W 6128   4.451   5.724   0.267
44466W        W 6129  30.509  38.354  11.487
44467W        W 6130  37.940  15.597   3.346
44468W        W 6131   8.163  13.739  10.949
44469W        W 6132  28.036   4.937  13.501
44470W        W 6133  24.052  35.558   2.818
44471W        W 6134  26.966   3.358   1.832
44472W        W 6135  17.238  33.434   0.750
44473W        W 6136  43.444  17.249  13.811
44474W        W 6137   5.224  22.085  14.913
44475W        W 6138  25.087  22.660   4.610
44476W        W 6139   1.438  29.429   4.291
44477W        W 6140  43.483   3.922  12.012
44478W        W 6141  19.068  19.660   3.644
44479W        W 6142   2.879  42.406   2.692
44480W        W 6143  39.441  14.808  10.899
44481W        W 6144  40.371   4.384   4.223
44482W        W 6145  17.638  39.320   3.668
44483W        W 6146  38.951   5.344   0.752
44484W        W 6147  39.556   1.946  14.856
44485W        W 6148   5.418  18.259  12.842
44486W        W 6149  17.754  29.658   4.325
44487W        W 6150  28.076  23.162   3.193
44488W        W 6151   8.761  19.777   1.362
44489W        W 6152  13.790  38.006   2.887
44490W        W 6153  19.117  29.018   2.848
44491W        W 6154  30.946  38.344  13.482
44492W        W 6155   9.155  10.278   2.214
44493W        W 6156   4.314  33.466  14.910
44494W        W 6157  11.758  30.955   2.812
44495W        W 6158  25.202  39.881  11.528
44496W        W 6159   3.923  33.434  11.480
44497W        W 6160  44.480  18.654  13.816
44498W        W 6161  38.886  41.502  12.962
44499W        W 6162  19.093  22.698   1.307
44500W        W 6163  36.026  33.444   2.395
44501W        W 6164  25.123  17.183   2.406
44502W        W 6165  39.912  44.828  10.519
44503W        W 6166   0.429  18.626  12.560
44504W        W 6167   3.252   2.778   1.284
44505W        W 6168  16.661  11.289  13.978
44506W        W 6169  26.084  35.972   1.874
44507W        W 6170  29.156  42.514   0.798
44508W        W 6171  37.050  10.721   4.724
44509W        W 6172  18.106   6.694   2.797
44510W        W 6173   7.893  42.518  11.871
44511W        W 6174  42.999  16.725   9.925
44512W        W 6175  42.019  41.012   3.218
44513W        W 6176  16.810  24.703   4.117
44514W        W 6177  12.192  20.254   1.265
44515W        W 6178  19.220  23.148   1.340
44516W        W 6179  40.508  28.939  13.969
44517W        W 6180  38.426  18.697  11.374
44518W        W 6181  37.974  42.350  14.295
44519W        W 6182  33.925   4.237  10.098
44520W        W 6183  37.366  15.700  11.583
44521W        W 6184  15.325   3.424   4.771
44522W        W 6185  13.130   1.936   4.238
44523W        W 6186  18.133   8.788  13.854
44524W        W 6187  39.009  32.990  11.607
44525W        W 6188   9.861  19.068   0.446
44526W        W 6189  22.063  40.471  12.540
44527W        W 6190  43.904  13.147   5.275
44528W        W 6191  34.393  30.052   2.402
44529W        W 6192  31.629  17.707   0.461
44530W        W 6193  29.617   4.787   2.324
44531W        W 6194  14.299   1.813  12.398
44532W        W 6195  35.884  14.749   4.294
44533W        W 6196  21.687  27.976  10.044
44534W        W 6197   5.332  14.603  12.952
44535W        W 6198  38.335  34.075   1.881
44536W        W 6199  34.937  33.116   1.916
44537W        W 6200  22.160  34.011  12.550
44538W        W 6201  24.980   8.785  14.867
44539W        W 6202  33.981  28.641   3.338
44540W        W 6203  20.530  29.999   1.425
44541W        W 6204  39.025  25.658  13.802
44542W        W 6205   2.225  43.437   0.907
44543W        W 6206   4.372   8.780  11.376
44544W        W 6207  34.464  40.821  10.489
44545W        W 6208  29.533  44.760  13.936
44546W        W 6209   0.802   9.796  11.911
44547W        W 6210  37.469  27.015  14.397
44548W        W 6211   4.718   0.326   1.277
44549W        W 6212  29.473  34.553   3.739
44550W        W 6213  25.519  16.121   3.754
44551W        W 6214  13.799  25.032   0.483
44552W        W 6215  18.164   1.822   0.338
44553W        W 6216  44.828  14.769   3.211
44554W        W 6217  29.134  22.676  11.042
44555W        W 6218  27.122  11.321  12.067
44556W        W 6219  41.852  37.974  10.631
44557W        W 6220   4.311  19.605   2.203
44558W        W 6221  32.400  42.418  12.379
44559W        W 6222  15.607  17.791  11.111
44560W        W 6223  41.848  34.447  13.886
44561W        W 6224  23.995  13.150  11.486
44562W        W 6225  14.232  40.817  12.414
44563W        W 6226  18.107   1.927   2.674
44564W        W 6227  24.648  34.473   0.414
44565W        W 6228  18.739  22.017  14.770
44566W        W 6229  22.536  25.033  13.963
44567W        W 6230   3.899   1.800  14.375
44568W        W 6231   8.237   3.227   0.847
44569W        W 6232   1.239  14.293   3.259
44570W        W 6233  30.053  16.255   0.307
44571W        W 6234  23.703   7.317   4.763
44572W        W 6235  36.015   5.710  13.521
44573W        W 6236  23.600   9.800   2.793
44574W        W 6237   1.764   1.796   3.831
44575W        W 6238   5.225  25.144  11.104
44576W        W 6239  27.174  28.463   5.571
44577W        W 6240   3.867  38.534   1.723
44578W        W 6241  36.420  10.224   2.731
44579W        W 6242   5.400  22.638  11.395
44580W        W 6243  32.502  11.819  11.124
44581W        W 6244   7.182  20.569  10.620
44582W        W 6245  20.059  38.478  11.081
44583W        W 6246  20.162   1.239  12.389
44584W        W 6247  10.137  13.816  11.506
44585W        W 6248  28.115  25.143  12.476
44586W        W 6249  31.538  28.588   1.400
44587W        W 6250  11.359  16.672   0.944
44588W        W 6251  32.922  35.404   4.599
44589W        W 6252  22.695  34.608  10.580
44590W        W 6253  19.065  28.665   0.291
44591W        W 6254  23.041   7.302  14.403
44592W        W 6255  44.982  13.619   1.248
44593W        W 6256  23.050   3.843  13.827
44594W        W 6257  42.003  30.063  10.890
44595W        W 6258  16.685   5.931  10.467
44596W        W 6259  40.327  37.380   4.168
44597W        W 6260  39.518   4.361  13.793
44598W        W 6261  40.845   2.860   1.229
44599W        W 6262  10.154  32.483   0.818
44600W        W 6263  15.294  10.334   1.728
44601W        W 6264  32.089  26.991   1.434
44602W        W 6265   3.899  34.522  11.461
44603W        W 6266  36.414  11.745  14.759
44604W        W 6267  42.340  37.960  10.938
44605W        W 6268  41.460  22.014   4.604
44606W        W 6269  35.492  38.072   1.695
44607W        W 6270  37.459  29.119   3.266
44608W        W 6271   7.405   2.402  13.426
44609W        W 6272  40.382  36.016  13.962
44610W        W 6273  44.302  19.773   2.827
44611W        W 6274  10.666   3.277  12.067
44612W        W 6275  12.847  26.129  14.943
44613W        W 6276  34.028  31.617   4.781
44614W        W 6277  40.521  23.513   2.668
44615W        W 6278  41.868  30.539  13.952
44616W        W 6279  35.490  17.263   1.795
44617W        W 6280  37.403   9.229  13.910
44618W        W 6281  25.516  11.747  11.895
44619W        W 6282  15.321  41.867  14.360
44620W        W 6283   3.447  13.162   3.728
44621W        W 6284  38.058   3.334  10.082
44622W        W 6285   3.449  27.453   1.260
44623W        W 6286  26.460  11.838   2.262
44624W        W 6287  41.306  31.542  14.901
44625W        W 6288  18.158  36.364   1.241
44626W        W 6289   9.362  22.625  13.050
44627W        W 6290  33.062  43.513   4.605
44628W        W 6291  16.593   4.358   0.933
44629W        W 6292  38.529   7.326  14.368
44630W        W 6293  37.023  31.462   2.688
44631W        W 6294   7.178  41.816  14.032
44632W        W 6295  39.499  27.519  13.366
44633W        W 6296   5.796  32.898   0.260
44634W        W 6297  41.842  27.155   2.372
44635W        W 6298  31.401  31.561   0.264
44636W        W 6299  36.392  38.030   0.735
44637W        W 6300  37.929   0.786   0.806
44638W        W 6301   8.301  25.093   4.315
44639W        W 6302  44.396  30.597   4.313
44640W        W 6303  12.180  11.346  11.975
44641W        W 6304   2.312  25.588   0.314
44642W        W 6305   7.328  12.723  11.473
44643W        W 6306  42.527   0.319  13.486
44644W        W 6307   6.419  13.666  14.380
44645W        W 6308   3.412  43.868  10.615
44646W        W 6309   9.365  13.822  11.974
44647W        W 6310  33.444  40.007  11.990
44648W        W 6311  17.617  21.726  11.914
44649W        W 6312  43.809  34.111  14.514
44650W        W 6313  39.534   5.929   3.690
44651W        W 6314   4.848  32.074  13.346
44652W        W 6315  39.450  39.974  10.449
44653W        W 6316  29.015  27.605  12.060
44654W        W 6317  33.890  35.475   4.201
44655W        W 6318   5.847  23.634   2.667
44656W        W 6319   4.444   8.880  13.857
44657W        W 6320  15.253  26.086  10.555
44658W        W 6321  31.481   3.899   1.291
44659W        W 6322  11.686  11.329   0.862
44660W        W 6323  11.854   0.284   1.274
44661W        W 6324  18.173  24.162   3.822
44662W        W 6325  40.012  22.998   2.312
44663W        W 6326  20.134  24.530   0.303
44664W        W 6327  10.296  28.657  12.031
44665W        W 6328  13.711   1.813   3.248
44666W        W 6329  39.043  16.617  14.359
44667W        W 6330  21.721  41.888  11.453
44668W        W 6331  21.647   6.277  10.021
44669W        W 6332  42.426  35.494  12.450
44670W        W 6333  22.701  35.425   9.958
44671W        W 6334  28.588   8.724   3.708
44672W        W 6335   0.265  25.187   0.346
44673W        W 6336  38.963   1.967   0.450
44674W        W 6337   6.360  39.874  12.971
44675W        W 6338  44.307  40.880  11.372
44676W        W 6339  18.084  43.468   3.658
44677W        W 6340   7.247  28.487   1.851
44678W        W 6341  25.701   9.371  11.511
44679W        W 6342   3.888  28.639   4.135
44680W        W 6343  21.590  31.468   2.861
44681W        W 6344  24.012  24.113   2.842
44682W        W 6345  25.981  24.491  12.553
44683W        W 6346  42.467   4.350  12.580
44684W        W 6347  17.103  40.977  13.046
44685W        W 6348  17.069   4.832  14.289
44686W        W 6349  29.149   1.794  10.451
44687W        W 6350  41.445  40.915   3.789
44688W        W 6351  19.681   1.477   2.875
44689W        W 6352   8.185  15.114  13.986
44690W        W 6353  18.055  35.008  10.416
44691W        W 6354  17.228  14.175   0.433
44692W        W 6355  23.550  25.600  13.388
44693W        W 6356  25.217  12.745   3.700
44694W        W 6357  37.894   4.835  10.632
44695W        W 6358  20.134  25.701  10.447
44696W        W 6359   4.395  17.134   4.306
44697W        W 6360  23.064   9.317  13.982
44698W        W 6361  41.979  42.297  10.640
44699W        W 6362  43.810  30.932  14.398
44700W        W 6363  33.605   7.695   2.202
44701W        W 6364  42.005  33.618  11.373
44702W        W 6365  17.794  42.012  11.566
44703W        W 6366  31.014  28.060  10.577
44704W        W 6367  29.482   3.325  10.043
44705W        W 6368   5.864   6.708  12.874
44706W        W 6369   7.848  13.274   3.638
44707W        W 6370  14.190  39.369  12.420
44708W        W 6371  31.095  10.706  13.436
44709W        W 6372  33.047  24.108  11.924
44710W        W 6373  21.163  13.281  13.871
44711W        W 6374   9.297  27.053   4.732
44712W        W 6375  10.296  12.341  13.395
44713W        W 6376   9.358  40.048  11.900
44714W        W 6377  18.733  38.872   1.787
44715W        W 6378  22.589  22.042  10.514
44716W        W 6379  27.530  25.979  14.373
44717W        W 6380   7.700   4.286   1.279
44718W        W 6381  18.072  44.924  12.022
44719W        W 6382  19.282   2.394   2.780
44720W        W 6383  25.509  26.115  14.013
44721W        W 6384   2.459   4.365   0.438
44722W        W 6385   8.809  27.951  12.369
44723W        W 6386   8.273  38.471  11.972
44724W        W 6387   6.707   6.742  13.040
44725W        W 6388  10.644  29.660  10.999
44726W        W 6389   0.266  33.026  10.458
44727W        W 6390  14.172  30.941  12.951
44728W        W 6391   9.275   4.258  12.014
44729W        W 6392  26.456  42.294   2.282
44730W        W 6393  12.822  17.626   0.430
44731W        W 6394  21.652  44.851  11.490
44732W        W 6395   5.414  39.880  13.311
44733W        W 6396   9.715  37.019  12.963
44734W        W 6397  14.796   1.909   2.415
44735W        W 6398  31.985  36.395   0.415
44736W        W 6399  44.815  13.709   1.790
44737W        W 6400  31.580  35.086  14.489
44738W        W 6401  34.096  38.038   4.151
44739W        W 6402  27.597  26.080   5.283
44740W        W 6403   0.422  25.100  12.027
44741W        W 6404  20.737  42.911  14.495
44742W        W 6405  27.129  26.125   0.833
44743W        W 6406   8.254  43.309   3.759
44744W        W 6407   3.426  28.503  14.412
44745W        W 6408   1.291   5.378  10.612
44746W        W 6409  39.975  12.637  12.905
44747W        W 6410  11.690  18.786  11.907
44748W        W 6411  41.471   5.342   1.812
44749W        W 6412  13.622  43.961   3.655
44750W        W 6413   0.871  13.688  14.832
44751W        W 6414  40.421   8.277  14.490
44752W        W 6415  18.269  42.361  10.932
44753W        W 6416  31.625  15.110  10.489
44754W        W 6417  26.512  31.072   3.305
44755W        W 6418  14.777  13.688  10.412
44756W        W 6419  25.504   4.729  14.373
44757W        W 6420  32.008  13.777  11.105
44758W        W 6421  14.608   1.836  12.861
44759W        W 6422  33.525   4.302  10.057
44760W        W 6423  39.376  31.643  13.518
44761W        W 6424  21.252   4.422   2.252
44762W        W 6425   5.363  24.715   0.297
44763W        W 6426  10.739  41.355  12.039
44764W        W 6427  26.549  18.093   2.742
44765W        W 6428   6.338   2.282   2.393
44766W        W 6429  19.776  29.102   3.221
44767W        W 6430  17.241   3.922  11.113
44768W        W 6431  26.107  13.135  12.382
44769W        W 6432  38.952  17.295   5.254
44770W        W 6433  29.495  35.076   0.876
44771W        W 6434  28.164  16.667  11.930
44772W        W 6435  20.634  34.083  12.036
44773W        W 6436  42.481  41.897  13.364
44774W        W 6437  44.799  16.721  14.014
44775W        W 6438  41.506  10.241  12.419
44776W        W 6439  19.090  44.419   4.234
44777W        W 6440   1.446  31.025   3.633
44778W        W 6441  15.599  26.136  10.568
44779W        W 6442  24.193  23.689  11.398
44780W        W 6443  30.655  22.690  12.483
44781W        W 6444  44.961  34.923  12.559
44782W        W 6445  16.792  10.192   4.204
44783W        W 6446  42.028  17.244   2.316
44784W        W 6447  28.597  24.712   4.731
44785W        W 6448  31.572  38.904  12.873
44786W        W 6449  24.998  27.139   5.258
44787W        W 6450  12.847  31.034  12.021
44788W        W 6451  30.509  29.538  12.389
44789W        W 6452  33.545  15.810  12.421
44790W        W 6453  40.309   3.933  10.924
44791W        W 6454  30.913  35.453  14.281
44792W        W 6455  39.921   9.302  14.889
44793W        W 6456  28.495  27.585  12.037
44794W        W 6457  23.571  31.927  12.552
44795W        W 6458  25.169  28.087   1.283
44796W        W 6459  32.945  28.949  12.921
44797W        W 6460  31.638  16.699  13.480
44798W        W 6461  36.913   9.157  14.817
44799W        W 6462  44.878  24.702   1.446
44800W        W 6463  13.826  16.747  13.362
44801W        W 6464  25.010  24.703   0.914
44802W        W 6465   9.311  25.171  10.609
44803W        W 6466   9.770  12.330  13.869
44804W        W 6467  22.048  33.586   4.777
44805W        W 6468  34.904  43.931  14.975
44806W        W 6469  18.126  23.188   1.847
44807W        W 6470  33.467  41.346  13.821
44808W        W 6471  13.149  42.891   2.179
44809W        W 6472  25.018   6.376  14.827
44810W        W 6473  41.328  36.869   0.770
44811W        W 6474   6.713  24.109   1.278
44812W        W 6475  11.826  20.133  12.475
44813W        W 6476  16.634  28.150   2.321
44814W        W 6477  34.543   6.291  14.958
44815W        W 6478  34.001  23.510   4.131
44816W        W 6479  15.675   9.357   4.199
44817W        W 6480  15.729   4.712  14.448
44818W        W 6481   3.747   2.415  12.091
44819W        W 6482  44.261  37.043   3.362
44820W        W 6483  42.966   0.266   2.675
44821W        W 6484  39.391  35.447   1.277
44822W        W 6485  30.649  39.836  14.979
44823W        W 6486  27.014   6.739   1.227
44824W        W 6487  40.978  35.872  11.992
44825W        W 6488   9.301  31.634  13.807
44826W        W 6489   1.927   3.265  12.374
44827W        W 6490  30.113  20.138  12.883
44828W        W 6491  25.599  40.901   0.886
44829W        W 6492  13.316  29.584   1.423
44830W        W 6493  29.977  10.366   2.778
44831W        W 6494  23.660  18.247   2.337
44832W        W 6495  29.923  36.530  14.011
44833W        W 6496  31.944  24.626  14.480
44834W        W 6497   0.312   6.876  13.054
44835W        W 6498  40.440  42.790  14.449
44836W        W 6499  12.135  38.336   2.700
44837W        W 6500  20.660  11.356   0.800
44838W        W 6501  27.055  25.207  12.029
44839W        W 6502  15.675   9.655   3.767
44840W        W 6503  37.338  24.567   4.799
44841W        W 6504  18.180   8.269   2.307
44842W        W 6505  12.809  22.087   4.248
44843W        W 6506  21.617  14.160   0.475
44844W        W 6507  27.510  39.378   1.870
44845W        W 6508   2.863  40.967  10.517
44846W        W 6509  36.524  19.234  11.394
44847W        W 6510  28.478  27.053   1.831
44848W        W 6511  24.715  16.117   0.422
44849W        W 6512  33.931  27.966   1.290
44850W        W 6513  27.083  38.028   0.368
44851W        W 6514   0.862  28.460   2.312
44852W        W 6515  44.491  42.906   3.662
44853W        W 6516   2.413  13.778  14.803
44854W        W 6517   1.737  42.803  13.380
44855W        W 6518  44.979  27.591   4.698
44856W        W 6519  28.006  42.903  14.309
44857W        W 6520   4.724   8.747   3.671
44858W        W 6521  42.464   5.819  10.138
44859W        W 6522  31.060  37.475  14.891
44860W        W 6523  24.664  17.571  14.828
44861W        W 6524  41.379  12.697  10.630
44862W        W 6525  13.126  31.556   2.667
44863W        W 6526  42.932  14.205  14.783
44864W        W 6527  19.541  16.175  11.391
44865W        W 6528  26.003   7.188   3.197
44866W        W 6529  16.252  20.622  14.906
44867W        W 6530  30.084  34.409  14.889
44868W        W 6531  25.065   3.757   4.707
44869W        W 6532  44.501  11.732   0.387
44870W        W 6533  39.503   6.343  14.772
44871W        W 6534  39.015   3.419   2.889
44872W        W 6535  39.867  28.580   0.769
44873W        W 6536  11.324  32.637  12.898
44874W        W 6537  33.886  18.614   2.367
44875W        W 6538  28.028  35.093  12.549
44876W        W 6539   1.378  11.733   2.188
44877W        W 6540  17.766  25.182   3.694
44878W        W 6541  31.011  35.539   1.864
44879W        W 6542  30.447  28.978   3.379
44880W        W 6543  20.650  36.077  13.414
44881W        W 6544  21.203   7.815   2.398
44882W        W 6545  14.108  35.962   4.624
44883W        W 6546  28.631  34.118  10.912
44884W        W 6547  17.202  26.474   1.753
44885W        W 6548  25.660  30.651   0.740
44886W        W 6549  25.962   1.297   3.213
44887W        W 6550  36.456  23.667  14.807
44888W        W 6551  43.506  13.219   9.594
44889W        W 6552   0.330  36.404   2.307
44890W        W 6553  25.135   9.223  12.468
44891W        W 6554  24.668   6.828   3.307
44892W        W 6555  26.139   6.920  12.376
44893W        W 6556  17.280  37.496  11.094
44894W        W 6557  13.293  10.748   2.837
44895W        W 6558   6.287   7.404   5.304
44896W        W 6559  43.826  26.569   2.394
44897W        W 6560   1.417  23.995  13.474
44898W        W 6561   0.260  34.872   4.320
44899W        W 6562   2.895  13.266  14.999
44900W        W 6563  17.190  19.605  11.988
44901W        W 6564  17.606  42.975  12.024
44902W        W 6565  43.331   1.783   1.287
44903W        W 6566   3.435   8.278   4.729
44904W        W 6567  30.073  42.887  14.367
44905W        W 6568   2.230  22.067   4.601
44906W        W 6569  41.511  22.100   3.666
44907W        W 6570   2.829  15.757   2.270
44908W        W 6571  39.442   2.735  11.080
44909W        W 6572   9.304  32.042  11.511
44910W        W 6573   5.206  37.494   3.646
44911W        W 6574   4.417   5.694   3.738
44912W        W 6575  28.147  39.047  14.341
44913W        W 6576  13.302  32.504  14.006
44914W        W 6577  20.740  15.777   4.264
44915W        W 6578  33.598  39.961  13.960
44916W        W 6579   0.406  33.598  13.927
44917W        W 6580   6.758  23.062  10.899
44918W        W 6581  20.588  15.157   0.457
44919W        W 6582  26.162   8.196  12.047
44920W        W 6583   9.740  16.093  14.880
44921W        W 6584  39.034  44.335   1.843
44922W        W 6585   5.244  24.676  12.425
44923W        W 6586   0.837  35.045  12.450
44924W        W 6587  28.662  15.272  12.053
44925W        W 6588  29.660   9.700  11.493
44926W        W 6589  26.517   9.674  13.858
44927W        W 6590  36.856  17.618   3.188
44928W        W 6591  10.837  42.865  11.872
44929W        W 6592  22.141  39.858   2.215
44930W        W 6593  33.519   3.246  12.827
44931W        W 6594  31.064  36.497   0.887
44932W        W 6595  18.084  26.526  13.389
44933W        W 6596  28.526  29.537   0.756
44934W        W 6597  38.856  28.146  11.049
44935W        W 6598  36.376  41.390  14.762
44936W        W 6599  18.254   2.781   0.953
44937W        W 6600   7.233  37.068   2.842
44938W        W 6601  32.482  11.301   3.341
44939W        W 6602  22.605   9.290  13.407
44940W        W 6603  17.745  26.648  11.891
44941W        W 6604   0.958  24.690  12.049
44942W        W 6605   1.383   1.269  12.008
44943W        W 6606   7.787  21.231  10.583
44944W        W 6607  12.214  32.596   4.757
44945W        W 6608  20.705  29.100  11.068
44946W        W 6609   9.184  17.189  10.414
44947W        W 6610   3.954   4.322   1.431
44948W        W 6611  44.783  16.132   5.196
44949W        W 6612  19.681   9.698  12.882
44950W        W 6613  21.609  29.560   0.732
44951W        W 6614   6.391  11.265  13.912
44952W        W 6615  31.645   6.826  11.453
44953W        W 6616  39.416  12.282   3.260
44954W        W 6617  43.469  12.146  12.963
44955W        W 6618   1.944  43.770   3.251
44956W        W 6619  10.267  41.968   9.971
44957W        W 6620  30.139  32.940  12.458
44958W        W 6621  33.925  19.129  10.639
44959W        W 6622   5.865  25.531   0.463
44960W        W 6623   3.256  34.527   0.881
44961W        W 6624  43.473  33.902  10.945
44962W        W 6625  37.075  43.795   0.442
44963W        W 6626  26.459  40.534  14.949
44964W        W 6627   4.744  34.952   1.409
44965W        W 6628  13.657  26.965  11.487
44966W        W 6629   7.343  18.260   2.765
44967W        W 6630   3.851  24.698  11.548
44968W        W 6631   2.867  22.680   4.137
44969W        W 6632   8.879  14.613  10.477
44970W        W 6633  26.205   6.261  14.318
44971W        W 6634  21.184  40.371  13.915
44972W        W 6635  35.876  31.415  14.331
44973W        W 6636  31.092   2.373  11.093
44974W        W 6637  38.406  29.463   1.801
44975W        W 6638   4.394   8.294   4.155
44976W        W 6639   8.232  25.019  13.530
44977W        W 6640  30.420  38.848  12.389
44978W        W 6641  35.929  31.637   2.785
44979W        W 6642   2.271   9.393  14.999
44980W        W 6643  25.468  29.512  14.324
44981W        W 6644   9.806  15.579   4.309
44982W        W 6645  38.033  44.275  14.292
44983W        W 6646  21.545   8.344   0.889
44984W        W 6647  26.194  12.306   4.823
44985W        W 6648  11.654   2.371  12.530
44986W        W 6649   2.745  20.061   4.156
44987W        W 6650   0.903  42.909   4.278
44988W        W 6651  44.850   5.250   4.313
44989W        W 6652  17.138  12.188   2.870
44990W        W 6653  12.685   4.843  10.447
44991W        W 6654  44.444  20.149  12.010
44992W        W 6655  35.913   0.473  10.608
44993W        W 6656  42.336  15.142  12.087
44994W        W 6657  41.394  41.404  11.937
44995W        W 6658   0.884   6.684   1.383
44996W        W 6659   7.869  22.190   4.151
44997W        W 6660   2.326  31.969  12.986
44998W        W 6661  25.044  41.490   2.684
44999W        W 6662  39.508   7.688  12.994
45000W        W 6663  32.580  10.701  11.898
45001W        W 6664  14.830   0.840   4.122
45002W        W 6665  15.086  42.433   3.310
45003W        W 6666  34.539  32.473   1.307
45004W        W 6667  36.092  17.086   4.193
45005W        W 6668  10.280  15.631   1.711
45006W        W 6669  24.630  29.546   1.309
45007W        W 6670  18.095  19.645   2.770
45008W        W 6671  23.690   3.385   1.251
45009W        W 6672  29.037  16.641   0.478
45010W        W 6673  44.927  25.689  14.414
45011W        W 6674   7.221   2.756  12.473
45012W        W 6675  23.625  16.205  10.443
45013W        W 6676   8.348  14.213   0.877
45014W        W 6677   0.849  10.369   2.293
45015W        W 6678  29.454  38.421  10.967
45016W        W 6679   6.278   8.821  14.988
45017W        W 6680  43.019  17.623   2.400
45018W        W 6681  11.156  42.827   9.936
45019W        W 6682   0.467  42.944  13.533
45020W        W 6683  28.984  31.528  14.829
45021W        W 6684  18.059  44.404  14.937
45022W        W 6685  23.637  36.527   2.877
45023W        W 6686  38.414   5.342   3.794
45024W        W 6687  14.316  39.869   0.352
45025W        W 6688  31.491  10.162   0.810
45026W        W 6689  33.003  29.636  12.932
45027W        W 6690  16.630  32.437  10.450
45028W        W 6691   1.472  22.147  11.876
45029W        W 6692  31.085  41.480  14.319
45030W        W 6693  25.205  16.705   4.734
45031W        W 6694  43.325   6.843  14.844
45032W        W 6695  28.157  26.682   3.263
45033W        W 6696  27.573  18.231  11.038
45034W        W 6697  14.614  15.677   1.260
45035W        W 6698  43.860  24.211   0.872
45036W        W 6699  14.313  18.282   3.227
45037W        W 6700  15.258  12.171   4.798
45038W        W 6701  22.626   4.367  11.868
45039W        W 6702   2.761  43.951  12.037
45040W        W 6703  28.070  25.118   1.306
45041W        W 6704  26.457   9.309   2.229
45042W        W 6705  42.987  12.119   1.447
45043W        W 6706   1.353  18.271   1.782
45044W        W 6707  17.701  22.510   2.323
45045W        W 6708  31.021   7.755  14.790
45046W        W 6709  41.375  28.007  12.056
45047W        W 6710  10.839  11.340  12.830
45048W        W 6711  12.810  39.829  10.407
45049W        W 6712  15.735   7.396  10.029
45050W        W 6713   9.827   6.912  10.572
45051W        W 6714  38.825  11.373   1.220
45052W        W 6715  28.452   0.773   4.165
45053W        W 6716   6.315   6.211  10.894
45054W        W 6717   9.671  38.461   1.875
45055W        W 6718  28.526   6.205  12.462
45056W        W 6719  34.389  38.893   0.897
45057W        W 6720   0.263  30.929  11.380
45058W        W 6721  43.996  17.127   4.150
45059W        W 6722  17.076   5.739   9.922
45060W        W 6723  21.686  38.383   3.192
45061W        W 6724  30.075   0.931  14.395
45062W        W 6725  14.755   8.844  14.833
45063W        W 6726   8.747  10.358   2.220
45064W        W 6727  37.079  28.122   2.309
45065W        W 6728  14.693  22.608  11.004
45066W        W 6729  34.940   4.408  13.371
45067W        W 6730  24.164  23.560   1.306
45068W        W 6731  27.554  33.875   1.217
45069W        W 6732  27.010  19.752   2.823
45070W        W 6733  40.844   8.308  11.951
45071W        W 6734   0.281  34.584   3.789
45072W        W 6735  43.438  10.649   4.647
45073W        W 6736  30.164  44.381  12.520
45074W        W 6737  36.450  38.357   3.333
45075W        W 6738  34.915   1.258   1.788
45076W        W 6739  17.224   0.350   2.824
45077W        W 6740  33.432  35.570  11.027
45078W        W 6741   8.197  39.947  14.006
45079W        W 6742  18.644  32.594  11.546
45080W        W 6743  33.575  24.680  14.376
45081W        W 6744  26.975  10.849   3.672
45082W        W 6745  34.455  23.071  11.373
45083W        W 6746  44.969  13.767  11.458
45084W        W 6747  44.984  25.684   2.377
45085W        W 6748  15.281  23.569  11.990
45086W        W 6749  10.308   0.927  13.544
45087W        W 6750  23.619  20.196  12.427
45088W        W 6751  34.911  29.072   3.770
45089W        W 6752  38.550  13.622  11.496
45090W        W 6753  16.671  20.203  11.053
45091W        W 6754  20.122  21.238   0.959
45092W        W 6755  23.066  24.092  13.485
45093W        W 6756  30.164  37.363  13.432
45094W        W 6757  14.787  39.942  13.450
45095W        W 6758   6.300  37.941  10.588
45096W        W 6759  17.673  39.349   2.766
45097W        W 6760  42.341  38.555  13.469
45098W        W 6761  11.751  15.152  12.082
45099W        W 6762  34.949   9.863   2.697
45100W        W 6763  33.512  19.066  12.577
45101W        W 6764   7.234  19.599  13.321
45102W        W 6765  33.108  44.479  12.879
45103W        W 6766  26.529  27.105  11.861
45104W        W 6767  18.655  39.031  12.525
45105W        W 6768   5.354  41.360  12.051
45106W        W 6769  44.486  15.219  13.972
45107W        W 6770  28.436  44.942   1.308
45108W        W 6771  27.142   5.229   2.382
45109W        W 6772   6.392  16.634  12.862
45110W        W 6773  34.876   3.439   3.843
45111W        W 6774  23.996  15.310   1.277
45112W        W 6775  27.490  21.185   4.206
45113W        W 6776  37.381   9.845  11.449
45114W        W 6777  38.371  20.706  11.506
45115W        W 6778  42.931   6.753   9.985
45116W        W 6779  36.972  10.875  13.823
45117W        W 6780  44.417  16.578   3.763
45118W        W 6781   6.750  30.436   0.839
45119W        W 6782  27.133  13.650   3.784
45120W        W 6783  28.436  34.441   1.265
45121W        W 6784  27.979  14.259   1.428
45122W        W 6785  11.309  31.900   0.346
45123W        W 6786   4.876  15.602   1.269
45124W        W 6787  28.446  13.740   2.320
45125W        W 6788   7.807  35.511  11.533
45126W        W 6789  37.527  18.572   1.404
45127W        W 6790   7.798  44.974  13.548
45128W        W 6791  27.498   2.233  11.108
45129W        W 6792  21.095  10.148   4.317
45130W        W 6793  14.680  29.545  11.518
45131W        W 6794  27.996  29.619  11.881
45132W        W 6795   4.879   2.904  13.396
45133W        W 6796  20.670  28.523  12.481
45134W        W 6797  14.722  29.465  14.808
45135W        W 6798  12.803  12.204   1.324
45136W        W 6799  15.206  15.717   9.945
45137W        W 6800  39.895  38.428   1.350
45138W        W 6801   6.698  12.240   4.338
45139W        W 6802  13.260  30.091   2.249
45140W        W 6803   2.469   8.748   5.295
45141W        W 6804  14.095  11.671  13.369
45142W        W 6805   5.874  37.435  11.875
45143W        W 6806  20.201   5.914  14.013
45144W        W 6807   6.380  19.085   0.917
45145W        W 6808  14.263  14.117   1.356
45146W        W 6809  12.233  41.827  12.982
45147W        W 6810  16.081  37.555   2.753
45148W        W 6811  40.426   4.424   4.813
45149W        W 6812  31.911  34.425  10.134
45150W        W 6813  14.642  42.517  12.534
45151W        W 6814  16.100  32.902   3.383
45152W        W 6815  15.270  42.394  13.390
45153W        W 6816  40.319  30.598   3.150
45154W        W 6817   6.726   5.389   2.271
45155W        W 6818  43.386   6.223   5.651
45156W        W 6819  27.187  18.663  11.919
45157W        W 6820  34.427  32.105   2.663
45158W        W 6821  19.560  40.855   1.401
45159W        W 6822  36.028  15.637  13.869
45160W        W 6823  37.963   6.223  11.418
45161W        W 6824  13.218  21.033   1.439
45162W        W 6825  28.150  28.157   0.305
45163W        W 6826   4.271  22.520   0.929
45164W        W 6827  28.185  42.445   4.247
45165W        W 6828  24.203  32.006   2.226
45166W        W 6829  37.991   3.360  14.385
45167W        W 6830  33.498   8.722  14.004
45168W        W 6831  34.082  31.910   0.261
45169W        W 6832  17.072   8.262   4.210
45170W        W 6833   6.775  33.032   0.922
45171W        W 6834  41.842  30.011   4.146
45172W        W 6835   1.961  25.660   3.179
45173W        W 6836  18.189  24.641   1.876
45174W        W 6837   2.332  31.463   4.299
45175W        W 6838   2.965  16.757  12.401
45176W        W 6839  37.983  28.453  10.576
45177W        W 6840  37.903  20.079  10.414
45178W        W 6841   2.963  27.050  14.883
45179W        W 6842  43.442  36.906  10.936
45180W        W 6843   4.216  10.176  11.604
45181W        W 6844  22.579  26.488   1.841
45182W        W 6845  37.969  37.395  11.958
45183W        W 6846  21.257   6.404   4.638
45184W        W 6847  41.447  42.001  10.454
45185W        W 6848  21.569   8.215  11.401
45186W        W 6849   5.808   4.292  10.618
45187W        W 6850  42.343  30.470   3.361
45188W        W 6851  15.111  43.433   2.262
45189W        W 6852  36.046  20.735   1.920
45190W        W 6853   7.367  43.911   3.750
45191W        W 6854   9.323  41.975  11.402
45192W        W 6855  40.011  16.761  11.569
45193W        W 6856  32.915   9.772   0.425
45194W        W 6857  42.440  43.779   1.257
45195W        W 6858  27.515   6.262   0.346
45196W        W 6859  28.088   9.370  14.817
45197W        W 6860  44.980  34.999   2.775
45198W        W 6861  33.432  23.015   4.612
45199W        W 6862  24.195  18.785   1.323
45200W        W 6863  44.318  12.267   1.417
45201W        W 6864  24.566  36.429   1.835
45202W        W 6865  28.034  11.781   1.823
45203W        W 6866  23.115  35.401   1.904
45204W        W 6867   3.880   7.705   0.456
45205W        W 6868  10.280  25.682  11.459
45206W        W 6869  35.974   9.716   4.620
45207W        W 6870  29.621   0.772  12.395
45208W        W 6871  25.517  43.802  11.121
45209W        W 6872   8.353  29.135  12.483
45210W        W 6873  29.659  32.013   4.689
45211W        W 6874   2.304  43.917   1.799
45212W        W 6875  33.573   6.201   1.732
45213W        W 6876  10.688  36.496   2.843
45214W        W 6877   9.800  39.556   2.378
45215W        W 6878  34.887   6.897   4.797
45216W        W 6879  17.584   2.244  13.989
45217W        W 6880  28.093  42.988   1.369
45218W        W 6881  35.919  19.540  10.547
45219W        W 6882  43.925  32.543   4.244
45220W        W 6883  14.769  15.240  11.550
45221W        W 6884   8.398  17.758   2.359
45222W        W 6885  19.534  18.101   3.218
45223W        W 6886  27.686  34.923   1.881
45224W        W 6887   7.248  13.228  10.993
45225W        W 6888   3.367  18.682   1.372
45226W        W 6889  38.543   3.283  11.872
45227W        W 6890   2.762   0.957   1.800
45228W        W 6891   6.300   3.906  14.823
45229W        W 6892   3.824  19.618  13.398
45230W        W 6893   3.743  42.335  13.517
45231W        W 6894  18.156  32.436   3.256
45232W        W 6895  28.158  10.701   4.612
45233W        W 6896  30.998  19.096  11.030
45234W        W 6897   1.250   3.386   5.241
45235W        W 6898  30.585  28.476   4.802
45236W        W 6899  29.592   7.676   4.787
45237W        W 6900  32.962  25.566  10.489
45238W        W 6901  40.363  22.190  14.406
45239W        W 6902  38.526  30.601   1.781
45240W        W 6903  32.972  43.429  14.831
45241W        W 6904  32.589  43.894  12.560
45242W        W 6905  40.508  18.582   4.634
45243W        W 6906  42.911   5.870  13.366
45244W        W 6907  43.386   8.796   2.202
45245W        W 6908   8.750  34.531   2.828
45246W        W 6909   1.778  26.190   4.677
45247W        W 6910  33.102   5.814   4.340
45248W        W 6911  29.149  42.933  13.402
45249W        W 6912  39.831  10.385   3.820
45250W        W 6913  40.896  31.937   3.718
45251W        W 6914   0.387  31.084  10.515
45252W        W 6915  31.087   6.205  12.549
45253W        W 6916  19.687  42.023   4.296
45254W        W 6917  18.653  10.846  12.983
45255W        W 6918   0.436   6.857   1.383
45256W        W 6919  38.946   3.810   9.954
45257W        W 6920   5.437  28.492   1.304
45258W        W 6921  39.016  23.229  10.462
45259W        W 6922   5.341  19.655   4.733
45260W        W 6923   7.380  18.240  12.366
45261W        W 6924  32.914   2.356   2.844
45262W        W 6925  27.630  41.341   5.616
45263W        W 6926  18.158  25.638  11.011
45264W        W 6927  18.097  37.410   4.286
45265W        W 6928  24.128  40.921   0.346
45266W        W 6929  39.422  14.188   1.259
45267W        W 6930  31.496  22.053  12.052
45268W        W 6931   5.853  39.929   1.445
45269W        W 6932  25.596  24.045  11.967
45270W        W 6933  39.437  14.788   1.418
45271W        W 6934  33.009  41.319  12.419
45272W        W 6935  32.139  22.609   4.207
45273W        W 6936  27.604  33.043  13.056
45274W        W 6937  31.480  26.674   0.362
45275W        W 6938  18.593  29.516  11.439
45276W        W 6939  37.856  34.466   3.739
45277W        W 6940   4.812  18.611   1.393
45278W        W 6941  24.657  31.009   3.275
45279W        W 6942  25.477  19.573   1.328
45280W        W 6943  16.698  41.374  10.638
45281W        W 6944  19.273  15.673   2.355
45282W        W 6945  31.151   7.736   0.845
45283W        W 6946  24.554   1.306  13.432
45284W        W 6947  21.560   3.386  12.035
45285W        W 6948  28.963  40.485  10.617
45286W        W 6949  28.594  29.523   0.458
45287W        W 6950   9.253  27.052  10.999
45288W        W 6951  17.709  22.630   3.355
45289W        W 6952  28.941  28.554  10.503
45290W        W 6953  21.732   2.409  13.406
45291W        W 6954  31.021  15.699  13.336
45292W        W 6955  23.643   1.263  11.010
45293W        W 6956  11.363  37.531   2.369
45294W        W 6957  28.065  22.135   2.850
45295W        W 6958  16.727   9.252   3.658
45296W        W 6959  20.645   3.250  12.363
45297W        W 6960  22.740  19.721   0.408
45298W        W 6961  31.439  40.326  13.410
45299W        W 6962  11.185  32.987  11.121
45300W        W 6963  37.922  14.203   2.783
45301W        W 6964   5.366  39.030  10.583
45302W        W 6965   9.238  18.547   0.791
45303W        W 6966  43.315  31.576   0.298
45304W        W 6967  11.189  27.192   2.179
45305W        W 6968  44.463  44.299  13.963
45306W        W 6969  11.744  37.903   1.288
45307W        W 6970  40.991  32.121  14.905
45308W        W 6971  35.999  10.183   2.298
45309W        W 6972  37.510   8.885   1.231
45310W        W 6973  38.454  24.000  10.524
45311W        W 6974   0.905  36.027  10.057
45312W        W 6975   4.387  35.852  12.059
45313W        W 6976  35.020   6.831   1.239
45314W        W 6977  33.072   2.955   4.642
45315W        W 6978  31.511   0.938  13.019
45316W        W 6979  40.003  31.990  10.922
45317W        W 6980  10.197  40.492  13.948
45318W        W 6981  44.330  20.044   2.347
45319W        W 6982  24.587  32.992   1.312
45320W        W 6983   5.837   5.849   1.890
45321W        W 6984  14.328  22.552   1.849
45322W        W 6985  18.175  28.043  11.605
45323W        W 6986  41.965  16.213   2.739
45324W        W 6987   7.779  12.770   0.734
45325W        W 6988  40.978  13.139   3.718
45326W        W 6989  30.566  14.692  14.807
45327W        W 6990   3.388   3.397   3.375
45328W        W 6991  24.104   2.762  14.446
45329W        W 6992  15.187  43.843  12.047
45330W        W 6993  38.010  18.643  13.038
45331W        W 6994   3.771  13.742   0.369
45332W        W 6995  39.941  13.260   3.217
45333W        W 6996   1.402   5.739  11.377
45334W        W 6997  32.500  42.878  13.920
45335W        W 6998   0.939  22.031  12.512
45336W        W 6999  18.620  12.683  14.882
45337W        W 7000   2.839  41.344   1.254
45338W        W 7001  31.898  15.614   2.740
45339W        W 7002  11.158  20.031   1.375
45340W        W 7003  34.035  17.204   3.752
45341W        W 7004  31.647   3.381  14.000
45342W        W 7005   0.881  13.298   4.794
45343W        W 7006  22.602  40.894  14.892
45344W        W 7007  34.886   3.355  13.059
45345W        W 7008  24.131  11.220   2.838
45346W        W 7009  21.027  30.059  12.508
45347W        W 7010   2.855  27.503   1.400
45348W        W 7011  38.994   8.845   0.941
45349W        W 7012  42.289  41.403   2.236
45350W        W 7013   7.911  24.555  11.910
45351W        W 7014  26.141  30.082   1.243
45352W        W 7015   4.913   3.251  11.871
45353W        W 7016  40.483  15.749   3.256
45354W        W 7017   4.770  33.122   3.346
45355W        W 7018  32.604  19.719  11.983
45356W        W 7019  13.162  36.909  14.515
45357W        W 7020  18.572  41.326  13.488
45358W        W 7021  20.260  44.901  10.897
45359W        W 7022  17.208  27.198   0.399
45360W        W 7023  24.708   6.350   3.366
45361W        W 7024   6.346  22.079   2.186
45362W        W 7025   1.799  28.437   4.176
45363W        W 7026  11.781  24.040   4.680
45364W        W 7027  27.980  21.567  11.925
45365W        W 7028  34.969  27.674   1.710
45366W        W 7029  16.799   1.240   3.715
45367W        W 7030  22.681  12.240  11.983
45368W        W 7031  35.441   1.353   3.252
45369W        W 7032   6.821  14.651   3.791
45370W        W 7033  38.911   4.264   1.935
45371W        W 7034   7.352  36.848  12.466
45372W        W 7035   6.239  18.168  13.410
45373W        W 7036  19.083  38.011   0.949
45374W        W 7037   9.185  31.110  11.397
45375W        W 7038  11.815  44.833  13.972
45376W        W 7039  28.474  33.902   1.332
45377W        W 7040  33.985  31.961  14.761
45378W        W 7041  18.662   1.775  10.125
45379W        W 7042   9.255   6.887   1.313
45380W        W 7043   2.337  29.472   1.846
45381W        W 7044  36.460  22.030   4.275
45382W        W 7045  13.750  30.541   4.718
45383W        W 7046  31.026   0.988   4.237
45384W        W 7047  20.709  44.997  12.530
45385W        W 7048  35.538  11.841   2.363
45386W        W 7049  17.731  10.248   1.416
45387W        W 7050  30.065  26.108  12.996
45388W        W 7051   4.383  33.095   2.266
45389W        W 7052  40.333   5.377   0.963
45390W        W 7053  38.898  17.722  12.078
45391W        W 7054  39.316  33.982  13.538
45392W        W 7055   0.389   2.873  12.065
45393W        W 7056   9.801  20.223  14.348
45394W        W 7057  17.265  31.944   2.731
45395W        W 7058  42.032   4.900   2.872
45396W        W 7059  40.893  33.598   4.215
45397W        W 7060  12.342  42.896   4.339
45398W        W 7061   6.212  16.188  12.834
45399W        W 7062  37.961  38.074  13.438
45400W        W 7063  29.433  37.514   0.342
45401W        W 7064   2.334  26.670   2.903
45402W        W 7065   5.857  25.648  12.830
45403W        W 7066  25.668  43.373   2.841
45404W        W 7067  11.261  20.047   4.601
45405W        W 7068  44.349  42.829  13.025
45406W        W 7069  11.748  13.241  13.489
45407W        W 7070  20.069  19.271  11.983
45408W        W 7071   6.694  37.069   1.232
45409W        W 7072  44.896  33.531  11.461
45410W        W 7073  12.627  43.965   1.362
45411W        W 7074   2.257  22.668   2.355
45412W        W 7075  23.723  23.686  12.558
45413W        W 7076   8.731  19.772  14.326
45414W        W 7077  17.302   8.755   2.370
45415W        W 7078   8.261  29.063  12.953
45416W        W 7079   7.901  29.168  11.006
45417W        W 7080   3.418  13.717   3.281
45418W        W 7081  34.567  34.931  12.381
45419W        W 7082   8.814  12.270  10.535
45420W        W 7083  31.115  29.934   1.338
45421W        W 7084  16.583  39.042  12.857
45422W        W 7085  36.974  41.469  10.567
45423W        W 7086   8.232  13.608   0.243
45424W        W 7087  22.731   3.896   1.885
45425W        W 7088  43.288   9.750   4.769
45426W        W 7089  22.138  30.485   0.915
45427W        W 7090  27.665   1.240   2.831
45428W        W 7091  27.516  15.697   3.822
45429W        W 7092  21.095   4.896  13.046
45430W        W 7093  27.095   6.207  11.388
45431W        W 7094  43.019  26.134   2.363
45432W        W 7095  23.111  29.956  14.884
45433W        W 7096   1.306  32.026   4.638
45434W        W 7097  17.609  38.335   2.357
45435W        W 7098   8.286  26.139  13.425
45436W        W 7099  31.472  43.292   0.903
45437W        W 7100  41.364  27.515  11.390
45438W        W 7101  19.744   6.800   4.639
45439W        W 7102   2.302  22.111   3.823
45440W        W 7103   2.337  30.013  13.975
45441W        W 7104  27.163  27.054   4.238
45442W        W 7105  35.957   1.344   2.348
45443W        W 7106  31.097   0.745  10.632
45444W        W 7107  43.846  22.201  13.435
45445W        W 7108   8.667   9.653  14.314
45446W        W 7109  35.877   2.778   1.882
45447W        W 7110  29.621  42.364   1.322
45448W        W 7111  43.386  35.433  14.437
45449W        W 7112  30.506  42.517   3.666
45450W        W 7113  44.815  16.681  12.087
45451W        W 7114  14.202  41.532  11.879
45452W        W 7115  27.131  15.751   2.384
45453W        W 7116  27.682  13.722   3.359
45454W        W 7117  42.878  44.475   4.330
45455W        W 7118  35.933  38.858   0.838
45456W        W 7119   4.389  18.626   2.685
45457W        W 7120  12.853  12.614  13.013
45458W        W 7121  43.770  18.189  10.440
45459W        W 7122   2.915   9.371  10.485
45460W        W 7123  42.516  32.623  11.425
45461W        W 7124   6.308  33.480  14.985
45462W        W 7125  31.129  35.050  11.097
45463W        W 7126  30.509  12.138  11.409
45464W        W 7127  39.549  18.224  12.979
45465W        W 7128  22.535  13.164   0.866
45466W        W 7129  28.629  44.773  14.379
45467W        W 7130  32.041  18.681   2.219
45468W        W 7131  22.152  22.548  13.026
45469W        W 7132  21.540  32.434  10.952
45470W        W 7133  24.030  12.827  13.535
45471W        W 7134  38.350  19.073   1.745
45472W        W 7135  34.523   0.311  12.871
45473W        W 7136   8.831  27.448   4.696
45474W        W 7137  39.926   1.863   0.282
45475W        W 7138  18.545   9.254   3.746
45476W        W 7139  37.530   1.849   2.382
45477W        W 7140  25.984  38.444  12.905
45478W        W 7141  38.421   7.862   3.249
45479W        W 7142  33.607   9.848   4.342
45480W        W 7143  30.527  12.225   3.862
45481W        W 7144  13.629  28.163   0.842
45482W        W 7145   5.863  16.108  12.504
45483W        W 7146  19.622   8.699   4.693
45484W        W 7147  30.145  36.400   3.768
45485W        W 7148  13.732  28.129   4.753
45486W        W 7149  39.843  13.627   2.363
45487W        W 7150  38.468  41.846   4.694
45488W        W 7151   5.430   2.823   3.323
45489W        W 7152   9.767  29.142   0.397
45490W        W 7153  34.881  16.277  14.827
45491W        W 7154  25.154  19.535  11.393
45492W        W 7155  19.261  44.856   1.727
45493W        W 7156  10.839  28.617  10.556
45494W        W 7157  31.617  35.862   0.271
45495W        W 7158  22.687  18.681  10.404
45496W        W 7159  37.895  13.707   2.254
45497W        W 7160  38.945  28.933   3.695
45498W        W 7161  12.766   1.347   1.262
45499W        W 7162  41.531  13.842  11.596
45500W        W 7163  41.922  11.806   0.853
45501W        W 7164  13.617   6.367   4.180
45502W        W 7165  22.236  35.023  14.946
45503W        W 7166  39.825  39.315   1.337
45504W        W 7167  34.975  23.018  13.856
45505W        W 7168  23.027   0.764  14.802
45506W        W 7169  13.762   3.413  13.812
45507W        W 7170  37.448  30.010   3.769
45508W        W 7171  25.629  43.405   4.210
45509W        W 7172  33.128  36.045   3.222
45510W        W 7173  32.107  44.793   2.745
45511W        W 7174  38.071   1.885  13.824
45512W        W 7175   9.252  44.370   2.285
45513W        W 7176  37.888  19.196   4.597
45514W        W 7177  39.895  17.753  10.509
45515W        W 7178  13.698   8.782  13.380
45516W        W 7179  16.588  38.503   3.750
45517W        W 7180  44.871  19.719   4.287
45518W        W 7181   8.317  18.237   3.264
45519W        W 7182  12.186  20.186  11.118
45520W        W 7183  41.793  26.641   0.422
45521W        W 7184   5.866  30.659  13.914
45522W        W 7185  26.541   8.862  12.508
45523W        W 7186  36.451  28.090  13.545
45524W        W 7187  10.840  30.132   0.447
45525W        W 7188  36.006   5.406   4.169
45526W        W 7189  32.623  10.303  11.479
45527W        W 7190  14.295  21.262   2.278
45528W        W 7191  15.682  42.015  13.845
45529W        W 7192  11.291  19.546  11.507
45530W        W 7193  12.798  40.893  13.394
45531W        W 7194  22.141  20.135  12.578
45532W        W 7195   9.851  38.970  12.360
45533W        W 7196  32.542  16.133   4.662
45534W        W 7197  11.189  34.504   0.430
45535W        W 7198  20.201  35.400  12.942
45536W        W 7199  33.449  37.847   4.189
45537W        W 7200  18.173  21.217   1.816
45538W        W 7201  34.925  26.154   4.637
45539W        W 7202  14.296  40.813  13.506
45540W        W 7203  20.063  25.510  13.959
45541W        W 7204  40.523  34.005  12.954
45542W        W 7205  39.349   4.246  13.482
45543W        W 7206  39.059  27.188   2.201
45544W        W 7207  28.524  31.591   2.898
45545W        W 7208  42.431   6.917  11.110
45546W        W 7209  10.759  28.532  12.075
45547W        W 7210   6.206  13.741  10.543
45548W        W 7211  19.625   2.343   3.647
45549W        W 7212  11.625  28.012  12.941
45550W        W 7213  20.526  12.133   2.340
45551W        W 7214  16.723  32.476  13.455
45552W        W 7215  13.346   6.199   2.838
45553W        W 7216  41.899  14.660  14.359
45554W        W 7217  24.714   5.784  11.932
45555W        W 7218  37.568  22.196   0.788
45556W        W 7219  26.127  14.115  10.938
45557W        W 7220  13.240  40.828  13.525
45558W        W 7221   8.378  17.568  13.042
45559W        W 7222   7.179  31.583  14.955
45560W        W 7223  43.935  22.123   2.857
45561W        W 7224  12.173  16.179   2.220
45562W        W 7225  24.114  35.953   2.219
45563W        W 7226  25.027  15.198   3.762
45564W        W 7227  36.913  18.686  13.467
45565W        W 7228  40.876  18.566  10.631
45566W        W 7229  36.926  39.989  10.543
45567W        W 7230  25.637   1.483   3.791
45568W        W 7231  42.332  38.945   2.274
45569W        W 7232  19.698   0.317   3.639
45570W        W 7233   2.345  18.560  12.405
45571W        W 7234  21.152  36.528   1.838
45572W        W 7235  42.447  16.763   3.656
45573W        W 7236  18.600   8.767   9.971
45574W        W 7237  13.342  19.733   1.813
45575W        W 7238  31.642  33.990   3.192
45576W        W 7239  27.969  41.827   3.298
45577W        W 7240  10.281  31.059  12.449
45578W        W 7241  10.827  27.677  13.875
45579W        W 7242  41.848  19.261  11.467
45580W        W 7243  21.113  33.464   2.276
45581W        W 7244  15.696  24.612  13.801
45582W        W 7245  21.123   5.194   1.306
45583W        W 7246  27.057  38.485   4.316
45584W        W 7247  18.137  18.572  10.501
45585W        W 7248  41.309  14.828  11.965
45586W        W 7249  38.008  12.179  13.938
45587W        W 7250  24.126  42.499  10.967
45588W        W 7251  35.037  25.474  13.998
45589W        W 7252   0.466  28.991  10.941
45590W        W 7253  39.017  34.369  12.551
45591W        W 7254  35.401  20.660  14.306
45592W        W 7255   9.678  22.081   4.622
45593W        W 7256  28.502  20.757  10.641
45594W        W 7257   3.826  30.098   0.863
45595W        W 7258  21.235  19.650   2.397
45596W        W 7259  38.891   0.893   3.867
45597W        W 7260  33.100  14.710   2.282
45598W        W 7261  41.999  17.687   1.242
45599W        W 7262  15.622   4.743  12.373
45600W        W 7263  18.161  17.620  12.828
45601W        W 7264  13.679  43.951  12.830
45602W        W 7265   7.721  33.625  10.481
45603W        W 7266  11.149   9.323   5.198
45604W        W 7267  35.431  27.615   2.798
45605W        W 7268  17.132   6.317   4.727
45606W        W 7269  13.618  14.705   1.845
45607W        W 7270  20.561  30.070   4.630
45608W        W 7271   2.283   8.206  10.634
45609W        W 7272  30.988  25.541   0.442
45610W        W 7273  11.373  29.646  12.454
45611W        W 7274  34.600  26.989  11.493
45612W        W 7275   5.228   2.923  11.939
45613W        W 7276  20.088  30.613  13.385
45614W        W 7277   1.773  10.830   0.394
45615W        W 7278   0.361   3.905  13.930
45616W        W 7279  30.019   2.935  14.447
45617W        W 7280  17.769  28.944  10.550
45618W        W 7281  37.034   1.309  11.089
45619W        W 7282  42.513  34.055  12.030
45620W        W 7283  40.311  22.210   4.161
45621W        W 7284  38.065  42.403  12.927
45622W        W 7285  14.591   3.227  13.007
45623W        W 7286  35.912   5.796   1.812
45624W        W 7287  30.149   6.361   3.747
45625W        W 7288   3.734  33.578   2.227
45626W        W 7289   7.733   2.937  10.908
45627W        W 7290  12.136  23.085  12.345
45628W        W 7291  16.687  43.419  11.532
45629W        W 7292   0.832  40.508  13.895
45630W        W 7293  13.230   4.807   3.344
45631W        W 7294  15.684  15.189   3.285
45632W        W 7295  14.616  42.980   3.781
45633W        W 7296  42.350  35.868   3.681
45634W        W 7297  38.988   7.867   3.752
45635W        W 7298  34.466  20.199   3.692
45636W        W 7299  17.603  26.505  13.030
45637W        W 7300  38.547  39.330  10.500
45638W        W 7301  41.907  35.916   2.405
45639W        W 7302  11.727   5.259  10.026
45640W        W 7303  14.110   8.678   5.145
45641W        W 7304  15.093  26.580  10.575
45642W        W 7305  26.009  29.528  14.421
45643W        W 7306   1.370   9.211   0.814
45644W        W 7307   2.329  16.182   2.382
45645W        W 7308  23.543  25.083  14.320
45646W        W 7309  42.420  34.487   4.769
45647W        W 7310  31.040   3.308   4.234
45648W        W 7311  24.097  11.290   1.926
45649W        W 7312  26.123  41.323  12.992
45650W        W 7313  10.826  10.206  13.825
45651W        W 7314   7.689   9.740   0.372
45652W        W 7315  11.723  25.712   0.875
45653W        W 7316   0.970  21.739  11.913
45654W        W 7317  30.079   4.858  13.794
45655W        W 7318   8.778  34.446  12.966
45656W        W 7319  12.171  43.464  13.308
45657W        W 7320  25.162  13.827  10.513
45658W        W 7321   6.725  37.023   2.884
45659W        W 7322  24.994  24.049   1.382
45660W        W 7323  37.398  29.483   2.867
45661W        W 7324  22.623  13.728  11.530
45662W        W 7325  32.047  10.205   2.418
45663W        W 7326  28.978  40.002   9.454
45664W        W 7327   4.378  12.285  13.990
45665W        W 7328   2.938   7.825   2.746
45666W        W 7329  41.451  17.221  12.387
45667W        W 7330  19.067  31.565  12.496
45668W        W 7331  40.023  14.674  14.973
45669W        W 7332  42.489   4.730   1.804
45670W        W 7333   1.411  36.430  12.880
45671W        W 7334  17.588  23.690  10.450
45672W        W 7335   1.812  38.409   4.663
45673W        W 7336  30.540  42.877   0.763
45674W        W 7337  21.082  38.843  14.422
45675W        W 7338  23.991  35.508  13.829
45676W        W 7339  26.664  28.655  14.407
45677W        W 7340  30.515  17.764  10.941
45678W        W 7341  19.095  26.168  11.889
45679W        W 7342  16.085  19.741  13.879
45680W        W 7343  40.478  25.974   1.324
45681W        W 7344  21.074  16.808   2.299
45682W        W 7345  19.062  39.532   0.944
45683W        W 7346  40.844  15.274   0.300
45684W        W 7347  40.802  19.654   3.785
45685W        W 7348  20.256  14.094  11.960
45686W        W 7349  37.971  38.880  14.791
45687W        W 7350   3.346   3.918  11.030
45688W        W 7351  30.013  37.568   2.189
45689W        W 7352   5.268  42.788   4.625
45690W        W 7353  18.064  42.401   1.808
45691W        W 7354  24.553  12.659   0.248
45692W        W 7355  22.096  34.993  13.010
45693W        W 7356  44.923   9.293  14.470
45694W        W 7357  42.805  34.462   4.233
45695W        W 7358  37.066  13.111   1.848
45696W        W 7359  35.533  42.391  13.485
45697W        W 7360  11.639  13.705   1.822
45698W        W 7361   4.817  28.039   4.611
45699W        W 7362  31.453   8.895  14.362
45700W        W 7363  13.269  42.975   5.175
45701W        W 7364   3.242  37.050   3.734
45702W        W 7365  10.210  43.294  14.996
45703W        W 7366  36.857  10.761   1.402
45704W        W 7367  44.293  43.309   1.825
45705W        W 7368  23.728   7.792  12.934
45706W        W 7369  32.601  44.379  10.565
45707W        W 7370  13.292   4.704  10.130
45708W        W 7371  26.557  10.143  11.585
45709W        W 7372  29.112  39.895  12.435
45710W        W 7373  38.483  29.518   2.699
45711W        W 7374  39.455  27.085  14.921
45712W        W 7375  35.082  14.301  12.832
45713W        W 7376  37.004   2.340   3.201
45714W        W 7377  11.825  26.182  14.957
45715W        W 7378  35.520   8.331  13.414
45716W        W 7379  24.499  37.487  13.957
45717W        W 7380  16.089  26.992   4.692
45718W        W 7381   6.367  43.437   3.676
45719W        W 7382  28.661  43.352   1.256
45720W        W 7383  22.200  37.834   2.339
45721W        W 7384  24.165   3.245   3.712
45722W        W 7385  37.954  43.765   4.259
45723W        W 7386  33.902  26.162   4.645
45724W        W 7387  21.700  41.443   3.316
45725W        W 7388  33.391  10.646  12.985
45726W        W 7389   4.936  18.052   3.692
45727W        W 7390   4.746   9.808  12.831
45728W        W 7391  18.126   5.695  14.373
45729W        W 7392  20.547  13.283   5.321
45730W        W 7393   4.771  26.652  10.438
45731W        W 7394  33.028  24.501   1.290
45732W        W 7395  34.119  27.532  14.277
45733W        W 7396  40.921   9.354  12.988
45734W        W 7397   3.899   8.393  14.483
45735W        W 7398  42.338  21.598   4.150
45736W        W 7399  23.627  44.496   3.842
45737W        W 7400   5.200  36.841  12.861
45738W        W 7401  44.472   9.223   5.149
45739W        W 7402   8.346   5.708   4.129
45740W        W 7403  29.037   8.372   1.755
45741W        W 7404  24.050  32.130  10.115
45742W        W 7405  14.698  20.675  11.064
45743W        W 7406  12.195  41.450  11.604
45744W        W 7407  39.914  13.168  12.384
45745W        W 7408  30.534  38.436   3.268
45746W        W 7409  20.707  27.508   0.740
45747W        W 7410  35.469  14.797   2.794
45748W        W 7411  44.286   6.780   0.923
45749W        W 7412   5.205  28.115  13.391
45750W        W 7413  10.673   3.852   2.337
45751W        W 7414  40.044  23.665   1.252
45752W        W 7415  34.577  28.075   4.688
45753W        W 7416  35.409   3.884  11.874
45754W        W 7417  27.109  19.056  13.041
45755W        W 7418  17.075  11.181   4.731
45756W        W 7419  35.037   5.763   0.266
45757W        W 7420  35.504   0.866   2.415
45758W        W 7421  12.148  30.548   2.696
45759W        W 7422  43.831  40.340  11.582
45760W        W 7423  21.744  43.298  11.092
45761W        W 7424   1.371  30.053  14.862
45762W        W 7425  23.725   2.965   3.862
45763W        W 7426  27.637  17.694   1.391
45764W        W 7427  29.628  34.897   5.284
45765W        W 7428  11.635  28.127  10.404
45766W        W 7429  15.593   4.370  10.634
45767W        W 7430  44.317   5.284  11.455
45768W        W 7431   7.393  44.481  14.413
45769W        W 7432  30.141  21.610  11.013
45770W        W 7433  23.505  26.045   2.702
45771W        W 7434  23.049  30.087  13.368
45772W        W 7435  22.016  38.939   2.842
45773W        W 7436  14.808  29.567   3.742
45774W        W 7437   8.689  35.394   4.785
45775W        W 7438  36.411  39.328  11.559
45776W        W 7439  19.142  28.583  14.816
45777W        W 7440  30.986  28.547  13.426
45778W        W 7441  18.769  29.017  12.549
45779W        W 7442  17.706  39.374  13.806
45780W        W 7443  35.511   2.379   2.384
45781W        W 7444  44.805  20.216  13.536
45782W        W 7445   9.721  36.921   0.309
45783W        W 7446  12.186  13.627  12.403
45784W        W 7447   5.840  39.356  12.042
45785W        W 7448  11.795   5.385   3.826
45786W        W 7449   1.281   9.677   9.589
45787W        W 7450  32.132  22.512  10.896
45788W        W 7451  14.115   6.730  11.976
45789W        W 7452  28.049  34.587  13.791
45790W        W 7453  12.791  36.935   2.896
45791W        W 7454  21.623  44.830  12.972
45792W        W 7455  29.624   5.204  14.842
45793W        W 7456  11.240  36.511   3.365
45794W        W 7457  40.984  20.611  13.357
45795W        W 7458  44.850  34.878  10.969
45796W        W 7459  44.275   5.394   2.318
45797W        W 7460  11.696   3.938   0.856
45798W        W 7461   6.896   6.298   1.231
45799W        W 7462  12.143  42.303   0.837
45800W        W 7463  33.030  13.128  10.442
45801W        W 7464   7.806  32.909  14.990
45802W        W 7465  23.723  23.583   2.366
45803W        W 7466  17.302  10.710  12.544
45804W        W 7467   6.373   8.659  12.466
45805W        W 7468  25.076  35.973  11.893
45806W        W 7469  27.541  42.523  11.405
45807W        W 7470  44.393  12.691   1.323
45808W        W 7471  44.983   6.851   1.742
45809W        W 7472  27.626  17.666   3.869
45810W        W 7473  21.076  34.053   3.759
45811W        W 7474  16.211   8.824   0.353
45812W        W 7475  16.648  28.503   1.698
45813W        W 7476  43.981  35.978  12.472
45814W        W 7477   6.336  21.121   2.849
45815W        W 7478  28.512  31.911  13.367
45816W        W 7479  15.776  43.976  13.362
45817W        W 7480  44.767  19.121   0.250
45818W        W 7481  18.751  41.036  13.371
45819W        W 7482  20.187  26.461  14.948
45820W        W 7483  36.906   0.361  10.510
45821W        W 7484  44.939   3.797  10.505
45822W        W 7485  41.007   0.838   4.246
45823W        W 7486  38.914  38.550   2.332
45824W        W 7487  23.565  40.014  12.901
45825W        W 7488  20.177  24.026  14.319
45826W        W 7489  25.146   9.648   1.298
45827W        W 7490  31.064   1.735  14.482
45828W        W 7491  39.980   8.237  11.941
45829W        W 7492  27.538  33.038  11.510
45830W        W 7493   6.276  25.092   2.200
45831W        W 7494  37.946   3.924   4.121
45832W        W 7495  40.864   6.393  14.446
45833W        W 7496   8.387  23.189   3.286
45834W        W 7497   3.367  22.527   3.248
45835W        W 7498  10.695   5.822   2.415
45836W        W 7499  20.203  29.649   0.951
45837W        W 7500  25.677  27.485   3.796
45838W        W 7501  37.427   6.348   1.379
45839W        W 7502  14.301  24.595   0.355
45840W        W 7503  20.576   1.304   1.288
45841W        W 7504  29.923   9.699   4.203
45842W        W 7505   0.298   3.726   3.185
45843W        W 7506  11.290  14.334  11.483
45844W        W 7507  12.316  41.362   3.854
45845W        W 7508  32.419   4.707  11.914
45846W        W 7509  20.734  38.471   3.254
45847W        W 7510  40.995  10.670  12.093
45848W        W 7511  27.030  20.592   3.199
45849W        W 7512  15.663  17.189  12.007
45850W        W 7513  28.475  29.579  13.002
45851W        W 7514  12.308  14.722   3.757
45852W        W 7515   4.360  29.918  14.781
45853W        W 7516  34.530  38.487  14.934
45854W        W 7517  36.530  26.953   2.190
45855W        W 7518  27.499  39.315  12.358
45856W        W 7519   7.345   9.691  13.924
45857W        W 7520  17.204   2.458   1.340
45858W        W 7521  20.583  13.291  12.344
45859W        W 7522   9.363  14.330  14.962
45860W        W 7523   4.845  10.192  14.922
45861W        W 7524  20.134  11.803  13.810
45862W        W 7525  10.758   6.730   0.934
45863W        W 7526  32.067  26.615   2.391
45864W        W 7527  40.377  30.053  11.399
45865W        W 7528  44.857  14.714  13.496
45866W        W 7529  21.140  27.160  11.458
45867W        W 7530  42.781   7.906   0.413
45868W        W 7531  19.625  16.735  11.376
45869W        W 7532  35.107  23.668  11.466
45870W        W 7533  19.200  11.251   3.866
45871W        W 7534  43.335   7.695   3.650
45872W        W 7535  27.160   1.737   0.894
45873W        W 7536  20.095  29.921   4.829
45874W        W 7537  43.401  39.450   3.831
45875W        W 7538  15.587  43.836   2.308
45876W        W 7539  25.634  33.403  11.121
45877W        W 7540  27.539  20.083   0.453
45878W        W 7541  15.777  38.833  12.038
45879W        W 7542   8.239  17.737   3.247
45880W        W 7543  20.103  24.606  12.954
45881W        W 7544  21.206  33.423  13.424
45882W        W 7545  23.496  34.887   1.903
45883W        W 7546  19.234   2.874   2.249
45884W        W 7547  13.710   4.329   0.343
45885W        W 7548  18.680  18.086  10.509
45886W        W 7549  22.066  44.898  14.441
45887W        W 7550   8.281  31.105  10.970
45888W        W 7551  41.921  26.109   3.736
45889W        W 7552   3.386  27.957   1.928
45890W        W 7553   7.273  23.499  14.378
45891W        W 7554  30.074  43.433  12.877
45892W        W 7555   8.895   6.731   2.894
45893W        W 7556   5.202   5.719   3.271
45894W        W 7557  39.919   1.375  12.031
45895W        W 7558  20.228  10.747  11.391
45896W        W 7559  43.420  31.554   1.272
45897W        W 7560  32.027  25.217   3.789
45898W        W 7561  25.197  18.101  11.570
45899W        W 7562  34.553   1.884   1.834
45900W        W 7563   9.673  12.156  13.349
45901W        W 7564  19.769  24.497   3.249
45902W        W 7565  15.761   9.244  14.025
45903W        W 7566   5.200  37.881  13.425
45904W        W 7567   5.199  23.596  12.890
45905W        W 7568  34.593  44.324  14.317
45906W        W 7569  10.274  32.119   0.313
45907W        W 7570  29.456  17.289   1.837
45908W        W 7571   2.367   1.338  10.987
45909W        W 7572   7.707  39.509  14.362
45910W        W 7573   4.744  26.573  11.478
45911W        W 7574  23.647  43.865   0.270
45912W        W 7575  36.389  40.014   0.851
45913W        W 7576  43.894   1.819  13.345
45914W        W 7577  14.695  10.743  12.826
45915W        W 7578  23.221  38.386  14.759
45916W        W 7579   2.424   9.811   3.232
45917W        W 7580  37.996   7.333  14.849
45918W        W 7581  13.841  25.565  11.502
45919W        W 7582   0.781  33.498  12.093
45920W        W 7583  15.089  31.516  13.851
45921W        W 7584  37.498  34.546  12.096
45922W        W 7585  11.778  27.049  14.920
45923W        W 7586   4.252  12.780  10.591
45924W        W 7587  21.655  32.043  10.488
45925W        W 7588  44.970  39.555   4.182
45926W        W 7589  12.302  13.349  12.417
45927W        W 7590  17.625  39.847   3.160
45928W        W 7591  23.071  44.815  14.027
45929W        W 7592   3.743  37.912  13.977
45930W        W 7593  39.506   3.759   3.659
45931W        W 7594  20.668  31.554  12.016
45932W        W 7595  17.607   1.299   2.750
45933W        W 7596   0.882  14.191  10.483
45934W        W 7597  13.246  33.939   3.815
45935W        W 7598  42.422   6.894   9.547
45936W        W 7599   0.811  30.973   3.244
45937W        W 7600   3.299  39.390   4.639
45938W        W 7601   8.398   5.916  12.826
45939W        W 7602   1.309  40.887  13.907
45940W        W 7603   5.278  27.682  14.027
45941W        W 7604  32.426   6.322  10.521
45942W        W 7605  22.597  38.375  10.409
45943W        W 7606  28.495   3.905   1.421
45944W        W 7607   2.732  15.782  13.506
45945W        W 7608  20.135  44.849   3.724
45946W        W 7609   8.763   9.766   1.309
45947W        W 7610  31.421   3.274   0.263
45948W        W 7611  36.507  39.453   1.213
45949W        W 7612  27.583  36.534  14.949
45950W        W 7613  31.034  32.064  12.550
45951W        W 7614  12.183  22.222  10.456
45952W        W 7615   8.236  42.509  10.590
45953W        W 7616  32.618   0.403  10.524
45954W        W 7617   1.915  39.382  14.509
45955W        W 7618  12.705  21.207   4.326
45956W        W 7619   9.171  34.871  11.104
45957W        W 7620  41.853   2.289  12.461
45958W        W 7621  14.616   4.231  14.884
45959W        W 7622  10.673  43.780   2.826
45960W        W 7623  21.184   7.268  13.965
45961W        W 7624  41.916  30.951   1.746
45962W        W 7625  31.028  14.231  14.017
45963W        W 7626  29.641   8.376  14.846
45964W        W 7627  25.549  34.982   4.613
45965W        W 7628   6.226  30.938  12.905
45966W        W 7629  25.585  31.593   0.853
45967W        W 7630  42.789  18.564  12.068
45968W        W 7631  28.651  35.468   1.266
45969W        W 7632  23.160  30.644   0.276
45970W        W 7633  42.031  31.973  12.479
45971W        W 7634   0.410  37.045   2.179
45972W        W 7635   8.766  15.712   0.464
45973W        W 7636  42.804  39.038  12.579
45974W        W 7637  15.679  28.938   1.706
45975W        W 7638  44.468  11.333  14.467
45976W        W 7639   5.834  36.844  11.945
45977W        W 7640  11.837  21.712   0.816
45978W        W 7641  31.608  43.010  14.945
45979W        W 7642  42.513  10.311  14.951
45980W        W 7643   0.803  11.198  12.902
45981W        W 7644   2.451  12.272  10.441
45982W        W 7645   5.234  28.932  10.447
45983W        W 7646  42.479  17.285   2.396
45984W        W 7647  43.312  15.212   1.764
45985W        W 7648  10.879  42.407   1.731
45986W        W 7649  31.110  31.963  14.344
45987W        W 7650  14.758  34.977  14.336
45988W        W 7651   1.790   6.730  13.931
45989W        W 7652  28.099   1.238   2.271
45990W        W 7653  33.007  29.980   4.308
45991W        W 7654  24.185  44.823  10.979
45992W        W 7655  13.206  38.436  13.333
45993W        W 7656  41.363  30.524   4.702
45994W        W 7657  39.408  27.492  11.084
45995W        W 7658  18.241  34.006   1.845
45996W        W 7659  28.989  42.891  14.310
45997W        W 7660  44.774  29.985   2.310
45998W        W 7661   9.185  12.621   0.360
45999W        W 7662  19.057  14.221  12.849
46000W        W 7663  42.827  20.197   0.310
46001W        W 7664  29.606  36.082  10.630
46002W        W 7665  15.295   8.268  11.430
46003W        W 7666  23.603  10.353  14.339
46004W        W 7667  14.691   3.861   1.714
46005W        W 7668  15.144  44.404   0.930
46006W        W 7669  32.484  19.110  13.823
46007W        W 7670  16.136  29.145   3.728
46008W        W 7671  31.596  14.635   2.716
46009W        W 7672  26.122  38.477   4.728
46010W        W 7673  40.043  24.210   1.846
46011W        W 7674  17.588  12.317  14.508
46012W        W 7675  14.104  14.716  10.956
46013W        W 7676  14.281  22.036   0.918
46014W        W 7677  21.115  32.966   2.269
46015W        W 7678  13.615   8.305  10.438
46016W        W 7679  28.148   6.832  12.049
46017W        W 7680  21.119  41.404   5.314
46018W        W 7681  42.884   5.870  10.991
46019W        W 7682  14.213   8.800  14.309
46020W        W 7683  15.711  21.259  13.886
46021W        W 7684  40.417   4.760   0.840
46022W        W 7685  15.298  10.141  11.533
46023W        W 7686   5.343  17.257  12.477
46024W        W 7687  30.109   0.287  13.855
46025W        W 7688  18.203  29.121  10.559
46026W        W 7689  25.044  17.627   4.736
46027W        W 7690  44.874  31.924   0.830
46028W        W 7691   7.398  22.067   2.404
46029W        W 7692  38.415  41.858   0.338
46030W        W 7693  38.426  41.894  12.958
46031W        W 7694   5.347   4.229   0.896
46032W        W 7695  41.320  41.369  10.565
46033W        W 7696  27.963   7.342   3.828
46034W        W 7697  16.257  30.420  10.974
46035W        W 7698  34.916   5.304  13.039
46036W        W 7699  16.702  29.472   1.793
46037W        W 7700  37.427  23.117  11.999
46038W        W 7701   5.313  44.954  14.340
46039W        W 7702  35.484   9.283   3.183
46040W        W 7703  11.788  34.588  13.016
46041W        W 7704  41.898  18.155  13.943
46042W        W 7705   2.786   9.739  14.409
46043W        W 7706  29.971  18.695   2.759
46044W        W 7707  18.760  27.451   3.848
46045W        W 7708  34.590  43.319   1.826
46046W        W 7709  25.160   8.690   0.885
46047W        W 7710  25.082  32.917  12.558
46048W        W 7711  31.045   0.406   0.408
46049W        W 7712  14.688  16.166   2.301
46050W        W 7713   5.814   0.467   0.967
46051W        W 7714  23.140   9.212  10.631
46052W        W 7715  21.645   9.715   1.929
46053W        W 7716   2.412   4.760  13.883
46054W        W 7717   5.738   2.753  12.861
46055W        W 7718  20.030  38.822   3.803
46056W        W 7719  20.031  28.553  11.606
46057W        W 7720  22.061   8.389  11.999
46058W        W 7721  16.567  24.064   0.905
46059W        W 7722  25.142   5.417  13.348
46060W        W 7723  10.243  36.941   2.372
46061W        W 7724  39.547  31.984  11.463
46062W        W 7725   6.866  28.529   1.828
46063W        W 7726  30.987  18.571  10.506
46064W        W 7727   4.429   2.373   1.387
46065W        W 7728   2.369   2.791   4.205
46066W        W 7729   8.848  44.894  11.889
46067W        W 7730   1.925  44.313   1.772
46068W        W 7731   7.881  29.017   3.659
46069W        W 7732  44.980  15.266  13.373
46070W        W 7733  36.510  27.460   2.862
46071W        W 7734  40.319  15.150   3.787
46072W        W 7735  24.174  41.308  10.499
46073W        W 7736  22.030  17.749   2.786
46074W        W 7737  36.537  10.718  14.988
46075W        W 7738   0.256  16.672  13.355
46076W        W 7739  13.329   7.189  14.947
46077W        W 7740  16.713   2.957   2.353
46078W        W 7741   5.881   8.268   2.815
46079W        W 7742  16.621  30.128  11.114
46080W        W 7743  27.036  11.259   4.668
46081W        W 7744  36.378  11.314  11.998
46082W        W 7745   9.776   2.459  14.798
46083W        W 7746  38.862  19.655   1.835
46084W        W 7747  36.395  27.538   1.337
46085W        W 7748  27.965  10.318  11.515
46086W        W 7749  20.746  29.007   0.963
46087W        W 7750  18.145  34.572  10.521
46088W        W 7751  20.628  32.566   1.745
46089W        W 7752   4.341  26.639   1.814
46090W        W 7753  15.252   0.290   0.880
46091W        W 7754  44.278   5.726  14.351
46092W        W 7755  20.181  12.259  12.934
46093W        W 7756   9.831  14.336   4.127
46094W        W 7757   7.184   8.370   2.204
46095W        W 7758  12.619  28.634  10.641
46096W        W 7759  32.059  14.266  13.405
46097W        W 7760  15.143   7.758   2.711
46098W        W 7761   2.293  24.483   4.775
46099W        W 7762  34.945  11.285  13.880
46100W        W 7763   4.719  14.791  13.798
46101W        W 7764  18.582  38.919  13.970
46102W        W 7765   8.380   3.409  14.001
46103W        W 7766   5.721  26.473   4.300
46104W        W 7767  30.150  34.485   3.176
46105W        W 7768  29.522  12.350   1.240
46106W        W 7769  33.472  10.198  10.597
46107W        W 7770  18.712   1.817   0.322
46108W        W 7771  23.088  25.578  14.516
46109W        W 7772  36.389  14.806  10.955
46110W        W 7773  33.023  36.450   2.395
46111W        W 7774  14.301   4.289   2.367
46112W        W 7775   4.922  11.735  10.422
46113W        W 7776  16.193   9.763   1.931
46114W        W 7777  21.693   8.783  13.824
46115W        W 7778  30.465  41.967  11.052
46116W        W 7779  36.463  32.104  13.821
46117W        W 7780  23.116  41.537  12.053
46118W        W 7781  20.112  10.693   0.904
46119W        W 7782   2.874  19.771   4.654
46120W        W 7783  19.063   9.694   3.177
46121W        W 7784  14.686  12.636   5.092
46122W        W 7785  28.053   8.890  10.103
46123W        W 7786  43.505  23.571   4.256
46124W        W 7787  42.481  38.360   4.797
46125W        W 7788  37.952   2.336  13.960
46126W        W 7789  24.097  25.039   0.883
46127W        W 7790  21.102  21.539   3.862
46128W        W 7791  32.541  30.071   0.319
46129W        W 7792  30.135  39.911   1.368
46130W        W 7793  25.986  26.525   1.837
46131W        W 7794  36.503  11.236   1.311
46132W        W 7795  34.898  29.027  10.922
46133W        W 7796  13.198   9.169  11.578
46134W        W 7797   7.404   4.926  14.470
46135W        W 7798  44.912   1.350   1.223
46136W        W 7799  16.227  31.051   0.458
46137W        W 7800  41.041  15.654   0.772
46138W        W 7801   3.216  21.710   0.300
46139W        W 7802   9.775  31.523  14.375
46140W        W 7803  44.275  13.664   0.304
46141W        W 7804  10.171  18.659  11.588
46142W        W 7805   5.332  16.777  12.422
46143W        W 7806   0.828  10.847  10.583
46144W        W 7807  39.319   9.188   1.888
46145W        W 7808  30.478  30.516   1.785
46146W        W 7809  38.058  27.569  12.387
46147W        W 7810  21.132   7.678   5.215
46148W        W 7811  13.620  24.486   4.153
46149W        W 7812   7.199  17.732  11.966
46150W        W 7813  34.603   2.920  12.828
46151W        W 7814  40.998  25.983  12.842
46152W        W 7815  35.971   3.290   4.804
46153W        W 7816   3.276  32.495  13.400
46154W        W 7817  40.019  41.963  12.512
46155W        W 7818  20.653  18.139  13.340
46156W        W 7819  33.903  42.293  10.631
46157W        W 7820  25.063  16.144  12.910
46158W        W 7821   1.956   6.870   4.143
46159W        W 7822  28.110  41.445  12.043
46160W        W 7823  21.225   4.936   4.739
46161W        W 7824  35.928  22.181  13.526
46162W        W 7825  27.972  34.479   4.817
46163W        W 7826  27.066   3.728  14.808
46164W        W 7827  12.233   5.329   3.181
46165W        W 7828  41.813  21.614  11.073
46166W        W 7829  11.201  27.466  10.625
46167W        W 7830  33.099   3.883  13.932
46168W        W 7831  11.798  28.979   3.288
46169W        W 7832  40.338   7.403  11.038
46170W        W 7833  20.155  19.152   3.247
46171W        W 7834  42.337  36.878   2.869
46172W        W 7835  38.536  33.038   1.857
46173W        W 7836   7.822  22.696  12.920
46174W        W 7837  42.965   6.428  12.929
46175W        W 7838  43.315   7.347   4.305
46176W        W 7839  23.015   1.949  10.930
46177W        W 7840  44.936  39.979  10.629
46178W        W 7841   0.465   9.218  11.604
46179W        W 7842  41.518  31.000  10.459
46180W        W 7843   8.353  26.589  14.352
46181W        W 7844  28.119  14.816  13.481
46182W        W 7845  32.443  23.729   2.719
46183W        W 7846  13.716  34.956   0.247
46184W        W 7847  11.133  33.520   1.877
46185W        W 7848  18.293  11.828  11.002
46186W        W 7849  44.861  18.774   2.413
46187W        W 7850  13.816   8.784   0.353
46188W        W 7851   8.847  10.383  11.935
46189W        W 7852  27.500  39.904  11.520
46190W        W 7853  40.053  36.973   1.308
46191W        W 7854   5.753  20.669  10.562
46192W        W 7855   2.296  39.325   1.710
46193W        W 7856   5.691   0.372  12.378
46194W        W 7857  42.878  25.993   2.670
46195W        W 7858  19.107  31.473   2.794
46196W        W 7859  20.690  17.140   5.150
46197W        W 7860  13.320  30.125   0.471
46198W        W 7861   0.940  36.854  13.520
46199W        W 7862  14.828  16.280  10.891
46200W        W 7863  11.305  31.487   4.682
46201W        W 7864  42.796  27.989  11.009
46202W        W 7865  40.965  30.655  13.842
46203W        W 7866   6.877  34.888  11.433
46204W        W 7867  31.016  16.098  14.926
46205W        W 7868  17.172  36.514   1.248
46206W        W 7869   4.767  10.269  14.409
46207W        W 7870  31.446   7.364   1.298
46208W        W 7871   7.692  15.767   1.771
46209W        W 7872  31.060  30.556  12.951
46210W        W 7873  22.610  20.275  13.375
46211W        W 7874  32.095   9.214  10.571
46212W        W 7875  20.725  33.096   0.838
46213W        W 7876  11.655  39.986   2.242
46214W        W 7877  36.583  42.456   3.820
46215W        W 7878   9.794   7.353   3.272
46216W        W 7879  37.899  24.569  11.463
46217W        W 7880  33.921  30.575   2.373
46218W        W 7881  10.783   2.785  11.091
46219W        W 7882  39.065  32.440   3.695
46220W        W 7883  44.997   6.838   0.368
46221W        W 7884  21.033  18.085  11.060
46222W        W 7885  39.014   5.307   4.312
46223W        W 7886  15.311  28.127  10.428
46224W        W 7887  36.486  43.999  11.544
46225W        W 7888  11.227   6.235   0.481
46226W        W 7889  20.244  13.667  13.442
46227W        W 7890  44.940  42.306   1.903
46228W        W 7891  31.592  43.803  12.000
46229W        W 7892  26.541  15.318   4.658
46230W        W 7893  43.301  15.085   9.957
46231W        W 7894   0.344  28.628  11.554
46232W        W 7895  34.114  36.991  10.966
46233W        W 7896  23.694  14.300   0.471
46234W        W 7897  40.939   8.820  12.466
46235W        W 7898  19.196  17.070   5.620
46236W        W 7899  44.898  21.745   1.362
46237W        W 7900  38.982  27.191  14.337
46238W        W 7901   0.916  22.104   0.350
46239W        W 7902  43.316   2.228   1.832
46240W        W 7903  32.019  12.610   1.303
46241W        W 7904   4.403  38.871  10.500
46242W        W 7905  23.621  27.577   0.821
46243W        W 7906   0.416  43.864   0.765
46244W        W 7907  12.790  23.991   2.894
46245W        W 7908   0.352  32.467  11.610
46246W        W 7909  15.733  38.077  11.579
46247W        W 7910  12.699  22.541  12.033
46248W        W 7911   9.875  14.753  10.998
46249W        W 7912  19.107  10.667  11.476
46250W        W 7913  42.415  24.010  13.405
46251W        W 7914  12.142  29.519   3.682
46252W        W 7915  22.233  39.027   3.682
46253W        W 7916  15.700   2.286   1.814
46254W        W 7917   5.810   9.158   2.761
46255W        W 7918  19.595  42.802  13.380
46256W        W 7919  43.927  10.154   5.263
46257W        W 7920   6.807  14.198   1.322
46258W        W 7921   9.244  26.459  10.511
46259W        W 7922   0.921  26.469  10.485
46260W        W 7923  36.897  14.757  10.532
46261W        W 7924  41.391  36.093   1.824
46262W        W 7925   1.456  23.155  14.816
46263W        W 7926  35.919  42.912  14.314
46264W        W 7927  27.586  32.532   0.727
46265W        W 7928  14.113   1.966  10.524
46266W        W 7929  18.237   1.731  13.995
46267W        W 7930  12.267  16.271  13.376
46268W        W 7931  29.439   5.708  12.536
46269W        W 7932  20.656   1.426   3.641
46270W        W 7933   6.785  36.538   1.340
46271W        W 7934  30.124  33.933   3.216
46272W        W 7935  41.434  28.681  13.051
46273W        W 7936  38.420  18.758  14.403
46274W        W 7937   7.837  38.947  11.859
46275W        W 7938   3.725  43.016   4.713
46276W        W 7939  14.163  15.203   0.463
46277W        W 7940   2.781   8.191  13.521
46278W        W 7941  13.764  15.190   2.700
46279W        W 7942  43.490  31.915   2.687
46280W        W 7943  20.028  24.698  11.118
46281W        W 7944  22.187  36.566   2.202
46282W        W 7945  41.954  31.530   0.428
46283W        W 7946  21.140  24.627  12.976
46284W        W 7947  10.840  24.007  14.951
46285W        W 7948  39.875   6.913   1.783
46286W        W 7949  18.232   1.806  14.877
46287W        W 7950   8.792  33.918   1.846
46288W        W 7951  41.519  33.415  13.027
46289W        W 7952  22.230   5.886  11.860
46290W        W 7953   5.311  36.881  10.520
46291W        W 7954  30.640  42.823  11.998
46292W        W 7955  43.416  21.073  11.414
46293W        W 7956  21.029  17.270   2.222
46294W        W 7957  13.793  16.317   0.454
46295W        W 7958  33.945   7.873   2.376
46296W        W 7959  38.897  19.202   4.828
46297W        W 7960   8.841   8.695   5.152
46298W        W 7961  35.941  19.721   3.709
46299W        W 7962  20.763  32.600  13.418
46300W        W 7963  36.532  20.523  14.789
46301W        W 7964   7.388  20.529  12.420
46302W        W 7965  27.594  13.764  11.509
46303W        W 7966  43.401  14.245  12.014
46304W        W 7967  19.579  14.734  14.399
46305W        W 7968  25.059  20.651  14.811
46306W        W 7969  42.969   7.237  10.987
46307W        W 7970   1.429  42.790   1.299
46308W        W 7971  40.378   2.732  13.934
46309W        W 7972  34.553  30.979  14.967
46310W        W 7973  40.468   4.243   2.850
46311W        W 7974  41.364  31.594   4.671
46312W        W 7975  22.580  22.178   2.780
46313W        W 7976  38.018   1.746   1.706
46314W        W 7977  29.980  30.647  14.784
46315W        W 7978   7.385  43.965   2.790
46316W        W 7979  40.827   2.342   2.736
46317W        W 7980  40.488   4.827   0.287
46318W        W 7981  10.277  29.116   2.751
46319W        W 7982  22.217  37.961   0.753
46320W        W 7983  41.928   6.244  13.947
46321W        W 7984  42.957  37.379  12.520
46322W        W 7985  19.562  26.666   2.400
46323W        W 7986  17.264  40.036   4.181
46324W        W 7987  38.486  39.058   3.784
46325W        W 7988  30.548   8.766   3.742
46326W        W 7989  24.192  12.821  12.955
46327W        W 7990  21.050  16.576  14.314
46328W        W 7991  10.642   7.324  14.345
46329W        W 7992  33.946  14.708  13.318
46330W        W 7993   7.677  31.064  11.440
46331W        W 7994  26.095  30.422   0.268
46332W        W 7995  30.054   7.212  12.021
46333W        W 7996  39.394   3.762  12.477
46334W        W 7997  37.035  18.139   0.246
46335W        W 7998  29.001  20.083   3.755
46336W        W 7999  43.873  21.153  13.966
46337W        W 8000   0.813  38.473  14.304
46338W        W 8001  20.126   7.778  12.551
46339W        W 8002   8.199  27.982  12.840
46340W        W 8003  11.728  31.919   0.940
46341W        W 8004  38.437   7.231   1.899
46342W        W 8005  41.890  10.675  14.386
46343W        W 8006  25.095   6.250  14.471
46344W        W 8007   1.793  10.249  14.466
46345W        W 8008   8.306   0.879   0.859
46346W        W 8009  20.758  17.298  14.294
46347W        W 8010  16.285  18.051  11.939
46348W        W 8011   9.298  36.439  14.282
46349W        W 8012  22.165  16.249  11.486
46350W        W 8013   1.856  24.665   3.813
46351W        W 8014  32.429   5.292  12.390
46352W        W 8015   1.958  19.556  10.413
46353W        W 8016   5.387  19.067   2.892
46354W        W 8017  26.065  23.586  11.408
46355W        W 8018  26.633  38.962   2.775
46356W        W 8019  34.102  12.652   4.155
46357W        W 8020  14.791   9.162   5.766
46358W        W 8021   2.316   1.843  14.936
46359W        W 8022  32.126  21.615  13.919
46360W        W 8023   0.379   9.287  14.758
46361W        W 8024   2.387  43.316  14.395
46362W        W 8025  27.471   1.783   2.306
46363W        W 8026  40.525   0.304   0.262
46364W        W 8027  40.389   3.740   3.685
46365W        W 8028  29.953  37.853   0.873
46366W        W 8029   3.370  35.000   4.647
46367W        W 8030  37.974  42.015  10.937
46368W        W 8031  32.929  41.896  12.506
46369W        W 8032  42.817   3.287  14.808
46370W        W 8033  43.929  29.620  11.980
46371W        W 8034   1.940   1.859   1.873
46372W        W 8035  32.589  30.073  14.031
46373W        W 8036  40.822  40.028  12.500
46374W        W 8037   7.227   2.817   2.238
46375W        W 8038  36.557   7.720   3.660
46376W        W 8039  24.017  19.043   2.834
46377W        W 8040  27.588  43.427  11.421
46378W        W 8041  34.888  31.957  10.000
46379W        W 8042   8.382  27.197  13.819
46380W        W 8043  19.599  28.632  14.469
46381W        W 8044  10.845  17.081   4.610
46382W        W 8045  36.486  27.601   1.896
46383W        W 8046  25.053  40.538   2.744
46384W        W 8047  41.294  24.029  13.048
46385W        W 8048  22.714  13.213   2.704
46386W        W 8049  11.269  36.442   0.358
46387W        W 8050  25.133  22.654   0.845
46388W        W 8051  13.265   5.274  12.883
46389W        W 8052   7.719  41.822   1.390
46390W        W 8053   4.927  43.282  13.535
46391W        W 8054  33.020  32.071  13.511
46392W        W 8055  18.058  29.451  13.933
46393W        W 8056   1.474  14.260   1.293
46394W        W 8057  38.823  44.491  14.342
46395W        W 8058  19.050  10.154   4.308
46396W        W 8059  31.576  37.517  10.638
46397W        W 8060  33.583  26.680   2.267
46398W        W 8061   0.767  13.216  10.574
46399W        W 8062  16.237  17.199  14.319
46400W        W 8063  22.571  34.918  10.936
46401W        W 8064  21.102  17.776   1.714
46402W        W 8065  19.750  42.020  14.304
46403W        W 8066  22.736   2.286   4.747
46404W        W 8067  25.636  22.196   1.724
46405W        W 8068  15.784  25.140   0.334
46406W        W 8069   8.265  38.936  13.355
46407W        W 8070  18.220  14.128  11.432
46408W        W 8071   8.878  19.690  11.401
46409W        W 8072  11.820  32.430   4.716
46410W        W 8073  26.590   8.180  11.540
46411W        W 8074   8.839  39.812  11.419
46412W        W 8075  30.538   1.911  14.365
46413W        W 8076  38.566   3.918  14.959
46414W        W 8077  38.413  16.223  14.991
46415W        W 8078  23.214  33.096  14.769
46416W        W 8079   2.244  15.694  11.885
46417W        W 8080  38.048  34.379   0.418
46418W        W 8081  15.094  27.169   4.234
46419W        W 8082  14.291   9.219  11.933
46420W        W 8083   5.401   9.200   1.736
46421W        W 8084   6.396   9.880   3.376
46422W        W 8085  14.251  14.135   5.142
46423W        W 8086   3.859   1.398   3.865
46424W        W 8087   3.791  26.630   0.368
46425W        W 8088  27.159  34.893   0.829
46426W        W 8089  41.912  28.084  14.788
46427W        W 8090  24.034  34.440  10.487
46428W        W 8091  26.460  16.107   1.925
46429W        W 8092   6.705  33.027  11.929
46430W        W 8093  42.439  33.501   3.855
46431W        W 8094   8.389  19.263   4.281
46432W        W 8095  43.277   0.868  13.470
46433W        W 8096  38.058  25.092   0.312
46434W        W 8097  29.429  37.084  12.516
46435W        W 8098  33.418  24.168  10.441
46436W        W 8099   8.681  13.253  11.385
46437W        W 8100  24.154  36.866  14.482
46438W        W 8101  29.130   1.477   1.316
46439W        W 8102  17.686  44.968   3.869
46440W        W 8103   0.407  34.914   1.903
46441W        W 8104   4.888   0.331   3.832
46442W        W 8105   3.300  11.168  14.900
46443W        W 8106  41.867   7.390  10.008
46444W        W 8107  20.223  34.550   5.151
46445W        W 8108  30.081  20.262   5.594
46446W        W 8109  41.014  10.707  12.567
46447W        W 8110  22.195  24.209  11.023
46448W        W 8111  44.877  24.512   0.757
46449W        W 8112  30.477  40.361   0.790
46450W        W 8113  28.073   9.182   2.271
46451W        W 8114  37.964  13.781   0.815
46452W        W 8115  18.128   4.725   3.756
46453W        W 8116   3.239  22.138  11.957
46454W        W 8117  29.650  24.156   0.862
46455W        W 8118  19.736  27.976  14.911
46456W        W 8119  19.622  31.467  12.421
46457W        W 8120   0.492  21.167   4.807
46458W        W 8121  41.793   0.306   1.336
46459W        W 8122  20.238  27.596   2.791
46460W        W 8123   4.375  17.214  14.893
46461W        W 8124  26.666   9.238  10.936
46462W        W 8125   5.223  32.517   2.414
46463W        W 8126  19.094  24.608   1.233
46464W        W 8127  16.277  19.707  14.943
46465W        W 8128  41.811  10.225  14.289
46466W        W 8129  41.316   5.354   3.181
46467W        W 8130  41.870  35.109   4.799
46468W        W 8131  30.420  27.681  10.540
46469W        W 8132  32.399  19.602   9.960
46470W        W 8133   5.350  28.131  14.502
46471W        W 8134  28.983  43.516   3.718
46472W        W 8135  11.210  38.842  10.912
46473W        W 8136  42.352  19.537   1.219
46474W        W 8137  35.889   5.401   0.910
46475W        W 8138   9.665  25.550   4.283
46476W        W 8139  24.989  11.311   3.329
46477W        W 8140  30.988  37.551   4.267
46478W        W 8141  11.824  32.454   1.909
46479W        W 8142  28.603   1.366   1.372
46480W        W 8143  22.247   6.239  12.925
46481W        W 8144  23.562  43.321   0.865
46482W        W 8145  16.165  35.576  14.881
46483W        W 8146  25.526  21.549   0.374
46484W        W 8147   7.848  36.016   2.332
46485W        W 8148  28.540  19.710   4.738
46486W        W 8149  38.490  31.647   2.870
46487W        W 8150  28.584  15.083  14.404
46488W        W 8151  43.416  17.101   3.766
46489W        W 8152  29.024  33.464   1.328
46490W        W 8153  26.015  25.517  10.983
46491W        W 8154  14.592  42.353  11.017
46492W        W 8155   2.391  38.874  12.570
46493W        W 8156  22.207  24.698  14.009
46494W        W 8157   1.452  25.638  14.978
46495W        W 8158  11.174  10.843  11.867
46496W        W 8159   9.168  18.142  13.341
46497W        W 8160  32.573  41.495   4.189
46498W        W 8161  21.169  40.524   0.965
46499W        W 8162  32.034  16.787  11.447
46500W        W 8163  38.376  27.657   2.848
46501W        W 8164  40.852   0.251  10.607
46502W        W 8165  26.031  10.367   4.353
46503W        W 8166  15.157  23.207  14.299
46504W        W 8167  23.183  26.564   2.709
46505W        W 8168  43.867  15.200   5.165
46506W        W 8169  24.672  42.975  10.896
46507W        W 8170  43.010   7.679  12.478
46508W        W 8171  34.096  17.128   3.358
46509W        W 8172  40.526  40.973   2.180
46510W        W 8173   4.856  31.978  12.356
46511W        W 8174  43.497  14.753   1.911
46512W        W 8175  21.218  35.502  14.348
46513W        W 8176  34.522  24.631  11.482
46514W        W 8177  34.614  28.132   0.925
46515W        W 8178  37.446  13.166   4.129
46516W        W 8179  37.939   7.827   9.483
46517W        W 8180  32.011  34.022   0.473
46518W        W 8181  11.190  19.078   0.797
46519W        W 8182  11.770   6.264   4.305
46520W        W 8183  37.898   8.395  12.919
46521W        W 8184  13.224   0.749   5.315
46522W        W 8185  20.120  13.296  12.364
46523W        W 8186   9.267  35.484   2.845
46524W        W 8187  21.536  28.649  14.809
46525W        W 8188  14.289  11.656  11.487
46526W        W 8189   4.843  44.446  14.967
46527W        W 8190   7.683   9.323  12.993
46528W        W 8191   2.966  20.206   3.840
46529W        W 8192  36.357  31.454  11.505
46530W        W 8193  40.922   5.763  10.512
46531W        W 8194  28.649  10.224  13.414
46532W        W 8195  42.957   9.344  13.418
46533W        W 8196  29.581  32.949  12.008
46534W        W 8197  12.315  32.996  12.095
46535W        W 8198   1.797  10.167   3.153
46536W        W 8199  20.749  16.606   2.241
46537W        W 8200  16.277  17.566  14.827
46538W        W 8201  11.800  17.152   4.763
46539W        W 8202  15.141  11.341   4.703
46540W        W 8203  14.112   3.307   1.748
46541W        W 8204   2.393  42.357   4.355
46542W        W 8205   8.668  26.104   3.742
46543W        W 8206  41.486  16.704  11.565
46544W        W 8207   3.352  44.787   4.791
46545W        W 8208  41.435  17.212   0.911
46546W        W 8209  14.247  39.823   1.744
46547W        W 8210  14.263   2.778   1.265
46548W        W 8211  10.371  28.565   4.817
46549W        W 8212  29.175   7.381  10.601
46550W        W 8213   8.682  32.456  11.525
46551W        W 8214  37.019  41.323  14.769
46552W        W 8215  35.534  42.780   1.258
46553W        W 8216  37.383   1.299   4.691
46554W        W 8217  27.942   6.222   3.718
46555W        W 8218  28.638  14.700  14.937
46556W        W 8219  25.695  35.981  13.833
46557W        W 8220  24.716  11.258  12.090
46558W        W 8221  37.069   5.911  11.384
46559W        W 8222  28.041  19.739  12.438
46560W        W 8223  36.035  29.001   3.222
46561W        W 8224  32.950  20.715   3.798
46562W        W 8225  29.144   8.370  11.488
46563W        W 8226  33.022   3.227   3.850
46564W        W 8227   0.478  39.871   3.255
46565W        W 8228  27.978  30.982   1.346
46566W        W 8229  29.060   8.177  14.862
46567W        W 8230  22.042  43.448  11.053
46568W        W 8231  42.479   7.761  13.422
46569W        W 8232  43.496   3.784   0.802
46570W        W 8233  22.087  40.508   0.242
46571W        W 8234  17.066  28.579  13.455
46572W        W 8235   5.263  18.109   3.849
46573W        W 8236  28.507  37.858   2.399
46574W        W 8237  30.028  18.588   1.348
46575W        W 8238  11.692  26.188  10.976
46576W        W 8239  21.582  20.634  10.560
46577W        W 8240  17.558   3.893   2.402
46578W        W 8241  31.430  37.348  14.394
46579W        W 8242  20.031  21.652   4.321
46580W        W 8243  18.194  13.763   5.750
46581W        W 8244  22.114  19.694  12.983
46582W        W 8245  17.146  19.567   5.115
46583W        W 8246  17.239   6.386   2.333
46584W        W 8247  44.364   1.882   9.973
46585W        W 8248  31.096  20.252  14.365
46586W        W 8249  22.508  20.666   3.360
46587W        W 8250  20.639  13.193   0.857
46588W        W 8251  37.048  43.403   4.344
46589W        W 8252  20.182  41.482   4.351
46590W        W 8253  30.150   1.928   0.324
46591W        W 8254  15.273  32.534  10.891
46592W        W 8255  15.735  27.165   1.375
46593W        W 8256  38.836  15.324   4.277
46594W        W 8257  36.413  31.446   3.694
46595W        W 8258  30.914   4.842   0.747
46596W        W 8259  43.872  10.301   2.306
46597W        W 8260  25.049  27.087   9.570
46598W        W 8261   7.890  29.537  12.999
46599W        W 8262  30.085  41.967  14.475
46600W        W 8263  34.500  10.858  10.899
46601W        W 8264  20.545  11.189  14.452
46602W        W 8265  23.679  41.368   2.867
46603W        W 8266  29.523   0.402   2.346
46604W        W 8267  13.695  31.478  11.124
46605W        W 8268  29.931  33.432   3.278
46606W        W 8269  33.594  29.473  11.028
46607W        W 8270  40.827   7.847  13.803
46608W        W 8271   2.889  27.456  13.491
46609W        W 8272  36.442  28.459   0.748
46610W        W 8273  38.064  24.131  10.607
46611W        W 8274  30.994   6.286   1.254
46612W        W 8275  29.070  23.148  13.521
46613W        W 8276  19.779  29.546  13.048
46614W        W 8277  29.140  20.672   0.286
46615W        W 8278  35.560  26.671  10.513
46616W        W 8279  25.154  29.999  14.759
46617W        W 8280  43.397  42.367  12.027
46618W        W 8281  13.656  31.638  14.436
46619W        W 8282  28.543  30.438  13.327
46620W        W 8283   9.710  20.663   4.327
46621W        W 8284   0.880  25.661  12.471
46622W        W 8285   5.901  36.361  12.559
46623W        W 8286  12.232  24.516   1.896
46624W        W 8287  18.736  33.486  14.867
46625W        W 8288  29.570  26.621  10.970
46626W        W 8289  28.072   3.942   1.251
46627W        W 8290  38.972   7.282   0.902
46628W        W 8291  38.951   6.895   2.877
46629W        W 8292  29.645   9.251   0.736
46630W        W 8293  32.473  40.815   0.474
46631W        W 8294   7.694  29.060   3.247
46632W        W 8295  15.160  11.212   1.256
46633W        W 8296  44.980   4.859  13.310
46634W        W 8297  21.574  21.235  13.005
46635W        W 8298  22.572   1.828  14.496
46636W        W 8299  42.360   6.288  10.971
46637W        W 8300  33.887  23.696  14.327
46638W        W 8301  17.774   3.376  11.433
46639W        W 8302  17.755  18.228  14.359
46640W        W 8303  17.761   1.846   4.748
46641W        W 8304  21.150  12.831  14.446
46642W        W 8305  11.256  37.405  11.950
46643W        W 8306  34.080  42.376   2.269
46644W        W 8307   9.327  31.478  11.434
46645W        W 8308  42.385  12.308  14.515
46646W        W 8309  37.885  41.946  10.525
46647W        W 8310  32.502  37.393   4.187
46648W        W 8311  38.912  28.116   2.361
46649W        W 8312   2.339   7.675  12.075
46650W        W 8313  25.584  12.639   4.245
46651W        W 8314  34.965  38.407   0.319
46652W        W 8315   6.299  16.232   2.886
46653W        W 8316  32.585  41.500  11.537
46654W        W 8317   5.273   4.783   1.780
46655W        W 8318   8.314  16.779  14.974
46656W        W 8319  11.189   8.404   3.775
46657W        W 8320  28.544  31.011   3.262
46658W        W 8321   5.366  17.098  11.486
46659W        W 8322  33.533   1.812   4.622
46660W        W 8323  22.996  21.041   4.791
46661W        W 8324  12.816  40.439   2.294
46662W        W 8325  41.516  43.449   3.834
46663W        W 8326   2.914  28.451   1.769
46664W        W 8327  17.127  35.110  13.418
46665W        W 8328  10.362  15.161  12.399
46666W        W 8329  38.332  38.903  14.934
46667W        W 8330   8.305  14.653  12.451
46668W        W 8331  11.303  30.421   3.762
46669W        W 8332  37.071   8.296   1.869
46670W        W 8333  39.812  29.141  13.926
46671W        W 8334  24.071   0.897   3.637
46672W        W 8335  26.665  18.573   4.212
46673W        W 8336  11.866  17.127   0.347
46674W        W 8337  41.919  23.642  12.343
46675W        W 8338  36.582  40.976  12.058
46676W        W 8339  32.564  13.155  12.943
46677W        W 8340  10.356  14.792   1.227
46678W        W 8341  38.963  38.976   4.838
46679W        W 8342   4.297  27.176   2.377
46680W        W 8343  28.034  29.448  10.506
46681W        W 8344  39.923  10.267   9.594
46682W        W 8345  17.771  33.955  12.009
46683W        W 8346   3.380  17.687   4.216
46684W        W 8347  20.643  30.914  12.071
46685W        W 8348  41.017  38.848   2.372
46686W        W 8349   5.806  28.999   0.783
46687W        W 8350  26.162   4.844   2.698
46688W        W 8351  40.378  28.017  12.048
46689W        W 8352  26.687  13.177  12.056
46690W        W 8353   6.727  11.838  11.910
46691W        W 8354  27.076  25.195   3.319
46692W        W 8355   0.420   6.847   0.364
46693W        W 8356  13.777  37.967  13.485
46694W        W 8357  33.412   8.167   2.322
46695W        W 8358   4.321  28.108   4.632
46696W        W 8359  19.060  28.984  11.512
46697W        W 8360  11.168   1.327   0.845
46698W        W 8361  41.876  29.151   3.306
46699W        W 8362  29.632  31.099  11.404
46700W        W 8363  35.430  32.456  14.415
46701W        W 8364   5.895  43.447  13.045
46702W        W 8365  32.985  14.728   1.764
46703W        W 8366  29.067  42.972   2.357
46704W        W 8367   8.688  37.567   4.149
46705W        W 8368  30.456  15.804  11.407
46706W        W 8369   2.403  36.538   2.242
46707W        W 8370  29.665  37.988   4.274
46708W        W 8371   9.389  11.329  10.090
46709W        W 8372   0.341  19.073  12.485
46710W        W 8373  29.535   5.201   0.822
46711W        W 8374   6.288  41.857   2.347
46712W        W 8375  25.000  15.105   4.220
46713W        W 8376  22.117  41.502  12.518
46714W        W 8377  25.008   3.218  11.926
46715W        W 8378  31.543  12.616   0.341
46716W        W 8379  44.483  14.258  11.595
46717W        W 8380  39.810  43.376   4.173
46718W        W 8381  30.925  35.923  12.355
46719W        W 8382  28.671   1.437   1.720
46720W        W 8383  41.501  14.821  13.897
46721W        W 8384   0.836  23.724  11.527
46722W        W 8385  40.546   6.733   4.183
46723W        W 8386  12.829  16.110   1.421
46724W        W 8387  42.941   0.829  12.086
46725W        W 8388  23.216   4.446  14.881
46726W        W 8389  32.949  24.053  12.442
46727W        W 8390  41.318  32.000  11.056
46728W        W 8391  31.061  34.451   2.861
46729W        W 8392  28.937  36.853  11.494
46730W        W 8393  31.531  17.216  11.122
46731W        W 8394  14.792  21.619  14.434
46732W        W 8395  20.568  25.102   0.446
46733W        W 8396   6.783  33.931   0.453
46734W        W 8397  17.083  10.746  11.483
46735W        W 8398   4.906  29.975   2.197
46736W        W 8399  23.146  10.753   0.331
46737W        W 8400   2.383  20.706  14.942
46738W        W 8401   1.360  12.203  11.037
46739W        W 8402  31.919  11.650  11.859
46740W        W 8403  43.886  25.477  13.398
46741W        W 8404  34.027  24.087   9.984
46742W        W 8405  21.114  22.019  14.295
46743W        W 8406   6.328  37.455   0.925
46744W        W 8407  19.143  20.075   0.939
46745W        W 8408  11.684  17.128  13.878
46746W        W 8409  39.818  20.061   3.751
46747W        W 8410   3.279  28.954   2.329
46748W        W 8411   6.223  15.104   2.294
46749W        W 8412   6.775  10.776  14.494
46750W        W 8413  12.168  27.011  11.996
46751W        W 8414  42.389  16.656   2.218
46752W        W 8415  20.613  33.030  10.592
46753W        W 8416  21.640  10.866  14.380
46754W        W 8417  12.746  19.234   3.761
46755W        W 8418  21.589  31.468  13.356
46756W        W 8419  18.225  20.541  14.492
46757W        W 8420  38.345  21.053   5.259
46758W        W 8421  14.606   8.785  12.476
46759W        W 8422  26.993  10.349  10.917
46760W        W 8423   4.387  16.700   4.807
46761W        W 8424  16.117   9.803  14.318
46762W        W 8425  39.033  36.009   2.890
46763W        W 8426  44.869  13.142   5.196
46764W        W 8427  36.547   8.674   4.624
46765W        W 8428   5.426  32.037   0.348
46766W        W 8429  29.590  27.965  12.969
46767W        W 8430  37.067  19.165   4.600
46768W        W 8431   9.189  41.939  12.392
46769W        W 8432  33.896  39.474   2.257
46770W        W 8433  32.046  14.720   0.821
46771W        W 8434  40.035  31.626   2.345
46772W        W 8435  41.388  27.505   4.838
46773W        W 8436  14.232  24.529   1.745
46774W        W 8437  36.374  21.203   5.105
46775W        W 8438  37.897  26.130   3.838
46776W        W 8439   9.844  22.710  12.004
46777W        W 8440   9.852  43.771   1.354
46778W        W 8441  20.041   2.344  12.096
46779W        W 8442  10.706  21.149   3.381
46780W        W 8443  19.150  32.595  11.112
46781W        W 8444   5.363  11.654  12.468
46782W        W 8445  32.592  22.184   4.175
46783W        W 8446  27.447  13.675   0.289
46784W        W 8447  30.088  16.573   3.241
46785W        W 8448  36.882  18.111   3.696
46786W        W 8449   4.720  18.269   0.828
46787W        W 8450  34.384   3.288  10.918
46788W        W 8451  32.579  37.995  13.047
46789W        W 8452  30.163  17.111   1.756
46790W        W 8453  10.771   5.738  12.005
46791W        W 8454  10.153  17.255   4.132
46792W        W 8455  39.500   0.457  13.029
46793W        W 8456   7.301  41.455   4.812
46794W        W 8457  40.329  25.080   1.391
46795W        W 8458  25.542  20.108  14.032
46796W        W 8459   5.404  28.534   3.235
46797W        W 8460  13.654  21.041   4.832
46798W        W 8461  20.668   6.803   0.272
46799W        W 8462  35.547  37.963  10.442
46800W        W 8463  41.293  23.567   2.786
46801W        W 8464  28.630  41.825   3.359
46802W        W 8465   7.781  22.715  13.452
46803W        W 8466  11.195  16.144   1.362
46804W        W 8467  23.539   4.836   1.211
46805W        W 8468   5.902   6.427   3.170
46806W        W 8469  14.676  39.057   2.370
46807W        W 8470  40.318  40.958  11.574
46808W        W 8471   1.368   8.320   1.807
46809W        W 8472  43.959  18.788  12.441
46810W        W 8473  29.026   6.889   1.817
46811W        W 8474  39.515  25.712  10.537
46812W        W 8475  25.138  16.591   3.352
46813W        W 8476  41.869  26.043  10.989
46814W        W 8477   8.329   3.416  12.369
46815W        W 8478  21.168  25.033   4.332
46816W        W 8479   6.242   3.739   0.348
46817W        W 8480  40.303  25.109   3.167
46818W        W 8481  20.522  32.918   3.776
46819W        W 8482  22.724  39.908   3.317
46820W        W 8483  15.321  12.699   2.902
46821W        W 8484  14.235  33.953  11.394
46822W        W 8485  33.094   4.430  13.520
46823W        W 8486  33.989   3.455  12.032
46824W        W 8487  16.223  40.834  14.892
46825W        W 8488  40.040  28.119   1.451
46826W        W 8489  22.532  20.554  14.801
46827W        W 8490   8.809  42.990  12.851
46828W        W 8491  12.284   5.800  10.556
46829W        W 8492  43.289  18.659  13.454
46830W        W 8493  30.066  35.442  14.978
46831W        W 8494  34.604  15.091   1.910
46832W        W 8495  14.697  22.655   2.782
46833W        W 8496   1.389   9.233  14.888
46834W        W 8497  44.462  43.887   1.829
46835W        W 8498   5.276  24.552   4.303
46836W        W 8499  42.956  13.697  12.827
46837W        W 8500  35.016  44.879  11.419
46838W        W 8501  24.606  27.570   2.374
46839W        W 8502  43.493  44.370   4.210
46840W        W 8503  19.171  19.548   0.759
46841W        W 8504  32.972  19.252   2.740
46842W        W 8505  41.988  22.685  14.302
46843W        W 8506  39.834  28.125   2.182
46844W        W 8507  18.587  34.533   2.796
46845W        W 8508  26.184  25.693   2.720
46846W        W 8509  39.533  14.139  13.482
46847W        W 8510   3.424  18.173  14.987
46848W        W 8511   3.461  39.909  10.158
46849W        W 8512   6.817  38.941   1.850
46850W        W 8513   0.274  22.007   4.332
46851W        W 8514  10.298  43.929   0.879
46852W        W 8515  13.300   6.390  13.836
46853W        W 8516  25.688  27.969  14.930
46854W        W 8517   8.689  42.803  11.051
46855W        W 8518   6.805  31.539   2.798
46856W        W 8519  43.410  10.869   1.419
46857W        W 8520  12.641   7.856   0.258
46858W        W 8521  10.833  18.194   2.865
46859W        W 8522  42.923   6.860   9.607
46860W        W 8523  19.065   0.417   3.646
46861W        W 8524  10.729  43.475   0.456
46862W        W 8525  35.511  28.556   3.161
46863W        W 8526  36.456  21.257  12.978
46864W        W 8527  18.789  37.941   0.840
46865W        W 8528  23.503  39.548  13.419
46866W        W 8529  10.243  24.626  14.289
46867W        W 8530   7.318  41.818   2.855
46868W        W 8531  17.187  21.708  13.813
46869W        W 8532  39.345  36.995  13.314
46870W        W 8533   9.330  16.742  10.539
46871W        W 8534  11.731   8.225   0.249
46872W        W 8535  23.531  27.522   2.330
46873W        W 8536  42.387  33.997   2.330
46874W        W 8537   1.862  29.094  11.464
46875W        W 8538  24.080  13.770   3.734
46876W        W 8539  38.843  42.983   3.260
46877W        W 8540  21.071  29.644   2.710
46878W        W 8541   4.335   6.773   4.723
46879W        W 8542  30.657   1.385   0.420
46880W        W 8543  29.548  44.975   2.303
46881W        W 8544  13.288  28.000  12.406
46882W        W 8545  34.516   6.696   1.280
46883W        W 8546   6.698  23.005  13.449
46884W        W 8547  22.225  16.657  12.494
46885W        W 8548  35.077  14.682   1.413
46886W        W 8549  21.704   6.310  12.060
46887W        W 8550   9.264  16.136  10.587
46888W        W 8551  31.093  19.073   3.852
46889W        W 8552  12.661   6.205  10.936
46890W        W 8553  44.450  14.214   3.668
46891W        W 8554  31.605  18.603  13.504
46892W        W 8555  25.198   1.776   4.152
46893W        W 8556  19.631  24.535  11.054
46894W        W 8557   5.702  41.414   2.892
46895W        W 8558  43.984  39.475   4.798
46896W        W 8559  39.471  43.468  14.378
46897W        W 8560  23.041  26.699  13.872
46898W        W 8561   9.861  28.590  12.959
46899W        W 8562  31.547   8.712   0.775
46900W        W 8563  25.217  20.148  14.418
46901W        W 8564  10.778   5.298   2.204
46902W        W 8565  19.756  26.636   1.352
46903W        W 8566   7.731   2.308  13.506
46904W        W 8567  43.996  19.596  13.836
46905W        W 8568  32.549  21.547   3.166
46906W        W 8569  39.425  32.590   1.428
46907W        W 8570   5.227  10.321  13.385
46908W        W 8571   5.900  35.906  14.935
46909W        W 8572  20.731  38.036   2.320
46910W        W 8573  11.700   5.302   5.142
46911W        W 8574  38.948  24.107   2.890
46912W        W 8575  36.469  33.502   5.089
46913W        W 8576  26.048  16.674  11.575
46914W        W 8577  24.576  44.769   4.810
46915W        W 8578  39.848   5.357  14.762
46916W        W 8579   0.817  36.548  11.477
46917W        W 8580   8.770   8.784   1.751
46918W        W 8581  44.987   1.278   1.709
46919W        W 8582  22.709   8.732   4.808
46920W        W 8583  18.561  38.822  13.343
46921W        W 8584   5.750  14.269   1.451
46922W        W 8585  21.572   6.867  10.904
46923W        W 8586  36.549   2.395   0.798
46924W        W 8587  26.084  37.570  13.836
46925W        W 8588  43.844  29.493  10.902
46926W        W 8589  14.171  12.713   1.226
46927W        W 8590   4.936  13.291  10.992
46928W        W 8591   3.756  10.365   1.234
46929W        W 8592  30.964   9.742  14.945
46930W        W 8593  42.312  27.975   2.753
46931W        W 8594  33.936  30.638  10.941
46932W        W 8595  42.978  35.549   2.804
46933W        W 8596   3.265  32.474  11.025
46934W        W 8597  10.363  16.781  13.538
46935W        W 8598   0.460  30.609  13.867
46936W        W 8599  33.073  18.291   5.248
46937W        W 8600   8.300  20.569  14.435
46938W        W 8601  27.952   6.912  13.884
46939W        W 8602  16.272  23.628  10.465
46940W        W 8603  20.612  41.945   0.748
46941W        W 8604   2.308  39.899  10.613
46942W        W 8605   3.339   4.842  12.953
46943W        W 8606  41.841   5.235   3.864
46944W        W 8607  11.827   5.329  12.517
46945W        W 8608  42.386  35.441   4.288
46946W        W 8609  40.424   3.756   4.124
46947W        W 8610  16.272  13.132   3.307
46948W        W 8611  27.639  23.158  13.044
46949W        W 8612  11.795  35.388   3.699
46950W        W 8613  33.542  28.028  11.123
46951W        W 8614  43.800  16.788  14.479
46952W        W 8615  13.299  14.651  11.934
46953W        W 8616   8.292  41.397   3.381
46954W        W 8617   7.199  14.692  11.495
46955W        W 8618   7.867   6.369  10.440
46956W        W 8619  24.109  11.306  14.012
46957W        W 8620  33.888  32.926  13.397
46958W        W 8621   1.451  26.651   0.951
46959W        W 8622  13.794   4.247  14.420
46960W        W 8623   2.337  40.335   1.904
46961W        W 8624  29.057  21.696   3.631
46962W        W 8625  22.049  43.825  14.828
46963W        W 8626   3.886  27.669  14.418
46964W        W 8627  22.037  18.681  11.020
46965W        W 8628  29.959  39.498  13.882
46966W        W 8629   4.731  41.363   1.881
46967W        W 8630  35.041  40.487   4.212
46968W        W 8631  33.916  22.082  13.540
46969W        W 8632  21.692  37.033  13.325
46970W        W 8633  38.980  24.618   4.772
46971W        W 8634  42.993  10.696   9.653
46972W        W 8635  37.577  12.286  10.910
46973W        W 8636  25.104   6.392   1.408
46974W        W 8637  11.824  10.861  13.479
46975W        W 8638  27.192  14.273   0.888
46976W        W 8639   1.936  14.623  13.017
46977W        W 8640  37.564  17.741  10.619
46978W        W 8641  30.502  25.604  10.641
46979W        W 8642  38.406  10.852  13.461
46980W        W 8643  30.556  18.080  11.513
46981W        W 8644  36.955  43.323  11.516
46982W        W 8645  18.195   9.336   4.656
46983W        W 8646  20.568  25.546  14.372
46984W        W 8647  19.161   9.308  10.477
46985W        W 8648   3.461   7.705  11.526
46986W        W 8649  20.266   6.790   4.171
46987W        W 8650  22.095   0.905   9.447
46988W        W 8651  21.712  22.115   4.653
46989W        W 8652   6.894  12.766  14.357
46990W        W 8653  32.449   8.866   3.825
46991W        W 8654  40.418  16.745  10.974
46992W        W 8655  32.894  20.716  10.974
46993W        W 8656  42.307  36.938  13.440
46994W        W 8657  15.719   6.867   1.387
46995W        W 8658  28.449  15.766  13.801
46996W        W 8659  19.678  32.057   3.783
46997W        W 8660   8.716  40.427   0.920
46998W        W 8661   9.324  16.297  14.336
46999W        W 8662  13.790  41.828   0.931
47000W        W 8663  44.424  42.355   2.876
47001W        W 8664  18.580   7.903   0.825
47002W        W 8665   4.373  22.183  13.985
47003W        W 8666  12.777  32.460  14.937
47004W        W 8667  11.138  39.841  12.497
47005W        W 8668  10.655  42.974   1.407
47006W        W 8669  33.100  27.026   3.177
47007W        W 8670  40.479  30.425   0.944
47008W        W 8671  37.955   2.284   4.651
47009W        W 8672   9.736  34.920   1.813
47010W        W 8673  28.011  39.047   0.735
47011W        W 8674  18.694  31.542   3.678
47012W        W 8675  31.083  22.033  13.058
47013W        W 8676  41.876   4.822  14.811
47014W        W 8677   2.787  26.102  14.350
47015W        W 8678  17.071  30.632   4.686
47016W        W 8679   2.226  12.346   3.364
47017W        W 8680   1.356  44.838  13.409
47018W        W 8681   3.780  13.302   1.372
47019W        W 8682  32.457  18.125   1.887
47020W        W 8683  40.453  33.469  10.441
47021W        W 8684  42.780  18.175  12.493
47022W        W 8685  32.915   9.204   4.330
47023W        W 8686  15.601  19.141   1.328
47024W        W 8687  37.518  29.461  13.507
47025W        W 8688  22.533  25.119  12.883
47026W        W 8689  42.324   5.718  11.927
47027W        W 8690  17.576   9.171  10.426
47028W        W 8691  21.142  36.985  13.944
47029W        W 8692  26.000  19.070   4.230
47030W        W 8693   4.865   2.267   4.661
47031W        W 8694  22.136  26.680  11.919
47032W        W 8695  43.958  11.291   4.223
47033W        W 8696  11.686  35.866   5.249
47034W        W 8697  43.002  28.631   3.189
47035W        W 8698   0.790  12.358  11.925
47036W        W 8699   5.283  14.289   4.218
47037W        W 8700  36.997  17.215   0.285
47038W        W 8701   5.282   7.738   0.444
47039W        W 8702  14.234  16.088  13.978
47040W        W 8703   1.307  37.507   0.325
47041W        W 8704  43.821  43.885  11.469
47042W        W 8705  14.319   7.311   5.574
47043W        W 8706  37.950  12.262   0.847
47044W        W 8707  33.445  25.628  12.456
47045W        W 8708  13.730  36.909  11.492
47046W        W 8709  36.016  40.330   0.309
47047W        W 8710  43.487   8.695   2.708
47048W        W 8711  26.545   7.221   5.276
47049W        W 8712  28.503  31.974   2.285
47050W        W 8713  41.871  42.431   2.881
47051W        W 8714  42.450  34.972   1.922
47052W        W 8715  11.221   9.746  10.123
47053W        W 8716  19.609  39.477   0.296
47054W        W 8717   9.272  39.848   2.866
47055W        W 8718   7.384  35.376  14.767
47056W        W 8719  25.041  23.653   0.756
47057W        W 8720   6.297   0.258  12.952
47058W        W 8721  10.215   2.385  13.823
47059W        W 8722  26.178  42.291  14.925
47060W        W 8723   5.411   2.240   3.749
47061W        W 8724  22.140  14.133  11.080
47062W        W 8725  13.311  22.501   0.826
47063W        W 8726  17.120  35.446   1.891
47064W        W 8727  10.721  14.742   3.302
47065W        W 8728  17.158  11.824  10.547
47066W        W 8729  10.379  40.392   2.258
47067W        W 8730  37.549  41.792  14.771
47068W        W 8731  27.966  40.962  13.519
47069W        W 8732  15.650  43.332   1.411
47070W        W 8733  42.827  23.115   2.720
47071W        W 8734   5.730  25.484  11.081
47072W        W 8735  23.687  10.382   1.763
47073W        W 8736  30.991  44.282   0.400
47074W        W 8737  44.968  37.953  12.020
47075W        W 8738  11.301  35.360   2.779
47076W        W 8739  25.194   8.175  13.922
47077W        W 8740   0.351  28.181  12.514
47078W        W 8741   3.360   1.402  11.478
47079W        W 8742  12.326   1.316   0.340
47080W        W 8743  12.356  29.669   2.712
47081W        W 8744  27.557  19.701   2.290
47082W        W 8745  24.530  19.642  13.818
47083W        W 8746  32.971   3.277  10.149
47084W        W 8747   9.193   5.750   2.840
47085W        W 8748  29.050  19.581   0.943
47086W        W 8749   8.399  28.980   4.165
47087W        W 8750  33.624  32.051  11.473
47088W        W 8751  19.644  19.661   1.257
47089W        W 8752  24.019  13.692   1.736
47090W        W 8753  31.968   4.759   3.366
47091W        W 8754  30.999   8.732   5.091
47092W        W 8755  31.146  34.059   0.261
47093W        W 8756  16.286   6.208   3.814
47094W        W 8757  32.622  10.190  14.815
47095W        W 8758  15.101  19.171   4.219
47096W        W 8759   4.782  19.760   3.748
47097W        W 8760   1.237   1.837  11.494
47098W        W 8761  34.070  24.508  11.499
47099W        W 8762  30.659   3.790  12.408
47100W        W 8763  13.656  20.250   3.795
47101W        W 8764  32.477  30.116   3.772
47102W        W 8765  33.393  18.060  11.058
47103W        W 8766  38.384  12.625  11.880
47104W        W 8767  36.994  38.864   1.329
47105W        W 8768  16.583   7.808   3.697
47106W        W 8769  10.664  24.706   4.177
47107W        W 8770  16.691  15.258  14.915
47108W        W 8771  41.508  31.114   3.790
47109W        W 8772  30.468  15.132   4.138
47110W        W 8773   2.858  12.222   4.747
47111W        W 8774  25.018  13.322   1.851
47112W        W 8775   0.804  37.536  13.830
47113W        W 8776  22.181   5.813   0.335
47114W        W 8777   2.456   5.343  13.345
47115W        W 8778  13.826  41.962   3.802
47116W        W 8779   7.710  35.860  13.452
47117W        W 8780  37.356  22.044   4.354
47118W        W 8781  18.638  13.717  14.840
47119W        W 8782  36.539  13.311  12.914
47120W        W 8783  24.170  31.480  12.916
47121W        W 8784  37.509  17.066  11.017
47122W        W 8785   9.346  37.560  10.943
47123W        W 8786  33.127   4.295   0.962
47124W        W 8787  28.979  41.311   0.732
47125W        W 8788  38.537   5.312   0.906
47126W        W 8789  26.547  34.370  10.539
47127W        W 8790  10.636  43.873   4.629
47128W        W 8791   2.434   7.249  14.493
47129W        W 8792  27.508  27.585   3.160
47130W        W 8793  35.402  34.060  11.074
47131W        W 8794  21.540  15.204   3.681
47132W        W 8795  29.554  31.022  14.512
47133W        W 8796  28.657  22.165  10.463
47134W        W 8797  33.528  18.640  12.573
47135W        W 8798   0.367   5.829   4.349
47136W        W 8799  11.666  25.212  11.387
47137W        W 8800  21.056  13.263   4.702
47138W        W 8801  32.141  21.041  11.942
47139W        W 8802  32.569  17.121  13.841
47140W        W 8803  22.720  22.078   1.284
47141W        W 8804  41.500   0.823  13.035
47142W        W 8805   7.722   4.880   3.227
47143W        W 8806   6.347  39.025   1.225
47144W        W 8807  27.122  28.121   1.869
47145W        W 8808  36.077   1.970   0.393
47146W        W 8809   3.221  34.964   0.754
47147W        W 8810  10.198  37.971  12.341
47148W        W 8811   1.892  41.492  12.071
47149W        W 8812  25.148  20.168   4.343
47150W        W 8813  37.401  38.023   4.236
47151W        W 8814  29.129  23.005   4.623
47152W        W 8815  20.119   2.466  13.933
47153W        W 8816  15.148  29.049  14.402
47154W        W 8817  36.520  11.294  10.613
47155W        W 8818  32.987  31.092  14.790
47156W        W 8819  24.594  36.588   2.220
47157W        W 8820  21.659  24.698  13.010
47158W        W 8821  33.619   4.272   3.648
47159W        W 8822  39.985   9.366   9.587
47160W        W 8823   6.860  14.639  10.904
47161W        W 8824  43.989  24.515   3.271
47162W        W 8825   3.430  15.082   4.794
47163W        W 8826   3.313   3.320  10.103
47164W        W 8827  20.709  44.761  14.417
47165W        W 8828   8.374  43.770  11.537
47166W        W 8829  32.540  29.139  11.880
47167W        W 8830  34.609   5.755  14.415
47168W        W 8831   4.234  19.276   2.671
47169W        W 8832  35.445  30.113  11.559
47170W        W 8833   2.424  14.729  11.101
47171W        W 8834  35.062  37.846   0.901
47172W        W 8835  11.154  19.697   1.928
47173W        W 8836  32.516  23.490  12.472
47174W        W 8837   1.360  21.059  14.910
47175W        W 8838  44.874  21.659  11.032
47176W        W 8839   6.857   1.758   2.845
47177W        W 8840  28.113  26.169  10.039
47178W        W 8841  16.152  19.228  11.467
47179W        W 8842   0.815  23.560   0.281
47180W        W 8843   8.321  40.986   1.818
47181W        W 8844  31.967  39.991  12.031
47182W        W 8845  42.785  17.588  11.929
47183W        W 8846  24.102  35.559  11.125
47184W        W 8847  21.075  44.925   1.809
47185W        W 8848  29.104  17.766   3.860
47186W        W 8849  33.507  26.655  14.352
47187W        W 8850  13.826   4.808  11.028
47188W        W 8851  14.125  17.705  13.433
47189W        W 8852   2.296  12.823  13.374
47190W        W 8853  35.563  24.094  12.067
47191W        W 8854  28.062  33.432  13.850
47192W        W 8855   8.799   5.222  10.568
47193W        W 8856  17.158  34.942   1.319
47194W        W 8857  16.581  18.694  10.576
47195W        W 8858  44.869  17.652  13.392
47196W        W 8859  42.304  37.553  10.487
47197W        W 8860  33.895   4.211   3.793
47198W        W 8861   4.758   0.256  10.899
47199W        W 8862  32.500  38.407  10.524
47200W        W 8863  23.005  23.162  12.996
47201W        W 8864  29.472  14.258  10.004
47202W        W 8865  15.811   1.379  11.921
47203W        W 8866  16.252  44.456   2.315
47204W        W 8867  25.985  33.536   3.834
47205W        W 8868   8.837  35.546   3.171
47206W        W 8869  24.517  33.122  14.859
47207W        W 8870  27.024   1.774  12.386
47208W        W 8871   7.370  29.440   3.675
47209W        W 8872  32.119  32.995   3.381
47210W        W 8873  31.039  42.429   2.219
47211W        W 8874   8.863  35.012   0.272
47212W        W 8875  41.483  23.526  12.901
47213W        W 8876  33.543  26.521  12.066
47214W        W 8877  24.640  30.482   3.164
47215W        W 8878   2.420  37.511   3.758
47216W        W 8879   9.254   9.379  14.809
47217W        W 8880  42.504   8.655  14.487
47218W        W 8881  22.598  15.767   2.692
47219W        W 8882  32.627  21.121   3.209
47220W        W 8883   8.711  32.028   1.747
47221W        W 8884  44.781  44.261   0.731
47222W        W 8885  23.033  10.706   0.923
47223W        W 8886  15.589  33.407  14.377
47224W        W 8887   7.895   1.466  12.826
47225W        W 8888  41.458   1.275   3.214
47226W        W 8889  38.401  34.410  12.514
47227W        W 8890  14.830  29.552   2.888
47228W        W 8891  21.521  40.049  14.328
47229W        W 8892  40.023  22.633  10.430
47230W        W 8893  12.307  14.665  12.966
47231W        W 8894  41.837  32.011  11.523
47232W        W 8895  30.572  35.468  11.927
47233W        W 8896   6.836   3.952  11.602
47234W        W 8897  16.715  23.520   1.934
47235W        W 8898  15.153  43.893   4.718
47236W        W 8899   8.352  18.106   0.864
47237W        W 8900  44.481   2.775  10.116
47238W        W 8901   9.841  41.932  10.534
47239W        W 8902   5.866  28.030   4.771
47240W        W 8903  41.938  37.494   4.775
47241W        W 8904  12.736   6.295  14.946
47242W        W 8905  25.475  12.743  14.297
47243W        W 8906  36.063  41.338   3.692
47244W        W 8907  24.617  13.754   2.749
47245W        W 8908  23.086  27.452   2.345
47246W        W 8909  19.211  25.063  10.503
47247W        W 8910  20.662  36.931   3.711
47248W        W 8911  21.653  44.759   0.924
47249W        W 8912  31.065   0.765   3.173
47250W        W 8913   9.334   4.702  13.803
47251W        W 8914  33.620  23.564   0.962
47252W        W 8915  37.514  18.066   2.206
47253W        W 8916  38.378  43.988   1.262
47254W        W 8917  24.024  10.637  13.393
47255W        W 8918   6.408  29.173  12.949
47256W        W 8919  41.485   5.339   4.762
47257W        W 8920   9.299  13.245  10.957
47258W        W 8921  43.975   2.427  14.010
47259W        W 8922   3.824  10.729   1.286
47260W        W 8923  42.784  30.575   3.159
47261W        W 8924  35.517   4.268  10.985
47262W        W 8925  22.698  39.859   1.696
47263W        W 8926   1.380  41.025  14.948
47264W        W 8927   2.921  26.990  14.514
47265W        W 8928  10.342  31.084  13.849
47266W        W 8929   1.399  25.639   0.926
47267W        W 8930  19.045  23.133   2.733
47268W        W 8931   3.295   0.318  13.470
47269W        W 8932  39.344  40.425  11.909
47270W        W 8933   0.949  23.669  10.571
47271W        W 8934  35.447  40.925  13.949
47272W        W 8935   1.732  39.811   2.312
47273W        W 8936  33.924  30.946  14.277
47274W        W 8937   2.867  30.577  10.435
47275W        W 8938  34.907  10.776   4.275
47276W        W 8939  30.436  27.525   4.677
47277W        W 8940  15.184  17.701   3.340
47278W        W 8941  12.315  33.622  13.900
47279W        W 8942  23.206  44.861   0.337
47280W        W 8943  28.562  43.385   2.816
47281W        W 8944  25.630  37.497   3.646
47282W        W 8945  37.043  31.092  10.411
47283W        W 8946  36.011  15.261   0.894
47284W        W 8947  28.656  31.521  10.405
47285W        W 8948   6.367   3.243   4.199
47286W        W 8949  14.210  27.183   1.339
47287W        W 8950  30.488   7.788   1.804
47288W        W 8951  16.072  44.325  11.511
47289W        W 8952  26.200  25.705   0.895
47290W        W 8953   7.186  12.720   4.340
47291W        W 8954  17.620  36.048  11.996
47292W        W 8955  20.265   5.703  13.380
47293W        W 8956  10.738   0.490   0.293
47294W        W 8957  36.400  31.994  10.484
47295W        W 8958  31.569   7.242  13.898
47296W        W 8959  38.940   7.364  14.942
47297W        W 8960  24.630   1.773  14.877
47298W        W 8961  17.207  13.640  13.845
47299W        W 8962  40.993  21.232  14.895
47300W        W 8963  18.782   7.821   5.226
47301W        W 8964  14.664   9.193   2.221
47302W        W 8965   1.423   4.248  14.949
47303W        W 8966  36.465  23.004  12.552
47304W        W 8967  14.269  44.296   0.307
47305W        W 8968  16.197  41.948  14.497
47306W        W 8969  10.786  29.438  11.588
47307W        W 8970  31.973   7.370   4.624
47308W        W 8971  38.998  30.488   1.371
47309W        W 8972  24.024  28.119  14.999
47310W        W 8973  42.836  12.730   1.697
47311W        W 8974  32.076  39.944  11.021
47312W        W 8975  38.342  40.381  13.386
47313W        W 8976  36.423  26.572   0.763
47314W        W 8977  15.290  13.305   1.284
47315W        W 8978  27.500  39.508   0.863
47316W        W 8979  30.525  28.110   1.286
47317W        W 8980  40.842  25.032   0.806
47318W        W 8981  37.933  44.416  14.786
47319W        W 8982  38.843  37.379  14.442
47320W        W 8983  32.629  31.075   0.378
47321W        W 8984  11.627  10.176  13.311
47322W        W 8985  40.897  32.499   0.865
47323W        W 8986   9.776  28.484   3.364
47324W        W 8987  18.704   6.243  12.827
47325W        W 8988  25.702  43.415  13.423
47326W        W 8989  30.053   8.857  14.361
47327W        W 8990   7.318   8.757   1.928
47328W        W 8991  30.946   8.686  10.504
47329W        W 8992  11.648  44.365   4.131
47330W        W 8993  27.050  44.981  14.780
47331W        W 8994  15.727  39.537   0.339
47332W        W 8995  25.696   2.817   1.915
47333W        W 8996  23.576  22.230   5.304
47334W        W 8997   3.928  44.849  13.861
47335W        W 8998  14.196   0.260  10.641
47336W        W 8999  44.424  21.681   4.817
47337W        W 9000   2.856   7.697   0.423
47338W        W 9001  36.953  20.594   4.142
47339W        W 9002  17.191  36.954  10.923
47340W        W 9003  18.203  25.209  12.391
47341W        W 9004  27.614  42.871  12.048
47342W        W 9005   2.358   5.225   2.343
47343W        W 9006  23.511  42.019  14.797
47344W        W 9007  17.751  11.652  10.014
47345W        W 9008  33.447   0.377   1.309
47346W        W 9009  13.811  11.681  13.435
47347W        W 9010   3.428  26.079   4.660
47348W        W 9011  29.488  25.967  12.848
47349W        W 9012   0.292  14.311  11.935
47350W        W 9013  42.436  14.800   2.199
47351W        W 9014  37.524  32.390   3.155
47352W        W 9015   8.767  33.605   0.403
47353W        W 9016  27.977   7.291   3.338
47354W        W 9017   7.339  36.055   2.236
47355W        W 9018  25.042  33.555  14.481
47356W        W 9019  20.250  17.174  12.372
47357W        W 9020  28.646  14.754   3.850
47358W        W 9021  25.198  15.589  13.541
47359W        W 9022  36.058   8.741   1.221
47360W        W 9023  27.128   5.753   2.769
47361W        W 9024  30.066  28.608  12.950
47362W        W 9025  11.836  27.533  13.852
47363W        W 9026  39.459  36.038   2.726
47364W        W 9027  44.379  22.093  10.498
47365W        W 9028   0.358   4.877  14.443
47366W        W 9029  19.112   3.912  11.554
47367W        W 9030  39.832  22.137  11.980
47368W        W 9031  32.546  44.363   0.425
47369W        W 9032  21.596  37.970  11.572
47370W        W 9033  27.962   5.303  12.916
47371W        W 9034  16.297   3.238   1.769
47372W        W 9035   6.409  13.626   2.789
47373W        W 9036  44.927  27.040   0.957
47374W        W 9037  38.407  33.563   4.155
47375W        W 9038   7.236  31.416  11.449
47376W        W 9039  44.376  30.021  13.008
47377W        W 9040  13.753   7.237   0.951
47378W        W 9041  36.954  41.870   1.696
47379W        W 9042  22.110  18.662   2.676
47380W        W 9043  10.330  38.888  12.363
47381W        W 9044   0.907  20.642   0.422
47382W        W 9045  20.233  31.966  13.312
47383W        W 9046  17.175  28.666   1.268
47384W        W 9047  13.166   2.734  14.002
47385W        W 9048  40.483  35.579  12.491
47386W        W 9049  19.109  13.721   0.934
47387W        W 9050  39.505   3.944  13.971
47388W        W 9051   1.956  20.728  11.537
47389W        W 9052  19.689   7.339   1.213
47390W        W 9053  43.349  43.845  12.066
47391W        W 9054  29.962  43.900   2.255
47392W        W 9055   5.354  35.065  10.593
47393W        W 9056   6.736  39.488   1.447
47394W        W 9057  18.170   3.868   1.437
47395W        W 9058  26.157  36.969  13.807
47396W        W 9059  18.184  19.678  14.334
47397W        W 9060  39.997  18.291  10.548
47398W        W 9061  11.852  31.491  14.511
47399W        W 9062  13.220  38.069  11.578
47400W        W 9063  12.344  16.710  12.558
47401W        W 9064   9.870  16.775   2.753
47402W        W 9065   6.799   9.885  12.438
47403W        W 9066   6.340  38.872  10.436
47404W        W 9067  22.170  19.252  13.441
47405W        W 9068   1.912  14.232  14.396
47406W        W 9069  21.134   5.352  14.294
47407W        W 9070  10.276  36.876   4.687
47408W        W 9071   6.343   8.865   5.105
47409W        W 9072  26.957  26.508   0.459
47410W        W 9073  11.263   5.205  10.913
47411W        W 9074  40.444  43.506  11.875
47412W        W 9075  30.580  42.349  13.894
47413W        W 9076  36.873   3.896   4.814
47414W        W 9077  35.448  17.782  12.043
47415W        W 9078  15.807  16.086  10.954
47416W        W 9079  21.757   0.326   2.377
47417W        W 9080   6.342   2.746  10.102
47418W        W 9081  32.923   1.909   4.245
47419W        W 9082  29.978  32.462   0.932
47420W        W 9083  17.621  17.251  11.975
47421W        W 9084   1.447   8.201   0.361
47422W        W 9085  15.184  32.091  12.883
47423W        W 9086  22.716  35.372   4.294
47424W        W 9087  30.489  11.666   0.930
47425W        W 9088  35.900  14.100   2.796
47426W        W 9089  27.598  25.114   1.862
47427W        W 9090  36.493  12.270   2.903
47428W        W 9091   7.173  19.190  10.515
47429W        W 9092  24.584  24.048  11.123
47430W        W 9093  28.989  33.921   2.285
47431W        W 9094  13.646  11.808   1.239
47432W        W 9095  15.270  17.753   3.676
47433W        W 9096   1.278   5.775   3.652
47434W        W 9097  25.158  39.524  12.433
47435W        W 9098  38.035  17.720   2.828
47436W        W 9099  44.490  10.650  11.491
47437W        W 9100  36.055  13.724   4.280
47438W        W 9101   9.359  36.547   2.698
47439W        W 9102  29.591  15.723   3.327
47440W        W 9103  10.842  13.686   2.250
47441W        W 9104  43.316  24.993   4.634
47442W        W 9105  32.959  43.982  11.869
47443W        W 9106  30.496  16.297  13.857
47444W        W 9107  25.539   3.304   5.160
47445W        W 9108  42.425  27.120  12.462
47446W        W 9109  30.545   0.418   4.273
47447W        W 9110  29.506  36.353   4.129
47448W        W 9111   6.800   3.433  13.509
47449W        W 9112  36.381  40.375   4.181
47450W        W 9113  34.043   4.379  12.082
47451W        W 9114  40.993   2.387   1.710
47452W        W 9115  17.612  19.711  10.412
47453W        W 9116  44.419  43.005  14.762
47454W        W 9117  15.799  10.669   0.285
47455W        W 9118   1.437  21.035   1.760
47456W        W 9119  30.654  37.356  14.497
47457W        W 9120  38.878  41.533   2.179
47458W        W 9121  39.919  16.120  14.387
47459W        W 9122  28.651  27.637  13.420
47460W        W 9123  41.982  42.901  11.542
47461W        W 9124   3.298  41.898  10.554
47462W        W 9125   3.886   1.741   2.855
47463W        W 9126  16.129  25.625  11.960
47464W        W 9127  11.834  19.617  14.908
47465W        W 9128  25.539  10.646   2.817
47466W        W 9129   5.781  38.836   1.278
47467W        W 9130  25.515  43.918  14.887
47468W        W 9131  23.129  22.230   0.908
47469W        W 9132   8.317  33.121  11.009
47470W        W 9133  10.699  35.901  12.952
47471W        W 9134  13.183  13.294  10.615
47472W        W 9135   4.371  11.645  13.834
47473W        W 9136  10.878  12.215  14.966
47474W        W 9137  21.158  10.790  12.492
47475W        W 9138  32.995  25.126  14.011
47476W        W 9139   2.326  28.657   3.185
47477W        W 9140  23.676  19.242  14.940
47478W        W 9141  24.993   2.783   0.867
47479W        W 9142  11.251  28.103   2.353
47480W        W 9143  41.997   2.922  13.026
47481W        W 9144   6.680  43.489   0.336
47482W        W 9145  10.245  24.128   2.290
47483W        W 9146  37.569   1.969   3.813
47484W        W 9147  25.668  16.741  12.890
47485W        W 9148   7.410  43.309   0.286
47486W        W 9149  31.057  22.023   0.372
47487W        W 9150  39.451   8.883   1.347
47488W        W 9151  33.040  30.437  11.934
47489W        W 9152  18.146  13.714   4.227
47490W        W 9153  42.399   2.441   2.870
47491W        W 9154  21.043  11.133  10.100
47492W        W 9155  12.311  43.007  13.473
47493W        W 9156  36.899  36.588   4.203
47494W        W 9157  26.117   8.211   0.863
47495W        W 9158   6.848  25.003  12.579
47496W        W 9159   1.272  29.928   4.235
47497W        W 9160  33.938   4.293  11.503
47498W        W 9161  34.864   4.833  11.877
47499W        W 9162  38.872  14.753   4.799
47500W        W 9163  30.014  36.362  12.431
47501W        W 9164  18.580   0.347  14.510
47502W        W 9165  16.756  24.007  13.498
47503W        W 9166  27.656  12.156   4.224
47504W        W 9167  32.447  29.942  14.922
47505W        W 9168  21.161  14.619  10.565
47506W        W 9169  39.374  34.380  11.392
47507W        W 9170  22.102  11.322   3.725
47508W        W 9171   3.843  17.693  12.058
47509W        W 9172  16.125  11.348  13.936
47510W        W 9173  11.782  18.674  13.374
47511W        W 9174   7.337   6.384  13.475
47512W        W 9175  25.025   7.871   3.800
47513W        W 9176   1.804  37.084  11.549
47514W        W 9177  25.121  34.599  11.524
47515W        W 9178  29.153  16.708  12.542
47516W        W 9179  14.156  44.347   4.621
47517W        W 9180  18.675  44.442   1.340
47518W        W 9181  21.090  36.395  11.092
47519W        W 9182   3.447  36.079   1.380
47520W        W 9183   6.722   5.712   3.229
47521W        W 9184   9.248  39.560   1.853
47522W        W 9185   2.841  31.962   3.337
47523W        W 9186  38.914  38.007   0.275
47524W        W 9187  38.565   5.899  10.418
47525W        W 9188  12.124  38.392   3.695
47526W        W 9189  33.494  17.740  12.047
47527W        W 9190  32.983  14.769  14.319
47528W        W 9191  24.600  32.559   4.237
47529W        W 9192  11.245  21.261  13.050
47530W        W 9193  38.870  29.460   0.782
47531W        W 9194   2.445  39.035   2.206
47532W        W 9195  27.160  18.146   5.223
47533W        W 9196   7.190  40.493   0.358
47534W        W 9197   0.267  11.237  11.607
47535W        W 9198  16.145  41.919  12.961
47536W        W 9199  31.029  37.960  12.572
47537W        W 9200  31.152  37.877   0.964
47538W        W 9201  20.073  35.546  11.908
47539W        W 9202   3.264  25.525   1.371
47540W        W 9203   1.899   7.360   4.708
47541W        W 9204  27.650  38.333   0.363
47542W        W 9205   7.259  19.233   2.795
47543W        W 9206  40.967  24.691  13.409
47544W        W 9207  22.705  39.929  10.896
47545W        W 9208  17.605   1.862  13.383
47546W        W 9209  17.679  25.155   2.731
47547W        W 9210  24.188  11.204  11.412
47548W        W 9211   2.871  36.026   0.934
47549W        W 9212  41.006  40.947  12.466
47550W        W 9213  13.650   3.926   1.354
47551W        W 9214  35.881  14.298  10.638
47552W        W 9215  43.478  36.460  12.575
47553W        W 9216   9.717  26.051  13.924
47554W        W 9217  16.650  25.182  12.887
47555W        W 9218  15.317  23.068  12.043
47556W        W 9219  41.811   5.930  12.862
47557W        W 9220   3.776  13.692  11.099
47558W        W 9221  12.282  19.147  12.991
47559W        W 9222  35.895  32.096   4.697
47560W        W 9223  21.071   0.349   0.890
47561W        W 9224  43.960   7.763   0.964
47562W        W 9225  29.475  28.055   3.710
47563W        W 9226  23.491  20.627  13.480
47564W        W 9227   2.251  36.574   1.729
47565W        W 9228  21.085  16.801  12.410
47566W        W 9229  42.951  39.989  12.342
47567W        W 9230  12.181  43.809   2.409
47568W        W 9231   2.732  25.491   4.807
47569W        W 9232  43.473  33.437  12.399
47570W        W 9233  18.547  41.965  12.847
47571W        W 9234  33.492  28.083   3.332
47572W        W 9235  41.791  23.719   2.190
47573W        W 9236  31.978  36.580  12.432
47574W        W 9237  15.664  10.339   2.188
47575W        W 9238   8.741  20.268   5.311
47576W        W 9239   5.920  42.502  11.004
47577W        W 9240  27.677   0.408   3.808
47578W        W 9241  27.546  43.867   4.778
47579W        W 9242  17.562  25.469   0.474
47580W        W 9243  28.133  42.944  14.940
47581W        W 9244   5.234   1.826  13.899
47582W        W 9245   4.890  18.698  14.942
47583W        W 9246  21.168  44.005   0.746
47584W        W 9247   8.233   0.983   1.743
47585W        W 9248   7.851  23.042   4.736
47586W        W 9249  39.450  22.648   4.314
47587W        W 9250  10.236   1.424   2.771
47588W        W 9251  20.208  12.626  14.504
47589W        W 9252  18.269  11.688   4.832
47590W        W 9253  19.201  10.367   2.417
47591W        W 9254  37.863  23.176  12.510
47592W        W 9255  17.241  21.567  12.361
47593W        W 9256  43.479  29.487  13.499
47594W        W 9257  32.928  44.901   2.271
47595W        W 9258  39.370  24.625  11.120
47596W        W 9259   2.872  36.852  11.441
47597W        W 9260   7.232  24.047  14.841
47598W        W 9261  35.524  42.884  13.530
47599W        W 9262  40.882  21.561   1.833
47600W        W 9263   4.395  38.860  14.766
47601W        W 9264  15.615   5.328  14.312
47602W        W 9265  32.108  41.352  11.497
47603W        W 9266   4.403  26.053   1.785
47604W        W 9267   3.383  17.558  14.495
47605W        W 9268  39.447  33.439   3.784
47606W        W 9269  18.757  39.333  14.447
47607W        W 9270  26.634  10.657   3.332
47608W        W 9271  25.120  37.032  13.469
47609W        W 9272  35.109  22.090   2.303
47610W        W 9273  44.871   1.353   2.389
47611W        W 9274  36.436  26.185   1.694
47612W        W 9275  19.702  39.845  10.468
47613W        W 9276  23.575  16.219  12.409
47614W        W 9277  25.608  30.643   0.273
47615W        W 9278  23.676  12.773  14.023
47616W        W 9279  29.640  15.731   0.908
47617W        W 9280  25.546  21.592  11.423
47618W        W 9281   8.749   7.730   4.117
47619W        W 9282  11.369  13.641  12.344
47620W        W 9283  25.519  16.080  11.406
47621W        W 9284  14.179  16.250   1.449
47622W        W 9285   2.938  26.047   4.762
47623W        W 9286  35.030  30.097   0.398
47624W        W 9287  23.501  27.623  10.938
47625W        W 9288  29.157   1.453  14.781
47626W        W 9289  33.081  42.008   3.352
47627W        W 9290   4.900  12.271   1.828
47628W        W 9291   2.929  24.662   4.315
47629W        W 9292  31.902  39.936   4.660
47630W        W 9293  23.015  27.690  14.826
47631W        W 9294  18.686  30.474   2.840
47632W        W 9295   0.410   7.370   2.247
47633W        W 9296  41.516  43.942  11.935
47634W        W 9297  32.594  23.494  13.936
47635W        W 9298   2.833   8.765  12.565
47636W        W 9299   8.359   2.929   1.762
47637W        W 9300  42.988   1.824   4.726
47638W        W 9301  29.480  35.985  11.959
47639W        W 9302  27.686  19.621   3.210
47640W        W 9303  25.031  28.454  12.939
47641W        W 9304  27.626  32.928   3.777
47642W        W 9305  28.508   2.838  10.524
47643W        W 9306   3.882  42.792  12.971
47644W        W 9307   9.654  30.940  13.486
47645W        W 9308  39.871  42.931  11.382
47646W        W 9309  14.637  30.547   5.215
47647W        W 9310   6.406  11.810  13.943
47648W        W 9311   8.722  16.626  12.488
47649W        W 9312  38.872  17.692  12.502
47650W        W 9313  44.815  22.684   4.771
47651W        W 9314  14.174   3.710  11.856
47652W        W 9315  44.332  35.023  13.862
47653W        W 9316  26.014  21.032   2.365
47654W        W 9317  36.911  30.038   0.765
47655W        W 9318  30.556  12.339   1.779
47656W        W 9319  13.680  38.378   1.405
47657W        W 9320  33.026   5.200  14.855
47658W        W 9321  10.802   7.693   2.191
47659W        W 9322  18.589  40.349  14.304
47660W        W 9323  43.279  43.951   4.228
47661W        W 9324  17.227   4.221   1.254
47662W        W 9325  35.971  31.022   3.380
47663W        W 9326  22.153   7.869   2.218
47664W        W 9327   3.300  31.627   0.905
47665W        W 9328  25.656  22.012   4.165
47666W        W 9329  31.497  10.669   4.605
47667W        W 9330  43.279   9.712   2.236
47668W        W 9331  11.322  21.719  13.960
47669W        W 9332  31.464  12.804  13.865
47670W        W 9333  20.041  13.688   2.364
47671W        W 9334  13.823  13.715   4.352
47672W        W 9335  40.827   8.329  10.156
47673W        W 9336  14.782  31.007  14.830
47674W        W 9337   6.844  29.645   1.757
47675W        W 9338   8.165  44.813  11.001
47676W        W 9339  22.132  15.585   0.399
47677W        W 9340  28.673   6.874  12.379
47678W        W 9341   6.211  23.155   0.899
47679W        W 9342  31.619  44.492   4.599
47680W        W 9343  43.969  43.432   4.836
47681W        W 9344  43.470  14.162   3.239
47682W        W 9345  19.244  14.723   2.349
47683W        W 9346   5.381  27.159   4.796
47684W        W 9347   2.959  11.663   4.721
47685W        W 9348  24.669   9.299   2.271
47686W        W 9349  16.149  36.500  12.990
47687W        W 9350  29.509  25.140   4.775
47688W        W 9351  31.897  16.266   2.872
47689W        W 9352   6.801  34.529  14.996
47690W        W 9353  23.703  35.858   0.871
47691W        W 9354  33.120   0.855   2.822
47692W        W 9355  12.359   6.864  14.985
47693W        W 9356  28.932  22.235  14.358
47694W        W 9357  14.746  37.977  10.923
47695W        W 9358  12.734  27.555   4.703
47696W        W 9359  21.640  28.589   4.182
47697W        W 9360  33.913  12.346  10.417
47698W        W 9361   7.744  11.178   3.833
47699W        W 9362  15.766  32.893  14.482
47700W        W 9363  37.848  31.105   2.230
47701W        W 9364  26.182   4.873   3.665
47702W        W 9365  44.989  43.960  12.864
47703W        W 9366  10.638   2.272   2.859
47704W        W 9367  39.928   5.846  11.057
47705W        W 9368   6.214   2.771  10.513
47706W        W 9369  12.214  29.606  10.462
47707W        W 9370   1.809  28.468  12.833
47708W        W 9371  23.083  25.059  14.432
47709W        W 9372   8.826  17.190  13.507
47710W        W 9373  29.088  11.237   1.846
47711W        W 9374  16.643   6.416  13.404
47712W        W 9375   8.254  28.943   2.293
47713W        W 9376  35.888  43.914   0.452
47714W        W 9377   8.840  11.833   1.710
47715W        W 9378  40.516  15.290  11.413
47716W        W 9379   4.763  19.105  13.914
47717W        W 9380  42.892  19.705   1.910
47718W        W 9381  10.690  23.671  10.599
47719W        W 9382   0.879   2.267   0.954
47720W        W 9383   3.779   4.243  12.062
47721W        W 9384  30.430  22.610   2.187
47722W        W 9385  30.639  35.489   4.823
47723W        W 9386  35.387  41.830  10.519
47724W        W 9387  43.505  35.084  13.033
47725W        W 9388  38.531   7.365  12.977
47726W        W 9389  27.684  19.103  14.898
47727W        W 9390  42.303  39.547  11.034
47728W        W 9391  11.725  35.900  11.517
47729W        W 9392  18.614  25.167   2.863
47730W        W 9393  34.577  14.275  11.125
47731W        W 9394  32.429  15.589  12.428
47732W        W 9395  32.888   1.359   2.255
47733W        W 9396  22.134  12.301   1.791
47734W        W 9397   9.890  36.977   3.817
47735W        W 9398   5.750  14.298   4.122
47736W        W 9399  33.996  11.361   0.853
47737W        W 9400   6.883  37.355   0.444
47738W        W 9401  19.692   1.416  12.344
47739W        W 9402  37.518  15.750  12.405
47740W        W 9403  15.784  17.668  12.437
47741W        W 9404   6.208  20.634   4.728
47742W        W 9405  23.144  35.400   2.241
47743W        W 9406  24.151  35.103  10.987
47744W        W 9407  37.567  18.657  14.466
47745W        W 9408  12.622  25.050  13.883
47746W        W 9409  42.306  21.737   3.662
47747W        W 9410  40.051  24.493  10.983
47748W        W 9411  37.544  43.346  14.815
47749W        W 9412  15.100  14.164  11.559
47750W        W 9413  16.587  17.674   2.391
47751W        W 9414  19.178  12.246  13.497
47752W        W 9415  18.698  17.729   1.893
47753W        W 9416  44.293   4.242   1.432
47754W        W 9417  17.605  11.685  14.813
47755W        W 9418  21.245  42.341   2.286
47756W        W 9419  13.212  18.775  10.421
47757W        W 9420  14.163  33.501  11.595
47758W        W 9421  24.030  36.555   0.865
47759W        W 9422  41.427  11.681  13.431
47760W        W 9423  12.161  32.885   1.927
47761W        W 9424  32.919  26.596  13.339
47762W        W 9425  19.044  17.229  12.344
47763W        W 9426  26.662  37.567   4.184
47764W        W 9427   4.313  20.561   4.181
47765W        W 9428  22.577  22.528   3.196
47766W        W 9429  12.299  28.143  10.505
47767W        W 9430  31.465  10.285  11.930
47768W        W 9431  25.591  21.718  13.341
47769W        W 9432  38.948  20.690   2.749
47770W        W 9433  37.971  23.071  14.508
47771W        W 9434  38.035  32.516   3.741
47772W        W 9435  33.081  22.066  11.518
47773W        W 9436  43.001  10.243  14.008
47774W        W 9437  37.433  23.635   1.410
47775W        W 9438  38.478  15.761  12.954
47776W        W 9439   9.702  15.661   0.893
47777W        W 9440  26.001  18.292  11.588
47778W        W 9441   8.205   8.666   1.878
47779W        W 9442  31.648  26.655   0.944
47780W        W 9443  15.624  40.519   1.888
47781W        W 9444  26.005  43.806   5.133
47782W        W 9445  15.780  40.484   2.246
47783W        W 9446  34.419  27.105  11.047
47784W        W 9447  39.022   5.368   0.271
47785W        W 9448  38.850  11.144  12.007
47786W        W 9449   7.681  29.644   0.900
47787W        W 9450   6.753  29.985   3.702
47788W        W 9451  26.025  27.044  14.778
47789W        W 9452   8.797  28.156   0.476
47790W        W 9453  32.976  12.836   1.393
47791W        W 9454  32.425  18.196  10.475
47792W        W 9455  32.907  33.992  10.983
47793W        W 9456  19.710  35.955  14.927
47794W        W 9457  21.149  27.015   2.251
47795W        W 9458  24.004  32.418  10.486
47796W        W 9459  27.533   9.819  14.340
47797W        W 9460  12.358  34.591  12.413
47798W        W 9461  42.423   4.916   0.818
47799W        W 9462  34.950   9.371   4.180
47800W        W 9463  39.507  35.068  10.468
47801W        W 9464  41.408  19.537   1.756
47802W        W 9465  23.714  36.849  11.594
47803W        W 9466  22.089  14.658   2.727
47804W        W 9467  28.037   4.824  14.462
47805W        W 9468  26.194  35.970  13.345
47806W        W 9469  29.975  15.289  14.942
47807W        W 9470  39.344   0.293   4.216
47808W        W 9471  32.588   4.892   1.886
47809W        W 9472  18.556  39.391  12.888
47810W        W 9473   8.183  11.791   4.676
47811W        W 9474  26.658  38.548  13.830
47812W        W 9475   5.885  21.043   2.736
47813W        W 9476  39.973  10.738   0.861
47814W        W 9477  22.127   6.778  13.386
47815W        W 9478  37.416  11.867   1.808
47816W        W 9479  15.153  39.437  13.823
47817W        W 9480  13.611  22.131   3.305
47818W        W 9481  13.235  30.626   9.993
47819W        W 9482  24.118  16.615  11.900
47820W        W 9483  16.685   4.929   3.335
47821W        W 9484  11.186  16.594  11.416
47822W        W 9485  27.166  35.398   3.354
47823W        W 9486   9.217   8.860  11.598
47824W        W 9487  24.034  31.138  13.966
47825W        W 9488  44.969  20.769   3.852
47826W        W 9489  18.761  30.969  14.457
47827W        W 9490  40.513   9.785  13.340
47828W        W 9491  25.702  40.887  12.830
47829W        W 9492  40.472  43.858   2.272
47830W        W 9493  27.626  32.469  13.982
47831W        W 9494   8.833   7.879  14.278
47832W        W 9495  36.933  41.319  13.811
47833W        W 9496  34.988  17.142  13.391
47834W        W 9497   1.813  32.917  13.325
47835W        W 9498  21.127   2.916   0.742
47836W        W 9499  27.608  41.989  14.796
47837W        W 9500  31.971   7.298  12.058
47838W        W 9501  12.291  36.855   5.786
47839W        W 9502  22.616   0.366  13.818
47840W        W 9503  22.217  36.912  10.640
47841W        W 9504  21.115  21.157  12.461
47842W        W 9505  32.017  10.366   3.849
47843W        W 9506  24.711   7.877   1.401
47844W        W 9507  14.594  24.161  14.515
47845W        W 9508  35.415   4.820   1.311
47846W        W 9509  29.113   2.234   0.446
47847W        W 9510   9.743  27.681   1.324
47848W        W 9511  27.167  21.091   2.839
47849W        W 9512   1.333  16.773   2.669
47850W        W 9513   4.708  10.826  12.365
47851W        W 9514  18.159  15.785   0.798
47852W        W 9515  10.814  27.494   0.794
47853W        W 9516  35.974   2.422   1.825
47854W        W 9517  34.918   8.184   2.380
47855W        W 9518  22.618  32.428   4.193
47856W        W 9519  16.745  35.546   0.388
47857W        W 9520   1.764  11.635  13.922
47858W        W 9521  12.724  41.526   0.770
47859W        W 9522  43.316  22.083   1.386
47860W        W 9523  27.536  24.082  12.996
47861W        W 9524  34.982  26.099  10.514
47862W        W 9525   7.180  25.146   0.441
47863W        W 9526  21.552  13.768   4.315
47864W        W 9527  37.052  13.666  11.548
47865W        W 9528  16.105  15.657   5.786
47866W        W 9529  39.340   0.756  12.897
47867W        W 9530  31.449  29.550   2.417
47868W        W 9531  44.936  34.482   0.298
47869W        W 9532  31.972   1.353   2.337
47870W        W 9533   3.246  36.575   5.141
47871W        W 9534  37.892  40.337  12.504
47872W        W 9535  29.035  34.416  13.005
47873W        W 9536  38.923  43.790  13.805
47874W        W 9537  31.559  39.900  14.011
47875W        W 9538  24.191   5.931  11.567
47876W        W 9539  28.041   4.709  13.037
47877W        W 9540   0.882   3.249   0.473
47878W        W 9541  35.865   7.329   3.157
47879W        W 9542   6.916  19.181   3.285
47880W        W 9543   6.918  43.850   2.296
47881W        W 9544  27.547   9.215   1.425
47882W        W 9545  39.347  12.287   4.215
47883W        W 9546  14.192  30.413  11.893
47884W        W 9547  18.752  31.532   0.432
47885W        W 9548   5.862  39.921   4.746
47886W        W 9549  10.155  32.574   1.845
47887W        W 9550  38.867  35.947  14.296
47888W        W 9551  27.457  44.786   2.868
47889W        W 9552  34.056  36.458   3.765
47890W        W 9553  23.558  36.882   1.762
47891W        W 9554  19.216  40.039  12.440
47892W        W 9555   5.871  22.158   2.331
47893W        W 9556   5.850  20.753   1.212
47894W        W 9557  24.132  44.474   0.888
47895W        W 9558  42.376  23.155   0.343
47896W        W 9559  14.157  14.296  11.463
47897W        W 9560  42.778   0.385   3.359
47898W        W 9561  17.635   0.923   3.284
47899W        W 9562  18.185  25.973   2.828
47900W        W 9563  26.510  14.805  10.622
47901W        W 9564  10.876  19.617   2.271
47902W        W 9565  42.945   6.253   9.993
47903W        W 9566  11.150  22.225  12.954
47904W        W 9567  16.722  21.563   4.293
47905W        W 9568  38.484   2.871  13.938
47906W        W 9569  36.580  15.621  11.498
47907W        W 9570  11.368  21.580   3.181
47908W        W 9571  28.612  23.209   2.268
47909W        W 9572   4.763   4.931  12.076
47910W        W 9573   7.757  12.254   0.448
47911W        W 9574  43.003  23.099  12.411
47912W        W 9575   5.808  19.263   1.709
47913W        W 9576  41.862  35.369   0.931
47914W        W 9577  40.466  26.644   4.830
47915W        W 9578  24.119  42.487   2.770
47916W        W 9579  28.631  23.010  14.007
47917W        W 9580  36.024   0.837  11.866
47918W        W 9581  18.077   7.911  14.279
47919W        W 9582   2.398  11.642  14.331
47920W        W 9583   5.858   7.300   3.190
47921W        W 9584  32.508  36.878   4.275
47922W        W 9585  25.555  10.775  10.605
47923W        W 9586  43.832  17.132  11.478
47924W        W 9587  43.438  10.857  10.015
47925W        W 9588  37.518  44.951  12.386
47926W        W 9589   1.772  20.612   1.851
47927W        W 9590  39.322  29.487  13.478
47928W        W 9591  10.346  31.140   3.866
47929W        W 9592  21.151  36.440  13.526
47930W        W 9593   3.854  22.529  10.907
47931W        W 9594  37.345  39.050   2.400
47932W        W 9595  38.066  17.180   2.401
47933W        W 9596   8.798  29.551   4.821
47934W        W 9597  37.492  44.341  14.405
47935W        W 9598  15.721  20.676   3.347
47936W        W 9599  12.140   6.382   1.885
47937W        W 9600  23.594   3.792  13.402
47938W        W 9601  41.824   7.392   2.807
47939W        W 9602  22.505  12.743  13.436
47940W        W 9603  13.290  20.571  10.942
47941W        W 9604  39.816  13.148   4.187
47942W        W 9605  10.339  40.812  14.996
47943W        W 9606  19.247  44.840  10.993
47944W        W 9607  37.075  39.376  10.616
47945W        W 9608   3.335  11.783  13.465
47946W        W 9609  30.996   7.241   0.255
47947W        W 9610  11.165  27.608   0.916
47948W        W 9611  29.600  34.554   2.740
47949W        W 9612  36.026   3.790  11.874
47950W        W 9613  44.324  16.197  12.536
47951W        W 9614  29.593  38.486  10.112
47952W        W 9615  36.050   9.681   2.399
47953W        W 9616  25.147  20.628   0.253
47954W        W 9617  22.697  44.809  10.457
47955W        W 9618  14.235   8.289  12.503
47956W        W 9619   2.331  29.588   0.895
47957W        W 9620   2.450  43.333  13.879
47958W        W 9621  33.019  15.597  13.824
47959W        W 9622   7.810  14.655  12.565
47960W        W 9623  35.060   1.900  13.490
47961W        W 9624  21.037  22.089   1.879
47962W        W 9625  37.999  18.578  11.105
47963W        W 9626   1.415  16.275  12.419
47964W        W 9627  11.846  15.705  14.330
47965W        W 9628  42.462   3.329   1.380
47966W        W 9629   5.787  22.611   3.227
47967W        W 9630  40.520  18.110  10.460
47968W        W 9631  41.044   3.425   1.754
47969W        W 9632  31.515  12.808   2.240
47970W        W 9633   6.905   3.338  11.857
47971W        W 9634  17.645   2.900  11.914
47972W        W 9635   7.377  40.848   0.424
47973W        W 9636   4.900   9.387   0.901
47974W        W 9637  15.191  27.164  10.488
47975W        W 9638   7.244   9.715   0.871
47976W        W 9639  20.136  39.443   0.739
47977W        W 9640  18.170   6.380   1.230
47978W        W 9641   1.314  44.386  14.773
47979W        W 9642  34.999  15.820   9.948
47980W        W 9643  41.441   1.353   0.482
47981W        W 9644  21.717   2.471   1.814
47982W        W 9645  13.140   2.867  10.516
47983W        W 9646  21.722  12.850  13.393
47984W        W 9647  21.097  20.554  12.905
47985W        W 9648  24.084  27.691  10.957
47986W        W 9649  33.483  27.152   2.746
47987W        W 9650   9.667  31.896  11.011
47988W        W 9651   4.301   5.424  14.911
47989W        W 9652  33.589   1.274   5.092
47990W        W 9653  40.316  22.716  10.445
47991W        W 9654  25.095  29.042  12.489
47992W        W 9655  24.977   5.770  12.566
47993W        W 9656  18.612  27.187  12.392
47994W        W 9657   9.176  31.463  11.028
47995W        W 9658   1.795  38.936  11.003
47996W        W 9659  20.200   3.304  10.479
47997W        W 9660  24.080  42.814  12.462
47998W        W 9661  29.465  24.715   3.773
47999W        W 9662  29.604  29.083  12.465
48000W        W 9663   1.839  33.441   1.921
48001W        W 9664   3.238   1.881  12.558
48002W        W 9665  13.167  40.995   3.190
48003W        W 9666  35.927  10.182  13.502
48004W        W 9667  32.591  25.536  13.833
48005W        W 9668  39.341  27.518   1.856
48006W        W 9669  26.540  39.503   0.879
48007W        W 9670  11.290  33.896  10.959
48008W        W 9671  27.003  33.568  12.997
48009W        W 9672  29.007  14.158   4.158
48010W        W 9673  12.691  20.743  14.803
48011W        W 9674  13.314   0.265   3.730
48012W        W 9675  21.225  24.640   3.150
48013W        W 9676  41.521  29.507   4.305
48014W        W 9677  35.923  18.750   5.285
48015W        W 9678  39.963  16.627   0.429
48016W        W 9679  26.489  12.243   2.781
48017W        W 9680  11.183  18.674   3.685
48018W        W 9681  23.651   0.278   1.701
48019W        W 9682  30.463  34.995   4.809
48020W        W 9683  31.628  21.177   9.525
48021W        W 9684  11.721  22.251  13.535
48022W        W 9685  44.442  42.316   4.787
48023W        W 9686  15.584  10.636  12.443
48024W        W 9687  33.619   2.287  14.436
48025W        W 9688  29.584  41.498   2.371
48026W        W 9689   0.937   4.841  10.957
48027W        W 9690   8.764  32.502   1.772
48028W        W 9691  18.182  19.185  13.047
48029W        W 9692  35.044  25.605  12.019
48030W        W 9693  41.525  13.779   1.382
48031W        W 9694  36.579  34.571   3.308
48032W        W 9695  36.913  35.554  10.979
48033W        W 9696  28.119   4.699  10.931
48034W        W 9697  38.842  20.645  13.878
48035W        W 9698  24.185  14.141   5.248
48036W        W 9699  41.993  44.918   1.763
48037W        W 9700   0.946   6.273  14.990
48038W        W 9701   0.423  27.648  14.869
48039W        W 9702  13.246  42.425  11.563
48040W        W 9703  35.523   8.257  14.933
48041W        W 9704  27.449  39.474  11.936
48042W        W 9705  43.783   4.274   1.783
48043W        W 9706  41.378  25.657  11.399
48044W        W 9707  25.186  17.302  13.849
48045W        W 9708  26.093  28.578  10.469
48046W        W 9709   4.896  25.166   4.129
48047W        W 9710  16.292  16.185   0.901
48048W        W 9711   2.781  43.492  11.585
48049W        W 9712   6.183  10.754   4.304
48050W        W 9713  24.648  11.221  10.461
48051W        W 9714  20.271  25.088   4.180
48052W        W 9715  27.058  13.198   4.237
48053W        W 9716  40.420  40.474   1.323
48054W        W 9717  17.732  30.082  11.998
48055W        W 9718  28.610   2.256  13.853
48056W        W 9719   1.868  13.130  11.948
48057W        W 9720   4.832  14.253  13.006
48058W        W 9721  15.804  11.712  14.328
48059W        W 9722  31.430   3.284   4.645
48060W        W 9723  42.410  41.946   1.388
48061W        W 9724  10.231  38.531   0.858
48062W        W 9725  44.847  19.713   3.717
48063W        W 9726  41.980   6.388  13.039
48064W        W 9727  18.136  16.276  10.642
48065W        W 9728  12.119  37.896  10.421
48066W        W 9729  25.073  20.091  11.413
48067W        W 9730  10.730  41.932  11.077
48068W        W 9731  35.100  12.690  14.347
48069W        W 9732  43.870  42.836  12.469
48070W        W 9733  13.151   0.945  12.881
48071W        W 9734  28.480   3.294  11.891
48072W        W 9735   0.932   1.854  13.907
48073W        W 9736  42.023  19.229  13.843
48074W        W 9737  15.654  25.110   4.162
48075W        W 9738  27.521   1.870  12.476
48076W        W 9739  32.619  16.278  11.056
48077W        W 9740  28.170  36.574  14.782
48078W        W 9741  29.145  16.769  13.940
48079W        W 9742  35.450  17.278  13.412
48080W        W 9743  13.609  12.853   3.173
48081W        W 9744   9.288   8.727   2.829
48082W        W 9745  29.661  17.198  13.030
48083W        W 9746  41.039  31.064  14.999
48084W        W 9747  30.462  23.146  13.343
48085W        W 9748  34.562  29.040  11.408
48086W        W 9749  40.903  22.125  14.474
48087W        W 9750  11.783  15.757  12.840
48088W        W 9751  16.594   7.206   0.755
48089W        W 9752   3.372  30.938  12.032
48090W        W 9753  40.885   5.320  14.899
48091W        W 9754  15.823   1.416   3.766
48092W        W 9755  12.710  43.420  12.061
48093W        W 9756  31.577  35.944   1.432
48094W        W 9757   5.791  26.526  11.417
48095W        W 9758  15.222  39.996   3.716
48096W        W 9759  20.542  31.492   1.768
48097W        W 9760  37.359  23.112   4.150
48098W        W 9761  32.604   6.204   2.345
48099W        W 9762  22.091  25.172  10.933
48100W        W 9763  41.796  10.833  11.524
48101W        W 9764   8.191  20.074   3.735
48102W        W 9765  44.818   9.799  14.418
48103W        W 9766  35.893  24.110  14.019
48104W        W 9767  39.058  29.034  14.330
48105W        W 9768   0.431   9.378  10.096
48106W        W 9769  20.135   2.311   2.224
48107W        W 9770  40.460   6.880   1.261
48108W        W 9771  31.565  28.182  11.417
48109W        W 9772  20.096   0.452  12.564
48110W        W 9773  18.715  20.749   2.241
48111W        W 9774  33.479  22.018  14.937
48112W        W 9775  22.114  39.447   1.283
48113W        W 9776   8.273  15.085  12.576
48114W        W 9777   9.792  18.614  10.967
48115W        W 9778  12.303  15.665   1.776
48116W        W 9779  39.404   6.770  11.061
48117W        W 9780  11.760  23.553  13.496
48118W        W 9781  42.963  38.966   5.086
48119W        W 9782  11.854  22.569  11.100
48120W        W 9783  37.982  31.139   1.388
48121W        W 9784  40.936  17.132   0.472
48122W        W 9785  24.110   6.750  12.981
48123W        W 9786  41.816  41.935  14.887
48124W        W 9787  36.456  37.566  13.059
48125W        W 9788   2.303  13.161  12.874
48126W        W 9789  23.502  11.826   4.288
48127W        W 9790   1.298  44.963   2.789
48128W        W 9791  26.591   1.937   1.450
48129W        W 9792   1.940  38.527  12.463
48130W        W 9793  19.584   8.855  14.768
48131W        W 9794  42.961   3.913   0.309
48132W        W 9795  14.766   6.821   0.432
48133W        W 9796  35.102  14.625  12.915
48134W        W 9797  41.989  31.090   4.674
48135W        W 9798  39.316  37.000   4.137
48136W        W 9799  25.004  33.416   0.304
48137W        W 9800  15.680  23.990   4.767
48138W        W 9801  37.830  13.257  11.903
48139W        W 9802   8.327  12.281  12.007
48140W        W 9803  11.660  13.676  13.831
48141W        W 9804  15.204  25.973   3.286
48142W        W 9805   4.379   5.715  12.490
48143W        W 9806  13.767   7.782  11.104
48144W        W 9807   6.896   3.420   0.392
48145W        W 9808  21.720  11.821   2.870
48146W        W 9809  40.878  15.121   5.267
48147W        W 9810  28.495  14.685   4.681
48148W        W 9811  25.191  20.710   2.389
48149W        W 9812  43.473  24.554  13.927
48150W        W 9813  16.141  40.544   1.275
48151W        W 9814  27.607  22.187   0.319
48152W        W 9815  26.999  14.651   1.422
48153W        W 9816  20.126  17.680  13.057
48154W        W 9817   9.284  21.715  14.883
48155W        W 9818   3.240  25.010  12.854
48156W        W 9819  22.621   2.235   1.339
48157W        W 9820  18.775  41.791  14.976
48158W        W 9821  40.489   1.287  10.510
48159W        W 9822  43.279  44.293  12.057
48160W        W 9823  26.642   7.358  14.020
48161W        W 9824  32.133  31.422  11.905
48162W        W 9825  30.943  25.109   2.287
48163W        W 9826  17.195  39.496   4.150
48164W        W 9827   9.858   3.836  12.019
48165W        W 9828  22.249  22.709   4.715
48166W        W 9829  19.542  14.732   3.658
48167W        W 9830  30.645   6.897  14.927
48168W        W 9831  15.151   8.403  11.036
48169W        W 9832  23.601  19.107  12.028
48170W        W 9833  11.702  23.727  11.499
48171W        W 9834  31.502  32.441  11.504
48172W        W 9835  42.824  33.597  14.933
48173W        W 9836  22.535   1.428  12.496
48174W        W 9837  16.297  14.225   0.767
48175W        W 9838  24.529  22.145   1.882
48176W        W 9839   4.824  18.131  12.551
48177W        W 9840  15.309  20.665  11.940
48178W        W 9841   2.762   2.342   2.288
48179W        W 9842  29.552  31.060  13.396
48180W        W 9843  20.564  31.041   1.816
48181W        W 9844   7.841   0.845  11.121
48182W        W 9845  17.625   5.776   4.744
48183W        W 9846  19.169  15.621   0.898
48184W        W 9847  12.678  31.448  12.367
48185W        W 9848  30.074  13.785  13.927
48186W        W 9849  31.514   4.830   2.258
48187W        W 9850  16.687  42.331   1.449
48188W        W 9851  21.116  36.957   3.243
48189W        W 9852  42.005  24.196   4.764
48190W        W 9853   9.335  21.182   2.809
48191W        W 9854  26.575  16.161   2.192
48192W        W 9855  35.857  28.678   2.839
48193W        W 9856  32.496   2.837   3.298
48194W        W 9857  18.589  32.519  10.546
48195W        W 9858  11.353  19.093   3.665
48196W        W 9859   0.954  17.202   2.694
48197W        W 9860  24.490  41.361  13.400
48198W        W 9861  33.411  38.895   3.162
48199W        W 9862  29.465   9.258  12.074
48200W        W 9863  32.415   8.731   2.215
48201W        W 9864   0.777   1.913   0.421
48202W        W 9865  26.518   2.953   1.329
48203W        W 9866  12.789  23.213   3.771
48204W        W 9867  10.307  21.578  11.917
48205W        W 9868  17.572  36.429  14.879
48206W        W 9869  33.044  11.343  14.403
48207W        W 9870   3.439  15.226   0.756
48208W        W 9871   9.155  33.982   2.415
48209W        W 9872  11.639  10.289  11.583
48210W        W 9873   7.409   7.764  13.978
48211W        W 9874  11.828  38.056  14.897
48212W        W 9875  38.931  27.140   2.668
48213W        W 9876  17.202   6.752   4.203
48214W        W 9877   8.767  41.363   1.822
48215W        W 9878  43.789  24.632   1.425
48216W        W 9879  39.321  26.663   4.741
48217W        W 9880  11.812  16.701   0.751
48218W        W 9881  28.937   2.370   3.732
48219W        W 9882  15.592   6.253   1.702
48220W        W 9883   3.911  44.390  12.074
48221W        W 9884  43.810  27.621  12.884
48222W        W 9885   2.828  42.377   3.340
48223W        W 9886   1.944   3.229   1.414
48224W        W 9887  41.411   2.226   1.802
48225W        W 9888  15.775  10.253   1.771
48226W        W 9889   6.428   8.832  10.909
48227W        W 9890  31.632   9.198   3.265
48228W        W 9891  27.035  39.907  14.932
48229W        W 9892  19.188  31.530  11.506
48230W        W 9893   1.763  27.987   2.416
48231W        W 9894  26.627  14.825  11.101
48232W        W 9895   5.272  21.136  11.495
48233W        W 9896  29.646  36.076  11.085
48234W        W 9897   9.769  37.538   4.683
48235W        W 9898  41.944  37.924  13.050
48236W        W 9899  21.017   8.803   2.234
48237W        W 9900  40.428  19.043   4.120
48238W        W 9901  42.988  39.377  13.525
48239W        W 9902  14.223  28.135  13.959
48240W        W 9903  38.527  35.075  12.874
48241W        W 9904  13.296  43.285   4.335
48242W        W 9905  43.897   1.286   1.786
48243W        W 9906  31.904  27.688   2.268
48244W        W 9907  31.498   7.846  12.978
48245W        W 9908   7.882   1.247   4.802
48246W        W 9909  36.351  13.111   1.778
48247W        W 9910  11.363  33.451   4.626
48248W        W 9911   1.454   2.295  13.979
48249W        W 9912  40.942  37.470   2.241
48250W        W 9913  12.850   2.382  12.543
48251W        W 9914   6.294  43.854   2.782
48252W        W 9915  27.126  10.868  10.634
48253W        W 9916  43.278  40.956   4.754
48254W        W 9917  10.684   0.409   4.753
48255W        W 9918  43.410  11.854  11.553
48256W        W 9919  33.074  21.107  11.015
48257W        W 9920  31.629  13.689  10.550
48258W        W 9921  34.119  20.244  14.829
48259W        W 9922  14.277  14.725  14.889
48260W        W 9923  31.550  41.039  11.971
48261W        W 9924   8.330  18.674  11.423
48262W        W 9925  23.684   0.924   1.777
48263W        W 9926  37.551  38.495   3.186
48264W        W 9927   8.311  36.090  13.016
48265W        W 9928  13.334   0.765   4.180
48266W        W 9929   9.281   6.213   4.292
48267W        W 9930  26.702  33.957   4.244
48268W        W 9931  11.662  29.458  14.853
48269W        W 9932  33.924  44.307   4.160
48270W        W 9933  41.824  18.225  11.527
48271W        W 9934  40.953   2.275  13.933
48272W        W 9935  29.666  28.563   2.770
48273W        W 9936  29.627  13.320  10.469
48274W        W 9937  25.073   6.370  13.003
48275W        W 9938  14.593  10.380   2.278
48276W        W 9939   5.327   8.178  11.442
48277W        W 9940   7.899  20.636   1.917
48278W        W 9941  13.837   2.906   1.267
48279W        W 9942   1.301  35.894  13.324
48280W        W 9943   6.859   2.384   3.797
48281W        W 9944   4.301  10.144   3.735
48282W        W 9945  17.106  38.894  11.399
48283W        W 9946  33.547  27.152   1.744
48284W        W 9947  24.981   7.768  14.882
48285W        W 9948  41.976   0.400  10.472
48286W        W 9949  38.327   9.245  10.930
48287W        W 9950  18.147  44.862  13.989
48288W        W 9951   1.741  36.590   4.614
48289W        W 9952   7.795  35.376  12.491
48290W        W 9953  36.362  23.616   0.755
48291W        W 9954  35.417  36.455  11.026
48292W        W 9955  14.637  44.356  11.610
48293W        W 9956  20.098  26.573  10.122
48294W        W 9957  19.262  32.478  14.906
48295W        W 9958  43.771  11.860  12.352
48296W        W 9959  22.690  31.457   4.650
48297W        W 9960  20.255  38.018   3.713
48298W        W 9961  41.923   3.338  11.045
48299W        W 9962  14.713   9.749  11.893
48300W        W 9963  36.567  37.068   1.304
48301W        W 9964  40.306   4.375   1.777
48302W        W 9965   2.278   5.268  11.933
48303W        W 9966  26.100  37.554  13.006
48304W        W 9967  25.606  10.830  12.888
48305W        W 9968  24.572   6.853  14.793
48306W        W 9969  36.375  42.924  14.464
48307W        W 9970   0.288  14.660  13.977
48308W        W 9971  27.131  19.174  13.505
48309W        W 9972  11.137  13.802   4.687
48310W        W 9973  22.687  20.659  12.528
48311W        W 9974  41.967  12.630   0.812
48312W        W 9975  19.238  36.009  13.308
48313W        W 9976  41.856  21.083   2.342
48314W        W 9977  27.690  15.159  13.041
48315W        W 9978   5.808   6.326  11.472
48316W        W 9979  27.960  31.969   4.799
48317W        W 9980  40.534  16.256   2.879
48318W        W 9981   2.471   1.743   2.709
48319W        W 9982  21.715  25.662   5.752
48320W        W 9983  23.541  44.945  12.393
48321W        W 9984  37.911   0.423   4.671
48322W        W 9985  32.038  41.427   2.389
48323W        W 9986  25.604  30.929  14.950
48324W        W 9987  18.202  17.304   5.794
48325W        W 9988  27.027  20.632  10.462
48326W        W 9989  18.113  35.057   2.203
48327W        W 9990  10.713  37.020  13.799
48328W        W 9991  33.084  18.061   0.845
48329W        W 9992   2.253   7.266  13.910
48330W        W 9993   5.720   8.768  13.445
48331W        W 9994  32.958   6.701   2.812
48332W        W 9995  23.095  42.435   2.717
48333W        W 9996  37.891  20.230  11.382
48334W        W 9997  14.311  33.954   0.848
48335W        W 9998  27.043  43.373  10.475
48336W        W 9999  34.404  38.373   1.752
48337W        W10000  32.629  10.733   0.878
48338W        W10001  22.051  23.233   0.480
48339W        W10002  13.729  38.496  13.013
48340W        W10003  15.126  12.220  13.794
48341W        W10004  18.279  22.252   2.719
48342W        W10005  31.907  31.076   4.237
48343W        W10006  28.555   7.355   4.667
48344W        W10007   1.826   8.765  14.973
48345W        W10008   8.673   7.883   5.245
48346W        W10009  42.994   4.925  12.399
48347W        W10010  23.495   8.264   3.776
48348W        W10011  29.582   0.301   4.727
48349W        W10012  33.043  44.284  14.339
48350W        W10013  13.212   3.276   4.126
48351W        W10014  10.657  35.888   4.307
48352W        W10015  40.462  32.601   1.417
48353W        W10016  24.010  44.443  14.300
48354W        W10017  24.125  22.140  11.112
48355W        W10018  37.550  27.044   1.838
48356W        W10019  34.495  23.023  12.371
48357W        W10020  33.960  37.848  11.562
48358W        W10021  42.032   3.326  11.559
48359W        W10022  26.496  13.199  11.386
48360W        W10023  23.208   8.743  12.554
48361W        W10024  22.537  28.090  13.894
48362W        W10025  28.582   1.957   2.806
48363W        W10026  35.451  30.562  11.544
48364W        W10027  21.250  25.710   1.400
48365W        W10028   1.448  27.063  12.375
48366W        W10029  13.830  24.103  14.819
48367W        W10030  33.096   0.947  13.858
48368W        W10031  18.052  14.319  12.507
48369W        W10032   3.222   6.275  11.092
48370W        W10033  24.617  31.135  12.094
48371W        W10034  14.742  22.617   2.208
48372W        W10035  13.270  18.067  13.794
48373W        W10036  38.064   2.952  13.862
48374W        W10037  32.931   7.201  12.468
48375W        W10038  10.756  43.387   4.341
48376W        W10039  25.034  20.055  12.012
48377W        W10040  10.755   0.903   1.369
48378W        W10041  30.097  19.059   0.773
48379W        W10042  21.523  25.215   9.533
48380W        W10043  41.979  40.468  14.005
48381W        W10044  43.460  43.963   1.713
48382W        W10045  31.013  19.708  14.863
48383W        W10046  20.031  36.072   0.328
48384W        W10047  12.201  40.836  14.907
48385W        W10048  40.798  21.668   0.262
48386W        W10049  31.071  20.579   0.731
48387W        W10050  26.971   6.804  13.466
48388W        W10051  19.205  29.131  12.411
48389W        W10052  25.512  37.883   5.589
48390W        W10053  19.178   3.762  14.797
48391W        W10054   8.262  42.412  13.908
48392W        W10055   1.965  37.937   2.739
48393W        W10056  31.603  31.994  12.891
48394W        W10057  44.287  37.380   4.207
48395W        W10058  32.585   9.667   3.738
48396W        W10059  38.858  14.158   3.178
48397W        W10060  41.882  10.322  12.480
48398W        W10061  43.403  18.126   9.940
48399W        W10062   8.220  14.829  12.840
48400W        W10063  17.788  29.528  12.885
48401W        W10064   1.348  24.488  13.869
48402W        W10065  11.633   4.865   1.879
48403W        W10066  23.052  33.132  14.446
48404W        W10067  37.023   1.931  11.389
48405W        W10068  37.572  19.687   2.368
48406W        W10069   2.458   1.371  11.515
48407W        W10070  29.493  35.967   5.193
48408W        W10071  16.767  32.065  13.876
48409W        W10072  32.454  11.660   0.894
48410W        W10073  38.848  42.891   2.777
48411W        W10074   7.735   6.874  13.505
48412W        W10075  27.940  19.203  12.022
48413W        W10076   0.961  26.177   3.858
48414W        W10077  10.795  21.141  10.923
48415W        W10078  10.175   8.666  13.394
48416W        W10079  28.002  14.321  10.053
48417W        W10080  15.145  21.061   4.759
48418W        W10081  29.570  20.566  14.935
48419W        W10082  25.608  23.029  13.945
48420W        W10083   9.186  25.581  14.328
48421W        W10084  27.941  19.168   4.663
48422W        W10085  35.448  38.925  10.421
48423W        W10086  19.557  42.432  12.058
48424W        W10087   2.957   0.375   2.684
48425W        W10088  44.957  22.629   1.765
48426W        W10089  12.847  20.565  10.577
48427W        W10090  18.195  40.803   3.206
48428W        W10091  20.746  19.627   3.259
48429W        W10092   5.794   0.960   3.348
48430W        W10093  36.984  35.899   4.713
48431W        W10094  19.153   0.414  14.884
48432W        W10095  21.051  34.463   0.325
48433W        W10096  44.378  28.538   1.743
48434W        W10097  23.579   4.913   9.475
48435W        W10098  13.818   7.848   3.699
48436W        W10099  35.460  19.674   3.196
48437W        W10100  40.923   6.764   4.159
48438W        W10101   8.269  37.531  13.896
48439W        W10102  27.609   9.350  13.496
48440W        W10103  42.405  40.312  10.609
48441W        W10104  36.901   3.280   4.764
48442W        W10105  18.670   2.936   3.853
48443W        W10106  15.322   4.283   1.888
48444W        W10107  14.682  15.648   2.419
48445W        W10108  27.069   3.438   0.948
48446W        W10109   3.390  25.090  12.362
48447W        W10110  30.157  23.100   0.411
48448W        W10111  19.261  44.367  13.399
48449W        W10112  38.852  16.731   3.151
48450W        W10113  44.333  30.516   3.646
48451W        W10114  11.365  38.051  12.429
48452W        W10115  19.270  17.690  14.997
48453W        W10116  35.029  14.095  11.931
48454W        W10117  40.459  20.693   4.219
48455W        W10118  39.514  39.968  14.397
48456W        W10119   3.853  13.667   3.370
48457W        W10120   1.299  43.911  11.909
48458W        W10121  35.425   6.334   2.185
48459W        W10122  31.631   9.343  12.937
48460W        W10123  38.866  26.508  14.949
48461W        W10124  24.081  23.614  10.052
48462W        W10125  11.785  19.547   4.798
48463W        W10126  33.433  34.407  11.503
48464W        W10127  41.043  16.247  13.527
48465W        W10128  19.089   3.390  11.439
48466W        W10129  38.514  20.055   3.259
48467W        W10130  13.628  34.087   3.310
48468W        W10131  22.681   0.316  12.920
48469W        W10132  23.507  41.976  13.439
48470W        W10133  41.893  26.570   4.734
48471W        W10134   3.430  16.762   0.259
48472W        W10135  28.443  11.767  10.437
48473W        W10136  10.720  14.696  11.378
48474W        W10137  19.090   0.832  10.568
48475W        W10138  30.016  18.712   4.137
48476W        W10139   0.334   0.842   3.807
48477W        W10140   7.906  17.289  14.293
48478W        W10141  28.950  35.056   3.669
48479W        W10142  36.495  18.068   3.348
48480W        W10143  29.131   1.922   3.148
48481W        W10144  29.119  10.777   2.886
48482W        W10145  10.308  28.991   9.980
48483W        W10146   8.892  19.696   0.312
48484W        W10147  23.120  29.653   0.282
48485W        W10148  16.153  29.925   2.296
48486W        W10149  20.184   9.726   0.827
48487W        W10150  26.967   7.885   2.283
48488W        W10151  43.775  28.104   0.862
48489W        W10152   8.831   0.265  11.936
48490W        W10153   0.404  21.585   0.395
48491W        W10154  13.657  15.175  12.018
48492W        W10155  18.679  22.732   4.215
48493W        W10156   6.860  38.538   0.280
48494W        W10157  12.239  19.115  11.526
48495W        W10158  13.347  13.727  11.588
48496W        W10159  42.385  22.110   3.746
48497W        W10160  23.721  42.000  12.985
48498W        W10161   0.387  18.678   3.336
48499W        W10162  12.729  26.142  11.053
48500W        W10163  27.661  30.055  13.445
48501W        W10164  41.440  17.678   4.771
48502W        W10165   8.859  37.399  14.792
48503W        W10166   4.831  23.717  12.831
48504W        W10167   5.819  25.000  10.948
48505W        W10168  23.065  41.993  14.007
48506W        W10169  15.800   3.806  14.382
48507W        W10170  30.467  27.688  12.931
48508W        W10171  15.311  25.576  11.459
48509W        W10172  44.881  35.985   4.727
48510W        W10173  30.466   6.252  11.014
48511W        W10174  16.216  16.130  13.343
48512W        W10175  18.685  31.623  10.972
48513W        W10176  19.618  34.908  12.902
48514W        W10177  11.372  12.617   1.296
48515W        W10178  20.170   8.245  12.509
48516W        W10179   8.191  22.507   3.321
48517W        W10180  30.022  35.955  13.492
48518W        W10181  22.660  28.588  13.504
48519W        W10182  44.467  44.431   2.289
48520W        W10183   9.193  36.575  12.005
48521W        W10184  44.310  39.827   4.181
48522W        W10185  31.543  28.552   0.313
48523W        W10186   8.792   7.758  12.519
48524W        W10187  16.699  12.750   5.243
48525W        W10188  18.722  29.521   4.673
48526W        W10189   6.341  42.355   3.687
48527W        W10190   3.870  18.073   2.662
48528W        W10191  40.929  38.925  10.465
48529W        W10192  43.433   9.741   1.229
48530W        W10193  40.313  12.656  12.911
48531W        W10194  11.360  12.351   3.208
48532W        W10195  15.816  32.563  13.324
48533W        W10196   4.254   5.213  14.515
48534W        W10197  22.159  21.138  12.381
48535W        W10198   7.707   5.250   4.759
48536W        W10199  12.742  17.119   0.419
48537W        W10200  40.463  19.116   3.384
48538W        W10201  23.621  38.543   4.699
48539W        W10202   5.763  21.535  14.433
48540W        W10203  41.355  39.927  10.601
48541W        W10204  18.765  24.184  11.083
48542W        W10205  20.570  42.399  11.382
48543W        W10206  15.244  20.661   3.146
48544W        W10207   2.266  20.552   3.307
48545W        W10208   9.245  32.067  10.158
48546W        W10209  43.998   9.863   0.321
48547W        W10210  12.704  44.377   4.682
48548W        W10211  42.891   7.231  10.047
48549W        W10212  42.977   4.298  13.826
48550W        W10213  29.591  35.433   4.700
48551W        W10214   6.783   2.911  10.643
48552W        W10215  10.229  22.545   1.284
48553W        W10216  22.136   5.281   4.651
48554W        W10217  29.630   1.840  11.974
48555W        W10218  14.324  43.974   3.380
48556W        W10219  26.131  17.583   0.749
48557W        W10220  43.931  25.147  14.352
48558W        W10221  27.942  17.708  11.040
48559W        W10222  12.350  24.502  13.967
48560W        W10223  21.027  14.240  11.009
48561W        W10224  27.499  27.627  13.372
48562W        W10225   3.345  23.068   4.786
48563W        W10226  24.027  20.163  10.584
48564W        W10227  12.625  18.739   4.346
48565W        W10228   7.241  34.599   3.691
48566W        W10229  22.154   2.778  14.916
48567W        W10230  38.563  23.992   0.333
48568W        W10231   5.342  24.154  11.103
48569W        W10232  33.416   4.941   2.762
48570W        W10233  28.951   6.759  13.388
48571W        W10234  34.402   2.849  13.881
48572W        W10235  34.528  31.618  14.302
48573W        W10236  34.531  22.066  12.909
48574W        W10237   9.317  21.538  12.962
48575W        W10238  32.944  13.167   3.202
48576W        W10239  15.113  20.691   4.714
48577W        W10240  19.736   2.799   4.138
48578W        W10241  21.624   6.765   0.346
48579W        W10242  32.910  42.886  13.020
48580W        W10243  41.960   4.208  11.961
48581W        W10244  40.815  22.041   4.648
48582W        W10245  13.222  33.064   3.197
48583W        W10246  22.157   2.752  11.964
48584W        W10247   2.228  22.168  12.571
48585W        W10248  24.146  19.611   0.451
48586W        W10249  17.766  33.895  14.348
48587W        W10250  27.555  43.326   3.300
48588W        W10251  30.030  11.657   2.775
48589W        W10252  24.086   7.319   1.756
48590W        W10253  21.616  37.890   4.322
48591W        W10254   4.445   2.281  14.878
48592W        W10255   5.782  43.813   3.206
48593W        W10256  24.537  13.324  10.547
48594W        W10257   5.790   3.294   2.839
48595W        W10258  43.910  37.890   1.908
48596W        W10259  44.823  34.613   1.371
48597W        W10260  44.471  40.028  10.134
48598W        W10261  27.992  30.029  12.415
48599W        W10262  19.648  24.036  14.861
48600W        W10263  33.519  28.125  10.619
48601W        W10264  35.414   9.754  11.964
48602W        W10265   0.757  42.782  12.530
48603W        W10266  23.197   5.788  13.062
48604W        W10267  36.580  13.603  10.639
48605W        W10268  33.494  32.135   1.777
48606W        W10269  17.681  37.842   4.176
48607W        W10270  10.650   2.432   4.286
48608W        W10271   7.892  10.801  12.084
48609W        W10272  40.819  31.553  14.325
48610W        W10273  35.046  16.641  11.501
48611W        W10274   4.283  25.603   2.678
48612W        W10275  20.235  42.487   0.858
48613W        W10276  37.986  32.434   1.780
48614W        W10277  20.606  19.145   4.688
48615W        W10278  18.274  26.028  13.308
48616W        W10279  33.467  41.016   3.247
48617W        W10280  44.866  13.271   3.840
48618W        W10281  19.747  32.896   4.266
48619W        W10282  29.438   9.348  10.447
48620W        W10283  14.152  43.272   3.370
48621W        W10284  18.670  13.209   3.847
48622W        W10285  34.998  20.097  11.569
48623W        W10286   6.240  12.852   1.409
48624W        W10287  13.654   8.774   0.813
48625W        W10288  40.376  23.543  10.436
48626W        W10289  10.357  18.192  10.065
48627W        W10290  24.221  10.332   1.235
48628W        W10291   6.409  23.506  14.515
48629W        W10292   7.273  15.686   0.483
48630W        W10293  29.578  31.067  11.095
48631W        W10294  44.986  23.042  14.821
48632W        W10295  24.185  41.454   5.136
48633W        W10296  25.038  43.452   1.366
48634W        W10297  42.402  37.959   1.840
48635W        W10298  40.523  36.078   1.706
48636W        W10299  30.606  20.690   9.641
48637W        W10300   8.669  30.434  12.467
48638W        W10301  27.469  35.470  13.508
48639W        W10302  27.089  19.211   0.357
48640W        W10303  12.802   6.837  11.919
48641W        W10304  14.175  10.649  13.802
48642W        W10305  10.285  24.643  12.390
48643W        W10306  39.051  26.593  10.904
48644W        W10307  41.937  27.954   5.260
48645W        W10308  21.231   6.189   3.695
48646W        W10309   8.745   3.849  14.343
48647W        W10310  27.983   8.197   1.908
48648W        W10311   5.264   8.768   3.655
48649W        W10312  44.791  35.022   4.690
48650W        W10313  34.466  32.032  12.824
48651W        W10314  10.140  36.520  11.469
48652W        W10315   5.221  32.942  14.512
48653W        W10316  20.219  26.570   5.134
48654W        W10317   2.833  25.503  13.491
48655W        W10318  17.114   3.948  12.402
48656W        W10319  32.963  33.537  11.088
48657W        W10320  13.818   9.812  12.341
48658W        W10321  29.992  12.267   3.789
48659W        W10322  12.127  29.132  12.032
48660W        W10323  20.253   8.839  13.030
48661W        W10324  44.836  42.882  12.947
48662W        W10325  41.872  11.134   2.281
48663W        W10326  20.538   5.203   3.338
48664W        W10327  19.542  32.590  11.553
48665W        W10328  27.532  43.798  14.988
48666W        W10329  23.538  23.186   4.329
48667W        W10330  32.095  11.622   0.872
48668W        W10331  27.679  34.094  10.584
48669W        W10332  30.083  33.966   3.775
48670W        W10333  25.574  36.569  12.358
48671W        W10334  23.638  25.594   2.682
48672W        W10335  27.559   1.822   1.415
48673W        W10336  25.552  28.152   9.948
48674W        W10337   6.358  16.586   4.284
48675W        W10338   7.798  29.920   4.275
48676W        W10339  25.075  21.058   2.332
48677W        W10340   1.427  34.073  10.436
48678W        W10341   0.425  38.884   4.194
48679W        W10342   1.243  37.473  12.456
48680W        W10343  11.252   4.763  12.341
48681W        W10344  17.783  44.452   1.760
48682W        W10345  18.704  42.905  11.051
48683W        W10346  22.617  39.478   1.742
48684W        W10347  21.572  42.964   1.241
48685W        W10348  27.014  23.506  12.568
48686W        W10349   8.742  41.864  14.503
48687W        W10350  23.580   9.847  13.849
48688W        W10351  37.038   5.314  10.605
48689W        W10352   1.805  32.099  14.010
48690W        W10353  25.680  33.583  14.942
48691W        W10354  13.664  39.529  13.397
48692W        W10355  17.697  18.218   1.264
48693W        W10356   6.879   0.825  11.470
48694W        W10357  24.148  44.940   2.369
48695W        W10358  16.080  33.541   4.805
48696W        W10359   0.972  37.935   1.302
48697W        W10360  19.069  27.687   4.193
48698W        W10361  40.883  41.847  11.934
48699W        W10362  21.220  16.112  11.034
48700W        W10363  26.115  38.370  10.125
48701W        W10364  14.214   1.884  11.462
48702W        W10365  18.782  24.110   5.267
48703W        W10366   6.280  17.155   2.181
48704W        W10367  19.256  20.171   3.847
48705W        W10368  32.579  27.552  10.521
48706W        W10369   3.265  26.622  12.565
48707W        W10370  40.915  18.602   1.413
48708W        W10371  26.084  17.167   3.174
48709W        W10372  13.692  10.712   2.772
48710W        W10373  23.014  28.548  13.806
48711W        W10374  27.628  17.281   1.841
48712W        W10375  36.415   7.766  10.543
48713W        W10376  43.017   0.457  12.855
48714W        W10377   3.276  32.596   0.435
48715W        W10378  35.895  15.773  12.875
48716W        W10379  31.588  25.574   4.825
48717W        W10380  25.658  44.927  14.422
48718W        W10381  26.158  39.406   4.791
48719W        W10382  33.038  42.966  12.528
48720W        W10383  23.736   4.270  14.405
48721W        W10384  44.898  41.391  11.566
48722W        W10385  23.577  30.119   2.330
48723W        W10386   0.296  43.371   3.710
48724W        W10387   3.836  15.685  10.037
48725W        W10388  35.107  39.065  13.378
48726W        W10389  42.326  34.924   0.903
48727W        W10390  31.973  17.142  10.522
48728W        W10391  23.604  17.780   4.725
48729W        W10392  28.579  35.887   4.761
48730W        W10393   9.726  35.516   0.774
48731W        W10394   1.378  33.112  12.912
48732W        W10395  14.709   4.436   4.626
48733W        W10396   6.765  32.528   2.715
48734W        W10397   5.838   9.328  13.035
48735W        W10398  26.034  22.721  14.289
48736W        W10399  26.104   6.187   3.634
48737W        W10400  25.005  36.455  12.421
48738W        W10401  30.582  43.270  12.036
48739W        W10402  43.948  40.851  12.980
48740W        W10403  34.439   1.327   4.225
48741W        W10404  14.184  29.094   4.654
48742W        W10405  20.627   6.723   1.310
48743W        W10406  32.922  33.117   1.788
48744W        W10407  30.491  25.652  10.971
48745W        W10408  35.079   2.371  10.409
48746W        W10409   7.249  40.493   1.719
48747W        W10410  16.595  29.517  14.998
48748W        W10411  23.215  40.463  13.466
48749W        W10412  11.150  20.544  14.763
48750W        W10413  39.477  19.567   0.782
48751W        W10414  13.169   5.345  13.882
48752W        W10415  32.125  10.318   1.251
48753W        W10416  20.718  21.723  14.429
48754W        W10417  37.003  20.192   4.188
48755W        W10418  43.487   3.382   0.861
48756W        W10419  30.436   3.755  11.537
48757W        W10420  21.214  32.948   4.254
48758W        W10421  11.259  23.513   4.305
48759W        W10422  25.970  34.534   3.163
48760W        W10423  28.675  43.013   4.833
48761W        W10424   3.742  40.035   2.415
48762W        W10425  16.601   1.883  10.907
48763W        W10426  23.231  12.140   2.883
48764W        W10427  16.679   7.903   2.349
48765W        W10428  35.058  18.295  11.598
48766W        W10429  32.903  27.129   2.185
48767W        W10430   3.390  41.985  11.073
48768W        W10431   7.828  25.120  13.477
48769W        W10432   2.737  12.673   3.677
48770W        W10433   6.423  43.842   1.755
48771W        W10434   1.242  43.885   2.790
48772W        W10435  40.877  15.653  13.986
48773W        W10436  27.671  29.107   0.242
48774W        W10437  28.478  41.366  11.917
48775W        W10438  34.940  14.307  13.310
48776W        W10439  39.548  19.591  13.533
48777W        W10440  12.203  29.656   1.288
48778W        W10441   6.333   0.947   0.446
48779W        W10442  44.301  44.793   1.801
48780W        W10443  29.033  23.622  14.388
48781W        W10444  40.971  42.344  14.927
48782W        W10445  14.329   4.737   3.704
48783W        W10446  16.237   6.893  10.975
48784W        W10447   2.833  27.462   2.227
48785W        W10448   0.252  41.018  14.415
48786W        W10449  10.237  21.656  14.968
48787W        W10450  21.665  27.028  14.458
48788W        W10451  43.777  11.215  12.426
48789W        W10452   0.747  32.568   4.780
48790W        W10453   4.914  21.226   3.233
48791W        W10454  35.541   4.230   0.857
48792W        W10455  22.207  16.744  14.321
48793W        W10456  36.456  21.616   2.264
48794W        W10457  23.657  40.543  14.776
48795W        W10458  22.083   5.775  14.811
48796W        W10459   4.725  10.688  13.539
48797W        W10460  20.745  35.431  11.875
48798W        W10461  34.045  43.347   1.737
48799W        W10462  34.558  43.489  13.830
48800W        W10463  19.535   5.239  13.863
48801W        W10464  44.820  23.651   4.225
48802W        W10465  25.499  10.309  12.061
48803W        W10466  14.711  19.719  14.791
48804W        W10467  12.200  17.722  11.070
48805W        W10468  20.195  30.986   2.376
48806W        W10469   8.876  43.874  13.794
48807W        W10470  35.024  43.295  13.990
48808W        W10471  12.328   9.779  14.951
48809W        W10472   2.246  31.909   2.870
48810W        W10473  20.121  34.374   4.616
48811W        W10474   9.646   5.407  13.473
48812W        W10475  40.816  15.118  12.880
48813W        W10476  29.582  25.653  14.442
48814W        W10477   9.337  37.856  14.781
48815W        W10478   3.838  14.791  10.504
48816W        W10479  38.861  16.603   3.652
48817W        W10480   7.760  38.047  12.396
48818W        W10481  14.676  35.918   9.644
48819W        W10482  12.315  14.624  10.951
48820W        W10483  35.056  39.335   2.217
48821W        W10484  22.596  24.625  13.428
48822W        W10485  12.320  32.902   4.191
48823W        W10486  20.122  10.282   2.672
48824W        W10487  21.187  36.055  12.471
48825W        W10488  41.810   1.461  10.551
48826W        W10489  43.411  22.639  12.386
48827W        W10490   4.821  33.049  13.317
48828W        W10491  14.150  10.783   1.858
48829W        W10492   1.762  41.503  14.858
48830W        W10493  32.991  25.213   4.262
48831W        W10494  10.832  16.253  11.377
48832W        W10495   3.849   5.870  14.301
48833W        W10496  17.229  28.150   3.217
48834W        W10497  44.992  37.497  12.081
48835W        W10498  23.691  21.102   4.625
48836W        W10499   2.459   8.386   1.810
48837W        W10500  30.162  21.596   0.359
48838W        W10501  41.819  16.628   3.676
48839W        W10502  42.393  41.937   1.807
48840W        W10503   0.256  19.128   3.191
48841W        W10504  32.501  27.192   1.261
48842W        W10505  10.875  44.410  12.503
48843W        W10506  35.039  15.703  12.993
48844W        W10507  19.047   0.887  14.469
48845W        W10508  11.283   6.307   3.337
48846W        W10509  19.773   3.881   3.737
48847W        W10510  34.870  43.861   1.935
48848W        W10511  24.713  11.126  12.539
48849W        W10512   9.363  16.687  14.875
48850W        W10513  38.010  34.570  10.547
48851W        W10514  25.157  17.724   2.746
48852W        W10515  31.097  21.561  13.839
48853W        W10516  16.167  26.056   3.810
48854W        W10517  39.872  13.177   4.606
48855W        W10518  13.803  16.224  10.914
48856W        W10519  12.341  14.777   1.352
48857W        W10520  22.636  12.289  12.553
48858W        W10521  38.920  31.130  12.051
48859W        W10522  36.891  15.734  13.424
48860W        W10523   6.713  38.972   0.743
48861W        W10524  19.562  10.316   9.952
48862W        W10525  11.701  37.883   2.236
48863W        W10526  15.092  41.444   4.814
48864W        W10527   6.228  44.400   1.710
48865W        W10528  11.799   4.429  12.050
48866W        W10529  19.574  36.905   0.950
48867W        W10530  22.640  39.856   5.273
48868W        W10531  31.057  14.744  10.605
48869W        W10532  43.942  13.309   3.159
48870W        W10533  17.630  31.583  14.386
48871W        W10534  15.126  44.757  11.372
48872W        W10535  32.494   0.748  13.311
48873W        W10536   8.834  38.957  11.892
48874W        W10537   9.889   1.850  12.061
48875W        W10538  30.621  32.904   1.383
48876W        W10539  27.028   7.399   3.245
48877W        W10540   8.319   8.793  12.079
48878W        W10541  30.080  12.327   4.681
48879W        W10542  38.392  11.846  10.941
48880W        W10543  43.394   2.257  12.379
48881W        W10544   6.801  34.000   2.184
48882W        W10545   4.414   1.912   4.298
48883W        W10546   0.417  34.489   4.152
48884W        W10547  21.517  29.983   3.240
48885W        W10548  28.111  43.819   3.295
48886W        W10549  43.773   4.709   9.934
48887W        W10550  25.964  23.042  14.910
48888W        W10551  25.013   4.763   0.396
48889W        W10552  22.039   4.738   3.235
48890W        W10553  35.420   0.350   0.480
48891W        W10554   6.186  19.189  12.478
48892W        W10555   4.937  14.791   2.200
48893W        W10556  22.168  24.128   2.225
48894W        W10557   2.423  13.679  11.591
48895W        W10558  29.004  25.522  12.028
48896W        W10559   3.853  15.708  14.766
48897W        W10560  24.533  14.208   1.800
48898W        W10561  22.694  24.057   3.661
48899W        W10562  22.230   5.429   2.900
48900W        W10563  17.574  40.891   3.366
48901W        W10564  32.118  31.415  12.567
48902W        W10565  35.384  22.119  14.507
48903W        W10566  28.019  14.114  13.045
48904W        W10567  29.507  37.021   1.352
48905W        W10568  20.660  32.421  10.490
48906W        W10569  11.726   2.772  10.952
48907W        W10570  27.447  20.658   0.940
48908W        W10571   8.293  43.879  12.838
48909W        W10572   3.802   2.453   3.669
48910W        W10573   2.457   4.305   3.852
48911W        W10574  29.030  24.053  13.370
48912W        W10575  14.142  38.362   2.229
48913W        W10576  23.069  26.079  14.947
48914W        W10577  15.753  41.011   3.659
48915W        W10578  43.816  22.588  14.344
48916W        W10579  31.593  23.664   3.381
48917W        W10580  43.977  17.170  12.462
48918W        W10581   1.254  21.647   1.711
48919W        W10582   1.744   1.839   2.685
48920W        W10583   7.400  31.453  10.910
48921W        W10584   3.249  19.217  12.374
48922W        W10585  42.898  14.629   1.902
48923W        W10586  16.240  14.637   2.664
48924W        W10587  15.721  43.900  12.530
48925W        W10588  11.752   1.249  12.938
48926W        W10589  29.573   7.416   3.169
48927W        W10590  34.385  42.404   3.161
48928W        W10591   9.718   6.738   0.421
48929W        W10592  38.064   7.693   9.959
48930W        W10593  15.613  36.982  12.069
48931W        W10594   2.228  31.413  10.442
48932W        W10595   6.381  31.558  12.554
48933W        W10596  32.945  21.061  13.517
48934W        W10597  32.947   0.394   4.300
48935W        W10598  40.049   4.422   3.299
48936W        W10599  40.007  43.490  10.573
48937W        W10600   6.811  15.085   4.300
48938W        W10601  40.410  18.676  10.621
48939W        W10602   5.340  15.296   1.242
48940W        W10603  38.017   6.304   4.354
48941W        W10604  27.515  21.726  10.600
48942W        W10605  41.788  23.195   1.871
48943W        W10606  19.078   1.876   2.300
48944W        W10607   0.383  31.906  11.995
48945W        W10608   4.404  26.502  14.319
48946W        W10609  28.947  39.884   3.854
48947W        W10610  19.117  37.487  11.964
48948W        W10611  28.588  34.505   2.295
48949W        W10612  35.380   0.471   4.619
48950W        W10613  15.770  11.846   5.247
48951W        W10614  17.670  16.078   0.438
48952W        W10615  41.451  44.376   2.215
48953W        W10616  38.880  34.438  10.014
48954W        W10617  41.371  18.218  14.415
48955W        W10618   1.865   7.810   4.820
48956W        W10619   2.299  13.780   1.448
48957W        W10620   5.794  22.176   0.848
48958W        W10621  19.637   8.312   3.245
48959W        W10622  29.020   0.905   4.677
48960W        W10623   4.239   4.771   3.156
48961W        W10624  39.977  13.124  13.878
48962W        W10625  33.021  19.699  12.866
48963W        W10626  38.455  42.386  11.054
48964W        W10627  18.229  14.794   3.158
48965W        W10628  30.911  38.980   2.325
48966W        W10629  11.269  14.800  10.630
48967W        W10630   3.286  33.568   3.815
48968W        W10631  25.659   6.241   1.923
48969W        W10632  42.416  22.526   0.733
48970W        W10633  31.417   3.940  14.766
48971W        W10634  12.616   5.689  12.054
48972W        W10635   9.395  33.530  14.973
48973W        W10636  37.376   7.256   4.705
48974W        W10637   6.789  33.012  12.912
48975W        W10638  33.094  22.162   1.432
48976W        W10639  17.250  10.732  11.082
48977W        W10640  22.205  32.991  12.052
48978W        W10641   3.234  42.939   1.830
48979W        W10642  15.617   2.735   2.381
48980W        W10643  10.246  10.870   4.277
48981W        W10644   0.254  42.930   1.254
48982W        W10645  39.550  25.080   3.802
48983W        W10646  29.921  13.116   3.292
48984W        W10647  11.716  26.641  14.475
48985W        W10648  30.590  12.615  10.521
48986W        W10649  38.570  36.387  12.988
48987W        W10650  18.585  21.248   1.301
48988W        W10651  12.222  39.419   0.896
48989W        W10652  42.489   6.390  14.822
48990W        W10653  29.499  15.303   2.873
48991W        W10654  23.539  43.478   2.317
48992W        W10655  27.988  24.523  13.028
48993W        W10656  44.911  11.148   4.211
48994W        W10657  27.546  10.840  14.480
48995W        W10658   9.197  20.611   1.403
48996W        W10659  30.927   1.303  13.909
48997W        W10660  24.035  38.878   1.364
48998W        W10661   6.283  17.122  13.905
48999W        W10662  26.110   7.219  11.883
49000W        W10663  38.069   2.926   2.796
49001W        W10664  26.522  25.090   1.763
49002W        W10665  11.319  19.674   3.337
49003W        W10666  26.467  30.543   0.960
49004W        W10667  24.714  18.058  13.939
49005W        W10668   5.767   7.851   0.923
49006W        W10669  34.093  17.641  14.485
49007W        W10670  44.831   4.935   3.377
49008W        W10671  11.669  34.489   0.777
49009W        W10672  29.944  30.130   4.280
49010W        W10673  39.457   6.847   3.216
49011W        W10674   7.205   8.718  13.342
49012W        W10675  42.794  17.583  13.949
49013W        W10676  41.832  34.539   2.730
49014W        W10677   4.854   6.883  14.279
49015W        W10678  19.557  33.093   0.954
49016W        W10679  43.372  39.496  13.331
49017W        W10680   1.415   1.358  13.943
49018W        W10681  17.700  18.706  14.882
49019W        W10682   2.446  19.226   0.900
49020W        W10683  14.317  10.673   3.637
49021W        W10684  17.225   4.729  10.464
49022W        W10685  44.454  12.829   3.360
49023W        W10686  29.587   3.413   4.830
49024W        W10687  34.067   7.322  12.362
49025W        W10688  40.398   3.888   3.267
49026W        W10689  30.076  42.923  10.042
49027W        W10690  38.951  17.280   3.775
49028W        W10691  25.675  18.616  10.998
49029W        W10692  37.898  19.665  13.379
49030W        W10693   3.862   7.900  10.986
49031W        W10694  11.181  17.735  10.405
49032W        W10695  17.753  35.997   3.262
49033W        W10696   7.319  39.012  10.940
49034W        W10697  30.575  35.063  11.112
49035W        W10698  20.738   0.845   3.708
49036W        W10699  42.524  36.431   1.384
49037W        W10700  14.128   2.244  14.301
49038W        W10701   1.432  24.584  14.498
49039W        W10702  28.642   0.321  14.020
49040W        W10703  19.679   5.876   4.768
49041W        W10704  31.613  14.123   1.933
49042W        W10705  28.159  10.299   3.163
49043W        W10706  26.595   6.205  10.614
49044W        W10707  14.786  20.541  14.954
49045W        W10708  19.714   5.212  14.363
49046W        W10709  41.456  23.034  13.000
49047W        W10710  32.615  16.704  13.004
49048W        W10711  20.129   9.715  13.398
49049W        W10712  13.127   5.342  11.108
49050W        W10713   5.318  42.494   0.727
49051W        W10714  10.751  43.469  11.945
49052W        W10715  24.039   1.860   0.263
49053W        W10716  37.357  32.452   1.408
49054W        W10717  24.978  26.679   2.413
49055W        W10718  22.642  12.848   3.303
49056W        W10719  38.550  11.796   2.257
49057W        W10720  43.478  25.970  12.550
49058W        W10721  15.709   9.706  12.008
49059W        W10722  34.463  39.929  11.593
49060W        W10723  44.785  38.032  12.472
49061W        W10724   0.454  31.518  13.309
49062W        W10725  17.689  40.911   2.872
49063W        W10726   3.818  15.665  14.015
49064W        W10727   8.685   8.309   1.239
49065W        W10728  25.707  27.130   3.149
49066W        W10729   4.265  33.495   3.195
49067W        W10730  38.830  32.949   3.299
49068W        W10731  28.555   3.259  10.521
49069W        W10732  15.629   5.836  14.794
49070W        W10733  17.700  13.656   3.212
49071W        W10734  12.821   6.212   4.150
49072W        W10735  43.455  30.096   4.608
49073W        W10736  10.275  43.495   1.802
49074W        W10737  13.676   2.761  14.440
49075W        W10738  10.379  42.780   3.857
49076W        W10739  23.167  20.723   0.732
49077W        W10740  18.585  30.133  13.041
49078W        W10741  21.732   6.810   2.284
49079W        W10742  17.300  37.991   9.622
49080W        W10743  29.943  12.265  10.413
49081W        W10744   8.676  15.807   2.696
49082W        W10745  23.634  18.572  13.054
49083W        W10746  26.632  15.700   0.947
49084W        W10747  35.578  16.161   1.768
49085W        W10748  12.645  27.093  12.561
49086W        W10749  33.507  34.486  14.316
49087W        W10750  22.616   6.333   3.731
49088W        W10751  36.031  20.523  11.948
49089W        W10752  20.142  40.852  11.005
49090W        W10753  29.551  22.577   1.412
49091W        W10754  15.132  23.000  13.395
49092W        W10755  20.201  40.838  14.798
49093W        W10756  12.235  37.023  14.277
49094W        W10757  39.820   5.695  11.600
49095W        W10758  32.587   8.394   1.761
49096W        W10759  14.745  40.864  14.990
49097W        W10760  11.228  42.847   0.365
49098W        W10761  34.017  14.793  14.314
49099W        W10762  44.451  33.125   4.276
49100W        W10763  23.095  34.607   4.791
49101W        W10764  35.860  12.274  10.510
49102W        W10765  10.826  14.171  14.859
49103W        W10766  41.307  29.956  11.991
49104W        W10767  39.937  33.509  13.009
49105W        W10768  44.897  22.151   2.263
49106W        W10769  35.889  44.275  10.519
49107W        W10770  13.672   7.191  10.139
49108W        W10771  14.158  10.854   3.183
49109W        W10772  26.999   1.431   0.853
49110W        W10773  36.509  12.790  14.339
49111W        W10774  42.327  43.008   2.835
49112W        W10775   0.436  36.540   4.829
49113W        W10776  26.048  10.653   2.317
49114W        W10777   3.837   1.825  12.077
49115W        W10778  12.231  18.092  14.336
49116W        W10779  15.640  22.183  13.895
49117W        W10780  41.827   1.363   3.850
49118W        W10781  26.104  27.039   3.206
49119W        W10782  19.737  43.864  11.954
49120W        W10783   5.833   0.969  10.910
49121W        W10784  10.182   2.797   3.380
49122W        W10785   6.402  44.919   1.281
49123W        W10786  10.150  11.757   4.252
49124W        W10787  23.578  26.480  14.401
49125W        W10788  39.036  15.199  12.825
49126W        W10789  30.987   6.338   0.393
49127W        W10790  16.755  36.861   2.691
49128W        W10791   4.298  26.620   0.780
49129W        W10792   6.681  36.912  11.471
49130W        W10793  17.124   2.832  13.545
49131W        W10794  23.669   5.417  14.439
49132W        W10795  14.762  27.655   2.268
49133W        W10796  13.697  19.558  11.545
49134W        W10797  35.560  22.037   3.740
49135W        W10798   2.354  27.956   0.949
49136W        W10799  15.148   2.289  14.329
49137W        W10800  43.386  20.710   2.394
49138W        W10801  26.461  43.460   4.120
49139W        W10802  16.310   2.794  11.920
49140W        W10803  43.465  12.844   0.352
49141W        W10804   2.400   5.911   4.193
49142W        W10805  27.663  44.811  12.502
49143W        W10806  23.091  18.782  13.802
49144W        W10807  21.089  26.601   3.669
49145W        W10808  33.604  12.808   0.293
49146W        W10809  18.569  10.724   0.325
49147W        W10810  27.620  22.594  14.929
49148W        W10811  38.959  32.030   3.634
49149W        W10812  38.565  44.774   1.431
49150W        W10813  22.527  44.948   4.265
49151W        W10814   4.725  36.591  12.025
49152W        W10815  22.150  19.549  10.983
49153W        W10816  39.334  27.003  11.902
49154W        W10817  26.457  15.597   3.660
49155W        W10818   3.835  17.772  10.625
49156W        W10819  35.096  19.612   1.404
49157W        W10820  31.992  13.250   0.893
49158W        W10821  14.332  10.174   4.254
49159W        W10822  33.593  38.932   1.212
49160W        W10823  14.282   8.700   1.928
49161W        W10824  36.005  37.487   2.306
49162W        W10825  25.183  25.672  14.775
49163W        W10826  21.081   0.964   1.299
49164W        W10827  21.713  19.260   2.736
49165W        W10828  16.776  14.600   2.844
49166W        W10829  43.411   9.234  12.580
49167W        W10830  10.875  29.983  13.428
49168W        W10831  35.541  41.040  14.466
49169W        W10832  36.505  13.290  14.763
49170W        W10833  26.993   5.212   0.476
49171W        W10834  35.033  21.217   2.859
49172W        W10835  44.801  32.474  11.467
49173W        W10836  12.670   9.879  13.536
49174W        W10837   1.447  27.993  11.892
49175W        W10838  17.079  38.570  11.443
49176W        W10839  10.840   7.287   4.756
49177W        W10840  34.959   8.207  14.358
49178W        W10841  31.462   7.867  11.535
49179W        W10842  44.961  30.951   3.796
49180W        W10843   1.392  23.681   4.725
49181W        W10844  12.709  26.693   3.194
49182W        W10845  14.190  38.922  11.079
49183W        W10846  43.919  31.412   2.816
49184W        W10847  14.195  41.936  13.008
49185W        W10848  20.623  36.411   1.274
49186W        W10849  33.911  38.838  12.354
49187W        W10850  44.997  31.146  11.572
49188W        W10851   1.830   8.737  11.442
49189W        W10852   5.198  20.142  10.627
49190W        W10853   2.370  20.676   1.889
49191W        W10854   2.867  22.589  10.597
49192W        W10855   8.295  41.797   4.697
49193W        W10856  26.132  42.488   3.797
49194W        W10857  28.954  22.563  11.495
49195W        W10858  21.162   2.746  14.299
49196W        W10859  11.173   2.241   2.767
49197W        W10860  33.930  37.502   3.653
49198W        W10861  11.695  43.489   3.716
49199W        W10862   5.381  14.240  11.532
49200W        W10863   6.343  10.332   4.813
49201W        W10864   8.303  31.563   3.646
49202W        W10865   0.758   8.887   3.821
49203W        W10866  14.828   0.855   0.249
49204W        W10867  23.989  42.426   1.394
49205W        W10868  43.292  34.581   4.213
49206W        W10869   1.814  20.612  12.441
49207W        W10870  13.722  35.004   3.341
49208W        W10871  26.002  13.618  14.882
49209W        W10872   3.273   4.793  12.418
49210W        W10873  26.672  22.091   3.648
49211W        W10874  42.374  14.280   4.246
49212W        W10875   2.784  37.380  11.543
49213W        W10876  44.957  35.064   1.234
49214W        W10877  21.134  40.373   4.239
49215W        W10878  21.738   4.831  14.345
49216W        W10879  44.263   5.415  11.885
49217W        W10880  37.480  38.995   1.263
49218W        W10881  10.776  10.283   0.467
49219W        W10882  37.083  14.267  13.309
49220W        W10883  11.274   9.232  11.103
49221W        W10884   2.256  38.065  13.904
49222W        W10885  16.142  25.473   1.822
49223W        W10886   0.750  12.726  12.525
49224W        W10887  32.513  35.600   1.907
49225W        W10888  38.952  17.577   4.624
49226W        W10889  17.604  38.966   2.327
49227W        W10890  44.328   6.421  12.344
49228W        W10891  24.649  42.955   3.264
49229W        W10892  30.965  25.613  12.995
49230W        W10893  10.343  27.684  12.549
49231W        W10894  20.566   2.966  14.005
49232W        W10895  14.811  39.841  12.090
49233W        W10896  40.846  21.226  12.989
49234W        W10897   1.788  18.592  11.924
49235W        W10898   3.737  33.901  11.510
49236W        W10899   1.792   3.427   4.742
49237W        W10900  35.441   3.806  11.001
49238W        W10901  39.035   9.838  13.065
49239W        W10902  29.125   7.802   2.201
49240W        W10903   5.868  37.925  14.303
49241W        W10904  41.927   0.916  13.958
49242W        W10905   9.214  23.657   5.224
49243W        W10906  39.407  21.513  14.978
49244W        W10907   3.774  35.937   4.335
49245W        W10908  36.876  27.990   0.368
49246W        W10909  11.820   8.264  13.484
49247W        W10910  31.919  14.790  14.983
49248W        W10911  34.003   2.860  11.392
49249W        W10912  17.300  14.708  14.791
49250W        W10913   6.394  10.834   9.919
49251W        W10914  23.989  14.803   0.753
49252W        W10915  32.112   9.273   2.889
49253W        W10916  17.650  32.570   1.705
49254W        W10917  16.166   9.376  11.525
49255W        W10918   3.749   9.655   0.242
49256W        W10919  31.406  32.456  12.873
49257W        W10920  28.161  44.783   3.752
49258W        W10921   6.798   8.235  13.426
49259W        W10922  21.074  31.937   5.107
49260W        W10923  16.808  27.549   4.245
49261W        W10924  41.296  15.612   2.416
49262W        W10925   0.920  19.168  12.030
49263W        W10926   7.881  17.152  10.464
49264W        W10927  10.360   3.790   2.828
49265W        W10928   9.295   0.479  12.940
49266W        W10929  11.338   8.707   1.257
49267W        W10930  33.071  31.039  12.972
49268W        W10931  33.889  26.472   4.327
49269W        W10932   9.657   0.861  13.833
49270W        W10933  11.854  29.540   4.349
49271W        W10934  16.672  31.524  11.976
49272W        W10935  43.016   5.867  12.932
49273W        W10936  27.480  38.874  13.013
49274W        W10937   1.773  10.274   1.855
49275W        W10938  19.165  25.999  13.882
49276W        W10939  42.503  33.477   0.836
49277W        W10940  32.985  29.935  12.342
49278W        W10941  31.943  23.542   4.761
49279W        W10942  42.929  21.176   4.276
49280W        W10943  30.494   8.297  11.070
49281W        W10944   7.715  27.165  12.941
49282W        W10945  37.538   1.861   0.944
49283W        W10946   3.755  34.105  13.914
49284W        W10947  30.615   4.710  12.982
49285W        W10948  23.109  42.022   2.757
49286W        W10949  16.079   0.793   4.138
49287W        W10950   5.856  23.005  14.987
49288W        W10951  18.651   3.293  14.412
49289W        W10952  16.145  33.572  13.403
49290W        W10953  24.509   1.802   5.111
49291W        W10954  36.539  34.592  13.336
49292W        W10955  39.527   9.662   4.310
49293W        W10956  28.050  20.173   4.283
49294W        W10957  39.911  29.449  11.067
49295W        W10958  44.342   1.790  12.375
49296W        W10959   3.756  10.789   0.262
49297W        W10960  25.649  16.596   4.766
49298W        W10961  23.591  33.065   3.753
49299W        W10962   9.388  25.978  13.925
49300W        W10963   1.398  40.998   0.756
49301W        W10964  32.028  30.031  10.535
49302W        W10965   1.769  22.619   0.961
49303W        W10966  35.500  30.466   4.631
49304W        W10967  32.599  16.605   1.445
49305W        W10968  22.737  32.013  13.518
49306W        W10969  41.966   8.340   0.953
49307W        W10970   8.248  10.215  12.064
49308W        W10971  44.325  24.642   0.761
49309W        W10972  40.031  33.111  13.420
49310W        W10973  22.525   6.836  12.360
49311W        W10974  40.900  28.076   0.866
49312W        W10975   5.881  22.534  13.948
49313W        W10976  10.364  16.072  14.487
49314W        W10977  19.612  35.894   1.780
49315W        W10978  32.072  20.120   1.415
49316W        W10979  11.295  33.505   0.783
49317W        W10980  44.884   9.816   4.248
49318W        W10981  37.946  26.578  14.786
49319W        W10982   0.792  36.530  13.960
49320W        W10983   5.847  35.480  12.403
49321W        W10984   5.389  36.369   2.805
49322W        W10985   0.357  12.158   1.290
49323W        W10986  35.438  26.651  11.550
49324W        W10987  42.839  12.634  10.947
49325W        W10988  44.465   0.789   2.193
49326W        W10989  26.475  28.985  11.948
49327W        W10990   7.762  27.538  11.385
49328W        W10991   9.794  33.606  12.347
49329W        W10992   4.301  34.439  12.941
49330W        W10993  29.540  38.839  14.907
49331W        W10994  25.161  16.085   1.276
49332W        W10995  38.917  12.843   4.320
49333W        W10996  11.206  26.187   1.359
49334W        W10997  10.337  33.515  12.075
49335W        W10998  15.205  11.624   2.263
49336W        W10999   5.896   4.807  14.349
49337W        W11000  28.048  35.513  14.367
49338W        W11001   5.911  33.082   0.876
49339W        W11002  34.928  28.552  13.447
49340W        W11003   2.806  30.622  11.557
49341W        W11004  31.914  40.466   2.325
49342W        W11005  10.243  36.517   3.869
49343W        W11006  21.178  14.801  13.794
49344W        W11007  36.948  18.234   2.697
49345W        W11008  23.556  11.241   2.378
49346W        W11009  20.668  17.733  13.500
49347W        W11010   8.699  44.354  11.044
49348W        W11011  35.066   9.890   2.195
49349W        W11012  30.605  44.977   4.725
49350W        W11013  38.960  14.817  12.462
49351W        W11014  18.713  24.002   3.784
49352W        W11015   2.427   9.346   3.198
49353W        W11016   7.707  28.176  13.401
49354W        W11017  31.401   6.700   1.777
49355W        W11018   6.890  16.599  14.792
49356W        W11019  18.657  11.745   1.704
49357W        W11020  23.066  10.821   4.174
49358W        W11021  17.622  41.862  13.802
49359W        W11022  16.317  41.292  11.599
49360W        W11023  13.217   5.258  14.955
49361W        W11024  11.766  25.987  12.911
49362W        W11025  35.062  16.243   4.684
49363W        W11026  25.104   8.801  13.816
49364W        W11027  36.356  39.999   4.177
49365W        W11028   4.897   2.317   4.171
49366W        W11029  40.381  32.027   0.822
49367W        W11030  29.648  14.100  14.507
49368W        W11031   7.218  10.656   4.207
49369W        W11032  38.881  11.231  14.932
49370W        W11033  39.506  37.404   4.736
49371W        W11034  37.868   8.661  12.863
49372W        W11035  26.087  18.589  10.967
49373W        W11036  10.865   6.685  13.400
49374W        W11037  41.798  12.626  13.357
49375W        W11038  12.150   8.303  13.889
49376W        W11039   0.457  10.876   3.296
49377W        W11040   5.774   3.714  12.037
49378W        W11041  28.037  44.452   3.155
49379W        W11042  18.691  10.147  14.867
49380W        W11043  34.872  33.472  13.378
49381W        W11044  44.319  44.468   1.897
49382W        W11045   0.801  35.577   0.929
49383W        W11046  23.681  32.966   1.704
49384W        W11047  36.959  32.479   0.464
49385W        W11048  32.515  19.227   4.148
49386W        W11049  10.661  13.119  11.032
49387W        W11050  44.851  40.970   3.310
49388W        W11051  38.950  18.553  13.859
49389W        W11052  42.948  35.435   4.686
49390W        W11053  22.575   4.850  10.599
49391W        W11054  30.416  31.976  10.940
49392W        W11055  21.614  30.479  11.012
49393W        W11056   0.370  33.001   2.816
49394W        W11057  28.968  44.966  13.013
49395W        W11058   6.848  13.617   0.754
49396W        W11059  11.284  23.545  14.927
49397W        W11060  25.214  24.115   2.806
49398W        W11061  32.053  31.416   4.757
49399W        W11062  40.501  34.975   1.800
49400W        W11063  31.120  20.604   1.853
49401W        W11064  24.217  39.905   1.438
49402W        W11065   5.842  37.030   4.192
49403W        W11066  23.585  37.063  10.584
49404W        W11067  34.600  10.343   3.655
49405W        W11068  19.731  18.621   1.696
49406W        W11069  22.655  22.681   2.714
49407W        W11070   3.820  10.382   3.767
49408W        W11071   8.211   0.824   4.345
49409W        W11072  30.130   4.406   2.762
49410W        W11073   5.791  23.235  13.911
49411W        W11074  30.090  22.014   5.695
49412W        W11075  19.609   8.220   3.691
49413W        W11076  33.566  25.491  10.608
49414W        W11077  38.949  35.416  11.026
49415W        W11078   1.300  41.007   1.806
49416W        W11079  34.378  24.996  13.818
49417W        W11080  13.781  13.234   4.775
49418W        W11081  10.817  33.510  11.114
49419W        W11082  11.823  36.431   9.517
49420W        W11083  41.377   2.851   1.430
49421W        W11084  27.069  21.631  14.982
49422W        W11085  25.081  31.469  14.508
49423W        W11086  11.285  41.378  14.959
49424W        W11087   8.309  32.549  12.547
49425W        W11088  23.647  15.592  10.548
49426W        W11089  23.692  39.882   3.368
49427W        W11090  23.674  43.459   9.992
49428W        W11091  13.106  42.354   1.800
49429W        W11092  13.325  39.854   0.952
49430W        W11093  33.407  10.156   5.277
49431W        W11094  43.398  21.686   0.780
49432W        W11095  12.829  38.465   3.159
49433W        W11096  23.132  15.668  13.047
49434W        W11097  39.358  34.876   2.371
49435W        W11098  18.056   5.215   4.116
49436W        W11099  37.429   7.329  14.979
49437W        W11100  17.093   8.380   2.290
49438W        W11101   5.325   4.297  12.380
49439W        W11102  17.119  41.837   0.806
49440W        W11103  26.634  12.643  12.980
49441W        W11104  20.694  38.874  11.485
49442W        W11105   5.801  30.159   0.857
49443W        W11106  10.688   0.846   2.757
49444W        W11107  31.470  42.338  11.457
49445W        W11108   8.663  25.562  10.977
49446W        W11109  37.405   2.782   0.433
49447W        W11110  28.112   0.778  13.965
49448W        W11111  40.308   3.416   3.811
49449W        W11112  21.065   9.261  13.054
49450W        W11113  19.221  23.512  13.322
49451W        W11114  43.374   0.255   4.701
49452W        W11115  30.985  36.944  10.562
49453W        W11116   1.443  35.056   1.333
49454W        W11117  28.460   9.198   4.632
49455W        W11118   8.731  25.628   0.812
49456W        W11119  33.468  41.504  14.905
49457W        W11120  10.633  31.417   1.236
49458W        W11121  32.049   8.399   0.418
49459W        W11122  15.318  28.643  13.054
49460W        W11123  11.662  36.405   1.730
49461W        W11124   3.365   9.150   3.655
49462W        W11125  36.557  19.549  12.918
49463W        W11126   7.911  22.569   1.398
49464W        W11127  41.385  35.385   0.421
49465W        W11128  40.342   6.248  13.846
49466W        W11129  40.913   5.272   1.834
49467W        W11130   4.753  12.691  12.341
49468W        W11131   4.241  13.622   0.436
49469W        W11132   7.371   1.427  14.469
49470W        W11133  12.315  16.283  13.819
49471W        W11134  38.938  42.312  14.974
49472W        W11135  26.188   9.298   2.406
49473W        W11136  37.555   2.332   2.807
49474W        W11137  24.533  27.630   9.645
49475W        W11138  27.649  16.316  10.440
49476W        W11139  15.229   4.866  11.993
49477W        W11140  13.183   0.338   3.370
49478W        W11141   8.164  11.194  12.883
49479W        W11142  16.194  35.859  11.460
49480W        W11143   9.692  18.551   1.761
49481W        W11144  38.007  18.562  11.441
49482W        W11145  32.526  32.064  12.517
49483W        W11146  16.228  30.048   0.752
49484W        W11147   6.689   6.676   2.255
49485W        W11148   2.783  19.604   2.238
49486W        W11149  26.556  27.487  12.962
49487W        W11150  26.609  31.079  13.799
49488W        W11151   2.905   3.382  10.411
49489W        W11152  36.081   4.703   3.849
49490W        W11153   3.367   7.839   5.115
49491W        W11154   5.692   9.174  14.359
49492W        W11155  39.551  24.692  10.520
49493W        W11156  37.390   7.310   0.259
49494W        W11157  18.780  38.383  13.851
49495W        W11158  12.653   3.399  11.961
49496W        W11159  20.651  41.388  11.984
49497W        W11160  10.201  30.551  11.033
49498W        W11161  25.519  19.666  10.469
49499W        W11162  36.049  22.192   0.333
49500W        W11163   5.736  13.705  10.937
49501W        W11164  32.000  31.918   3.717
49502W        W11165  26.037   4.940   1.806
49503W        W11166  29.647  31.070  12.046
49504W        W11167  23.673  17.556   4.292
49505W        W11168  44.359   0.971  10.462
49506W        W11169  39.855   9.328   1.709
49507W        W11170  38.491   7.193   4.354
49508W        W11171  38.470  15.127   4.670
49509W        W11172  11.346  34.531   0.854
49510W        W11173  41.827  11.782   4.238
49511W        W11174  33.891  18.076   1.410
49512W        W11175  28.603  41.322  10.125
49513W        W11176  31.594  30.425  12.414
49514W        W11177  42.318  31.494   1.699
49515W        W11178  29.929  37.030   4.317
49516W        W11179  24.544   0.486  11.554
49517W        W11180   8.808  38.458   1.833
49518W        W11181   1.932  24.161  13.467
49519W        W11182   0.250   4.927   1.359
49520W        W11183  29.175  11.651  11.465
49521W        W11184   3.233  38.458  13.444
49522W        W11185  43.375  25.504  13.427
49523W        W11186   2.264  12.350   1.307
49524W        W11187  36.088   2.424  10.603
49525W        W11188  26.066   0.985  10.429
49526W        W11189   8.182  41.947  10.940
49527W        W11190   5.283  21.712  11.453
49528W        W11191  23.146  21.526  10.982
49529W        W11192   4.337  40.972   3.835
49530W        W11193   4.209   3.344  14.856
49531W        W11194  10.842  43.851  11.941
49532W        W11195  20.768  16.670   3.848
49533W        W11196   9.309  30.448  12.023
49534W        W11197  11.182  11.646   4.259
49535W        W11198  33.433  26.675   4.779
49536W        W11199  23.206  42.380  13.972
49537W        W11200  43.317  28.106   2.757
49538W        W11201   0.930   8.225  14.850
49539W        W11202  15.582   0.435  14.442
49540W        W11203  38.474  33.052  14.505
49541W        W11204  41.418  13.734  13.532
49542W        W11205  17.257   4.867  14.773
49543W        W11206  42.790  23.723  10.054
49544W        W11207  12.125  12.759  14.487
49545W        W11208  41.538  17.778   1.399
49546W        W11209   2.897  23.070   1.443
49547W        W11210  39.830  15.676  13.449
49548W        W11211  44.379  29.986   1.392
49549W        W11212   9.201  44.945  12.385
49550W        W11213   9.317   8.171   2.677
49551W        W11214  29.124  20.699   2.896
49552W        W11215  41.492   6.288   0.964
49553W        W11216  40.946  12.838   2.298
49554W        W11217   5.780  27.050   4.707
49555W        W11218  22.642   9.254  13.967
49556W        W11219  26.652  23.145  12.433
49557W        W11220   2.234  43.438   2.217
49558W        W11221  16.158  23.592  12.065
49559W        W11222  20.047  19.193   2.696
49560W        W11223   1.734  41.945   3.369
49561W        W11224  28.978  21.021  13.057
49562W        W11225  44.377  17.783   2.350
49563W        W11226  31.568   7.197  13.363
49564W        W11227   1.743  40.020   0.816
49565W        W11228  39.064  27.089   1.398
49566W        W11229  28.467  34.416  14.838
49567W        W11230  24.689  40.028  13.909
49568W        W11231  13.146   4.757   1.360
49569W        W11232  21.150  27.166  13.017
49570W        W11233  14.776  32.071  10.583
49571W        W11234  28.940  24.193  11.462
49572W        W11235  12.224  18.072  13.005
49573W        W11236  37.935   9.327  10.137
49574W        W11237  30.091  26.140  12.386
49575W        W11238  26.204  31.901   0.419
49576W        W11239  25.148  30.030   0.850
49577W        W11240   0.282   1.379   4.703
49578W        W11241  14.622  21.052   0.457
49579W        W11242  20.726  23.618   3.360
49580W        W11243  24.109  14.807   0.405
49581W        W11244  38.486  21.744  14.466
49582W        W11245  20.689  37.904  12.868
49583W        W11246   3.796  42.012   4.730
49584W        W11247  27.124  39.913  13.389
49585W        W11248   8.215  38.553   2.830
49586W        W11249  33.025  36.492   1.316
49587W        W11250   8.259  41.364  12.985
49588W        W11251  10.657   5.830   0.358
49589W        W11252   3.304   9.849  11.519
49590W        W11253  20.243  32.405  11.536
49591W        W11254  40.934  25.199   2.240
49592W        W11255  16.734  27.973   4.631
49593W        W11256   3.825  41.478  13.860
49594W        W11257  40.517   4.726  14.937
49595W        W11258  38.978  14.789  14.454
49596W        W11259  13.304   9.667  13.996
49597W        W11260  40.856  29.164   0.374
49598W        W11261  37.416  35.458   0.936
49599W        W11262  42.895   4.789   5.316
49600W        W11263  17.697  24.177   1.338
49601W        W11264   5.903  42.290  12.048
49602W        W11265  41.925  43.395   2.743
49603W        W11266  19.095   7.676  12.845
49604W        W11267  29.526  34.405   2.306
49605W        W11268  34.044  13.118   3.302
49606W        W11269  43.907  16.574   5.726
49607W        W11270  13.153   5.351   2.248
49608W        W11271   0.831  30.606   0.826
49609W        W11272  44.478  22.612   3.764
49610W        W11273  39.882  30.045  13.385
49611W        W11274  11.267  27.600  13.832
49612W        W11275  32.477  10.778   3.838
49613W        W11276  43.359   2.342   3.237
49614W        W11277  22.190  23.570   4.624
49615W        W11278  10.240  28.579   0.347
49616W        W11279   8.320   5.299   2.753
49617W        W11280   3.939  25.601  12.867
49618W        W11281  14.328   1.384  12.949
49619W        W11282  13.105  29.123  11.513
49620W        W11283  17.198  26.643  11.096
49621W        W11284  10.780  40.845  14.875
49622W        W11285  28.572  33.015   1.803
49623W        W11286  23.049  42.812   4.248
49624W        W11287  11.815  21.020  10.574
49625W        W11288  32.516   9.691   0.934
49626W        W11289  22.226  36.953  13.479
49627W        W11290  11.186  16.086  12.504
49628W        W11291  25.175   3.312   3.835
49629W        W11292  17.101   6.291   3.782
49630W        W11293  24.179  43.952   4.138
49631W        W11294   4.857  39.852   1.358
49632W        W11295   5.413   3.253  11.950
49633W        W11296  20.653   2.887  10.133
49634W        W11297  43.945  26.023  11.937
49635W        W11298  36.588   5.897   0.875
49636W        W11299  41.304  43.886   3.704
49637W        W11300  35.013  25.212   2.766
49638W        W11301  13.806  40.807   0.304
49639W        W11302   4.938  30.975  14.365
49640W        W11303  30.543  17.249   4.717
49641W        W11304  42.809  24.201  10.591
49642W        W11305  44.767   5.736   4.353
49643W        W11306  13.702  20.194  14.793
49644W        W11307   2.737  27.630   4.804
49645W        W11308  15.759  18.558  14.835
49646W        W11309   2.416  40.881  10.488
49647W        W11310  33.544  21.664  14.795
49648W        W11311  36.036  34.595  14.925
49649W        W11312  21.214  39.514   1.278
49650W        W11313  16.303  36.093   2.360
49651W        W11314   2.308   6.387   2.701
49652W        W11315  19.601  39.434  13.511
49653W        W11316  27.093  20.680  11.484
49654W        W11317  35.553  41.478  10.644
49655W        W11318  12.312   4.711  10.641
49656W        W11319  29.974   9.675   0.741
49657W        W11320  36.935  42.506   3.830
49658W        W11321  44.374  36.435  14.317
49659W        W11322  16.729  22.093  13.854
49660W        W11323  32.935  34.552   1.404
49661W        W11324   2.445   0.943   0.836
49662W        W11325  42.935  28.033  11.585
49663W        W11326  31.024   1.827  14.897
49664W        W11327   1.933   2.793   3.801
49665W        W11328  17.221   6.263  14.003
49666W        W11329  38.500  30.591   0.432
49667W        W11330  38.879  27.194   0.273
49668W        W11331  42.836  27.575  13.442
49669W        W11332   1.942  34.405   4.676
49670W        W11333  20.560   5.696   1.331
49671W        W11334  33.877  31.594  12.918
49672W        W11335  33.571  40.533   4.724
49673W        W11336  31.896  13.613   3.860
49674W        W11337  22.532   0.780  11.545
49675W        W11338  29.081  41.532  11.082
49676W        W11339   6.330  36.861  10.987
49677W        W11340  39.352  35.590   2.756
49678W        W11341  33.958  13.296   4.837
49679W        W11342   5.376  41.497  12.896
49680W        W11343   0.916  40.905   4.806
49681W        W11344  33.477  44.358  12.503
49682W        W11345  25.473  37.845   2.272
49683W        W11346  30.017  18.752  11.968
49684W        W11347   3.324   8.678  11.107
49685W        W11348   7.353  20.720  12.078
49686W        W11349  28.482  36.915  13.426
49687W        W11350  44.483  16.235   5.295
49688W        W11351   1.422  21.707   2.728
49689W        W11352  24.062  44.433   5.180
49690W        W11353  27.010  20.057   4.151
49691W        W11354   2.929   3.815   1.894
49692W        W11355  31.114   9.690  11.545
49693W        W11356  34.876  19.057   2.245
49694W        W11357  30.087   1.812  13.526
49695W        W11358   6.419  39.964  14.326
49696W        W11359  22.075  32.057   1.918
49697W        W11360  39.369   2.726   3.339
49698W        W11361  35.397  10.226   0.326
49699W        W11362  14.592  29.539   4.131
49700W        W11363  13.250  44.000   2.371
49701W        W11364   5.357   1.275   3.815
49702W        W11365  33.062   6.187   0.280
49703W        W11366  31.932  41.535  14.870
49704W        W11367  35.434   3.809  14.470
49705W        W11368   1.871  41.386  13.904
49706W        W11369  14.250   4.879   0.369
49707W        W11370   2.833  33.878   1.700
49708W        W11371  14.243  41.958  11.872
49709W        W11372  10.297   5.307   0.748
49710W        W11373  37.014  14.661   3.842
49711W        W11374  37.359  13.631  13.857
49712W        W11375  14.124  19.219   3.247
49713W        W11376  33.934  43.907   3.302
49714W        W11377  43.431  34.043   0.941
49715W        W11378  30.532  21.676   1.817
49716W        W11379   7.820  36.366   3.639
49717W        W11380  37.985  21.667   1.415
49718W        W11381  40.442   3.911  12.468
49719W        W11382  26.188   2.404  10.067
49720W        W11383  19.634  20.529  12.347
49721W        W11384   1.352   3.453  13.342
49722W        W11385  42.819   9.654   3.778
49723W        W11386   4.839  16.591  12.346
49724W        W11387   3.866  31.949   2.701
49725W        W11388  12.707  33.881   4.294
49726W        W11389  10.170  19.169  10.596
49727W        W11390  36.023  16.681   3.792
49728W        W11391   9.239   8.687  13.889
49729W        W11392  38.882  43.313  12.077
49730W        W11393  10.842  36.500  13.043
49731W        W11394  14.159  12.322  13.491
49732W        W11395  44.431   1.269   0.816
49733W        W11396  43.297  23.101   3.837
49734W        W11397  38.533   2.851   2.357
49735W        W11398  17.226  12.666  11.409
49736W        W11399  32.424  24.188  13.915
49737W        W11400  26.576  28.939   2.232
49738W        W11401  22.514  37.083   1.386
49739W        W11402   5.743  16.604  13.353
49740W        W11403  26.016   2.884  14.461
49741W        W11404  32.479  22.662   3.688
49742W        W11405   6.876  17.617  12.032
49743W        W11406  19.754  35.366   0.769
49744W        W11407   6.194  19.771  10.610
49745W        W11408  33.919  43.875   3.676
49746W        W11409  33.931   0.339   3.696
49747W        W11410  39.560  35.075   1.880
49748W        W11411  37.846  41.462   5.109
49749W        W11412  10.666  42.890   1.870
49750W        W11413   5.844  30.142  13.309
49751W        W11414  24.098  35.024   1.331
49752W        W11415  39.048  32.048   5.091
49753W        W11416   0.403  29.609  11.060
49754W        W11417  17.240  26.955  11.373
49755W        W11418  12.207  40.395  13.844
49756W        W11419  19.060   6.886  14.356
49757W        W11420  31.644  32.511  13.890
49758W        W11421  34.437  25.055   0.406
49759W        W11422  43.319  42.505  12.972
49760W        W11423  33.984  30.911   1.790
49761W        W11424   1.741  16.146  14.986
49762W        W11425   4.701  42.849  12.072
49763W        W11426  37.447  40.822  14.470
49764W        W11427   7.825  40.547   4.658
49765W        W11428  25.665  35.598  12.950
49766W        W11429  15.314   9.166   4.733
49767W        W11430  35.984   9.395  11.390
49768W        W11431   1.825  18.644  11.067
49769W        W11432   7.863  35.995   3.723
49770W        W11433  32.451  41.003  12.427
49771W        W11434   9.331   0.300   3.663
49772W        W11435  22.233  18.698  12.395
49773W        W11436  37.375  18.690  13.872
49774W        W11437  43.014  16.124   2.252
49775W        W11438  29.632  15.797   1.376
49776W        W11439  12.849  23.724  13.811
49777W        W11440  32.472  38.862  13.435
49778W        W11441  42.500  14.684   3.327
49779W        W11442  43.489  25.130  10.955
49780W        W11443  38.032  44.878  14.323
49781W        W11444   1.772   2.424  11.377
49782W        W11445  15.631  11.641   1.918
49783W        W11446   0.838  24.987   0.324
49784W        W11447  34.581  42.297  13.907
49785W        W11448  20.571   3.301  14.410
49786W        W11449  37.028  32.887   3.292
49787W        W11450   9.657  32.598  13.984
49788W        W11451   8.866  38.447   2.671
49789W        W11452   3.918  38.058   0.863
49790W        W11453  36.972  25.200  11.455
49791W        W11454  20.156  10.769  14.366
49792W        W11455  28.607  30.444   1.371
49793W        W11456  29.117   2.421  10.590
49794W        W11457  38.064  37.359   3.695
49795W        W11458  30.042  11.814  14.362
49796W        W11459   5.195  18.168   2.843
49797W        W11460  31.542  14.835   4.781
49798W        W11461  25.082  31.466  11.434
49799W        W11462  16.176  43.340   0.313
49800W        W11463  30.907  31.948   3.705
49801W        W11464  42.436  34.084  11.020
49802W        W11465  27.138  39.473   4.798
49803W        W11466  26.164  24.617  14.283
49804W        W11467  38.402   7.238  11.115
49805W        W11468  21.747  14.823  14.922
49806W        W11469  23.238  16.698  10.590
49807W        W11470  32.075  35.057  11.941
49808W        W11471  14.814  25.145   1.429
49809W        W11472   5.424  37.851   4.350
49810W        W11473   1.856   6.846   2.269
49811W        W11474  33.997   2.394   3.203
49812W        W11475  37.891  41.874  13.422
49813W        W11476  41.025  14.771  13.961
49814W        W11477  44.304  24.507   5.293
49815W        W11478  18.630  30.922   2.782
49816W        W11479  38.509  10.682  12.933
49817W        W11480  15.323  44.876   0.884
49818W        W11481  21.639  28.167   2.808
49819W        W11482  35.109  23.103  11.125
49820W        W11483  31.004  16.178   0.279
49821W        W11484  28.571  12.255  10.993
49822W        W11485  11.772   5.348   4.267
49823W        W11486  44.479  19.541   4.262
49824W        W11487   6.380  24.574   1.306
49825W        W11488   6.753  31.961   2.368
49826W        W11489   0.308  10.797  12.972
49827W        W11490   6.794  19.578  12.418
49828W        W11491  11.716  44.380   0.416
49829W        W11492  32.518  18.110   3.218
49830W        W11493  43.411  42.856   4.798
49831W        W11494  11.243   7.192   4.765
49832W        W11495  11.773   3.709  13.322
49833W        W11496  25.476  36.405   1.882
49834W        W11497  38.913   4.210  12.089
49835W        W11498  21.157  20.265  10.965
49836W        W11499   9.160   6.310  11.991
49837W        W11500  27.999  24.132  10.998
49838W        W11501  44.966   8.347   3.775
49839W        W11502  33.430  16.685   3.223
49840W        W11503  24.001  14.590   2.816
49841W        W11504   2.354  39.953   4.605
49842W        W11505  43.516  18.199   2.380
49843W        W11506  37.532  33.448   4.749
49844W        W11507  40.392  34.014   1.398
49845W        W11508  36.060  41.359   4.255
49846W        W11509  12.842  41.032  14.950
49847W        W11510  36.002  14.631   2.264
49848W        W11511  40.831  39.325  12.497
49849W        W11512  19.249  37.442  13.840
49850W        W11513   3.873  16.675  10.641
49851W        W11514  16.630  38.012  11.898
49852W        W11515  14.187  44.380  11.915
49853W        W11516  26.033  22.232   1.782
49854W        W11517  42.952   1.902   2.857
49855W        W11518  31.004  15.250  10.991
49856W        W11519  27.057   4.885  12.039
49857W        W11520  40.816   0.256  13.415
49858W        W11521   4.392  43.980   3.323
49859W        W11522   3.809  31.916   4.670
49860W        W11523   0.909  28.562  12.486
49861W        W11524  16.163  37.475   0.743
49862W        W11525  22.518  10.152   2.691
49863W        W11526  19.127  31.600  11.116
49864W        W11527  44.371  35.405  12.340
49865W        W11528  24.164  37.025   4.251
49866W        W11529   0.372   2.235  10.585
49867W        W11530  24.082   7.415  12.090
49868W        W11531   9.150   5.887   1.900
49869W        W11532  38.900  24.658  14.969
49870W        W11533  23.610  41.042   4.352
49871W        W11534  22.065  34.463  14.822
49872W        W11535  20.253  11.205  12.367
49873W        W11536  27.462  10.344  14.355
49874W        W11537  17.621   8.880   1.346
49875W        W11538  40.325  12.296  14.920
49876W        W11539  28.475  43.908   1.316
49877W        W11540  15.619   2.434  10.492
49878W        W11541  16.274  43.992  10.571
49879W        W11542  42.789  17.281   3.789
49880W        W11543  32.011  21.050   0.293
49881W        W11544  24.057  42.829  11.409
49882W        W11545   2.965   2.914   2.697
49883W        W11546  28.578  30.986   3.783
49884W        W11547  29.490  31.070   2.258
49885W        W11548   5.840  15.126   3.808
49886W        W11549  42.830  29.941   4.121
49887W        W11550  23.182  43.895   0.431
49888W        W11551   0.914  18.714  14.361
49889W        W11552   0.273   0.321   1.227
49890W        W11553  27.173  38.527  10.922
49891W        W11554  10.354  35.918   1.722
49892W        W11555  30.143   2.791   4.300
49893W        W11556   7.728  24.136  14.883
49894W        W11557   4.705  18.737   3.640
49895W        W11558   0.312   6.384  11.405
49896W        W11559  44.985  21.539   0.804
49897W        W11560   1.777  35.899  11.974
49898W        W11561  44.483  14.644  12.832
49899W        W11562  39.392  38.411   0.903
49900W        W11563   1.899  36.364  10.924
49901W        W11564  11.216  32.957  13.521
49902W        W11565  15.642  25.152  14.319
49903W        W11566  15.286   4.881   0.402
49904W        W11567  43.979  40.335   1.906
49905W        W11568   4.935  19.148  11.427
49906W        W11569  23.049  14.635  11.492
49907W        W11570  25.970  30.645  13.900
49908W        W11571  10.233  44.944  11.010
49909W        W11572  39.495  15.175  14.339
49910W        W11573  29.471  15.715   1.853
49911W        W11574  32.047  32.080  10.967
49912W        W11575  33.502  32.924  13.871
49913W        W11576  23.132  10.663  12.383
49914W        W11577  31.013   9.292  13.493
49915W        W11578  37.958  17.555   4.342
49916W        W11579  32.617   7.359  13.999
49917W        W11580   2.919  25.518   1.425
49918W        W11581   7.863  24.034  11.597
49919W        W11582  44.287  39.419   2.702
49920W        W11583   6.707   8.260   2.874
49921W        W11584  29.604   4.945   4.238
49922W        W11585  36.353   6.882  11.405
49923W        W11586  21.687   4.245   3.651
49924W        W11587  42.014  14.227   2.320
49925W        W11588  27.589  28.997   1.846
49926W        W11589  43.830  23.170   4.214
49927W        W11590  13.709  22.092  10.412
49928W        W11591  43.919  21.259   3.636
49929W        W11592  23.088  35.561   4.740
49930W        W11593   9.351  33.973  12.936
49931W        W11594  26.073  27.194  11.416
49932W        W11595  24.180   2.778   0.900
49933W        W11596  44.457  36.010   3.348
49934W        W11597  29.636  15.250   4.271
49935W        W11598  40.366   7.872  12.938
49936W        W11599   5.821  44.306  11.433
49937W        W11600  13.308   9.218   3.834
49938W        W11601  11.625  27.556   2.887
49939W        W11602  20.690  17.204   1.818
49940W        W11603  18.282  44.778  13.426
49941W        W11604  15.135  29.052   0.470
49942W        W11605  32.537  40.533   2.667
49943W        W11606  43.773  36.360  13.348
49944W        W11607  43.468  39.832   4.259
49945W        W11608  12.300  38.379  13.424
49946W        W11609   4.829  13.284   3.829
49947W        W11610  20.632  39.472  12.007
49948W        W11611  34.498   1.853  14.791
49949W        W11612  21.041  31.452   0.929
49950W        W11613   6.269  10.240   0.423
49951W        W11614  16.675  33.959  11.058
49952W        W11615  20.232  18.164  10.012
49953W        W11616  33.997   3.754   1.262
49954W        W11617  39.480  17.089   3.317
49955W        W11618  18.182  23.172  11.435
49956W        W11619  12.362  30.625  13.399
49957W        W11620  15.790  18.634  11.037
49958W        W11621  32.927  17.061  13.390
49959W        W11622   1.787  15.660  11.863
49960W        W11623   0.452   6.810   4.701
49961W        W11624  12.285  36.031   2.245
49962W        W11625  31.450  30.111   3.824
49963W        W11626  12.117  23.569   0.411
49964W        W11627  18.163   2.932   4.826
49965W        W11628   6.226  31.635  11.089
49966W        W11629  23.987  15.181  14.318
49967W        W11630  24.122   8.819   4.721
49968W        W11631  21.024  39.524  10.586
49969W        W11632  10.150  38.467   1.808
49970W        W11633  39.534  26.202   0.475
49971W        W11634  39.540  36.405   3.203
49972W        W11635   0.782  38.885  10.564
49973W        W11636   6.422  16.794   1.832
49974W        W11637   9.231   0.277  13.311
49975W        W11638  21.228   1.237   0.793
49976W        W11639  25.082  42.400  12.067
49977W        W11640  31.974  13.636  11.540
49978W        W11641  28.667  31.404  12.991
49979W        W11642  23.984  33.115   4.653
49980W        W11643   0.349  24.493   0.821
49981W        W11644  40.379  35.451   4.667
49982W        W11645  30.576  40.053  10.642
49983W        W11646  39.371  20.209  12.866
49984W        W11647  17.578  10.735   1.749
49985W        W11648  35.395  14.698  14.365
49986W        W11649  26.984  21.156   2.411
49987W        W11650  15.123  29.518   3.153
49988W        W11651  44.941  10.256   1.715
49989W        W11652  12.777   5.852   1.729
49990W        W11653  19.160  16.178   2.384
49991W        W11654   5.745  27.181   0.438
49992W        W11655  27.153  24.200  10.996
49993W        W11656  11.130   2.835  11.902
49994W        W11657  30.988  31.574  12.379
49995W        W11658   8.313  10.704  10.545
49996W        W11659  18.659  41.294  12.464
49997W        W11660   7.843  13.341   0.453
49998W        W11661   7.889  17.185   1.237
49999W        W11662  16.083  40.363  13.970
50000W        W11663  12.155  17.096   0.313
50001W        W11664  39.061  29.120  12.486
50002W        W11665  40.402  38.842  10.639
50003W        W11666  35.088  28.017  14.939
50004W        W11667   4.813  44.419   4.153
50005W        W11668  13.221  34.007   2.381
50006W        W11669  43.838  18.775  10.543
50007W        W11670  23.035   0.934   0.304
50008W        W11671  37.432   3.740  11.424
50009W        W11672   6.709  12.822  13.323
50010W        W11673  28.600   4.745   1.230
50011W        W11674  41.396  22.998  14.507
50012W        W11675  43.453   5.417   4.656
50013W        W11676   7.365  16.797  10.920
50014W        W11677  34.883  35.592   2.325
50015W        W11678   5.374  12.258  11.449
50016W        W11679  35.957  27.594   0.272
50017W        W11680  14.188  44.406  10.059
50018W        W11681   6.697  39.518  10.579
50019W        W11682  25.574   8.191   0.264
50020W        W11683  18.705  18.720  14.485
50021W        W11684   2.743  12.325   3.822
50022W        W11685  28.138  27.966  14.857
50023W        W11686  43.803  24.585  11.993
50024W        W11687   2.440  34.979   5.120
50025W        W11688  27.132  13.799   3.193
50026W        W11689   1.279   5.713  12.916
50027W        W11690  27.534   9.653  13.864
50028W        W11691   4.838  32.938  14.928
50029W        W11692  43.473  14.604   1.413
50030W        W11693  10.787  39.429   1.839
50031W        W11694  23.090  34.498   4.277
50032W        W11695  27.135   5.779   4.130
50033W        W11696  14.278  24.525   3.800
50034W        W11697  23.491  24.156  10.036
50035W        W11698  33.013  30.123   4.686
50036W        W11699   0.742   5.357  14.445
50037W        W11700  27.487  40.904   1.397
50038W        W11701  26.993  12.825   3.640
50039W        W11702  34.074  17.580  12.422
50040W        W11703  30.093  11.703   4.737
50041W        W11704   7.734  21.641  12.481
50042W        W11705  17.123   3.229   0.740
50043W        W11706  40.512  42.889  10.004
50044W        W11707  30.987  20.040  10.111
50045W        W11708  24.032  27.581  13.343
50046W        W11709  22.129  26.487  11.464
50047W        W11710  29.443  24.680  10.477
50048W        W11711  35.984  15.289   4.611
50049W        W11712   9.218  19.260  10.591
50050W        W11713   4.814  12.787   4.345
50051W        W11714   9.293  22.142   3.158
50052W        W11715   5.339  38.390  12.561
50053W        W11716  11.276  32.432   4.652
50054W        W11717  29.608  40.994  12.462
50055W        W11718  35.060  29.116  14.442
50056W        W11719  12.211  44.963   1.718
50057W        W11720  39.405  37.918   1.895
50058W        W11721  14.266  23.012   4.835
50059W        W11722  33.940  44.983  11.936
50060W        W11723  19.191  17.571   2.683
50061W        W11724  40.858  11.325  12.049
50062W        W11725   1.255  31.997   0.256
50063W        W11726  21.082  14.163   2.330
50064W        W11727  27.631   3.792   0.939
50065W        W11728  25.572  36.874   3.850
50066W        W11729   4.752   4.323   0.785
50067W        W11730   7.868  21.673  14.025
50068W        W11731  42.347  35.051  14.968
50069W        W11732   5.425  41.800  14.837
50070W        W11733   4.860  13.639   2.191
50071W        W11734   5.795  34.389  13.879
50072W        W11735  14.779  17.070  11.381
50073W        W11736  17.218  22.113  13.542
50074W        W11737  31.056   2.345   3.313
50075W        W11738  30.497  43.991   0.751
50076W        W11739   4.870  33.070   4.198
50077W        W11740  20.688   7.173   1.817
50078W        W11741   2.803   7.699   3.727
50079W        W11742  28.641   6.833  11.609
50080W        W11743  13.208  14.797  13.401
50081W        W11744  25.051  26.090  12.033
50082W        W11745   8.772  18.696  11.516
50083W        W11746  44.829  19.563  12.054
50084W        W11747  30.429   8.708  12.360
50085W        W11748  37.860  32.084   0.272
50086W        W11749   6.737   9.885  13.895
50087W        W11750   8.193  32.467   1.705
50088W        W11751   5.863  17.753   3.162
50089W        W11752  43.395  26.952   4.331
50090W        W11753   2.893  22.130  14.439
50091W        W11754  39.423  40.410  10.935
50092W        W11755   7.303  16.263  11.074
50093W        W11756  10.816  44.344  14.983
50094W        W11757  27.110  29.518   1.789
50095W        W11758  41.966  20.528  11.905
50096W        W11759   1.756  31.571   4.810
50097W        W11760  41.342   4.220   0.367
50098W        W11761  35.977  17.073  11.584
50099W        W11762  35.504  28.584   2.810
50100W        W11763  20.714  10.776  14.490
50101W        W11764  23.027   0.811   0.912
50102W        W11765  34.978  12.823  13.022
50103W        W11766  40.914   2.765   1.716
50104W        W11767  29.063  25.539   4.604
50105W        W11768  39.414  28.479  11.062
50106W        W11769  14.699  26.094  13.848
50107W        W11770   4.405  21.656   2.390
50108W        W11771  22.745  22.632   1.763
50109W        W11772  40.488  41.527   1.310
50110W        W11773  16.689  15.653  14.975
50111W        W11774   4.942   3.368   1.793
50112W        W11775  15.708  15.149   1.856
50113W        W11776  36.355  38.335   4.762
50114W        W11777   7.265   3.948   3.752
50115W        W11778  16.236  21.053   3.790
50116W        W11779  16.584  27.643  14.505
50117W        W11780   8.751  35.007   1.842
50118W        W11781  35.597  21.184   0.483
50119W        W11782  33.562  37.577  12.973
50120W        W11783  35.507  24.200   1.251
50121W        W11784   8.696  14.679   0.301
50122W        W11785  20.118  26.990   4.605
50123W        W11786  28.670   7.246   1.861
50124W        W11787  36.875  31.453  11.407
50125W        W11788   4.749   4.739  12.474
50126W        W11789  13.163   7.368  12.431
50127W        W11790   4.234  37.055   1.286
50128W        W11791  10.784  20.740  13.018
50129W        W11792  44.920  34.954  13.327
50130W        W11793  40.491   4.937  12.067
50131W        W11794  39.361   0.280   2.371
50132W        W11795  28.520  44.320  11.066
50133W        W11796   1.915  39.471  14.827
50134W        W11797  10.670  15.122   3.223
50135W        W11798  10.219   3.929   3.331
50136W        W11799  36.536  30.996  12.473
50137W        W11800  10.254  24.522  13.418
50138W        W11801  33.011   6.760  14.374
50139W        W11802  33.485  35.510  11.401
50140W        W11803  41.033  10.228   3.742
50141W        W11804   8.712  38.461   4.816
50142W        W11805   2.388  43.821   3.382
50143W        W11806  21.072  15.670   5.213
50144W        W11807  11.785  26.184   0.480
50145W        W11808   6.193  27.597   4.811
50146W        W11809  38.002   8.386  12.406
50147W        W11810   8.668  32.130  12.354
50148W        W11811  29.627  30.922   3.841
50149W        W11812  44.439  23.141  12.446
50150W        W11813  24.987  14.321   2.825
50151W        W11814  34.601  16.136   1.414
50152W        W11815  43.296  30.597  13.959
50153W        W11816   1.400   2.418  12.963
50154W        W11817  42.829  24.608   4.259
50155W        W11818  25.705  14.228   0.469
50156W        W11819  14.207  14.278  11.952
50157W        W11820  42.792  33.081  12.339
50158W        W11821  16.126  22.658   0.408
50159W        W11822  38.886  12.287   0.305
50160W        W11823  14.212  22.636   0.481
50161W        W11824  25.673  42.403   0.310
50162W        W11825  34.449   7.304   1.870
50163W        W11826  37.477  10.670  11.005
50164W        W11827   8.295  43.479  13.406
50165W        W11828  24.982   7.883  13.807
50166W        W11829  30.616  33.917   1.235
50167W        W11830  21.601  39.884  11.124
50168W        W11831  24.028   7.682  10.536
50169W        W11832  18.631   4.707   1.415
50170W        W11833  25.100   9.353  13.490
50171W        W11834   2.332  30.123  11.880
50172W        W11835   0.877  24.080  14.278
50173W        W11836   8.716  25.144   0.392
50174W        W11837  42.495  40.934  11.550
50175W        W11838  27.985  27.162   0.463
50176W        W11839  19.162  22.648  10.508
50177W        W11840  11.244  15.824  12.829
50178W        W11841  15.138  32.437  12.343
50179W        W11842  25.691  28.145  13.316
50180W        W11843  22.644  23.559   3.856
50181W        W11844  12.225  31.540   2.380
50182W        W11845  32.597  37.021   3.797
50183W        W11846  25.472  38.484   5.673
50184W        W11847   7.854   6.847  14.331
50185W        W11848  40.496  41.445   0.336
50186W        W11849  22.715  35.449  14.783
50187W        W11850  42.030  42.432  12.071
50188W        W11851  33.062  39.499  12.569
50189W        W11852  28.503   8.376  13.896
50190W        W11853  44.009  11.222   1.283
50191W        W11854  39.335   0.955   1.865
50192W        W11855  39.970  24.087   3.361
50193W        W11856  21.032  13.698   2.402
50194W        W11857  43.013  44.440   2.273
50195W        W11858  21.598  41.835   4.244
50196W        W11859  10.198  25.193  12.387
50197W        W11860   4.374  16.783  14.001
50198W        W11861  39.491  35.090  13.831
50199W        W11862  16.233  13.807  11.919
50200W        W11863  26.046  18.598   2.381
50201W        W11864  33.886  15.204  14.431
50202W        W11865  33.114  27.129  13.478
50203W        W11866  27.667  23.645   3.240
50204W        W11867   6.223  24.129   1.405
50205W        W11868   4.831   1.761  11.542
50206W        W11869  42.393   4.391   4.203
50207W        W11870  10.666   0.911   0.434
50208W        W11871  18.758  13.238   3.259
50209W        W11872  24.603  15.610  10.531
50210W        W11873  17.693  20.137   0.916
50211W        W11874   9.664  18.259   3.377
50212W        W11875   3.952  21.036   3.247
50213W        W11876  30.648  31.536  13.400
50214W        W11877  18.292  37.421  11.580
50215W        W11878  30.133  39.882  13.352
50216W        W11879  20.053  36.470  11.905
50217W        W11880  26.678  44.971   2.672
50218W        W11881   9.749  21.516  10.565
50219W        W11882  18.063  41.907  10.998
50220W        W11883  35.368   3.719   3.861
50221W        W11884  39.344   5.224  11.060
50222W        W11885   8.867  14.694   2.403
50223W        W11886   8.803  41.318  10.422
50224W        W11887   9.236  27.547  13.392
50225W        W11888  19.740  18.557   2.720
50226W        W11889  16.770  11.290   0.808
50227W        W11890  33.004  22.057   4.681
50228W        W11891  37.481   1.812   4.349
50229W        W11892   8.317  40.840  10.899
50230W        W11893  33.005  39.026  10.601
50231W        W11894  35.889  23.577  13.959
50232W        W11895  21.068  27.446   0.814
50233W        W11896   2.339   8.850   3.164
50234W        W11897  37.971   9.715   3.241
50235W        W11898  40.964  24.572   2.290
50236W        W11899  37.967  19.736   0.384
50237W        W11900  40.504  22.556   0.439
50238W        W11901  36.480  38.907   4.257
50239W        W11902  14.777  30.923   3.344
50240W        W11903  23.730  42.348  13.819
50241W        W11904  40.819  33.478   3.831
50242W        W11905  35.917  24.005  14.864
50243W        W11906  43.984   6.863  11.391
50244W        W11907  42.990  38.401   2.670
50245W        W11908  18.710  11.334  14.293
50246W        W11909  29.109  39.415  14.854
50247W        W11910  28.610  26.557   3.298
50248W        W11911   3.937  43.305   1.348
50249W        W11912  12.768  29.521  10.487
50250W        W11913   6.381  10.370  11.095
50251W        W11914   3.946   8.342  13.795
50252W        W11915   9.237   5.856  13.850
50253W        W11916  40.463  29.120  14.848
50254W        W11917   7.359  21.169  13.872
50255W        W11918  40.021  32.983  10.570
50256W        W11919  22.006  29.933   0.888
50257W        W11920  26.021  13.233   4.686
50258W        W11921  11.274  14.179   2.316
50259W        W11922   4.724  21.250   4.338
50260W        W11923  28.076  21.049   1.925
50261W        W11924   7.757  24.086   4.751
50262W        W11925  24.204  17.121   2.761
50263W        W11926   4.849  40.412   0.756
50264W        W11927  33.531  10.292   1.752
50265W        W11928  22.562  29.955  12.539
50266W        W11929  44.432   1.444   3.351
50267W        W11930  31.048  21.096  12.532
50268W        W11931  34.035  25.150  12.033
50269W        W11932   6.267  18.564   0.755
50270W        W11933  28.105  24.049  14.901
50271W        W11934  35.364  30.037   0.830
50272W        W11935  14.327   3.319   2.223
50273W        W11936  25.186   5.308   3.750
50274W        W11937   4.407  25.003   4.287
50275W        W11938  23.580   6.198   9.438
50276W        W11939  40.869  37.449  10.544
50277W        W11940  27.466  40.928   2.677
50278W        W11941  41.969  19.218   4.761
50279W        W11942  22.106   0.800   0.290
50280W        W11943   3.248   5.701  11.876
50281W        W11944  25.130  13.628   3.163
50282W        W11945  29.559   6.697   3.192
50283W        W11946  34.024  21.127  13.359
50284W        W11947   4.350  27.131   1.329
50285W        W11948  35.430  41.941  12.476
50286W        W11949  11.241  21.707   0.822
50287W        W11950  11.784   2.310   3.702
50288W        W11951  36.973   1.365  10.471
50289W        W11952  31.526  18.159  12.398
50290W        W11953  18.180   2.781  10.601
50291W        W11954   9.273  40.414   2.795
50292W        W11955  39.913   4.350  11.527
50293W        W11956  23.114   7.883   4.160
50294W        W11957   8.390  42.407  11.050
50295W        W11958  41.025  16.766   4.200
50296W        W11959  30.014  28.602   4.231
50297W        W11960  43.796  39.945   3.654
50298W        W11961  39.923   0.850  11.986
50299W        W11962  27.638  34.496   0.921
50300W        W11963  10.287  18.677  12.502
50301W        W11964  23.115  24.123   0.262
50302W        W11965  36.947  36.061  11.120
50303W        W11966  21.086   8.861   9.942
50304W        W11967   6.300  41.807  13.338
50305W        W11968   5.346  44.355   2.397
50306W        W11969  43.945  21.551   4.198
50307W        W11970  32.046  21.573   3.163
50308W        W11971   1.884   8.666   3.260
50309W        W11972   5.406  23.023   0.330
50310W        W11973   2.282  27.529  11.497
50311W        W11974  32.620  23.551   0.898
50312W        W11975  38.932  28.497  12.577
50313W        W11976   9.213  17.783  14.864
50314W        W11977  10.669  39.999   0.404
50315W        W11978  20.715  14.298   0.933
50316W        W11979  14.660  17.187   4.264
50317W        W11980  24.535  12.187  11.462
50318W        W11981  43.933  27.150  12.489
50319W        W11982  31.150  44.986   2.777
50320W        W11983  37.932  22.729  14.854
50321W        W11984  28.484   0.270   4.672
50322W        W11985  10.716  32.888   2.822
50323W        W11986  24.996  20.155  11.102
50324W        W11987  11.719   1.291  11.957
50325W        W11988  37.435  34.425   0.728
50326W        W11989  12.612  23.185  11.865
50327W        W11990  27.508  38.998  12.384
50328W        W11991  12.760   0.491  13.515
50329W        W11992  27.664  26.531  13.929
50330W        W11993  21.099  25.978  13.424
50331W        W11994  33.565  35.039  11.016
50332W        W11995  12.611  25.703  13.850
50333W        W11996  11.132  23.117  12.535
50334W        W11997   0.305  26.066  11.958
50335W        W11998  15.270  17.694   0.472
50336W        W11999  12.834  21.561  12.057
50337W        W12000   5.218  19.696  10.490
50338W        W12001  10.703   7.799   1.246
50339W        W12002   0.382  32.992   4.784
50340W        W12003  29.571   1.799  14.278
50341W        W12004  26.062  18.128   0.275
50342W        W12005  33.562  13.736  14.321
50343W        W12006   0.770  29.464   2.395
50344W        W12007   5.783  22.248  12.549
50345W        W12008  44.478  37.857  13.966
50346W        W12009   1.374  22.086   3.163
50347W        W12010  38.002  23.076   1.434
50348W        W12011   6.386  21.678  11.483
50349W        W12012  40.971  29.150  13.049
50350W        W12013  23.155  40.876   1.760
50351W        W12014  27.140  29.465  13.915
50352W        W12015  10.803  28.662   0.420
50353W        W12016  35.432  38.451  13.968
50354W        W12017  13.830   2.793  14.870
50355W        W12018   7.193   6.300  14.287
50356W        W12019  14.228  38.040   5.142
50357W        W12020  35.977  28.947   1.416
50358W        W12021  43.951  17.757  11.871
50359W        W12022  14.745   4.823   1.442
50360W        W12023   0.907  42.319  13.481
50361W        W12024   3.833  37.547   0.817
50362W        W12025  25.998  28.066  14.379
50363W        W12026  34.954   4.432   3.214
50364W        W12027  29.665  31.526   0.280
50365W        W12028  36.879   0.877   3.817
50366W        W12029  20.034  20.719   4.268
50367W        W12030  44.889  38.558   0.474
50368W        W12031   5.829   7.736   2.697
50369W        W12032  13.207   8.850  11.885
50370W        W12033   5.283  11.324   0.935
50371W        W12034  19.170  39.808  11.053
50372W        W12035  31.472  44.376   4.267
50373W        W12036   8.358  29.943  10.568
50374W        W12037  17.075   7.205  12.948
50375W        W12038  26.994  34.065  14.016
50376W        W12039  43.011  35.559   1.405
50377W        W12040  16.671   6.230  14.434
50378W        W12041  35.602  44.765   4.613
50379W        W12042  25.218  11.808   0.269
50380W        W12043   0.397  10.209   5.302
50381W        W12044  21.517   7.908   3.385
50382W        W12045   3.396  21.595   2.309
50383W        W12046  29.085  40.827  11.571
50384W        W12047  25.533  38.456   4.638
50385W        W12048  36.077  19.197  13.832
50386W        W12049  37.408  39.890  11.603
50387W        W12050   3.775   5.431  14.330
50388W        W12051  20.173  20.155   2.759
50389W        W12052  22.622   1.414  11.583
50390W        W12053   3.893  17.093  12.070
50391W        W12054  21.518  12.739  11.427
50392W        W12055  25.666  31.635   4.657
50393W        W12056  31.076  39.974  11.105
50394W        W12057  44.991   8.878  12.862
50395W        W12058  26.181  39.410  12.995
50396W        W12059  22.047  11.867   3.867
50397W        W12060  11.777  36.941  13.930
50398W        W12061  44.004  31.073   2.246
50399W        W12062  17.756  10.271  12.062
50400W        W12063   5.892  37.010   3.847
50401W        W12064  42.465  37.396   3.851
50402W        W12065  23.229  35.855  11.412
50403W        W12066  22.565  27.994   2.791
50404W        W12067  37.875  27.083   0.307
50405W        W12068  30.527  37.045  13.482
50406W        W12069   5.870  25.211  13.835
50407W        W12070  20.047  24.024  10.897
50408W        W12071  29.106  30.148   4.351
50409W        W12072   8.349  37.922  14.438
50410W        W12073  30.082  25.481  11.389
50411W        W12074  37.840   1.790  12.899
50412W        W12075  27.493  31.405   0.450
50413W        W12076  11.346  13.609   3.843
50414W        W12077   8.743   6.323  14.513
50415W        W12078  26.031  15.159   2.685
50416W        W12079   9.704  40.356   2.231
50417W        W12080  39.811   3.849   2.843
50418W        W12081   5.374  35.094  13.440
50419W        W12082  39.382  10.368  14.856
50420W        W12083   8.794  26.514   2.771
50421W        W12084  24.652  42.820   0.313
50422W        W12085  31.099  12.843   1.426
50423W        W12086   3.249  44.836   3.222
50424W        W12087  35.565  43.936  12.968
50425W        W12088  10.209  11.757   9.988
50426W        W12089  13.622  20.716  13.062
50427W        W12090  36.078  18.641  14.364
50428W        W12091  37.854  25.480  13.417
50429W        W12092  20.123  34.115   0.750
50430W        W12093  24.678  27.648  12.355
50431W        W12094  33.042  10.297  14.007
50432W        W12095   5.773  42.876   1.803
50433W        W12096  38.840  39.030   4.339
50434W        W12097  19.224  19.103   4.628
50435W        W12098  11.165  32.579   1.449
50436W        W12099  24.176  22.064  12.043
50437W        W12100   2.261  26.463   0.874
50438W        W12101  14.772   2.878  11.079
50439W        W12102  25.700  39.328   1.713
50440W        W12103  18.763  43.464  11.984
50441W        W12104   4.228  39.945   1.397
50442W        W12105   7.219  34.040   3.240
50443W        W12106   0.913  30.944   0.343
50444W        W12107  28.544  32.002  14.984
50445W        W12108   9.674  39.993   3.191
50446W        W12109  27.482  17.680   0.320
50447W        W12110  15.135  34.967  13.978
50448W        W12111  17.099  17.291  12.909
50449W        W12112  44.842  26.518   9.992
50450W        W12113  22.590  18.635  12.897
50451W        W12114   7.409   2.934   0.966
50452W        W12115  31.954  24.518   3.379
50453W        W12116  13.649  40.366  10.473
50454W        W12117  33.109  16.101  13.391
50455W        W12118   7.873  20.523  11.113
50456W        W12119  10.166  44.772   1.341
50457W        W12120   0.934  25.009  14.294
50458W        W12121  43.514  19.284   0.386
50459W        W12122  13.685  31.473   3.206
50460W        W12123  12.256  34.484   3.709
50461W        W12124  43.464  31.077  11.496
50462W        W12125  28.478  21.701  12.499
50463W        W12126  25.681  32.012   0.917
50464W        W12127  13.787  25.631   1.779
50465W        W12128  27.097  35.485   2.396
50466W        W12129  43.782  29.058  14.927
50467W        W12130  37.551   5.876   4.651
50468W        W12131  28.153  41.432  10.909
50469W        W12132  14.267  34.062  14.796
50470W        W12133  25.673  28.441  13.903
50471W        W12134  22.534   5.415   0.344
50472W        W12135   7.293  34.960   4.703
50473W        W12136  37.343   6.190   0.255
50474W        W12137  13.254  43.433   4.751
50475W        W12138   2.821  30.136  13.419
50476W        W12139  36.885  24.159  10.892
50477W        W12140  25.487  10.377  14.796
50478W        W12141  34.878  24.666   2.260
50479W        W12142   6.197  24.196  14.451
50480W        W12143  35.579  34.397  12.066
50481W        W12144  31.910  25.136   2.278
50482W        W12145  29.531  34.005   2.864
50483W        W12146   8.171   1.750   1.321
50484W        W12147  10.643   3.790   2.762
50485W        W12148  38.383  40.824  14.788
50486W        W12149  15.126  32.455   1.802
50487W        W12150  26.190  27.164   2.199
50488W        W12151   2.780   7.788   4.807
50489W        W12152   7.213  15.265   1.336
50490W        W12153  17.140  34.386   5.220
50491W        W12154   1.941  43.891  11.511
50492W        W12155  15.697  11.344   4.687
50493W        W12156   0.492  26.670   4.137
50494W        W12157  39.935   5.774  12.826
50495W        W12158  26.967  33.010   3.371
50496W        W12159  17.753  36.521  10.576
50497W        W12160  18.165  21.215  13.434
50498W        W12161   8.879  22.537   2.239
50499W        W12162   0.811  29.014  13.976
50500W        W12163  19.575   3.280  14.375
50501W        W12164  37.347   1.322   0.823
50502W        W12165   9.268  28.072  14.970
50503W        W12166   7.799   3.361   3.857
50504W        W12167   3.845  33.540  12.964
50505W        W12168   8.767  38.064  13.850
50506W        W12169  20.557   2.385   5.778
50507W        W12170  26.020  40.314   0.320
50508W        W12171  25.974   3.879   2.690
50509W        W12172  39.890  23.083  14.962
50510W        W12173   3.791  22.550   3.712
50511W        W12174  14.269  24.123  10.565
50512W        W12175  37.037  28.557  12.353
50513W        W12176   5.209   3.863  13.859
50514W        W12177   9.829  29.056   1.840
50515W        W12178  18.676  11.715   4.683
50516W        W12179  26.995   8.311  14.410
50517W        W12180  14.799  31.953  10.123
50518W        W12181   5.234  29.536   3.843
50519W        W12182  43.977  29.556  14.506
50520W        W12183  44.811   3.332   0.856
50521W        W12184  36.864  29.565   1.425
50522W        W12185  41.863  33.430   0.474
50523W        W12186  10.349  20.550   0.761
50524W        W12187  25.145  41.421  12.378
50525W        W12188  42.518  18.694   0.255
50526W        W12189  18.638  43.815   0.301
50527W        W12190   1.888  29.135   3.801
50528W        W12191  34.053  33.992  11.128
50529W        W12192  13.121  30.475   0.936
50530W        W12193  32.031  36.968   1.391
50531W        W12194  14.646  13.223  12.888
50532W        W12195  43.283   5.433   0.377
50533W        W12196  44.799   2.814   4.172
50534W        W12197  33.575  44.286   3.792
50535W        W12198   6.884  33.108  11.462
50536W        W12199  27.570  27.541  12.998
50537W        W12200  33.526  37.365  14.291
50538W        W12201  35.391  10.203  10.522
50539W        W12202   1.430   0.432   3.805
50540W        W12203  30.481  44.392  13.476
50541W        W12204   8.739  13.769  10.571
50542W        W12205   1.280  15.315  13.359
50543W        W12206  23.101  35.906   0.252
50544W        W12207   0.949  17.150  12.421
50545W        W12208  30.110  26.463  12.379
50546W        W12209  20.103  25.090   3.329
50547W        W12210  29.651  36.447  10.916
50548W        W12211  24.017  18.089   1.812
50549W        W12212   8.255  19.547  13.458
50550W        W12213  14.250  16.140  14.398
50551W        W12214  40.020  37.014  12.845
50552W        W12215  23.206  20.760   3.369
50553W        W12216  35.957  25.159  11.128
50554W        W12217  11.259  38.018  14.329
50555W        W12218  19.190  25.600  10.621
50556W        W12219   5.713  40.445  13.930
50557W        W12220  26.551  15.275  10.521
50558W        W12221  13.742  41.896   2.817
50559W        W12222  35.442  21.676  10.548
50560W        W12223  26.521  44.281  14.881
50561W        W12224  20.615  25.066  11.120
50562W        W12225  14.763  39.524  11.082
50563W        W12226  15.697   4.889  12.090
50564W        W12227  39.408   9.187   3.365
50565W        W12228   9.395  31.077  13.436
50566W        W12229  44.454  38.007  10.950
50567W        W12230   1.481  33.520   0.732
50568W        W12231  28.592  14.780   4.339
50569W        W12232  37.504  44.318   1.826
50570W        W12233  37.428  21.107   4.684
50571W        W12234  10.667  19.643  14.323
50572W        W12235  36.487   5.689   2.668
50573W        W12236  10.151  34.480  14.837
50574W        W12237  30.015  15.590  14.292
50575W        W12238   9.732  44.947   1.242
50576W        W12239  14.281  10.680   4.721
50577W        W12240   7.416   3.763  11.381
50578W        W12241   8.239  31.978   3.825
50579W        W12242  14.329  40.849   2.182
50580W        W12243  11.786  41.485   1.387
50581W        W12244  36.048  17.587   4.797
50582W        W12245  21.748  44.798  13.472
50583W        W12246  12.785  34.473   0.777
50584W        W12247  43.826  29.578  10.583
50585W        W12248   3.278  19.556  13.982
50586W        W12249  35.548  31.107  13.447
50587W        W12250  26.046   5.818  14.868
50588W        W12251  41.498  43.864  14.407
50589W        W12252   0.853  38.551  10.411
50590W        W12253  12.303  40.489   0.406
50591W        W12254  35.398  41.492   3.276
50592W        W12255  36.413   8.172  14.801
50593W        W12256  29.599   2.800  10.610
50594W        W12257  27.475  27.940   1.431
50595W        W12258  27.196  11.715   4.762
50596W        W12259  21.240  25.524   4.627
50597W        W12260  15.093  21.146   3.741
50598W        W12261  31.606   0.352  10.932
50599W        W12262  26.553   2.320   0.401
50600W        W12263  24.007  43.456  12.851
50601W        W12264  42.029  10.834   4.132
50602W        W12265  28.670  37.387  13.833
50603W        W12266  16.182  35.548  11.012
50604W        W12267  23.590  14.177  10.466
50605W        W12268  34.068  11.850   4.756
50606W        W12269  43.452  38.517  10.585
50607W        W12270  12.714  12.815   4.349
50608W        W12271   7.750  17.686   3.727
50609W        W12272  44.457   3.921   5.266
50610W        W12273  11.768  25.709   0.384
50611W        W12274   5.868  38.914   4.742
50612W        W12275  44.979  25.169   1.711
50613W        W12276  19.595  41.844   2.876
50614W        W12277   1.276  35.024   0.911
50615W        W12278  39.523  13.223   1.285
50616W        W12279  41.955  13.349   0.752
50617W        W12280   2.879  13.315  10.529
50618W        W12281  32.041  31.031   0.258
50619W        W12282  32.516  27.166   3.851
50620W        W12283  10.332  20.037   3.824
50621W        W12284  33.893  16.231  12.376
50622W        W12285  32.993  25.500  11.871
50623W        W12286  36.377   6.292   2.374
50624W        W12287  10.260  21.751  11.122
50625W        W12288  35.088  28.004  10.472
50626W        W12289  16.627  38.367   2.756
50627W        W12290  44.796  14.728  13.045
50628W        W12291  38.031  20.767   1.855
50629W        W12292  14.816  11.700  14.864
50630W        W12293  18.172  10.217  11.381
50631W        W12294  11.203  21.050   4.299
50632W        W12295  25.054   9.822   0.857
50633W        W12296  13.250   3.927  13.500
50634W        W12297  42.872  18.652  11.584
50635W        W12298  14.265  35.965   0.456
50636W        W12299  42.781  42.901   2.275
50637W        W12300   5.769  11.637  12.516
50638W        W12301  10.649  32.129  13.864
50639W        W12302  42.936  17.136   3.280
50640W        W12303   6.290  16.668   3.373
50641W        W12304  32.478  29.495   0.764
50642W        W12305   9.670  24.042   3.234
50643W        W12306   0.882   5.893  10.034
50644W        W12307  30.076  11.136  11.591
50645W        W12308  42.862  17.573  10.553
50646W        W12309  13.840  23.070   4.257
50647W        W12310  16.314  18.624  11.032
50648W        W12311   1.796  42.353   4.652
50649W        W12312  33.518  11.662  12.525
50650W        W12313   6.308   7.344  12.377
50651W        W12314  17.704  13.710   1.816
50652W        W12315  29.454   6.696   2.306
50653W        W12316  30.476  14.250   2.713
50654W        W12317  42.818  15.288   1.920
50655W        W12318  22.726  14.610   3.718
50656W        W12319  11.271  34.967  12.974
50657W        W12320  40.828   7.251   3.685
50658W        W12321  21.622  35.602   3.202
50659W        W12322  27.184  35.888   0.474
50660W        W12323  28.492  33.622  14.506
50661W        W12324  19.664  22.568   5.252
50662W        W12325  38.020  15.109  13.922
50663W        W12326  39.465  14.686  13.396
50664W        W12327  15.227  39.554  10.599
50665W        W12328  37.966  41.335  13.840
50666W        W12329  20.121  37.581  11.589
50667W        W12330  30.954   1.390   1.245
50668W        W12331  15.596  17.063  14.509
50669W        W12332  24.057  43.364  14.020
50670W        W12333   3.236  13.604   2.789
50671W        W12334  16.666  31.921  10.480
50672W        W12335  39.053  32.504  10.471
50673W        W12336  20.186  16.218   2.417
50674W        W12337  21.129  11.181   4.139
50675W        W12338  37.950  24.570   1.213
50676W        W12339  10.787  41.466   3.733
50677W        W12340  31.977  36.490  11.887
50678W        W12341  11.771   0.767  10.130
50679W        W12342  19.165  41.014  13.939
50680W        W12343  29.168  39.020  13.457
50681W        W12344  24.017  36.428   1.212
50682W        W12345   8.888   0.986   0.775
50683W        W12346  14.332  27.003  13.427
50684W        W12347  24.127  27.466  14.967
50685W        W12348  30.637  20.710  13.848
50686W        W12349  43.460  16.084   3.791
50687W        W12350  28.469   4.411   2.721
50688W        W12351   1.291  16.316   4.286
50689W        W12352  10.203   7.364   3.867
50690W        W12353  35.481  28.960   2.386
50691W        W12354  17.686  19.155   4.698
50692W        W12355  32.935   9.300   3.201
50693W        W12356  24.182  43.820  12.004
50694W        W12357  40.380  31.571  10.530
50695W        W12358   7.330  28.122  12.518
50696W        W12359  31.448  37.843  14.848
50697W        W12360  37.001  32.082   1.410
50698W        W12361  25.162  14.160  14.441
50699W        W12362   5.352  28.098   2.337
50700W        W12363   4.913   8.880  12.395
50701W        W12364   2.913  44.759  10.930
50702W        W12365  34.893  39.465   4.606
50703W        W12366  30.570  19.057  11.586
50704W        W12367  38.339  27.168   4.622
50705W        W12368  11.632  35.504   1.345
50706W        W12369  36.998  10.695   2.714
50707W        W12370  39.050  23.645   1.218
50708W        W12371  11.200  10.682   0.801
50709W        W12372  14.834  35.939   2.419
50710W        W12373  26.038  19.071  14.821
50711W        W12374  14.627   8.400   4.214
50712W        W12375  31.930  44.383  10.612
50713W        W12376  32.421  35.398  10.952
50714W        W12377   6.303  23.710  11.107
50715W        W12378  30.010  34.992   2.785
50716W        W12379  34.092  30.479  14.439
50717W        W12380   4.306   9.681   3.241
50718W        W12381   0.896  39.503   1.315
50719W        W12382  19.623   5.762   2.315
50720W        W12383   1.449  14.189  14.850
50721W        W12384  15.694  20.584   2.208
50722W        W12385  40.039   9.817   2.690
50723W        W12386  11.706  38.017  11.903
50724W        W12387  20.032  16.641  10.549
50725W        W12388  30.482  25.078   2.691
50726W        W12389  36.007  35.959   2.775
50727W        W12390  40.547  14.805   1.340
50728W        W12391  29.173  40.367  11.108
50729W        W12392  15.318  25.207   1.760
50730W        W12393  37.382  44.824   1.916
50731W        W12394  37.451  36.428   4.318
50732W        W12395   3.884  42.915  11.120
50733W        W12396  19.555   8.234   0.441
50734W        W12397   8.317  44.781  14.352
50735W        W12398  24.192   9.321   2.799
50736W        W12399  14.156  24.194  11.401
50737W        W12400  13.241  35.480  11.503
50738W        W12401  44.432  11.778  11.594
50739W        W12402  29.661   2.948   3.649
50740W        W12403  22.714  26.144   4.170
50741W        W12404  39.315   5.255  11.580
50742W        W12405  41.899  12.331   9.999
50743W        W12406  27.985  29.155   0.744
50744W        W12407  37.995  38.991   0.949
50745W        W12408  17.125  23.513   4.334
50746W        W12409  33.050  36.054   1.700
50747W        W12410   9.785   0.406   3.844
50748W        W12411  44.916  33.997   2.836
50749W        W12412  15.701   0.297  13.940
50750W        W12413  30.125  32.904  12.024
50751W        W12414   7.185  37.884  14.332
50752W        W12415  30.644  41.967   2.779
50753W        W12416  40.362  23.702   3.202
50754W        W12417  13.177   7.236   3.863
50755W        W12418   3.806  26.168   0.865
50756W        W12419  27.147  15.253  10.421
50757W        W12420   8.239   7.359  10.550
50758W        W12421  18.771   4.240   0.296
50759W        W12422   1.350   0.310  13.832
50760W        W12423  36.517  39.996   5.096
50761W        W12424   5.328  44.466   0.827
50762W        W12425   5.865  43.316  13.545
50763W        W12426  35.030  14.648   0.287
50764W        W12427  14.621  44.314  12.044
50765W        W12428  34.879   3.359  11.066
50766W        W12429  10.705  28.650   0.792
50767W        W12430  30.578  28.168   3.784
50768W        W12431  20.708  21.590  13.830
50769W        W12432  18.650  23.993   1.705
50770W        W12433   6.746  17.206   1.372
50771W        W12434   5.785  18.255   3.236
50772W        W12435  43.973  15.185  14.442
50773W        W12436  10.327   3.429  13.357
50774W        W12437   6.302  22.166   2.794
50775W        W12438  10.329  17.175  13.445
50776W        W12439  33.903  26.602   0.905
50777W        W12440  16.222  38.480   2.693
50778W        W12441  11.155  32.597   0.785
50779W        W12442   4.872   1.907   1.916
50780W        W12443   4.394  42.786  10.501
50781W        W12444   3.899  16.136  13.882
50782W        W12445  29.594  44.764  13.423
50783W        W12446  44.854  20.189   4.304
50784W        W12447   6.698   9.237   2.879
50785W        W12448  18.761   1.437   0.426
50786W        W12449   2.370   5.754   0.789
50787W        W12450  40.407  26.526   1.898
50788W        W12451  44.875   1.961  13.404
50789W        W12452  25.654  39.502   9.531
50790W        W12453  20.067   0.284   3.700
50791W        W12454   8.272   7.261   5.739
50792W        W12455  43.822  15.778  14.904
50793W        W12456   3.760  32.039   1.286
50794W        W12457  34.057  31.518  12.346
50795W        W12458  32.891   7.185  11.427
50796W        W12459  30.067  26.547  10.997
50797W        W12460  11.718  10.687   0.783
50798W        W12461  30.593  10.840  11.959
50799W        W12462   0.823  25.200  13.517
50800W        W12463  36.953  23.527   4.144
50801W        W12464  12.186  38.953   4.170
50802W        W12465  11.845  23.675   0.790
50803W        W12466  37.081  42.452  14.019
50804W        W12467  13.631  19.214  14.378
50805W        W12468  31.994   1.801   3.651
50806W        W12469  29.654  26.075  11.539
50807W        W12470  18.052   2.418   0.355
50808W        W12471   0.341  18.571  14.980
50809W        W12472   6.260  19.214   1.916
50810W        W12473  21.739   7.797  12.972
50811W        W12474  23.046   5.304  12.910
50812W        W12475  23.229   4.725  12.886
50813W        W12476  19.775   1.920   2.812
50814W        W12477  19.629  40.378   2.662
50815W        W12478  12.782   3.353   1.330
50816W        W12479  36.520  32.069  11.937
50817W        W12480   3.419  39.872   4.647
50818W        W12481   0.455   3.248  12.985
50819W        W12482  20.599  44.354  14.425
50820W        W12483   9.854  29.154   4.173
50821W        W12484  10.851  25.158  12.485
50822W        W12485   1.744  34.560  11.109
50823W        W12486  40.958  34.035  10.495
50824W        W12487   4.340  34.931  13.871
50825W        W12488  41.391   5.217   2.865
50826W        W12489   1.390   7.378  12.458
50827W        W12490  38.874  10.866  14.477
50828W        W12491  43.334  41.296  14.975
50829W        W12492  11.304  24.489   3.772
50830W        W12493  31.482  39.036   3.808
50831W        W12494  23.521  40.959   1.359
50832W        W12495   4.335  18.221  12.009
50833W        W12496  14.293  25.079  12.379
50834W        W12497  36.001  34.021   1.230
50835W        W12498  13.135  29.175   4.276
50836W        W12499  36.510   4.900  13.954
50837W        W12500  21.045  19.062   0.774
50838W        W12501   4.262  22.189  11.455
50839W        W12502  34.614  22.220   1.260
50840W        W12503  19.604  23.079  14.948
50841W        W12504  44.975   5.198  13.451
50842W        W12505  33.543  10.370   2.703
50843W        W12506  22.500  36.977  13.912
50844W        W12507   0.378  43.496  14.982
50845W        W12508   4.936  40.841   4.200
50846W        W12509  20.761  20.144   2.885
50847W        W12510  44.877   9.297   5.217
50848W        W12511   6.417  37.406   2.187
50849W        W12512  44.845  16.112   1.724
50850W        W12513  35.088  38.418  10.451
50851W        W12514  10.657  14.162  10.998
50852W        W12515  17.162  39.944   2.698
50853W        W12516  29.056  26.482  13.853
50854W        W12517  15.590  30.010   3.797
50855W        W12518  27.571  25.993   5.671
50856W        W12519  13.107   4.845  14.817
50857W        W12520  31.962  10.322   2.896
50858W        W12521  32.942  35.550  12.835
50859W        W12522   1.483  35.399  11.067
50860W        W12523  16.275  29.636   3.174
50861W        W12524  15.718  25.493   0.376
50862W        W12525  21.659   3.711   1.336
50863W        W12526  21.050  43.501  12.474
50864W        W12527  16.086  37.920   0.810
50865W        W12528  28.503  10.682   4.282
50866W        W12529   2.845  39.835   0.776
50867W        W12530   8.187  31.530   4.775
50868W        W12531  22.077   4.718  11.903
50869W        W12532   6.315  20.552   0.796
50870W        W12533  20.692  12.822  11.443
50871W        W12534   0.382  37.531  12.518
50872W        W12535  16.657  33.557  12.416
50873W        W12536  13.821  41.501   1.905
50874W        W12537  39.000  14.628  10.519
50875W        W12538  41.494   5.855  13.473
50876W        W12539  33.388  21.736   3.704
50877W        W12540   3.255   2.948  12.439
50878W        W12541  41.296  16.218   4.817
50879W        W12542  12.665  37.370  11.487
50880W        W12543  25.538  32.920  13.896
50881W        W12544  38.833  36.973   4.179
50882W        W12545  40.458  42.802  13.850
50883W        W12546  29.139  25.064   1.382
50884W        W12547   9.742  22.725  14.279
50885W        W12548  35.497   2.899  13.046
50886W        W12549   6.409  18.139  12.034
50887W        W12550  18.240  16.223   2.815
50888W        W12551  44.376  23.519   2.407
50889W        W12552  26.461  42.792  10.953
50890W        W12553   8.834   6.340   4.753
50891W        W12554   4.423  42.024   3.816
50892W        W12555  40.467  33.463  12.834
50893W        W12556  29.530  18.131  13.036
50894W        W12557  20.568   1.852   2.309
50895W        W12558  31.897   6.810   2.416
50896W        W12559  42.312  17.733  10.558
50897W        W12560  20.671  31.534  12.563
50898W        W12561  14.624  17.215   2.806
50899W        W12562  21.639  20.251  11.438
50900W        W12563   6.772  16.276   4.634
50901W        W12564  36.467  22.601   3.252
50902W        W12565  10.704  16.661  10.424
50903W        W12566  15.700  43.902   0.330
50904W        W12567   6.357   8.280   1.800
50905W        W12568  14.258  17.766  14.014
50906W        W12569  39.544  37.535  12.049
50907W        W12570  32.398   2.749  14.807
50908W        W12571  12.761  23.229   2.795
50909W        W12572  18.194  20.255  13.864
50910W        W12573  28.120  28.556  10.080
50911W        W12574  22.026  23.657   1.875
50912W        W12575   9.860  19.275  13.318
50913W        W12576  25.662  31.028  10.546
50914W        W12577  36.505  25.681   4.269
50915W        W12578  31.956  14.635  12.384
50916W        W12579  17.600  28.586  12.836
50917W        W12580  14.134  42.833  12.841
50918W        W12581  19.161   8.668   4.336
50919W        W12582  24.690  17.193  11.116
50920W        W12583  12.139  24.547   4.276
50921W        W12584   7.718  15.644   3.198
50922W        W12585   8.248   2.888   4.774
50923W        W12586   2.925  10.715   4.315
50924W        W12587  32.417  36.968   0.942
50925W        W12588   1.451   0.300  14.325
50926W        W12589  13.617   6.372   2.320
50927W        W12590  28.653  14.811  14.418
50928W        W12591  44.955  33.885   3.802
50929W        W12592  11.711  19.745  13.326
50930W        W12593  27.005  42.516  13.510
50931W        W12594  29.447  40.046  13.987
50932W        W12595  33.039  34.054  14.960
50933W        W12596  35.010  10.728   3.835
50934W        W12597  41.992  19.281  10.598
50935W        W12598  18.270  27.090   1.883
50936W        W12599  40.437  15.697   0.842
50937W        W12600   1.275  26.080  13.355
50938W        W12601  42.390  29.477  13.921
50939W        W12602   1.349  40.839   3.379
50940W        W12603  14.702  17.686   3.645
50941W        W12604  21.576  21.073  14.371
50942W        W12605   7.749  33.112   2.411
50943W        W12606   9.810   7.316  13.861
50944W        W12607  44.376  32.980  12.902
50945W        W12608  21.644  18.263  11.489
50946W        W12609  23.186  35.460  12.540
50947W        W12610   8.893  33.536  12.863
50948W        W12611  42.780  34.883   3.175
50949W        W12612  12.764  17.727  12.052
50950W        W12613   5.403  16.596   0.751
50951W        W12614  25.555   1.951  14.759
50952W        W12615  44.314  39.351   0.252
50953W        W12616  29.093   9.214   1.912
50954W        W12617  13.808   2.929  13.040
50955W        W12618  40.841  37.901   0.747
50956W        W12619  29.061  31.516   4.636
50957W        W12620  32.517  42.312   4.703
50958W        W12621  34.892  39.927  12.471
50959W        W12622   3.822  44.952  11.586
50960W        W12623  30.519  26.624   1.227
50961W        W12624   3.228  21.017   4.658
50962W        W12625  15.807  13.150   0.293
50963W        W12626  16.257   9.387  14.862
50964W        W12627  25.127   3.450  13.915
50965W        W12628  17.120   4.858   0.432
50966W        W12629  40.539  37.841  12.938
50967W        W12630   2.866   1.746  12.417
50968W        W12631  13.615  29.158   0.430
50969W        W12632  23.729  34.596   0.260
50970W        W12633  41.030  44.799   4.267
50971W        W12634  19.078  32.502  11.901
50972W        W12635  14.265  18.074  14.014
50973W        W12636  10.744  30.134  11.543
50974W        W12637   3.361  17.292  13.458
50975W        W12638  14.326  20.702  11.957
50976W        W12639  19.240  35.902  11.410
50977W        W12640  24.564   3.321   0.286
50978W        W12641  32.479  12.137   1.379
50979W        W12642  28.561  25.032  13.469
50980W        W12643  14.321   8.395   1.317
50981W        W12644  13.137  17.662  12.023
50982W        W12645   8.892  17.302  11.884
50983W        W12646  11.359   6.410   9.552
50984W        W12647   2.803  40.940   2.785
50985W        W12648  30.613  12.669   2.268
50986W        W12649  38.437   7.876  14.798
50987W        W12650  44.471  18.283   3.153
50988W        W12651  42.508   4.419   2.776
50989W        W12652  31.043  22.710   2.295
50990W        W12653  32.965  35.518  11.856
50991W        W12654   1.773  13.109   0.393
50992W        W12655  38.859  11.815   0.460
50993W        W12656   6.789   8.225   4.287
50994W        W12657  25.472  44.776  13.988
50995W        W12658  21.734  21.229   2.871
50996W        W12659   5.806  43.511   0.846
50997W        W12660  14.294  44.861   2.760
50998W        W12661  22.149  11.845  10.479
50999W        W12662  21.159  40.864  14.820
51000W        W12663  22.712  20.733  10.572
51001W        W12664  12.336  24.078   4.247
51002W        W12665  40.311   1.242  11.450
51003W        W12666  27.472  17.686  14.830
51004W        W12667  34.451   4.908   5.157
51005W        W12668  20.543  43.008  12.537
51006W        W12669  37.518  29.034  12.393
51007W        W12670   3.743  25.044  13.475
51008W        W12671   5.201  28.020  10.989
51009W        W12672  30.640  18.191   4.320
51010W        W12673   8.387  19.050   0.850
51011W        W12674  36.948  15.659  13.908
51012W        W12675  37.925  21.221  13.036
51013W        W12676  42.291  37.069   0.869
51014W        W12677   1.297  30.504  12.369
51015W        W12678  28.668  40.394   0.956
51016W        W12679  43.414  31.043  14.334
51017W        W12680  20.253  32.473   3.744
51018W        W12681   6.767  40.935  13.043
51019W        W12682  37.521  37.059   3.826
51020W        W12683   2.412  31.435  12.971
51021W        W12684   6.885   9.265  12.412
51022W        W12685  34.086  41.522   3.277
51023W        W12686  33.124  36.052  10.976
51024W        W12687   4.929  23.237   2.727
51025W        W12688  22.136   9.784   0.425
51026W        W12689  21.586  21.581   2.697
51027W        W12690  28.556  43.480   0.427
51028W        W12691  27.112  33.499  10.597
51029W        W12692   1.338  10.869  12.347
51030W        W12693  23.694   1.977   1.789
51031W        W12694  14.161  12.320   0.832
51032W        W12695  36.483   9.330   3.763
51033W        W12696   5.278  13.270   4.664
51034W        W12697  19.590  28.567   0.955
51035W        W12698   2.267  17.201  12.454
51036W        W12699  36.386  29.663   0.400
51037W        W12700  32.939  27.020   0.352
51038W        W12701  27.530  23.043   2.867
51039W        W12702  39.944  25.627  11.873
51040W        W12703  32.037  25.590   0.963
51041W        W12704  27.492  16.202  13.047
51042W        W12705  44.414  31.515   2.411
51043W        W12706  34.946   8.839  14.941
51044W        W12707   4.289   1.323  10.567
51045W        W12708  31.117  29.561  14.824
51046W        W12709  29.569  23.588   4.795
51047W        W12710  14.320  17.238  14.964
51048W        W12711  27.078  33.022   4.779
51049W        W12712  27.958   4.930   2.202
51050W        W12713   6.860   3.405   4.635
51051W        W12714   4.889   5.275  12.502
51052W        W12715  31.954  32.492  11.955
51053W        W12716  12.260  29.481   0.787
51054W        W12717  20.057  36.003   0.915
51055W        W12718  15.153  23.725   1.908
51056W        W12719  15.789  25.044   1.706
51057W        W12720  43.448   0.483  14.439
51058W        W12721   0.913  34.921  14.419
51059W        W12722  38.410  44.481  10.930
51060W        W12723  22.565  33.059   4.260
51061W        W12724  36.041   1.449  13.954
51062W        W12725  43.953  21.585   2.363
51063W        W12726  15.674  32.948  12.848
51064W        W12727  10.357  14.755   0.262
51065W        W12728  36.854   2.784  14.286
51066W        W12729  15.132   3.350   0.272
51067W        W12730   4.235  36.874  11.470
51068W        W12731   0.256   9.840  13.368
51069W        W12732   5.835  31.078   0.740
51070W        W12733   9.836  23.605   4.608
51071W        W12734  24.712  36.037   0.915
51072W        W12735  35.056   5.860   1.728
51073W        W12736  26.499  34.072  14.889
51074W        W12737  42.403  28.647  14.391
51075W        W12738  26.495  22.168  14.923
51076W        W12739   4.933  38.459  12.909
51077W        W12740  22.652  27.140  13.969
51078W        W12741   3.435  29.987   2.868
51079W        W12742  32.465  27.667   0.832
51080W        W12743  20.203   5.751  11.508
51081W        W12744  36.531  15.615   3.790
51082W        W12745  28.495  37.400  14.421
51083W        W12746  20.565  18.243   4.189
51084W        W12747  27.127   7.834  14.813
51085W        W12748  11.851  29.440  10.447
51086W        W12749  15.263  23.078  14.785
51087W        W12750   9.673  37.966  13.904
51088W        W12751  14.268  39.974  14.474
51089W        W12752   9.702  30.592  11.406
51090W        W12753  42.980  23.556  11.078
51091W        W12754   4.304  15.154  13.817
51092W        W12755  22.669   8.325  13.002
51093W        W12756  21.636  29.158   2.705
51094W        W12757  33.565   1.244  13.491
51095W        W12758   7.391   4.403   4.350
51096W        W12759  13.155  30.492   3.206
51097W        W12760  15.617  34.525   0.350
51098W        W12761   8.735  20.628  13.434
51099W        W12762  14.163  19.653   0.421
51100W        W12763   6.315  14.179   2.746
51101W        W12764  28.090  17.175   1.830
51102W        W12765   9.292   9.373   0.796
51103W        W12766  13.338  15.577   0.744
51104W        W12767  24.619  42.008   3.849
51105W        W12768   9.345   4.332   1.250
51106W        W12769   2.916   0.899   4.282
51107W        W12770  36.015  35.999  10.417
51108W        W12771  40.873  35.070  11.560
51109W        W12772   6.806  21.230  11.918
51110W        W12773  13.201  15.182  10.917
51111W        W12774  36.991   4.753   1.778
51112W        W12775  12.348  24.046   4.636
51113W        W12776  24.611  29.102  10.913
51114W        W12777  12.661  30.023  13.051
51115W        W12778   9.202  14.113  13.826
51116W        W12779  35.963  16.258  14.886
51117W        W12780  17.627  31.901   5.289
51118W        W12781  26.506  12.321  11.484
51119W        W12782  23.682  43.339   3.186
51120W        W12783  29.051  23.071  11.896
51121W        W12784  42.313  34.044   0.371
51122W        W12785   1.374  39.839  14.282
51123W        W12786   5.224   0.916  10.554
51124W        W12787  28.471  25.660  10.483
51125W        W12788   1.280  41.393   1.739
51126W        W12789  24.680  32.888   3.198
51127W        W12790  36.490  40.304  14.857
51128W        W12791  28.040  20.678  13.888
51129W        W12792  20.140  32.932   4.303
51130W        W12793  36.392   7.176   2.323
51131W        W12794  29.481  37.068   4.837
51132W        W12795  10.158  16.098   2.352
51133W        W12796  17.307  10.256  14.390
51134W        W12797  35.419  25.165   3.197
51135W        W12798  10.315   5.740   4.827
51136W        W12799  17.263  40.889  13.865
51137W        W12800  20.736  34.551   2.354
51138W        W12801   1.967  32.494   2.852
51139W        W12802  41.522  44.996   0.410
51140W        W12803  18.160   8.220  13.870
51141W        W12804  17.634  43.319   0.443
51142W        W12805  20.628  14.742   3.659
51143W        W12806  32.136  34.522   4.614
51144W        W12807   0.352  18.562  10.955
51145W        W12808  16.647  12.691   4.699
51146W        W12809  42.814  10.816  11.056
51147W        W12810  27.988   1.356  10.537
51148W        W12811   7.709  15.814  11.048
51149W        W12812  19.750  14.255  10.047
51150W        W12813   5.897   7.182  13.968
51151W        W12814  34.910   8.713  12.521
51152W        W12815  35.929  27.588  10.542
51153W        W12816  14.159  32.039   0.453
51154W        W12817  18.778  43.931  12.420
51155W        W12818   3.409  38.902  10.607
51156W        W12819  11.252  30.460  14.813
51157W        W12820   6.229  27.572   2.732
51158W        W12821  16.164  11.630  12.527
51159W        W12822  19.108  13.306   3.777
51160W        W12823  27.085  36.518  10.472
51161W        W12824  21.084  26.970   0.758
51162W        W12825   3.313   7.269   4.183
51163W        W12826  11.854  28.122  12.397
51164W        W12827  13.206  10.147  11.392
51165W        W12828  43.313  23.491   2.716
51166W        W12829  35.077   0.878   1.863
51167W        W12830  20.060  23.016   4.825
51168W        W12831  10.759  30.955  13.398
51169W        W12832  11.274  19.140  12.879
51170W        W12833  40.987  31.463  10.932
51171W        W12834  13.296   5.824   1.698
51172W        W12835  31.613  12.162  10.508
51173W        W12836  40.013  16.643   3.370
51174W        W12837  31.582  33.386  10.511
51175W        W12838  18.203  20.747  14.952
51176W        W12839  33.587  11.867  11.885
51177W        W12840  38.347  38.053   1.427
51178W        W12841  16.624  16.742  10.499
51179W        W12842  26.494  36.987  13.422
51180W        W12843   2.441  28.599   2.272
51181W        W12844   1.243  18.057  12.397
51182W        W12845  15.235  29.495   2.698
51183W        W12846  30.946  28.942   2.392
51184W        W12847   5.802  26.580  13.334
51185W        W12848  28.001  31.999   2.803
51186W        W12849  23.170  10.632  14.492
51187W        W12850   5.381  22.555   1.380
51188W        W12851  12.841  30.477  11.937
51189W        W12852  25.188  22.139   1.343
51190W        W12853  33.593  40.888   3.788
51191W        W12854  38.481  31.000  12.475
51192W        W12855  25.174  17.194   4.741
51193W        W12856   8.740   4.942  12.356
51194W        W12857  20.197   7.267  11.974
51195W        W12858  19.588  34.880   3.776
51196W        W12859  26.031  21.174   4.140
51197W        W12860   3.290   0.747  14.805
51198W        W12861  11.723  25.709   2.366
51199W        W12862  10.845  16.099  10.478
51200W        W12863   4.864  35.010   2.829
51201W        W12864   5.797  39.861  12.930
51202W        W12865  18.690  30.544   3.840
51203W        W12866  12.752  17.791  14.355
51204W        W12867  44.944  33.036   2.885
51205W        W12868  22.061  41.939   1.392
51206W        W12869  28.058  38.446   1.821
51207W        W12870  33.996  12.664   0.964
51208W        W12871   3.943  41.824   3.712
51209W        W12872  28.174  36.352   0.337
51210W        W12873  11.704   6.919  13.370
51211W        W12874  26.147  11.250   2.361
51212W        W12875  43.987  44.427  12.555
51213W        W12876  33.107  11.300   4.737
51214W        W12877  41.920  38.544  14.359
51215W        W12878  44.005  19.584   4.734
51216W        W12879  23.684  33.467  13.933
51217W        W12880  40.536  21.082   2.333
51218W        W12881  39.930  19.694   3.186
51219W        W12882  41.502  35.884  14.331
51220W        W12883  40.899  15.649  14.828
51221W        W12884  16.764  13.773   2.676
51222W        W12885   1.358   6.820  11.475
51223W        W12886   7.790  44.825  10.543
51224W        W12887  27.988  18.089  11.446
51225W        W12888  40.391   2.360  12.502
51226W        W12889  31.419  30.015   3.276
51227W        W12890  11.749  29.075   2.730
51228W        W12891  12.798  27.612  10.607
51229W        W12892  32.611  36.943  12.075
51230W        W12893  17.618  33.484  13.483
51231W        W12894  10.212   5.710   5.783
51232W        W12895  43.313  25.498  14.022
51233W        W12896  19.772   6.305  13.952
51234W        W12897  44.944  35.991  12.453
51235W        W12898  19.198   5.408  12.374
51236W        W12899  16.599  18.235   4.728
51237W        W12900  35.462  28.957   0.271
51238W        W12901  29.451   5.287  13.795
51239W        W12902  17.227  15.668  12.576
51240W        W12903   0.248   9.783   4.751
51241W        W12904  29.124  24.147  13.957
51242W        W12905  33.546  24.500   3.252
51243W        W12906  44.430  13.710   5.212
51244W        W12907   7.768  22.225   0.262
51245W        W12908  34.955  31.072  10.965
51246W        W12909  37.469  28.486  11.571
51247W        W12910  22.744  44.824  13.904
51248W        W12911  11.188   3.393   4.719
51249W        W12912  13.120  27.076  11.862
51250W        W12913  37.535  44.273  13.418
51251W        W12914  39.893  32.947   0.404
51252W        W12915  25.478   9.327   3.765
51253W        W12916   0.283  44.354  14.344
51254W        W12917  43.958  20.590   3.761
51255W        W12918   2.318  13.175   1.747
51256W        W12919  21.181  15.239  11.073
51257W        W12920  29.456  44.326  10.482
51258W        W12921  34.470  27.485   2.708
51259W        W12922  22.212  40.510   4.727
51260W        W12923  36.558  10.246   1.767
51261W        W12924  43.505  38.478   3.150
51262W        W12925  34.446  31.038   3.745
51263W        W12926  25.572  17.715   0.438
51264W        W12927   2.753  39.504   0.278
51265W        W12928   4.387  43.914   0.429
51266W        W12929  41.975  42.957   5.103
51267W        W12930  28.156  22.163  14.515
51268W        W12931  38.828  15.652   4.618
51269W        W12932  21.741   3.265   0.410
51270W        W12933  40.350  20.161  12.883
51271W        W12934  29.973  12.668   0.742
51272W        W12935   0.410  26.480  10.459
51273W        W12936  29.048  26.615   4.747
51274W        W12937  30.102   4.359   3.730
51275W        W12938   7.230  19.086  12.995
51276W        W12939  33.129  17.063  11.421
51277W        W12940  28.987  44.430   2.303
51278W        W12941  11.191   1.878  12.901
51279W        W12942  20.745  35.436   4.603
51280W        W12943  33.054   6.878  14.834
51281W        W12944  19.222  20.238   2.867
51282W        W12945  21.166  38.415   4.753
51283W        W12946   5.256  22.215  12.483
51284W        W12947  15.105  34.407   3.259
51285W        W12948  19.697  32.437   3.854
51286W        W12949  18.141  27.965  10.889
51287W        W12950  25.199   5.365  14.407
51288W        W12951  35.053   7.803  13.537
51289W        W12952   2.753  29.087   0.817
51290W        W12953   9.645  40.002   4.777
51291W        W12954  43.853   5.215   2.333
51292W        W12955  28.186  14.151  14.472
51293W        W12956  21.651  27.972  10.942
51294W        W12957  41.497  43.396  12.991
51295W        W12958  13.129  39.511   2.832
51296W        W12959   1.375   1.749   1.439
51297W        W12960   9.193  39.490   4.817
51298W        W12961  23.076  40.505   3.830
51299W        W12962   0.339  29.010   2.900
51300W        W12963  37.546  12.211  13.444
51301W        W12964  16.733  16.235   3.785
51302W        W12965  11.200  39.952  10.496
51303W        W12966  23.523  22.123  12.371
51304W        W12967   3.828  25.128   0.875
51305W        W12968  22.241  14.812   3.829
51306W        W12969  26.098  22.515  14.807
51307W        W12970  22.164  31.448  10.913
51308W        W12971   4.334  34.964  13.393
51309W        W12972  18.175   9.393   3.743
51310W        W12973  44.279   7.882   3.679
51311W        W12974  24.657   8.204   2.242
51312W        W12975  42.299  44.316  10.146
51313W        W12976   9.251  44.805  13.347
51314W        W12977   5.788   1.433   0.310
51315W        W12978  42.812  17.215  13.343
51316W        W12979   4.720  35.064   3.649
51317W        W12980  26.200  12.328  11.093
51318W        W12981  21.240  28.592   0.263
51319W        W12982  21.077  35.858  10.944
51320W        W12983  40.912  13.805   3.185
51321W        W12984  10.846  17.778   1.886
51322W        W12985   9.181   9.348   2.848
51323W        W12986  43.972  13.613  13.988
51324W        W12987   1.874  34.432   2.390
51325W        W12988  44.964  14.606   5.154
51326W        W12989  26.650   8.699   4.673
51327W        W12990  42.981  26.993  12.465
51328W        W12991  36.541  27.633  10.920
51329W        W12992  25.202   6.274  11.991
51330W        W12993  27.971  29.605  13.528
51331W        W12994   0.787  44.770   1.908
51332W        W12995  39.504   5.227   0.781
51333W        W12996  22.598  41.330   0.453
51334W        W12997  11.136  31.053   3.720
51335W        W12998  10.771  18.203   2.204
51336W        W12999  30.608   4.220   0.281
51337W        W13000  25.702  26.585   3.153
51338W        W13001   4.801  23.161  11.491
51339W        W13002  44.782  38.985  13.039
51340W        W13003  13.840  32.013   0.945
51341W        W13004  30.907  38.451   2.832
51342W        W13005   2.302  37.483  12.501
51343W        W13006  32.492   8.284  10.455
51344W        W13007  14.782  39.975   2.680
51345W        W13008  33.977   1.782  13.017
51346W        W13009  28.488  32.945  14.854
51347W        W13010  44.966  17.141  13.011
51348W        W13011  15.787  27.455  13.970
51349W        W13012  39.460  28.487  11.519
51350W        W13013  19.174  36.034   3.155
51351W        W13014  28.528   8.755  12.354
51352W        W13015  22.181  40.498   2.738
51353W        W13016  35.922  40.337   0.768
51354W        W13017  36.564  39.836   3.344
51355W        W13018   0.768  21.116  12.564
51356W        W13019  10.376  14.795  10.940
51357W        W13020  44.829  40.023   1.700
51358W        W13021  32.484  43.933   2.700
51359W        W13022   0.758  29.977  11.484
51360W        W13023  24.017  17.678   1.235
51361W        W13024  24.629  42.857  14.280
51362W        W13025  11.128   0.869   0.967
51363W        W13026  31.426  33.045   0.363
51364W        W13027  27.144  17.269  13.516
51365W        W13028  29.657  13.173   1.766
51366W        W13029  33.026  15.723   3.163
51367W        W13030   7.796  25.520  13.492
51368W        W13031  11.130   5.763  14.790
51369W        W13032  30.419  38.961  13.895
51370W        W13033  35.436  36.049  13.944
51371W        W13034   9.709   6.315   0.746
51372W        W13035  28.653  28.172   1.274
51373W        W13036  36.850  18.161  14.963
51374W        W13037  13.306  14.250  12.984
51375W        W13038  40.386   7.696  10.100
51376W        W13039  40.831  21.739  13.812
51377W        W13040  12.314  10.366  13.509
51378W        W13041  32.043  33.601  13.853
51379W        W13042  29.934  31.107  12.563
51380W        W13043  38.919   3.734   0.945
51381W        W13044   2.948  35.059  12.838
51382W        W13045   7.241  30.914   4.166
51383W        W13046  12.852  27.107   2.315
51384W        W13047  19.744   4.774   2.306
51385W        W13048   0.370  24.217  13.830
51386W        W13049  39.985  31.526   3.726
51387W        W13050  33.011  25.592   2.363
51388W        W13051  39.413  11.219  13.011
51389W        W13052  31.983  17.644  14.834
51390W        W13053  15.124  24.641  14.899
51391W        W13054  30.572   7.732   2.876
51392W        W13055  31.989  13.770  13.004
51393W        W13056   6.727  10.348   4.620
51394W        W13057   2.278   7.247   4.682
51395W        W13058  41.847  19.780  13.408
51396W        W13059   9.382  18.103   1.932
51397W        W13060   0.948  41.522  14.413
51398W        W13061  34.080  26.512  12.850
51399W        W13062  34.461   9.335   2.838
51400W        W13063  42.947   7.282   2.214
51401W        W13064  25.634  36.015  14.867
51402W        W13065  24.021  11.198   0.288
51403W        W13066  17.104   3.934   4.622
51404W        W13067  12.741   2.902  14.456
51405W        W13068  22.638  44.368   2.217
51406W        W13069  44.413  16.782  11.062
51407W        W13070   5.920   7.786  11.082
51408W        W13071  36.993   9.308  13.422
51409W        W13072  30.980   0.857  13.805
51410W        W13073  28.026  25.018   4.830
51411W        W13074  15.275  14.233   0.362
51412W        W13075  23.647  11.624  12.944
51413W        W13076  28.950   5.429  12.368
51414W        W13077   5.766  44.795  11.955
51415W        W13078  20.653   6.861   2.313
51416W        W13079  25.585  33.484  13.806
51417W        W13080  17.110  30.951   4.691
51418W        W13081  40.825  40.463  11.079
51419W        W13082  21.564  19.111   4.244
51420W        W13083  37.361  12.828  12.887
51421W        W13084  32.630  31.588   3.706
51422W        W13085  15.814  20.183   1.828
51423W        W13086  44.930  44.381  12.000
51424W        W13087  44.463  28.610  13.340
51425W        W13088  29.150  33.071  13.404
51426W        W13089  25.503  41.938   2.372
51427W        W13090  32.548  24.207  10.987
51428W        W13091  34.092  30.143  14.913
51429W        W13092  35.437  30.625   1.340
51430W        W13093  11.640  42.965   5.291
51431W        W13094   0.957   5.779  11.390
51432W        W13095  24.530   0.259   3.713
51433W        W13096  21.561   1.427  11.037
51434W        W13097  20.044  35.387  12.558
51435W        W13098  34.923  24.721  14.860
51436W        W13099  21.685  13.122  11.090
51437W        W13100  43.290  42.902  10.013
51438W        W13101  19.769  42.820  11.983
51439W        W13102  32.620   6.367   1.378
51440W        W13103  40.443  32.981  11.078
51441W        W13104  19.700  32.053  13.412
51442W        W13105  37.519  42.794  13.841
51443W        W13106  27.957  25.107   3.313
51444W        W13107  24.088  23.173   4.705
51445W        W13108  18.662  13.693   1.929
51446W        W13109  30.029  13.191   4.285
51447W        W13110  15.750  30.643   3.767
51448W        W13111  22.638   5.329  14.485
51449W        W13112   9.256  29.999   1.694
51450W        W13113   8.403  32.469  14.921
51451W        W13114  39.334  19.598   0.260
51452W        W13115  25.989  37.955   3.367
51453W        W13116   3.823  43.399  14.288
51454W        W13117  12.786   6.745   3.759
51455W        W13118  33.385  31.143  10.496
51456W        W13119  36.959  10.333  10.988
51457W        W13120   7.830  29.948   3.843
51458W        W13121  27.990  39.415   2.253
51459W        W13122  44.438  18.729  10.932
51460W        W13123  14.826   8.899  14.309
51461W        W13124  23.541  15.279   0.867
51462W        W13125  24.529  40.007   0.271
51463W        W13126   5.733  28.013   3.639
51464W        W13127   7.188   7.865  12.537
51465W        W13128  26.085  13.240   1.254
51466W        W13129  26.589  43.327   3.317
51467W        W13130  37.399  26.462   1.707
51468W        W13131  11.675   5.775  11.394
51469W        W13132  32.985  18.709  13.020
51470W        W13133   5.778  19.641   0.375
51471W        W13134  14.707  42.477  14.304
51472W        W13135  11.358  30.477   2.228
51473W        W13136  21.710  37.544   0.958
51474W        W13137  37.554  21.036  13.958
51475W        W13138  11.319  14.797  13.805
51476W        W13139  24.492  17.184  13.949
51477W        W13140  27.014  44.446  11.910
51478W        W13141  10.669  29.163   2.180
51479W        W13142   7.340   8.876   3.272
51480W        W13143   8.876  23.045  13.315
51481W        W13144  27.076   4.715  11.065
51482W        W13145  39.447  44.846  11.577
51483W        W13146  29.619  17.124  10.463
51484W        W13147  15.764   1.735  10.032
51485W        W13148  32.116  30.043  11.990
51486W        W13149   7.319  17.187  10.529
51487W        W13150   7.334  24.511   1.242
51488W        W13151   4.769  43.799  12.931
51489W        W13152  16.089  26.685  13.837
51490W        W13153  14.802  11.294   2.876
51491W        W13154  12.611  39.539  13.446
51492W        W13155  12.349  39.478  13.863
51493W        W13156   0.304  12.155   3.821
51494W        W13157  37.488  17.298   0.878
51495W        W13158  37.848  23.495   0.456
51496W        W13159  17.204  15.257  11.379
51497W        W13160   9.312  43.390   0.856
51498W        W13161  27.037  33.933  11.871
51499W        W13162  15.282  15.609  10.468
51500W        W13163  14.162  16.169  11.436
51501W        W13164  29.175  36.576   2.417
51502W        W13165  26.068  38.518   1.751
51503W        W13166  22.726  19.176  12.533
51504W        W13167  17.583  40.497   4.764
51505W        W13168   1.280  12.616   3.332
51506W        W13169   9.826  12.657  13.366
51507W        W13170  15.211  20.089   4.644
51508W        W13171  17.155  18.776  12.369
51509W        W13172  31.972  31.528  11.578
51510W        W13173  20.225   5.820   3.370
51511W        W13174  32.922  43.935   4.323
51512W        W13175  10.290   9.725  13.409
51513W        W13176  17.179  21.752  11.110
51514W        W13177   7.707  36.416   1.874
51515W        W13178   4.363  30.112   0.920
51516W        W13179  28.054   9.678   4.679
51517W        W13180  33.610  43.480  14.376
51518W        W13181  32.006   9.355  14.373
51519W        W13182  40.856  36.527  10.424
51520W        W13183  22.503  22.121  14.797
51521W        W13184  25.179  32.090  12.073
51522W        W13185  37.873  28.174   1.231
51523W        W13186  33.409  17.644  12.853
51524W        W13187   7.293  31.519   3.260
51525W        W13188  38.386  21.620   3.781
51526W        W13189  35.572  15.230   3.747
51527W        W13190  16.164  21.532   4.174
51528W        W13191  28.982   1.934   2.809
51529W        W13192  33.076  41.037  13.048
51530W        W13193  38.429   2.292  11.001
51531W        W13194   3.358  36.901  10.464
51532W        W13195  17.140  14.120   5.726
51533W        W13196  22.032  44.350   2.183
51534W        W13197  22.500   3.866  12.367
51535W        W13198  29.100  15.601  12.077
51536W        W13199   7.788  34.107   1.370
51537W        W13200   0.422  21.018  11.587
51538W        W13201   2.378  37.930   1.872
51539W        W13202   2.850  40.344   0.314
51540W        W13203   6.917  30.659  12.376
51541W        W13204  37.890  34.510   3.354
51542W        W13205   8.717  13.825   0.781
51543W        W13206  26.957  26.503   9.979
51544W        W13207  21.648  16.692  10.975
51545W        W13208  12.829  15.311   1.267
51546W        W13209  28.144  15.657  11.542
51547W        W13210  30.048  37.887   4.166
51548W        W13211  41.816  39.403   2.335
51549W        W13212  40.455  25.502   2.731
51550W        W13213  23.173  21.729  13.362
51551W        W13214  34.584  17.688   2.675
51552W        W13215  11.758  29.468  11.373
51553W        W13216  39.483  14.221   4.157
51554W        W13217  18.223  43.413  14.418
51555W        W13218  24.574  21.641  12.087
51556W        W13219  10.324  38.934   3.632
51557W        W13220  36.395  13.224  11.049
51558W        W13221  17.592  12.794  11.503
51559W        W13222   6.685  43.386   1.814
51560W        W13223   9.253  43.801   3.206
51561W        W13224  17.680  40.318   1.253
51562W        W13225   7.317  30.055  14.322
51563W        W13226   9.268  31.143  10.589
51564W        W13227  18.244  15.097   2.775
51565W        W13228  22.210  13.791   1.225
51566W        W13229   3.276  43.971   1.780
51567W        W13230  39.905  17.698   1.922
51568W        W13231  33.876  13.633  11.029
51569W        W13232  30.987  30.531  10.043
51570W        W13233   9.282   6.723  11.534
51571W        W13234  41.400   4.820  13.482
51572W        W13235  36.931  43.354  13.947
51573W        W13236   1.811   7.821  14.980
51574W        W13237  44.422  43.920  10.115
51575W        W13238  26.093  37.545   0.449
51576W        W13239   3.860  14.223   4.700
51577W        W13240  35.437  29.513   0.765
51578W        W13241   9.847  23.605  13.817
51579W        W13242  39.431  25.613   4.658
51580W        W13243   9.162   3.411   1.219
51581W        W13244   4.828  22.604  14.408
51582W        W13245  13.175   5.206  13.389
51583W        W13246  24.082  27.649  12.031
51584W        W13247  39.849  40.967  13.543
51585W        W13248  39.898  13.292  11.047
51586W        W13249  39.032   7.779   0.379
51587W        W13250  27.066  28.046   4.619
51588W        W13251  11.222  20.764  11.047
51589W        W13252   3.272   4.895  10.492
51590W        W13253  32.952  36.982   2.738
51591W        W13254  13.842   6.693  11.908
51592W        W13255   0.957  40.537   3.148
51593W        W13256  26.124   3.461  13.494
51594W        W13257  37.546  27.131   0.805
51595W        W13258  37.473   5.759   3.756
51596W        W13259  19.212  43.387   1.885
51597W        W13260  22.123  34.448  10.559
51598W        W13261  40.542  29.101   9.937
51599W        W13262  20.618  18.769   2.699
51600W        W13263  41.940  29.040   3.862
51601W        W13264  44.914  43.294  14.406
51602W        W13265  31.446   8.698   0.316
51603W        W13266   4.793  44.755   3.681
51604W        W13267   9.888  30.111   2.735
51605W        W13268   3.725  43.946   2.319
51606W        W13269  21.034  24.613   1.341
51607W        W13270  40.999  30.618  12.015
51608W        W13271   1.854  16.651   3.721
51609W        W13272   7.407   9.714   2.191
51610W        W13273  31.150  36.984  13.828
51611W        W13274   4.766  16.712   1.411
51612W        W13275  27.016  35.508  14.464
51613W        W13276  23.185  42.976   1.706
51614W        W13277  41.528  36.393  12.007
51615W        W13278  11.840   8.745   1.384
51616W        W13279   9.683  20.246   0.931
51617W        W13280  10.160  20.674  12.552
51618W        W13281   0.811  43.370  11.991
51619W        W13282   3.434  43.798  13.027
51620W        W13283   2.838  41.422   2.332
51621W        W13284   3.783   6.358  13.545
51622W        W13285  23.612   4.349   5.114
51623W        W13286  17.754   6.685   2.330
51624W        W13287  21.528  42.958   3.368
51625W        W13288   7.195  31.536   2.419
51626W        W13289  14.661  28.614   1.763
51627W        W13290  20.760  19.686   1.289
51628W        W13291  15.719  42.888   3.356
51629W        W13292  23.105  39.935   1.824
51630W        W13293  25.622   9.749   2.325
51631W        W13294  34.602   2.857   4.676
51632W        W13295  39.970  15.230   4.345
51633W        W13296  31.074  12.730   2.685
51634W        W13297   3.807  18.789  13.029
51635W        W13298   5.707  15.670  11.387
51636W        W13299   3.940  40.865   0.304
51637W        W13300   8.299  12.344  13.451
51638W        W13301  17.265   2.794   2.408
51639W        W13302  44.890  14.229   9.632
51640W        W13303  10.258  13.646   4.677
51641W        W13304  18.052  16.581  12.914
51642W        W13305   2.305  14.718  14.410
51643W        W13306   5.335  32.007  14.784
51644W        W13307   8.161  24.671  12.902
51645W        W13308  43.401  37.860   1.764
51646W        W13309   0.483  37.535  12.986
51647W        W13310  28.086  12.344   3.691
51648W        W13311  15.732  30.430   9.970
51649W        W13312   6.753  33.504  11.922
51650W        W13313   5.931  20.196  11.393
51651W        W13314  19.640   9.722  14.471
51652W        W13315   6.397  42.796  12.909
51653W        W13316  31.008  28.098   5.174
51654W        W13317   0.314  29.084  14.415
51655W        W13318  39.053   1.448   4.824
51656W        W13319  40.945  10.250   4.713
51657W        W13320  36.467   6.679   3.632
51658W        W13321  18.170   6.289   0.377
51659W        W13322   3.837  31.556  13.391
51660W        W13323  44.983  25.142   2.320
51661W        W13324  16.594  21.530   1.893
51662W        W13325  26.040   4.394   2.792
51663W        W13326  42.450  26.659  13.893
51664W        W13327  12.814   5.392   3.655
51665W        W13328   0.470  36.896  12.488
51666W        W13329  43.865  10.657  12.415
51667W        W13330  31.572  11.712   3.715
51668W        W13331  30.125  15.128   4.741
51669W        W13332  36.991  17.631  13.039
51670W        W13333  42.332   6.722  13.485
51671W        W13334  22.060  24.146   4.680
51672W        W13335   0.473  20.599  11.602
51673W        W13336  35.031  11.832  11.941
51674W        W13337  44.793   5.326   1.321
51675W        W13338  42.299  33.079   1.318
51676W        W13339  42.390  11.367  11.413
51677W        W13340  30.031  39.887   4.638
51678W        W13341  39.414  22.677   3.823
51679W        W13342   6.747   8.894   0.827
51680W        W13343  21.690  11.265   2.719
51681W        W13344   0.278  39.485  11.554
51682W        W13345  42.350   0.832   0.378
51683W        W13346  42.414  11.731  14.851
51684W        W13347   9.730   4.376   3.321
51685W        W13348   2.295  21.131  14.940
51686W        W13349  17.710  32.567  11.456
51687W        W13350  28.107   6.899  14.906
51688W        W13351  37.029  11.712  10.993
51689W        W13352  35.019  23.988   4.775
51690W        W13353  15.117  15.598   1.702
51691W        W13354  28.132  44.459   5.283
51692W        W13355  33.924  28.084   4.784
51693W        W13356   2.899  38.066  13.955
51694W        W13357  15.812  34.101   0.347
51695W        W13358  40.826  23.106  13.031
51696W        W13359  18.550  11.296  13.354
51697W        W13360  33.012  25.089   3.197
51698W        W13361  41.304  30.451  10.564
51699W        W13362  19.090  17.190  13.952
51700W        W13363   2.245  40.048   2.230
51701W        W13364  16.097  12.737  14.453
51702W        W13365  19.551   8.393   1.812
51703W        W13366  24.527  11.686   2.248
51704W        W13367  29.052  38.901   1.802
51705W        W13368   4.375  21.576  14.932
51706W        W13369  17.800  32.992   1.821
51707W        W13370  18.728  27.529   0.438
51708W        W13371   8.350  21.019   2.850
51709W        W13372  39.485   3.358  13.432
51710W        W13373  31.547  10.671  12.929
51711W        W13374  24.175  10.221   3.147
51712W        W13375  42.311  24.521  12.083
51713W        W13376  42.862  41.957   0.825
51714W        W13377  27.019  39.386   1.933
51715W        W13378  39.941  23.065   2.707
51716W        W13379  37.495   4.823   0.728
51717W        W13380  35.536   5.264  13.478
51718W        W13381  32.524   3.906  14.447
51719W        W13382  25.525  22.729  12.374
51720W        W13383  22.184  20.174   0.838
51721W        W13384  11.822  32.585  11.062
51722W        W13385  27.999  20.043   1.731
51723W        W13386   4.250  39.366   4.278
51724W        W13387  37.510   2.807  12.374
51725W        W13388  32.894  44.964  12.893
51726W        W13389  37.404   3.809   3.335
51727W        W13390   4.775  25.105  14.388
51728W        W13391  31.102  41.465  11.905
51729W        W13392  42.914  27.537   1.856
51730W        W13393  13.663  13.649   4.630
51731W        W13394   1.968  40.503   3.253
51732W        W13395  34.574   4.856  14.945
51733W        W13396   8.674  23.532   3.761
51734W        W13397  42.463   1.365   1.894
51735W        W13398  14.264   6.813  14.953
51736W        W13399   7.292  43.376  14.414
51737W        W13400   0.754   0.348  12.560
51738W        W13401  19.687  37.582   4.758
51739W        W13402  44.817  40.858  10.535
51740W        W13403  43.832  41.898  12.513
51741W        W13404  38.906  21.526  13.328
51742W        W13405  21.588  39.419   2.668
51743W        W13406  39.421  30.910  14.884
51744W        W13407  37.356  23.211   3.669
51745W        W13408  16.276   4.721  13.982
51746W        W13409  24.502   5.424   4.219
51747W        W13410  23.022   9.378   1.236
51748W        W13411  28.147  42.928  12.846
51749W        W13412   6.365  25.144   1.798
51750W        W13413  21.523   5.332   2.669
51751W        W13414  42.890  27.116   4.227
51752W        W13415  26.196   3.247  11.084
51753W        W13416  38.386  13.753   0.778
51754W        W13417   0.436  32.109  13.508
51755W        W13418  36.084  31.955   2.394
51756W        W13419   0.755   4.722   4.677
51757W        W13420   7.775  19.587  11.491
51758W        W13421  18.276  33.441   4.768
51759W        W13422  24.003  28.039   5.302
51760W        W13423  34.110  20.104   1.213
51761W        W13424  19.152   1.461  13.949
51762W        W13425  25.139  31.021  11.032
51763W        W13426   5.292  43.456   3.813
51764W        W13427  11.165  32.938  14.391
51765W        W13428  32.622  11.365  12.870
51766W        W13429   2.782   5.836  10.444
51767W        W13430  12.851  38.819   4.690
51768W        W13431  25.475   2.441   2.369
51769W        W13432  22.652  19.068  12.081
51770W        W13433  19.052  18.616  12.503
51771W        W13434  40.495   6.299  12.856
51772W        W13435  24.563  38.898   3.276
51773W        W13436  32.915  40.979  13.972
51774W        W13437  14.760   4.327  14.421
51775W        W13438   2.358   3.222   0.873
51776W        W13439  10.732   7.238  13.478
51777W        W13440  41.903   0.968   0.360
51778W        W13441  35.570  43.868  14.294
51779W        W13442  23.578   7.702  14.806
51780W        W13443  29.026  24.645   4.668
51781W        W13444   6.857   3.421   0.880
51782W        W13445  29.507  11.750   4.646
51783W        W13446  38.997   0.431   0.788
51784W        W13447  43.898  18.297  13.368
51785W        W13448  20.255  24.013   1.834
51786W        W13449   9.760  28.001  11.595
51787W        W13450  21.198  39.338   2.903
51788W        W13451  43.312  26.115   2.309
51789W        W13452  42.906  33.607   3.852
51790W        W13453  12.123  26.546   4.255
51791W        W13454  35.965  42.846  10.557
51792W        W13455  29.487   9.230   2.857
51793W        W13456  27.483  31.071   4.304
51794W        W13457  13.294  11.257   2.781
51795W        W13458  33.966  41.834  12.975
51796W        W13459  43.408  37.004   3.631
51797W        W13460  10.797  27.012   0.748
51798W        W13461  40.975  26.006   1.933
51799W        W13462   0.908  32.014   4.279
51800W        W13463  18.122  15.763  12.386
51801W        W13464  32.544  18.191  12.849
51802W        W13465   4.256  11.332   2.677
51803W        W13466   5.230  41.494  13.415
51804W        W13467  39.976   0.942  13.530
51805W        W13468  25.974  18.650  13.401
51806W        W13469   3.766  18.707  11.925
51807W        W13470  11.214   1.876  14.958
51808W        W13471   2.955  32.618  13.322
51809W        W13472  29.030   9.823   3.869
51810W        W13473   1.762  35.603   4.115
51811W        W13474   9.237   3.813  11.077
51812W        W13475  33.501   3.288  13.969
51813W        W13476  18.054  21.589  12.996
51814W        W13477  23.590  43.842   3.320
51815W        W13478  42.380  28.541   3.295
51816W        W13479   2.328   6.815   0.854
51817W        W13480  26.084  40.541  14.999
51818W        W13481  41.347  12.297   0.426
51819W        W13482   9.698  17.067  10.463
51820W        W13483  38.570  30.121   3.302
51821W        W13484  26.579  12.313  13.336
51822W        W13485  24.195  40.812  14.298
51823W        W13486  27.093  40.908  10.583
51824W        W13487  28.473   7.736  13.398
51825W        W13488  19.635  25.583   1.445
51826W        W13489  33.505  30.079   2.255
51827W        W13490  15.199  26.580  11.028
51828W        W13491  21.073   1.407  14.864
51829W        W13492   0.946  11.277   3.656
51830W        W13493  28.157  30.451   1.806
51831W        W13494  31.577  18.713  13.823
51832W        W13495   4.306  36.022   0.746
51833W        W13496   7.809  20.542  12.482
51834W        W13497  26.175  41.515  11.375
51835W        W13498  10.255  14.100  13.882
51836W        W13499   1.418  34.936   2.203
51837W        W13500  37.861  22.152   2.239
51838W        W13501  38.004   8.723  10.939
51839W        W13502  43.989  22.519   1.856
51840W        W13503  28.059  30.991  12.370
51841W        W13504  42.778  35.491   1.914
51842W        W13505  30.574  15.796  13.480
51843W        W13506  44.876  27.096  11.943
51844W        W13507  20.192  27.062  13.915
51845W        W13508  22.672   1.810  11.120
51846W        W13509   9.765  36.955  12.384
51847W        W13510  31.433   3.954  10.605
51848W        W13511  29.666  35.939   1.806
51849W        W13512  18.288   0.968   2.378
51850W        W13513   0.924  12.281  12.510
51851W        W13514   3.710   5.838  11.446
51852W        W13515  28.478   2.439   0.295
51853W        W13516   0.437  39.366  14.369
51854W        W13517  11.329  43.289   4.342
51855W        W13518  16.612   2.736  14.001
51856W        W13519   4.443  34.372   0.942
51857W        W13520  29.434  25.111   0.777
51858W        W13521  34.541  36.044  12.998
51859W        W13522  29.059  19.058  13.819
51860W        W13523  35.368   3.419   1.445
51861W        W13524  43.307  19.596   0.919
51862W        W13525   6.735  37.534  13.797
51863W        W13526   7.847  16.751   1.905
51864W        W13527   9.320  12.147  12.393
51865W        W13528  35.511  29.525   0.475
51866W        W13529  38.004  14.681   0.309
51867W        W13530  32.500  16.610  12.536
51868W        W13531  43.453  33.404   9.921
51869W        W13532  22.175  33.561  12.023
51870W        W13533   1.415  34.084  13.528
51871W        W13534   4.368  36.494   1.783
51872W        W13535  21.556   1.314  10.518
51873W        W13536   5.258  33.007  11.018
51874W        W13537  41.990   6.699   2.876
51875W        W13538  32.034  43.860   1.918
51876W        W13539   8.752  30.998  10.935
51877W        W13540  29.619  26.975  14.877
51878W        W13541  10.166  44.860  10.479
51879W        W13542   4.932   5.428   0.784
51880W        W13543   4.257  42.463   2.353
51881W        W13544  14.688  15.306  14.475
51882W        W13545   6.732   9.686  13.029
51883W        W13546   1.903  35.104  13.911
51884W        W13547  24.068  38.938  14.946
51885W        W13548  36.578  35.916  13.847
51886W        W13549   1.340   7.685   3.809
51887W        W13550  35.535  37.481   3.190
51888W        W13551  34.892  11.253   4.610
51889W        W13552  11.326   6.831   9.976
51890W        W13553  37.073   0.925   0.736
51891W        W13554   6.388  28.491   1.911
51892W        W13555  17.588  11.761   1.877
51893W        W13556  33.603  26.129   3.781
51894W        W13557  38.363   7.412  14.785
51895W        W13558  40.492   5.362   4.212
51896W        W13559  37.383  10.193   3.228
51897W        W13560   0.317   4.346   4.288
51898W        W13561  22.536  38.402   4.681
51899W        W13562   5.286  41.936   1.403
51900W        W13563  44.930  37.498   0.284
51901W        W13564  34.050  18.694   3.253
51902W        W13565  33.521  14.786   0.319
51903W        W13566  34.000  28.483  14.822
51904W        W13567   0.811  22.548  13.053
51905W        W13568  22.155  34.865  11.025
51906W        W13569   3.721  16.699   1.391
51907W        W13570  43.287  14.624   0.276
51908W        W13571  27.140  22.111  14.482
51909W        W13572  29.993  27.975   2.895
51910W        W13573   0.797   4.366   0.820
51911W        W13574  21.155  30.957   3.842
51912W        W13575  32.951   9.702  10.959
51913W        W13576  20.079  16.117  10.552
51914W        W13577  35.897   2.766   3.790
51915W        W13578   0.362  14.695   1.261
51916W        W13579  40.456  41.940   0.317
51917W        W13580  20.700  35.604  14.925
51918W        W13581  12.654  19.172  11.490
51919W        W13582  29.157  17.089  14.768
51920W        W13583  44.338  35.918  14.947
51921W        W13584  17.722  31.461  14.764
51922W        W13585  27.102  35.057   4.627
51923W        W13586  15.601  30.118  13.323
51924W        W13587  14.094  35.106   9.982
51925W        W13588  14.830  31.957  12.900
51926W        W13589  38.335  21.108   1.696
51927W        W13590  33.569  10.259   3.293
51928W        W13591  29.047   0.842  10.501
51929W        W13592  41.849   6.915  12.013
51930W        W13593  30.148  22.012   4.175
51931W        W13594  39.542  34.929   0.796
51932W        W13595  17.556  42.857  10.442
51933W        W13596  29.069   7.666   3.195
51934W        W13597  23.621  37.010  12.413
51935W        W13598  23.063   1.742  12.067
51936W        W13599  24.548  10.358  10.491
51937W        W13600  26.602  22.125   0.451
51938W        W13601  23.639   6.775   0.954
51939W        W13602  31.493  19.120  10.978
51940W        W13603  13.711  21.250   2.196
51941W        W13604  34.501   6.795  14.891
51942W        W13605   9.855   5.299   4.296
51943W        W13606  14.178  23.524   3.649
51944W        W13607  34.546  17.781  10.933
51945W        W13608  26.469  15.646   4.734
51946W        W13609   6.244   2.860   3.657
51947W        W13610  24.167  11.287   0.961
51948W        W13611  11.829  33.540   0.317
51949W        W13612  42.509  28.514  13.944
51950W        W13613  42.889  33.016  13.367
51951W        W13614  23.121  34.880   4.681
51952W        W13615   2.778   2.295  11.558
51953W        W13616  38.410  28.168   4.748
51954W        W13617  34.610  17.584  14.324
51955W        W13618   9.734  30.463  10.988
51956W        W13619  15.661  15.308   0.331
51957W        W13620  37.954  17.591  14.496
51958W        W13621  13.178  36.851  12.054
51959W        W13622   8.890  40.497  13.347
51960W        W13623  39.899  25.573   1.285
51961W        W13624  44.310   0.906   0.472
51962W        W13625  22.162  18.637  11.445
51963W        W13626  34.976  10.166  11.933
51964W        W13627   0.832  29.650  14.864
51965W        W13628  27.971  21.072  14.314
51966W        W13629  15.777  10.684  13.997
51967W        W13630  34.440  33.587  13.925
51968W        W13631  41.963  37.500  12.076
51969W        W13632  15.271  26.615  11.471
51970W        W13633  21.582  13.833  11.126
51971W        W13634   0.781  23.139  11.021
51972W        W13635  23.630  39.868  11.998
51973W        W13636  16.608  44.396   3.864
51974W        W13637   6.798  42.973   0.948
51975W        W13638  30.502  32.088  13.445
51976W        W13639  31.423  38.400  11.988
51977W        W13640  32.569  20.169  14.884
51978W        W13641  18.732  31.954   4.218
51979W        W13642  29.162  41.869   3.320
51980W        W13643  24.566  31.987  12.909
51981W        W13644   6.862   2.275   0.945
51982W        W13645  12.236  14.789   0.337
51983W        W13646  33.953   0.850  11.503
51984W        W13647   3.735  28.457   0.446
51985W        W13648  40.437  22.573  12.443
51986W        W13649  11.867  18.737  11.600
51987W        W13650  38.435   8.239   3.653
51988W        W13651  43.335  24.663  13.438
51989W        W13652  17.584  34.421   1.794
51990W        W13653   8.740  24.574   4.320
51991W        W13654  40.438  29.163   3.262
51992W        W13655  18.599  16.782  11.125
51993W        W13656   4.382  13.183  11.440
51994W        W13657  23.067  43.364   2.803
51995W        W13658  27.029  17.245   3.262
51996W        W13659   4.320  33.880   3.791
51997W        W13660   9.325  12.243  10.418
51998W        W13661  33.615  30.557   4.818
51999W        W13662  15.300  25.541  13.343
52000W        W13663  32.432  30.629  14.788
52001W        W13664  12.309  35.081   9.674
52002W        W13665   1.420  23.155   1.859
52003W        W13666  18.736  27.691   2.356
52004W        W13667  36.895  34.950  13.348
52005W        W13668  15.261  40.907   3.161
52006W        W13669  19.593  22.621  14.362
52007W        W13670   0.778  16.791   4.206
52008W        W13671   4.920  10.318  10.644
52009W        W13672  12.117  11.202   3.804
52010W        W13673  21.646  23.084  10.505
52011W        W13674   4.728  21.049   1.259
52012W        W13675  32.053   2.452  13.818
52013W        W13676  44.402  16.266   0.315
52014W        W13677  14.711  10.859   1.451
52015W        W13678  12.145   2.371  13.867
52016W        W13679   7.360  23.517   2.742
52017W        W13680  31.970  12.202   3.332
52018W        W13681  42.423  22.636   1.814
52019W        W13682  28.452  15.602   4.159
52020W        W13683  33.489   5.924   1.292
52021W        W13684  28.570  39.512  12.874
52022W        W13685  32.094  44.826   0.467
52023W        W13686  44.378  18.176  14.915
52024W        W13687  10.211  13.319   3.347
52025W        W13688  25.988   5.818   0.473
52026W        W13689  43.848  26.963  13.399
52027W        W13690  43.003  32.397  11.407
52028W        W13691  41.537  35.411  13.316
52029W        W13692  15.158  19.073   2.221
52030W        W13693  41.915   3.369  13.377
52031W        W13694  25.987   7.179  11.489
52032W        W13695  33.026  16.222  14.364
52033W        W13696  38.934   1.315   3.795
52034W        W13697  13.238  42.518  10.567
52035W        W13698   5.423  31.569   4.167
52036W        W13699  12.723  19.690  12.903
52037W        W13700  33.419  15.803   0.929
52038W        W13701  23.077  21.547   4.818
52039W        W13702  33.875   9.760  10.479
52040W        W13703   1.902  42.999   3.199
52041W        W13704  10.364  40.492  11.862
52042W        W13705   5.728  12.722   4.204
52043W        W13706   3.243   7.187   0.824
52044W        W13707  20.240  38.873   4.772
52045W        W13708  18.706  19.684  13.417
52046W        W13709  43.275  39.361  13.825
52047W        W13710  38.351  30.160  12.489
52048W        W13711  38.410  24.224  11.966
52049W        W13712  17.265   5.792  10.488
52050W        W13713  15.250   5.410   4.171
52051W        W13714  24.581  35.107   1.828
52052W        W13715  16.169   9.273   1.744
52053W        W13716   4.376   1.465   0.933
52054W        W13717  14.124   8.171  12.981
52055W        W13718  35.477   6.342  11.942
52056W        W13719  36.072  41.861  10.431
52057W        W13720   4.300  39.892   2.419
52058W        W13721  37.580  42.966  14.833
52059W        W13722  18.106  39.984  13.320
52060W        W13723   1.921  40.917  12.995
52061W        W13724   8.327   1.367   3.364
52062W        W13725  29.991  39.410   3.635
52063W        W13726  37.497   4.816   0.283
52064W        W13727  32.445  32.893   0.731
52065W        W13728  14.099  10.187  12.563
52066W        W13729  30.991  21.208  12.062
52067W        W13730  28.668   0.793  14.357
52068W        W13731  35.978  33.933   1.755
52069W        W13732  33.391  42.915  10.108
52070W        W13733  25.147  15.292   0.480
52071W        W13734  14.282  16.317   4.664
52072W        W13735   1.347  10.739   0.785
52073W        W13736   0.777  20.698   2.292
52074W        W13737  40.893  13.646   3.824
52075W        W13738  36.870  13.266   1.339
52076W        W13739  20.541  30.520   4.762
52077W        W13740  20.138  43.346  11.933
52078W        W13741   4.394   5.912  12.901
52079W        W13742  30.503  28.465   3.646
52080W        W13743  16.570  21.196  13.915
52081W        W13744  18.185  11.631   2.245
52082W        W13745  17.279  18.085  10.412
52083W        W13746  26.077  39.897  14.991
52084W        W13747   1.913  24.663  13.315
52085W        W13748  10.786  39.993   4.330
52086W        W13749   8.272  19.072  11.378
52087W        W13750  31.606  34.411  14.500
52088W        W13751  27.566   3.730  10.421
52089W        W13752  21.197  25.214   2.268
52090W        W13753  15.742   8.673  14.939
52091W        W13754  33.045  35.556   2.311
52092W        W13755  12.727  10.369  11.421
52093W        W13756   6.695  43.453  11.097
52094W        W13757  13.821   3.278  13.373
52095W        W13758  38.405  19.166   4.645
52096W        W13759  17.611  34.119  11.612
52097W        W13760  28.650  37.943  13.527
52098W        W13761  11.758  22.634  12.028
52099W        W13762  38.841  43.844  13.356
52100W        W13763   0.767  44.457  12.922
52101W        W13764  29.640  35.108  14.824
52102W        W13765   3.854   5.823   3.793
52103W        W13766  18.704  24.104  11.863
52104W        W13767  30.628  44.806  10.420
52105W        W13768   3.929   0.475  13.965
52106W        W13769  31.139  16.693   0.404
52107W        W13770  27.629  19.731  11.913
52108W        W13771  42.029   0.305  11.859
52109W        W13772  18.253  38.901   4.327
52110W        W13773   3.399  30.960  10.517
52111W        W13774  31.518  16.707   3.866
52112W        W13775  32.473  32.914  11.563
52113W        W13776  30.938  40.327  10.432
52114W        W13777  44.953   5.225   4.712
52115W        W13778  10.678  42.353   2.844
52116W        W13779  39.995  27.461  12.024
52117W        W13780  31.133  19.576   1.387
52118W        W13781  24.561  28.458  12.845
52119W        W13782  35.526  20.037   2.799
52120W        W13783  30.149  20.591  12.895
52121W        W13784  40.996   2.823  13.436
52122W        W13785  24.584  34.436   4.824
52123W        W13786  27.514  18.560   4.674
52124W        W13787   1.377  34.997  11.396
52125W        W13788  31.621  13.639   3.722
52126W        W13789  33.024   9.686   3.301
52127W        W13790  38.024   3.878  13.406
52128W        W13791  12.667   4.711   1.303
52129W        W13792   1.373  42.024  12.020
52130W        W13793  22.048  16.274  13.852
52131W        W13794  44.485  29.503  11.534
52132W        W13795  26.137   4.815  12.483
52133W        W13796  16.575   4.729   1.373
52134W        W13797  27.165  26.694  10.924
52135W        W13798  30.074   4.887  10.955
52136W        W13799  28.555  33.010   3.239
52137W        W13800  29.457  33.953   4.344
52138W        W13801   9.242   3.297   2.804
52139W        W13802  30.934  42.444   1.272
52140W        W13803   9.797  31.566   1.868
52141W        W13804  28.677  20.239   2.739
52142W        W13805  19.620  19.114   4.682
52143W        W13806  15.591  19.165  13.833
52144W        W13807  10.782  11.354   1.309
52145W        W13808  10.366  30.610   3.171
52146W        W13809  16.701  25.994  11.904
52147W        W13810   3.870   2.801  11.595
52148W        W13811  14.642  17.260   1.373
52149W        W13812  27.970   7.313   0.433
52150W        W13813  18.568  42.855   1.935
52151W        W13814  33.039  24.999  11.031
52152W        W13815  10.661  22.641  10.063
52153W        W13816  31.126   3.370  11.451
52154W        W13817  23.555  20.737   0.251
52155W        W13818  39.464  37.517  14.784
52156W        W13819  30.467  22.714   1.775
52157W        W13820  25.641  19.259  12.436
52158W        W13821  14.619   4.289  13.857
52159W        W13822   8.348  19.257  11.934
52160W        W13823  11.158   0.833  11.003
52161W        W13824  23.552  38.837  13.480
52162W        W13825  27.471  13.315  11.083
52163W        W13826   1.816  35.868  13.961
52164W        W13827  12.726  29.549   1.736
52165W        W13828  23.694  35.955  14.839
52166W        W13829  22.161   9.842   3.241
52167W        W13830  40.346  22.224   3.650
52168W        W13831  32.888  44.927  10.921
52169W        W13832  10.296  29.509   4.631
52170W        W13833  26.118  40.906  11.913
52171W        W13834  42.337   4.367  13.938
52172W        W13835  41.945  32.595   4.664
52173W        W13836   9.251   4.860   4.618
52174W        W13837   0.308  28.078  11.589
52175W        W13838  14.719  36.372  12.450
52176W        W13839  40.389  12.223   3.226
52177W        W13840  10.788   0.417  12.474
52178W        W13841  32.435  19.739  12.969
52179W        W13842  10.247   5.407  12.911
52180W        W13843   9.209  18.687  11.500
52181W        W13844  44.967   8.786   2.802
52182W        W13845  13.608   8.225  12.090
52183W        W13846  34.371  39.351   1.266
52184W        W13847  43.775  42.790  11.000
52185W        W13848  37.883   4.429   3.298
52186W        W13849  22.029  14.595   0.270
52187W        W13850  19.067  12.346   2.368
52188W        W13851   9.799   6.325   4.629
52189W        W13852  20.533  10.679  12.545
52190W        W13853   9.849  35.914  12.442
52191W        W13854  44.856   7.340   1.318
52192W        W13855   7.332  10.268   1.793
52193W        W13856  14.228  30.925   4.773
52194W        W13857  34.092  31.985   4.142
52195W        W13858   0.781  28.535  12.886
52196W        W13859   2.291   5.425   1.734
52197W        W13860  12.228  29.113  13.393
52198W        W13861  23.548  10.789   2.281
52199W        W13862  34.386  11.341   4.706
52200W        W13863   6.304  40.831   0.745
52201W        W13864   6.354  20.230   4.166
52202W        W13865  20.151  37.902  11.986
52203W        W13866   7.403   9.160  11.071
52204W        W13867   5.338  14.650   3.859
52205W        W13868  41.871  26.968   1.760
52206W        W13869  36.972  11.336  13.952
52207W        W13870  32.109  42.028  14.342
52208W        W13871  10.203  38.992   4.820
52209W        W13872  24.574  28.105   3.699
52210W        W13873   7.729  36.448  13.385
52211W        W13874  20.173  19.535  10.966
52212W        W13875  40.308   3.747  13.924
52213W        W13876  16.788  23.501   2.285
52214W        W13877  24.147  39.484  10.967
52215W        W13878   2.821  23.666   0.258
52216W        W13879  41.384   7.195   3.637
52217W        W13880  41.318  28.486  10.492
52218W        W13881  12.688  17.246  11.883
52219W        W13882  34.116   8.688  10.959
52220W        W13883  14.267  29.566  11.935
52221W        W13884  33.522  23.707   0.470
52222W        W13885   3.942   8.698  14.916
52223W        W13886  22.677  43.394   4.819
52224W        W13887  34.104   2.870  10.552
52225W        W13888  30.062  39.464   4.332
52226W        W13889  26.187  29.988  14.850
52227W        W13890   6.715  40.992   1.841
52228W        W13891  22.013  28.530   0.774
52229W        W13892   5.262  38.421   3.704
52230W        W13893  38.063  23.614   0.733
52231W        W13894  17.205  31.106   2.863
52232W        W13895   1.945   3.443  14.301
52233W        W13896  10.334  27.600   2.393
52234W        W13897  22.077  43.455   1.347
52235W        W13898  15.108  22.743   1.736
52236W        W13899  27.484  28.601   4.808
52237W        W13900  18.248  19.753   3.321
52238W        W13901  29.024   0.750  12.566
52239W        W13902   8.315   2.431  14.862
52240W        W13903  20.617  36.081   4.201
52241W        W13904   9.393   3.339   1.794
52242W        W13905  22.137  38.006   1.881
52243W        W13906   4.922  15.271  13.809
52244W        W13907   9.366  27.980   3.382
52245W        W13908  44.407   8.659  14.816
52246W        W13909  31.938   1.964   1.756
52247W        W13910  38.941  31.111  14.458
52248W        W13911  43.455   5.254   2.303
52249W        W13912  16.778  28.656   2.350
52250W        W13913  22.523  22.081   1.929
52251W        W13914  21.641  10.788   3.678
52252W        W13915  31.897  12.234   0.918
52253W        W13916  10.185  33.090  10.639
52254W        W13917  29.158  38.876   0.731
52255W        W13918  26.004  21.636   3.691
52256W        W13919  35.412  24.033  10.417
52257W        W13920  24.173  26.175   1.723
52258W        W13921  39.485  37.027  11.122
52259W        W13922  13.156  34.498  11.446
52260W        W13923  37.523  14.182  12.830
52261W        W13924  26.197  18.667  14.018
52262W        W13925  21.571  20.699  10.919
52263W        W13926   8.340  14.708   2.372
52264W        W13927   8.296  16.777   0.736
52265W        W13928   5.311   7.831  13.816
52266W        W13929  18.076  35.022   1.934
52267W        W13930  41.885  18.107  14.796
52268W        W13931   2.911  39.397   0.755
52269W        W13932  37.437  39.824  12.071
52270W        W13933  26.138  21.682   0.850
52271W        W13934  14.267  44.792   1.924
52272W        W13935  17.159  26.062   1.385
52273W        W13936  39.004  32.554  13.055
52274W        W13937  29.567  38.892  13.057
52275W        W13938  41.471  12.675   2.872
52276W        W13939  39.977  30.058  11.406
52277W        W13940  43.800  39.531   1.426
52278W        W13941  34.884   8.836   3.154
52279W        W13942  31.904  11.755  12.930
52280W        W13943   4.725  31.582   4.214
52281W        W13944  11.765  35.401  12.574
52282W        W13945  19.669  25.634  11.477
52283W        W13946  43.811   2.790   0.843
52284W        W13947   0.494  20.176  12.949
52285W        W13948  38.474   3.913  10.628
52286W        W13949   1.929  18.251  11.054
52287W        W13950  25.514  29.143   9.481
52288W        W13951  39.425  42.001   0.417
52289W        W13952  11.194  24.613  11.970
52290W        W13953  32.105  13.601   1.223
52291W        W13954  30.416   8.868   0.473
52292W        W13955   1.302   8.263   2.230
52293W        W13956  27.147  44.352  10.121
52294W        W13957  15.741   6.422   4.196
52295W        W13958  29.996  32.131  10.562
52296W        W13959  11.206   0.844  12.422
52297W        W13960   2.879   5.739  10.935
52298W        W13961  44.823   9.335   0.293
52299W        W13962  25.205  14.276  12.395
52300W        W13963   2.434  44.823  14.833
52301W        W13964  12.770  40.453  13.491
52302W        W13965  11.353  36.481  10.076
52303W        W13966  38.564  20.697  14.839
52304W        W13967  37.999   7.285   4.248
52305W        W13968   1.805  28.488   3.757
52306W        W13969   2.243  36.581  10.552
52307W        W13970  11.723  31.897   4.331
52308W        W13971  28.124  30.968  11.978
52309W        W13972  21.117  25.643   3.861
52310W        W13973  30.085  33.513  13.343
52311W        W13974   2.245  12.794  14.931
52312W        W13975  34.488  24.029   3.350
52313W        W13976   8.696  32.955   1.911
52314W        W13977  21.741  14.827   9.943
52315W        W13978  24.598   4.726  12.994
52316W        W13979  35.390  33.417   1.827
52317W        W13980  35.074  34.435   1.826
52318W        W13981  39.874   4.703   4.229
52319W        W13982  31.962  28.949  11.448
52320W        W13983   5.416  35.110   4.805
52321W        W13984   3.271  42.309  13.389
52322W        W13985  10.354  13.132   1.840
52323W        W13986  37.053  21.206  12.910
52324W        W13987  27.957   1.900  12.513
52325W        W13988   3.231   7.681  13.861
52326W        W13989   0.264  41.327  14.459
52327W        W13990   1.754  14.650   2.874
52328W        W13991  14.828  28.665  12.015
52329W        W13992  20.611  15.712   9.621
52330W        W13993  18.199  26.024  11.036
52331W        W13994   9.827  32.071  12.826
52332W        W13995  42.415  27.017  10.419
52333W        W13996   8.202   3.887   4.644
52334W        W13997  13.671   0.880  11.964
52335W        W13998  11.638  21.751  10.518
52336W        W13999  33.593   4.827   2.218
52337W        W14000  28.055  22.204  14.002
52338W        W14001  23.223  17.769   4.207
52339W        W14002   0.346  32.468   0.750
52340W        W14003  12.812  11.193   4.226
52341W        W14004   3.721   4.317  12.866
52342W        W14005  28.496  21.087  10.426
52343W        W14006  28.449  42.475   2.390
52344W        W14007   1.744   1.449  13.890
52345W        W14008  11.250   1.306   1.375
52346W        W14009  21.633  24.585  14.345
52347W        W14010  42.393  32.502   3.168
52348W        W14011  40.509  43.807  13.327
52349W        W14012  20.723  33.960   4.817
52350W        W14013   8.220  28.108  11.455
52351W        W14014  28.182  28.615  14.856
52352W        W14015  44.411  11.141  10.455
52353W        W14016  10.699  30.495   2.194
52354W        W14017  20.540  17.137   0.847
52355W        W14018  34.485   0.249  14.419
52356W        W14019  14.609  24.162   3.812
52357W        W14020   6.370   3.893   1.337
52358W        W14021  23.616  17.246  11.958
52359W        W14022  42.905  35.908   3.765
52360W        W14023  16.194  21.538  11.507
52361W        W14024  26.485   5.222  13.376
52362W        W14025   7.404  42.316   4.713
52363W        W14026  17.695  12.731  11.021
52364W        W14027  26.476  24.157  12.070
52365W        W14028  41.330  23.712  12.389
52366W        W14029  42.009  13.778  13.980
52367W        W14030   6.797   2.261  11.577
52368W        W14031  44.885   0.932  10.486
52369W        W14032  33.525  35.409   1.844
52370W        W14033  11.190  34.461  11.104
52371W        W14034  33.056  21.685  14.319
52372W        W14035   4.433  17.651  12.052
52373W        W14036   5.373  36.996   1.694
52374W        W14037   3.237  10.854  12.352
52375W        W14038  29.490  34.556   0.462
52376W        W14039  36.392  38.991  12.524
52377W        W14040  31.934  17.572  10.456
52378W        W14041  30.065  29.063  14.933
52379W        W14042   2.788  20.674  10.644
52380W        W14043   5.855  43.275   0.287
52381W        W14044   4.941  43.832   4.169
52382W        W14045  25.055  36.012   4.221
52383W        W14046  38.340  13.212  11.031
52384W        W14047   2.955   3.378  12.579
52385W        W14048  21.607   4.752   2.343
52386W        W14049  28.544  36.473  14.344
52387W        W14050  40.811  36.945  11.030
52388W        W14051  34.485  34.931  14.853
52389W        W14052   0.750   9.325   1.407
52390W        W14053  26.994  36.482  13.062
52391W        W14054  19.535  36.424   3.770
52392W        W14055   2.391  21.674   0.967
52393W        W14056  10.237   5.287   1.748
52394W        W14057  19.768  30.982   3.274
52395W        W14058   9.315  28.009  11.966
52396W        W14059  34.429  18.761   3.352
52397W        W14060  20.689  39.390  12.856
52398W        W14061  21.039  43.338  10.525
52399W        W14062  37.014   5.277  11.951
52400W        W14063  36.922  11.665  14.417
52401W        W14064  36.986  21.037  12.557
52402W        W14065  31.540  24.186  14.353
52403W        W14066   0.979  13.753   0.926
52404W        W14067  18.279  31.426  14.872
52405W        W14068   6.200   9.349   3.739
52406W        W14069  19.279  28.058   3.180
52407W        W14070  36.935  29.620  11.483
52408W        W14071  33.394  18.287   1.841
52409W        W14072  38.453  35.928  13.919
52410W        W14073  35.432  34.451  11.006
52411W        W14074  44.757  10.745  12.513
52412W        W14075  16.626  29.924  14.881
52413W        W14076  32.903  37.890   1.901
52414W        W14077  19.706  30.568   1.767
52415W        W14078   7.729  40.861   0.380
52416W        W14079   0.256  23.160  12.980
52417W        W14080   6.862  23.550   0.457
52418W        W14081  41.821  31.952  13.876
52419W        W14082   5.222  18.222  12.470
52420W        W14083  35.572  22.060  10.404
52421W        W14084  23.240  12.641   3.845
52422W        W14085  31.412  41.803   0.286
52423W        W14086  44.280   7.813  11.915
52424W        W14087   5.287  15.311  14.923
52425W        W14088  22.188  15.176  11.904
52426W        W14089  24.035   0.369  14.944
52427W        W14090   5.364  28.934  14.828
52428W        W14091   4.393  22.060  11.888
52429W        W14092   4.827  38.844   5.284
52430W        W14093   3.385  25.518  12.493
52431W        W14094   5.866  19.132  10.983
52432W        W14095  37.960   7.287  11.508
52433W        W14096  33.382   8.338  12.834
52434W        W14097   5.234   0.269  12.431
52435W        W14098  22.550   9.341  14.422
52436W        W14099  30.936  17.574   2.884
52437W        W14100  40.037   7.363   3.752
52438W        W14101   0.989  16.701   1.301
52439W        W14102  37.504  10.695  13.849
52440W        W14103  37.038  38.331  14.508
52441W        W14104   5.759  18.122   0.331
52442W        W14105  28.963  27.692  14.474
52443W        W14106  28.128  38.457   4.664
52444W        W14107  25.177   5.776   1.888
52445W        W14108  16.282  29.603   4.240
52446W        W14109  38.477  14.828   4.652
52447W        W14110  27.631  34.979  11.942
52448W        W14111  25.518  22.701  11.970
52449W        W14112  42.390  10.757   5.168
52450W        W14113  20.042  13.334  11.610
52451W        W14114  11.780  11.704   1.716
52452W        W14115  28.951  41.398  11.511
52453W        W14116  29.072   9.289   4.609
52454W        W14117  44.929  27.096   1.753
52455W        W14118   2.953  15.190  11.118
52456W        W14119  31.515  39.864  12.529
52457W        W14120  12.307  19.174  13.518
52458W        W14121  41.894  22.078   2.798
52459W        W14122  32.999  10.224  14.439
52460W        W14123   8.803  44.354  10.065
52461W        W14124  44.296   2.461  14.398
52462W        W14125  36.961  12.175   2.246
52463W        W14126   4.797  41.505  11.469
52464W        W14127  20.561   9.764   2.294
52465W        W14128  14.620   2.306  10.615
52466W        W14129  37.977  22.023   1.252
52467W        W14130   6.321   3.807  11.445
52468W        W14131  31.585  25.560   4.293
52469W        W14132  20.146  35.432  13.862
52470W        W14133   5.297  28.985   4.787
52471W        W14134  15.641  25.622  11.577
52472W        W14135  29.091  27.657   0.892
52473W        W14136  30.983  15.169  11.386
52474W        W14137   5.294  36.974   2.840
52475W        W14138   3.759  16.797  13.347
52476W        W14139  28.976  20.261   0.844
52477W        W14140  29.061  35.358  14.762
52478W        W14141  21.667   8.703  13.510
52479W        W14142   2.811   3.868   4.304
52480W        W14143   6.396  34.402  10.092
52481W        W14144  13.182  19.177   1.221
52482W        W14145  24.174  18.189   0.267
52483W        W14146  19.061   2.273  12.435
52484W        W14147  35.899  31.958  11.111
52485W        W14148   1.248   3.846   4.736
52486W        W14149   3.350  17.677   0.366
52487W        W14150  41.395   8.735   3.787
52488W        W14151   8.873  37.028   1.935
52489W        W14152  19.198  15.752  13.893
52490W        W14153   6.716   9.216   1.224
52491W        W14154  13.698  38.343   3.688
52492W        W14155  24.647  16.085  13.368
52493W        W14156  30.003  12.136  12.374
52494W        W14157  25.579  43.278   1.770
52495W        W14158   3.258  26.063  12.463
52496W        W14159   5.804  35.972   2.741
52497W        W14160  43.372  37.048   4.813
52498W        W14161  40.036  25.638  11.501
52499W        W14162  32.131   9.354   4.162
52500W        W14163  20.039  31.618  13.453
52501W        W14164  40.350  19.117  11.572
52502W        W14165   2.861  40.035  13.366
52503W        W14166   1.461  18.624  11.997
52504W        W14167  10.237  12.317  12.550
52505W        W14168  26.141  37.871  12.411
52506W        W14169  39.829   9.376   0.941
52507W        W14170  37.001   0.400   1.266
52508W        W14171  35.511  14.782  10.564
52509W        W14172  38.385  13.621   2.321
52510W        W14173  13.229  22.667   3.339
52511W        W14174  25.669  27.182   2.258
52512W        W14175   8.319  32.102  10.944
52513W        W14176  35.987  20.754  13.048
52514W        W14177  41.862  35.912   3.839
52515W        W14178   2.451  42.366   2.807
52516W        W14179  24.994  18.632   4.277
52517W        W14180  44.276  33.547   1.887
52518W        W14181  34.019  29.590   4.239
52519W        W14182  10.744  29.665   3.298
52520W        W14183   7.332  10.793  14.797
52521W        W14184   3.793  16.280  11.976
52522W        W14185  12.840  29.499  11.437
52523W        W14186   9.693  18.236  14.428
52524W        W14187   2.962  40.411   0.843
52525W        W14188  10.769  19.190  10.438
52526W        W14189  24.583  22.520  12.911
52527W        W14190  33.015  38.387  13.352
52528W        W14191  32.598  24.989  12.878
52529W        W14192  23.167   7.213  13.990
52530W        W14193  29.502  41.483   2.699
52531W        W14194  14.138  37.437  13.016
52532W        W14195  24.717  28.144   0.785
52533W        W14196  15.267  12.800   1.443
52534W        W14197  10.146   9.885   4.343
52535W        W14198   8.713  20.142   0.468
52536W        W14199  22.619  31.445   3.381
52537W        W14200  29.012  33.979   3.734
52538W        W14201  25.093  10.665  11.065
52539W        W14202  38.389   3.895   1.898
52540W        W14203  26.186  28.037   2.863
52541W        W14204   9.691  37.846   3.316
52542W        W14205  11.212  38.022   2.219
52543W        W14206   5.770  14.798   1.749
52544W        W14207  43.402   1.961  12.407
52545W        W14208  14.325  30.505   4.701
52546W        W14209  36.990  31.932   4.226
52547W        W14210   4.441  43.941  10.974
52548W        W14211  43.866   8.843   3.758
52549W        W14212  37.545  18.278  11.117
52550W        W14213  40.375  36.538  14.006
52551W        W14214  42.462  27.978   3.812
52552W        W14215  19.180  26.470   0.297
52553W        W14216  31.028   3.808   0.340
52554W        W14217   8.658  38.356   3.840
52555W        W14218  42.802  34.876   3.637
52556W        W14219  27.004  15.577   9.975
52557W        W14220  43.822  10.870   0.874
52558W        W14221  22.155  36.377   0.357
52559W        W14222  20.527  39.472  14.382
52560W        W14223  26.559   8.714  10.605
52561W        W14224  42.300   9.238   1.830
52562W        W14225  29.106   0.853  12.991
52563W        W14226  32.494  18.195   1.377
52564W        W14227  43.926  17.100  13.921
52565W        W14228  28.677   4.290  14.484
52566W        W14229   1.807  33.512   4.716
52567W        W14230  35.042  44.492  14.921
52568W        W14231  37.004  34.979   2.843
52569W        W14232  15.633   8.801  10.512
52570W        W14233  24.599   0.310  14.827
52571W        W14234  10.310   5.794   0.348
52572W        W14235  29.473  23.526   2.681
52573W        W14236  18.655  16.692  13.812
52574W        W14237  40.410  15.817   3.671
52575W        W14238  30.417  27.635  11.052
52576W        W14239  15.194  40.437  10.538
52577W        W14240  19.678   6.852  10.611
52578W        W14241   4.336  24.095   4.698
52579W        W14242  32.124  44.468  12.881
52580W        W14243  29.140   9.685  11.940
52581W        W14244  32.579  34.096  14.004
52582W        W14245   9.342  13.696  12.573
52583W        W14246  21.554  16.155  10.101
52584W        W14247  21.656  39.009   3.747
52585W        W14248   3.224  11.753  13.954
52586W        W14249  38.405   8.864   0.912
52587W        W14250  13.325   9.175   1.731
52588W        W14251  34.559   4.288   2.333
52589W        W14252   1.821   2.347  10.408
52590W        W14253  34.928   5.874   3.159
52591W        W14254  23.492   9.162  11.024
52592W        W14255  31.002  21.187   5.174
52593W        W14256  21.112  44.338   2.827
52594W        W14257  19.543  12.792  11.483
52595W        W14258   2.438  27.627   1.770
52596W        W14259  35.884  32.430   2.771
52597W        W14260   3.311   2.773  10.418
52598W        W14261  36.895  16.588   0.868
52599W        W14262  38.021  26.974  13.009
52600W        W14263  43.868   2.938   3.696
52601W        W14264  39.003  34.919  14.811
52602W        W14265  36.979  40.430   4.709
52603W        W14266   2.950  15.729   3.749
52604W        W14267  28.177  28.533   1.775
52605W        W14268  26.199  26.088  11.375
52606W        W14269  38.892  23.010  11.887
52607W        W14270   3.948   4.232   0.313
52608W        W14271  38.930  42.470  10.598
52609W        W14272  21.070  34.383  12.516
52610W        W14273  28.567  19.586   3.691
52611W        W14274  22.036   6.771   5.252
52612W        W14275   9.314  32.603   4.729
52613W        W14276   1.401  25.989  10.583
52614W        W14277  19.055  13.250  10.960
52615W        W14278  30.057  21.730   2.408
52616W        W14279  20.260   8.364  12.053
52617W        W14280  17.598   3.831  12.963
52618W        W14281  19.040   0.487  12.009
52619W        W14282  33.054   2.802  12.988
52620W        W14283  18.198  25.022  14.003
52621W        W14284  28.163  18.204  12.463
52622W        W14285   6.232   8.345   3.268
52623W        W14286  27.664  13.746  10.964
52624W        W14287  39.909  12.784  13.541
52625W        W14288  44.935  31.972  10.412
52626W        W14289  26.665  21.151  10.994
52627W        W14290   3.785  30.586   3.633
52628W        W14291  36.561  29.475  12.832
52629W        W14292  17.558   7.376   4.759
52630W        W14293   5.260  44.939   3.754
52631W        W14294  21.069  38.995  13.819
52632W        W14295  42.871  40.357   1.255
52633W        W14296  30.928  17.669   3.244
52634W        W14297   6.257  25.119   3.634
52635W        W14298  31.415  10.822  13.876
52636W        W14299  12.640  28.957   3.691
52637W        W14300   4.861   0.864   2.410
52638W        W14301   0.918  22.747   4.782
52639W        W14302  44.981  20.262   1.414
52640W        W14303  14.252   7.744  10.918
52641W        W14304   3.417  22.220  14.830
52642W        W14305  33.948  36.408  13.477
52643W        W14306  24.692  38.853  13.044
52644W        W14307   8.864  37.881   5.300
52645W        W14308  29.643  43.516  13.970
52646W        W14309  38.324   8.321  11.980
52647W        W14310  30.932  12.767   4.331
52648W        W14311  13.150  34.384   1.266
52649W        W14312  22.579  33.518  11.573
52650W        W14313  41.822  10.222   3.805
52651W        W14314  34.899  26.115   3.288
52652W        W14315   8.218  39.342   1.765
52653W        W14316  29.459  30.511  12.371
52654W        W14317  29.928   4.223  11.097
52655W        W14318  12.627  20.572  13.502
52656W        W14319  37.513  33.060  11.970
52657W        W14320   7.850  14.099  14.390
52658W        W14321  11.812  22.207   2.289
52659W        W14322   6.364  15.105  14.833
52660W        W14323  32.412  16.644   0.806
52661W        W14324  43.817  36.075   0.929
52662W        W14325  27.680   9.201  11.922
52663W        W14326  26.207  43.454   0.927
52664W        W14327   2.321  17.304  14.902
52665W        W14328  38.056  43.777   2.304
52666W        W14329  41.361  20.608   0.483
52667W        W14330   9.675  43.958  14.846
52668W        W14331  21.247  21.059   5.250
52669W        W14332  37.550  37.055  11.396
52670W        W14333   9.157  18.255   3.695
52671W        W14334   6.387  27.114  12.441
52672W        W14335   4.818  16.185   1.846
52673W        W14336  11.153  15.273  10.483
52674W        W14337  42.021   1.914  13.020
52675W        W14338   5.784  33.415  11.568
52676W        W14339  31.064  33.875   4.298
52677W        W14340  16.273  38.465  14.782
52678W        W14341  22.071  26.996  14.396
52679W        W14342  30.987  12.669  10.550
52680W        W14343  11.799  24.590  12.092
52681W        W14344   3.731  37.387  10.512
52682W        W14345   0.326   8.685   4.155
52683W        W14346   8.793  34.086  14.505
52684W        W14347  35.548  33.426  11.986
52685W        W14348   2.954  23.084  14.880
52686W        W14349  15.229  22.076   0.865
52687W        W14350  42.805   7.209   3.696
52688W        W14351  13.275  16.078   0.744
52689W        W14352  11.652  25.667  11.030
52690W        W14353  32.599  20.167   2.372
52691W        W14354  24.022   7.767  13.014
52692W        W14355  20.110   4.848  13.342
52693W        W14356  27.171  15.799   3.383
52694W        W14357   0.851   1.759  10.049
52695W        W14358  36.094  15.186  10.502
52696W        W14359  25.967  35.868  14.960
52697W        W14360   0.269  37.865  12.981
52698W        W14361  24.990  39.011   3.285
52699W        W14362  42.367   1.952  14.017
52700W        W14363  41.981  38.918  10.519
52701W        W14364  15.788   3.828  12.850
52702W        W14365  34.115  14.326  11.463
52703W        W14366  20.527   4.443   2.872
52704W        W14367  15.132   8.172  14.003
52705W        W14368  23.501   4.855  14.851
52706W        W14369  14.257   9.860  14.280
52707W        W14370   2.288  37.547  14.775
52708W        W14371  37.488  41.501  11.391
52709W        W14372  14.150   4.417   3.857
52710W        W14373  23.558  20.524   0.814
52711W        W14374  30.146  25.145  13.547
52712W        W14375  34.953   7.675  12.089
52713W        W14376   6.917  33.444  10.418
52714W        W14377  30.936  31.059  13.389
52715W        W14378  27.685  26.092   4.792
52716W        W14379  33.435  19.666   2.699
52717W        W14380  24.021  12.268   4.747
52718W        W14381   4.762   7.833   5.098
52719W        W14382   2.426  15.223   2.362
52720W        W14383  35.516  20.616  13.443
52721W        W14384   0.831  42.942   0.279
52722W        W14385  44.376  13.635   1.814
52723W        W14386   2.958  13.161   1.880
52724W        W14387  19.227   6.228   0.887
52725W        W14388  10.312  10.352   1.403
52726W        W14389   2.358   7.269  12.419
52727W        W14390  11.738  35.936   2.234
52728W        W14391  13.794  29.147   4.637
52729W        W14392  35.477  37.460  10.598
52730W        W14393   5.414  21.681  13.539
52731W        W14394   7.890   0.782   3.357
52732W        W14395  32.933  21.174  14.836
52733W        W14396  42.365  24.588   2.217
52734W        W14397  10.257  44.879   3.283
52735W        W14398  29.571   6.855  14.364
52736W        W14399  13.642  42.478  11.987
52737W        W14400  16.796  25.631  13.857
52738W        W14401  29.463  30.652  14.853
52739W        W14402  41.838  13.336  14.327
52740W        W14403   3.722  24.206  13.823
52741W        W14404  15.252  31.595   2.386
52742W        W14405   7.276   5.422   1.715
52743W        W14406   2.743  16.693  14.387
52744W        W14407   7.308   2.253   2.229
52745W        W14408  23.169  16.248  14.867
52746W        W14409  23.194  30.499  13.835
52747W        W14410  31.560  15.109   4.739
52748W        W14411  13.273  43.885   3.810
52749W        W14412  37.515  13.710  11.085
52750W        W14413  25.035  38.428   4.732
52751W        W14414   0.771  14.114  14.795
52752W        W14415   6.392  12.649  11.546
52753W        W14416  42.316  17.269   3.719
52754W        W14417  19.087  44.286   3.198
52755W        W14418   2.303  11.294  10.562
52756W        W14419  23.577  37.958  12.080
52757W        W14420  34.450  17.695  13.957
52758W        W14421  11.332  30.058   1.334
52759W        W14422  36.577  33.890   0.260
52760W        W14423  42.976  43.979  12.978
52761W        W14424  22.615  36.446   3.630
52762W        W14425  44.428  23.599  14.322
52763W        W14426   2.760  20.077   1.703
52764W        W14427  23.730  42.519  12.989
52765W        W14428  22.671  15.633  11.501
52766W        W14429  41.817  35.379  11.107
52767W        W14430  32.433   8.161   0.956
52768W        W14431   4.270  32.888  14.761
52769W        W14432  21.152  13.350  12.386
52770W        W14433  14.321  22.013  10.446
52771W        W14434   1.908  37.062  11.992
52772W        W14435  37.449   7.723   1.935
52773W        W14436  25.991  11.716  12.045
52774W        W14437  24.563   0.319   0.437
52775W        W14438  22.575  19.547  12.030
52776W        W14439  17.704  39.989   0.864
52777W        W14440  14.226  15.764   1.714
52778W        W14441  29.570  21.688  10.444
52779W        W14442  43.008  35.996  11.376
52780W        W14443  34.374  39.337   3.367
52781W        W14444  43.311  18.771  12.545
52782W        W14445  19.732  21.253   2.294
52783W        W14446  32.425  44.980  14.951
52784W        W14447  44.969  14.786  11.395
52785W        W14448   7.709  21.250   4.202
52786W        W14449   1.834  25.184   1.227
52787W        W14450  23.050   3.253  13.376
52788W        W14451   0.439  28.484  13.432
52789W        W14452  31.572  37.934   4.722
52790W        W14453  29.945  43.020  11.126
52791W        W14454   4.824  19.278  11.011
52792W        W14455  16.313   8.761  11.119
52793W        W14456   3.367  37.961   3.268
52794W        W14457   0.457  41.033  13.369
52795W        W14458  35.561  12.159  14.296
52796W        W14459  18.264  31.463   3.176
52797W        W14460   6.827   3.825   2.409
52798W        W14461  41.017  31.084  11.548
52799W        W14462   0.340  42.809   2.389
52800W        W14463  35.007  24.500   4.732
52801W        W14464  23.643  32.490  12.416
52802W        W14465  29.466   5.352  11.451
52803W        W14466   3.229  16.173  14.364
52804W        W14467  32.546  22.099   1.223
52805W        W14468  43.845  14.803   2.373
52806W        W14469   9.289  23.043   2.223
52807W        W14470  41.950  37.061   3.344
52808W        W14471  13.157  10.835   3.299
52809W        W14472  16.162  12.347  14.298
52810W        W14473   1.885  17.138   2.321
52811W        W14474   8.873  15.211   0.437
52812W        W14475  19.265  18.568  12.905
52813W        W14476  20.757  39.011  13.851
52814W        W14477   5.411  15.238   4.170
52815W        W14478  42.819  32.488  13.439
52816W        W14479  43.006  42.481  14.815
52817W        W14480  42.813  19.170  14.943
52818W        W14481  23.049  32.390   3.707
52819W        W14482   2.284  18.193   4.233
52820W        W14483  17.673  33.502  14.935
52821W        W14484   5.325   3.415  13.948
52822W        W14485  23.199   6.270  13.439
52823W        W14486   0.404   1.768   2.804
52824W        W14487  20.665  33.092   3.262
52825W        W14488  37.548  10.811   4.702
52826W        W14489  23.622  17.113   0.269
52827W        W14490  23.592  35.429  12.399
52828W        W14491   6.774  39.398   2.805
52829W        W14492  24.061  16.217  10.620
52830W        W14493  24.210  19.171   1.434
52831W        W14494  18.252  29.988  10.450
52832W        W14495  36.471  29.649   1.779
52833W        W14496  32.933  14.624   0.403
52834W        W14497  13.829  27.591  12.879
52835W        W14498  16.078  16.216  14.479
52836W        W14499  30.415  30.578  13.986
52837W        W14500  36.465  20.693  10.942
52838W        W14501  18.105   4.741  13.802
52839W        W14502  44.433  25.970  12.579
52840W        W14503  16.112  41.025   1.327
52841W        W14504  18.704  30.125   3.732
52842W        W14505  24.139   0.341   4.204
52843W        W14506   5.766  23.136   3.306
52844W        W14507  35.962  32.969   0.730
52845W        W14508  26.470  18.293  13.954
52846W        W14509  18.129   8.202  11.953
52847W        W14510  38.353   4.369   0.804
52848W        W14511  40.916  44.785   2.307
52849W        W14512  36.856   9.291  14.469
52850W        W14513   9.382  11.264   3.308
52851W        W14514   0.937  11.831  12.860
52852W        W14515  35.379  27.551   3.644
52853W        W14516  27.596  42.854  12.572
52854W        W14517  16.098  11.163   1.905
52855W        W14518  41.002  42.901   1.329
52856W        W14519  29.423   1.388  10.584
52857W        W14520  12.118  44.500  13.981
52858W        W14521   0.969   2.876   0.387
52859W        W14522  37.464  25.550  13.308
52860W        W14523  37.894  35.963   1.905
52861W        W14524  42.361  39.955   4.658
52862W        W14525  17.257  32.029   3.205
52863W        W14526  19.673  29.480  13.541
52864W        W14527   9.735  29.053   1.443
52865W        W14528   0.751  14.701  10.619
52866W        W14529   3.865   4.922   0.757
52867W        W14530  14.789   4.700  11.960
52868W        W14531   0.960  10.140  12.911
52869W        W14532  23.606  37.973  12.868
52870W        W14533  44.968  27.460  12.383
52871W        W14534  25.138  28.961   3.311
52872W        W14535   3.808  40.409   0.340
52873W        W14536  40.898  13.601  14.453
52874W        W14537   4.724  29.664   0.289
52875W        W14538  30.562   9.310   0.475
52876W        W14539  17.129  40.406  13.925
52877W        W14540  25.984  36.922  11.510
52878W        W14541  27.163  10.288  13.317
52879W        W14542  44.798  15.791  13.482
52880W        W14543  27.124  26.536  10.420
52881W        W14544  11.209  30.085   4.779
52882W        W14545   6.800   3.729  13.793
52883W        W14546  14.242  32.025  11.905
52884W        W14547   5.778   1.245  13.484
52885W        W14548  15.093  10.277  10.965
52886W        W14549  12.187  34.371   2.784
52887W        W14550   8.380  43.768   3.765
52888W        W14551   7.207  13.840  13.446
52889W        W14552   8.173  40.000  13.534
52890W        W14553  44.876  20.561  11.016
52891W        W14554  43.944   9.273   5.262
52892W        W14555  19.259  32.096  11.510
52893W        W14556  18.605   1.245   1.912
52894W        W14557  36.851  29.432  10.932
52895W        W14558  18.295   5.774  14.868
52896W        W14559  29.465   2.465  11.000
52897W        W14560  18.282  27.542  10.466
52898W        W14561  24.723   3.364   0.857
52899W        W14562  33.888   2.801   4.240
52900W        W14563   3.425  39.899  13.449
52901W        W14564  12.256  14.707  10.576
52902W        W14565  22.585  42.987   4.826
52903W        W14566  37.424  13.834  12.533
52904W        W14567   5.700  20.232   4.757
52905W        W14568  36.348   1.960   1.888
52906W        W14569  12.202  17.088  12.394
52907W        W14570  23.536  40.416   0.757
52908W        W14571  11.864   3.396   3.770
52909W        W14572   0.363  25.567  11.384
52910W        W14573  21.739  24.684  12.515
52911W        W14574   5.842  16.604   1.743
52912W        W14575  33.395   2.764  12.361
52913W        W14576  18.555  17.294   1.288
52914W        W14577  21.547  17.727  10.914
52915W        W14578   8.852  26.656  12.485
52916W        W14579  22.581   7.243   2.762
52917W        W14580  10.819  27.481  12.893
52918W        W14581  24.570   3.227   3.703
52919W        W14582  44.421   2.942  12.476
52920W        W14583  39.496  12.115  12.502
52921W        W14584  17.588  17.162  12.996
52922W        W14585  23.208  33.453   4.341
52923W        W14586  11.226  30.601  14.412
52924W        W14587   8.717  23.703  13.513
52925W        W14588  28.676  25.104  14.760
52926W        W14589  14.785   4.768  13.026
52927W        W14590  13.844  39.960  10.949
52928W        W14591   2.912  44.811  12.463
52929W        W14592  39.972   2.929   2.410
52930W        W14593  16.259  34.501   0.302
52931W        W14594  12.768  10.658   0.897
52932W        W14595  40.836   8.167   0.471
52933W        W14596   7.866  10.682   2.358
52934W        W14597  10.197  10.189  13.399
52935W        W14598  10.352  38.464   4.249
52936W        W14599  34.401   3.930   1.884
52937W        W14600  29.607   5.870   3.307
52938W        W14601  28.982  24.512   1.833
52939W        W14602  10.379  14.737  12.516
52940W        W14603  39.007  36.433   1.756
52941W        W14604  41.410  18.590   2.349
52942W        W14605  29.109  19.060   4.630
52943W        W14606  37.381  37.077  11.066
52944W        W14607  24.990   7.350   1.367
52945W        W14608  31.049   3.446  10.561
52946W        W14609  38.432  31.957   2.229
52947W        W14610   1.943   5.227   3.188
52948W        W14611   9.226  38.059   3.381
52949W        W14612   3.357  34.483   2.364
52950W        W14613  30.621  35.036   5.097
52951W        W14614   6.691  40.971  13.807
52952W        W14615  11.661  44.885  12.510
52953W        W14616  23.586  11.242   4.162
52954W        W14617  38.397  24.215  12.969
52955W        W14618  28.453  34.038  14.333
52956W        W14619  32.425  31.600  10.963
52957W        W14620  21.212  41.395   2.666
52958W        W14621  27.114  13.774   1.779
52959W        W14622  44.334  38.943   2.794
52960W        W14623  39.539   4.391   0.804
52961W        W14624  40.529  17.755   2.414
52962W        W14625  18.630   9.846  10.638
52963W        W14626  24.721   4.388  14.885
52964W        W14627  33.416  37.029   0.311
52965W        W14628  40.518   8.850   4.314
52966W        W14629  15.246  28.634  13.390
52967W        W14630  35.089  20.618   0.255
52968W        W14631  44.282  36.402  13.461
52969W        W14632   6.740  11.704   4.764
52970W        W14633  17.655  18.597   2.764
52971W        W14634  14.634   0.413  10.458
52972W        W14635  13.666  41.292   0.795
52973W        W14636  27.114  30.438   0.777
52974W        W14637  30.556  33.091   0.466
52975W        W14638  27.107  42.512   9.923
52976W        W14639  39.517   8.233   4.257
52977W        W14640   4.839  22.601   2.231
52978W        W14641  38.050   0.972   3.695
52979W        W14642  17.741  23.672   1.889
52980W        W14643  43.365  42.909   1.402
52981W        W14644  18.548  38.518   1.279
52982W        W14645   1.897  21.679  14.006
52983W        W14646  32.497  25.157   2.752
52984W        W14647  25.595  17.575  11.872
52985W        W14648  30.018   9.179   4.207
52986W        W14649  42.406  22.078   1.280
52987W        W14650  13.729  36.060   3.319
52988W        W14651  29.077  15.250   1.430
52989W        W14652  22.171   1.482  10.008
52990W        W14653  11.140  43.976   3.746
52991W        W14654   0.850  35.012  13.496
52992W        W14655  39.890  30.144  12.347
52993W        W14656   3.385  11.172   3.233
52994W        W14657  24.601  29.992  14.836
52995W        W14658  21.169  16.719   3.782
52996W        W14659  35.974  20.745   1.422
52997W        W14660   9.664  22.214   4.145
52998W        W14661  16.304   8.803  13.343
52999W        W14662  20.048  43.499   1.909
53000W        W14663  20.039  19.052   0.872
53001W        W14664  20.586  44.010  12.850
53002W        W14665  17.181  37.447  11.375
53003W        W14666  33.624  20.613   3.297
53004W        W14667  39.407  21.625  10.924
53005W        W14668  20.541   5.905   4.805
53006W        W14669   2.736  44.775  12.901
53007W        W14670  14.616  35.570   2.326
53008W        W14671  30.111   3.461   0.444
53009W        W14672  32.489  22.995   2.775
53010W        W14673  28.069   5.410   3.705
53011W        W14674  38.005  16.299   4.173
53012W        W14675  21.685  40.043  13.331
53013W        W14676  22.575  42.287   3.721
53014W        W14677  36.477  29.561   0.945
53015W        W14678   3.908  39.912  12.553
53016W        W14679  39.489  32.035  14.823
53017W        W14680  21.746  44.465   3.217
53018W        W14681  29.558  38.345  12.464
53019W        W14682   0.355   2.956   3.205
53020W        W14683  14.679  37.992  11.483
53021W        W14684  34.488  31.041  12.987
53022W        W14685  11.639  34.941   4.611
53023W        W14686  22.584  15.127  11.475
53024W        W14687  43.937   6.331  12.045
53025W        W14688  16.078  25.067  11.393
53026W        W14689  12.167  13.135  10.578
53027W        W14690  13.345  14.802   1.849
53028W        W14691  15.643   8.170   1.864
53029W        W14692  36.441  10.652   2.386
53030W        W14693  33.952   2.235  11.537
53031W        W14694  38.849  37.363   0.949
53032W        W14695  17.177  33.403  14.771
53033W        W14696  40.988  32.533   1.395
53034W        W14697  42.916  36.991   0.277
53035W        W14698   2.456  26.668  10.985
53036W        W14699  27.074  39.852   3.226
53037W        W14700  14.247  30.080  14.285
53038W        W14701  15.226  27.522  10.531
53039W        W14702  35.072  18.618   4.712
53040W        W14703  35.500   8.274   0.906
53041W        W14704  35.107  42.969  13.883
53042W        W14705  33.974  11.813   1.765
53043W        W14706  13.133   1.800  12.347
53044W        W14707   6.724  44.885   0.404
53045W        W14708  38.495   5.233   3.192
53046W        W14709  28.541  41.956   3.659
53047W        W14710  19.718   7.727   1.779
53048W        W14711  10.332  38.876  13.325
53049W        W14712   0.923  16.272  14.302
53050W        W14713   0.847   1.924   0.772
53051W        W14714  22.070  39.420  14.817
53052W        W14715   3.718  24.026   1.370
53053W        W14716  33.574  41.993   0.416
53054W        W14717  15.697   5.357   0.737
53055W        W14718  11.191  22.199   0.958
53056W        W14719  35.857  43.915  11.932
53057W        W14720   9.365  12.208   3.295
53058W        W14721  14.336  30.495   4.172
53059W        W14722   3.794   2.934   4.166
53060W        W14723  26.592  36.038   0.261
53061W        W14724  40.397   4.854  12.946
53062W        W14725  34.889  35.460   0.353
53063W        W14726  23.123  19.643   2.263
53064W        W14727  32.442  16.604  10.049
53065W        W14728  11.169  24.107   0.269
53066W        W14729  38.894  37.075  11.423
53067W        W14730   8.795  13.327   4.607
53068W        W14731  25.606  43.940  13.033
53069W        W14732  30.449  26.999   0.254
53070W        W14733  10.157   9.888  11.114
53071W        W14734  14.732  18.757  13.356
53072W        W14735  16.234   2.454   3.380
53073W        W14736  12.809   1.394   0.862
53074W        W14737  17.098  14.114  11.989
53075W        W14738   2.355  41.328  13.535
53076W        W14739  33.939  42.929  11.438
53077W        W14740  26.628   6.689  13.446
53078W        W14741   4.744  17.194  11.548
53079W        W14742  27.456  16.765   2.324
53080W        W14743   6.338  25.483   1.775
53081W        W14744  35.380  37.573  14.282
53082W        W14745  34.596  41.796   2.372
53083W        W14746  21.588  36.443  13.482
53084W        W14747  20.530  17.677   3.862
53085W        W14748   3.851   8.261   3.672
53086W        W14749  42.345  34.379  11.043
53087W        W14750  15.649  35.510  11.394
53088W        W14751   1.745  36.882  10.604
53089W        W14752   3.245   2.460  12.825
53090W        W14753  42.306  37.579   1.305
53091W        W14754   6.245  28.507  13.042
53092W        W14755  39.330  37.984   0.798
53093W        W14756  20.538   5.767  14.898
53094W        W14757  29.126  38.016  14.812
53095W        W14758  38.436  19.579  12.530
53096W        W14759  12.666  37.501   1.292
53097W        W14760  11.166  41.482  13.451
53098W        W14761  44.815   0.490   4.297
53099W        W14762   6.267   4.266  13.798
53100W        W14763  26.072  22.537   4.187
53101W        W14764  30.930   8.800  12.556
53102W        W14765  18.607  34.092  13.794
53103W        W14766   5.774  20.533  11.916
53104W        W14767  34.014   2.875  12.953
53105W        W14768  44.786  28.148   4.761
53106W        W14769  11.780  40.439   2.195
53107W        W14770  19.207  11.334   0.844
53108W        W14771  38.870  13.814  13.427
53109W        W14772  40.886  20.142  10.502
53110W        W14773   7.340  26.701   2.336
53111W        W14774  40.972  38.518  13.457
53112W        W14775  27.134  32.923  12.047
53113W        W14776  30.914  39.441   1.841
53114W        W14777  34.464   0.257   3.700
53115W        W14778  30.944  12.821   1.829
53116W        W14779  36.971  13.797   1.923
53117W        W14780  31.459  44.861   3.698
53118W        W14781  44.341  38.859   2.230
53119W        W14782  43.275  10.791   1.742
53120W        W14783  40.485  11.142  13.340
53121W        W14784  15.642  20.713  10.907
53122W        W14785  34.610  42.003   1.248
53123W        W14786  31.465  30.098   4.160
53124W        W14787  17.788  19.075  14.302
53125W        W14788   0.794  29.580   1.823
53126W        W14789   7.292  11.205   3.204
53127W        W14790  40.440  18.589   0.867
53128W        W14791  28.950   9.853   0.436
53129W        W14792  19.536   3.800   4.352
53130W        W14793  21.021   0.418   0.447
53131W        W14794   2.315  35.419   0.283
53132W        W14795  22.088  38.541  11.957
53133W        W14796  34.034  24.228   0.332
53134W        W14797  32.099   8.680  11.007
53135W        W14798  29.450  31.445   4.343
53136W        W14799  18.750  41.876   4.666
53137W        W14800  14.741   9.363   5.274
53138W        W14801  37.845   3.831   3.206
53139W        W14802  17.676   1.865  10.457
53140W        W14803  30.925   9.767   4.615
53141W        W14804   4.848  32.090  14.491
53142W        W14805  21.602  16.152   1.917
53143W        W14806  29.546  34.915  13.352
53144W        W14807   4.765   3.747  14.280
53145W        W14808  17.180  16.750   0.752
53146W        W14809  13.768  15.107  13.335
53147W        W14810  28.005  39.455  12.928
53148W        W14811  14.738   6.901  10.527
53149W        W14812   6.413  23.504  10.483
53150W        W14813  43.493  12.802  10.611
53151W        W14814  40.902  35.475   2.398
53152W        W14815   0.861  43.348   1.795
53153W        W14816  44.379  12.241  10.931
53154W        W14817  10.285  36.577  13.995
53155W        W14818   9.232  32.114  11.948
53156W        W14819  42.930   2.868   0.934
53157W        W14820  15.611  29.102  11.092
53158W        W14821   1.435   6.328  13.528
53159W        W14822  10.806  29.612  12.830
53160W        W14823  10.275  23.593  14.759
53161W        W14824  11.697  17.090   9.943
53162W        W14825  37.511   3.762   4.613
53163W        W14826  34.551  42.782  11.434
53164W        W14827   4.808  25.143  10.412
53165W        W14828  14.224  13.602   0.260
53166W        W14829  23.609  22.618  11.610
53167W        W14830   6.707   6.739  13.883
53168W        W14831  43.446  27.529   4.203
53169W        W14832   8.357  13.177  13.029
53170W        W14833  11.773  37.507  12.482
53171W        W14834  32.070  24.101  10.429
53172W        W14835   9.840  26.553   2.697
53173W        W14836   1.438  29.636   2.795
53174W        W14837  17.799  26.631   0.856
53175W        W14838  21.033  13.615   1.714
53176W        W14839  13.720  15.213   1.212
53177W        W14840  17.247  29.586   0.349
53178W        W14841   7.289  13.668  13.008
53179W        W14842  29.925   6.697  12.916
53180W        W14843  16.118  17.638   0.356
53181W        W14844   7.208  36.557  14.794
53182W        W14845   2.449  24.119   2.358
53183W        W14846  30.129  30.523   0.836
53184W        W14847  29.151   1.920  13.374
53185W        W14848   5.424  33.436  13.475
53186W        W14849  37.906  29.023   3.867
53187W        W14850   9.881  37.830   1.815
53188W        W14851  12.634  10.141   1.795
53189W        W14852   0.826  38.875   5.141
53190W        W14853  29.119  29.612  13.023
53191W        W14854   0.317  10.193  14.301
53192W        W14855  37.407  36.393   0.338
53193W        W14856   6.849  14.142  14.445
53194W        W14857  21.228  31.425   0.273
53195W        W14858  14.254   5.371   1.909
53196W        W14859  44.261  39.952  10.946
53197W        W14860  18.598   8.222   1.915
53198W        W14861  42.923  33.971   3.274
53199W        W14862  18.610   1.255   3.163
53200W        W14863   9.377  17.633   1.304
53201W        W14864   6.792   6.336   3.816
53202W        W14865  23.124  27.086  13.031
53203W        W14866   8.813  13.614   3.185
53204W        W14867  33.499  42.011  12.023
53205W        W14868  19.076  29.090   4.171
53206W        W14869   7.200  21.561   3.800
53207W        W14870  20.042  29.111   3.799
53208W        W14871   9.671  33.130   2.886
53209W        W14872   9.862  38.432  11.875
53210W        W14873  44.969  41.302  12.888
53211W        W14874   0.376  29.984   3.359
53212W        W14875  35.982  43.344  14.491
53213W        W14876  16.712  29.054  14.954
53214W        W14877   3.748  41.386  12.053
53215W        W14878  40.866  11.160  10.409
53216W        W14879  24.538  27.012   0.774
53217W        W14880  10.635  18.256  14.405
53218W        W14881  38.356  44.302  13.884
53219W        W14882   3.824  35.009   4.123
53220W        W14883  34.892   2.472   4.607
53221W        W14884  24.576   4.351  14.299
53222W        W14885  19.679  36.848   0.445
53223W        W14886  13.601  14.120  11.976
53224W        W14887  44.259   9.851  11.587
53225W        W14888  19.141  15.754   1.408
53226W        W14889  39.858  26.129   2.881
53227W        W14890  37.423  28.106  14.894
53228W        W14891   5.738  35.023  12.853
53229W        W14892  20.570   1.249   0.312
53230W        W14893  32.464   7.298   3.641
53231W        W14894  26.007  30.524  11.492
53232W        W14895  33.390  40.016   3.241
53233W        W14896  15.768  36.032  13.531
53234W        W14897  36.073   3.737   1.901
53235W        W14898  10.793   8.848  10.914
53236W        W14899   5.872  20.544  12.844
53237W        W14900  31.607  42.876  11.033
53238W        W14901  13.110   4.442  10.550
53239W        W14902  14.677   1.262  11.129
53240W        W14903  37.835  32.068   1.408
53241W        W14904  28.173  34.950  11.087
53242W        W14905  30.994  27.669   4.157
53243W        W14906   0.389  17.143  13.329
53244W        W14907  25.650  19.585   3.154
53245W        W14908  16.181   7.254  12.862
53246W        W14909  42.963  24.139  12.557
53247W        W14910  30.966  17.233  14.321
53248W        W14911  38.478   9.275   1.448
53249W        W14912   8.655  37.928  11.093
53250W        W14913   8.246   1.766  14.298
53251W        W14914  26.967  27.960  11.511
53252W        W14915  30.600   2.392  14.786
53253W        W14916   7.346  29.097  10.514
53254W        W14917  44.431  44.772   4.191
53255W        W14918  42.281  27.584  12.911
53256W        W14919   5.367  15.780  10.446
53257W        W14920  28.663  30.462   2.886
53258W        W14921   3.880   2.748  11.119
53259W        W14922  36.884  44.280  10.498
53260W        W14923  15.583   6.223   0.905
53261W        W14924  12.771  41.975   4.776
53262W        W14925   2.796  13.283  12.925
53263W        W14926  28.143  18.179   4.324
53264W        W14927  38.404  37.449   4.201
53265W        W14928  39.934   4.712  13.389
53266W        W14929  21.147  37.346  10.545
53267W        W14930  23.229  38.448   3.676
53268W        W14931  13.616  19.551  14.324
53269W        W14932  34.493   4.845   4.751
53270W        W14933  14.753  33.390   0.951
53271W        W14934   3.395  39.399  11.538
53272W        W14935  33.077  32.500  11.964
53273W        W14936  24.116  16.764   2.353
53274W        W14937   4.918  15.296  14.896
53275W        W14938  41.862  13.656   2.180
53276W        W14939  15.649  39.988   4.807
53277W        W14940   2.782   1.281   4.260
53278W        W14941  32.943   9.307  10.889
53279W        W14942   0.415  14.744   4.623
53280W        W14943  34.995  37.060   2.293
53281W        W14944   0.489  19.546  13.340
53282W        W14945  10.190  29.518   5.086
53283W        W14946  27.022  11.844   4.322
53284W        W14947   1.766  23.141  13.004
53285W        W14948  25.658  36.854   4.143
53286W        W14949  11.788  20.768  14.326
53287W        W14950  19.050  11.650   2.901
53288W        W14951   2.860   0.885  14.367
53289W        W14952   8.283  30.431  14.451
53290W        W14953  42.905  16.608  10.535
53291W        W14954  31.009  30.554   5.111
53292W        W14955  24.086  10.814  10.497
53293W        W14956   6.695  15.623   3.368
53294W        W14957   1.325   8.361   0.933
53295W        W14958   4.919   7.783   4.314
53296W        W14959  31.455  36.907   3.200
53297W        W14960  17.785  32.561  14.435
53298W        W14961  38.502  27.118   1.855
53299W        W14962  42.975  25.010   1.810
53300W        W14963  14.790  36.424   0.951
53301W        W14964  12.751  29.629   1.439
53302W        W14965  13.206  41.440   5.130
53303W        W14966  21.179  38.342  12.918
53304W        W14967  10.799  26.550  14.759
53305W        W14968   3.318  21.745   1.232
53306W        W14969  33.010  39.853   2.893
53307W        W14970   9.863  10.706   4.318
53308W        W14971  19.559  34.013  11.110
53309W        W14972   1.946  27.690   1.306
53310W        W14973  34.120  39.959   4.644
53311W        W14974  42.923  29.490   4.677
53312W        W14975  21.247  34.894   4.172
53313W        W14976  34.050   5.399   1.903
53314W        W14977  43.464  34.082   1.728
53315W        W14978  42.297  11.372  12.531
53316W        W14979  10.682  18.191   0.752
53317W        W14980  14.718   9.370  10.007
53318W        W14981   6.851  36.585  12.512
53319W        W14982  14.727  13.782  13.420
53320W        W14983  43.978   9.791   5.696
53321W        W14984   5.394  19.732  11.089
53322W        W14985   5.740  43.291  14.967
53323W        W14986  39.957   0.415   2.668
53324W        W14987   8.236   2.902   4.137
53325W        W14988  27.029  38.358  13.940
53326W        W14989  25.049  35.021   0.303
53327W        W14990  27.517  26.557   2.881
53328W        W14991  25.627  21.162  11.401
53329W        W14992   1.935  43.858  10.641
53330W        W14993   1.840  24.556  14.279
53331W        W14994  37.510  40.512  12.422
53332W        W14995  43.408  40.504   2.716
53333W        W14996  37.508  27.545  10.987
53334W        W14997  24.694  35.437  10.643
53335W        W14998   8.328  28.440  12.875
53336W        W14999   7.260   3.931   2.846
53337W        W15000  28.033  35.890  11.871
53338W        W15001  20.537  40.983   0.319
53339W        W15002  29.473   6.835  14.980
53340W        W15003  36.348  38.026  11.093
53341W        W15004  29.493   9.857  11.954
53342W        W15005  24.118  26.109   2.807
53343W        W15006  23.192  23.177   0.740
53344W        W15007  21.208  19.216  13.993
53345W        W15008  28.571  32.958  10.992
53346W        W15009   4.935  38.377  12.358
53347W        W15010  29.480  42.800  13.981
53348W        W15011  41.042  19.080  12.846
53349W        W15012   4.379  20.060  12.078
53350W        W15013  44.313   4.361   4.199
53351W        W15014  20.078  35.074   1.300
53352W        W15015  38.472  38.393   1.835
53353W        W15016   1.821  32.561  13.399
53354W        W15017   4.786  12.135  13.818
53355W        W15018  27.072  22.647   1.392
53356W        W15019  34.477   5.790   3.216
53357W        W15020   4.248   1.392  11.374
53358W        W15021  16.161   7.778   0.776
53359W        W15022  44.956   5.888  12.035
53360W        W15023  33.122   4.801   2.837
53361W        W15024  32.052  28.472  12.465
53362W        W15025  13.660  27.138   4.659
53363W        W15026  13.178  41.793   0.334
53364W        W15027  26.459  33.582  14.473
53365W        W15028  18.084  15.657  13.317
53366W        W15029  12.769   0.816  11.940
53367W        W15030  31.587  17.668   3.630
53368W        W15031  38.885  27.658  10.972
53369W        W15032   9.874  15.118  12.552
53370W        W15033  44.010  34.569   1.269
53371W        W15034  43.449  22.082   1.801
53372W        W15035  12.677   2.770  13.795
53373W        W15036   6.237  22.156   1.800
53374W        W15037  38.438  38.932  12.491
53375W        W15038   5.298  38.389  13.053
53376W        W15039  37.371  10.653   2.705
53377W        W15040  19.733  18.234  14.841
53378W        W15041   9.712   7.895   3.801
53379W        W15042  20.106   8.788  14.889
53380W        W15043  12.242  29.974   2.780
53381W        W15044  29.510  19.553   1.228
53382W        W15045  38.362  25.009  14.301
53383W        W15046  15.781  16.237  10.089
53384W        W15047   6.367  18.068  13.016
53385W        W15048  34.522  32.115  14.810
53386W        W15049  15.142   7.669  14.861
53387W        W15050  33.421   8.234  10.614
53388W        W15051  28.524   5.719  13.403
53389W        W15052  32.008  43.835   2.823
53390W        W15053  34.493  12.266  13.807
53391W        W15054  43.287   7.744  13.045
53392W        W15055  31.001  36.371  11.579
53393W        W15056  16.202  15.650  13.323
53394W        W15057   7.836  15.106  14.027
53395W        W15058  27.085  21.235  11.420
53396W        W15059   2.336  42.027   2.262
53397W        W15060  24.498  15.661  11.569
53398W        W15061  33.499  21.715  13.443
53399W        W15062  13.218   4.343   2.270
53400W        W15063  18.060  28.527   4.644
53401W        W15064  28.963   8.245  14.365
53402W        W15065  43.869  33.526  14.337
53403W        W15066  23.011  11.218   0.869
53404W        W15067  32.062  33.007   4.837
53405W        W15068  11.141  16.116   2.857
53406W        W15069  17.729  43.395   2.803
53407W        W15070  13.789   1.857  12.554
53408W        W15071   7.885  21.702   4.175
53409W        W15072  43.981  32.438  13.352
53410W        W15073  39.481   4.329  12.566
53411W        W15074  33.464  32.466  10.901
53412W        W15075  11.169   9.674  12.962
53413W        W15076  34.927  44.898  10.553
53414W        W15077   2.366   0.789   4.226
53415W        W15078  13.263  28.937  12.472
53416W        W15079  39.316   0.888  11.436
53417W        W15080   8.349   7.267   1.229
53418W        W15081  13.169  13.340   0.799
53419W        W15082  38.903  36.555  14.484
53420W        W15083  12.668  11.634   3.835
53421W        W15084  18.774  44.365  14.328
53422W        W15085  16.723   3.936   1.783
53423W        W15086  32.612  18.673  12.983
53424W        W15087  42.517   3.710   4.193
53425W        W15088   7.244  10.175   0.868
53426W        W15089  11.696  37.861  13.356
53427W        W15090  10.275  21.078  10.020
53428W        W15091  11.178  24.697  14.455
53429W        W15092  23.725   8.348   2.256
53430W        W15093  35.577  21.745   5.201
53431W        W15094  39.873   3.932   4.684
53432W        W15095  34.874   4.699   5.280
53433W        W15096  14.648  34.536   2.704
53434W        W15097   3.909  30.940  14.868
53435W        W15098   2.412   0.274   0.413
53436W        W15099  36.512   9.813   2.799
53437W        W15100  21.152  41.457  11.606
53438W        W15101  43.929  29.574   4.329
53439W        W15102  14.119  36.881  13.950
53440W        W15103  20.600  12.121  10.407
53441W        W15104  11.764  34.395  11.613
53442W        W15105  28.164  42.980  11.952
53443W        W15106  19.697  20.747   2.893
53444W        W15107  16.690   8.733  11.005
53445W        W15108   9.264  32.592   1.429
53446W        W15109  29.487  17.127  10.908
53447W        W15110  17.146  26.964  14.833
53448W        W15111  21.175   0.805  11.054
53449W        W15112  22.703  32.988  13.920
53450W        W15113   6.861  11.799  11.087
53451W        W15114   0.946  26.662   4.310
53452W        W15115  16.781  15.639   2.258
53453W        W15116  31.036  30.572   2.864
53454W        W15117   9.223  11.626   1.710
53455W        W15118  44.271  15.268   5.169
53456W        W15119  41.860  33.380  14.282
53457W        W15120  13.193  31.584   0.329
53458W        W15121  23.003  11.147   2.687
53459W        W15122  21.633   0.775  11.118
53460W        W15123  15.675   2.272   0.313
53461W        W15124  30.122  22.652  12.367
53462W        W15125  24.535  22.714   2.407
53463W        W15126  29.926  40.445   0.260
53464W        W15127  33.106  15.745  10.478
53465W        W15128  10.157  20.733   3.772
53466W        W15129  14.728  33.998   0.931
53467W        W15130   6.297  30.141   2.855
53468W        W15131  29.049  34.064   1.894
53469W        W15132   4.747   7.899  13.511
53470W        W15133  44.988  42.285  10.413
53471W        W15134  30.606  26.195   3.852
53472W        W15135  14.597  17.077   0.736
53473W        W15136  31.060  36.080  11.887
53474W        W15137   8.353   1.838  12.425
53475W        W15138   2.937  27.482  10.960
53476W        W15139  40.932   8.744   1.890
53477W        W15140   2.726  33.938  14.485
53478W        W15141  37.377   1.915  11.096
53479W        W15142  28.157  20.251  14.475
53480W        W15143  14.750   8.818  11.592
53481W        W15144  18.259  14.321   9.938
53482W        W15145  10.163   2.426   5.250
53483W        W15146  40.341  43.766  12.378
53484W        W15147   6.381  38.855   3.162
53485W        W15148  13.183   0.940   2.672
53486W        W15149  44.505  35.371  13.471
53487W        W15150  16.787   2.305  11.954
53488W        W15151  16.679  24.698  10.437
53489W        W15152  25.966  36.450   4.231
53490W        W15153  10.751  20.140   0.406
53491W        W15154  40.367  21.644   3.329
53492W        W15155  13.796  37.496   2.301
53493W        W15156  18.124  34.948   0.755
53494W        W15157  23.589  15.694  13.343
53495W        W15158  33.923  44.926   0.747
53496W        W15159  28.580  37.517   2.283
53497W        W15160  16.203   3.797   3.723
53498W        W15161  15.285  27.148  12.361
53499W        W15162   0.349  44.395   1.708
53500W        W15163  12.625   2.362  12.995
53501W        W15164  27.525  15.092  12.472
53502W        W15165   4.745  28.048   1.397
53503W        W15166  17.281  19.588   0.483
53504W        W15167  18.276   4.439   4.756
53505W        W15168  29.523  10.260  11.527
53506W        W15169   9.794   9.786  12.551
53507W        W15170  13.772   4.299  14.895
53508W        W15171   3.375  21.656   2.792
53509W        W15172  38.452  24.172   3.857
53510W        W15173  20.745  25.144  12.529
53511W        W15174  16.191  36.999  11.490
53512W        W15175  30.497   6.870   1.723
53513W        W15176  35.538  35.887   1.301
53514W        W15177   0.344   0.882  11.987
53515W        W15178  36.552   1.875  14.855
53516W        W15179  22.201  16.093   4.616
53517W        W15180  43.439   1.827  14.412
53518W        W15181  37.914  34.921   1.881
53519W        W15182   3.320   5.198   2.246
53520W        W15183  42.514   9.730  12.361
53521W        W15184  42.478   1.282   0.409
53522W        W15185   0.799  16.256   0.748
53523W        W15186   8.760   7.276  13.951
53524W        W15187  31.490  10.305  12.954
53525W        W15188  41.824  13.831  13.431
53526W        W15189  19.720  27.971   2.766
53527W        W15190   2.838   4.936  13.047
53528W        W15191  19.209   5.198   2.328
53529W        W15192  31.566  34.955   0.278
53530W        W15193  40.372  30.978  14.428
53531W        W15194  25.979   0.960  12.441
53532W        W15195  11.848  16.212  13.462
53533W        W15196  18.775  44.920   2.344
53534W        W15197   7.246  13.229   2.203
53535W        W15198  34.490  10.296  14.786
53536W        W15199   6.829  21.734  11.432
53537W        W15200  14.631  42.785   3.316
53538W        W15201  25.558  12.230  10.887
53539W        W15202  16.778  40.437   4.312
53540W        W15203  14.815  33.894   1.851
53541W        W15204  10.330  18.251  11.586
53542W        W15205  10.827  39.827  14.457
53543W        W15206  18.582   2.278   1.368
53544W        W15207  41.353  43.818   2.834
53545W        W15208  27.165  14.148   4.725
53546W        W15209  16.712  24.527  11.488
53547W        W15210  39.429  14.337  11.502
53548W        W15211   1.455  43.857  10.987
53549W        W15212  30.595  35.050   3.215
53550W        W15213   5.433  37.913   2.364
53551W        W15214  36.382  31.088  14.875
53552W        W15215  35.867  31.517   2.323
53553W        W15216  17.771   1.974  14.466
53554W        W15217  19.592  24.165   5.242
53555W        W15218  31.996  16.253  11.612
53556W        W15219  10.365   2.448   4.235
53557W        W15220   2.327  22.666   1.844
53558W        W15221  39.911   7.307   2.761
53559W        W15222  13.314  28.474  12.470
53560W        W15223   0.284  41.968  11.600
53561W        W15224  28.641  42.920  14.909
53562W        W15225  14.606  32.500  13.947
53563W        W15226  22.626   4.204   2.731
53564W        W15227  23.990   4.856  14.004
53565W        W15228  38.522   0.833   0.446
53566W        W15229   7.750  33.080   4.228
53567W        W15230  28.024   7.829  14.302
53568W        W15231  11.244  23.167   1.702
53569W        W15232  16.776  31.014   2.848
53570W        W15233  28.166   3.710  12.494
53571W        W15234   9.702  26.599   1.744
53572W        W15235  33.895  44.300   0.419
53573W        W15236   7.208  27.069  12.845
53574W        W15237  35.588   6.400   2.842
53575W        W15238  33.570  42.779   0.386
53576W        W15239   0.933  23.192  10.644
53577W        W15240   2.228  20.071   1.934
53578W        W15241  14.316   7.670   1.366
53579W        W15242   4.443   8.191  12.565
53580W        W15243  28.666  13.835  13.014
53581W        W15244  38.047  11.848   0.456
53582W        W15245  30.445   3.801   4.187
53583W        W15246  14.628  26.548  13.990
53584W        W15247   0.790   7.307  12.567
53585W        W15248  17.646   5.838   3.745
53586W        W15249  18.249   9.772  10.988
53587W        W15250   1.439  21.663   0.405
53588W        W15251  23.012  26.460   1.803
53589W        W15252  40.516  27.197  12.859
53590W        W15253  29.591   9.285  12.357
53591W        W15254  13.742  19.129  12.424
53592W        W15255  16.211  38.016  10.978
53593W        W15256  23.990  42.793   1.286
53594W        W15257  19.236  32.022  13.862
53595W        W15258  25.023  35.858  10.925
53596W        W15259   7.749   1.900   2.326
53597W        W15260   0.892  42.466  14.785
53598W        W15261  32.128  16.256  13.856
53599W        W15262   7.344  42.346  14.328
53600W        W15263  18.159  20.633   2.388
53601W        W15264  39.809  20.180   2.179
53602W        W15265  34.884  22.711   2.756
53603W        W15266  16.679  10.684  12.831
53604W        W15267  17.753   7.370   3.311
53605W        W15268  17.295   6.357   1.256
53606W        W15269   3.955  34.445  14.022
53607W        W15270   6.322  13.123  11.075
53608W        W15271  13.109  29.090   1.762
53609W        W15272   8.691  43.314   1.424
53610W        W15273   2.952  34.901   0.245
53611W        W15274   7.712   3.436  14.366
53612W        W15275  11.722  24.669   2.875
53613W        W15276  20.556  18.569   0.482
53614W        W15277  43.393  29.121  13.042
53615W        W15278  14.274  29.156   3.836
53616W        W15279  23.180  37.889   2.257
53617W        W15280  40.508  31.105   3.308
53618W        W15281  16.728  17.612   3.726
53619W        W15282   3.333  18.616   2.344
53620W        W15283  35.907  14.260   4.331
53621W        W15284  19.593  36.374   4.202
53622W        W15285  42.805  35.455  11.397
53623W        W15286  37.486  39.536  10.889
53624W        W15287  44.479  20.189  14.405
53625W        W15288   7.172  36.971  14.510
53626W        W15289  39.319  32.457   4.260
53627W        W15290   0.436  37.832  13.995
53628W        W15291  19.206  18.189  13.885
53629W        W15292  20.656  14.262  11.019
53630W        W15293   7.850  28.161  12.375
53631W        W15294  31.577  20.573   3.350
53632W        W15295  20.205  43.327  14.291
53633W        W15296   3.733  21.046   0.364
53634W        W15297   0.409   0.327  10.508
53635W        W15298   2.368   0.770   2.886
53636W        W15299  43.437  16.289  12.833
53637W        W15300   1.356  35.381  14.820
53638W        W15301  34.543  39.905   3.313
53639W        W15302  19.676   4.889   4.603
53640W        W15303  19.534  19.203  11.939
53641W        W15304  16.609  19.592  14.294
53642W        W15305  17.754   6.357   4.821
53643W        W15306  39.063  18.740   4.604
53644W        W15307  27.163   7.328   2.887
53645W        W15308  33.994  42.024   4.603
53646W        W15309   2.284  16.810  12.075
53647W        W15310  40.548  28.070   1.905
53648W        W15311  26.043  42.847   2.301
53649W        W15312  43.011  33.977   0.415
53650W        W15313  30.080   5.214  14.949
53651W        W15314   7.410  26.013   3.707
53652W        W15315  27.138   0.867   1.738
53653W        W15316  20.560  23.702  11.415
53654W        W15317  25.662  19.141  13.867
53655W        W15318  24.114  28.626  12.530
53656W        W15319  22.097  12.706  12.574
53657W        W15320  25.011  37.519  11.469
53658W        W15321  29.656  15.728  11.938
53659W        W15322  16.617  34.972  13.974
53660W        W15323  18.191  12.719   4.829
53661W        W15324  15.232  38.982   2.359
53662W        W15325  11.676   6.711  10.022
53663W        W15326   7.243  10.326  12.899
53664W        W15327  17.659  39.019  11.112
53665W        W15328  39.980  18.655   0.856
53666W        W15329  27.472   7.910  11.944
53667W        W15330  31.572  13.764   3.323
53668W        W15331   9.708  36.572   0.459
53669W        W15332   4.298   6.414  14.433
53670W        W15333  23.207   6.243   2.306
53671W        W15334  28.547  30.423   0.792
53672W        W15335  17.108  31.479  13.929
53673W        W15336   9.880  42.441   3.274
53674W        W15337  15.153  19.161  13.340
53675W        W15338   8.297  10.223   4.218
53676W        W15339  36.992  14.614   3.221
53677W        W15340  37.362  18.551  10.923
53678W        W15341   9.654  21.084  14.976
53679W        W15342  10.870  10.874  11.501
53680W        W15343   8.885  33.061  13.540
53681W        W15344  24.025   4.411   2.785
53682W        W15345  19.770  30.414  10.429
53683W        W15346  35.033  16.314   0.762
53684W        W15347  20.047  40.840   0.901
53685W        W15348  23.595  41.885   1.765
53686W        W15349  11.129  33.553  11.491
53687W        W15350  16.679  24.128  10.567
53688W        W15351  35.365  17.145  12.857
53689W        W15352  44.325  12.765   0.757
53690W        W15353  15.771  23.080   1.315
53691W        W15354  41.483  29.447   2.766
53692W        W15355  41.813  38.542   0.411
53693W        W15356   8.286  17.152  14.857
53694W        W15357  23.585  44.846  14.432
53695W        W15358  24.626  40.029   2.374
53696W        W15359  24.558  37.915   0.470
53697W        W15360  31.460   3.871   0.347
53698W        W15361   0.959  34.439  14.279
53699W        W15362  12.127  25.481   2.252
53700W        W15363  31.081   9.731   2.791
53701W        W15364  21.214  40.527   2.797
53702W        W15365  42.802  41.328   1.377
53703W        W15366  21.679  27.490   3.853
53704W        W15367  23.712  19.727  11.517
53705W        W15368  32.126  15.692   1.807
53706W        W15369  17.666  36.562  13.010
53707W        W15370  32.140   3.874   3.330
53708W        W15371  43.979   2.358  14.894
53709W        W15372  19.286  26.570   4.663
53710W        W15373  13.324  23.211  14.286
53711W        W15374  24.051  42.904  14.366
53712W        W15375  35.531  25.703  12.385
53713W        W15376   6.219  27.049   1.702
53714W        W15377  38.364  29.020  13.389
53715W        W15378  38.457  30.553   2.288
53716W        W15379  14.198   3.232   2.783
53717W        W15380  15.150   9.713   2.410
53718W        W15381  27.002  34.952  14.957
53719W        W15382  22.597  11.239   3.324
53720W        W15383  18.669   0.969  11.941
53721W        W15384   0.920   3.935   4.619
53722W        W15385  15.124  41.518   3.844
53723W        W15386   3.369   6.256   1.244
53724W        W15387   4.746   5.885   3.816
53725W        W15388  15.743  32.617   3.186
53726W        W15389  22.224  32.513  14.843
53727W        W15390  32.968  41.404   0.402
53728W        W15391  42.372  44.360  10.953
53729W        W15392   8.827  32.977   2.359
53730W        W15393  19.177  36.520  12.843
53731W        W15394   5.222  20.154   3.671
53732W        W15395  22.136  43.785  11.456
53733W        W15396  21.252  37.530   1.767
53734W        W15397  40.858  43.343   4.172
53735W        W15398  30.022  18.593  14.772
53736W        W15399  33.042  41.315   2.754
53737W        W15400  18.156  20.167   2.259
53738W        W15401  40.310  21.524   4.312
53739W        W15402   3.773  24.212   1.827
53740W        W15403  20.265   1.741   0.868
53741W        W15404  27.592  41.472   2.786
53742W        W15405  17.692  11.129  10.979
53743W        W15406  38.940  28.096  12.058
53744W        W15407   7.855  42.003   0.352
53745W        W15408  30.433  24.641   0.331
53746W        W15409  17.644  37.876  12.950
53747W        W15410  36.013  35.903  14.342
53748W        W15411  11.837  16.616   1.211
53749W        W15412  38.012  41.299  10.501
53750W        W15413  16.086  14.194   9.948
53751W        W15414  43.329   9.313  12.090
53752W        W15415   3.365  13.603   0.361
53753W        W15416   8.665   8.847   0.365
53754W        W15417  21.538  30.113   2.197
53755W        W15418  36.486  17.156   4.769
53756W        W15419  42.013  30.088  11.472
53757W        W15420  34.441  39.410  11.021
53758W        W15421  10.186  32.109   5.204
53759W        W15422  28.982  37.037   3.855
53760W        W15423  21.538  26.684   2.768
53761W        W15424  17.772   2.900   3.818
53762W        W15425  31.121  15.593  14.979
53763W        W15426  43.505  43.981  13.897
53764W        W15427  33.894  44.758   3.698
53765W        W15428  37.523  42.292  11.054
53766W        W15429   8.686   2.464  12.963
53767W        W15430   3.240  29.586   1.306
53768W        W15431  32.546  27.979   3.698
53769W        W15432   8.726  35.981   3.722
53770W        W15433  24.069  22.051   3.783
53771W        W15434  35.986  12.151  11.107
53772W        W15435  18.562  39.314  13.951
53773W        W15436   3.421  15.714   4.215
53774W        W15437  30.073   3.256  12.004
53775W        W15438   9.782  38.839   2.390
53776W        W15439  12.672  37.078  14.357
53777W        W15440  34.527  35.993   4.179
53778W        W15441  12.239  36.062   0.953
53779W        W15442  19.608  31.581  12.900
53780W        W15443  28.145   8.778   2.373
53781W        W15444   5.781  14.129   0.726
53782W        W15445  33.068  37.044  13.063
53783W        W15446  37.418   8.767   0.425
53784W        W15447  10.213  37.953   2.374
53785W        W15448  16.162  40.996  14.430
53786W        W15449   8.228  40.951   1.237
53787W        W15450  19.128  37.076   4.280
53788W        W15451  10.666  34.500  12.531
53789W        W15452  42.381  18.607  12.426
53790W        W15453  34.929  40.524   9.965
53791W        W15454   6.205  15.814  11.492
53792W        W15455  32.945  17.698   4.240
53793W        W15456  30.431  28.554  10.555
53794W        W15457  35.874   5.320   2.400
53795W        W15458  19.718  17.659  12.369
53796W        W15459  41.309  34.459   1.708
53797W        W15460  14.181   9.263   2.357
53798W        W15461  11.261  43.469  12.826
53799W        W15462   4.739   4.428  13.498
53800W        W15463   8.758  40.837   0.942
53801W        W15464  22.672  32.063  13.004
53802W        W15465   3.842  27.128   2.243
53803W        W15466  21.741   4.357  14.980
53804W        W15467  11.712  35.485  11.930
53805W        W15468  28.494  32.512  13.884
53806W        W15469  24.551   8.397   1.896
53807W        W15470  30.021  13.230  10.552
53808W        W15471  16.308  31.029  11.470
53809W        W15472  14.681  28.546   2.813
53810W        W15473  13.715  16.218  10.577
53811W        W15474  32.583  42.396  11.420
53812W        W15475  32.089  17.162   0.794
53813W        W15476  30.028  22.055   9.628
53814W        W15477   6.185   7.908  11.425
53815W        W15478  33.006   4.316   1.325
53816W        W15479  42.940  16.082  11.453
53817W        W15480  41.887  40.888  12.046
53818W        W15481  12.833   8.655   0.361
53819W        W15482   9.365  29.616   3.705
53820W        W15483   6.256  31.609   0.320
53821W        W15484  25.011  18.087   1.391
53822W        W15485  41.025  40.461  13.866
53823W        W15486  36.094   3.742   2.675
53824W        W15487  19.138  33.900  13.836
53825W        W15488  44.885  22.124  12.992
53826W        W15489  42.779  11.660  11.495
53827W        W15490  17.194  38.510   1.881
53828W        W15491   6.341  33.065   0.385
53829W        W15492  11.624   4.214  12.502
53830W        W15493  39.479  15.708  12.836
53831W        W15494  30.575   7.352  12.556
53832W        W15495  28.002   4.251  10.510
53833W        W15496  42.785   9.371   2.385
53834W        W15497  43.469  12.613  13.370
53835W        W15498  44.878  23.558  14.993
53836W        W15499  22.012  31.418   0.937
53837W        W15500  38.063   0.303  11.463
53838W        W15501  20.706  29.508  10.638
53839W        W15502  21.189  22.191  14.979
53840W        W15503  44.758  43.376  10.521
53841W        W15504  14.308   0.936   4.747
53842W        W15505  30.512   3.319   3.831
53843W        W15506  22.034   0.320  10.923
53844W        W15507  13.627  32.114  11.074
53845W        W15508  20.748  36.857  10.512
53846W        W15509   7.380  28.657   4.232
53847W        W15510  26.986  10.757   2.893
53848W        W15511  38.922  35.903  13.832
53849W        W15512   4.322  17.070   0.317
53850W        W15513  22.221  29.578  14.427
53851W        W15514  44.384  36.893   2.868
53852W        W15515  26.634   4.714  14.473
53853W        W15516  10.159   7.906  11.386
53854W        W15517  33.543  25.601   0.391
53855W        W15518   1.895  39.907  13.026
53856W        W15519  17.083  30.929  11.567
53857W        W15520   0.441   5.709  14.317
53858W        W15521   4.441  31.624  11.105
53859W        W15522  13.222  40.489  11.586
53860W        W15523  24.215  26.546  13.314
53861W        W15524   4.326  34.966  11.470
53862W        W15525  35.083  26.699  14.828
53863W        W15526  12.335  24.203  10.417
53864W        W15527  44.002  15.795  11.488
53865W        W15528  20.534  17.236   3.641
53866W        W15529  28.975   0.282  10.954
53867W        W15530  30.023   9.260   4.647
53868W        W15531  43.913  33.985   1.727
53869W        W15532  17.152   3.711  10.462
53870W        W15533  40.432   0.955  13.422
53871W        W15534  39.531  12.781   0.253
53872W        W15535  11.248  34.898   2.399
53873W        W15536  35.014  16.240  10.991
53874W        W15537  13.713  37.047  14.991
53875W        W15538  35.534  12.344   1.923
53876W        W15539  44.274   0.752  11.574
53877W        W15540  34.011  42.916  12.524
53878W        W15541  33.497  33.058   0.810
53879W        W15542  41.406  23.490   3.304
53880W        W15543  14.302  16.744  11.372
53881W        W15544  34.866  38.466  12.344
53882W        W15545   9.373  34.095  12.086
53883W        W15546   9.644  25.090  14.994
53884W        W15547  42.443  42.286   4.215
53885W        W15548  33.468  39.925  14.452
53886W        W15549  16.164  36.449  11.468
53887W        W15550  13.299  24.701   2.374
53888W        W15551   9.700  28.455  13.868
53889W        W15552  13.148  16.710   3.843
53890W        W15553  19.277  35.041  12.867
53891W        W15554  11.667  33.589   2.864
53892W        W15555  31.500   0.339   0.244
53893W        W15556  34.600   7.910  13.409
53894W        W15557  32.911  40.397   3.747
53895W        W15558  15.191  43.875   2.358
53896W        W15559   0.345   8.657   0.319
53897W        W15560  33.128  25.119  12.072
53898W        W15561  39.886  13.203   3.756
53899W        W15562  44.834   2.299   2.761
53900W        W15563   2.452  22.629  10.417
53901W        W15564  34.879  44.808   4.757
53902W        W15565  19.683  19.534   4.629
53903W        W15566  44.902   1.365   3.172
53904W        W15567   1.439  44.382  12.414
53905W        W15568  38.062  29.963   0.260
53906W        W15569  27.040  35.603  13.542
53907W        W15570  30.648  14.623  12.013
53908W        W15571  32.518   9.795  13.882
53909W        W15572  24.177  10.368   1.700
53910W        W15573  36.013  14.296  11.610
53911W        W15574  43.797  14.834  10.041
53912W        W15575  12.204  43.971  14.460
53913W        W15576  21.157  24.088   4.140
53914W        W15577   8.883  22.686  12.882
53915W        W15578  28.680  26.157   3.260
53916W        W15579  28.652  11.358   1.806
53917W        W15580   4.329  28.134   3.194
53918W        W15581  25.055  12.325   0.331
53919W        W15582  44.785   4.936   0.932
53920W        W15583  35.980  37.555  14.917
53921W        W15584  21.127   7.196  12.507
53922W        W15585   5.264   7.270  10.472
53923W        W15586   5.815  15.767   2.773
53924W        W15587  41.366  31.148   4.144
53925W        W15588   6.355  36.405  14.764
53926W        W15589  32.075  26.178  11.388
53927W        W15590   9.775  38.839  13.408
53928W        W15591  21.141  26.674   2.698
53929W        W15592   9.354   9.702   4.333
53930W        W15593  29.142  23.583  12.502
53931W        W15594  31.130  23.565  14.820
53932W        W15595  23.222  14.806   2.790
53933W        W15596   7.812  19.660   3.756
53934W        W15597  39.895  12.155  11.109
53935W        W15598  33.399  28.139   0.315
53936W        W15599  27.468  17.197   2.310
53937W        W15600   8.794  31.570  13.849
53938W        W15601  33.925  37.409   4.175
53939W        W15602  29.088  20.593   1.879
53940W        W15603   9.658  38.043  14.494
53941W        W15604  31.612  16.226   2.765
53942W        W15605  37.497  18.055  12.397
53943W        W15606  21.528  20.691  11.378
53944W        W15607   5.729  44.270  13.845
53945W        W15608  38.436  34.930  14.464
53946W        W15609  42.432  14.242  14.810
53947W        W15610  12.836  27.451   2.742
53948W        W15611  32.561  38.022   2.395
53949W        W15612  16.741  13.129  12.007
53950W        W15613  30.946  19.120   0.777
53951W        W15614  39.391   4.798  13.902
53952W        W15615  30.562  39.848   0.349
53953W        W15616   9.783  27.135  10.465
53954W        W15617   0.402  29.062  12.345
53955W        W15618  18.172  30.102   1.701
53956W        W15619  21.534  26.647   3.688
53957W        W15620  26.098  27.089  14.307
53958W        W15621  40.949  37.416  13.043
53959W        W15622  13.800   2.296  10.509
53960W        W15623  36.867  10.228   1.347
53961W        W15624  34.504  23.672   3.826
53962W        W15625  35.930  14.306   0.926
53963W        W15626  31.152  40.916   0.437
53964W        W15627  30.545   5.722   3.729
53965W        W15628  26.484  31.521   4.249
53966W        W15629  31.442  14.232   3.816
53967W        W15630  14.200  44.401  11.487
53968W        W15631  22.109  10.346   0.816
53969W        W15632  18.667  44.492  10.911
53970W        W15633  10.241   5.933   1.422
53971W        W15634   8.376  32.479   4.605
53972W        W15635   1.476  13.147  12.039
53973W        W15636  21.186  38.904   0.770
53974W        W15637  19.085  43.489  10.568
53975W        W15638  10.248  20.068   0.765
53976W        W15639   5.837  26.072  12.392
53977W        W15640  39.899   5.774   3.157
53978W        W15641  34.496  19.560   9.453
53979W        W15642  18.620   8.213  13.438
53980W        W15643  20.641  30.945  10.497
53981W        W15644  28.057  13.707  10.922
53982W        W15645  13.219  39.857  13.511
53983W        W15646  15.805   5.387  12.909
53984W        W15647  41.293  28.497   2.886
53985W        W15648  30.519  30.515   2.778
53986W        W15649   1.259  34.600   3.371
53987W        W15650  22.135  42.344  14.836
53988W        W15651   0.494  44.291   0.912
53989W        W15652  35.098  40.468   2.391
53990W        W15653   4.902   8.354  14.026
53991W        W15654   5.246  16.597   1.797
53992W        W15655  35.401   3.349   4.310
53993W        W15656  23.222  33.618  10.627
53994W        W15657  20.578  13.286  14.437
53995W        W15658  44.945   9.333  10.581
53996W        W15659  42.322  43.816   0.959
53997W        W15660  25.546  26.660   0.434
53998W        W15661   6.281  35.990  10.523
53999W        W15662  17.704   8.322   4.706
54000W        W15663  13.692  44.987   0.869
54001W        W15664  44.423   9.206   3.835
54002W        W15665  38.929   3.832  11.449
54003W        W15666   5.307  18.249  10.634
54004W        W15667  12.784  21.206   0.430
54005W        W15668   9.814   2.436  14.380
54006W        W15669   3.375  40.987  13.410
54007W        W15670  14.149  19.717  13.014
54008W        W15671  22.089  38.979   4.635
54009W        W15672  19.616  17.073  12.340
54010W        W15673  12.672  17.186  10.991
54011W        W15674  31.542  25.034  10.958
54012W        W15675  22.232  13.315   0.365
54013W        W15676  33.075  28.137   4.712
54014W        W15677  19.243  27.092   4.661
54015W        W15678  11.164  35.595   2.372
54016W        W15679  29.001  27.022   1.245
54017W        W15680  21.698  26.167  12.878
54018W        W15681  39.514  39.473   4.804
54019W        W15682  37.843  42.463   1.818
54020W        W15683  22.570  13.299  11.904
54021W        W15684  22.155  17.283   0.966
54022W        W15685  17.146  17.566  13.528
54023W        W15686  20.684  41.469   4.144
54024W        W15687  24.492  32.636   1.249
54025W        W15688   3.368  41.330   3.386
54026W        W15689  17.167  26.538  14.004
54027W        W15690  21.201   3.904   0.464
54028W        W15691   1.758  10.637  10.983
54029W        W15692  16.660  39.894   1.878
54030W        W15693  12.294   9.817   2.662
54031W        W15694  28.026  32.576   4.343
54032W        W15695  28.565   5.302  13.907
54033W        W15696   7.249   3.349  11.883
54034W        W15697  21.082   4.364   1.836
54035W        W15698  33.915  17.639  11.517
54036W        W15699  34.115  32.458   1.314
54037W        W15700   7.707  24.511   4.225
54038W        W15701  16.802  31.627   3.285
54039W        W15702  15.093  35.954   1.315
54040W        W15703  17.272   4.297   0.808
54041W        W15704  23.195  32.902   4.198
54042W        W15705   5.912   4.832   4.256
54043W        W15706  12.777   4.204   0.446
54044W        W15707  32.107   3.218  11.398
54045W        W15708  23.209  42.408   0.310
54046W        W15709  37.953  28.069  14.846
54047W        W15710  43.456  35.488   3.186
54048W        W15711  29.975  43.290  11.475
54049W        W15712  43.912  44.407   2.671
54050W        W15713  27.529  32.595  14.944
54051W        W15714  12.773  34.496   2.823
54052W        W15715  36.076   9.162   0.465
54053W        W15716  17.181   2.818  13.818
54054W        W15717  31.074  10.638   3.636
54055W        W15718  28.964  22.532   2.888
54056W        W15719  29.947  17.791   1.448
54057W        W15720  32.002   7.236  12.578
54058W        W15721  42.500  39.922   3.344
54059W        W15722  17.283  25.610   4.257
54060W        W15723  17.106  32.129  11.568
54061W        W15724  37.036  15.197   0.376
54062W        W15725  22.597   1.414   9.587
54063W        W15726   2.229  34.111  11.974
54064W        W15727   7.776  37.021   0.324
54065W        W15728  39.904  10.327   4.146
54066W        W15729  12.749  11.834  11.903
54067W        W15730  33.447  12.201  12.929
54068W        W15731  12.142   4.414   1.398
54069W        W15732  18.081   5.793  12.568
54070W        W15733  31.429  27.541   2.214
54071W        W15734  16.749  10.352  13.973
54072W        W15735  23.102   2.234  13.538
54073W        W15736   6.774  32.537   3.647
54074W        W15737  35.049  18.192  14.874
54075W        W15738  42.886  36.549  10.582
54076W        W15739   5.889  42.450   3.787
54077W        W15740  26.977  39.457   3.760
54078W        W15741  29.549  44.994  12.034
54079W        W15742  23.087  17.601  10.527
54080W        W15743  35.495  26.112  11.933
54081W        W15744  38.378  10.243  14.005
54082W        W15745  36.351  24.531   1.390
54083W        W15746   1.398  40.947   3.733
54084W        W15747   1.778  11.796   2.753
54085W        W15748  40.879  24.118   2.367
54086W        W15749  30.419  25.688  11.575
54087W        W15750   4.856  21.718  14.338
54088W        W15751   0.780   4.709   2.399
54089W        W15752  44.974  18.099  13.955
54090W        W15753  33.556   2.256  13.870
54091W        W15754  39.833  18.142   1.878
54092W        W15755  19.078  13.139  11.526
54093W        W15756  44.939  32.991   3.353
54094W        W15757  42.367  13.686  14.963
54095W        W15758  16.710  37.368  12.071
54096W        W15759  10.378   3.849   2.189
54097W        W15760   0.881   9.644  10.438
54098W        W15761  14.289  17.276   4.225
54099W        W15762  12.732   7.314   2.725
54100W        W15763  14.741   3.904  14.278
54101W        W15764  21.590  11.167   0.849
54102W        W15765  13.139  34.888   2.846
54103W        W15766  10.763  13.185  14.003
54104W        W15767  22.665  34.929   0.738
54105W        W15768  24.065  37.911  12.528
54106W        W15769   4.236  35.508   1.807
54107W        W15770  33.062  26.155  14.379
54108W        W15771  43.818  43.452  14.391
54109W        W15772  34.970  19.555  14.496
54110W        W15773  26.532  23.644   3.252
54111W        W15774   4.226  20.166   2.223
54112W        W15775  29.049  33.534  13.489
54113W        W15776  19.252  19.767   1.335
54114W        W15777  20.230  20.228   4.674
54115W        W15778   0.435  35.381  13.376
54116W        W15779  11.860  24.609   0.422
54117W        W15780   1.786   1.422   2.263
54118W        W15781  42.797  20.048   4.286
54119W        W15782  32.637  28.995   0.419
54120W        W15783  41.294   7.403   9.590
54121W        W15784  31.952   1.764   0.869
54122W        W15785  20.244  23.225  11.567
54123W        W15786  32.004  29.441   1.876
54124W        W15787  32.572   3.950  12.992
54125W        W15788  44.903  41.329  13.865
54126W        W15789  14.820  16.614  13.489
54127W        W15790  16.732  11.333   4.673
54128W        W15791  29.962  43.841  14.831
54129W        W15792   1.343   8.227  10.609
54130W        W15793  27.623  21.059   3.215
54131W        W15794  23.137  33.389   0.418
54132W        W15795  43.867  11.230  10.103
54133W        W15796  20.219   1.874  13.919
54134W        W15797   3.860   9.342  11.004
54135W        W15798  13.673  22.247  13.883
54136W        W15799  26.650   2.789   3.832
54137W        W15800  20.246  13.171   1.841
54138W        W15801  32.025  41.896  14.767
54139W        W15802  25.497  38.424   5.161
54140W        W15803   6.736  32.530   3.290
54141W        W15804   4.836   5.872  11.026
54142W        W15805  14.628  36.071  10.104
54143W        W15806  23.493  15.580  11.527
54144W        W15807  20.134  11.295  10.997
54145W        W15808  19.202  31.043   0.454
54146W        W15809   7.730   0.338   1.213
54147W        W15810   5.328  14.728  11.882
54148W        W15811  14.664  19.557   5.186
54149W        W15812  40.521  34.976   4.812
54150W        W15813  23.185   8.392  13.876
54151W        W15814  41.811  26.523   1.410
54152W        W15815  29.039   8.250  10.496
54153W        W15816  44.397  17.285   2.280
54154W        W15817  11.838  13.113  12.502
54155W        W15818  22.746  40.977  12.998
54156W        W15819   9.157  35.931  14.886
54157W        W15820  31.636   1.794  12.879
54158W        W15821  28.491  32.010   3.303
54159W        W15822  41.476  27.063  13.522
54160W        W15823  19.077  12.234   1.887
54161W        W15824  41.354  12.282  11.997
54162W        W15825  31.601  26.632  13.356
54163W        W15826  30.652  28.104  11.010
54164W        W15827  18.670   0.834   0.842
54165W        W15828  10.877  10.140   3.743
54166W        W15829  40.546  12.764   4.773
54167W        W15830  38.401   9.253   4.621
54168W        W15831   9.220   1.423   3.221
54169W        W15832  40.879   6.680   3.641
54170W        W15833  35.498  23.181  10.915
54171W        W15834  43.013   6.285  13.836
54172W        W15835  26.695  16.232  13.955
54173W        W15836  41.874  31.556  14.978
54174W        W15837  13.177  41.303   1.841
54175W        W15838  24.722  32.929  11.411
54176W        W15839  33.572   6.223   5.708
54177W        W15840  15.174  23.035   4.787
54178W        W15841  11.782  20.560   4.240
54179W        W15842  26.106  34.551   4.779
54180W        W15843  21.626  26.003   4.668
54181W        W15844   7.181  15.156   3.764
54182W        W15845   0.742   6.199   0.926
54183W        W15846   4.333  23.026  13.452
54184W        W15847  44.501  30.125   0.832
54185W        W15848  28.054  33.389  12.530
54186W        W15849  35.364  29.046   0.938
54187W        W15850  14.203   1.896   1.847
54188W        W15851  25.647  39.052  13.524
54189W        W15852  24.646   6.686  11.884
54190W        W15853   3.230  39.013  14.867
54191W        W15854   9.280  37.400   2.885
54192W        W15855  12.148  33.614  14.894
54193W        W15856  42.779  15.236   2.410
54194W        W15857  20.562  15.715   0.256
54195W        W15858  15.756  21.546  10.404
54196W        W15859  37.467  29.560   3.206
54197W        W15860  31.029  42.855  11.556
54198W        W15861  34.992  29.003   4.622
54199W        W15862   2.271  39.465  12.521
54200W        W15863  13.793  23.147  14.820
54201W        W15864  38.841   6.388   3.862
54202W        W15865  18.091  23.051  13.903
54203W        W15866   5.875  40.377   1.734
54204W        W15867  28.652   7.791  12.383
54205W        W15868  18.589   7.236  10.059
54206W        W15869  41.537   7.760  12.451
54207W        W15870  23.628  16.790   3.149
54208W        W15871  18.153  30.550  14.024
54209W        W15872   5.749   8.886   0.735
54210W        W15873  10.378   6.716  14.431
54211W        W15874  42.786  25.972   3.171
54212W        W15875  10.799  16.149  12.432
54213W        W15876  32.967   0.839  14.448
54214W        W15877  17.277  13.288   3.642
54215W        W15878  23.113  19.191   0.329
54216W        W15879  31.593  44.436   2.815
54217W        W15880  27.978  39.402  14.967
54218W        W15881  23.995   4.432  13.907
54219W        W15882  31.639   7.202   3.161
54220W        W15883  39.443  19.272  10.892
54221W        W15884  42.010  32.520  13.962
54222W        W15885  32.887  33.975   3.197
54223W        W15886  34.541  16.671   4.715
54224W        W15887  41.928  23.703   1.222
54225W        W15888  28.479  23.568   4.834
54226W        W15889   2.255  22.098   3.197
54227W        W15890  28.555  26.564  11.062
54228W        W15891  32.596  36.406   0.899
54229W        W15892  22.158   8.823  11.428
54230W        W15893  30.513  24.664  13.331
54231W        W15894  42.305   1.406   2.316
54232W        W15895   1.972  42.811   3.685
54233W        W15896  41.901  43.984  14.505
54234W        W15897  34.564   9.766  10.943
54235W        W15898  37.026   8.269  14.005
54236W        W15899  38.856   6.729   0.324
54237W        W15900  28.546  23.029   1.407
54238W        W15901  34.867   7.345   2.777
54239W        W15902  41.396  32.436  12.352
54240W        W15903  35.421  40.882  14.813
54241W        W15904  32.921  23.088   4.232
54242W        W15905  24.604   8.754  13.361
54243W        W15906  40.924  34.877  10.499
54244W        W15907  33.410  28.591  13.505
54245W        W15908  40.995  14.117   1.827
54246W        W15909  26.506   8.718   1.426
54247W        W15910  40.935  25.536  14.491
54248W        W15911   9.351  18.184   2.864
54249W        W15912  19.619   6.194  10.964
54250W        W15913  44.854   6.874   2.341
54251W        W15914  17.261  22.032  11.972
54252W        W15915   6.746  25.087  11.554
54253W        W15916  18.737   6.912  12.001
54254W        W15917  22.211  39.324   3.216
54255W        W15918  12.719  39.819   3.671
54256W        W15919  19.655  41.538  11.373
54257W        W15920   2.235  23.514  13.475
54258W        W15921  41.966   2.936  13.405
54259W        W15922  41.529  15.166   5.196
54260W        W15923  33.925  17.656  12.934
54261W        W15924   8.793  23.696  10.467
54262W        W15925  33.034  27.601   4.626
54263W        W15926  27.082   8.372  11.121
54264W        W15927  20.124   8.252  11.553
54265W        W15928   5.276  24.989   2.711
54266W        W15929  10.175  31.935  10.027
54267W        W15930  34.377  23.012   3.158
54268W        W15931  12.194  10.761  14.426
54269W        W15932  32.927  42.379   4.628
54270W        W15933   1.903  17.234   4.765
54271W        W15934  41.795  32.629   3.737
54272W        W15935  28.666   2.436  12.088
54273W        W15936  42.298  33.565  14.944
54274W        W15937  21.528  36.534   3.735
54275W        W15938   9.350  38.949  12.855
54276W        W15939  12.710  44.271  11.411
54277W        W15940  19.222   6.299   3.245
54278W        W15941  37.432   0.910   4.355
54279W        W15942  29.435  29.968   1.315
54280W        W15943   9.303   0.481   3.369
54281W        W15944  13.683  42.323   3.853
54282W        W15945  33.083  26.147  10.541
54283W        W15946  39.351  18.107  13.908
54284W        W15947  29.565  32.424   0.782
54285W        W15948  22.693  30.479  10.551
54286W        W15949  21.637  22.538  12.438
54287W        W15950  28.522  39.536  11.875
54288W        W15951  30.574  15.722   5.242
54289W        W15952  22.568  12.318  10.953
54290W        W15953   5.280   6.770  15.000
54291W        W15954   2.339  14.791  11.907
54292W        W15955  31.475  25.501  14.361
54293W        W15956  23.652  10.291  12.021
54294W        W15957   8.278   5.321  11.412
54295W        W15958  30.015  27.668  13.836
54296W        W15959  29.634  16.316  14.001
54297W        W15960   7.858   2.350  10.624
54298W        W15961  38.961   8.399   3.656
54299W        W15962   8.376  29.520   2.281
54300W        W15963  43.497  28.578  10.899
54301W        W15964  39.836  12.293  11.546
54302W        W15965  16.703   0.918  13.451
54303W        W15966  15.702  27.460   4.256
54304W        W15967   2.295  25.045  11.407
54305W        W15968  16.238  11.211  12.524
54306W        W15969  27.002  20.682   4.305
54307W        W15970  26.986  18.731  12.913
54308W        W15971   3.276  41.930   1.875
54309W        W15972  10.784  14.597  10.444
54310W        W15973  34.503  27.621  14.296
54311W        W15974  17.641  14.740   0.829
54312W        W15975  44.268  14.199  12.011
54313W        W15976   3.897  25.980   3.834
54314W        W15977  26.115  31.647   3.735
54315W        W15978  34.554   5.837  13.007
54316W        W15979  16.269  12.796   0.372
54317W        W15980   6.247  22.615   5.151
54318W        W15981  14.167   0.988   1.829
54319W        W15982  12.650  40.441  10.487
54320W        W15983  18.706  34.898  13.921
54321W        W15984  33.566  38.057   1.837
54322W        W15985   7.818  30.459  14.940
54323W        W15986  26.596  15.300  14.447
54324W        W15987  13.330  43.812  14.471
54325W        W15988  12.215  30.444   0.768
54326W        W15989   4.828  28.129  11.472
54327W        W15990  37.832  31.424  11.452
54328W        W15991  30.517  25.618  14.856
54329W        W15992  21.519   1.427  13.026
54330W        W15993   1.439   7.390   9.518
54331W        W15994  10.236  17.249  12.846
54332W        W15995  14.150  15.321   4.265
54333W        W15996  37.027   9.339   1.307
54334W        W15997  38.499  11.642   4.344
54335W        W15998  18.683  36.485  11.857
54336W        W15999  15.197   0.309   0.248
54337W        W16000  37.483  26.132  10.931
54338W        W16001   7.355  30.951   3.847
54339W        W16002  26.027  10.679  11.037
54340W        W16003   4.256  14.265   4.192
54341W        W16004  27.048  25.216  13.851
54342W        W16005   3.903  35.490  13.856
54343W        W16006  25.134   8.343  12.049
54344W        W16007   6.247   3.712  10.979
54345W        W16008  32.059   9.875  12.983
54346W        W16009   0.416  14.677   4.231
54347W        W16010  10.360  25.664   0.958
54348W        W16011   9.229  19.629  12.963
54349W        W16012  36.522   3.861   4.690
54350W        W16013  13.230  27.612  12.030
54351W        W16014  37.364  41.458  14.003
54352W        W16015   9.779   7.384  13.382
54353W        W16016  19.273  20.588  12.403
54354W        W16017  41.821  17.166  11.451
54355W        W16018   4.908  35.889   0.411
54356W        W16019  17.151  42.441   4.116
54357W        W16020  14.103  37.858  13.004
54358W        W16021  24.686  37.454   4.625
54359W        W16022  15.140  41.829  11.404
54360W        W16023  30.975   9.178  14.898
54361W        W16024  27.566  21.044  12.840
54362W        W16025   8.799   8.897   4.296
54363W        W16026   7.795  24.166  11.052
54364W        W16027  11.319  23.075  11.116
54365W        W16028  10.148  39.825   3.864
54366W        W16029  26.036  29.931  13.308
54367W        W16030  27.534  11.817   0.450
54368W        W16031  22.121  11.362   2.866
54369W        W16032   7.212  17.790  11.585
54370W        W16033  36.470  26.006   2.749
54371W        W16034  42.895  22.996  13.063
54372W        W16035  10.647  13.624  13.879
54373W        W16036  16.766  27.063  12.376
54374W        W16037  34.604  13.320  13.841
54375W        W16038  13.214  18.070   3.242
54376W        W16039   0.837  42.453  12.418
54377W        W16040  28.664  17.730  12.023
54378W        W16041   8.778  16.282   0.244
54379W        W16042  12.122   0.814   2.193
54380W        W16043  22.068   8.866   2.258
54381W        W16044  11.348  32.902   0.360
54382W        W16045  13.647   5.381  11.572
54383W        W16046  20.272  43.985  12.985
54384W        W16047  37.425  12.244  14.288
54385W        W16048   6.239  39.548   1.414
54386W        W16049  38.534  13.158  12.440
54387W        W16050   4.919   0.867   0.366
54388W        W16051  15.245  36.432   3.836
54389W        W16052  25.497   2.826   4.617
54390W        W16053  32.610  32.499   2.778
54391W        W16054  13.250  13.752   2.764
54392W        W16055  17.647  32.436   0.767
54393W        W16056  37.871  28.963   2.696
54394W        W16057  44.828  20.208   2.368
54395W        W16058  30.623  37.575   1.352
54396W        W16059   0.977  41.907  14.801
54397W        W16060  25.590  35.502   3.237
54398W        W16061  40.935  31.643   2.348
54399W        W16062   4.238  30.540  14.950
54400W        W16063  12.646  31.631   3.657
54401W        W16064  20.692  15.742  12.501
54402W        W16065  41.421  11.714  14.781
54403W        W16066  29.060   6.232   3.815
54404W        W16067  43.921   0.453  13.353
54405W        W16068  28.539  25.696   4.660
54406W        W16069   2.288  39.031  11.452
54407W        W16070   3.343  28.513   4.647
54408W        W16071  14.697  12.749  12.564
54409W        W16072   5.385  18.053  14.989
54410W        W16073  17.613  32.079   4.242
54411W        W16074   0.442   6.314   1.701
54412W        W16075  27.941   7.286  12.085
54413W        W16076   8.287  27.658   3.248
54414W        W16077   3.769  30.630  14.313
54415W        W16078  15.813  16.619  11.085
54416W        W16079  42.512  21.639  12.051
54417W        W16080   0.275  42.969   0.936
54418W        W16081  26.567  20.726   9.962
54419W        W16082  38.363  38.975  14.497
54420W        W16083  36.849  11.852   3.673
54421W        W16084  14.779  44.762   4.773
54422W        W16085  25.471   6.739  11.859
54423W        W16086   3.817  14.313  14.945
54424W        W16087   2.293   1.965   1.222
54425W        W16088   7.177  20.216   2.824
54426W        W16089   3.919  43.820  11.544
54427W        W16090  17.100  12.161   1.913
54428W        W16091  43.508  30.436  14.393
54429W        W16092  32.426  42.835   2.195
54430W        W16093  38.058  25.002   4.792
54431W        W16094  15.252  17.670   4.730
54432W        W16095  41.863  28.576  11.990
54433W        W16096  25.535  13.675   4.714
54434W        W16097   0.808  19.089   1.242
54435W        W16098  20.546  31.026  13.974
54436W        W16099  35.526  44.925  12.529
54437W        W16100   6.840  12.668   1.762
54438W        W16101  32.548  28.042   1.217
54439W        W16102  13.239   1.468  13.038
54440W        W16103  36.369  33.402   2.194
54441W        W16104  10.287  36.894   3.714
54442W        W16105   5.796   4.906   3.294
54443W        W16106   8.367   5.830   3.344
54444W        W16107   1.955  11.748   1.387
54445W        W16108  34.920   6.299  10.591
54446W        W16109  17.084  26.517   5.287
54447W        W16110  44.322  22.524   1.375
54448W        W16111  32.515  14.714  14.364
54449W        W16112   9.200  33.403   1.312
54450W        W16113  10.795  33.421   3.793
54451W        W16114   7.212  22.015  13.945
54452W        W16115   0.837  18.135  12.884
54453W        W16116  28.943   4.705  13.832
54454W        W16117  43.006  16.240  14.278
54455W        W16118  32.105  36.435   4.254
54456W        W16119  14.745  19.672   0.253
54457W        W16120  32.084  17.694  12.385
54458W        W16121   4.880  14.693  11.110
54459W        W16122  43.976  32.118   2.239
54460W        W16123  19.249  42.777   0.869
54461W        W16124   9.861  13.257  11.607
54462W        W16125  31.524  26.065  10.975
54463W        W16126  37.504  36.454   5.288
54464W        W16127  42.988  40.834  10.573
54465W        W16128   4.259  17.617  14.348
54466W        W16129  19.067  42.973  12.063
54467W        W16130  41.826  12.207   1.882
54468W        W16131  40.964   1.750   3.257
54469W        W16132  40.801  33.430  14.918
54470W        W16133  14.667  21.075   1.331
54471W        W16134  13.255  33.459  14.276
54472W        W16135   8.673  35.554  13.930
54473W        W16136  11.173  40.818  14.798
54474W        W16137  35.909  36.426  10.594
54475W        W16138  12.178  18.157  10.507
54476W        W16139   6.898   9.184  11.056
54477W        W16140  39.339  18.602  14.460
54478W        W16141   8.686  31.566   3.146
54479W        W16142   9.807  37.385  14.871
54480W        W16143  39.958  13.199   0.903
54481W        W16144  41.533  25.119  12.025
54482W        W16145  25.619  37.904   5.302
54483W        W16146  15.811  26.199  12.414
54484W        W16147  20.141   0.393   1.823
54485W        W16148  10.656  23.673   3.824
54486W        W16149  35.515  30.954  13.933
54487W        W16150  11.748  20.754   0.846
54488W        W16151  27.041  28.119   5.120
54489W        W16152  14.254  21.583  14.912
54490W        W16153  39.876  43.814  12.349
54491W        W16154   0.266   5.803   3.267
54492W        W16155   0.389  13.659   1.418
54493W        W16156  18.723   6.837  14.276
54494W        W16157   8.272  31.635  12.044
54495W        W16158   9.714  24.615   3.177
54496W        W16159  41.988  10.243   0.848
54497W        W16160  15.240   0.254   2.835
54498W        W16161  35.905  25.187  13.021
54499W        W16162  25.547  33.106  12.019
54500W        W16163  12.649   7.292   3.712
54501W        W16164  17.255   2.879   0.372
54502W        W16165  28.999  37.404  12.857
54503W        W16166  20.573   1.421  14.458
54504W        W16167  40.990  16.732  13.808
54505W        W16168  32.087   2.938  14.789
54506W        W16169  12.687  35.037   2.366
54507W        W16170   8.751  34.373  11.888
54508W        W16171  36.541  14.614  10.460
54509W        W16172  39.339  24.534   3.723
54510W        W16173  40.521  38.336  11.863
54511W        W16174  22.150  44.315   1.874
54512W        W16175  42.790  12.770  11.462
54513W        W16176  41.971  34.384   4.354
54514W        W16177  19.734  43.870   1.248
54515W        W16178  42.853  21.193   5.167
54516W        W16179   7.868  41.854   2.314
54517W        W16180   5.388  21.097   0.309
54518W        W16181  19.772   6.831  11.057
54519W        W16182  11.348  17.678   4.705
54520W        W16183   3.939  34.029  14.985
54521W        W16184  40.542   7.783   3.335
54522W        W16185  25.635  21.204  14.830
54523W        W16186  14.094   7.860   2.410
54524W        W16187  42.912   0.780  11.588
54525W        W16188   1.812  15.266  10.520
54526W        W16189  24.519   3.759   3.852
54527W        W16190   8.858  43.992   1.876
54528W        W16191  32.443   7.209  10.981
54529W        W16192  26.047  16.226   4.139
54530W        W16193  27.541  41.449  12.353
54531W        W16194  44.267  44.924   3.238
54532W        W16195  28.609  26.548   3.774
54533W        W16196  44.498  30.992   3.809
54534W        W16197   0.272  30.105  13.516
54535W        W16198  39.371  30.501   2.803
54536W        W16199  19.740  22.080  13.867
54537W        W16200  23.525   5.202  13.321
54538W        W16201  42.871  43.934   1.282
54539W        W16202  13.149  11.829   4.614
54540W        W16203  19.041  19.648  14.029
54541W        W16204  43.813  10.138  11.997
54542W        W16205  24.665  33.009  14.382
54543W        W16206  33.478  21.675   5.745
54544W        W16207  15.824   1.954  10.895
54545W        W16208   6.714   9.777   3.192
54546W        W16209  37.847  24.159  12.364
54547W        W16210   0.765  15.822   1.216
54548W        W16211   0.340   3.877   2.294
54549W        W16212  12.295  13.193   2.682
54550W        W16213   3.430   3.924  13.530
54551W        W16214  27.073  31.541   2.387
54552W        W16215   5.267  43.911  11.454
54553W        W16216   7.880  38.993   2.711
54554W        W16217  16.747  24.134   4.686
54555W        W16218  36.058  17.655   3.778
54556W        W16219  21.618  21.703  14.832
54557W        W16220  33.587  10.853  11.592
54558W        W16221  25.146  43.908   3.769
54559W        W16222  39.457  10.819   1.301
54560W        W16223  18.101  41.297   0.805
54561W        W16224  27.475  18.708  13.472
54562W        W16225  20.632   0.362  10.606
54563W        W16226  42.381   3.429   2.688
54564W        W16227  18.666  19.223   5.255
54565W        W16228  11.253   9.805   4.151
54566W        W16229  23.541  29.499   3.302
54567W        W16230  43.802   4.250   4.776
54568W        W16231  21.513   5.379   1.399
54569W        W16232  19.685   7.835  11.070
54570W        W16233  18.180  21.665   4.303
54571W        W16234   9.867   7.368   5.757
54572W        W16235  14.105   3.287  10.039
54573W        W16236  27.690   6.781  14.838
54574W        W16237  30.596  29.444  13.063
54575W        W16238   8.751  23.038   3.745
54576W        W16239  43.834   5.273  13.063
54577W        W16240  32.591  18.083  11.931
54578W        W16241  28.965  29.085  14.994
54579W        W16242  26.180  27.140  12.057
54580W        W16243  43.399  18.705  11.019
54581W        W16244  22.242  34.463   4.275
54582W        W16245  26.101  36.534  11.419
54583W        W16246  37.086   6.223   4.737
54584W        W16247  35.941   9.193  10.918
54585W        W16248  40.882  27.092   4.659
54586W        W16249  41.323  10.249  14.006
54587W        W16250  27.176  39.993   0.281
54588W        W16251   9.851  20.197  12.909
54589W        W16252  21.153  31.442   1.428
54590W        W16253  29.155  15.721  12.892
54591W        W16254  34.035   9.667  11.052
54592W        W16255  27.503  12.660  11.976
54593W        W16256   7.306  25.116   4.827
54594W        W16257  28.103  16.156   4.730
54595W        W16258  21.607   3.764   1.920
54596W        W16259  30.593  36.585  12.573
54597W        W16260  18.080  29.475  10.899
54598W        W16261  25.010  30.609  12.092
54599W        W16262   4.764  24.979   4.784
54600W        W16263   1.964  43.861   2.749
54601W        W16264  39.390   2.424   2.825
54602W        W16265  31.953  41.790  12.948
54603W        W16266  14.244  19.248  14.436
54604W        W16267   8.862  11.692   3.277
54605W        W16268   6.224  33.514  13.491
54606W        W16269   6.209  25.704   1.345
54607W        W16270  16.254  43.506   4.672
54608W        W16271  22.060  40.051   1.277
54609W        W16272   7.246  29.545   2.851
54610W        W16273  15.219  14.118  14.946
54611W        W16274  29.134  38.395   2.257
54612W        W16275  15.087   3.726  12.087
54613W        W16276  31.539  11.167   0.775
54614W        W16277   4.724  11.318   3.163
54615W        W16278   8.218   0.815  14.476
54616W        W16279  32.936  36.383  11.575
54617W        W16280  40.536   8.261   3.803
54618W        W16281  33.464  40.833   0.476
54619W        W16282  22.734   4.764   2.239
54620W        W16283  28.091  31.104  11.447
54621W        W16284  40.932  26.492   4.607
54622W        W16285  34.585  33.589   0.762
54623W        W16286  23.523  44.765   3.654
54624W        W16287   6.764  13.320  14.983
54625W        W16288  14.261  43.441  13.424
54626W        W16289  25.524   1.307  14.864
54627W        W16290  19.649  27.487   0.350
54628W        W16291  25.150  13.610  12.021
54629W        W16292   5.417   0.974   2.276
54630W        W16293   3.822  17.141   4.154
54631W        W16294  39.351  20.259  12.569
54632W        W16295   0.319  40.307   1.374
54633W        W16296  37.521  15.694   1.334
54634W        W16297  44.259   4.885  14.298
54635W        W16298  13.624  15.122   4.685
54636W        W16299  42.291  12.626  12.453
54637W        W16300  24.176  40.954  13.986
54638W        W16301  16.210  15.815  14.363
54639W        W16302  13.845  40.508   4.213
54640W        W16303   9.343   3.336  14.351
54641W        W16304  17.203   3.874  13.869
54642W        W16305  15.309  33.882  11.866
54643W        W16306  20.060  36.513   2.412
54644W        W16307  36.988  38.470   1.238
54645W        W16308  21.527  18.080  11.891
54646W        W16309  23.056  16.139   4.126
54647W        W16310  37.375  16.209   3.687
54648W        W16311  20.252  20.743  10.591
54649W        W16312  25.635  44.269   1.833
54650W        W16313  39.855  44.297   2.799
54651W        W16314  21.707  27.137  12.994
54652W        W16315   3.262  33.489  12.959
54653W        W16316   6.314  23.166   3.241
54654W        W16317   9.769   5.707   3.733
54655W        W16318   6.754  38.325  11.953
54656W        W16319  26.641  27.100  12.928
54657W        W16320  31.464  37.535  15.000
54658W        W16321  21.121  35.544  10.575
54659W        W16322  42.395  19.734  11.495
54660W        W16323  20.064  41.966   0.828
54661W        W16324  24.024   8.896   1.328
54662W        W16325  15.270   2.840  14.901
54663W        W16326  33.934  19.751   4.306
54664W        W16327   5.311  34.553  10.532
54665W        W16328  33.044   1.251  14.771
54666W        W16329  18.114   7.736  11.468
54667W        W16330   9.291  39.380  11.385
54668W        W16331  27.000   9.835  14.346
54669W        W16332  14.692   0.378  12.019
54670W        W16333  37.424   1.478  13.976
54671W        W16334   0.887  39.047   9.958
54672W        W16335  32.569  15.285   4.222
54673W        W16336   8.223   0.333   2.896
54674W        W16337  35.417  23.671  10.975
54675W        W16338   1.769  44.969   1.280
54676W        W16339   7.308  27.116   1.370
54677W        W16340  32.939  28.467   0.259
54678W        W16341  15.214   4.835   1.757
54679W        W16342  16.075  29.974   1.840
54680W        W16343  41.985  18.699  10.932
54681W        W16344  43.984  38.849  10.521
54682W        W16345  33.560  40.911  12.569
54683W        W16346  21.134  31.896  13.418
54684W        W16347  44.322  20.751   1.922
54685W        W16348   2.411   4.813   4.678
54686W        W16349  41.502  37.477  10.477
54687W        W16350  26.153  30.454  14.407
54688W        W16351  28.043  40.026   9.605
54689W        W16352  25.475  38.017  10.098
54690W        W16353  10.161  12.756   2.754
54691W        W16354  11.758   5.897   4.603
54692W        W16355  38.493   8.883   0.375
54693W        W16356   1.366   9.308  10.528
54694W        W16357   4.211  11.683   2.846
54695W        W16358  13.122  37.435   2.256
54696W        W16359  38.867  14.797   1.741
54697W        W16360   3.325  23.704   1.770
54698W        W16361  33.924  16.297  10.995
54699W        W16362  11.149  35.469  11.028
54700W        W16363   9.882   0.414  13.319
54701W        W16364  30.104  31.448   1.757
54702W        W16365   7.676  19.132  13.477
54703W        W16366   5.853  39.440   4.757
54704W        W16367  40.998  30.508   1.336
54705W        W16368  15.156  21.715  11.555
54706W        W16369  16.262  21.127   0.804
54707W        W16370  17.142  26.991  14.010
54708W        W16371   2.261   5.273   1.357
54709W        W16372   0.929  13.304   3.381
54710W        W16373  14.827  22.172  11.449
54711W        W16374  31.017  23.569   2.849
54712W        W16375  16.099  27.633   2.678
54713W        W16376  27.011  26.673   2.312
54714W        W16377  40.960  39.050   4.803
54715W        W16378  11.666  17.126  13.447
54716W        W16379   1.424  25.592   1.250
54717W        W16380  26.000  42.885  12.534
54718W        W16381  15.118  28.587  12.480
54719W        W16382  39.847  28.541   0.355
54720W        W16383  35.854  44.782   3.351
54721W        W16384  13.642   2.323   3.758
54722W        W16385  39.816  27.164  14.920
54723W        W16386  32.914  17.584   1.273
54724W        W16387  21.086  25.193  12.386
54725W        W16388  34.398  29.655  13.530
54726W        W16389  31.480  36.990  12.049
54727W        W16390  39.518  23.034  13.339
54728W        W16391  20.639  24.145   2.331
54729W        W16392  17.233  21.129   2.711
54730W        W16393  13.844   8.176   2.299
54731W        W16394  37.505   6.359   0.841
54732W        W16395  23.681  25.042   2.364
54733W        W16396   9.320  15.098   2.864
54734W        W16397  30.058  18.716   3.302
54735W        W16398  26.470  14.696  14.335
54736W        W16399  39.447   2.817  14.880
54737W        W16400  23.508  21.183   2.185
54738W        W16401  15.622  41.939  10.474
54739W        W16402  21.657  13.768   1.763
54740W        W16403  31.433  32.530   4.649
54741W        W16404  33.049  12.819  12.918
54742W        W16405  37.085  24.594  13.950
54743W        W16406  20.053  40.381   0.787
54744W        W16407  35.091  10.270  13.982
54745W        W16408  12.362  28.012   4.610
54746W        W16409  31.548   2.797   2.802
54747W        W16410  35.980  44.976   4.744
54748W        W16411  26.636   5.929   3.726
54749W        W16412  17.111   3.864  14.804
54750W        W16413  13.755  15.595   1.396
54751W        W16414  27.471  39.459  13.872
54752W        W16415   5.214  44.004  12.966
54753W        W16416  38.825   3.332   1.753
54754W        W16417   3.248  18.605   5.297
54755W        W16418  10.291  41.297  11.486
54756W        W16419   4.446  25.076   0.440
54757W        W16420  34.554  19.740   2.663
54758W        W16421  16.091  14.617   4.353
54759W        W16422  29.139   7.268   3.751
54760W        W16423   2.876   7.672  14.467
54761W        W16424  34.391  33.877  14.995
54762W        W16425  37.481  24.226  13.959
54763W        W16426  24.131   7.311  14.297
54764W        W16427  29.502  20.146   0.305
54765W        W16428  18.230   2.463   2.896
54766W        W16429  36.026  38.011  13.959
54767W        W16430  34.533  26.583  11.981
54768W        W16431  41.339  34.385  13.467
54769W        W16432  25.653  42.824  11.496
54770W        W16433  15.666  34.080   3.683
54771W        W16434  14.120  15.674   2.257
54772W        W16435  17.681  30.611   4.723
54773W        W16436   0.432   2.855  13.461
54774W        W16437  43.273   7.891  11.501
54775W        W16438  35.016   5.773   5.202
54776W        W16439  30.157  39.510  14.315
54777W        W16440  20.208  22.036  11.579
54778W        W16441  18.547  33.904   3.365
54779W        W16442  29.940  16.752  10.895
54780W        W16443  34.415  38.376  13.923
54781W        W16444  18.756   1.246  11.483
54782W        W16445  35.895  25.508  12.036
54783W        W16446  40.825  33.448  13.502
54784W        W16447   2.909   8.853  13.528
54785W        W16448  12.311   8.702   3.654
54786W        W16449  38.491   8.730   3.682
54787W        W16450   2.252  24.664  12.574
54788W        W16451   6.320  33.070   1.857
54789W        W16452  43.400  41.980  12.464
54790W        W16453  44.885  21.664   0.463
54791W        W16454  31.434  26.144  13.400
54792W        W16455  35.881   0.863  12.457
54793W        W16456  35.468  34.995  13.971
54794W        W16457  24.163  10.296   0.746
54795W        W16458   4.388   6.414   3.209
54796W        W16459  39.906  24.151   1.219
54797W        W16460  38.827   9.701   3.719
54798W        W16461  34.967  14.307  11.420
54799W        W16462  36.473   7.697   4.128
54800W        W16463  39.031   0.795  11.081
54801W        W16464  20.137  27.962   2.810
54802W        W16465  33.913  36.587  10.620
54803W        W16466   4.326  36.930  10.525
54804W        W16467  15.099  19.650   4.319
54805W        W16468   5.423  24.570   2.680
54806W        W16469  16.762  24.650  14.486
54807W        W16470  22.721   5.386  13.868
54808W        W16471   7.289  10.322  12.352
54809W        W16472  17.638   5.225  12.845
54810W        W16473  30.470  33.923   4.221
54811W        W16474  22.035  44.909  10.635
54812W        W16475   9.763  27.643  10.475
54813W        W16476  33.595  34.501   2.869
54814W        W16477   3.308   1.795  10.107
54815W        W16478   0.458  33.440  13.540
54816W        W16479   9.373  25.641   1.314
54817W        W16480  29.571  33.585  11.544
54818W        W16481  33.087   2.312   4.208
54819W        W16482  42.511  40.949   4.169
54820W        W16483  36.555  12.782   4.245
54821W        W16484  44.933  32.139  14.399
54822W        W16485   7.238  41.836  10.520
54823W        W16486  11.165  38.344   0.784
54824W        W16487  12.808  17.713  12.514
54825W        W16488  10.153  35.010  14.017
54826W        W16489   4.806   6.370   2.883
54827W        W16490  35.417  15.107   1.807
54828W        W16491  30.108  12.116   3.302
54829W        W16492  18.636   6.814   0.437
54830W        W16493  29.522   7.349  10.603
54831W        W16494  30.453  11.323   1.309
54832W        W16495  19.681  32.942   1.423
54833W        W16496  28.113  18.267  10.069
54834W        W16497  37.534  22.712   3.728
54835W        W16498   5.298  36.421   4.697
54836W        W16499  23.208  39.983   4.115
54837W        W16500  28.437  23.648  13.926
54838W        W16501  21.061   3.251  12.512
54839W        W16502   8.821  17.741   1.277
54840W        W16503  41.904  32.452   0.385
54841W        W16504  27.173  44.935   0.265
54842W        W16505  29.933  24.663   1.795
54843W        W16506  38.052  35.397  13.958
54844W        W16507  26.024   5.748  11.399
54845W        W16508   9.384   8.834  11.941
54846W        W16509  29.545  21.527   3.163
54847W        W16510  20.595  11.799  12.959
54848W        W16511  39.438  26.648   2.347
54849W        W16512  30.963  27.940  13.401
54850W        W16513  43.918  11.705   3.645
54851W        W16514  14.723  30.594   3.194
54852W        W16515  14.261  41.486  11.574
54853W        W16516  13.351  42.514  12.524
54854W        W16517   1.468  43.294  13.389
54855W        W16518  20.544   0.896  12.025
54856W        W16519  27.974  35.603   4.610
54857W        W16520  15.207  26.170  12.059
54858W        W16521   5.698  10.244  10.419
54859W        W16522  25.619  36.997  13.320
54860W        W16523  36.570  29.925   1.875
54861W        W16524   3.849   9.212   2.260
54862W        W16525  25.113   0.976   3.164
54863W        W16526  29.634  23.603  10.471
54864W        W16527   7.864  13.767   4.319
54865W        W16528   5.371   5.861  13.366
54866W        W16529  42.519  42.382   4.836
54867W        W16530  24.584  19.721  11.004
54868W        W16531  37.521   1.887   3.177
54869W        W16532  41.467   1.774  10.924
54870W        W16533   8.272   1.439   3.799
54871W        W16534   4.444  28.029  14.468
54872W        W16535  24.582  28.579  12.495
54873W        W16536  18.636   0.945   4.276
54874W        W16537  20.109   3.450  12.993
54875W        W16538  32.533  27.971  13.515
54876W        W16539  18.262  37.567   2.791
54877W        W16540  29.641  21.179  10.016
54878W        W16541  17.654  26.652   2.689
54879W        W16542  19.077  16.699  12.825
54880W        W16543  36.076  38.439  11.086
54881W        W16544  40.008  12.296   1.895
54882W        W16545  20.149  13.110   2.764
54883W        W16546  18.620  41.395  13.832
54884W        W16547  29.569   6.851   1.908
54885W        W16548   0.483   0.346   2.244
54886W        W16549  12.340   0.249   4.654
54887W        W16550  33.927  18.617  13.995
54888W        W16551  31.043   2.372   0.381
54889W        W16552  35.358   6.373   3.363
54890W        W16553  44.386  42.395   4.141
54891W        W16554  31.419   2.399  14.395
54892W        W16555  32.433   4.422   3.178
54893W        W16556  41.978  19.640   2.188
54894W        W16557   7.826   3.756  13.045
54895W        W16558  38.361  34.102   4.741
54896W        W16559  21.523  12.155   4.705
54897W        W16560  29.159  38.432  10.544
54898W        W16561   3.315   0.924   1.864
54899W        W16562  41.515  36.364   4.164
54900W        W16563   2.228  37.581   4.705
54901W        W16564  15.683  32.994  12.553
54902W        W16565   7.742   6.682   3.257
54903W        W16566   8.297  24.114   4.208
54904W        W16567  10.219  14.338  10.486
54905W        W16568  16.202  27.678   3.367
54906W        W16569  28.443  22.568  13.343
54907W        W16570  37.389  12.827  14.286
54908W        W16571  14.807  20.687  14.459
54909W        W16572   6.251  11.188  14.277
54910W        W16573  42.469  23.025   4.811
54911W        W16574  41.350  33.418  12.497
54912W        W16575   0.888  39.445  11.375
54913W        W16576  23.724   4.218   4.160
54914W        W16577   3.898  25.097   1.887
54915W        W16578  13.335  24.695  13.803
54916W        W16579  26.588  22.038  14.351
54917W        W16580  13.258  41.436   3.316
54918W        W16581  37.911  44.977   3.737
54919W        W16582  13.285   9.652   2.193
54920W        W16583  22.042  44.305   4.797
54921W        W16584  32.062  38.045  10.939
54922W        W16585  36.029  26.605  10.643
54923W        W16586  34.958  26.463  13.367
54924W        W16587  10.635  35.494   4.794
54925W        W16588  14.260  10.274   3.270
54926W        W16589  40.361   6.818  13.977
54927W        W16590   1.246  10.837  14.889
54928W        W16591  38.476  35.556  14.377
54929W        W16592  26.048  10.313   3.744
54930W        W16593   9.709  37.891   2.813
54931W        W16594   1.929  44.379   0.771
54932W        W16595  17.689  24.012  10.572
54933W        W16596   9.323  43.460  10.448
54934W        W16597  13.296  25.645   3.696
54935W        W16598  39.943  25.069   3.367
54936W        W16599  11.189  37.466  10.423
54937W        W16600  29.138  32.419   2.735
54938W        W16601   9.343  17.209   4.608
54939W        W16602  30.606   1.355   3.369
54940W        W16603  29.065  13.637  12.359
54941W        W16604   7.302   3.411   1.349
54942W        W16605  11.143  36.874   1.933
54943W        W16606  33.879  19.209  14.964
54944W        W16607  42.987  40.937  12.851
54945W        W16608  15.750   4.850   1.444
54946W        W16609  30.537  37.022  11.410
54947W        W16610  43.945  24.132  11.098
54948W        W16611   3.783  37.919  10.629
54949W        W16612  10.364  12.131  11.468
54950W        W16613  28.957  24.979   0.950
54951W        W16614   4.917  33.898  13.999
54952W        W16615  43.354  22.611  13.798
54953W        W16616  28.649   6.290   3.708
54954W        W16617  11.664   6.385   4.616
54955W        W16618  16.086  25.695   0.462
54956W        W16619  40.518  41.006  10.903
54957W        W16620  42.805   4.397  14.306
54958W        W16621  19.776  19.067   0.922
54959W        W16622  21.074  31.559  11.468
54960W        W16623   8.303   7.213   0.271
54961W        W16624  37.407   4.876   1.431
54962W        W16625   7.755   7.301  11.582
54963W        W16626  41.975  42.404   1.928
54964W        W16627   7.700  25.962  10.506
54965W        W16628  22.177  40.874   0.343
54966W        W16629   5.260  30.949   1.778
54967W        W16630  42.931  15.796  13.860
54968W        W16631  38.857  30.996   2.309
54969W        W16632  12.739  25.994   2.740
54970W        W16633  19.726  37.389   2.214
54971W        W16634  23.645   5.240   9.579
54972W        W16635  10.728  25.708  11.036
54973W        W16636  44.376  40.368   0.857
54974W        W16637  43.393   7.379  11.590
54975W        W16638  35.073  10.654  14.410
54976W        W16639   3.368   8.287   2.662
54977W        W16640  27.050  44.457   3.765
54978W        W16641   1.749  34.471  13.511
54979W        W16642  27.944   6.711  12.560
54980W        W16643  22.528  30.572   2.328
54981W        W16644  42.473  20.573  11.046
54982W        W16645  28.944  35.033   4.666
54983W        W16646  33.409  28.009   2.722
54984W        W16647  20.099  40.980  14.316
54985W        W16648  11.843  16.120  11.954
54986W        W16649  25.020  18.686   2.821
54987W        W16650   3.719   2.902  13.468
54988W        W16651   1.463  24.621  13.473
54989W        W16652  12.833  14.106  14.386
54990W        W16653  36.534  23.655  12.872
54991W        W16654   5.793  11.864   3.302
54992W        W16655  11.735   2.465   1.339
54993W        W16656  23.103  44.455   2.291
54994W        W16657   6.197   0.364   1.401
54995W        W16658   1.953   8.368  14.396
54996W        W16659   9.384   1.869  13.004
54997W        W16660   4.351  29.608  13.897
54998W        W16661   6.784   4.398   2.887
54999W        W16662   9.160  10.879  12.519
55000W        W16663   0.392   1.905   4.659
55001W        W16664  37.012  24.150  13.825
55002W        W16665  41.525  43.917  11.114
55003W        W16666  31.990   3.801  14.923
55004W        W16667  19.278   7.338   4.604
55005W        W16668  42.810   7.326  10.450
55006W        W16669  30.515  25.189  11.514
55007W        W16670   2.963  32.964   1.798
55008W        W16671  29.533  38.906  13.901
55009W        W16672  26.496  24.126  10.957
55010W        W16673   9.336   2.364   0.326
55011W        W16674  35.049   6.788   3.834
55012W        W16675  28.110   4.310   1.841
55013W        W16676  33.522  42.872   4.794
55014W        W16677  26.478  15.095   2.407
55015W        W16678  34.997  30.118   0.961
55016W        W16679  32.078  10.704  13.043
55017W        W16680  40.467  26.689  14.815
55018W        W16681  44.424   8.239   0.384
55019W        W16682  37.455  20.207   1.371
55020W        W16683  21.216  18.661   3.683
55021W        W16684  21.755  35.381  10.471
55022W        W16685  30.615   2.828  13.417
55023W        W16686  22.546  20.144   0.408
55024W        W16687  21.653  25.506  12.445
55025W        W16688   5.818  24.201   2.721
55026W        W16689  22.528  24.527   3.237
55027W        W16690  41.474  33.922   2.891
55028W        W16691  44.409  11.364  12.389
55029W        W16692  18.770  35.579  12.422
55030W        W16693  38.527  44.984   4.727
55031W        W16694  40.880  12.136  12.079
55032W        W16695  39.548  25.061   0.820
55033W        W16696  35.994   3.448  12.449
55034W        W16697  13.271  42.849  14.770
55035W        W16698   6.281   1.864   0.429
55036W        W16699  37.474  26.669  11.982
55037W        W16700  23.998  11.729   2.834
55038W        W16701  34.496  35.059  12.840
55039W        W16702  21.681  19.697  12.444
55040W        W16703  36.434  19.199  11.049
55041W        W16704  10.686  34.438  12.051
55042W        W16705  12.301  35.063  14.462
55043W        W16706  31.106  28.623   3.672
55044W        W16707   4.708  43.306   3.736
55045W        W16708  19.648  24.521  13.515
55046W        W16709   8.743  10.331  10.156
55047W        W16710  29.480  28.440   2.251
55048W        W16711  39.367  16.708  14.015
55049W        W16712  42.845  34.576  14.801
55050W        W16713  28.030   0.970   3.645
55051W        W16714  22.217  28.124   3.349
55052W        W16715  44.839  16.127  10.012
55053W        W16716  31.127  14.264   0.398
55054W        W16717  16.221  23.513   0.871
55055W        W16718  23.606  36.006  11.469
55056W        W16719   4.355   1.301   2.885
55057W        W16720  33.953  24.107  12.891
55058W        W16721   1.899  36.448  12.421
55059W        W16722  19.045  17.796  12.530
55060W        W16723   6.277  38.466  13.871
55061W        W16724  44.418  43.340  13.475
55062W        W16725  39.968  41.022  13.895
55063W        W16726  18.084  36.015   0.427
55064W        W16727  36.035  25.490  12.939
55065W        W16728  36.852  13.632   2.340
55066W        W16729   6.740  36.405  11.484
55067W        W16730   0.755  43.817   0.350
55068W        W16731  20.148  34.962  13.351
55069W        W16732   7.201  20.739   3.768
55070W        W16733   8.757  13.820  13.335
55071W        W16734  26.061   4.927  12.030
55072W        W16735  44.384  11.255  14.955
55073W        W16736  32.060  33.064  12.355
55074W        W16737   9.164  34.989  13.940
55075W        W16738   2.801   1.896  14.309
55076W        W16739  30.933  19.606   1.810
55077W        W16740  34.477  38.822  13.411
55078W        W16741   5.811  32.403   3.203
55079W        W16742  20.039  35.854  10.890
55080W        W16743  31.515  41.972   0.803
55081W        W16744  10.828  27.119   3.752
55082W        W16745   5.720   2.869  14.953
55083W        W16746  36.956  22.129  14.882
55084W        W16747  36.461   7.833   0.856
55085W        W16748  23.003  31.908  11.569
55086W        W16749   9.875   0.406  13.898
55087W        W16750  25.064   9.748  12.972
55088W        W16751  17.185  18.775  10.913
55089W        W16752   3.955  18.734  14.795
55090W        W16753  27.107  43.479   1.746
55091W        W16754  30.485  12.287  13.932
55092W        W16755   0.946  37.449   3.768
55093W        W16756  22.694  13.837   3.638
55094W        W16757  35.549  18.720   2.842
55095W        W16758   4.296  26.500   2.267
55096W        W16759  11.204  42.395  10.622
55097W        W16760  37.430  33.449  14.476
55098W        W16761  13.765  15.750  13.322
55099W        W16762  44.278  15.664   0.933
55100W        W16763  28.116   7.718  12.052
55101W        W16764  38.976  28.477  12.039
55102W        W16765  21.678  30.907  11.969
55103W        W16766  28.043  24.708  13.345
55104W        W16767  43.411  43.435   4.124
55105W        W16768   4.829  28.552  14.345
55106W        W16769  43.481  26.675  14.445
55107W        W16770  29.611  22.615   4.281
55108W        W16771   6.195  15.095  14.358
55109W        W16772  10.379  16.719  14.829
55110W        W16773  32.545  29.155   1.235
55111W        W16774  11.827  28.434  11.381
55112W        W16775  22.514  41.472  12.828
55113W        W16776  40.491  21.573  13.461
55114W        W16777  37.938  10.378   4.827
55115W        W16778   2.259   2.369   3.300
55116W        W16779  12.196  13.826   3.191
55117W        W16780  36.523  41.517   3.249
55118W        W16781   9.875  18.235  13.955
55119W        W16782   6.919   4.717   1.386
55120W        W16783  16.579  38.005   1.815
55121W        W16784  26.203   0.420  11.542
55122W        W16785  42.489  26.977  10.966
55123W        W16786  27.681   1.458   0.772
55124W        W16787   0.767  41.817  11.877
55125W        W16788   4.904  27.511  11.410
55126W        W16789  20.523  17.066   4.248
55127W        W16790  24.685  24.543   5.578
55128W        W16791  41.041  32.431   1.799
55129W        W16792   2.335  38.912  13.950
55130W        W16793   8.676   3.258   0.955
55131W        W16794  42.943  31.933   4.823
55132W        W16795  18.054  16.771   2.256
55133W        W16796   1.275  21.647  13.533
55134W        W16797  23.000  15.771  12.017
55135W        W16798  29.426  40.925   3.226
55136W        W16799   6.739  31.990   4.690
55137W        W16800  29.040  42.852   3.270
55138W        W16801  31.601  36.084   2.344
55139W        W16802  44.772  43.294   2.800
55140W        W16803  16.746  30.087   3.374
55141W        W16804  35.956  20.553   2.662
55142W        W16805  17.120  32.030   1.865
55143W        W16806  34.470   9.165  12.476
55144W        W16807  16.170  12.645  11.903
55145W        W16808  10.668   7.228   2.244
55146W        W16809  32.953  30.921  11.390
55147W        W16810  30.074  44.784  14.812
55148W        W16811  19.171   8.366   1.723
55149W        W16812  36.590  18.782   3.259
55150W        W16813  35.879  36.358   0.769
55151W        W16814  43.901  16.597   4.141
55152W        W16815   6.758  15.779  10.443
55153W        W16816  22.157  16.281  11.904
55154W        W16817  18.138   7.295   1.242
55155W        W16818  42.463  40.925  12.835
55156W        W16819  25.107  44.926  12.405
55157W        W16820  10.871  30.551  12.990
55158W        W16821  12.679  19.613  12.076
55159W        W16822  35.937  25.104   4.147
55160W        W16823  41.837  39.967  14.855
55161W        W16824  37.984  24.197  13.795
55162W        W16825   5.781  36.455   4.734
55163W        W16826  18.610  12.286  12.964
55164W        W16827  33.961   4.370   2.404
55165W        W16828  32.393   6.364   1.769
55166W        W16829  35.100   9.177   1.408
55167W        W16830  32.121  34.522   0.347
55168W        W16831  44.473  19.179   4.135
55169W        W16832  12.333  31.475  10.608
55170W        W16833  23.592  25.139  13.844
55171W        W16834   2.751  10.834  10.967
55172W        W16835   5.258  40.436  12.556
55173W        W16836  38.505  42.337  13.492
55174W        W16837   0.972   5.281  12.542
55175W        W16838  18.625  16.197  12.359
55176W        W16839   3.271  41.350   2.783
55177W        W16840  16.281  43.467  10.461
55178W        W16841  35.515  19.562  13.892
55179W        W16842  14.195  40.000   2.254
55180W        W16843   9.213  31.000   1.913
55181W        W16844  28.458  41.925   1.846
55182W        W16845  40.334  37.908  14.759
55183W        W16846  22.063   0.248   0.941
55184W        W16847  40.398  38.494  10.963
55185W        W16848  41.358  26.668  14.978
55186W        W16849  25.567  37.958   0.366
55187W        W16850  18.630  14.799   4.252
55188W        W16851  38.832  17.181   4.291
55189W        W16852  27.172  22.538  10.135
55190W        W16853  15.698  38.370   2.723
55191W        W16854  42.779   8.186  12.392
55192W        W16855  42.339  19.729  14.947
55193W        W16856   7.393  41.026  13.045
55194W        W16857  14.593  43.893   4.735
55195W        W16858  30.416  25.602  13.931
55196W        W16859  16.277   7.866   4.730
55197W        W16860  15.818  34.873  12.079
55198W        W16861  30.430  44.788   0.459
55199W        W16862  37.371  40.806  11.039
55200W        W16863  41.044  27.640   4.707
55201W        W16864  31.918  35.465   4.799
55202W        W16865  10.790   0.840   4.655
55203W        W16866   3.945  30.029  13.843
55204W        W16867   1.391   9.752  11.882
55205W        W16868   5.410  34.491  13.402
55206W        W16869  31.964  41.426   4.782
55207W        W16870   9.308  41.361   1.400
55208W        W16871   5.889  10.806  12.927
55209W        W16872  32.403  23.022  10.474
55210W        W16873  17.599  24.549  10.419
55211W        W16874  27.682  17.734  10.583
55212W        W16875  16.198   5.729   2.857
55213W        W16876  23.735  21.707   3.816
55214W        W16877  41.341  19.120   3.678
55215W        W16878  33.094   3.794   4.162
55216W        W16879  12.351   7.822   0.259
55217W        W16880   7.258   2.472  14.336
55218W        W16881   0.859  44.982   0.268
55219W        W16882  36.501  26.144   0.458
55220W        W16883  43.920  40.338   3.155
55221W        W16884  34.612   2.853   0.837
55222W        W16885  43.453   5.881   5.249
55223W        W16886   0.416  37.460   2.848
55224W        W16887  20.743  44.905  13.433
55225W        W16888   9.648  17.676   2.229
55226W        W16889  36.503  40.529   3.376
55227W        W16890   2.349  12.359   1.695
55228W        W16891  36.485  19.773   9.615
55229W        W16892  22.516  29.562   5.254
55230W        W16893  40.865  14.833   0.465
55231W        W16894  38.408  40.824  13.812
55232W        W16895  15.088   0.492  13.356
55233W        W16896  37.376  30.076   1.333
55234W        W16897  15.197  11.812   0.374
55235W        W16898   3.403  12.313  13.848
55236W        W16899   5.233  16.582   4.349
55237W        W16900  22.071  11.213   1.398
55238W        W16901  27.015  30.104   1.898
55239W        W16902  25.182  25.024   0.841
55240W        W16903  29.660  17.649   0.967
55241W        W16904   7.224   9.848  10.567
55242W        W16905  44.388  34.066   4.354
55243W        W16906  21.601   4.906   3.371
55244W        W16907  42.914   5.749   0.404
55245W        W16908  24.039   5.816  13.035
55246W        W16909   0.895  40.406   0.463
55247W        W16910  34.610  29.148   2.814
55248W        W16911  29.514  19.239  13.449
55249W        W16912  44.426  11.218   3.328
55250W        W16913  36.533  21.743   2.681
55251W        W16914  15.197  20.642   2.853
55252W        W16915  15.276  21.616   0.808
55253W        W16916  43.013  20.054  10.571
55254W        W16917  40.432  16.076  13.014
55255W        W16918   1.863  31.098   0.371
55256W        W16919   1.799  43.351  12.341
55257W        W16920  39.040   7.716  10.896
55258W        W16921  30.525  13.174   1.901
55259W        W16922  15.632   5.928  13.457
55260W        W16923  32.083   1.746   1.441
55261W        W16924  17.109  17.213   2.300
55262W        W16925  27.537   3.903  12.929
55263W        W16926  18.260  38.475   2.274
55264W        W16927  18.640  18.629   5.236
55265W        W16928  43.975  25.014  13.425
55266W        W16929  11.782  42.939  11.124
55267W        W16930  21.222  11.131   2.818
55268W        W16931  43.783   9.785  11.867
55269W        W16932  36.395  15.096  11.123
55270W        W16933  39.942  25.153  12.502
55271W        W16934  22.064   3.302  13.001
55272W        W16935  21.023  41.027   2.866
55273W        W16936  12.686  29.046   3.158
55274W        W16937  18.152  34.945  12.410
55275W        W16938  30.530  32.002  12.854
55276W        W16939  20.034  39.864  11.909
55277W        W16940  25.486   7.849   0.899
55278W        W16941  34.505  29.634   4.166
55279W        W16942  19.070  14.700  12.522
55280W        W16943  11.751  38.891   0.889
55281W        W16944   1.367  20.153   0.742
55282W        W16945  16.612  16.609  14.307
55283W        W16946  23.073  36.522   0.774
55284W        W16947  41.452  44.990  10.908
55285W        W16948  38.369   1.481  13.025
55286W        W16949   1.320   6.729  14.852
55287W        W16950  36.976  17.655  10.981
55288W        W16951  12.172   1.920   1.725
55289W        W16952   9.235  41.440  10.028
55290W        W16953  25.078   2.296   5.778
55291W        W16954  11.679  19.685   4.251
55292W        W16955  21.047  19.727   0.776
55293W        W16956  29.964  11.317  12.493
55294W        W16957  10.641  33.454   4.123
55295W        W16958   3.363  26.692   0.345
55296W        W16959   0.962  43.850   3.162
55297W        W16960  42.966   2.332  11.395
55298W        W16961  39.450   8.229   2.683
55299W        W16962  31.488  38.366  14.885
55300W        W16963  30.645  19.560  14.758
55301W        W16964  23.117  28.957   2.244
55302W        W16965   5.795  30.551   0.427
55303W        W16966  41.802  21.089  11.511
55304W        W16967  44.462   2.752   0.311
55305W        W16968  39.443  42.338  10.958
55306W        W16969  37.463   3.727  13.476
55307W        W16970  41.502  27.070   3.713
55308W        W16971  18.149  39.055   2.780
55309W        W16972  25.564  11.866  10.156
55310W        W16973  22.017   3.774   1.332
55311W        W16974   8.845  25.573  14.826
55312W        W16975  10.219   3.812   1.393
55313W        W16976   3.863  39.955   3.716
55314W        W16977  12.654  16.214  12.528
55315W        W16978  15.659  18.780  12.915
55316W        W16979  26.482  10.718   0.392
55317W        W16980  11.799  36.536   4.801
55318W        W16981   5.811  37.501  12.408
55319W        W16982  26.637  22.197  11.124
55320W        W16983  14.214  24.563  13.424
55321W        W16984  40.901  22.566   1.893
55322W        W16985  37.888  16.617  10.569
55323W        W16986  16.587  16.783   4.772
55324W        W16987   4.719  27.092  10.540
55325W        W16988   3.884  44.880  14.452
55326W        W16989  41.460  31.526   2.858
55327W        W16990  29.566   2.891  14.892
55328W        W16991  10.329  31.008   1.764
55329W        W16992  12.831   4.804   1.764
55330W        W16993  34.985  36.972  12.842
55331W        W16994   7.213  24.061   1.778
55332W        W16995  16.235   5.278  10.422
55333W        W16996  29.071  27.958   2.269
55334W        W16997  11.305   3.746   4.157
55335W        W16998  30.568  13.685  11.578
55336W        W16999   9.859  33.063   4.620
55337W        W17000  40.531  10.377   2.748
55338W        W17001  43.991  21.055   9.932
55339W        W17002  10.635  11.307  11.105
55340W        W17003  40.542  41.465   2.359
55341W        W17004  10.230  32.469   1.251
55342W        W17005  23.231  34.876   0.774
55343W        W17006  38.981  26.005   4.822
55344W        W17007  31.480  33.073   3.348
55345W        W17008  30.596   1.343   0.933
55346W        W17009  14.129  23.570   3.301
55347W        W17010   7.320  40.526   2.753
55348W        W17011  27.034  35.416   0.913
55349W        W17012  43.348  17.743   4.264
55350W        W17013  44.805   4.791   0.286
55351W        W17014  23.038  20.049  11.104
55352W        W17015  34.027  34.406  10.906
55353W        W17016  13.279   7.335  14.485
55354W        W17017   8.738  39.511   1.776
55355W        W17018   5.320   4.747  11.070
55356W        W17019  39.480   5.383  10.500
55357W        W17020  39.021   9.834   4.219
55358W        W17021  17.760   0.314  13.798
55359W        W17022  35.072  33.089  14.383
55360W        W17023  20.135  36.395   1.712
55361W        W17024  15.122   5.933   0.746
55362W        W17025  12.272  44.468   0.847
55363W        W17026  39.846  36.386   2.852
55364W        W17027  34.941   1.806  14.341
55365W        W17028  18.075  30.496  12.448
55366W        W17029  37.491   8.838  14.879
55367W        W17030  39.364  32.578   3.241
55368W        W17031  28.559  18.184   1.268
55369W        W17032   5.930  29.477  10.469
55370W        W17033   2.325   4.941   2.901
55371W        W17034  38.384  37.535  14.002
55372W        W17035  26.678  23.524   4.190
55373W        W17036  25.030  40.328   0.275
55374W        W17037  20.605  15.274   1.826
55375W        W17038  19.739   8.722   4.188
55376W        W17039  13.845  42.869  14.385
55377W        W17040  17.776  39.821   2.342
55378W        W17041   0.792  37.431  11.460
55379W        W17042  42.015  21.212  14.950
55380W        W17043  38.498  25.595  10.967
55381W        W17044  40.527  12.322  12.046
55382W        W17045  44.339   1.424   0.386
55383W        W17046   3.455  37.987  10.989
55384W        W17047  15.781  44.810   2.763
55385W        W17048  10.700  29.144  13.023
55386W        W17049  43.331  11.176   1.935
55387W        W17050  11.219  12.301   1.714
55388W        W17051   8.768  35.987   2.212
55389W        W17052  40.891  13.330  11.921
55390W        W17053  24.199  14.749   4.282
55391W        W17054  24.606  19.597   3.218
55392W        W17055  31.961   8.695   3.268
55393W        W17056  38.359   2.763   4.691
55394W        W17057  44.441   1.895  13.450
55395W        W17058  26.687   0.323  14.867
55396W        W17059  16.628  18.202  12.957
55397W        W17060  40.310  23.558   4.614
55398W        W17061  44.002   5.239   0.271
55399W        W17062  17.147  22.134  14.847
55400W        W17063  37.518  15.733   3.729
55401W        W17064  38.979  13.166  14.451
55402W        W17065   1.422   5.831   4.127
55403W        W17066   4.215  29.158   0.749
55404W        W17067  19.221  43.776   4.622
55405W        W17068   9.794  36.878   1.328
55406W        W17069  32.015   6.401   0.837
55407W        W17070   6.851  43.902  11.903
55408W        W17071   3.793  19.098  13.823
55409W        W17072  23.644  32.893  14.502
55410W        W17073   2.720  34.489   4.249
55411W        W17074   1.345  24.661   2.844
55412W        W17075  17.295  28.558   4.222
55413W        W17076  22.016  38.456  13.843
55414W        W17077  30.966  27.116   1.852
55415W        W17078   8.863  35.913  11.609
55416W        W17079   6.753  44.783   4.270
55417W        W17080  38.953  16.193  14.796
55418W        W17081  19.072   1.460  11.511
55419W        W17082  29.030  38.324  11.394
55420W        W17083  10.745  19.603  11.446
55421W        W17084  38.030  22.604   2.198
55422W        W17085   6.840  16.601   4.809
55423W        W17086  17.298  25.129  12.560
55424W        W17087   7.343  41.971   0.351
55425W        W17088  30.457  27.060   1.806
55426W        W17089  41.296  14.690  14.908
55427W        W17090  33.480  14.204   2.737
55428W        W17091  31.499  32.590   1.840
55429W        W17092  23.008  18.140  11.003
55430W        W17093   3.461  27.572  13.448
55431W        W17094   3.843  10.250   9.929
55432W        W17095  19.201  38.008  10.951
55433W        W17096  27.955   3.932   4.117
55434W        W17097  16.772  10.378   0.793
55435W        W17098  18.750  11.129  10.964
55436W        W17099  14.835  24.125   4.228
55437W        W17100  14.268  12.328   3.712
55438W        W17101   2.339  17.264   2.732
55439W        W17102  27.552  27.664  12.057
55440W        W17103  29.444  22.556  11.523
55441W        W17104  19.628   7.204  10.951
55442W        W17105  32.393  25.562  12.856
55443W        W17106  34.532  20.220   2.846
55444W        W17107   4.372  31.061  13.014
55445W        W17108   7.263  12.309   3.834
55446W        W17109  10.826   8.325  13.835
55447W        W17110  36.480  36.481   4.343
55448W        W17111  11.662  11.719   3.726
55449W        W17112  38.532   7.263  13.870
55450W        W17113  34.436  40.384   3.185
55451W        W17114  22.580  32.113   4.684
55452W        W17115   8.344  16.180  12.096
55453W        W17116  37.408  39.043  12.448
55454W        W17117  23.024  10.345   4.302
55455W        W17118  42.913   7.245   2.746
55456W        W17119   1.796  34.896   2.336
55457W        W17120  11.823  12.666   3.809
55458W        W17121  28.490  12.220  12.477
55459W        W17122  19.120  21.089   2.830
55460W        W17123  38.919  43.772   4.204
55461W        W17124   8.783  44.822   3.738
55462W        W17125   1.399   2.277  12.576
55463W        W17126  26.031   7.239  10.933
55464W        W17127   0.811   9.359   2.698
55465W        W17128  17.210  36.376   5.254
55466W        W17129  16.707  35.539   4.736
55467W        W17130  35.436  44.804  14.464
55468W        W17131   7.392   0.291   2.280
55469W        W17132  40.341  27.082  13.387
55470W        W17133  11.311  29.944   0.314
55471W        W17134  30.501   2.806   2.403
55472W        W17135  38.407  13.309   1.343
55473W        W17136  10.150  21.204  14.516
55474W        W17137   1.456   0.414   0.836
55475W        W17138   4.889  36.062   0.751
55476W        W17139  13.169  20.132  12.013
55477W        W17140  20.550  27.950   3.299
55478W        W17141   1.366  20.673   4.202
55479W        W17142   3.395  25.621   0.824
55480W        W17143  15.590  30.612   1.325
55481W        W17144  44.992  44.453   0.311
55482W        W17145  14.224  38.386  13.490
55483W        W17146  10.143  24.209  13.826
55484W        W17147  40.423  32.601  13.320
55485W        W17148  24.503  40.482  14.303
55486W        W17149  40.873  44.357  13.344
55487W        W17150  18.693   0.873  12.539
55488W        W17151  35.477  17.200   4.784
55489W        W17152  34.591  11.347   1.266
55490W        W17153  16.131   7.734  14.388
55491W        W17154   7.277  36.881   3.210
55492W        W17155   2.450  28.027  13.829
55493W        W17156   7.286  35.925  11.493
55494W        W17157  36.088  21.520  11.515
55495W        W17158  28.963   4.347   3.740
55496W        W17159  31.548  21.156   2.204
55497W        W17160   9.782  10.637   3.268
55498W        W17161  34.870  29.501   2.706
55499W        W17162  25.634  25.109  13.910
55500W        W17163   3.878   8.299   4.342
55501W        W17164  37.871   4.848   0.839
55502W        W17165  38.974   9.150  13.014
55503W        W17166  12.701   4.373   2.827
55504W        W17167  26.574  39.546   0.456
55505W        W17168  28.014  21.194   4.619
55506W        W17169  38.325  22.071  14.459
55507W        W17170  19.626  34.583   3.228
55508W        W17171   7.857  18.198  12.853
55509W        W17172  26.054   7.299   1.246
55510W        W17173  38.489  17.305  10.598
55511W        W17174  27.008   5.231  10.966
55512W        W17175   1.324  22.252   0.749
55513W        W17176  19.569  42.406  14.875
55514W        W17177  30.424  20.572  11.992
55515W        W17178   8.343   4.759  11.072
55516W        W17179  17.664  12.128   0.303
55517W        W17180  39.512  32.040   1.906
55518W        W17181  42.865  34.032  11.391
55519W        W17182   8.791   9.735   3.855
55520W        W17183  43.305   0.798  13.791
55521W        W17184   9.292  13.268  13.534
55522W        W17185  29.109  33.049   3.722
55523W        W17186  22.199  38.368   3.152
55524W        W17187   2.853  26.657   3.178
55525W        W17188  34.918  35.422  12.575
55526W        W17189  15.753  40.362   0.770
55527W        W17190  43.809  23.218   3.851
55528W        W17191  14.752  37.908   0.420
55529W        W17192  25.075  13.814  13.000
55530W        W17193  37.866  44.935  10.951
55531W        W17194   6.324  19.616  14.364
55532W        W17195   4.718   6.854  11.516
55533W        W17196  38.913  35.102   2.351
55534W        W17197  41.480  35.375  11.870
55535W        W17198  37.379  32.108   1.449
55536W        W17199  10.642  41.350   1.416
55537W        W17200  35.580  33.122  10.450
55538W        W17201  16.641   7.799   1.886
55539W        W17202   4.919   2.957  11.036
55540W        W17203  41.990  26.512   2.216
55541W        W17204  26.113  38.948  11.556
55542W        W17205  18.098  23.094  14.876
55543W        W17206  24.026   6.867   4.330
55544W        W17207  16.655  11.275  11.078
55545W        W17208   2.767  37.360   2.735
55546W        W17209  30.923  12.701  14.468
55547W        W17210   7.752  24.080   0.795
55548W        W17211  30.605  38.007   0.312
55549W        W17212  28.069  19.057  14.505
55550W        W17213  38.976  23.037  11.439
55551W        W17214  36.582  20.543  13.861
55552W        W17215  25.647   1.795   3.363
55553W        W17216  44.844  15.758   4.644
55554W        W17217  33.012  33.075  12.486
55555W        W17218   7.196  30.927  13.366
55556W        W17219  40.518  34.974   0.951
55557W        W17220  19.768  42.989  11.447
55558W        W17221  31.480  14.751   2.244
55559W        W17222  35.391  35.960  13.359
55560W        W17223  18.074  32.942   1.284
55561W        W17224  36.513  16.296  11.410
55562W        W17225  36.510  24.560  12.357
55563W        W17226  21.671  11.342  11.374
55564W        W17227  22.743  26.190  11.879
55565W        W17228   6.277  41.475   1.827
55566W        W17229  26.525  10.712   1.316
55567W        W17230   3.302  30.437   4.698
55568W        W17231  14.116  42.994  14.372
55569W        W17232  33.499  19.209  12.893
55570W        W17233   1.753  20.041   4.789
55571W        W17234  38.838  28.475   3.287
55572W        W17235   0.260  13.162  12.367
55573W        W17236   5.709  41.492   4.232
55574W        W17237  13.719  30.614   2.306
55575W        W17238   7.780  37.932  10.902
55576W        W17239  42.453  13.216   3.823
55577W        W17240  24.673  38.557   0.869
55578W        W17241   0.361   7.223  11.017
55579W        W17242  38.903   0.922   1.754
55580W        W17243  41.521  30.606   1.405
55581W        W17244  39.546  39.398  13.832
55582W        W17245  14.160  40.519   3.763
55583W        W17246   3.768  41.510  10.618
55584W        W17247  35.554  18.095  13.463
55585W        W17248   4.835  13.796  12.956
55586W        W17249  32.517  16.642   4.609
55587W        W17250  43.872  10.768  13.022
55588W        W17251  44.776  19.720  12.528
55589W        W17252  22.514   6.742  13.023
55590W        W17253  18.654   9.806   3.652
55591W        W17254  31.143  17.606  14.008
55592W        W17255   0.438  36.913   3.195
55593W        W17256  40.805  23.111  11.402
55594W        W17257   5.319  29.639   2.340
55595W        W17258  21.166  15.202  14.489
55596W        W17259  12.658  36.958  12.916
55597W        W17260  27.000   5.930  11.913
55598W        W17261  38.520  34.005  11.410
55599W        W17262   9.768  23.723   0.737
55600W        W17263  22.034  26.964  13.975
55601W        W17264  11.151   4.211   0.754
55602W        W17265  41.390  43.018   4.209
55603W        W17266  18.082  23.042  10.597
55604W        W17267   6.710  42.411   1.779
55605W        W17268  12.173  23.078   4.745
55606W        W17269   8.318  25.087  12.974
55607W        W17270   1.336   3.337   4.334
55608W        W17271  32.087  27.509  13.015
55609W        W17272  24.716   3.328  14.990
55610W        W17273   5.926  23.198   1.741
55611W        W17274  28.986   4.759   3.351
55612W        W17275  21.129  43.332  13.026
55613W        W17276   3.712  18.271   1.401
55614W        W17277  22.670  21.674   4.604
55615W        W17278  11.224   6.362   1.272
55616W        W17279   1.320   7.732  14.356
55617W        W17280  27.974   3.255   1.699
55618W        W17281  22.583  43.483   2.739
55619W        W17282  28.151  34.052  13.835
55620W        W17283  17.072   7.248  11.033
55621W        W17284  24.166  29.516  13.516
55622W        W17285  13.604  42.348   0.307
55623W        W17286  19.761   4.431   1.451
55624W        W17287  19.697   7.823  14.862
55625W        W17288  44.930   9.889   2.214
55626W        W17289   6.354  31.515   3.850
55627W        W17290  38.496   1.271   2.767
55628W        W17291  38.009  32.589   1.444
55629W        W17292  41.833  10.654   1.262
55630W        W17293  44.364  24.690   3.703
55631W        W17294  33.619  30.913   1.400
55632W        W17295   7.875  23.182   4.192
55633W        W17296  36.389   9.650  14.438
55634W        W17297  33.586  19.226   3.789
55635W        W17298  19.111  41.326   1.697
55636W        W17299  14.199  18.776   2.782
55637W        W17300  14.130  11.798   0.461
55638W        W17301  33.483  42.999   3.279
55639W        W17302   5.374   6.294   4.114
55640W        W17303  24.714  33.488   4.314
55641W        W17304   6.343  20.639   1.333
55642W        W17305  40.444  22.017   1.315
55643W        W17306  14.238   4.722   1.235
55644W        W17307  23.213  23.084  10.514
55645W        W17308  41.034  34.051   0.737
55646W        W17309   2.903  12.119   2.286
55647W        W17310   2.372  20.259  12.017
55648W        W17311  22.551  30.488  11.948
55649W        W17312  35.060  11.861  10.902
55650W        W17313   5.295   6.235  14.798
55651W        W17314  31.575  35.937   4.308
55652W        W17315   7.791   6.281  10.103
55653W        W17316  42.322   5.255   9.554
55654W        W17317  30.975  37.951   4.790
55655W        W17318  36.034   4.206  12.846
55656W        W17319  32.592   7.304  12.525
55657W        W17320  12.750  16.194  14.507
55658W        W17321  44.407  43.352  11.896
55659W        W17322   9.840  28.582  14.902
55660W        W17323  26.591  12.725   2.307
55661W        W17324  34.386   9.798   0.820
55662W        W17325  36.070  36.370  11.114
55663W        W17326  30.136   5.364  12.873
55664W        W17327  34.018  25.536   3.781
55665W        W17328  14.717  27.022  14.493
55666W        W17329  11.261  27.164  12.558
55667W        W17330   5.197   9.821   2.214
55668W        W17331  18.663  31.416  14.343
55669W        W17332   1.850  37.004   0.948
55670W        W17333  24.221  16.784  13.885
55671W        W17334  11.824  27.948   0.363
55672W        W17335  15.650   7.903  12.937
55673W        W17336  39.900   5.300   2.872
55674W        W17337  33.988  36.938  13.335
55675W        W17338  23.094  41.841   1.257
55676W        W17339  20.630  27.666  14.370
55677W        W17340  20.749  30.008  14.810
55678W        W17341   1.933   1.968   2.293
55679W        W17342  10.220  12.264   0.829
55680W        W17343  20.115  33.026  14.934
55681W        W17344  39.908   3.947   0.409
55682W        W17345   5.418  31.052   3.788
55683W        W17346  19.720  18.114   0.799
55684W        W17347  40.448  19.588   0.935
55685W        W17348  12.835  36.412   4.823
55686W        W17349  34.985  31.933   0.286
55687W        W17350   5.256  28.150  11.372
55688W        W17351   2.929  28.638   2.375
55689W        W17352  31.998  13.307  12.479
55690W        W17353  35.857  37.566  11.057
55691W        W17354  20.126  39.952   4.166
55692W        W17355  41.321  13.205  13.455
55693W        W17356  11.373  38.529  12.356
55694W        W17357  43.315  31.418   3.816
55695W        W17358  11.779  17.569  11.526
55696W        W17359   2.790   8.381   4.276
55697W        W17360  42.826  13.121  14.972
55698W        W17361  27.504  24.553   1.919
55699W        W17362  37.886   2.745   1.246
55700W        W17363  12.775  33.505   0.892
55701W        W17364  39.034  25.480  11.071
55702W        W17365  20.140  12.679   0.888
55703W        W17366  28.483  24.567   2.733
55704W        W17367  20.055   7.865   3.722
55705W        W17368  24.133   0.374  11.053
55706W        W17369  28.510  40.019   0.916
55707W        W17370   6.311   7.738   0.751
55708W        W17371  40.887  35.516   0.910
55709W        W17372  19.641  36.064  10.434
55710W        W17373  34.931   7.224   0.314
55711W        W17374   2.263  33.597   1.294
55712W        W17375  37.050  19.155   0.818
55713W        W17376   2.769  32.396   1.899
55714W        W17377   7.862   1.423   2.397
55715W        W17378  22.078  21.618   1.749
55716W        W17379  29.446   3.315  14.888
55717W        W17380  16.633  22.995   3.386
55718W        W17381  40.001  15.642  10.923
55719W        W17382  29.444  19.258  11.011
55720W        W17383  24.597  37.858  11.001
55721W        W17384  41.420  33.489   1.724
55722W        W17385   3.760  36.417  11.505
55723W        W17386   4.738   0.353  11.395
55724W        W17387  44.988  17.622  11.910
55725W        W17388  24.193   0.922  11.467
55726W        W17389   5.228  14.206   3.272
55727W        W17390  32.453  21.123   3.661
55728W        W17391   1.772  18.651  10.577
55729W        W17392  28.598  42.957   0.319
55730W        W17393  37.914  30.512   0.247
55731W        W17394   6.736  28.931  11.967
55732W        W17395  23.031   4.772   1.715
55733W        W17396  44.923  17.610   1.874
55734W        W17397   0.747  40.534  12.406
55735W        W17398  32.033  37.003   0.929
55736W        W17399  12.179   8.373   1.848
55737W        W17400  28.623  35.468  12.429
55738W        W17401   2.890  13.757  13.332
55739W        W17402  18.612  30.578  14.764
55740W        W17403  11.695  34.872  11.553
55741W        W17404  12.118   9.360   5.195
55742W        W17405  17.712  42.396  13.948
55743W        W17406   7.391   8.663   4.635
55744W        W17407   7.300  30.551   0.928
55745W        W17408  21.104  13.783  13.026
55746W        W17409  32.503  18.078  13.343
55747W        W17410   7.721  38.925   3.295
55748W        W17411   9.203  34.463   4.257
55749W        W17412  37.938  19.624  11.527
55750W        W17413   3.840  20.134   0.267
55751W        W17414  16.072  28.655  14.783
55752W        W17415   7.715   6.789   1.267
55753W        W17416  31.026  23.082  11.451
55754W        W17417  43.781  16.775   9.657
55755W        W17418   1.260  36.564  14.405
55756W        W17419   5.205   1.767  13.425
55757W        W17420  27.993  12.187   2.887
55758W        W17421  12.184  44.973  14.872
55759W        W17422   3.397   8.268  12.044
55760W        W17423  35.932  42.841  12.982
55761W        W17424  24.061  13.693  12.467
55762W        W17425  40.394  30.513  11.433
55763W        W17426  41.861  27.128   0.839
55764W        W17427   0.261  36.077  12.848
55765W        W17428  22.665   7.828   3.149
55766W        W17429  43.374  36.546   2.300
55767W        W17430  30.444  10.170  13.948
55768W        W17431  12.265  42.480   2.256
55769W        W17432  28.660   9.698  14.331
55770W        W17433  41.407   0.427   3.349
55771W        W17434  29.963  15.205  11.076
55772W        W17435  18.118  35.590  14.772
55773W        W17436   5.297  14.706   4.615
55774W        W17437  26.513  32.417  11.532
55775W        W17438  10.236  18.077   4.674
55776W        W17439  40.915   5.735   1.421
55777W        W17440  24.673   2.281   1.925
55778W        W17441  12.143  15.180   1.405
55779W        W17442  30.995  31.947   0.761
55780W        W17443  23.167  29.135  12.568
55781W        W17444  12.283  20.554   0.894
55782W        W17445  33.097  39.524   4.821
55783W        W17446  21.524  35.578  11.498
55784W        W17447   5.773  12.805   1.370
55785W        W17448   9.763  44.301   0.287
55786W        W17449  43.335  23.505   3.699
55787W        W17450  13.248  20.137   4.254
55788W        W17451  32.527  23.233   4.334
55789W        W17452  12.305  16.269   0.776
55790W        W17453  31.450  22.167   4.634
55791W        W17454  24.707  31.003  10.424
55792W        W17455  42.493  42.844   3.698
55793W        W17456   2.432  39.040   0.764
55794W        W17457  32.601  17.152   3.241
55795W        W17458  19.637  29.097  11.988
55796W        W17459  32.136  27.576   3.295
55797W        W17460   9.810  15.180   0.965
55798W        W17461  22.651  31.986   2.368
55799W        W17462  40.944  25.681  13.033
55800W        W17463  27.548  17.627  13.506
55801W        W17464  25.209  29.519   3.703
55802W        W17465  18.608  42.465   0.945
55803W        W17466  16.644   1.890   4.184
55804W        W17467  39.948   2.919   1.788
55805W        W17468  24.989   6.190   0.818
55806W        W17469  39.317  16.168   1.750
55807W        W17470   6.272  38.440   4.163
55808W        W17471  33.047  41.013  11.100
55809W        W17472  18.578  27.056   2.900
55810W        W17473  24.536  17.174   0.745
55811W        W17474  35.479  28.104   1.789
55812W        W17475  24.505  28.019  14.314
55813W        W17476  43.440  25.111  12.839
55814W        W17477  42.415  17.725   1.353
55815W        W17478   0.816   0.899  13.916
55816W        W17479  26.520  42.802   1.315
55817W        W17480  34.081  23.062  10.921
55818W        W17481  25.615  38.456   0.357
55819W        W17482   6.707   5.915   1.766
55820W        W17483  18.140   8.705   0.279
55821W        W17484  39.339  26.117   3.316
55822W        W17485  42.800   2.953  11.426
55823W        W17486  17.557  31.005  12.962
55824W        W17487  39.501  20.156   4.237
55825W        W17488  42.007   0.352  13.973
55826W        W17489  44.844  28.605  10.986
55827W        W17490   5.809  36.548  14.000
55828W        W17491  34.026  25.071  13.369
55829W        W17492  20.241  14.196  14.834
55830W        W17493  43.986  38.871  13.061
55831W        W17494   3.868  39.820   0.776
55832W        W17495   3.758  41.925   1.221
55833W        W17496  44.420  39.853  11.523
55834W        W17497  10.790  39.366   1.279
55835W        W17498  36.846  13.729  11.109
55836W        W17499   4.285  27.094   3.168
55837W        W17500  24.580  15.635   4.205
55838W        W17501  21.525  12.722  14.349
55839W        W17502  17.707  18.613  14.281
55840W        W17503  23.150  40.965  11.511
55841W        W17504  24.622  16.675   1.905
55842W        W17505  21.589   8.768  14.275
55843W        W17506  22.689   8.691  12.970
55844W        W17507  42.350  15.311   2.672
55845W        W17508  20.636   0.272   2.279
55846W        W17509  38.387  17.664  12.090
55847W        W17510  12.690   4.314   3.758
55848W        W17511   7.668  43.280  11.962
55849W        W17512  30.415  10.735   2.880
55850W        W17513  32.010  25.518  14.439
55851W        W17514  44.399   5.343  13.312
55852W        W17515  38.350  12.831   1.861
55853W        W17516  30.008  18.606  10.418
55854W        W17517  15.112   7.196   0.955
55855W        W17518  42.033  12.722   3.863
55856W        W17519  32.975  29.924  13.519
55857W        W17520   0.770  25.483   0.469
55858W        W17521  10.215  43.332   3.349
55859W        W17522  11.282  42.777  12.866
55860W        W17523  35.918  22.669  11.910
55861W        W17524   3.378  29.937  14.885
55862W        W17525  41.339  15.265  13.002
55863W        W17526  22.606  28.970  10.937
55864W        W17527   1.877  13.831   1.369
55865W        W17528  19.043   8.358  12.533
55866W        W17529  31.458  32.973   4.653
55867W        W17530  44.893  26.022  10.587
55868W        W17531  31.072   0.485   1.701
55869W        W17532  21.066   4.870   1.240
55870W        W17533  43.301   4.931  10.943
55871W        W17534  32.951  26.538  12.407
55872W        W17535  30.442  22.046   4.795
55873W        W17536   6.314   3.951  13.980
55874W        W17537   3.774  21.572   3.692
55875W        W17538   3.341  41.480  12.828
55876W        W17539  32.130  33.526   5.082
55877W        W17540  24.045  33.422   3.747
55878W        W17541   7.201  11.129   2.250
55879W        W17542   5.751  17.744   4.677
55880W        W17543  43.480   6.857   4.276
55881W        W17544  15.251  11.741  11.975
55882W        W17545  16.605  29.110  13.884
55883W        W17546   1.773  32.019   4.721
55884W        W17547  11.313   3.934   0.384
55885W        W17548  27.537  10.332   2.874
55886W        W17549  28.493  20.095  12.824
55887W        W17550  34.051  38.530  11.910
55888W        W17551  18.121  12.336  11.046
55889W        W17552  16.177  11.789   4.314
55890W        W17553  11.673  11.695   0.912
55891W        W17554   9.745  43.444   2.662
55892W        W17555  13.282  17.707  14.800
55893W        W17556  37.041   6.291   1.916
55894W        W17557  41.382  12.130   0.761
55895W        W17558   0.769  30.937  13.517
55896W        W17559  28.644  32.449  12.514
55897W        W17560  23.179  43.998  14.933
55898W        W17561  21.258   0.392  13.057
55899W        W17562  12.725  12.753   0.878
55900W        W17563  13.678  17.172  13.308
55901W        W17564   2.333  21.259  11.388
55902W        W17565  39.531  44.781   4.710
55903W        W17566  29.979  19.121   1.765
55904W        W17567  11.645  15.276   1.810
55905W        W17568   4.880  40.015   1.814
55906W        W17569   1.447  43.372  13.929
55907W        W17570   5.368   9.223  12.471
55908W        W17571   9.335   2.908  11.417
55909W        W17572   3.219  14.133   1.289
55910W        W17573  34.485  17.084  11.907
55911W        W17574  23.552  34.943  10.475
55912W        W17575   2.722  15.597  10.966
55913W        W17576   1.852   1.961   0.310
55914W        W17577  26.495   3.418   3.726
55915W        W17578   2.417  16.087   3.219
55916W        W17579  19.270  32.468   3.792
55917W        W17580  21.630  36.359   2.717
55918W        W17581   7.412  23.720  12.511
55919W        W17582  20.763  37.480   2.178
55920W        W17583   4.945  40.310  12.579
55921W        W17584  15.324  38.960   3.802
55922W        W17585   2.735  14.108   1.423
55923W        W17586  40.873  27.137  14.806
55924W        W17587  42.887  36.099  12.390
55925W        W17588   4.408   9.293  10.539
55926W        W17589  38.371  30.022  12.078
55927W        W17590  36.531  26.469  11.558
55928W        W17591  37.959  36.952  11.084
55929W        W17592  22.703  42.778   1.907
55930W        W17593  22.103  27.534  12.923
55931W        W17594  33.586  43.310  11.489
55932W        W17595  37.503   9.321  14.443
55933W        W17596  16.135  35.870   0.244
55934W        W17597  34.421  12.625  14.859
55935W        W17598   4.402  17.778   2.713
55936W        W17599  44.769  17.796  10.413
55937W        W17600   9.358  23.514  13.967
55938W        W17601  33.066  33.060   2.241
55939W        W17602  22.584  43.479  12.000
55940W        W17603   9.804  12.222   3.334
55941W        W17604  24.539  17.674  13.965
55942W        W17605   1.922  12.810   0.416
55943W        W17606   0.868  20.094   4.768
55944W        W17607  38.552  25.020   4.340
55945W        W17608  13.336  18.655   1.706
55946W        W17609  25.549  14.748   3.282
55947W        W17610  26.098  25.470   1.907
55948W        W17611  38.445  20.033   0.303
55949W        W17612  35.960  14.825  10.445
55950W        W17613  23.593   4.750  13.825
55951W        W17614  12.299  16.269   4.691
55952W        W17615   6.772  31.475  10.472
55953W        W17616   5.245  25.194   1.851
55954W        W17617  30.112  32.954   4.664
55955W        W17618  34.962  19.238  13.986
55956W        W17619  33.446  19.765  11.556
55957W        W17620  20.540  12.292   0.868
55958W        W17621  34.064  41.467   2.286
55959W        W17622  21.153  18.622   1.913
55960W        W17623  34.499  18.571  10.928
55961W        W17624  26.093  14.628  10.536
55962W        W17625  30.487   0.416   4.639
55963W        W17626  33.521  31.561  11.598
55964W        W17627  15.302   6.742   2.212
55965W        W17628   8.229   1.973   2.325
55966W        W17629  19.747   6.397  12.553
55967W        W17630  10.232  15.094  11.120
55968W        W17631  24.002  41.518  14.284
55969W        W17632  41.014  30.916  12.077
55970W        W17633  24.065  44.407   3.824
55971W        W17634  28.117  32.434  13.054
55972W        W17635  20.080  13.692   3.233
55973W        W17636  31.619  30.518   1.391
55974W        W17637  40.425  38.979  13.936
55975W        W17638  24.011  16.139   4.212
55976W        W17639  20.555   7.700   2.192
55977W        W17640  37.550   1.914  13.307
55978W        W17641   1.482   0.254  12.984
55979W        W17642  30.088   7.250  12.407
55980W        W17643   5.327   2.384  12.826
55981W        W17644  12.264   1.931  13.012
55982W        W17645  12.220  27.462  13.460
55983W        W17646  32.403  28.467  12.024
55984W        W17647  29.107  42.336   0.408
55985W        W17648  32.530  24.196   2.359
55986W        W17649  44.416  40.410   0.432
55987W        W17650   8.809  34.931   3.363
55988W        W17651   1.276  38.007  13.404
55989W        W17652  44.853   3.221   1.393
55990W        W17653  33.548  17.596   2.779
55991W        W17654   5.259  15.284  13.415
55992W        W17655   6.396  23.599  12.938
55993W        W17656  34.886  30.131  11.487
55994W        W17657  30.155  27.041  13.845
55995W        W17658  25.695  43.886   4.638
55996W        W17659  12.331   9.308   1.932
55997W        W17660   3.746  12.661  13.977
55998W        W17661   1.744  12.664  11.511
55999W        W17662  35.388  26.164   1.928
56000W        W17663  34.449  25.598  14.862
56001W        W17664  35.533   6.426   0.892
56002W        W17665  41.897  16.168   5.298
56003W        W17666  41.483  43.834   0.254
56004W        W17667  18.584  41.518   4.826
56005W        W17668  17.729  34.956  14.385
56006W        W17669  26.207  31.463  10.909
56007W        W17670  43.939  44.465  14.313
56008W        W17671  29.543  32.115   2.752
56009W        W17672  21.177  38.356  11.078
56010W        W17673  35.598  32.060   1.319
56011W        W17674  14.829  36.013  12.994
56012W        W17675  37.946  21.180   2.277
56013W        W17676  14.820  14.222  11.127
56014W        W17677  41.992  31.091   3.375
56015W        W17678  30.025  35.970  12.925
56016W        W17679  38.976  15.814   1.706
56017W        W17680  18.762   9.256  11.926
56018W        W17681  14.614  27.632   2.877
56019W        W17682   6.229  41.427  12.025
56020W        W17683  28.643  44.844  13.351
56021W        W17684   8.379  17.222  13.517
56022W        W17685  28.982   4.760   4.715
56023W        W17686  31.102  14.116  10.047
56024W        W17687  44.303  13.127  11.063
56025W        W17688  38.839  43.359  12.884
56026W        W17689   7.355  16.800  10.578
56027W        W17690   2.309  25.005   0.444
56028W        W17691   3.342  38.819   4.669
56029W        W17692  28.100  18.163   0.943
56030W        W17693  32.902  13.753   3.248
56031W        W17694   1.331  24.174  12.481
56032W        W17695  20.581  44.919  11.374
56033W        W17696   7.200  24.195   1.444
56034W        W17697  25.658  31.541  13.816
56035W        W17698  32.007  21.555   2.350
56036W        W17699   6.697  39.818  12.014
56037W        W17700  17.603   8.824  13.898
56038W        W17701  33.402  40.314  10.407
56039W        W17702  13.732  20.143   1.378
56040W        W17703  23.096  25.703   1.316
56041W        W17704  22.568   0.464  14.410
56042W        W17705  36.052   9.660  11.992
56043W        W17706  41.514  20.646  12.579
56044W        W17707  31.040  18.746   2.662
56045W        W17708  35.409  27.677  11.958
56046W        W17709  35.933  23.205   4.224
56047W        W17710  44.967  44.343  14.375
56048W        W17711  34.013  44.494   0.930
56049W        W17712  19.574  32.921   1.801
56050W        W17713  17.792  13.615   9.500
56051W        W17714  38.439  23.027   1.736
56052W        W17715  38.893  18.636  14.399
56053W        W17716  35.975  23.591  13.034
56054W        W17717   7.254  19.551  10.989
56055W        W17718  16.237  11.830  14.462
56056W        W17719  22.100  31.916  11.378
56057W        W17720  38.833  34.095  13.355
56058W        W17721  11.224  29.073  13.545
56059W        W17722  22.074  34.951  11.509
56060W        W17723   7.910  41.861  13.332
56061W        W17724  44.474  16.668   5.319
56062W        W17725  28.091  43.429  12.087
56063W        W17726  12.838  23.110   0.816
56064W        W17727  19.595  27.192  11.569
56065W        W17728  32.533  33.030   3.846
56066W        W17729  22.686   0.395   1.294
56067W        W17730  41.864   9.818   0.727
56068W        W17731  18.648  11.163  12.361
56069W        W17732  44.390  25.649  13.822
56070W        W17733  35.518  29.477  14.778
56071W        W17734  18.179  40.424  14.357
56072W        W17735  43.833  27.084  14.852
56073W        W17736  12.281  33.610   2.260
56074W        W17737   1.390  20.709  13.543
56075W        W17738  27.091  35.424   2.694
56076W        W17739  12.212  29.961   1.423
56077W        W17740  44.262  20.161  13.485
56078W        W17741   0.952  20.711  12.488
56079W        W17742  38.036  13.682  11.041
56080W        W17743  16.727  34.118  14.322
56081W        W17744  36.044  24.634  12.545
56082W        W17745  40.368   4.339  12.525
56083W        W17746  43.814  31.505   3.869
56084W        W17747  31.454  13.824  13.317
56085W        W17748  40.897  41.017   3.231
56086W        W17749  22.229  30.527  11.958
56087W        W17750   4.831  12.191  14.909
56088W        W17751   2.303  40.534   4.670
56089W        W17752   5.235   4.912   1.432
56090W        W17753  21.699  42.903  12.422
56091W        W17754  40.403  36.957  10.628
56092W        W17755  44.269   7.407  13.396
56093W        W17756   3.814  28.169   2.367
56094W        W17757  39.331  19.110  11.452
56095W        W17758  35.946  18.146   4.145
56096W        W17759  12.845  22.174  11.497
56097W        W17760   6.311   3.432   0.458
56098W        W17761  31.043  41.504  11.004
56099W        W17762  40.910  20.262   4.294
56100W        W17763  41.341  14.721   2.377
56101W        W17764  31.556  34.419   3.639
56102W        W17765   4.847  30.601  10.072
56103W        W17766  38.544  21.660  10.895
56104W        W17767  28.132  33.017   0.468
56105W        W17768   1.898   9.176  14.468
56106W        W17769  32.138  10.857   1.729
56107W        W17770  20.124   1.786   1.724
56108W        W17771   0.756  38.513   4.239
56109W        W17772  22.551   1.476  13.517
56110W        W17773  13.125  15.635  14.843
56111W        W17774  21.259   2.762   3.800
56112W        W17775  44.846  31.451   0.293
56113W        W17776  16.775  31.086   0.787
56114W        W17777  26.552   5.930  14.327
56115W        W17778  16.791   7.674   4.179
56116W        W17779  42.397  35.867  14.411
56117W        W17780   7.381  16.302   4.727
56118W        W17781  35.101  11.145  12.059
56119W        W17782  35.429   9.168  11.471
56120W        W17783  15.619  38.500   3.185
56121W        W17784  36.941  18.184   0.807
56122W        W17785  11.778  12.297  11.902
56123W        W17786   1.911  14.605   1.213
56124W        W17787   5.889  13.201  13.826
56125W        W17788  20.260   0.478   2.335
56126W        W17789  23.121  28.174  13.831
56127W        W17790  36.393  40.528  14.451
56128W        W17791  27.615  32.580  14.336
56129W        W17792  16.587  41.836  12.382
56130W        W17793  31.601  28.031   3.231
56131W        W17794  37.446  28.617  13.447
56132W        W17795  15.324  24.542  13.426
56133W        W17796  22.233  35.056   3.783
56134W        W17797   4.397   2.810   2.199
56135W        W17798  24.705  44.269  13.545
56136W        W17799  27.035  37.576  14.381
56137W        W17800   2.325   9.239   4.192
56138W        W17801   5.922  13.239   2.881
56139W        W17802  29.100  15.244   4.238
56140W        W17803  10.245  26.979  14.442
56141W        W17804  13.723  26.567   4.699
56142W        W17805   1.373  26.517  14.291
56143W        W17806  29.559  44.460   4.134
56144W        W17807  11.145  37.887  14.947
56145W        W17808  38.063  36.500   0.901
56146W        W17809  17.308  16.290  10.507
56147W        W17810  32.534  44.442   1.875
56148W        W17811   0.293  15.215  14.462
56149W        W17812  18.118  33.874   4.216
56150W        W17813   7.367  38.490  11.950
56151W        W17814  39.362   0.296  13.807
56152W        W17815  10.768  18.736  13.396
56153W        W17816  31.485   5.852  11.885
56154W        W17817   4.284   0.323   4.629
56155W        W17818   9.389  26.121   0.734
56156W        W17819   5.714  44.275  14.769
56157W        W17820  20.038   7.241  10.994
56158W        W17821  24.660  34.551   0.780
56159W        W17822   9.701  39.010   1.259
56160W        W17823  23.552  39.922   2.237
56161W        W17824  21.589  10.684  10.545
56162W        W17825   4.233  23.605   3.843
56163W        W17826  24.533  43.835   3.765
56164W        W17827  37.404  20.254  12.094
56165W        W17828   4.887   8.878  10.603
56166W        W17829  23.691  13.733  12.548
56167W        W17830   8.251   5.256  12.929
56168W        W17831  35.443  21.081  14.817
56169W        W17832  22.659  34.013   3.162
56170W        W17833  43.987  21.685   2.821
56171W        W17834   7.752  16.707  10.914
56172W        W17835  23.991  26.524   1.772
56173W        W17836  27.080  33.119   2.694
56174W        W17837  23.139  13.199  12.922
56175W        W17838  19.168  13.686   2.864
56176W        W17839  13.125  11.236   0.333
56177W        W17840  14.279  33.002   3.334
56178W        W17841  44.869  34.609  12.564
56179W        W17842   3.398  20.624  11.923
56180W        W17843  12.240  27.577  12.090
56181W        W17844  20.767  41.516   0.356
56182W        W17845   1.382  29.032  11.388
56183W        W17846  18.063  10.346  11.969
56184W        W17847  17.104  36.540  12.380
56185W        W17848  28.478  39.006  10.957
56186W        W17849  18.242  20.555   0.431
56187W        W17850  11.737  31.483  11.511
56188W        W17851   3.772  20.239   4.249
56189W        W17852  39.518  20.161  14.366
56190W        W17853  25.111  16.599   0.916
56191W        W17854  23.058  34.879  13.824
56192W        W17855  16.280  35.459   2.372
56193W        W17856   6.334  20.236   0.268
56194W        W17857  24.536   8.872   3.237
56195W        W17858  13.624   4.911   4.767
56196W        W17859   6.688  13.777  14.990
56197W        W17860  33.104   5.724   1.892
56198W        W17861   7.714  17.257   0.319
56199W        W17862   7.672   5.802  13.941
56200W        W17863  30.130  25.146   1.805
56201W        W17864  20.716   8.222   3.353
56202W        W17865  40.528  29.578   5.285
56203W        W17866  11.799  42.939  12.891
56204W        W17867   9.785   8.736   3.297
56205W        W17868   2.331   6.696  14.921
56206W        W17869  36.014  37.403   3.347
56207W        W17870  42.801  43.785   3.707
56208W        W17871  36.372  37.440  10.143
56209W        W17872  24.693  34.429  11.512
56210W        W17873  22.563  10.365   5.130
56211W        W17874  30.417   4.909  14.885
56212W        W17875  24.645  24.171  10.154
56213W        W17876  41.526  28.164   0.793
56214W        W17877  22.085  42.871   1.874
56215W        W17878   9.886  22.223   1.850
56216W        W17879  31.134  40.808   2.241
56217W        W17880  17.188  22.506   3.192
56218W        W17881   0.930  25.963  12.450
56219W        W17882  24.983   0.426   4.116
56220W        W17883  17.614  28.449  13.893
56221W        W17884  37.006  19.678   0.891
56222W        W17885  29.059  28.057   3.318
56223W        W17886  44.305  34.533  11.082
56224W        W17887  20.624   6.765  14.797
56225W        W17888   4.875  29.521   4.599
56226W        W17889  29.110  38.071   1.844
56227W        W17890   7.296  37.953   1.244
56228W        W17891  17.789  24.500   3.680
56229W        W17892  33.108  31.423  13.345
56230W        W17893  21.707  31.944  11.431
56231W        W17894  10.844  22.099  10.996
56232W        W17895  40.488  35.095   4.223
56233W        W17896  25.675  34.372   3.686
56234W        W17897  25.118  28.157  14.493
56235W        W17898   3.318  14.835  14.493
56236W        W17899  36.076  32.902   0.461
56237W        W17900  24.167  19.599  12.022
56238W        W17901   0.888  36.989  11.563
56239W        W17902  29.607   1.350   1.857
56240W        W17903  16.243   8.327  12.526
56241W        W17904   8.805  36.399   0.264
56242W        W17905  18.107   6.824   0.812
56243W        W17906  27.089  43.823   2.227
56244W        W17907   1.237  20.100  14.762
56245W        W17908  43.804  16.775  12.083
56246W        W17909  26.104  34.097  14.401
56247W        W17910  25.708  19.743  13.876
56248W        W17911  25.515  29.610  10.924
56249W        W17912  20.198  32.027  13.959
56250W        W17913  17.558  10.140  13.062
56251W        W17914  38.834  20.224   2.403
56252W        W17915   4.717  12.135  10.532
56253W        W17916  17.657   8.237   3.820
56254W        W17917  18.074  27.472   0.916
56255W        W17918  25.567  35.904   4.343
56256W        W17919  16.737   5.835   4.627
56257W        W17920  20.753  39.915  12.380
56258W        W17921  32.137  13.294  13.375
56259W        W17922  34.117  39.893  14.838
56260W        W17923  13.831   7.759   4.717
56261W        W17924  35.549  28.174   2.236
56262W        W17925  40.940   3.326  11.060
56263W        W17926  18.755  35.972   3.646
56264W        W17927  40.813  15.761   4.760
56265W        W17928  24.098  19.552   4.348
56266W        W17929  12.298   5.357   2.753
56267W        W17930  15.676  40.542   0.427
56268W        W17931   0.967  13.665   3.854
56269W        W17932  13.197   6.367  12.344
56270W        W17933   1.354  17.237  14.851
56271W        W17934  44.814  38.054   4.247
56272W        W17935  35.018  16.288   3.224
56273W        W17936  32.586  26.183  12.549
56274W        W17937  31.412  31.146   0.944
56275W        W17938  42.977  27.987  12.886
56276W        W17939  21.633  13.123   0.342
56277W        W17940  40.880   1.342  14.349
56278W        W17941  31.065  23.070  10.985
56279W        W17942  42.344  37.961  12.524
56280W        W17943   9.786  35.101   3.210
56281W        W17944  35.510  30.953   0.747
56282W        W17945  24.486  20.089  13.997
56283W        W17946  34.081  22.102  11.923
56284W        W17947  28.163  36.971   4.659
56285W        W17948  32.424  19.129   2.719
56286W        W17949  23.600  32.552  14.483
56287W        W17950  29.456  12.179  14.824
56288W        W17951  40.821  18.210  12.488
56289W        W17952  26.032  35.378  12.024
56290W        W17953  29.113  15.132  11.564
56291W        W17954  31.555  16.625  12.864
56292W        W17955   8.771   4.742   1.434
56293W        W17956  33.593  19.152   2.814
56294W        W17957  37.975   9.719  14.464
56295W        W17958  38.357  19.261  13.467
56296W        W17959  22.241   6.837  11.888
56297W        W17960   1.416  21.702  14.982
56298W        W17961  14.126  36.982  12.921
56299W        W17962  13.668  22.244   2.369
56300W        W17963  26.172  15.770  11.049
56301W        W17964   1.256  44.393  11.530
56302W        W17965  11.221  14.759  13.330
56303W        W17966   4.939  25.069   1.766
56304W        W17967  34.957  43.820  14.360
56305W        W17968  28.160  37.363   1.357
56306W        W17969  10.299   6.908   4.770
56307W        W17970   9.280  41.460   0.419
56308W        W17971   3.382   9.290  11.948
56309W        W17972  13.252  25.096   3.757
56310W        W17973   2.353  15.326  12.066
56311W        W17974  11.825  12.637  10.937
56312W        W17975  17.101  24.084  14.886
56313W        W17976  43.779   9.726   0.790
56314W        W17977  20.558  16.147   0.935
56315W        W17978  37.911  33.519  14.909
56316W        W17979  10.775  12.147  13.429
56317W        W17980  23.646  21.537   0.385
56318W        W17981  31.026  12.706  10.102
56319W        W17982  11.760  37.379  10.900
56320W        W17983   1.482   5.203  13.887
56321W        W17984  33.612  43.315   3.774
56322W        W17985  26.201   4.332  11.503
56323W        W17986  27.048  38.902  12.039
56324W        W17987  16.626  21.017  11.515
56325W        W17988  12.321  36.434   0.892
56326W        W17989  24.547  37.867  11.919
56327W        W17990  18.264  19.718  12.963
56328W        W17991  19.113  15.747   1.818
56329W        W17992  17.732  19.211   2.786
56330W        W17993  31.069   2.947   1.296
56331W        W17994  31.994  33.914  12.485
56332W        W17995  10.833  18.632   3.652
56333W        W17996  36.889  39.329   0.345
56334W        W17997  12.254   5.921   4.327
56335W        W17998  40.984  10.311  13.878
56336W        W17999   8.696  32.420  13.346
56337W        W18000  11.724  23.530   2.326
56338W        W18001   0.862  24.698  14.933
56339W        W18002  34.415  15.646   2.731
56340W        W18003  16.599  41.333  12.932
56341W        W18004   1.296  40.433  10.575
56342W        W18005  34.084  17.765   9.522
56343W        W18006  17.559  35.423  10.405
56344W        W18007   3.446  15.719   0.778
56345W        W18008  20.045  33.074   1.264
56346W        W18009  24.672  40.414  12.862
56347W        W18010  38.998  22.041   3.373
56348W        W18011  19.574  40.399  14.440
56349W        W18012  14.326  28.962  10.640
56350W        W18013   8.273  29.555   0.747
56351W        W18014  37.923  14.299  12.462
56352W        W18015   5.241  38.906  14.329
56353W        W18016   3.752  25.215   3.368
56354W        W18017  11.818  36.483   4.233
56355W        W18018  38.961  32.615  14.491
56356W        W18019  37.058  11.270  11.871
56357W        W18020  36.904  22.239  11.857
56358W        W18021  21.126  20.088   2.186
56359W        W18022  18.647  14.623  12.960
56360W        W18023  44.342   1.268   3.863
56361W        W18024  17.571  35.091  11.495
56362W        W18025  20.530  30.439   1.884
56363W        W18026  33.592  30.440  11.569
56364W        W18027  12.844  23.045   4.167
56365W        W18028   0.371  41.474  12.860
56366W        W18029   0.449  39.326  10.477
56367W        W18030   3.758   7.386  13.396
56368W        W18031  23.226  34.407  14.816
56369W        W18032  12.768  15.764  12.023
56370W        W18033  36.005  14.224  11.901
56371W        W18034  42.421  13.162  11.387
56372W        W18035  22.181   0.828  10.995
56373W        W18036   4.230  13.834   2.305
56374W        W18037  29.472   1.270   3.830
56375W        W18038  22.584  10.175  11.129
56376W        W18039  29.947  12.815  13.310
56377W        W18040  34.896  32.519   1.709
56378W        W18041   4.390   8.300   0.880
56379W        W18042  39.969   6.891   2.775
56380W        W18043  20.121  43.330   0.851
56381W        W18044   4.405   2.453  10.581
56382W        W18045  11.729  37.581   1.770
56383W        W18046  17.233  30.558   1.308
56384W        W18047  20.611  18.698  13.472
56385W        W18048  10.675  31.585   1.902
56386W        W18049  42.000   9.164  12.989
56387W        W18050  44.989  31.001  13.990
56388W        W18051   9.254   8.725   2.346
56389W        W18052  14.272  33.967   4.208
56390W        W18053  34.077  34.974  11.406
56391W        W18054   0.479   6.409  12.893
56392W        W18055   1.369  33.957  14.363
56393W        W18056  35.588  33.449  11.127
56394W        W18057  11.350  19.277  11.374
56395W        W18058  43.330  28.521  14.945
56396W        W18059   8.664  21.105  13.328
56397W        W18060   0.981  40.304   4.807
56398W        W18061  35.065  44.274  10.060
56399W        W18062  36.552  37.374   2.270
56400W        W18063  11.862  32.467   3.733
56401W        W18064  12.238  38.493   3.338
56402W        W18065  28.142  24.622  13.980
56403W        W18066  23.241   9.850   3.848
56404W        W18067   7.320  28.465  14.360
56405W        W18068   8.164  19.258  10.605
56406W        W18069   6.806  17.249   3.324
56407W        W18070  13.624  10.642   3.333
56408W        W18071  29.944  18.078   1.780
56409W        W18072  41.398  15.128  14.463
56410W        W18073  20.173  31.546  11.530
56411W        W18074  10.850  15.674   4.661
56412W        W18075   7.875  17.699  14.444
56413W        W18076  36.494   0.909  13.873
56414W        W18077  41.848  30.471  12.864
56415W        W18078   4.909  19.738  13.448
56416W        W18079  32.555  16.300   4.131
56417W        W18080  41.974   3.405   1.766
56418W        W18081  36.487  20.190   2.871
56419W        W18082  35.452  20.702  14.010
56420W        W18083   1.789  32.885   1.378
56421W        W18084  41.836  22.528  11.451
56422W        W18085  12.217   3.952   4.678
56423W        W18086   4.698  38.909  14.434
56424W        W18087  38.032  25.672   0.811
56425W        W18088  27.515  35.875  13.026
56426W        W18089   5.911  32.477   1.799
56427W        W18090  16.705  31.439   4.666
56428W        W18091  21.237   6.839  12.083
56429W        W18092   3.253   3.391   0.942
56430W        W18093  30.149  40.536  12.580
56431W        W18094  42.381  31.554  11.568
56432W        W18095  18.251   0.306   0.920
56433W        W18096  25.520   7.407  10.529
56434W        W18097  18.088  33.611  14.004
56435W        W18098  19.573  13.343   1.698
56436W        W18099  32.571  31.489   4.124
56437W        W18100  39.918  10.660  14.317
56438W        W18101  39.882  36.070   4.201
56439W        W18102   8.854  40.877   0.439
56440W        W18103  14.227  14.617  13.405
56441W        W18104  28.120  11.128  10.581
56442W        W18105  15.217   4.706   2.832
56443W        W18106  33.884  22.644   1.380
56444W        W18107  24.681  13.217  13.792
56445W        W18108  30.001   5.214   2.338
56446W        W18109   8.271  20.579   3.640
56447W        W18110   6.211   4.731   1.419
56448W        W18111  18.183   2.923   1.362
56449W        W18112  28.135  41.468   3.374
56450W        W18113  37.516  21.073  12.356
56451W        W18114  18.654  31.092  11.868
56452W        W18115  38.391  18.158  11.034
56453W        W18116  19.045  26.175   3.813
56454W        W18117   4.229  23.172  13.056
56455W        W18118  42.997  44.819   4.210
56456W        W18119  11.317  14.167  12.449
56457W        W18120  12.674   1.311   4.675
56458W        W18121  19.081  29.025  12.848
56459W        W18122  33.423   1.768   2.829
56460W        W18123  38.474  12.851   3.750
56461W        W18124  44.437  43.338  11.530
56462W        W18125   4.288  25.656  11.938
56463W        W18126  40.040  41.965  14.383
56464W        W18127  22.221  32.891   1.349
56465W        W18128  12.642  24.978  12.342
56466W        W18129  10.335  26.103  12.885
56467W        W18130  18.700  22.065  13.481
56468W        W18131  15.603  41.305  11.878
56469W        W18132  33.977  22.077   0.408
56470W        W18133   8.309  37.502   1.912
56471W        W18134   0.419  24.480   1.754
56472W        W18135  20.092  40.376   3.257
56473W        W18136  19.643  41.342   0.852
56474W        W18137  12.199  15.172  11.903
56475W        W18138  33.491  27.018   4.210
56476W        W18139  33.969  23.063  14.488
56477W        W18140  12.350  17.774  12.558
56478W        W18141   8.360  44.262  14.772
56479W        W18142  37.576  13.647   0.866
56480W        W18143  15.768  23.078  12.996
56481W        W18144   6.874   1.371  11.535
56482W        W18145  10.302  29.598   1.357
56483W        W18146  23.533  41.459  10.963
56484W        W18147  40.819   9.158  14.984
56485W        W18148  33.381  27.160  12.959
56486W        W18149  43.872   1.822  14.293
56487W        W18150  41.293   5.749  10.917
56488W        W18151   8.172   6.262  13.389
56489W        W18152  34.510  36.084  10.487
56490W        W18153   2.819   5.904  13.511
56491W        W18154  41.490  42.475   0.366
56492W        W18155  19.231   2.730  14.497
56493W        W18156  24.596  31.932  10.550
56494W        W18157  14.663  33.505  10.089
56495W        W18158   8.176  24.004  12.868
56496W        W18159  22.650  37.957  13.978
56497W        W18160  44.309  38.349  10.999
56498W        W18161  25.202  29.535   3.300
56499W        W18162   5.331  41.888   0.317
56500W        W18163   3.310   5.340   0.390
56501W        W18164  34.408  29.466   1.358
56502W        W18165   4.855  20.663   3.766
56503W        W18166  18.662   5.231   4.246
56504W        W18167  37.506  35.052   5.141
56505W        W18168  19.186  20.137   1.905
56506W        W18169  16.614   5.428  10.902
56507W        W18170  44.938  43.808  13.546
56508W        W18171  41.028  29.499   0.925
56509W        W18172  29.082   8.834   2.843
56510W        W18173   5.690  18.666  11.036
56511W        W18174  43.357  30.108  10.524
56512W        W18175  15.325  12.752  13.435
56513W        W18176  13.821  33.009  10.640
56514W        W18177  12.852  32.109  14.766
56515W        W18178  11.752  14.153   2.319
56516W        W18179  35.017  11.186  13.060
56517W        W18180  19.164  18.683  14.920
56518W        W18181  39.394   2.869   1.756
56519W        W18182   8.343  40.356   0.255
56520W        W18183  33.956  12.743  11.999
56521W        W18184  12.210  19.249   4.607
56522W        W18185  11.668  43.840  11.955
56523W        W18186  34.412  41.842   3.170
56524W        W18187  15.270  16.204   5.311
56525W        W18188   8.774  28.955   3.163
56526W        W18189  30.042  22.557  10.004
56527W        W18190  19.749  17.620   3.305
56528W        W18191  34.419  25.115   1.931
56529W        W18192  29.049  20.621   0.869
56530W        W18193  38.426  38.355   2.241
56531W        W18194  29.515  44.002  10.559
56532W        W18195  37.405   6.776   0.937
56533W        W18196  23.140   0.973   5.587
56534W        W18197  22.069   6.740  12.576
56535W        W18198  19.591  20.692  14.403
56536W        W18199  31.641  30.915  13.372
56537W        W18200  42.895   1.274  13.883
56538W        W18201  17.783  16.197  14.998
56539W        W18202  40.860  43.855   3.303
56540W        W18203  21.162   2.354   9.639
56541W        W18204  37.499   7.906   5.654
56542W        W18205  38.033  10.643   4.741
56543W        W18206  23.028  31.457   3.159
56544W        W18207  41.479  10.803  14.347
56545W        W18208  21.068  20.242   0.384
56546W        W18209  40.813   9.787   2.771
56547W        W18210   8.161  36.499  11.421
56548W        W18211  18.130  35.521   1.915
56549W        W18212   6.191  12.150   1.360
56550W        W18213  11.734   3.369   3.288
56551W        W18214  34.015  40.388  12.908
56552W        W18215  31.542  40.398   1.896
56553W        W18216  19.624  30.448  12.442
56554W        W18217  24.552  35.041   2.371
56555W        W18218  25.117  24.592   3.800
56556W        W18219  38.481  26.666  11.924
56557W        W18220  15.718  37.055   0.928
56558W        W18221  14.735  13.271   0.755
56559W        W18222   8.885  26.060  10.122
56560W        W18223  33.132  29.047   4.782
56561W        W18224  38.444  40.004  12.875
56562W        W18225  17.575  30.614   2.790
56563W        W18226   5.400   1.749   2.766
56564W        W18227  43.282  20.216  14.829
56565W        W18228  35.914  30.654  11.857
56566W        W18229  36.853  15.676   0.816
56567W        W18230  37.994  22.518   2.817
56568W        W18231  43.009  27.480  11.490
56569W        W18232  19.576  32.619  13.950
56570W        W18233  27.105  31.457   3.145
56571W        W18234  41.011   9.162   1.307
56572W        W18235   1.353  18.253   2.346
56573W        W18236  22.585   5.701  14.842
56574W        W18237  44.376  29.658   3.727
56575W        W18238   4.941  14.133  11.953
56576W        W18239  26.048  44.304  14.474
56577W        W18240   2.944  26.618   1.828
56578W        W18241  12.742  30.158   2.242
56579W        W18242   8.878  13.292  13.802
56580W        W18243  25.478   0.763  13.542
56581W        W18244  30.536  15.749   4.806
56582W        W18245   5.252  41.482   2.761
56583W        W18246  15.733   6.877  11.124
56584W        W18247  32.094   1.798   2.821
56585W        W18248  37.540   0.428   9.975
56586W        W18249   5.207  14.592   1.332
56587W        W18250  25.123  18.156  12.414
56588W        W18251  18.281  39.507   2.198
56589W        W18252  31.956   2.850  13.878
56590W        W18253  37.440  21.746   0.949
56591W        W18254   4.378  27.568   0.367
56592W        W18255  42.304  14.822  13.496
56593W        W18256  27.197  15.092  10.985
56594W        W18257  28.182  31.447   0.459
56595W        W18258   9.185  22.009   4.686
56596W        W18259  37.890  15.247   2.346
56597W        W18260  20.177  42.963  10.084
56598W        W18261   4.772  43.481   1.414
56599W        W18262  26.605  12.640  11.423
56600W        W18263   7.891  11.664  12.422
56601W        W18264  32.508  16.682  11.574
56602W        W18265  13.846  34.532  10.951
56603W        W18266   8.300  11.349   0.467
56604W        W18267  27.079  19.179  14.983
56605W        W18268  24.226  27.510   0.469
56606W        W18269  25.214  41.521  11.589
56607W        W18270  30.465  17.732   2.350
56608W        W18271   3.851  38.423  12.075
56609W        W18272  10.829  32.130   4.778
56610W        W18273   1.471  28.489  10.531
56611W        W18274  23.618  28.463  14.305
56612W        W18275   1.952  10.774  11.861
56613W        W18276  34.497  13.758   2.705
56614W        W18277  20.655   2.470   1.746
56615W        W18278  24.093   5.930   0.412
56616W        W18279  20.546   0.900   4.631
56617W        W18280  40.985  13.231  14.377
56618W        W18281  10.380  34.422   0.304
56619W        W18282  40.398  17.575  11.950
56620W        W18283  13.178  38.035  14.797
56621W        W18284  28.545  24.017   3.821
56622W        W18285   6.761  23.631   4.679
56623W        W18286  21.144  35.093  14.363
56624W        W18287  17.127  27.017  12.046
56625W        W18288  42.390  16.595  11.569
56626W        W18289  30.532  13.721   1.935
56627W        W18290  40.893  41.319   0.346
56628W        W18291  21.533  16.620  13.475
56629W        W18292  28.611  22.603  11.979
56630W        W18293  28.950   8.170  13.032
56631W        W18294  11.240  10.869  14.474
56632W        W18295  32.060  25.159   5.117
56633W        W18296  21.060  17.750  13.963
56634W        W18297  11.209  35.573  11.546
56635W        W18298  33.446  21.675   1.310
56636W        W18299  29.160  35.523  13.889
56637W        W18300   2.470  29.940   3.269
56638W        W18301  33.054   3.431  11.506
56639W        W18302  18.220  24.170  11.383
56640W        W18303  35.495  15.184  13.053
56641W        W18304  22.576   8.233   2.864
56642W        W18305   7.353  11.702   1.756
56643W        W18306   5.797  38.883   2.388
56644W        W18307  17.792   1.972   1.437
56645W        W18308  16.764   3.453  11.880
56646W        W18309  33.051  24.203  10.122
56647W        W18310  25.636  37.998  11.476
56648W        W18311  20.124   0.447   5.277
56649W        W18312  32.039  17.575  13.369
56650W        W18313   0.914  31.567  14.922
56651W        W18314  27.621  14.196  13.058
56652W        W18315  34.002  42.798  13.410
56653W        W18316   0.480  34.510  14.294
56654W        W18317   2.278   9.834   3.771
56655W        W18318   0.428  10.186   0.796
56656W        W18319  17.621  27.451  13.879
56657W        W18320   2.780  32.937   2.343
56658W        W18321  38.856  34.380  10.945
56659W        W18322   8.337  13.653  13.436
56660W        W18323  33.058   7.910  10.519
56661W        W18324   6.308  27.973   4.709
56662W        W18325  36.004   4.299  14.799
56663W        W18326   1.292   8.699  14.355
56664W        W18327  39.987  22.626  11.407
56665W        W18328   1.383  10.284  12.492
56666W        W18329  37.479  27.967   4.726
56667W        W18330  11.368  31.122  13.868
56668W        W18331   0.368  15.588  12.443
56669W        W18332  12.723  24.091   4.769
56670W        W18333  25.572  27.535   1.213
56671W        W18334  22.712  24.562   0.760
56672W        W18335  28.652  19.046   1.264
56673W        W18336  26.144  34.999  14.298
56674W        W18337  26.636  16.773   3.327
56675W        W18338  20.765  33.417  12.071
56676W        W18339  10.199  21.667   3.153
56677W        W18340   7.757  18.190  13.865
56678W        W18341   4.795  32.886  11.573
56679W        W18342  41.962  17.744   1.803
56680W        W18343  37.009  28.582   0.795
56681W        W18344  11.172   9.192   4.182
56682W        W18345  11.138  17.224  13.507
56683W        W18346  13.295  33.984  10.954
56684W        W18347   0.897  23.701   1.752
56685W        W18348  27.577   6.893  13.343
56686W        W18349  20.569  18.770  12.981
56687W        W18350  37.867  14.793   2.790
56688W        W18351  35.472  28.452  10.534
56689W        W18352   5.899  37.894  11.988
56690W        W18353  25.013  44.896   2.373
56691W        W18354  19.596  11.207   0.745
56692W        W18355  26.023  12.673   4.176
56693W        W18356  37.077  16.704  12.534
56694W        W18357   4.222  19.132  14.013
56695W        W18358  36.021   8.790  14.448
56696W        W18359  44.796  30.510   3.152
56697W        W18360  32.420  24.678   0.391
56698W        W18361  22.647  18.147  10.430
56699W        W18362  11.263  20.615  13.482
56700W        W18363  15.620  14.181  14.343
56701W        W18364   8.765  31.035   1.705
56702W        W18365  37.447  18.053  11.607
56703W        W18366  42.889  34.378   2.229
56704W        W18367  12.735  21.721  14.491
56705W        W18368  29.919  40.504  14.988
56706W        W18369   7.414  13.749   0.388
56707W        W18370  23.694  26.090  12.372
56708W        W18371  31.961  30.076   1.814
56709W        W18372  33.055  40.012  14.771
56710W        W18373  13.184  40.917  13.064
56711W        W18374  10.683  35.074  12.342
56712W        W18375   5.727   0.751  12.464
56713W        W18376   3.254  15.296  14.514
56714W        W18377  19.680   7.309  12.369
56715W        W18378   0.302  20.545   4.122
56716W        W18379  33.595  10.347  14.919
56717W        W18380  21.065  35.440   4.302
56718W        W18381  35.965  26.465   4.334
56719W        W18382   2.935  41.302   3.740
56720W        W18383  15.129   8.219   2.741
56721W        W18384  12.767  29.648  13.474
56722W        W18385  28.972   6.677  13.948
56723W        W18386  44.869  44.868   2.667
56724W        W18387  33.383  38.991   0.286
56725W        W18388  43.846   2.358   4.643
56726W        W18389   4.745  33.063   2.806
56727W        W18390  17.647  13.161   4.350
56728W        W18391   5.242  13.116  11.500
56729W        W18392  19.632  28.580  11.388
56730W        W18393  12.638  18.629  13.406
56731W        W18394  16.221  37.930   3.323
56732W        W18395  31.605  27.054   2.805
56733W        W18396  34.038  34.531   0.382
56734W        W18397   3.447  15.206   4.246
56735W        W18398  17.072   0.821  12.856
56736W        W18399  18.764  26.673  12.915
56737W        W18400  39.414   3.909  14.360
56738W        W18401  35.911  38.963   4.282
56739W        W18402   1.345  12.189   2.875
56740W        W18403  32.110  25.106   4.761
56741W        W18404  36.528   4.828   1.765
56742W        W18405  17.642  44.946  13.461
56743W        W18406  19.642  16.638   3.775
56744W        W18407   7.280  41.936   4.130
56745W        W18408  39.326  10.306   4.639
56746W        W18409  13.221  27.142  14.761
56747W        W18410  20.724  20.638  13.823
56748W        W18411  40.802  26.598  13.522
56749W        W18412   6.895  42.997  13.053
56750W        W18413   0.424  32.455   4.835
56751W        W18414  10.835  21.121  14.439
56752W        W18415  44.505   9.153  13.513
56753W        W18416  32.979  36.430   3.778
56754W        W18417   4.929  30.429   0.369
56755W        W18418  30.611  25.975  10.560
56756W        W18419   4.711  21.680  14.023
56757W        W18420  34.401   1.405   2.325
56758W        W18421   8.743  31.124  14.812
56759W        W18422   3.264  32.556   3.245
56760W        W18423   9.730   0.787  10.534
56761W        W18424  30.031  44.302  14.448
56762W        W18425  11.219  21.209  13.308
56763W        W18426  32.054  29.540  10.558
56764W        W18427  41.420  19.131   2.758
56765W        W18428  27.597  19.593   3.748
56766W        W18429   2.952  36.424  14.992
56767W        W18430  30.972  22.689  10.454
56768W        W18431  28.453  14.146  11.511
56769W        W18432  35.929   9.316   2.390
56770W        W18433  21.642  30.975  13.318
56771W        W18434  29.061  42.874   0.267
56772W        W18435  31.977  36.968   3.647
56773W        W18436   1.792  25.654  13.914
56774W        W18437  43.913  43.380   2.389
56775W        W18438  17.075  41.428  11.563
56776W        W18439  18.548  44.926   4.719
56777W        W18440   3.792  20.246   4.704
56778W        W18441  17.185  23.716  14.970
56779W        W18442   9.755  43.848  10.928
56780W        W18443  22.204   7.697   1.392
56781W        W18444   0.916  11.331  13.519
56782W        W18445  12.256  24.685  14.478
56783W        W18446  40.543   0.950   4.326
56784W        W18447  11.625   2.848   2.264
56785W        W18448   4.744  41.001   0.808
56786W        W18449   2.730  44.493   1.748
56787W        W18450  19.238  16.236  11.388
56788W        W18451  37.085  11.239   0.334
56789W        W18452  25.506   0.827   5.228
56790W        W18453  19.653  26.073  10.473
56791W        W18454  33.525   6.340   1.366
56792W        W18455  34.438  17.085  12.936
56793W        W18456   4.406  11.717   3.227
56794W        W18457  12.616  35.937  11.956
56795W        W18458   2.341  23.716  10.983
56796W        W18459  32.570  21.211   2.329
56797W        W18460  31.112  29.026   2.729
56798W        W18461  30.470  36.368   1.383
56799W        W18462   7.393  22.226  13.470
56800W        W18463   4.430  44.467  14.806
56801W        W18464  25.569  15.742  14.357
56802W        W18465  25.637   8.217  12.353
56803W        W18466  43.842   0.764  13.369
56804W        W18467  14.699  12.352  14.971
56805W        W18468  22.611   6.830  13.493
56806W        W18469  40.798  12.816  12.994
56807W        W18470  20.581  11.687   2.268
56808W        W18471  10.234   8.366  13.397
56809W        W18472   9.738   4.786   3.720
56810W        W18473  29.579   8.808  12.927
56811W        W18474  39.528   6.311   1.718
56812W        W18475  14.135  41.876   2.674
56813W        W18476  15.679   0.355  11.033
56814W        W18477  22.639   6.368  11.556
56815W        W18478  41.533  26.128  10.970
56816W        W18479  31.063  38.376  13.804
56817W        W18480  21.516  41.360  12.032
56818W        W18481  14.169  41.318   4.664
56819W        W18482  17.122  43.496  13.890
56820W        W18483  17.131  44.398  10.091
56821W        W18484  19.101  27.636  10.964
56822W        W18485  17.719  20.062   3.325
56823W        W18486  17.781   7.188   0.800
56824W        W18487  29.613  22.554   3.716
56825W        W18488   4.747   8.279  14.438
56826W        W18489  21.604  23.184  12.083
56827W        W18490  36.390   8.730  10.625
56828W        W18491   1.343  28.126  13.520
56829W        W18492  31.082  13.320   0.854
56830W        W18493  32.460  35.563   3.702
56831W        W18494  41.440   5.377  11.878
56832W        W18495  32.127  24.115   2.231
56833W        W18496  24.106  19.666  10.117
56834W        W18497  39.056  34.392   4.836
56835W        W18498  14.771  24.676  13.791
56836W        W18499  44.863  24.098  13.446
56837W        W18500   2.759   6.691   3.152
56838W        W18501   1.888  37.910   0.815
56839W        W18502   5.341  28.071   3.370
56840W        W18503  21.576  14.752  13.965
56841W        W18504  18.210  15.136   4.293
56842W        W18505  36.954  38.930  14.805
56843W        W18506   1.429   7.887  13.520
56844W        W18507  31.544  17.292  11.464
56845W        W18508  34.886  38.015  11.047
56846W        W18509  36.033  19.171   1.726
56847W        W18510   0.899   9.874   1.910
56848W        W18511  23.998  18.085  12.346
56849W        W18512   3.260   9.666  13.346
56850W        W18513  34.414  20.097  11.489
56851W        W18514  43.381  29.526   3.303
56852W        W18515   5.877  37.015   2.179
56853W        W18516   7.323  42.906  10.113
56854W        W18517   4.289  33.607   0.457
56855W        W18518   4.350   5.715  12.059
56856W        W18519  33.032  42.345   4.178
56857W        W18520  21.664  22.044  13.993
56858W        W18521  44.986   2.339  11.089
56859W        W18522  36.990  13.349   0.925
56860W        W18523  20.752   2.315  11.900
56861W        W18524   7.697  12.254  13.854
56862W        W18525   6.319   4.291   1.729
56863W        W18526  42.521  41.366  12.836
56864W        W18527   1.284  24.091   2.295
56865W        W18528  43.412  29.542  14.002
56866W        W18529  38.005   8.874  14.486
56867W        W18530   3.914  44.298  14.863
56868W        W18531  26.595  31.152   2.668
56869W        W18532  27.621  30.989   2.231
56870W        W18533  14.170  27.027  13.917
56871W        W18534   4.851  34.418   4.748
56872W        W18535  17.667  11.770   1.372
56873W        W18536  28.109  35.105   0.427
56874W        W18537  44.311  43.913  13.509
56875W        W18538  17.669  21.553  13.807
56876W        W18539  21.070   3.372   1.824
56877W        W18540  39.392  15.813   4.210
56878W        W18541  35.884   2.768  13.334
56879W        W18542  26.654   0.774  14.477
56880W        W18543  20.575  21.675  10.449
56881W        W18544  21.057  15.328   4.816
56882W        W18545  21.078   8.335  13.455
56883W        W18546  10.191  36.565   5.169
56884W        W18547  18.231  43.949   2.208
56885W        W18548  42.957   9.834   4.210
56886W        W18549  31.938  34.921  14.489
56887W        W18550  29.986   5.759  10.590
56888W        W18551   3.252  32.046   3.339
56889W        W18552  43.764  20.251   3.285
56890W        W18553   1.941  19.765   0.242
56891W        W18554  39.507   3.825   2.311
56892W        W18555  37.842   0.982  10.631
56893W        W18556  36.369  16.693   2.843
56894W        W18557  21.645   8.362   4.163
56895W        W18558  21.192  42.825   3.810
56896W        W18559  15.251  30.955   1.783
56897W        W18560  29.034  21.512  12.854
56898W        W18561  30.029   1.825  11.532
56899W        W18562  13.718  33.076  13.907
56900W        W18563  30.104   3.435  11.488
56901W        W18564  38.913   0.841   4.823
56902W        W18565  43.354   5.236  13.842
56903W        W18566  33.023   4.213  10.409
56904W        W18567  42.332  38.872  14.353
56905W        W18568  13.661   8.327   1.236
56906W        W18569  16.188  25.990  11.974
56907W        W18570   4.353  38.401   1.747
56908W        W18571   3.315  36.364  10.978
56909W        W18572  36.349  22.674  13.364
56910W        W18573   5.226  43.940   0.472
56911W        W18574  16.765  15.323  12.058
56912W        W18575  26.015  40.313   1.787
56913W        W18576   9.874  39.401  14.368
56914W        W18577  15.755  23.560  11.500
56915W        W18578  18.748  31.532   1.282
56916W        W18579   7.278  10.705  12.915
56917W        W18580   8.748  29.007   0.929
56918W        W18581  32.429   9.813  13.012
56919W        W18582  36.940  11.809   4.335
56920W        W18583   3.386   3.393   0.407
56921W        W18584  12.200  18.758  14.435
56922W        W18585  19.263  14.789   1.266
56923W        W18586  40.548  23.018   2.781
56924W        W18587  32.110  37.548  14.430
56925W        W18588  38.872  11.307  13.531
56926W        W18589  27.447   0.752   0.321
56927W        W18590  42.831   2.734   3.226
56928W        W18591  24.702  18.667   3.208
56929W        W18592  44.828  24.218  14.948
56930W        W18593  19.609  32.588  13.043
56931W        W18594  18.758  23.093  12.932
56932W        W18595  26.179  39.549   3.670
56933W        W18596  23.068   4.223   2.668
56934W        W18597  14.181   5.796   2.723
56935W        W18598  36.526   4.940   0.298
56936W        W18599  18.140  13.829   5.274
56937W        W18600  15.169  18.072   3.351
56938W        W18601  14.326   6.243   3.219
56939W        W18602  43.462  16.296  13.345
56940W        W18603  24.480   8.793   2.276
56941W        W18604  13.217   6.695  12.371
56942W        W18605   6.830  32.630   0.769
56943W        W18606   8.768  33.886   2.750
56944W        W18607  40.545  29.025   1.346
56945W        W18608  35.497  28.610  14.821
56946W        W18609  36.564  21.577   3.726
56947W        W18610   2.358  13.223   4.772
56948W        W18611   4.294  19.649   4.676
56949W        W18612  32.025   7.744   3.232
56950W        W18613  20.042   9.340   4.655
56951W        W18614  25.469  43.972   1.225
56952W        W18615   2.405  44.316   2.362
56953W        W18616  42.397  35.107   1.212
56954W        W18617   3.215   1.374   2.747
56955W        W18618  17.618   9.852  12.504
56956W        W18619  43.986  42.804  13.461
56957W        W18620   5.768  24.098  12.058
56958W        W18621   0.449   4.879  11.531
56959W        W18622  19.172  12.827  13.875
56960W        W18623  27.150  42.858  11.875
56961W        W18624  40.854  28.600   3.273
56962W        W18625  11.791  38.342  10.477
56963W        W18626   6.875  36.372  12.027
56964W        W18627   9.717   1.310   2.846
56965W        W18628   1.964  41.361   1.237
56966W        W18629   6.290  11.308   0.871
56967W        W18630  38.842  38.565  10.632
56968W        W18631  40.828   3.854   2.300
56969W        W18632  22.556  21.112   1.361
56970W        W18633  22.592  38.430  14.363
56971W        W18634   1.368  19.663   2.825
56972W        W18635   0.905   6.392  14.445
56973W        W18636  20.668  41.896   3.277
56974W        W18637  40.517  14.157  14.471
56975W        W18638  24.532  27.511   5.266
56976W        W18639  30.654  18.698   3.307
56977W        W18640  17.793  20.168   1.245
56978W        W18641  43.465  17.282  11.956
56979W        W18642  38.019  35.885   3.331
56980W        W18643   4.313  23.171   4.205
56981W        W18644  12.694   3.830  12.993
56982W        W18645  30.915   8.803   4.649
56983W        W18646  32.621   0.895   2.190
56984W        W18647  33.083  19.051  10.118
56985W        W18648   8.788   9.644   0.938
56986W        W18649  20.153  39.820   2.899
56987W        W18650  40.445  17.083  11.950
56988W        W18651  14.192   4.918  14.992
56989W        W18652  22.648   8.895   0.467
56990W        W18653  34.050  29.550  13.841
56991W        W18654  43.425  36.891  13.802
56992W        W18655  33.535  32.973  13.342
56993W        W18656  10.261  41.377  14.477
56994W        W18657  17.304  29.046  11.930
56995W        W18658  40.004  10.661   4.629
56996W        W18659  36.043   3.300  12.927
56997W        W18660   5.704  21.222  14.427
56998W        W18661  36.457  42.842  14.949
56999W        W18662  41.015  14.729  12.987
57000W        W18663  37.581   2.908  12.044
57001W        W18664  31.978  44.339  14.793
57002W        W18665  29.550   4.828  13.339
57003W        W18666  15.805  16.086  12.363
57004W        W18667  17.273   5.426  12.869
57005W        W18668  23.607  39.815   9.985
57006W        W18669  24.137  24.673  13.874
57007W        W18670  24.533  21.685   2.252
57008W        W18671   9.277  40.898  10.432
57009W        W18672  31.466   8.347   4.298
57010W        W18673  17.120  22.561  14.023
57011W        W18674   3.771  21.243   2.699
57012W        W18675  42.855  23.709   0.840
57013W        W18676  40.836  20.050  14.964
57014W        W18677  14.735  17.641  14.370
57015W        W18678  13.117   4.766  11.867
57016W        W18679  42.000  29.509  11.011
57017W        W18680  35.593   5.829   1.873
57018W        W18681  20.200  25.628   4.611
57019W        W18682  41.354  30.582  11.861
57020W        W18683  23.721   8.673  14.875
57021W        W18684  43.381  26.529   0.291
57022W        W18685  14.214  43.817  12.467
57023W        W18686  11.248  42.791   4.145
57024W        W18687  31.088   3.426  13.376
57025W        W18688  18.635  32.577  12.580
57026W        W18689  39.950  14.150  13.515
57027W        W18690  10.224  25.064  11.464
57028W        W18691  10.721  32.439  14.344
57029W        W18692  25.705   6.792   3.367
57030W        W18693  35.428  18.104   2.227
57031W        W18694  24.218  21.727   0.845
57032W        W18695  13.696  40.410   1.859
57033W        W18696  37.444  32.049  11.856
57034W        W18697   1.838  41.942  13.317
57035W        W18698  16.108  15.106   5.644
57036W        W18699  37.364  11.721   1.380
57037W        W18700   8.334  36.862   3.242
57038W        W18701   0.367  22.733  14.294
57039W        W18702  18.603   0.380  12.868
57040W        W18703   9.346  16.105   3.167
57041W        W18704   1.803  35.871   3.858
57042W        W18705  10.213   4.410   0.292
57043W        W18706  20.750  31.913   1.348
57044W        W18707  40.801  36.507   3.184
57045W        W18708   4.775  18.204  11.588
57046W        W18709  13.174  35.886  13.856
57047W        W18710  43.988  22.226  14.447
57048W        W18711  20.094  19.565   9.940
57049W        W18712  44.462  15.125  11.057
57050W        W18713  26.195  19.079  13.940
57051W        W18714  13.756  44.284   3.289
57052W        W18715  20.104  25.576  14.515
57053W        W18716  41.453  39.401  10.966
57054W        W18717   0.805   0.914  11.916
57055W        W18718  33.512  11.334   3.318
57056W        W18719  38.860  30.093  11.070
57057W        W18720  19.048  28.181  14.384
57058W        W18721  14.720  40.920  11.978
57059W        W18722  18.182   3.366   0.962
57060W        W18723  23.125  37.348   0.857
57061W        W18724  35.018   1.470  13.369
57062W        W18725  43.505  12.733  12.354
57063W        W18726  26.200  38.851   3.383
57064W        W18727  28.157   8.372  13.970
57065W        W18728  15.586  12.351   4.189
57066W        W18729  40.955  36.040   4.149
57067W        W18730  17.127  12.854   2.389
57068W        W18731  11.176  39.352  10.070
57069W        W18732  34.966  34.494  13.434
57070W        W18733  25.607  10.852   3.751
57071W        W18734  20.658  25.701   0.259
57072W        W18735  26.471  10.733   4.249
57073W        W18736  32.983  15.249   3.733
57074W        W18737  31.119  13.632   1.822
57075W        W18738  22.057  31.467  13.969
57076W        W18739  38.407  32.513  14.778
57077W        W18740   4.887   9.741  11.917
57078W        W18741  18.740  24.083  14.285
57079W        W18742  43.840  24.539   2.894
57080W        W18743  19.702  37.997   2.818
57081W        W18744  14.611   8.167   1.336
57082W        W18745  17.616  37.362   4.781
57083W        W18746  35.381  10.243  12.451
57084W        W18747  35.882  32.573  11.070
57085W        W18748  15.739  42.394   1.841
57086W        W18749   1.843  21.563  13.493
57087W        W18750  33.904  20.620  14.386
57088W        W18751   4.848  30.020   4.189
57089W        W18752  32.891  39.813  14.386
57090W        W18753   9.174  40.869   0.245
57091W        W18754  39.962  32.540  11.438
57092W        W18755  41.375   7.685   2.780
57093W        W18756   4.299  20.645   0.928
57094W        W18757  25.189  42.985  12.047
57095W        W18758  18.198  26.994   2.673
57096W        W18759   4.345  33.011   0.880
57097W        W18760  38.918  40.303   1.336
57098W        W18761  20.730   3.441   3.767
57099W        W18762   3.378  19.569  11.597
57100W        W18763  32.976  36.026   0.484
57101W        W18764  22.223   3.254  14.777
57102W        W18765  43.419  27.464  11.915
57103W        W18766  13.782  25.094   5.092
57104W        W18767   9.229  44.777   2.373
57105W        W18768   5.898  36.499  14.767
57106W        W18769  21.158  32.485   4.302
57107W        W18770  38.556   5.435  10.920
57108W        W18771   9.696  17.257   2.325
57109W        W18772  34.977  43.983   2.303
57110W        W18773   1.301  38.884   2.771
57111W        W18774  31.957  37.542  12.569
57112W        W18775  43.869   4.265   1.389
57113W        W18776  32.444  24.109   0.773
57114W        W18777  17.067  20.065  12.580
57115W        W18778  44.755  33.015  12.847
57116W        W18779  32.566  30.453   0.314
57117W        W18780  36.419   4.344  13.480
57118W        W18781  33.946  36.882   1.354
57119W        W18782  29.505  38.986  12.409
57120W        W18783  34.869  35.885   2.731
57121W        W18784  19.638   3.454   3.335
57122W        W18785   9.358  41.302  10.556
57123W        W18786   1.827  18.597   2.810
57124W        W18787   8.378  38.340   2.251
57125W        W18788  31.606  40.497  11.122
57126W        W18789  44.301  43.430   0.732
57127W        W18790  39.313  18.606   2.230
57128W        W18791   8.399  38.824   3.768
57129W        W18792   8.872  38.359   0.747
57130W        W18793  10.270  43.014   3.239
57131W        W18794   4.392  15.741  13.029
57132W        W18795  39.458  17.186   0.752
57133W        W18796  24.628  16.283  14.509
57134W        W18797  11.194  32.592  10.993
57135W        W18798  12.625   0.253  11.067
57136W        W18799  38.070  37.526  14.344
57137W        W18800  14.123  31.996  10.499
57138W        W18801  20.246  32.390  14.468
57139W        W18802   5.377  41.883  10.976
57140W        W18803  42.365  16.147  14.017
57141W        W18804   0.980  11.321  13.882
57142W        W18805  18.596  23.639  13.415
57143W        W18806  13.721  16.099  11.432
57144W        W18807   9.840  15.699  13.996
57145W        W18808  27.043  17.220   4.643
57146W        W18809  22.659  42.493   1.318
57147W        W18810   9.693  37.542   2.857
57148W        W18811  11.271  22.607   1.707
57149W        W18812   6.794  26.626   0.411
57150W        W18813   4.220  32.071   1.384
57151W        W18814  11.208  40.863  11.069
57152W        W18815  15.769  29.039   2.782
57153W        W18816   0.808   7.300  14.340
57154W        W18817  29.959   8.667   0.423
57155W        W18818  39.490  11.652  12.480
57156W        W18819  42.969   5.316   4.835
57157W        W18820  30.430  40.433  10.431
57158W        W18821  40.373   1.789  12.495
57159W        W18822  39.390  13.244   3.825
57160W        W18823  43.849  39.490  10.433
57161W        W18824  26.654  20.275   4.634
57162W        W18825  40.023  21.108   0.772
57163W        W18826  35.858  41.471  14.913
57164W        W18827   6.330   3.357  12.910
57165W        W18828   3.755  38.050  11.030
57166W        W18829  34.012  21.057  10.477
57167W        W18830  22.162  38.836  12.967
57168W        W18831   9.288  14.824   2.364
57169W        W18832  40.394  17.177   0.778
57170W        W18833  12.802  44.414  13.419
57171W        W18834  37.057  35.935  13.888
57172W        W18835  35.945  14.666  11.432
57173W        W18836   4.292  31.559   0.801
57174W        W18837  30.618  11.199  14.435
57175W        W18838  22.615  28.151  12.933
57176W        W18839  29.635  32.428   4.680
57177W        W18840  23.618  39.872   1.266
57178W        W18841   9.232  36.571   1.770
57179W        W18842  27.974  39.516  14.418
57180W        W18843  29.984  16.113   1.444
57181W        W18844  34.098  44.405  10.480
57182W        W18845  33.487  43.972   2.810
57183W        W18846  41.536  33.056   4.822
57184W        W18847  44.398  42.031  12.900
57185W        W18848  21.046  14.830  11.109
57186W        W18849  33.458   7.858   2.894
57187W        W18850  35.040  31.413   4.761
57188W        W18851  29.129  44.802   2.702
57189W        W18852  14.671  21.253  14.463
57190W        W18853   9.788  26.469   2.374
57191W        W18854   6.236  29.046  12.388
57192W        W18855   4.869  26.478  12.948
57193W        W18856  12.810  10.785   5.614
57194W        W18857   5.260   0.410   3.832
57195W        W18858  19.763  21.254   1.735
57196W        W18859  40.985  24.618  13.969
57197W        W18860  32.079  19.778  14.926
57198W        W18861  38.393  17.110  12.339
57199W        W18862  14.778   5.322   3.242
57200W        W18863  20.058  42.383   2.735
57201W        W18864   3.321  14.713  13.918
57202W        W18865  29.647   7.769   4.129
57203W        W18866  32.992   9.251   2.681
57204W        W18867   8.738  36.500  12.381
57205W        W18868  16.106   1.870  13.037
57206W        W18869  11.642  17.089  11.995
57207W        W18870  38.004  42.303  10.558
57208W        W18871  16.710   4.843  12.449
57209W        W18872  24.027  21.071  10.077
57210W        W18873  26.649  17.677   1.826
57211W        W18874  24.079  23.658  14.860
57212W        W18875  43.305  28.516   4.166
57213W        W18876  31.645  44.936   2.751
57214W        W18877  11.171  28.546  13.845
57215W        W18878  42.857  10.843   5.654
57216W        W18879  12.801  15.298  13.810
57217W        W18880  11.261  18.240  14.843
57218W        W18881  41.457  17.680   3.694
57219W        W18882   1.372  15.763   2.203
57220W        W18883   6.406  16.263   3.386
57221W        W18884   6.281  15.620  14.946
57222W        W18885  42.844  29.557   3.826
57223W        W18886   3.772  34.982  13.791
57224W        W18887  34.492  15.816  13.869
57225W        W18888   4.368   2.787   1.901
57226W        W18889  27.943  29.126  12.857
57227W        W18890   1.411  10.205  13.905
57228W        W18891  34.079   3.931  11.904
57229W        W18892  18.648   9.875  12.439
57230W        W18893   9.656  26.152   2.178
57231W        W18894  14.110  23.204   3.163
57232W        W18895  10.358   2.302  11.862
57233W        W18896  15.186  27.451   0.833
57234W        W18897  11.153  36.063  14.803
57235W        W18898  15.111  44.851  13.016
57236W        W18899  38.915   9.314   3.653
57237W        W18900   9.160  31.493  14.817
57238W        W18901  14.295  29.950  10.631
57239W        W18902  27.537  13.156   1.905
57240W        W18903  24.134  20.080   3.164
57241W        W18904   4.422  22.655   1.900
57242W        W18905  23.579   0.292   3.843
57243W        W18906  17.636  32.957   2.232
57244W        W18907  26.976  37.528   0.966
57245W        W18908  30.557   9.864   2.219
57246W        W18909  38.055   1.897  11.110
57247W        W18910  29.526   9.323   4.790
57248W        W18911  27.635  29.062  10.644
57249W        W18912  40.978  21.102   1.813
57250W        W18913  41.827  30.983   4.146
57251W        W18914  21.068  19.272  11.418
57252W        W18915  26.696   3.942   1.748
57253W        W18916  33.523  10.150  10.999
57254W        W18917  28.142   9.188   1.236
57255W        W18918  40.971  26.689  10.998
57256W        W18919  39.467   9.757   3.687
57257W        W18920  20.567  42.962   3.768
57258W        W18921  12.821  30.493   0.385
57259W        W18922  18.616  28.012  13.982
57260W        W18923  15.256  33.065   3.361
57261W        W18924  39.559   3.355  10.514
57262W        W18925  15.227   1.802  12.007
57263W        W18926  23.027   7.387   0.478
57264W        W18927   2.846  19.272  12.897
57265W        W18928  30.514  28.565   0.884
57266W        W18929   4.323  20.623  12.835
57267W        W18930  11.272  11.368   0.383
57268W        W18931  11.324   9.174   1.398
57269W        W18932  34.056  16.624  10.503
57270W        W18933   0.953   5.857  14.833
57271W        W18934  20.030  15.229  12.534
57272W        W18935  15.224   7.340  14.791
57273W        W18936   3.761  13.105  14.881
57274W        W18937   9.192   0.415  10.442
57275W        W18938  31.581  40.360   2.222
57276W        W18939  18.213   8.316  10.459
57277W        W18940  11.186  23.498  11.942
57278W        W18941   6.410  18.139  10.965
57279W        W18942   3.245  19.613  11.979
57280W        W18943  29.458   0.987   3.749
57281W        W18944  30.628  35.965   4.705
57282W        W18945  29.163   8.270  13.877
57283W        W18946  30.023   7.724   1.895
57284W        W18947  24.591  41.464  12.882
57285W        W18948  16.090  15.111   0.896
57286W        W18949  44.855  21.250  14.356
57287W        W18950  24.113  14.308   1.917
57288W        W18951  22.616   0.410  11.372
57289W        W18952  15.713  42.956   2.339
57290W        W18953  26.587  22.609   1.433
57291W        W18954   5.842  15.672  10.912
57292W        W18955  31.044  40.385   2.665
57293W        W18956  36.846  12.215  13.314
57294W        W18957  30.533  22.153  12.965
57295W        W18958  32.089  32.423  14.515
57296W        W18959   5.335  35.423   1.780
57297W        W18960  10.203  24.143  14.407
57298W        W18961  20.622  26.074   2.188
57299W        W18962  37.860   6.221   0.940
57300W        W18963  17.604   5.299  13.348
57301W        W18964  34.483  19.608  13.533
57302W        W18965  44.011  44.371  13.995
57303W        W18966  34.376  38.982   3.160
57304W        W18967  15.612   9.344  10.522
57305W        W18968  27.013  35.931  12.496
57306W        W18969  23.498  12.286   4.797
57307W        W18970  30.540  25.605   1.320
57308W        W18971  28.607  34.101   1.840
57309W        W18972  19.050  19.274  10.958
57310W        W18973  35.413  38.876  13.395
57311W        W18974  41.895  44.323   4.197
57312W        W18975  12.260  26.461  14.859
57313W        W18976  14.834   8.821   3.257
57314W        W18977  17.657   6.678   0.311
57315W        W18978  12.750  43.296   3.361
57316W        W18979  36.994  26.194   3.796
57317W        W18980  16.804  39.506   3.325
57318W        W18981   7.693   3.951  10.586
57319W        W18982  26.622   4.337   0.421
57320W        W18983  33.958  38.972   1.339
57321W        W18984   4.234  35.081   2.293
57322W        W18985  11.234  18.102   3.277
57323W        W18986  16.282  25.621   2.393
57324W        W18987  35.990  33.935   3.803
57325W        W18988  19.580   3.381   0.288
57326W        W18989   5.222  39.496   1.264
57327W        W18990  41.522   1.957  10.545
57328W        W18991  31.513  27.960  10.909
57329W        W18992  25.167  34.500  14.786
57330W        W18993  38.433  16.117  13.890
57331W        W18994  19.204  25.527  14.319
57332W        W18995  23.103  11.828   3.777
57333W        W18996  12.191   5.395   4.300
57334W        W18997  13.351  20.735   3.684
57335W        W18998  15.809  37.026  12.462
57336W        W18999  44.354   8.839   3.754
57337W        W19000   9.168  36.432  10.994
57338W        W19001   5.815  20.030  13.414
57339W        W19002   1.938  12.162   2.857
57340W        W19003  37.440   2.465  12.504
57341W        W19004  33.485   2.945   4.244
57342W        W19005  14.333  35.443  14.469
57343W        W19006  26.465  27.003   4.231
57344W        W19007  26.653  28.552   0.456
57345W        W19008  17.182   1.307   4.318
57346W        W19009  20.709  12.751  13.940
57347W        W19010  19.158   5.897  11.469
57348W        W19011  28.170  31.489  14.846
57349W        W19012   8.232  39.343  14.918
57350W        W19013   8.806  41.957   3.204
57351W        W19014   9.659   6.726   5.100
57352W        W19015  44.279  31.462  12.906
57353W        W19016  40.392  36.577   1.330
57354W        W19017  36.391  26.502  10.629
57355W        W19018  43.934  42.293  14.376
57356W        W19019  26.487  23.006   2.731
57357W        W19020   7.799   4.840  13.044
57358W        W19021   6.286  37.944  11.018
57359W        W19022  22.151  22.187   2.793
57360W        W19023  24.563  20.701  12.475
57361W        W19024  33.608   1.238  11.498
57362W        W19025  44.790  30.543  12.886
57363W        W19026  31.097   6.267  14.981
57364W        W19027   1.468   2.244  10.606
57365W        W19028  43.010  31.601   0.391
57366W        W19029  44.913  18.230   0.752
57367W        W19030  21.164  44.343   0.735
57368W        W19031  38.478  35.386  12.451
57369W        W19032  37.842  23.723   3.214
57370W        W19033  11.277   6.377   4.778
57371W        W19034  38.907  27.624  10.624
57372W        W19035  37.875  19.625   0.760
57373W        W19036   8.393  28.483   2.340
57374W        W19037   3.801  23.536   0.477
57375W        W19038  34.384   5.687   9.502
57376W        W19039  22.194   3.890  12.003
57377W        W19040  18.072  16.119  12.943
57378W        W19041  21.169  29.010  10.102
57379W        W19042  44.331  36.354  11.095
57380W        W19043   1.418  11.624   0.760
57381W        W19044  24.504  29.036   2.217
57382W        W19045  38.335  24.159   1.921
57383W        W19046  39.477  39.555   3.317
57384W        W19047  25.563  42.005  14.928
57385W        W19048  34.110   2.890   3.659
57386W        W19049  13.226  43.018  10.989
57387W        W19050  38.060  39.501  13.906
57388W        W19051  37.581   7.718   5.094
57389W        W19052  27.466   4.301  10.565
57390W        W19053   4.431  44.475  10.410
57391W        W19054   1.745  43.966   0.387
57392W        W19055  41.997  22.690   5.118
57393W        W19056  21.082  15.622   4.257
57394W        W19057   4.750   2.371  14.465
57395W        W19058  21.758  31.909  13.844
57396W        W19059  10.850  15.707  12.486
57397W        W19060  44.919  34.072   4.151
57398W        W19061  42.982  13.604   0.420
57399W        W19062  30.120  18.636  11.382
57400W        W19063  34.540  15.310   4.329
57401W        W19064  30.016   9.222  14.972
57402W        W19065  17.118  26.103  11.940
57403W        W19066  30.077  25.165  10.901
57404W        W19067   7.728  18.592  12.490
57405W        W19068   9.280   9.202  10.943
57406W        W19069  14.207  35.938   3.360
57407W        W19070  16.604  29.157   2.219
57408W        W19071   0.906  10.298   0.932
57409W        W19072  31.486  41.506  14.478
57410W        W19073  22.743  21.126  13.020
57411W        W19074   9.780  41.468   4.787
57412W        W19075   7.274  42.899  14.405
57413W        W19076  11.346   2.883   4.184
57414W        W19077  21.554  32.432   0.782
57415W        W19078  32.494  18.599  11.899
57416W        W19079  10.300   3.359  13.936
57417W        W19080  23.093  25.985   4.315
57418W        W19081  23.107  16.760  12.837
57419W        W19082  28.003  43.509  13.055
57420W        W19083  34.519  18.609  11.560
57421W        W19084  27.998  15.217   2.848
57422W        W19085   2.789  27.966   3.331
57423W        W19086  29.569  15.200   0.461
57424W        W19087  14.108  12.705   2.257
57425W        W19088  39.324   1.969  13.895
57426W        W19089   4.424   3.907  13.847
57427W        W19090  26.005  40.504   4.824
57428W        W19091  21.146  24.518   2.221
57429W        W19092   6.363  38.997   0.897
57430W        W19093  43.918   0.896  13.026
57431W        W19094  38.049  34.072  14.965
57432W        W19095  13.176  18.621  12.575
57433W        W19096   9.806  26.076  12.081
57434W        W19097  37.564  43.422   1.269
57435W        W19098  27.464   3.865   4.805
57436W        W19099   3.440   1.282   1.287
57437W        W19100   1.872  10.156   5.181
57438W        W19101  25.673  20.069  14.928
57439W        W19102  31.436  10.745   3.840
57440W        W19103  25.125  10.790   1.920
57441W        W19104  16.783   5.894  12.534
57442W        W19105   4.405   5.790   0.898
57443W        W19106  26.049  30.104   0.922
57444W        W19107   8.747  26.479   0.292
57445W        W19108   7.688  39.397  12.043
57446W        W19109  26.554  16.569   0.728
57447W        W19110  29.473  10.143  14.005
57448W        W19111  37.945  32.139  11.888
57449W        W19112   3.827   1.775  12.348
57450W        W19113  25.613  11.771  12.939
57451W        W19114  15.678  43.846   4.794
57452W        W19115  15.768   4.449  14.374
57453W        W19116  11.848  12.681  14.825
57454W        W19117  31.023  40.899   3.864
57455W        W19118   5.398  28.108   3.785
57456W        W19119  16.751  35.411   4.248
57457W        W19120  39.977  19.595  11.966
57458W        W19121  40.500  14.256   3.746
57459W        W19122  21.162  26.605   5.304
57460W        W19123  16.578   1.916   1.385
57461W        W19124  41.011  27.116  14.291
57462W        W19125  42.856  37.412   3.322
57463W        W19126   0.362  21.693  14.421
57464W        W19127  36.921  29.079  14.481
57465W        W19128  10.822  15.741   2.884
57466W        W19129  42.834  19.607  14.414
57467W        W19130  26.077  30.089  12.824
57468W        W19131   3.719   7.791   1.907
57469W        W19132  20.611  28.175  13.983
57470W        W19133  27.942   2.798   2.259
57471W        W19134  34.872  29.017  12.414
57472W        W19135  12.805   5.785   3.766
57473W        W19136  13.226  17.066  12.961
57474W        W19137  24.069   7.361  13.807
57475W        W19138  10.145  33.429  11.451
57476W        W19139  12.708   3.767  14.318
57477W        W19140   8.290  35.986   0.809
57478W        W19141  25.064   7.184   2.867
57479W        W19142  40.381  35.883   1.238
57480W        W19143  21.260  16.270   0.394
57481W        W19144  13.309  19.256   4.811
57482W        W19145  37.487  14.108   1.270
57483W        W19146  44.790  34.556  11.100
57484W        W19147   8.351   7.844  10.046
57485W        W19148   2.906  37.936  11.969
57486W        W19149   4.264  44.875   1.396
57487W        W19150  15.178  26.522   4.702
57488W        W19151   1.410  32.401   3.223
57489W        W19152  15.631  12.698  11.494
57490W        W19153   7.742  25.041   0.373
57491W        W19154  39.548  22.509   2.735
57492W        W19155   3.408  41.466   0.312
57493W        W19156  24.081  10.169   3.772
57494W        W19157   1.287  43.278  12.079
57495W        W19158  37.866  35.018   4.265
57496W        W19159   3.349   1.745   1.864
57497W        W19160  13.191   8.691   1.785
57498W        W19161  40.306   6.693   2.249
57499W        W19162  33.471   1.943   0.464
57500W        W19163  41.856   5.330  10.449
57501W        W19164   4.275   7.781  13.964
57502W        W19165  43.468  32.414   3.650
57503W        W19166  22.065  12.266  13.903
57504W        W19167  25.112  16.100   0.806
57505W        W19168   2.793  30.431   3.181
57506W        W19169   6.398  35.476   0.785
57507W        W19170  42.296  35.060   3.812
57508W        W19171  38.008  40.464  13.386
57509W        W19172  33.553   1.884  11.943
57510W        W19173  29.942  18.063  14.324
57511W        W19174   5.196   5.401   1.695
57512W        W19175  41.351  30.631  11.116
57513W        W19176  20.541  18.064   4.698
57514W        W19177  44.803  23.714  11.453
57515W        W19178  37.922  22.503   1.403
57516W        W19179   2.252  44.272  13.471
57517W        W19180  20.711   5.885   2.414
57518W        W19181  29.947  36.973  12.384
57519W        W19182  12.715   9.304  11.558
57520W        W19183  29.008  20.034  10.488
57521W        W19184   2.390  31.565  12.435
57522W        W19185  39.348  39.555  11.092
57523W        W19186   3.780  23.703   3.237
57524W        W19187  20.085   6.338   2.203
57525W        W19188  22.713  44.458  11.521
57526W        W19189  12.690  16.669  14.413
57527W        W19190  20.720  19.778   3.718
57528W        W19191  28.160  18.629  14.503
57529W        W19192   0.764  41.991   2.297
57530W        W19193  35.597  38.536   3.362
57531W        W19194   7.237   8.887  10.045
57532W        W19195   3.948  31.407   0.382
57533W        W19196  29.073  40.317  11.945
57534W        W19197  11.723  32.583  10.544
57535W        W19198  14.637  21.051  11.572
57536W        W19199  18.740   4.813   5.269
57537W        W19200  28.147  43.438  11.504
57538W        W19201  14.146  22.016   0.360
57539W        W19202  14.290   2.258   3.351
57540W        W19203  10.142  24.555   3.709
57541W        W19204  20.600  16.577  12.096
57542W        W19205  10.154  33.060   1.728
57543W        W19206  43.338   7.727   1.423
57544W        W19207  34.374  37.019  11.037
57545W        W19208  34.557  28.565  11.390
57546W        W19209   0.805   3.722   3.164
57547W        W19210  10.252   1.842   3.286
57548W        W19211  15.750  28.545  11.959
57549W        W19212  20.735   1.906  10.972
57550W        W19213  40.374  29.925  10.629
57551W        W19214   2.788  25.219   3.684
57552W        W19215  44.976  23.512  10.897
57553W        W19216   5.354   2.854   0.337
57554W        W19217  33.915  24.072   5.713
57555W        W19218  43.853  40.511   4.306
57556W        W19219  38.997  10.347  11.909
57557W        W19220  12.338  12.288  13.510
57558W        W19221  29.494   9.302   0.354
57559W        W19222  33.469  41.804   3.778
57560W        W19223  28.993  36.934  10.924
57561W        W19224   9.727  21.070   2.390
57562W        W19225  26.021  23.235   2.286
57563W        W19226  36.405  15.122   0.798
57564W        W19227  21.134  43.833   0.439
57565W        W19228  44.006  13.116  14.510
57566W        W19229   7.707  23.495  11.921
57567W        W19230  36.073  27.161  13.810
57568W        W19231  25.603   7.344  11.515
57569W        W19232   9.351  41.876  13.017
57570W        W19233  22.115   7.846   0.806
57571W        W19234  37.051  15.183   3.829
57572W        W19235   6.906  41.922  11.930
57573W        W19236   1.757   6.918   0.402
57574W        W19237  18.604   9.222  13.877
57575W        W19238  25.469   5.865   4.127
57576W        W19239  38.460  17.218   3.813
57577W        W19240   1.812  38.463  10.628
57578W        W19241   3.768  19.553   3.772
57579W        W19242  23.576  11.344   4.743
57580W        W19243  36.889  42.854  11.873
57581W        W19244  13.289  21.120   4.733
57582W        W19245  17.207  10.264  11.560
57583W        W19246  41.961  12.312  11.945
57584W        W19247  38.878  22.674  10.421
57585W        W19248  34.024  23.239   5.610
57586W        W19249  25.493   1.886   2.338
57587W        W19250  15.140   1.318  11.082
57588W        W19251  10.844   1.799  10.587
57589W        W19252   8.399  22.138   1.410
57590W        W19253   5.229  11.355   4.636
57591W        W19254  31.635  44.765   4.754
57592W        W19255  26.493   5.392  12.914
57593W        W19256   3.455  26.687   4.243
57594W        W19257  44.356   5.849  13.442
57595W        W19258   8.690  12.200  13.495
57596W        W19259  33.957   9.170   4.210
57597W        W19260   2.964  23.134  12.491
57598W        W19261   6.815  19.752  13.869
57599W        W19262  26.187  43.290   5.262
57600W        W19263  14.273   9.199   5.725
57601W        W19264  31.069  10.357  11.554
57602W        W19265   4.770  24.579  12.414
57603W        W19266  44.433  20.240   2.883
57604W        W19267   2.303   1.277   3.695
57605W        W19268  36.044  34.030  14.274
57606W        W19269  38.528  18.105  14.012
57607W        W19270  36.548  22.081   1.323
57608W        W19271  44.812  21.573   4.734
57609W        W19272  32.104  41.990   4.793
57610W        W19273  26.677  29.556  11.872
57611W        W19274   5.892  21.242  12.058
57612W        W19275  36.882  30.578  10.610
57613W        W19276   2.889  30.144   3.225
57614W        W19277  31.562  42.336   0.288
57615W        W19278  40.303  30.537  12.356
57616W        W19279  40.325  33.397   2.745
57617W        W19280  44.980  31.516  14.924
57618W        W19281  42.931  36.896  13.799
57619W        W19282  40.468  14.702   0.734
57620W        W19283  37.551  27.119   1.450
57621W        W19284   5.827   3.954   0.911
57622W        W19285  33.025  10.865   3.225
57623W        W19286   1.423  11.647   2.809
57624W        W19287  21.629  25.169  10.913
57625W        W19288  38.347  32.916   3.869
57626W        W19289  14.168  12.796  12.365
57627W        W19290  16.663   8.387   1.927
57628W        W19291  16.210  10.191   1.237
57629W        W19292  44.320  30.413  10.570
57630W        W19293   8.853   5.747  13.416
57631W        W19294   0.375  37.423  10.587
57632W        W19295  33.387   6.316   3.654
57633W        W19296  15.246  41.849  10.451
57634W        W19297  23.043   1.974  11.465
57635W        W19298  14.717  31.603  14.821
57636W        W19299  16.172  32.571  10.420
57637W        W19300  40.317  15.149   4.795
57638W        W19301  18.127  16.588   5.750
57639W        W19302  42.417   9.187  10.003
57640W        W19303  25.214   2.936  13.401
57641W        W19304  43.346  36.589  10.638
57642W        W19305  16.567  20.254   1.437
57643W        W19306  33.928  42.984   0.438
57644W        W19307  26.690  25.119  11.912
57645W        W19308  18.097  39.482  11.925
57646W        W19309   8.668  26.504  12.003
57647W        W19310  38.847  44.443   4.304
57648W        W19311  43.385  29.978  14.773
57649W        W19312  27.529   6.209  13.025
57650W        W19313  12.816  40.953   0.378
57651W        W19314  18.289  29.640   2.662
57652W        W19315  27.613  32.064  14.830
57653W        W19316  32.885  34.004   0.900
57654W        W19317  12.713  11.350  11.488
57655W        W19318  23.540  21.608   1.450
57656W        W19319  44.431   2.941  11.952
57657W        W19320  25.562  29.552   2.779
57658W        W19321  13.628  41.384   1.274
57659W        W19322  31.997  43.983  14.884
57660W        W19323   7.232  43.396   3.756
57661W        W19324  25.568  20.664  12.538
57662W        W19325  25.538  12.159   1.220
57663W        W19326   2.965  11.283  10.915
57664W        W19327  17.161   9.349  13.392
57665W        W19328  14.589  32.419  13.508
57666W        W19329  10.210  22.063  10.080
57667W        W19330  41.492  36.994   2.726
57668W        W19331   2.372  44.435   4.248
57669W        W19332  33.474  30.543  13.328
57670W        W19333  19.248   4.793  10.506
57671W        W19334  26.998   5.317   1.890
57672W        W19335  23.127  39.469   4.269
57673W        W19336  10.339   8.170   1.356
57674W        W19337  14.790  34.000   4.622
57675W        W19338  43.388  25.483   4.638
57676W        W19339  43.427   9.691  10.409
57677W        W19340  43.844   9.360   0.854
57678W        W19341  42.024  31.454   1.389
57679W        W19342  25.038  26.643  11.404
57680W        W19343  23.693  43.307   9.455
57681W        W19344  39.849  36.874   3.216
57682W        W19345  25.034  24.037   0.449
57683W        W19346  33.566  19.205   3.290
57684W        W19347  36.587  13.713   2.728
57685W        W19348  21.174  20.586   0.845
57686W        W19349  37.085  19.647   2.772
57687W        W19350  13.736  30.626   1.699
57688W        W19351  43.832  27.635  13.923
57689W        W19352  32.100  23.696   1.878
57690W        W19353  23.514  33.123   2.251
57691W        W19354  39.950  19.247  12.550
57692W        W19355   9.873  41.946   3.850
57693W        W19356  21.058  39.535  11.035
57694W        W19357  34.587  20.529  12.077
57695W        W19358  26.633   1.944   2.855
57696W        W19359  12.791  28.597   1.253
57697W        W19360  36.004  36.459   1.443
57698W        W19361  36.992  43.354  14.941
57699W        W19362  14.652  38.467  14.475
57700W        W19363   9.243  10.316  14.921
57701W        W19364  39.545  24.509   0.779
57702W        W19365  28.997   5.875  10.595
57703W        W19366  19.572  25.556   4.210
57704W        W19367  16.668  14.164  12.404
57705W        W19368   7.678  38.332   0.458
57706W        W19369  18.191  10.838  12.073
57707W        W19370   9.758  41.354  12.917
57708W        W19371   6.325  30.448  10.973
57709W        W19372  23.587  44.468  12.046
57710W        W19373   2.761  20.593  14.400
57711W        W19374  12.744  31.059  14.282
57712W        W19375  17.187  34.962   0.773
57713W        W19376  39.477  40.343  14.946
57714W        W19377  23.202  15.277   2.178
57715W        W19378  32.999  35.029  14.924
57716W        W19379   1.821  26.641  13.415
57717W        W19380  35.901  16.139   4.132
57718W        W19381  41.340  27.954   3.364
57719W        W19382  42.972   3.373  14.408
57720W        W19383  44.462  32.097  12.938
57721W        W19384  27.594  37.022  14.803
57722W        W19385  29.515  24.146   4.176
57723W        W19386  22.211  44.973   4.782
57724W        W19387  43.449  40.963   1.800
57725W        W19388  39.416  38.402   3.314
57726W        W19389   2.435  18.592  11.526
57727W        W19390  44.850  37.037   1.922
57728W        W19391   7.703   3.316  11.969
57729W        W19392  32.974  25.020   3.828
57730W        W19393   2.364  24.704  10.571
57731W        W19394   8.873   4.357  13.986
57732W        W19395  35.066  42.472   1.725
57733W        W19396  39.485   4.839   4.301
57734W        W19397  33.498   3.247   9.963
57735W        W19398  35.438  40.483  10.895
57736W        W19399  27.071  23.489   1.928
57737W        W19400  20.616  24.678   1.275
57738W        W19401  13.618  10.224  13.936
57739W        W19402  33.036   8.399  10.580
57740W        W19403  44.351  34.017   2.412
57741W        W19404  30.432  36.888   1.728
57742W        W19405  11.835  33.544  13.477
57743W        W19406  34.044  32.524   2.894
57744W        W19407  10.202  38.954  14.849
57745W        W19408  26.614  32.992  11.607
57746W        W19409  39.397  40.835   3.742
57747W        W19410  33.544   2.327   1.718
57748W        W19411   2.887  32.409  14.813
57749W        W19412  14.259  18.247  14.497
57750W        W19413   7.394  42.920  13.014
57751W        W19414  24.691  18.064   3.380
57752W        W19415   7.755  18.102  14.285
57753W        W19416  44.485  12.272   3.771
57754W        W19417   0.486  18.693  11.899
57755W        W19418   4.744  32.127  12.849
57756W        W19419  31.114   9.391   2.703
57757W        W19420  38.502  38.544   4.696
57758W        W19421  41.475  28.995  14.913
57759W        W19422   0.289  14.740  13.507
57760W        W19423  41.833   6.414   4.604
57761W        W19424  28.143  24.694  11.061
57762W        W19425  35.402   9.710   3.335
57763W        W19426  25.038  13.723   4.742
57764W        W19427  34.531  15.255   0.813
57765W        W19428  41.993  19.268   3.693
57766W        W19429  32.581  20.612   3.210
57767W        W19430  40.028   8.188  13.009
57768W        W19431  32.022  39.422  13.371
57769W        W19432   8.835  34.601  11.601
57770W        W19433  19.670  32.011  12.066
57771W        W19434  30.105  13.125  11.087
57772W        W19435  10.759  20.035   1.341
57773W        W19436   5.240  32.423   2.783
57774W        W19437  33.119  32.141   4.647
57775W        W19438  11.283  44.262   2.248
57776W        W19439  17.787  30.006   3.254
57777W        W19440  26.064  12.122  13.837
57778W        W19441  37.384  26.619  13.330
57779W        W19442  14.667   4.310  12.042
57780W        W19443  10.860   9.304  11.009
57781W        W19444  25.512   5.416   4.168
57782W        W19445  31.472  19.075  12.924
57783W        W19446   0.391  11.821   4.267
57784W        W19447  16.208   5.775  14.803
57785W        W19448   6.373   5.313   3.806
57786W        W19449  26.597   7.702   5.240
57787W        W19450  26.631  28.634  10.510
57788W        W19451  11.802  26.184   1.841
57789W        W19452  24.677  42.423   2.319
57790W        W19453   9.851  36.897   1.862
57791W        W19454  39.341  33.963   1.858
57792W        W19455   4.941  15.739   2.303
57793W        W19456   0.418  39.811  12.435
57794W        W19457   5.303   9.660   4.260
57795W        W19458  10.246   9.666  11.459
57796W        W19459  28.001  29.498   1.412
57797W        W19460  24.216  38.341   2.280
57798W        W19461  32.140   5.203  10.628
57799W        W19462  22.008   8.716   1.402
57800W        W19463  25.623  33.950  12.989
57801W        W19464  28.607  32.512  12.031
57802W        W19465  17.788  36.949   3.633
57803W        W19466  22.643  27.656  12.903
57804W        W19467  44.402  24.098   3.256
57805W        W19468  12.316  40.984  14.476
57806W        W19469  32.592  37.887   1.352
57807W        W19470   7.197  16.802  12.042
57808W        W19471  24.656  23.188  12.888
57809W        W19472  30.061  29.650  13.340
57810W        W19473   0.791  28.181  14.008
57811W        W19474   8.837  25.103   3.841
57812W        W19475  19.745   4.920  14.278
57813W        W19476   5.927   3.376  14.374
57814W        W19477   7.718   5.932  11.083
57815W        W19478  34.543  30.559   1.733
57816W        W19479  28.995  44.854   4.168
57817W        W19480  35.485  29.600  14.361
57818W        W19481  17.141  19.120  11.041
57819W        W19482  12.280   1.401  11.492
57820W        W19483  19.168  15.802  13.539
57821W        W19484  32.020  40.819   2.226
57822W        W19485   1.383  20.088  10.620
57823W        W19486   3.951  15.156   1.711
57824W        W19487  36.097  39.460   0.768
57825W        W19488   6.237  26.698  13.381
57826W        W19489   8.828  14.704   4.602
57827W        W19490  44.817   0.310  13.466
57828W        W19491  31.129  18.738   0.823
57829W        W19492   3.432  23.215  13.355
57830W        W19493  43.498  29.522  11.894
57831W        W19494  17.595  43.962  11.562
57832W        W19495  23.707  39.376  13.796
57833W        W19496  37.940  33.980   0.854
57834W        W19497  38.002   2.391  13.427
57835W        W19498  13.107  26.594   1.701
57836W        W19499  17.680  41.346   0.961
57837W        W19500  11.261  29.424   0.343
57838W        W19501   1.752  23.505   2.246
57839W        W19502  16.768   6.421   4.684
57840W        W19503  25.641  29.029  11.569
57841W        W19504  21.524  16.110  10.500
57842W        W19505  35.096  38.439  14.863
57843W        W19506  18.727  42.950   0.416
57844W        W19507   3.815  39.379  11.485
57845W        W19508  43.911  41.538  12.577
57846W        W19509  12.832  19.652  14.358
57847W        W19510  19.126  37.996   1.277
57848W        W19511   0.831   5.251   3.217
57849W        W19512  15.095  25.077   2.395
57850W        W19513  34.996  33.406   5.087
57851W        W19514  10.876  35.912   4.753
57852W        W19515  31.426  24.508  13.854
57853W        W19516  20.119  14.203  13.394
57854W        W19517  33.131  21.207   0.787
57855W        W19518  43.420  21.632  10.514
57856W        W19519   4.713  43.784  10.011
57857W        W19520  34.450  40.889  13.416
57858W        W19521   9.271  40.977  11.095
57859W        W19522   2.835  20.255  12.834
57860W        W19523  43.005   7.818  11.098
57861W        W19524   5.823  21.036  11.062
57862W        W19525  12.726  35.580   4.642
57863W        W19526   7.731  14.629  11.067
57864W        W19527  14.802  28.069  13.947
57865W        W19528  26.094   7.195  10.507
57866W        W19529  21.021  44.448   4.832
57867W        W19530   4.440  34.937  11.883
57868W        W19531  19.090  21.103  14.387
57869W        W19532  12.630  31.948   4.817
57870W        W19533  44.437  27.561   0.743
57871W        W19534  31.497  16.154   0.368
57872W        W19535  34.394  36.884   1.438
57873W        W19536  44.330  15.746  11.610
57874W        W19537  26.493  36.353  12.567
57875W        W19538   5.909   6.805   2.799
57876W        W19539  37.474  25.105   1.312
57877W        W19540   6.422  31.958  12.059
57878W        W19541  44.932  37.028   4.640
57879W        W19542  36.556  30.467  10.970
57880W        W19543  24.584   1.421   0.899
57881W        W19544  28.509   9.747   3.728
57882W        W19545  25.575  30.506  11.917
57883W        W19546  24.516  32.599  13.874
57884W        W19547  39.871  25.063  14.846
57885W        W19548  33.607  15.147  12.847
57886W        W19549   7.263   3.927   1.327
57887W        W19550  19.708   8.776   1.352
57888W        W19551  19.091  16.770   3.857
57889W        W19552  23.540   4.851  13.365
57890W        W19553  42.408   1.747  12.927
57891W        W19554  44.262   4.434  11.085
57892W        W19555  26.057  30.601  10.413
57893W        W19556  35.402  33.892   3.297
57894W        W19557  42.852  15.324   0.404
57895W        W19558   8.729  36.942   3.378
57896W        W19559  14.144  32.439  12.909
57897W        W19560  19.140  11.257  14.927
57898W        W19561   1.463  24.715  11.467
57899W        W19562  15.611  39.018  14.278
57900W        W19563  32.434  36.554   4.295
57901W        W19564   4.342  43.798   2.232
57902W        W19565  26.102  44.892  14.399
57903W        W19566   1.857   9.781  12.426
57904W        W19567  38.927  35.005  14.415
57905W        W19568  16.650  10.245  11.468
57906W        W19569   3.937  19.721  11.545
57907W        W19570  37.990  17.649  12.402
57908W        W19571  38.405   0.481  10.946
57909W        W19572  22.714  41.020   0.477
57910W        W19573  13.764  34.890   9.609
57911W        W19574  30.985   2.430   4.664
57912W        W19575   1.843  21.091   4.620
57913W        W19576  19.115  29.539  12.977
57914W        W19577  30.009  41.002  13.016
57915W        W19578  20.212  29.114   4.250
57916W        W19579  12.281  36.949  11.374
57917W        W19580  13.833  12.266  14.019
57918W        W19581  17.594  14.611  13.533
57919W        W19582   2.881   3.948   2.343
57920W        W19583  30.573  11.841  10.978
57921W        W19584  27.083   6.764   0.830
57922W        W19585   7.743  13.327   1.444
57923W        W19586   9.200  28.985  14.458
57924W        W19587  34.059  29.559  11.457
57925W        W19588  23.077   9.648  14.993
57926W        W19589  43.904  16.130   3.718
57927W        W19590  14.185  16.263   3.857
57928W        W19591   4.750   5.708   0.843
57929W        W19592   4.930  40.967  11.047
57930W        W19593  10.735  30.079   4.820
57931W        W19594  15.781  38.406  12.480
57932W        W19595  44.806  15.660  12.578
57933W        W19596   9.149  20.548   4.241
57934W        W19597   5.396  10.834  13.012
57935W        W19598  41.013  43.343   3.813
57936W        W19599  27.472   9.391   0.732
57937W        W19600  21.114  25.051   4.744
57938W        W19601   3.761  15.168   2.352
57939W        W19602  16.804  26.535   1.318
57940W        W19603  27.530  20.056  13.804
57941W        W19604   8.237   6.380   1.423
57942W        W19605  15.212  32.503  11.861
57943W        W19606   6.408  38.453   0.966
57944W        W19607  34.906  41.327  13.858
57945W        W19608  26.098  29.443   2.282
57946W        W19609  19.250  11.858  11.596
57947W        W19610   1.909  27.105   4.647
57948W        W19611  12.138   9.881  12.500
57949W        W19612   6.203  35.089   1.713
57950W        W19613   4.808  20.674  14.476
57951W        W19614  28.479  30.463   0.374
57952W        W19615  23.602  41.366   1.832
57953W        W19616  40.425  13.232   3.645
57954W        W19617  42.437  27.640   2.796
57955W        W19618  14.728  35.377   4.348
57956W        W19619  10.818  30.565   1.240
57957W        W19620  29.053  11.629  13.411
57958W        W19621   4.944  17.116   2.222
57959W        W19622  17.767   3.790   3.766
57960W        W19623  43.279  32.624   2.752
57961W        W19624  14.675  26.557  10.620
57962W        W19625   8.662  24.674  12.921
57963W        W19626   3.914  23.030   0.323
57964W        W19627  10.138  16.610   0.324
57965W        W19628   4.262  39.856   3.730
57966W        W19629  21.650   9.863  10.973
57967W        W19630   2.351  22.111  13.896
57968W        W19631  41.976  38.570  11.995
57969W        W19632   3.236   4.237   3.657
57970W        W19633  24.633   8.664  10.981
57971W        W19634  18.633  20.629  14.920
57972W        W19635  11.337   0.827  14.884
57973W        W19636  28.072  39.974  11.501
57974W        W19637   7.831  38.538  11.982
57975W        W19638  39.015  19.639  10.525
57976W        W19639  19.196  32.927   4.303
57977W        W19640  36.372  23.680   4.605
57978W        W19641  24.533  43.922   2.344
57979W        W19642   9.714  19.671  14.516
57980W        W19643  27.073  43.877   9.648
57981W        W19644  40.926  42.834  14.314
57982W        W19645  11.301  24.149  10.534
57983W        W19646  29.433  32.500  12.566
57984W        W19647  20.133  27.095   1.708
57985W        W19648  29.964  37.944   1.234
57986W        W19649  30.641   6.387   3.328
57987W        W19650  35.889  30.581  11.517
57988W        W19651  30.131  35.853   2.398
57989W        W19652   3.460  12.273  12.954
57990W        W19653   1.360  23.116  11.862
57991W        W19654  42.487  10.819  12.091
57992W        W19655  12.142  24.178  14.408
57993W        W19656  37.863  44.327  13.397
57994W        W19657   9.368  28.664   0.302
57995W        W19658  31.118  35.092   0.900
57996W        W19659  23.124  29.608   2.360
57997W        W19660  17.716  34.479  14.275
57998W        W19661  17.239  22.645  10.431
57999W        W19662   4.716   9.242  12.921
58000W        W19663  39.855  42.420   0.481
58001W        W19664  18.698   7.734   4.175
58002W        W19665   5.764   6.409   1.708
58003W        W19666  30.528  14.100  11.003
58004W        W19667   7.223  43.439   1.275
58005W        W19668  12.241  41.913   3.668
58006W        W19669   4.219  29.434   0.411
58007W        W19670  36.541  16.574  10.562
58008W        W19671  24.223  29.068  10.491
58009W        W19672  20.681   6.845   4.277
58010W        W19673  43.991   3.257   1.219
58011W        W19674  40.885  42.362  12.035
58012W        W19675  23.495   3.425  12.351
58013W        W19676  32.408  31.590  12.523
58014W        W19677  11.622   5.403  12.844
58015W        W19678  25.973  34.069  11.013
58016W        W19679  44.847  23.069  10.480
58017W        W19680  31.998  22.582   1.836
58018W        W19681  22.568  14.127   3.783
58019W        W19682  19.659  34.082   2.677
58020W        W19683  41.363  40.800  10.952
58021W        W19684  24.509  17.212   4.635
58022W        W19685  37.021  33.574   1.696
58023W        W19686  29.429  12.662   4.732
58024W        W19687  43.498  10.796   2.317
58025W        W19688  41.325   3.235   0.826
58026W        W19689  18.559   9.374   4.604
58027W        W19690  42.936  18.178  13.350
58028W        W19691  32.142   0.871   5.190
58029W        W19692  27.195  37.999   3.283
58030W        W19693  14.738  10.799   0.289
58031W        W19694   9.888  24.189  12.541
58032W        W19695  37.439  24.183  14.296
58033W        W19696  18.061  25.503   4.350
58034W        W19697  39.971  22.089   2.803
58035W        W19698  23.512  11.781  13.334
58036W        W19699  29.073  14.259   2.848
58037W        W19700  32.397   5.279  11.043
58038W        W19701  10.877   6.813   1.768
58039W        W19702   1.904  27.075  10.590
58040W        W19703  35.989  32.900  13.455
58041W        W19704  38.947   4.756   4.728
58042W        W19705  40.351  33.606   5.261
58043W        W19706  40.379  35.477   0.331
58044W        W19707  44.375  23.020  11.902
58045W        W19708  38.444  25.182  13.802
58046W        W19709  13.323  12.249  10.434
58047W        W19710  11.330  20.067   3.630
58048W        W19711  17.709  40.975  14.939
58049W        W19712  10.251  18.615   2.350
58050W        W19713  37.363  41.799  12.352
58051W        W19714  30.131  38.426   0.419
58052W        W19715  28.033   2.345  14.026
58053W        W19716   3.314  14.723  11.591
58054W        W19717  33.122  26.015  13.017
58055W        W19718  25.660  43.450  13.882
58056W        W19719  32.443   3.365  12.416
58057W        W19720  34.883  10.687  11.880
58058W        W19721   0.823  14.275  11.962
58059W        W19722  39.015  17.267   1.325
58060W        W19723   5.758  36.906   0.963
58061W        W19724   3.891  25.009  10.931
58062W        W19725  32.561  28.451  13.059
58063W        W19726  25.477  38.428   3.250
58064W        W19727  16.173  17.662  12.508
58065W        W19728  24.480   9.836  11.508
58066W        W19729   8.730  34.953  10.483
58067W        W19730  44.942  41.404   3.322
58068W        W19731  43.963  28.462  10.934
58069W        W19732  34.435  31.518   3.358
58070W        W19733   6.271  39.906   9.985
58071W        W19734  15.243   4.346   3.174
58072W        W19735   4.379  18.289   0.252
58073W        W19736  26.043  28.630   1.225
58074W        W19737  14.256   3.358   4.329
58075W        W19738  24.085  27.944   4.605
58076W        W19739  26.600  24.701   3.336
58077W        W19740  28.641  36.843   3.746
58078W        W19741  15.787  12.624   1.749
58079W        W19742  12.670   9.654  12.026
58080W        W19743  16.244  26.654  13.316
58081W        W19744  31.011  10.695  14.448
58082W        W19745   4.416   3.920  11.423
58083W        W19746  34.931  21.198   3.147
58084W        W19747  24.182  37.341  14.342
58085W        W19748  38.913   3.272  13.437
58086W        W19749   3.738  28.165  12.052
58087W        W19750   7.718  13.838  11.099
58088W        W19751  23.640  24.707   3.207
58089W        W19752   6.341  35.972   3.318
58090W        W19753   3.938  41.996  11.965
58091W        W19754  44.437  42.497  10.958
58092W        W19755  29.468  21.153  13.429
58093W        W19756   2.433  11.346  11.007
58094W        W19757  33.388  21.191   4.295
58095W        W19758   6.779  19.777  13.380
58096W        W19759   8.798  22.595   0.367
58097W        W19760  32.549  22.013   2.809
58098W        W19761   8.392  11.826  11.119
58099W        W19762  38.010   2.285   1.226
58100W        W19763   5.220  33.953   0.771
58101W        W19764  27.589  14.630   3.310
58102W        W19765  42.789  29.111   9.952
58103W        W19766  15.800  42.941   4.690
58104W        W19767  38.887  31.051   1.715
58105W        W19768  27.563  31.518   4.266
58106W        W19769  33.465  41.371   4.263
58107W        W19770  30.956   4.723   0.473
58108W        W19771  21.705  39.954   4.758
58109W        W19772  27.059   6.905  12.997
58110W        W19773   9.186  12.763  12.937
58111W        W19774  14.767  22.591  12.090
58112W        W19775  12.611   8.784  12.422
58113W        W19776  18.586  35.980  11.478
58114W        W19777  23.516  11.274   0.810
58115W        W19778  21.065  24.488  14.498
58116W        W19779  14.305   0.916  13.379
58117W        W19780  42.286  38.824  11.410
58118W        W19781  37.972  12.694   1.402
58119W        W19782   4.936  14.277  11.017
58120W        W19783   7.792  25.139  12.881
58121W        W19784  27.620  27.632   0.771
58122W        W19785   7.378  36.019   1.902
58123W        W19786  17.670   2.387   2.295
58124W        W19787  37.003  23.635   2.852
58125W        W19788  32.487  24.606  14.499
58126W        W19789  10.669  42.911   0.279
58127W        W19790   5.351  41.406  13.979
58128W        W19791  40.410  21.239   4.750
58129W        W19792  32.113  18.069   2.853
58130W        W19793  19.240  22.531   3.787
58131W        W19794  17.083   0.444   1.855
58132W        W19795  30.990  32.603   3.737
58133W        W19796   6.264   9.843   2.727
58134W        W19797  17.676   4.343  10.474
58135W        W19798  22.020   8.687   0.889
58136W        W19799   1.344  16.811   4.675
58137W        W19800  30.094  28.054   0.458
58138W        W19801   6.904  13.320  14.276
58139W        W19802  30.049   5.719  12.397
58140W        W19803  39.959   0.841  14.332
58141W        W19804  22.998   1.841   5.237
58142W        W19805   4.445  34.608  14.976
58143W        W19806  40.929  25.475   2.238
58144W        W19807   0.358  36.446  13.332
58145W        W19808  12.810  39.412  13.029
58146W        W19809  39.467  38.076   1.277
58147W        W19810   1.802  28.033  14.840
58148W        W19811  16.138  26.982   3.836
58149W        W19812  29.080  42.915  14.003
58150W        W19813   8.876  34.094   1.265
58151W        W19814  44.298   5.687   3.237
58152W        W19815   3.377  14.834  10.636
58153W        W19816   2.240  33.477   3.353
58154W        W19817  13.336   9.375  14.923
58155W        W19818  30.461  20.143  13.888
58156W        W19819  18.769  36.501  11.477
58157W        W19820  22.089  26.685   0.374
58158W        W19821  37.061  26.153  11.528
58159W        W19822   0.980  34.966  11.527
58160W        W19823   5.275  13.835  14.993
58161W        W19824  17.658  19.577   1.422
58162W        W19825  20.745  31.096   2.665
58163W        W19826  39.497  40.399  12.862
58164W        W19827  16.169   9.216   2.217
58165W        W19828  17.153   3.876   0.338
58166W        W19829  17.571  35.428   2.198
58167W        W19830  25.641   1.771   0.310
58168W        W19831  26.477  16.621  13.526
58169W        W19832  11.777  24.979   3.825
58170W        W19833   3.361  23.630   3.164
58171W        W19834   4.430  36.373  12.924
58172W        W19835  26.554   7.399  11.598
58173W        W19836  38.486  20.150   4.246
58174W        W19837  15.131  34.114  11.467
58175W        W19838   9.702  35.451   1.295
58176W        W19839  17.669   2.960  11.428
58177W        W19840  29.099  11.695   2.240
58178W        W19841  11.340  30.946  10.962
58179W        W19842  18.646  12.640  13.833
58180W        W19843  26.054   8.688   4.621
58181W        W19844  30.997  33.121  12.978
58182W        W19845  39.421   2.846   0.291
58183W        W19846  22.076  33.891  12.927
58184W        W19847  19.111  40.373   2.323
58185W        W19848  22.253  20.529   1.793
58186W        W19849   0.928  11.156   3.318
58187W        W19850   8.213  42.016  13.944
58188W        W19851  21.048  31.546   4.210
58189W        W19852   2.777  16.776  10.410
58190W        W19853  18.290  29.619  12.567
58191W        W19854  36.463  27.650  12.577
58192W        W19855  42.402  15.771   2.688
58193W        W19856  30.074  40.044  11.440
58194W        W19857  23.118  31.949  14.020
58195W        W19858   1.305  35.445   4.301
58196W        W19859   6.338  12.724  14.289
58197W        W19860  14.338  17.692   4.215
58198W        W19861  35.984  15.749   1.418
58199W        W19862  16.683  33.895   4.308
58200W        W19863   1.296  21.563   1.218
58201W        W19864  29.975  44.960   2.692
58202W        W19865  10.835  12.231  11.545
58203W        W19866  33.437  15.114  10.940
58204W        W19867   4.265  27.147  14.307
58205W        W19868   6.288  22.136   0.332
58206W        W19869  22.732  36.485  13.480
58207W        W19870  39.541   1.460  13.039
58208W        W19871  32.605  35.526   4.163
58209W        W19872  44.359  23.100   5.143
58210W        W19873  21.668  27.101   2.794
58211W        W19874  19.127  40.398   0.736
58212W        W19875  25.508  10.781  14.439
58213W        W19876  30.952  17.733  12.530
58214W        W19877  12.800  12.223   0.242
58215W        W19878  33.579  12.362   4.641
58216W        W19879  22.009   1.255   5.100
58217W        W19880   7.297  38.495  13.485
58218W        W19881  25.499  25.522  10.556
58219W        W19882   6.286  19.221  11.461
58220W        W19883  14.731   8.786   2.315
58221W        W19884  22.232  44.843   0.281
58222W        W19885  15.754  26.121  11.129
58223W        W19886  18.572   1.751   2.781
58224W        W19887  23.029  24.524   0.871
58225W        W19888  40.872   4.350   1.755
58226W        W19889  37.861  43.323   1.451
58227W        W19890   0.342  13.845  11.083
58228W        W19891  27.147  25.504   4.302
58229W        W19892   1.755  12.276   1.407
58230W        W19893  40.916  15.677  12.951
58231W        W19894  11.804  25.611  14.945
58232W        W19895  10.181   9.721  14.933
58233W        W19896  15.816  17.675   1.337
58234W        W19897  17.687   5.871  11.917
58235W        W19898  21.603  33.898  14.831
58236W        W19899  29.129  14.621  13.811
58237W        W19900  15.206  18.111   3.846
58238W        W19901  36.018  32.570   1.861
58239W        W19902  28.946  24.554   4.348
58240W        W19903   3.408   3.293   4.798
58241W        W19904  29.556  39.485   4.228
58242W        W19905  27.582  12.302  14.941
58243W        W19906   5.863  29.153  13.865
58244W        W19907  22.239  22.642   0.871
58245W        W19908   3.777  13.193  12.403
58246W        W19909  39.833   5.417   3.230
58247W        W19910  31.523   1.464  11.127
58248W        W19911   7.234  18.703   2.284
58249W        W19912   6.793  38.469  10.445
58250W        W19913  12.783  37.909  14.869
58251W        W19914  23.503   5.316   2.333
58252W        W19915  34.371   8.304  13.344
58253W        W19916   8.723  19.194   3.351
58254W        W19917   4.434  11.777  14.471
58255W        W19918  42.479   0.444  12.511
58256W        W19919  21.045   6.894   4.760
58257W        W19920  38.033  32.924  14.957
58258W        W19921   7.729  35.499   2.675
58259W        W19922  35.458  29.980  13.540
58260W        W19923   2.769   8.867  14.848
58261W        W19924  14.757  13.275  13.946
58262W        W19925  27.668   4.443   1.888
58263W        W19926  22.161  35.067  10.546
58264W        W19927  28.038  35.541   2.750
58265W        W19928  30.975   6.717   3.268
58266W        W19929  14.683   5.244  12.978
58267W        W19930  20.559  22.539   3.818
58268W        W19931  31.072  35.970  14.388
58269W        W19932  40.954  10.844   2.219
58270W        W19933  42.916  43.857   3.331
58271W        W19934  16.606  14.325   0.316
58272W        W19935   8.879  21.560   0.761
58273W        W19936  32.472   7.791  14.853
58274W        W19937  39.825  25.114  14.007
58275W        W19938  36.876  23.698  14.336
58276W        W19939   8.278  25.165   0.943
58277W        W19940  27.115  43.900   0.384
58278W        W19941  39.863  32.016  12.004
58279W        W19942   6.754  16.131   3.181
58280W        W19943   3.910   6.392  11.521
58281W        W19944  18.680  26.543  13.447
58282W        W19945  29.448  12.223  13.900
58283W        W19946  23.595  16.128  11.081
58284W        W19947  33.460  34.503   4.258
58285W        W19948   1.436  32.550   3.832
58286W        W19949  42.478  18.150   3.787
58287W        W19950  38.965  36.961  10.910
58288W        W19951   9.867  39.479  12.577
58289W        W19952  14.698  22.032   1.371
58290W        W19953   7.412  22.146  11.488
58291W        W19954  14.322  32.070   4.169
58292W        W19955  27.123  28.007   3.216
58293W        W19956  25.964  25.182   3.702
58294W        W19957  27.520   8.191   0.796
58295W        W19958  38.032   1.882  14.321
58296W        W19959  28.109  39.827   2.394
58297W        W19960  40.373  18.567  14.803
58298W        W19961  13.825  11.354  13.426
58299W        W19962  11.225  33.952   4.827
58300W        W19963  41.921   8.207   4.167
58301W        W19964  31.111  19.109   3.380
58302W        W19965  10.303  18.577   3.707
58303W        W19966   2.792  14.831  14.433
58304W        W19967  23.183   5.386  12.005
58305W        W19968   9.368  40.814   1.317
58306W        W19969  22.598  18.725   3.657
58307W        W19970  12.323  29.032   3.149
58308W        W19971  33.881   1.791   2.750
58309W        W19972   0.923  14.755  10.962
58310W        W19973  36.887  23.127  13.378
58311W        W19974  41.980  34.949   3.309
58312W        W19975   3.762  34.903  10.583
58313W        W19976  41.364  22.091  12.493
58314W        W19977  16.128  20.662  11.064
58315W        W19978   8.874  15.289   3.253
58316W        W19979  44.771  33.557   4.832
58317W        W19980  16.258  25.586  10.599
58318W        W19981  44.380  28.059  14.466
58319W        W19982  40.925  29.652   1.850
58320W        W19983  18.666  34.415  14.888
58321W        W19984   0.839  37.869  13.381
58322W        W19985  32.912  36.845  14.359
58323W        W19986   0.284  11.810  11.561
58324W        W19987  26.577   6.249   1.338
58325W        W19988   4.382  25.521   1.307
58326W        W19989  20.735  26.617   2.183
58327W        W19990  19.041   1.475  14.980
58328W        W19991  32.113   1.868  11.514
58329W        W19992  12.170  39.004  12.880
58330W        W19993  14.274  41.466  14.468
58331W        W19994   5.779   2.947   2.223
58332W        W19995  29.447  37.489  14.961
58333W        W19996  15.650  24.051   3.697
58334W        W19997  28.939   3.356  14.302
58335W        W19998  31.990  40.526   3.670
58336W        W19999   7.844  19.610  13.882
58337W        W20000  18.091  33.100  10.472
58338W        W20001  16.159  44.848   3.661
58339W        W20002  44.808  28.569   3.327
58340W        W20003  31.535  15.605  14.482
58341W        W20004  13.765  26.635  12.064
58342W        W20005  23.194   8.867  14.481
58343W        W20006  28.511  18.782  11.924
58344W        W20007  13.639  28.555   0.309
58345W        W20008  36.082  24.033  12.053
58346W        W20009  33.093  21.088   1.348
58347W        W20010  22.655  34.025   1.413
58348W        W20011  38.969  20.718  12.527
58349W        W20012   6.413  34.063  12.348
58350W        W20013  24.053   6.196   2.732
58351W        W20014   7.202   5.428  11.001
58352W        W20015  39.338   9.208  10.483
58353W        W20016  26.000   1.904   2.739
58354W        W20017  17.560  44.367  12.031
58355W        W20018  21.741   6.918   1.272
58356W        W20019  12.307  44.987  12.835
58357W        W20020   4.930  34.493  12.453
58358W        W20021  27.515  38.413  14.309
58359W        W20022  29.128  41.297  13.881
58360W        W20023  38.554  34.085   4.304
58361W        W20024  34.476  22.501   3.278
58362W        W20025  28.069  43.943   0.470
58363W        W20026   3.943  40.403   2.246
58364W        W20027  39.485  14.755   3.766
58365W        W20028  26.135   3.437  14.770
58366W        W20029  34.026  19.231   4.649
58367W        W20030  18.544  25.525  14.285
58368W        W20031  20.710  42.303  14.342
58369W        W20032  33.514  19.650   9.666
58370W        W20033  41.421  11.354  14.887
58371W        W20034   3.950  20.662  14.478
58372W        W20035   1.307  12.280  12.421
58373W        W20036  37.463  19.126  14.995
58374W        W20037  17.657   2.927   1.820
58375W        W20038  34.006   2.735   4.745
58376W        W20039  16.773  29.140   0.869
58377W        W20040  37.553  37.048   2.262
58378W        W20041  29.062  32.473   1.916
58379W        W20042  17.228  25.713  11.032
58380W        W20043  36.981  15.088  13.955
58381W        W20044  34.101  38.569  10.928
58382W        W20045  38.993  14.240  13.916
58383W        W20046  14.734  26.563   5.224
58384W        W20047  17.681  41.425   1.243
58385W        W20048  42.343  20.535  12.999
58386W        W20049  24.710   6.316  13.527
58387W        W20050  36.586  22.065  12.953
58388W        W20051  11.254  12.674   0.825
58389W        W20052  21.520  23.611   3.204
58390W        W20053  33.541  20.242   0.869
58391W        W20054   9.850  22.024   3.217
58392W        W20055  20.259  21.046  13.821
58393W        W20056  26.208   5.905   1.294
58394W        W20057  19.121  31.939   5.157
58395W        W20058  26.473   8.403  12.824
58396W        W20059  23.493  25.124  14.938
58397W        W20060  41.953  17.558  11.522
58398W        W20061  37.445   0.494  13.546
58399W        W20062  44.958  19.041   0.778
58400W        W20063   4.732  25.964  10.963
58401W        W20064  21.618  13.304   4.266
58402W        W20065  34.102  43.929   2.322
58403W        W20066  28.573  24.703  13.815
58404W        W20067   2.428  28.640   1.351
58405W        W20068   8.697   9.302  11.549
58406W        W20069  15.774  34.096   2.329
58407W        W20070  25.474  22.186   0.333
58408W        W20071  35.855  27.654   2.219
58409W        W20072   8.798  16.775  11.941
58410W        W20073  19.733  14.604   2.798
58411W        W20074  42.517  32.515  13.872
58412W        W20075  21.203  33.577   0.252
58413W        W20076  30.525  13.119  11.556
58414W        W20077  23.674  23.014  13.480
58415W        W20078  11.168  31.580   1.269
58416W        W20079  21.140  24.567   2.688
58417W        W20080   1.458  36.927   3.735
58418W        W20081   7.240  37.447   3.251
58419W        W20082  14.659  15.162  12.542
58420W        W20083  33.038  33.465  14.288
58421W        W20084   1.972  41.449   2.829
58422W        W20085   3.358  28.592   3.251
58423W        W20086  24.503  44.447  12.427
58424W        W20087  10.229  28.148   3.784
58425W        W20088  17.695  16.760  10.498
58426W        W20089   3.236  27.153  13.869
58427W        W20090  36.890  26.003  10.904
58428W        W20091   9.775   8.191  11.910
58429W        W20092  35.912  13.163  12.050
58430W        W20093  42.424  21.750  13.978
58431W        W20094  15.147   0.431   1.434
58432W        W20095  30.091   7.826  11.510
58433W        W20096  42.464  25.518  13.473
58434W        W20097  32.123  18.071  10.566
58435W        W20098  25.178  32.030  13.497
58436W        W20099   9.149  40.841  14.477
58437W        W20100  40.806  21.189  13.982
58438W        W20101  34.613   2.914   3.738
58439W        W20102  31.530  12.736   3.727
58440W        W20103   5.272  17.732  12.443
58441W        W20104  20.034  22.124  14.312
58442W        W20105   3.389  31.492  13.931
58443W        W20106  38.828   3.323  11.076
58444W        W20107  29.105  23.183   1.718
58445W        W20108  26.010   3.367  13.808
58446W        W20109  18.054  40.918  13.827
58447W        W20110  23.230  27.033  14.965
58448W        W20111  41.519  32.929  11.958
58449W        W20112  44.466  22.040   2.265
58450W        W20113  11.687  15.753  13.806
58451W        W20114  33.026  29.169   1.790
58452W        W20115   6.221  27.168   1.362
58453W        W20116  21.166  38.983   3.213
58454W        W20117  30.560  11.861   3.680
58455W        W20118  38.429  22.649  14.849
58456W        W20119  21.185  20.154   3.367
58457W        W20120  40.468   8.728   2.877
58458W        W20121  11.212  26.589  13.925
58459W        W20122   0.465  12.810  10.614
58460W        W20123   7.837  27.975   1.738
58461W        W20124  35.908  28.662   3.840
58462W        W20125  39.525  15.087  13.041
58463W        W20126  23.097  20.237   1.425
58464W        W20127   8.678  18.209  11.598
58465W        W20128  11.768  32.906   3.725
58466W        W20129  36.911  30.577   1.918
58467W        W20130  34.067  23.103  11.573
58468W        W20131   3.441   7.294  11.872
58469W        W20132  35.004   1.377   1.305
58470W        W20133  11.795  44.486   2.896
58471W        W20134   7.759  23.571   3.702
58472W        W20135  24.647   3.821   0.769
58473W        W20136  35.428  34.878   3.816
58474W        W20137  39.411   2.238  12.998
58475W        W20138   6.864  15.197  14.806
58476W        W20139   8.401  16.652  14.427
58477W        W20140  35.589  43.945  13.864
58478W        W20141  19.167  35.989   4.177
58479W        W20142  42.526  21.206   0.360
58480W        W20143   7.209   9.785   4.218
58481W        W20144  14.594  21.026  14.988
58482W        W20145   1.250   9.336   2.856
58483W        W20146  34.521  30.007  13.446
58484W        W20147  23.006  39.489   0.267
58485W        W20148  14.750  26.101  12.936
58486W        W20149   2.814  21.749  14.283
58487W        W20150  19.220  33.132   2.777
58488W        W20151  23.542   0.386   4.834
58489W        W20152   8.225   4.858   2.817
58490W        W20153  13.338   2.246   0.309
58491W        W20154   5.776  16.708   2.854
58492W        W20155  35.364  39.454  12.556
58493W        W20156  23.713  33.571   1.874
58494W        W20157  34.956  21.099  12.488
58495W        W20158  25.109   5.759  11.903
58496W        W20159  15.230  35.533   2.710
58497W        W20160  34.525  40.923   1.887
58498W        W20161  12.234   6.424  13.419
58499W        W20162  19.248  39.390  11.593
58500W        W20163  16.641  41.508  11.982
58501W        W20164  16.188   6.833   3.717
58502W        W20165  32.121  14.611  10.629
58503W        W20166  40.940  34.972   4.176
58504W        W20167  41.448  21.129   1.884
58505W        W20168  26.173  15.649  14.950
58506W        W20169  19.659  11.250   4.242
58507W        W20170  31.493  12.126   1.895
58508W        W20171  42.800  28.654   2.784
58509W        W20172  19.262  19.754  12.357
58510W        W20173  34.468  42.003   4.746
58511W        W20174   2.440  18.204  12.419
58512W        W20175  35.404   7.780   1.302
58513W        W20176  26.107  32.424  14.297
58514W        W20177  27.561  43.396   0.946
58515W        W20178  26.086   1.848   1.329
58516W        W20179   3.889  13.199   4.279
58517W        W20180  28.987   4.439  11.106
58518W        W20181   1.309  42.295  13.399
58519W        W20182  28.152  33.498  11.067
58520W        W20183   0.828   1.453  14.281
58521W        W20184  18.594   5.860   0.393
58522W        W20185  10.873   7.351   2.896
58523W        W20186  36.531   3.242   1.332
58524W        W20187  42.430  23.517   3.362
58525W        W20188  13.728  43.818   4.741
58526W        W20189  31.585  15.247   3.859
58527W        W20190  43.940  27.124   3.367
58528W        W20191   3.848   6.272  12.067
58529W        W20192  14.172  18.790   1.226
58530W        W20193  10.328  17.798   0.382
58531W        W20194  28.453   5.433   2.896
58532W        W20195   7.860   7.371  10.142
58533W        W20196  38.907  37.978   3.650
58534W        W20197  39.966  24.186   3.842
58535W        W20198  28.977  36.378  12.952
58536W        W20199  15.731  16.284   4.644
58537W        W20200  16.727  21.230  12.396
58538W        W20201  21.727  40.327   2.695
58539W        W20202  13.836  20.662   3.191
58540W        W20203  12.340  22.083   2.248
58541W        W20204  37.438  41.816   3.297
58542W        W20205   2.358  17.668  12.351
58543W        W20206  21.643  19.137  13.917
58544W        W20207   4.883  34.976  14.402
58545W        W20208  19.058  36.562   2.359
58546W        W20209  12.299   6.798   2.802
58547W        W20210  16.244  35.573   2.669
58548W        W20211  13.174  28.512  12.067
58549W        W20212  17.218  35.442  12.531
58550W        W20213  40.947  24.098  10.421
58551W        W20214  18.661  15.787  12.844
58552W        W20215   1.864   3.403   2.874
58553W        W20216   5.885  26.162   0.266
58554W        W20217   1.457   7.763   3.321
58555W        W20218  26.182  32.991  11.956
58556W        W20219  43.999   3.790   2.736
58557W        W20220  13.827  18.755   1.857
58558W        W20221   8.233   8.694   0.474
58559W        W20222   9.880  38.042   3.680
58560W        W20223  35.509   1.237  10.965
58561W        W20224   2.250  20.158   2.704
58562W        W20225  43.890  17.767   0.768
58563W        W20226  25.630  15.814  12.545
58564W        W20227  24.498   1.429   1.920
58565W        W20228   4.929  11.771  12.491
58566W        W20229  42.494  18.237  11.589
58567W        W20230  41.336  41.327   1.332
58568W        W20231   3.383  15.730  13.399
58569W        W20232   6.194  43.971  12.346
58570W        W20233   4.359  16.168  12.961
58571W        W20234  17.738  24.109  10.976
58572W        W20235  44.866   1.774   0.945
58573W        W20236  40.494  40.478  13.942
58574W        W20237  34.540  17.173   3.270
58575W        W20238  38.568   2.782  12.070
58576W        W20239  27.678  27.671   1.413
58577W        W20240  27.680  34.078   4.740
58578W        W20241  12.737   3.758   0.815
58579W        W20242  19.709   9.344   1.378
58580W        W20243   7.291  19.665   0.351
58581W        W20244   2.303  27.140  11.562
58582W        W20245  14.650   5.718  10.916
58583W        W20246  33.495   3.747   1.239
58584W        W20247  40.988   1.350   1.728
58585W        W20248  34.593  19.716  12.885
58586W        W20249  35.863  19.574   4.124
58587W        W20250  27.174  29.511   1.216
58588W        W20251  10.791  36.027   1.796
58589W        W20252  41.537  23.007   3.309
58590W        W20253  20.541  35.372  13.976
58591W        W20254  16.750  18.642   2.732
58592W        W20255   6.344   7.817  14.417
58593W        W20256  14.601   9.302   4.653
58594W        W20257  40.922  15.246  11.575
58595W        W20258  25.543   8.679   2.663
58596W        W20259  43.274   2.929   4.725
58597W        W20260  36.914  12.205   0.451
58598W        W20261  14.691  10.678  13.434
58599W        W20262   1.907  28.540  14.370
58600W        W20263  35.505   9.389   3.776
58601W        W20264   9.803  21.040   4.217
58602W        W20265   6.912  11.771   0.772
58603W        W20266  23.652  41.516  12.049
58604W        W20267  17.161  41.404   4.157
58605W        W20268   6.427  36.841  13.476
58606W        W20269  29.142  16.144  14.488
58607W        W20270  38.462   0.895  12.879
58608W        W20271  15.189   6.707  10.554
58609W        W20272   2.405  24.670  14.326
58610W        W20273  40.427  25.137  12.535
58611W        W20274  15.674  38.396   4.245
58612W        W20275  33.467  40.896  10.082
58613W        W20276  18.671  35.910   2.838
58614W        W20277  10.307  26.673   4.293
58615W        W20278  12.315  21.628  13.959
58616W        W20279  29.434  17.647   4.681
58617W        W20280  15.173  22.006  10.586
58618W        W20281  10.812  39.362   3.257
58619W        W20282  14.313  38.511   4.313
58620W        W20283  31.970  31.561  10.486
58621W        W20284  37.859  34.084  10.434
58622W        W20285  14.332   5.719  10.120
58623W        W20286  12.141  25.217  10.495
58624W        W20287  13.647   7.251   2.783
58625W        W20288  31.987   5.345  11.085
58626W        W20289   5.731  32.036  13.953
58627W        W20290  21.650   3.218  12.345
58628W        W20291  44.442  43.477  14.881
58629W        W20292  14.808  31.058   1.272
58630W        W20293  18.735  14.650  12.361
58631W        W20294  31.577   2.232   2.367
58632W        W20295  43.413  28.975  13.870
58633W        W20296  11.245  27.461   3.745
58634W        W20297  21.194  42.324   1.385
58635W        W20298  27.069  12.842  11.584
58636W        W20299  36.399  14.131   1.407
58637W        W20300  35.868  11.672  13.011
58638W        W20301   0.384   4.725  10.485
58639W        W20302   0.374   2.361   0.737
58640W        W20303   3.254  40.332   4.259
58641W        W20304  24.641  40.405  13.482
58642W        W20305  43.784  34.559  12.441
58643W        W20306   7.694  26.093   0.799
58644W        W20307  23.728   1.325   2.799
58645W        W20308  15.760  43.977  10.907
58646W        W20309  40.994   1.969   4.713
58647W        W20310  15.791  29.630  12.352
58648W        W20311  30.136   6.894  12.034
58649W        W20312  37.004  40.886  11.950
58650W        W20313  33.119  38.488   1.743
58651W        W20314  33.616  19.096  14.780
58652W        W20315  21.193   5.415  10.974
58653W        W20316   4.418   0.332  14.509
58654W        W20317  21.668  28.048   1.896
58655W        W20318  22.567  13.831  12.899
58656W        W20319  38.403  43.860   0.787
58657W        W20320  14.306  37.989   4.129
58658W        W20321   3.328  40.417   2.706
58659W        W20322   9.290  29.931  11.112
58660W        W20323  13.230   1.839  11.592
58661W        W20324  28.977  14.123  14.305
58662W        W20325  21.177  27.953  14.507
58663W        W20326   1.928  11.200  12.539
58664W        W20327  13.340  31.574  13.448
58665W        W20328  13.653  18.227   4.284
58666W        W20329  25.706  18.197  11.434
58667W        W20330  23.634  11.268   3.351
58668W        W20331   6.844  43.423  12.940
58669W        W20332  37.033  19.655   2.377
58670W        W20333  31.632  24.644   4.812
58671W        W20334  28.039  31.071  10.937
58672W        W20335  33.001  15.201  14.764
58673W        W20336  30.518  42.962   1.890
58674W        W20337  20.759   3.883   2.321
58675W        W20338  29.148  43.810   3.245
58676W        W20339  21.755   9.348   4.324
58677W        W20340  41.835  28.440   4.150
58678W        W20341   6.796  20.526   2.307
58679W        W20342  15.157  17.091  12.887
58680W        W20343  25.054  43.333   2.765
58681W        W20344  11.235  37.556   4.338
58682W        W20345  21.110   8.805  12.343
58683W        W20346  30.475  16.092  13.465
58684W        W20347  32.559  18.768  13.891
58685W        W20348   4.853  38.431   4.311
58686W        W20349  38.505  20.122  11.009
58687W        W20350   4.418  26.651   0.417
58688W        W20351  32.068  11.685  13.343
58689W        W20352  27.487  16.260   0.916
58690W        W20353  22.147  38.505   4.196
58691W        W20354  42.942  28.580   1.741
58692W        W20355  34.025  24.131  11.887
58693W        W20356  31.506  21.244  13.422
58694W        W20357  27.998  43.822   1.865
58695W        W20358   1.896  22.674   1.780
58696W        W20359  40.378  24.083   0.472
58697W        W20360  41.515  17.777  13.403
58698W        W20361  39.495  42.448  13.366
58699W        W20362  15.232  32.889   3.745
58700W        W20363  30.486  12.355   4.205
58701W        W20364  35.445  18.169   4.599
58702W        W20365   5.236   5.369   1.374
58703W        W20366  32.036  23.642  14.486
58704W        W20367  12.747  12.262   4.349
58705W        W20368   3.233  40.453   1.312
58706W        W20369  30.518  33.113   2.801
58707W        W20370  24.005  33.086  10.495
58708W        W20371  22.643  14.729   1.776
58709W        W20372  40.401   4.228   0.285
58710W        W20373   8.358  30.656  12.414
58711W        W20374   9.307  34.876   2.250
58712W        W20375  12.853   7.406  11.039
58713W        W20376  19.101   0.904   4.204
58714W        W20377  41.036   3.327  14.009
58715W        W20378  22.525  16.739   4.651
58716W        W20379  30.071  44.321  12.935
58717W        W20380  24.712  17.160  13.317
58718W        W20381  41.398  21.582  14.318
58719W        W20382  11.650  37.450   2.787
58720W        W20383  34.403  31.448  14.870
58721W        W20384   8.254  39.883   1.227
58722W        W20385  21.720  41.960   3.674
58723W        W20386  22.128  21.209   3.286
58724W        W20387  21.102  10.165   4.790
58725W        W20388  37.578  38.909   5.246
58726W        W20389   4.841  35.559  13.336
58727W        W20390  15.149  11.159   2.678
58728W        W20391  34.094  34.043   2.302
58729W        W20392   1.260  11.339   0.461
58730W        W20393  23.056  31.516  13.382
58731W        W20394  25.105  15.189  14.342
58732W        W20395   0.980  43.019   3.371
58733W        W20396  25.060  30.120  10.458
58734W        W20397  12.793  34.558   4.220
58735W        W20398  30.055  19.175  11.950
58736W        W20399  16.172  13.289  13.469
58737W        W20400  14.222  14.609   2.323
58738W        W20401  40.865  31.525  11.938
58739W        W20402  11.817  14.147   3.356
58740W        W20403  23.528  37.438  13.938
58741W        W20404  43.958  31.988   0.810
58742W        W20405  34.014  15.179   0.825
58743W        W20406  21.630  22.171  14.315
58744W        W20407  32.627  15.148   0.310
58745W        W20408  23.066  38.051   2.730
58746W        W20409  35.567  40.365  14.419
58747W        W20410  23.635  28.503   2.888
58748W        W20411  22.518  29.635   4.302
58749W        W20412   1.929  41.902   2.302
58750W        W20413  36.901  24.681   4.738
58751W        W20414   2.404  27.474   0.392
58752W        W20415  16.573  37.429   0.421
58753W        W20416  14.233  23.519  11.551
58754W        W20417   2.367  44.447   2.750
58755W        W20418  34.525  32.024  11.980
58756W        W20419  10.190   6.738   3.366
58757W        W20420  34.553  39.934  13.929
58758W        W20421  30.621   7.694   1.354
58759W        W20422   2.444  37.477  13.017
58760W        W20423   2.267  36.410  11.434
58761W        W20424  34.489   9.760  12.047
58762W        W20425  44.281  31.533  12.507
58763W        W20426   7.417  25.186  14.282
58764W        W20427  17.780  42.506   4.286
58765W        W20428   9.820   8.733  14.283
58766W        W20429  27.181  39.056  12.363
58767W        W20430   5.279  10.658  10.415
58768W        W20431   1.384  15.234  14.992
58769W        W20432  25.587  12.164  13.357
58770W        W20433  43.006   9.709   1.885
58771W        W20434  18.770  21.194  10.903
58772W        W20435  30.430  26.535   2.316
58773W        W20436  13.154   2.962  13.475
58774W        W20437  32.475  39.526  14.302
58775W        W20438   2.896  22.706  10.993
58776W        W20439  19.690  13.749   1.447
58777W        W20440   3.892   7.384  14.815
58778W        W20441  14.613  33.524   4.327
58779W        W20442  13.701   2.277   2.394
58780W        W20443  24.065  22.707  12.351
58781W        W20444  15.740   4.347   1.426
58782W        W20445  24.613  17.638  10.911
58783W        W20446   4.298  15.285  12.512
58784W        W20447  34.457  34.055   0.396
58785W        W20448  18.732  43.290  11.429
58786W        W20449  33.451   5.260   3.291
58787W        W20450  36.555  11.132  12.966
58788W        W20451  14.292  38.819   0.842
58789W        W20452  39.838  24.647  11.917
58790W        W20453  21.739  10.212  13.975
58791W        W20454  43.414   1.441  13.015
58792W        W20455   7.247  10.250  10.927
58793W        W20456  12.164   9.301  11.609
58794W        W20457   6.260  43.359   1.859
58795W        W20458   7.754   0.468   1.712
58796W        W20459  40.846  29.517  12.440
58797W        W20460  38.921  23.190  12.486
58798W        W20461  20.528  15.755   2.215
58799W        W20462  43.338  33.922   3.852
58800W        W20463  14.754  14.138   0.960
58801W        W20464  24.603  13.637   4.820
58802W        W20465   9.275  10.140  13.506
58803W        W20466  15.799  32.499  14.789
58804W        W20467  39.379  36.026  10.613
58805W        W20468  39.988  34.451   0.890
58806W        W20469  34.028  44.492   1.394
58807W        W20470  24.553  23.667   4.597
58808W        W20471   0.355  25.135   4.283
58809W        W20472  43.376   6.234   1.275
58810W        W20473  20.583   0.984  10.151
58811W        W20474  32.124   9.224  13.948
58812W        W20475  23.169  37.933   1.391
58813W        W20476  40.848  30.557   1.934
58814W        W20477  43.977  17.286  13.004
58815W        W20478  44.477  20.583   1.225
58816W        W20479  31.628  38.992   1.374
58817W        W20480  32.603  36.869   1.412
58818W        W20481  35.894  11.370  12.094
58819W        W20482  40.957  40.950  10.958
58820W        W20483  12.142  29.659   4.746
58821W        W20484  18.648  28.567   1.886
58822W        W20485   9.787  36.544  10.404
58823W        W20486   8.331  21.562   4.213
58824W        W20487   0.260  12.300   4.145
58825W        W20488  18.064  33.504   2.744
58826W        W20489  28.516  34.092  13.878
58827W        W20490   9.155  23.672   4.760
58828W        W20491   6.693   4.883   2.308
58829W        W20492  43.003  16.105   4.207
58830W        W20493  44.001  43.012  14.019
58831W        W20494  18.131  36.969   3.376
58832W        W20495  13.105  43.979   4.676
58833W        W20496  10.235  26.179  10.623
58834W        W20497  37.974   2.811   3.155
58835W        W20498  33.464  42.999  13.318
58836W        W20499   5.424  18.186  13.487
58837W        W20500  24.199  22.709   0.376
58838W        W20501  29.013  26.672   2.263
58839W        W20502  38.860  44.978   0.904
58840W        W20503  29.984  42.362   2.409
58841W        W20504   6.382  18.707  11.097
58842W        W20505  23.051  14.314   4.708
58843W        W20506   9.668  40.309  11.528
58844W        W20507  31.463   7.387   3.836
58845W        W20508  19.573   9.756   1.694
58846W        W20509  20.090  33.061  11.040
58847W        W20510  28.515   1.247  10.632
58848W        W20511   4.287  35.377  13.860
58849W        W20512  19.071   8.762   2.394
58850W        W20513  36.894  12.624   1.294
58851W        W20514  41.510  25.542  11.930
58852W        W20515  23.500  33.519   1.340
58853W        W20516  23.623   8.183  12.435
58854W        W20517  21.077  27.044   1.760
58855W        W20518   0.484  39.981   2.392
58856W        W20519  22.079  22.581  11.477
58857W        W20520  20.180  31.433  13.903
58858W        W20521   0.425   3.297   4.126
58859W        W20522  20.663  33.537   1.439
58860W        W20523  38.480  10.338   0.431
58861W        W20524  12.649  42.816  12.825
58862W        W20525  43.386   4.246   3.833
58863W        W20526  36.867  30.535  10.980
58864W        W20527  32.476   6.276   9.945
58865W        W20528  24.555  27.158   2.862
58866W        W20529  25.659  36.950   1.716
58867W        W20530  20.270  23.147   0.733
58868W        W20531  38.921  34.514  12.039
58869W        W20532   7.801  29.054  14.398
58870W        W20533   7.371  31.919  10.901
58871W        W20534  19.645  38.541  13.449
58872W        W20535  11.171  37.025  12.384
58873W        W20536   2.920  41.849   2.200
58874W        W20537  16.098  33.587   1.876
58875W        W20538  44.937  35.431   0.478
58876W        W20539  33.124  23.190   1.370
58877W        W20540  30.059   1.839   3.764
58878W        W20541  10.290   3.931  13.964
58879W        W20542  14.714  21.096  12.983
58880W        W20543  13.280   8.745  11.470
58881W        W20544   0.924  18.624  10.523
58882W        W20545   9.179  43.393   0.272
58883W        W20546  30.544  21.064   4.162
58884W        W20547   8.806  10.829   2.890
58885W        W20548  24.126  31.431  11.073
58886W        W20549  35.555  30.159  10.440
58887W        W20550  20.744   5.816   3.663
58888W        W20551  42.896  23.577   4.319
58889W        W20552   7.825   2.263   1.700
58890W        W20553  38.881  19.173  11.541
58891W        W20554  32.931  29.458  11.612
58892W        W20555   9.360  17.178  11.875
58893W        W20556  26.976  40.978  13.332
58894W        W20557   2.816  34.992  10.994
58895W        W20558   3.774  12.339   2.790
58896W        W20559  33.520  26.095   1.410
58897W        W20560   5.312  40.932   2.716
58898W        W20561  18.593   1.881  11.935
58899W        W20562  33.604  12.707  11.066
58900W        W20563  14.655  26.604  10.080
58901W        W20564  40.869  37.063   4.267
58902W        W20565  20.559  22.020   0.738
58903W        W20566  44.454  27.025  11.377
58904W        W20567  11.196   9.859   3.288
58905W        W20568  29.474  14.808  14.455
58906W        W20569  39.017  37.577  11.574
58907W        W20570  40.348  28.507   3.869
58908W        W20571  19.563   7.911  13.984
58909W        W20572   6.850   7.366   1.926
58910W        W20573  34.072  19.770  10.941
58911W        W20574  37.951  18.687   2.391
58912W        W20575  18.050  13.682   9.492
58913W        W20576   8.279  19.648   2.807
58914W        W20577  11.226   6.696   4.642
58915W        W20578  22.568  43.300  10.482
58916W        W20579   9.646  11.346  11.957
58917W        W20580  35.010  11.214   3.785
58918W        W20581  34.962  21.574   2.701
58919W        W20582  19.760  28.555  13.849
58920W        W20583  35.413  34.432  11.505
58921W        W20584  34.554  32.088  13.797
58922W        W20585  25.107  35.859   0.740
58923W        W20586  12.708   7.220  12.989
58924W        W20587  12.345   9.190   3.699
58925W        W20588  32.551  12.142   2.778
58926W        W20589  35.919  36.957  12.560
58927W        W20590   6.200  33.504  11.965
58928W        W20591  18.090  31.438  11.957
58929W        W20592   8.355  27.028  12.983
58930W        W20593  29.598  30.011   3.262
58931W        W20594   9.873   6.311  12.531
58932W        W20595  20.729  26.076  11.395
58933W        W20596   0.969  12.687   4.691
58934W        W20597   1.310  13.644   2.222
58935W        W20598  32.561  18.213   2.808
58936W        W20599  37.510  35.957   1.446
58937W        W20600  29.655  40.942  12.845
58938W        W20601  27.616  37.493  11.930
58939W        W20602  36.097  42.493  12.853
58940W        W20603  30.088  15.815  13.499
58941W        W20604  16.196  39.896  14.008
58942W        W20605  31.112   5.422  11.581
58943W        W20606   2.836  28.572  10.566
58944W        W20607  26.032  40.816   2.759
58945W        W20608  40.428  40.032  14.444
58946W        W20609  36.557   5.301  12.502
58947W        W20610  24.709  36.592  12.438
58948W        W20611   7.205  37.346  12.379
58949W        W20612  19.707  24.501   4.204
58950W        W20613  37.848  23.691  11.514
58951W        W20614  31.521  27.034  10.940
58952W        W20615  29.028  24.023  14.846
58953W        W20616   5.387  14.717  10.513
58954W        W20617  42.443  30.161  14.765
58955W        W20618  43.292   7.713   0.895
58956W        W20619  28.026  36.441   3.700
58957W        W20620  14.781  23.148   0.760
58958W        W20621  25.559  37.530  14.496
58959W        W20622  28.534  19.086  10.916
58960W        W20623   5.432  27.571  12.056
58961W        W20624  44.824  37.973  11.432
58962W        W20625   6.828  28.974  14.326
58963W        W20626  19.540  24.490   3.630
58964W        W20627  19.690  43.801  12.555
58965W        W20628   4.816   3.762  10.591
58966W        W20629   8.848  33.547  14.366
58967W        W20630  34.448  26.549   0.335
58968W        W20631   7.317  33.932   4.808
58969W        W20632   7.678  33.108  14.419
58970W        W20633  42.910  44.993   3.262
58971W        W20634  40.890   9.685  13.317
58972W        W20635  33.055  30.585   3.312
58973W        W20636  31.480  19.185   3.169
58974W        W20637  41.521  24.641  13.447
58975W        W20638  34.397  13.748   0.927
58976W        W20639   3.749   9.647   1.445
58977W        W20640  27.531  38.996   1.805
58978W        W20641  41.305   1.921   1.407
58979W        W20642  30.017  31.607  13.425
58980W        W20643  44.860  25.078  11.968
58981W        W20644  14.725  44.353   4.246
58982W        W20645  36.387   3.460  12.978
58983W        W20646  14.252   5.349  13.055
58984W        W20647  38.330  13.676  13.037
58985W        W20648   4.913  17.134  14.784
58986W        W20649  20.053   3.314   1.835
58987W        W20650  27.096  31.517   3.712
58988W        W20651   4.769  27.668  10.933
58989W        W20652  28.126   5.884   1.791
58990W        W20653  10.812  17.651   0.869
58991W        W20654  18.271  36.533   4.199
58992W        W20655   8.387  34.981  14.801
58993W        W20656  37.830  30.151  12.079
58994W        W20657  36.371  36.556   0.906
58995W        W20658  25.692  33.525  11.517
58996W        W20659  19.717  42.393   3.787
58997W        W20660   7.253  33.012   2.289
58998W        W20661   6.821   1.366  13.913
58999W        W20662   6.211  34.075   4.323
59000W        W20663   2.767  37.495  10.438
59001W        W20664  42.902  12.298  14.497
59002W        W20665  27.193  23.149   4.295
59003W        W20666  41.953  24.511   1.709
59004W        W20667  13.697  30.111  13.375
59005W        W20668   3.413   3.252   4.266
59006W        W20669   4.834  25.664  11.871
59007W        W20670  15.194  40.877   0.903
59008W        W20671  21.188   2.846   1.252
59009W        W20672  43.996  26.166  14.803
59010W        W20673  24.532  17.303  11.488
59011W        W20674  44.413   2.454  11.012
59012W        W20675  44.313  10.779  12.521
59013W        W20676  43.949   3.940   0.729
59014W        W20677   9.865  18.106  11.121
59015W        W20678  10.270   0.963   5.252
59016W        W20679  41.025   3.437  14.329
59017W        W20680  31.546  21.651   2.178
59018W        W20681   5.907   4.285   0.430
59019W        W20682  22.703  13.256  13.847
59020W        W20683  16.623  12.687  10.897
59021W        W20684  18.247  18.238  11.855
59022W        W20685  19.579  34.051  10.435
59023W        W20686   5.820  13.685  14.902
59024W        W20687  39.043  26.169  11.458
59025W        W20688  44.492  31.479  10.140
59026W        W20689  11.355  28.636   1.448
59027W        W20690   9.875  31.498  10.956
59028W        W20691  34.615  40.526  10.613
59029W        W20692  26.697  10.253  12.357
59030W        W20693   6.705  22.082  10.577
59031W        W20694  36.399   4.941   2.390
59032W        W20695   6.698   7.271  11.022
59033W        W20696  26.566  16.603  12.424
59034W        W20697  36.528  43.974  12.849
59035W        W20698  38.066  37.465   1.724
59036W        W20699  42.331   6.406   1.695
59037W        W20700  25.128  32.029   0.438
59038W        W20701  18.098   4.885  14.406
59039W        W20702   5.934  38.497  14.853
59040W        W20703  32.518  14.326  12.984
59041W        W20704  35.857  27.598   3.836
59042W        W20705  16.688  15.234   0.837
59043W        W20706   9.704  20.532  11.909
59044W        W20707  25.647  25.218  11.887
59045W        W20708  33.917  22.585  11.964
59046W        W20709  37.403   4.325   4.177
59047W        W20710   5.324  35.485  11.460
59048W        W20711  38.966   6.910  14.903
59049W        W20712  14.209  31.052   0.368
59050W        W20713  40.930  22.091   0.967
59051W        W20714  13.783  13.309  13.000
59052W        W20715  37.026  39.495  12.000
59053W        W20716  11.257  30.102  14.377
59054W        W20717  41.299   6.261   3.631
59055W        W20718  28.434  22.084  13.830
59056W        W20719  32.058   7.360   1.387
59057W        W20720  21.154   1.739  10.569
59058W        W20721   7.225   9.871   1.837
59059W        W20722   8.825   2.374  11.037
59060W        W20723  19.576  13.186   2.678
59061W        W20724  20.092  37.855   4.742
59062W        W20725   2.758   8.891  10.548
59063W        W20726   3.325   5.898  11.557
59064W        W20727  17.088  10.298   1.906
59065W        W20728  20.115  10.329  14.921
59066W        W20729  14.797  16.638   3.325
59067W        W20730  33.883   0.974  14.275
59068W        W20731  27.007  19.243  14.407
59069W        W20732  13.729  33.004  12.087
59070W        W20733  44.858   6.894   0.935
59071W        W20734  44.982  35.937  13.341
59072W        W20735  24.614   9.318   3.373
59073W        W20736  25.084   1.844   2.392
59074W        W20737  22.583  17.133   0.416
59075W        W20738  11.631  20.218  14.411
59076W        W20739   8.863  18.636  14.409
59077W        W20740  36.088  37.447  11.882
59078W        W20741   2.266  36.016  10.071
59079W        W20742  21.059  35.583   2.681
59080W        W20743  38.986  35.902  11.514
59081W        W20744  20.542  35.072  14.879
59082W        W20745  11.190  17.253   2.265
59083W        W20746  44.876  34.095  14.005
59084W        W20747   1.463  41.329  12.383
59085W        W20748  31.928  25.533  13.466
59086W        W20749  43.814  38.492   1.297
59087W        W20750   0.889   8.393   2.344
59088W        W20751   5.863   1.732   2.342
59089W        W20752  10.268  25.088  14.513
59090W        W20753  10.728  20.597  12.371
59091W        W20754   4.325   3.728   1.287
59092W        W20755  36.510   8.873   4.124
59093W        W20756  18.733  28.074   2.368
59094W        W20757  32.601   0.282   1.391
59095W        W20758  30.487   4.802   3.630
59096W        W20759  11.208  27.025  13.524
59097W        W20760  16.778  41.533   0.473
59098W        W20761  29.083  25.511   2.371
59099W        W20762  44.916   6.368  14.506
59100W        W20763  38.511  43.886   3.711
59101W        W20764   6.816   2.267  13.505
59102W        W20765   0.836   2.406  10.638
59103W        W20766  43.923  42.934  10.578
59104W        W20767  34.389  21.020  13.903
59105W        W20768  18.177  27.688   2.319
59106W        W20769   7.710  35.379   0.410
59107W        W20770  35.534  19.597  12.018
59108W        W20771  41.420  19.563  10.936
59109W        W20772  40.543  24.028   1.240
59110W        W20773  30.983   6.258   5.247
59111W        W20774  41.367  21.678   4.706
59112W        W20775  21.056  23.545  10.561
59113W        W20776  37.433  33.543   1.383
59114W        W20777  36.516  19.646  10.992
59115W        W20778  15.705   5.741   0.928
59116W        W20779   0.931  31.071  11.021
59117W        W20780  16.244   7.229   2.268
59118W        W20781  30.604  34.086  14.426
59119W        W20782   1.854   9.842  10.550
59120W        W20783  33.404   0.433  14.797
59121W        W20784  11.803   0.390  12.492
59122W        W20785  34.050  37.986   2.255
59123W        W20786  18.610  44.934  13.873
59124W        W20787   4.861  25.082   3.249
59125W        W20788  21.256  23.618   4.698
59126W        W20789  12.844  21.673  10.504
59127W        W20790   8.674  39.858   2.772
59128W        W20791  33.494  26.548   1.794
59129W        W20792  25.617  20.161  10.579
59130W        W20793  20.579  22.720   2.743
59131W        W20794  29.427   9.832   4.820
59132W        W20795  28.001  39.958  11.111
59133W        W20796   7.243   9.772  12.084
59134W        W20797  35.071   2.900   2.196
59135W        W20798  35.492  14.313  14.810
59136W        W20799  15.622  34.969   1.928
59137W        W20800   9.251   6.692  12.509
59138W        W20801  29.941  20.705   4.220
59139W        W20802  27.089  29.012   3.683
59140W        W20803  23.535  36.592  13.510
59141W        W20804  21.122  15.296  12.915
59142W        W20805  28.637  35.997  12.432
59143W        W20806  35.421  28.081   2.696
59144W        W20807  42.330  19.117   0.879
59145W        W20808  15.299  34.107  13.934
59146W        W20809   3.348   8.739   5.240
59147W        W20810  26.679  36.970   2.334
59148W        W20811  14.645  40.842  10.543
59149W        W20812   3.885   6.216  13.959
59150W        W20813   7.225  30.484   1.426
59151W        W20814   0.466  25.501   4.351
59152W        W20815  24.162   0.892   0.792
59153W        W20816  19.604  21.260  11.056
59154W        W20817  42.981  41.931   1.913
59155W        W20818  13.719  14.622   1.265
59156W        W20819  21.144  15.787   3.643
59157W        W20820  44.944  12.207   1.340
59158W        W20821  13.758   9.196  14.846
59159W        W20822   9.367   9.718  13.930
59160W        W20823  31.006  22.746  13.955
59161W        W20824  14.141  39.320   1.698
59162W        W20825  43.297  11.265  10.618
59163W        W20826  12.844  42.326   3.718
59164W        W20827  35.481  40.967   2.794
59165W        W20828  12.668  35.547  13.875
59166W        W20829  30.454   5.843   4.151
59167W        W20830   0.761   8.743  10.640
59168W        W20831  19.773   3.765  13.355
59169W        W20832   8.386   4.798   4.347
59170W        W20833  36.883   3.215  12.038
59171W        W20834  42.815  31.018  12.531
59172W        W20835   9.174  24.114  12.341
59173W        W20836  30.487   3.220  10.976
59174W        W20837   3.330  36.896   4.643
59175W        W20838   0.276  42.854  13.810
59176W        W20839  43.477  13.712  12.840
59177W        W20840  30.028  17.690   4.722
59178W        W20841  37.567  43.954  13.035
59179W        W20842  25.472  22.236  14.954
59180W        W20843   2.227  19.277   2.289
59181W        W20844  27.609  30.018   4.303
59182W        W20845  15.324   5.222   3.674
59183W        W20846  13.204  21.585   4.690
59184W        W20847  39.821  28.622  10.461
59185W        W20848   5.299  27.057   2.791
59186W        W20849  24.689  27.687   9.999
59187W        W20850  39.929  21.020   2.402
59188W        W20851  16.770  34.879  11.539
59189W        W20852  20.138  38.543   4.681
59190W        W20853   2.259  36.842  11.913
59191W        W20854  16.181   9.237  12.018
59192W        W20855   9.719  28.137  14.893
59193W        W20856  11.814   6.411   2.308
59194W        W20857  26.127  37.502   0.765
59195W        W20858  31.082  16.576  13.366
59196W        W20859  24.003  30.610   1.700
59197W        W20860  37.918  24.517   0.870
59198W        W20861  32.437  36.486  12.420
59199W        W20862  40.893  44.348  10.485
59200W        W20863  10.638  18.606  10.957
59201W        W20864  24.041  40.338   1.921
59202W        W20865  12.705  12.216   3.164
59203W        W20866  44.370  34.972  10.922
59204W        W20867  35.086  43.374   1.769
59205W        W20868  24.691  26.177   0.412
59206W        W20869   8.328  40.480  11.093
59207W        W20870   3.332  12.121  14.385
59208W        W20871  23.095   6.376  10.560
59209W        W20872  20.642  19.779   2.376
59210W        W20873   5.427  22.717  10.609
59211W        W20874   2.796   4.733   4.722
59212W        W20875  11.296  40.004  12.848
59213W        W20876  37.897  19.156   1.388
59214W        W20877  44.972   4.353   3.669
59215W        W20878   4.427  15.721   4.792
59216W        W20879  35.517  34.999  12.945
59217W        W20880   2.939  31.051  12.913
59218W        W20881  25.173  21.116  12.970
59219W        W20882  34.577  43.896   1.921
59220W        W20883  19.673  30.466  12.890
59221W        W20884  18.199  43.478  13.445
59222W        W20885  35.054  27.109  13.047
59223W        W20886  31.148  34.572   4.765
59224W        W20887   9.783  30.439   3.796
59225W        W20888  15.667   8.828   4.211
59226W        W20889  15.235  29.981  14.288
59227W        W20890   0.768  24.178   1.743
59228W        W20891  40.483  43.376  14.934
59229W        W20892  40.357  23.073  10.968
59230W        W20893  37.018   0.914  14.304
59231W        W20894  19.134  15.229  13.995
59232W        W20895  41.426  16.627   4.337
59233W        W20896  19.196  11.758   0.442
59234W        W20897   4.872  15.226   0.864
59235W        W20898  37.444  14.180  11.481
59236W        W20899  28.034  24.134   0.358
59237W        W20900  26.481  37.543   0.339
59238W        W20901  22.551  34.960  14.772
59239W        W20902   9.316  38.450   0.478
59240W        W20903   6.767   1.785  12.366
59241W        W20904  43.977   9.838  14.358
59242W        W20905   6.390  21.682  11.877
59243W        W20906  41.452  12.361   4.147
59244W        W20907  30.164  16.704  13.504
59245W        W20908   5.804  38.846   3.170
59246W        W20909  38.412  15.760  13.445
59247W        W20910  31.148  29.956   1.706
59248W        W20911  32.503   9.779  12.514
59249W        W20912  30.519  32.564   3.347
59250W        W20913   8.407   8.239  10.908
59251W        W20914  30.948  14.655   2.353
59252W        W20915  16.211   2.756  13.939
59253W        W20916  44.332  28.456   4.780
59254W        W20917   9.691  23.680  11.041
59255W        W20918   1.246   7.909  12.354
59256W        W20919  12.777  11.705  13.336
59257W        W20920   2.347  15.780   0.895
59258W        W20921   2.274   8.209  14.975
59259W        W20922   0.835  39.413  11.929
59260W        W20923  23.729  32.121  11.419
59261W        W20924  22.618   4.741   1.320
59262W        W20925  13.661  36.037  11.605
59263W        W20926  44.485  15.121   4.183
59264W        W20927   8.711  42.864  13.411
59265W        W20928  23.091   4.207   1.310
59266W        W20929  42.384  30.547  12.454
59267W        W20930  12.303   8.197  14.363
59268W        W20931  12.727  40.395  14.513
59269W        W20932  37.455  32.071   3.177
59270W        W20933  29.603  16.301   2.799
59271W        W20934  30.654   9.311   3.318
59272W        W20935  14.612  41.959   3.826
59273W        W20936  33.902  31.478   2.229
59274W        W20937   2.326   0.272   1.721
59275W        W20938   7.910  28.611   2.416
59276W        W20939  11.250  23.040  13.392
59277W        W20940  40.363  40.880   0.344
59278W        W20941  37.340  42.356   1.264
59279W        W20942  29.064   5.362   0.814
59280W        W20943  40.502  10.832   2.761
59281W        W20944  25.102  30.123   1.929
59282W        W20945  15.596  38.347   5.259
59283W        W20946  13.268  26.530   2.197
59284W        W20947   7.305  21.068  10.087
59285W        W20948  12.851  32.009   0.414
59286W        W20949   9.647  21.529   2.738
59287W        W20950  19.701  36.069  14.332
59288W        W20951   8.277  33.412   4.609
59289W        W20952   7.829  30.034  12.898
59290W        W20953  37.437  43.449   0.916
59291W        W20954  14.790  17.269  10.996
59292W        W20955  39.381  29.581   3.157
59293W        W20956   3.231   4.209  10.482
59294W        W20957  36.364   7.407   0.384
59295W        W20958   1.263  22.191  12.935
59296W        W20959  22.515   1.371  14.942
59297W        W20960  32.093   3.898  11.411
59298W        W20961  16.160  20.608  11.412
59299W        W20962  22.196  22.562   3.675
59300W        W20963  14.654   1.968  12.568
59301W        W20964  37.392  24.667  14.482
59302W        W20965  37.433  28.098   4.198
59303W        W20966  33.074  23.074  14.011
59304W        W20967  18.554  32.047   0.310
59305W        W20968   9.197   2.761  12.479
59306W        W20969   8.875   5.799  11.537
59307W        W20970   0.483  12.671   3.254
59308W        W20971  25.043  14.256   3.307
59309W        W20972   0.839  17.138   0.889
59310W        W20973  14.698  38.006   5.134
59311W        W20974   2.943  33.495   3.227
59312W        W20975  20.193  25.700   1.852
59313W        W20976  12.147  41.427   0.356
59314W        W20977  44.908  34.593   3.787
59315W        W20978  14.102   2.258  13.392
59316W        W20979  36.351  27.183   1.745
59317W        W20980  31.029  43.907   0.810
59318W        W20981  23.727  15.646   9.948
59319W        W20982  37.026  34.415   2.882
59320W        W20983   0.486   3.767  11.872
59321W        W20984  17.064  12.317  10.457
59322W        W20985  24.534   3.814  10.118
59323W        W20986  31.072  34.875  12.868
59324W        W20987   7.362  20.050  10.409
59325W        W20988  29.474  30.159   4.620
59326W        W20989  31.618  36.430  14.950
59327W        W20990  22.721  19.134   4.354
59328W        W20991  35.002  18.221  13.838
59329W        W20992  28.576   6.414   1.310
59330W        W20993  16.305  16.090   4.123
59331W        W20994  32.939  35.568  11.100
59332W        W20995  31.995  39.344   1.228
59333W        W20996  15.626  13.790   0.294
59334W        W20997  21.518  19.722  13.477
59335W        W20998  36.074  41.032  14.933
59336W        W20999  21.569   1.846  12.038
59337W        W21000  43.769  38.540   2.385
59338W        W21001  26.973   5.336  14.800
59339W        W21002  35.463  20.607  12.914
59340W        W21003  40.544  17.603  13.878
59341W        W21004  34.111  27.100   1.896
59342W        W21005  10.847  11.639   3.849
59343W        W21006  23.654  35.955   3.789
59344W        W21007  16.613  38.865  14.490
59345W        W21008   6.752  14.808  14.274
59346W        W21009  25.131  32.479   2.356
59347W        W21010  33.436  31.424   1.745
59348W        W21011  19.668  30.462  11.056
59349W        W21012   6.417  42.486   2.817
59350W        W21013  14.589  27.066   2.279
59351W        W21014  44.883  40.455   0.761
59352W        W21015  27.045  19.652  10.500
59353W        W21016  43.321  44.905   1.775
59354W        W21017  44.306   9.771   2.270
59355W        W21018   4.754  41.531   2.382
59356W        W21019  27.602  14.299  10.424
59357W        W21020   7.265   5.840   0.296
59358W        W21021  15.326   6.914  14.379
59359W        W21022  22.060  21.549  10.466
59360W        W21023   7.793  24.189  13.314
59361W        W21024  36.978  12.844  12.008
59362W        W21025   7.411   7.308   5.301
59363W        W21026   1.339   8.798   4.807
59364W        W21027  11.675  32.625   2.330
59365W        W21028  24.683  44.344   2.335
59366W        W21029  23.066  21.195  11.612
59367W        W21030  29.646   3.886   4.211
59368W        W21031  18.747   7.237  12.498
59369W        W21032  24.534   1.957  11.078
59370W        W21033   3.294   1.284  14.403
59371W        W21034  12.656  18.674   3.724
59372W        W21035  42.778  17.106  14.393
59373W        W21036  22.688   1.763  13.852
59374W        W21037  36.559  33.504  10.605
59375W        W21038  26.191  43.288   4.141
59376W        W21039  10.643  37.370   4.251
59377W        W21040  12.260  43.307   3.152
59378W        W21041  34.512  28.510  14.309
59379W        W21042  39.956  20.729   4.228
59380W        W21043  16.154  35.926  14.949
59381W        W21044  37.979  14.126  13.039
59382W        W21045  14.240  25.159   1.863
59383W        W21046   6.283  18.777  13.335
59384W        W21047  10.246   1.450   3.760
59385W        W21048  44.499  28.150   0.781
59386W        W21049  35.500  22.195   1.358
59387W        W21050  14.657   9.335  10.642
59388W        W21051  43.840  18.643  13.879
59389W        W21052  23.183   7.292  13.527
59390W        W21053  17.609  41.411   3.288
59391W        W21054  27.449  14.154  11.498
59392W        W21055   4.900  41.456  10.634
59393W        W21056   6.393   9.384  10.436
59394W        W21057  21.592  22.195  14.801
59395W        W21058  37.405  36.098  13.393
59396W        W21059   9.759  41.387   2.257
59397W        W21060   1.288   3.311   9.987
59398W        W21061  10.724  18.739   2.279
59399W        W21062  41.954  23.023   1.392
59400W        W21063  44.884  43.463   4.697
59401W        W21064  29.558  12.320   0.845
59402W        W21065  36.998  19.671  10.958
59403W        W21066  11.284   9.176   0.251
59404W        W21067   3.392  32.019  11.947
59405W        W21068  38.874  18.189  12.967
59406W        W21069  12.772  38.450  12.002
59407W        W21070  40.912  13.324  12.934
59408W        W21071   6.744   0.944   2.712
59409W        W21072   2.865   9.825   3.782
59410W        W21073  24.496  10.264   3.247
59411W        W21074  27.982  12.686  14.502
59412W        W21075   9.289  42.285   4.692
59413W        W21076  31.440  40.988   3.293
59414W        W21077  32.924  20.749   0.360
59415W        W21078  19.252   0.748   0.370
59416W        W21079   8.369  24.988  12.093
59417W        W21080   6.841  28.637   2.751
59418W        W21081   4.436  36.434  13.451
59419W        W21082  35.023  40.823   4.715
59420W        W21083   2.447  41.992   3.836
59421W        W21084   4.710  10.755   0.762
59422W        W21085  38.879  39.502  13.029
59423W        W21086  31.091   0.275  11.886
59424W        W21087  15.107  40.437  11.881
59425W        W21088  38.829   1.281  10.895
59426W        W21089  31.628  15.716   1.802
59427W        W21090  24.159  17.726  13.819
59428W        W21091   4.704  18.249   2.348
59429W        W21092  41.789   9.776   1.892
59430W        W21093  13.605  18.617  12.842
59431W        W21094   7.255  40.429  12.920
59432W        W21095  29.078  31.899   3.642
59433W        W21096  34.550   0.425   4.267
59434W        W21097  36.419   6.886  13.937
59435W        W21098  19.105  28.000   2.856
59436W        W21099  16.616  12.705   3.169
59437W        W21100  17.714   0.896   1.326
59438W        W21101   8.660  38.378  11.998
59439W        W21102   6.852  41.502   2.336
59440W        W21103  27.623   7.727   1.320
59441W        W21104   3.921  34.499  14.923
59442W        W21105  10.227  42.358   3.182
59443W        W21106  29.668  14.593   1.783
59444W        W21107  18.767  13.657  11.445
59445W        W21108  12.178   8.201   0.864
59446W        W21109   6.720  42.451   2.842
59447W        W21110  42.894  35.557  11.952
59448W        W21111  43.886   6.855  14.297
59449W        W21112   8.817  27.033  12.969
59450W        W21113  33.899   9.865  12.992
59451W        W21114  31.133  43.981   3.848
59452W        W21115  43.868  40.889  14.429
59453W        W21116  39.946  32.453   3.682
59454W        W21117  40.488  17.748   1.928
59455W        W21118  39.993  11.833   2.223
59456W        W21119  14.284  15.740   4.685
59457W        W21120  39.835   6.751  13.507
59458W        W21121  43.404  20.620   4.224
59459W        W21122  27.604  15.110   1.879
59460W        W21123  19.159  39.924  14.351
59461W        W21124   6.377  33.428   0.295
59462W        W21125  15.653  13.707  12.837
59463W        W21126   2.722  43.838   0.843
59464W        W21127  14.721  14.801  12.872
59465W        W21128  15.205  27.028   3.220
59466W        W21129  24.110  42.440   4.126
59467W        W21130  14.201  31.548  12.976
59468W        W21131  34.886   7.774  12.368
59469W        W21132  12.302   2.366   2.361
59470W        W21133  42.480  20.655   0.397
59471W        W21134  43.794   4.368   4.157
59472W        W21135  41.027  27.099   1.757
59473W        W21136   7.903  34.046  12.860
59474W        W21137  31.418   2.449   3.800
59475W        W21138  35.396   7.726  13.886
59476W        W21139  32.019   8.197  11.003
59477W        W21140  22.230  25.972   2.258
59478W        W21141   1.425   6.396   4.659
59479W        W21142  11.709  30.610  14.853
59480W        W21143  43.792  13.322   4.307
59481W        W21144   2.344  33.036  12.901
59482W        W21145  40.907   3.942  13.826
59483W        W21146  21.579  32.057   5.322
59484W        W21147  38.546   1.429   0.415
59485W        W21148  14.095   1.880  13.346
59486W        W21149  17.706  13.729  14.868
59487W        W21150  37.576  31.630   3.301
59488W        W21151  10.155  36.886  10.971
59489W        W21152   8.817  25.479   0.466
59490W        W21153  31.433   4.407  13.360
59491W        W21154  43.437  41.398   3.230
59492W        W21155  42.800  34.538   0.324
59493W        W21156  14.337  43.504  10.956
59494W        W21157  27.088   0.958  14.819
59495W        W21158  20.266  33.529   3.360
59496W        W21159  38.003  44.818   3.218
59497W        W21160  42.289  15.798  12.095
59498W        W21161  35.523   9.716   2.241
59499W        W21162  41.867  18.619   4.828
59500W        W21163  28.117  41.901   3.801
59501W        W21164  17.606  21.525   1.431
59502W        W21165  20.769  25.573  11.904
59503W        W21166   7.172  23.635  12.842
59504W        W21167  38.472   3.903  10.922
59505W        W21168  38.568  38.019   0.776
59506W        W21169  14.182  38.843   0.423
59507W        W21170  39.022  26.459   1.361
59508W        W21171  35.545  34.428  12.506
59509W        W21172  11.136   1.951   4.178
59510W        W21173  39.323  24.028  10.458
59511W        W21174  19.565  41.816  12.441
59512W        W21175  24.504  44.494  10.632
59513W        W21176   9.265  33.983   0.461
59514W        W21177  29.475  15.701  12.988
59515W        W21178   1.737  11.348  13.954
59516W        W21179  11.732  41.419  14.324
59517W        W21180  19.120  10.656   1.356
59518W        W21181  26.189  43.907   0.756
59519W        W21182  20.563  21.132  11.085
59520W        W21183  33.527   5.838   0.300
59521W        W21184  15.212  19.083  10.488
59522W        W21185  36.448  33.103  11.064
59523W        W21186  39.030  21.673   2.683
59524W        W21187  40.481  15.091   4.229
59525W        W21188   4.388  31.558  13.935
59526W        W21189  16.614  19.538  12.543
59527W        W21190  32.446   4.767   0.845
59528W        W21191   1.312  15.288  12.876
59529W        W21192  13.317  17.616  13.464
59530W        W21193   2.402  31.955  13.546
59531W        W21194  22.082  31.049   1.767
59532W        W21195  18.193  41.024   2.791
59533W        W21196  29.978  30.052  11.058
59534W        W21197  22.041  15.226   3.259
59535W        W21198  29.934  26.018  14.471
59536W        W21199  21.746  27.016  13.409
59537W        W21200  26.106   9.795   4.667
59538W        W21201   6.690  32.598  13.430
59539W        W21202  44.987  17.117  13.870
59540W        W21203  30.619  44.867   0.867
59541W        W21204  44.292   9.206  14.832
59542W        W21205  43.277  20.665   0.257
59543W        W21206   6.325  33.606   4.754
59544W        W21207   4.298   7.374   1.793
59545W        W21208  28.518  36.085   0.480
59546W        W21209  39.003  13.786  13.886
59547W        W21210   4.213  10.144  12.901
59548W        W21211  20.761   2.284   2.798
59549W        W21212  34.462  14.323   4.616
59550W        W21213  40.360  25.044   3.742
59551W        W21214   0.896  23.520   4.680
59552W        W21215  13.140   5.926   3.693
59553W        W21216  24.619  31.090  13.058
59554W        W21217  28.186  23.159   2.313
59555W        W21218  41.347  43.479  12.414
59556W        W21219  43.351  31.404  10.937
59557W        W21220  13.239  16.180   4.303
59558W        W21221  14.197  13.746   4.804
59559W        W21222  21.164  38.899   2.395
59560W        W21223  10.141  27.087  12.040
59561W        W21224   6.388   1.448  10.899
59562W        W21225  10.868  23.213   4.238
59563W        W21226  31.578   9.801  10.461
59564W        W21227  40.842   0.970   0.882
59565W        W21228  44.476  42.891  13.515
59566W        W21229  24.587   1.770   2.816
59567W        W21230  19.107   4.726  12.946
59568W        W21231  37.540  38.380  14.483
59569W        W21232  41.833  44.982  10.953
59570W        W21233  27.052  19.217  11.032
59571W        W21234  28.083  44.763   2.228
59572W        W21235  31.533  18.051  11.517
59573W        W21236  18.599  44.830   3.234
59574W        W21237   8.844  34.368   1.306
59575W        W21238   7.671  30.476   1.831
59576W        W21239  42.909  41.932   1.221
59577W        W21240  20.252  31.578  12.440
59578W        W21241  24.483   9.741  14.423
59579W        W21242  29.078  32.587  11.458
59580W        W21243  38.002  20.214   3.377
59581W        W21244  30.104  13.707   2.228
59582W        W21245  44.500  41.945  14.852
59583W        W21246   9.734   7.316   2.672
59584W        W21247  23.569   5.855  14.010
59585W        W21248  27.683  37.450   0.918
59586W        W21249  30.487   8.323  11.864
59587W        W21250  19.194  25.529  13.507
59588W        W21251  34.543  37.923  11.113
59589W        W21252  28.539  24.043   3.218
59590W        W21253   9.231  44.994  13.934
59591W        W21254  12.760  19.691   4.748
59592W        W21255  12.282  18.593  10.549
59593W        W21256  24.600  37.390   1.905
59594W        W21257  42.851  41.448  14.285
59595W        W21258   8.364  42.395  11.379
59596W        W21259  12.150  10.367  13.837
59597W        W21260  15.738   8.291   4.812
59598W        W21261   7.760  24.596  13.407
59599W        W21262  31.034  24.089   3.203
59600W        W21263  37.438  38.425  11.011
59601W        W21264   4.805   0.782  12.394
59602W        W21265  35.425  31.054   1.821
59603W        W21266  26.043  34.381  11.441
59604W        W21267  23.127  12.857  12.370
59605W        W21268  18.199  15.610   1.338
59606W        W21269   7.179  25.679   3.684
59607W        W21270  36.095  13.826   4.663
59608W        W21271   0.836  41.029  12.077
59609W        W21272  12.748  11.635  12.823
59610W        W21273  27.000   1.912   0.281
59611W        W21274  21.691  34.437  14.909
59612W        W21275   3.908  11.294  11.005
59613W        W21276  23.157  43.873  13.822
59614W        W21277  11.683  34.477   0.484
59615W        W21278  41.348  17.700  11.459
59616W        W21279   8.205  12.802   0.459
59617W        W21280  41.329  31.575  11.890
59618W        W21281  36.854  29.110   3.810
59619W        W21282  13.681  27.137  11.011
59620W        W21283  39.031  32.541   4.771
59621W        W21284  29.578   4.742   0.249
59622W        W21285  43.929  28.659  11.519
59623W        W21286  18.182  33.915   0.867
59624W        W21287  10.681  27.676  10.978
59625W        W21288  35.522  36.063   4.784
59626W        W21289   4.711  32.941   4.635
59627W        W21290  21.067  17.297  12.438
59628W        W21291  37.965  40.018   1.732
59629W        W21292  30.574   1.366   2.847
59630W        W21293   0.402  34.028   1.841
59631W        W21294   8.781  13.178   0.902
59632W        W21295  37.446  41.367   2.375
59633W        W21296   4.260  16.204   2.868
59634W        W21297  18.714   2.451   0.829
59635W        W21298  35.055  28.168   1.343
59636W        W21299  19.100   1.763   0.739
59637W        W21300  21.750  15.625  13.013
59638W        W21301  20.718  41.386   3.780
59639W        W21302  40.047  24.589   4.648
59640W        W21303  19.241  33.043  13.430
59641W        W21304   2.822  25.110   2.230
59642W        W21305  18.704  31.504   0.761
59643W        W21306  13.747  27.682  13.321
59644W        W21307  10.859  25.567  12.446
59645W        W21308   8.658  20.190   2.728
59646W        W21309  36.566   0.430   3.717
59647W        W21310  42.510   8.396  11.562
59648W        W21311  31.493  20.089  12.830
59649W        W21312  21.130  32.490  13.033
59650W        W21313  44.845   2.914   0.944
59651W        W21314  13.123  25.517   4.700
59652W        W21315  40.451  18.077   1.796
59653W        W21316  25.203  31.021  11.983
59654W        W21317  38.951  41.379   4.142
59655W        W21318  43.396  24.590   3.639
59656W        W21319  28.461  36.553   0.304
59657W        W21320  33.009  30.924  13.989
59658W        W21321  34.454  36.986  13.931
59659W        W21322  28.944  22.108   3.673
59660W        W21323  32.013  25.515  11.035
59661W        W21324   2.867  38.058   4.788
59662W        W21325  35.502  37.338   2.670
59663W        W21326  22.079  19.084   4.222
59664W        W21327   2.805  34.530  10.436
59665W        W21328  42.524  14.331   3.751
59666W        W21329  40.869  23.117   4.685
59667W        W21330  17.799   9.759   0.253
59668W        W21331  21.170  29.520  14.473
59669W        W21332  37.070  42.479  11.525
59670W        W21333  23.075  26.515  14.784
59671W        W21334  35.571  12.649   3.323
59672W        W21335   7.875  31.445  11.558
59673W        W21336  23.229   3.890   2.389
59674W        W21337  20.237  34.565  13.324
59675W        W21338  15.225  31.967  12.496
59676W        W21339  43.458  43.324  13.916
59677W        W21340  18.762  23.128  12.459
59678W        W21341  16.094  24.622  10.601
59679W        W21342  16.219  41.965  11.961
59680W        W21343  38.407  32.021  12.042
59681W        W21344  39.523   7.719   3.721
59682W        W21345  40.373   6.703  12.933
59683W        W21346  34.600  16.631   4.304
59684W        W21347  23.079  11.140   4.644
59685W        W21348   3.725  36.919   1.277
59686W        W21349  36.554  41.379  10.007
59687W        W21350   1.268  38.899  13.525
59688W        W21351  38.498  17.076  11.039
59689W        W21352   7.853  15.089   0.295
59690W        W21353  42.791   9.728  13.912
59691W        W21354  19.116   9.848   4.631
59692W        W21355  21.118  28.523  13.877
59693W        W21356  27.657   5.837  14.305
59694W        W21357  36.908  28.518  14.496
59695W        W21358  34.941   6.902  10.522
59696W        W21359  12.725  25.689   4.174
59697W        W21360  38.514   7.409  11.506
59698W        W21361  11.766   5.731   5.705
59699W        W21362  23.601  39.967   2.664
59700W        W21363   7.253  27.666  10.888
59701W        W21364   3.916  22.626  13.040
59702W        W21365   8.867   5.792   9.923
59703W        W21366   3.232  16.739   0.881
59704W        W21367  33.522  22.729  11.068
59705W        W21368  36.016   6.382  13.916
59706W        W21369   0.341   2.763  10.477
59707W        W21370  17.782  42.519   1.450
59708W        W21371   8.177   8.723  10.154
59709W        W21372  40.859  16.264   1.873
59710W        W21373   9.302  23.638   0.794
59711W        W21374   3.372   7.773  10.896
59712W        W21375  35.464  19.111   1.256
59713W        W21376   0.426  24.131   4.207
59714W        W21377  26.492  18.698  10.490
59715W        W21378  41.906  20.172  12.825
59716W        W21379  10.785  23.206  14.401
59717W        W21380  10.646   9.224   0.935
59718W        W21381  43.776  41.458  14.891
59719W        W21382  43.952  39.814   0.441
59720W        W21383   1.879  37.417  10.937
59721W        W21384  32.520   3.901  11.458
59722W        W21385  40.014  35.449   1.250
59723W        W21386  22.664  23.095  11.487
59724W        W21387  27.510   6.704   2.731
59725W        W21388  13.177  37.354   1.816
59726W        W21389  22.088  19.596   3.805
59727W        W21390  37.358   6.852   2.847
59728W        W21391  23.230  25.527  14.981
59729W        W21392  26.469  19.042   1.338
59730W        W21393  37.067  36.529  12.485
59731W        W21394  30.441  34.088   0.860
59732W        W21395  44.464  40.530  11.054
59733W        W21396  34.433  39.059   4.599
59734W        W21397  42.516  36.040  11.115
59735W        W21398  16.231  21.166  11.538
59736W        W21399  17.609   9.656   1.218
59737W        W21400  27.669  42.407  12.888
59738W        W21401   8.837  42.794   1.324
59739W        W21402  30.112  19.735   1.859
59740W        W21403  18.123  40.885   0.298
59741W        W21404  29.080  38.569   4.137
59742W        W21405   1.460  13.146   3.183
59743W        W21406   5.389  43.975   3.685
59744W        W21407  38.545  15.729   4.834
59745W        W21408  38.566   2.783  14.382
59746W        W21409   4.215  12.351   2.869
59747W        W21410   7.317  34.112   3.679
59748W        W21411  36.588  17.235  13.526
59749W        W21412  32.505  36.546  13.482
59750W        W21413  25.541  12.298   1.801
59751W        W21414  44.325  43.970  11.976
59752W        W21415   0.284  28.009   3.274
59753W        W21416  23.132  41.473   0.408
59754W        W21417  30.579  41.978   4.674
59755W        W21418  27.450  22.191  14.474
59756W        W21419  33.122  43.995   1.387
59757W        W21420   9.299  41.814  13.882
59758W        W21421  33.488  29.621   4.343
59759W        W21422  40.427  32.593   1.766
59760W        W21423   0.253  11.718   3.220
59761W        W21424  44.468  27.559   3.809
59762W        W21425  19.616  39.475  11.106
59763W        W21426  15.205  14.678  12.879
59764W        W21427   7.829  18.261   2.787
59765W        W21428  19.092  11.316  14.304
59766W        W21429   9.194  43.833   0.734
59767W        W21430  10.262  37.546  11.026
59768W        W21431  17.758  32.057  13.791
59769W        W21432   6.389  44.771   0.473
59770W        W21433  21.561  10.872   4.330
59771W        W21434   3.847  22.226  14.515
59772W        W21435   8.202  15.314   3.330
59773W        W21436   9.850  26.041  12.378
59774W        W21437  41.857  38.062   0.967
59775W        W21438  11.660   3.397  13.376
59776W        W21439  34.565   7.388   4.205
59777W        W21440  44.881  27.687   3.771
59778W        W21441  39.364  30.090   1.884
59779W        W21442  17.683  25.043  14.468
59780W        W21443  25.090   9.365  14.282
59781W        W21444  27.572   5.708  14.969
59782W        W21445  43.382  10.320   0.276
59783W        W21446   8.829  11.265  14.366
59784W        W21447  25.636  15.324  13.323
59785W        W21448  29.605  26.478  10.538
59786W        W21449  23.088  41.952   3.640
59787W        W21450  27.566   9.834   1.434
59788W        W21451  13.648  36.365   2.826
59789W        W21452  33.527  40.887   1.266
59790W        W21453  34.418   5.825   0.315
59791W        W21454  31.567  43.809  10.931
59792W        W21455  17.720  23.010  11.563
59793W        W21456  14.148  34.401   3.722
59794W        W21457   5.833  16.682  13.937
59795W        W21458  28.179   3.902  13.423
59796W        W21459  24.150  17.720   2.663
59797W        W21460  25.219  42.783  14.493
59798W        W21461  41.464  36.871  13.053
59799W        W21462  35.889  26.039   3.386
59800W        W21463  22.704   0.969   4.805
59801W        W21464  21.253  11.744   2.829
59802W        W21465  26.970  41.493  13.025
59803W        W21466  19.072  16.757  14.882
59804W        W21467   2.392  39.818  14.508
59805W        W21468  10.362   2.872  12.518
59806W        W21469  27.117   8.685  12.985
59807W        W21470   8.775  43.322  11.946
59808W        W21471   3.280   1.956   1.364
59809W        W21472  42.958  11.704   2.724
59810W        W21473  11.364  40.526  11.407
59811W        W21474  44.880  18.127  13.461
59812W        W21475  10.823   6.245  12.830
59813W        W21476  31.094  32.099  13.823
59814W        W21477  16.660  18.569   2.184
59815W        W21478  15.606  24.048   4.229
59816W        W21479  23.050  27.056   4.694
59817W        W21480  22.713  37.906   4.198
59818W        W21481  35.501  22.532  14.370
59819W        W21482   7.753  19.276  14.387
59820W        W21483  25.977  44.990  13.861
59821W        W21484  16.098  25.171   0.868
59822W        W21485   5.747   9.348  10.605
59823W        W21486  43.415  31.951  11.955
59824W        W21487  16.596  40.004  13.486
59825W        W21488  36.053  15.197  13.824
59826W        W21489  18.544   7.795   1.828
59827W        W21490  34.416  38.863  14.010
59828W        W21491  39.471  37.548   0.375
59829W        W21492  10.303  39.321  13.030
59830W        W21493  26.559  12.234   3.824
59831W        W21494  33.530  14.698  10.960
59832W        W21495   4.238   0.362   3.291
59833W        W21496  35.093  18.112  14.451
59834W        W21497  11.760  42.299  14.359
59835W        W21498  27.577  39.475  13.490
59836W        W21499  14.734  12.258   0.735
59837W        W21500  18.706   3.408   4.219
59838W        W21501  34.548  14.601   1.809
59839W        W21502  14.206  29.980   4.198
59840W        W21503  11.283  38.525  13.840
59841W        W21504  39.955  28.097  10.976
59842W        W21505  24.996  36.913  14.372
59843W        W21506  17.614  33.980   0.331
59844W        W21507  18.607   6.187  13.962
59845W        W21508   9.699  23.579  10.420
59846W        W21509  32.022  12.818   3.650
59847W        W21510   1.929  25.695  13.319
59848W        W21511  38.477   4.899  11.442
59849W        W21512   2.735  10.739  11.402
59850W        W21513  13.666  26.975  12.855
59851W        W21514  15.203  43.828  13.872
59852W        W21515   1.388  38.059  11.376
59853W        W21516  32.127  25.522   4.144
59854W        W21517  22.110   4.306  11.027
59855W        W21518  11.143  12.676   3.743
59856W        W21519  24.187  35.511  10.491
59857W        W21520   1.749   6.339   2.331
59858W        W21521  42.908  13.228   1.824
59859W        W21522   1.776  31.508  12.470
59860W        W21523   5.216   9.672   3.266
59861W        W21524  22.661  31.469  13.847
59862W        W21525  43.941  24.594  12.991
59863W        W21526  32.393  27.550   3.326
59864W        W21527  28.467  13.640  11.389
59865W        W21528  44.378  14.770  11.061
59866W        W21529  36.913  31.540   0.887
59867W        W21530  10.650   5.199   0.446
59868W        W21531  16.229   7.741  10.955
59869W        W21532  31.123   3.796   2.675
59870W        W21533   8.383   4.828   2.187
59871W        W21534   0.484  33.512  14.766
59872W        W21535  22.071  14.269   0.831
59873W        W21536  30.975  13.632   4.782
59874W        W21537  43.440  27.026  11.002
59875W        W21538  36.948   3.360  13.415
59876W        W21539   4.284  30.091  11.567
59877W        W21540  26.679  42.007   4.344
59878W        W21541   3.409  35.414  11.613
59879W        W21542  23.716  44.324  14.927
59880W        W21543   2.853  25.971   3.193
59881W        W21544  11.293  43.475  14.771
59882W        W21545  20.648  21.226  14.289
59883W        W21546  21.743  31.425  11.119
59884W        W21547   3.905   6.794  12.970
59885W        W21548  21.718  32.902  14.366
59886W        W21549  15.199  34.997   2.783
59887W        W21550  41.901  23.084   4.761
59888W        W21551  22.608  39.455   3.159
59889W        W21552  11.853  36.866  14.900
59890W        W21553  41.019   5.876   3.207
59891W        W21554  30.609  21.538  14.489
59892W        W21555   0.908   2.366   4.775
59893W        W21556  21.712  16.303  11.057
59894W        W21557  19.140  12.620   2.793
59895W        W21558  19.199  35.972  14.890
59896W        W21559   5.922  36.980  11.611
59897W        W21560  41.973  31.555   4.170
59898W        W21561  38.016   1.275  13.874
59899W        W21562  16.157  28.144   0.765
59900W        W21563  27.542  33.993  12.556
59901W        W21564   9.806  22.632  13.817
59902W        W21565  44.344   2.376   2.261
59903W        W21566  18.545  18.708   3.706
59904W        W21567  26.084  41.379  10.642
59905W        W21568  37.843   3.802  13.944
59906W        W21569  17.658   2.297   1.729
59907W        W21570  32.960  40.956  11.924
59908W        W21571  24.052  30.126  12.490
59909W        W21572   8.679  36.450   5.143
59910W        W21573  34.042   6.827  11.472
59911W        W21574  25.973  43.394   1.761
59912W        W21575  19.567  31.545  10.531
59913W        W21576   6.691  37.048   2.236
59914W        W21577  21.675  35.990  12.080
59915W        W21578  42.500   1.425  11.415
59916W        W21579  23.119  10.176   4.646
59917W        W21580  34.532  37.966  14.898
59918W        W21581  39.995  41.461  11.516
59919W        W21582  40.901  14.218   2.903
59920W        W21583  38.843  44.333  13.046
59921W        W21584  41.832  15.215  11.592
59922W        W21585   1.291  14.278   0.459
59923W        W21586  11.675  12.789   1.427
59924W        W21587  27.165  19.764   9.944
59925W        W21588  43.473   8.729  13.951
59926W        W21589  30.051  30.031   4.657
59927W        W21590  43.901   4.446   3.843
59928W        W21591  24.489  18.633  14.357
59929W        W21592  21.671  24.988   4.330
59930W        W21593  25.159  14.298  11.962
59931W        W21594  15.324  31.620   3.345
59932W        W21595  33.950  14.765  10.578
59933W        W21596  17.145   4.448  11.905
59934W        W21597  31.467  11.234  14.498
59935W        W21598  44.972   8.704   3.383
59936W        W21599  15.195  19.691   4.665
59937W        W21600  20.126  11.316  13.392
59938W        W21601  44.465  18.629   3.723
59939W        W21602  42.909  25.659   2.776
59940W        W21603   6.287  30.598   0.906
59941W        W21604   2.290  38.976  10.408
59942W        W21605  15.615  12.362  14.289
59943W        W21606  19.731   4.285  12.421
59944W        W21607  10.376  40.861  14.282
59945W        W21608  35.599  17.801  13.030
59946W        W21609  44.323  15.758  12.839
59947W        W21610  25.123   3.758   1.823
59948W        W21611  10.778  22.651  13.829
59949W        W21612  26.973  26.205   2.266
59950W        W21613  21.579  40.319  10.552
59951W        W21614  28.989   5.419  10.910
59952W        W21615   4.760  42.794  13.020
59953W        W21616  42.362   9.386   4.623
59954W        W21617  31.577   6.424  13.802
59955W        W21618  22.113   1.398   2.707
59956W        W21619  28.460  25.668   4.135
59957W        W21620  27.571  25.508  14.439
59958W        W21621  12.160  13.140   4.681
59959W        W21622  23.031   4.292   5.707
59960W        W21623   7.235  40.477   5.178
59961W        W21624  43.856   7.810  12.087
59962W        W21625   5.746  31.050  14.919
59963W        W21626  38.369  13.628   0.322
59964W        W21627  23.092  12.303  10.605
59965W        W21628   9.375  34.612   0.405
59966W        W21629  38.406  39.809  13.527
59967W        W21630  14.220  16.570   1.312
59968W        W21631  17.714  13.237  11.004
59969W        W21632  35.031  39.332  11.019
59970W        W21633  19.570  31.527   2.341
59971W        W21634  20.232  28.652  12.056
59972W        W21635  23.630  42.775   1.925
59973W        W21636   0.376   9.218  13.351
59974W        W21637   4.742  36.441  13.979
59975W        W21638   6.387  31.420  13.454
59976W        W21639  21.229   7.869  12.012
59977W        W21640   9.651  24.619  10.898
59978W        W21641  23.026   3.717  14.864
59979W        W21642  31.645   5.343  10.566
59980W        W21643  12.744   0.474  10.424
59981W        W21644   2.446  24.574  11.608
59982W        W21645  11.701  33.436  12.014
59983W        W21646  37.412  16.591   3.677
59984W        W21647  37.993  16.126   0.953
59985W        W21648   1.791  21.564   4.236
59986W        W21649  24.198  41.928  14.376
59987W        W21650  29.985  37.066   1.894
59988W        W21651  22.072  17.266  11.518
59989W        W21652  34.090  34.915   4.769
59990W        W21653  25.493   1.327   5.317
59991W        W21654  36.487  37.071  14.288
59992W        W21655   4.269  37.364  11.959
59993W        W21656   7.773  34.546   3.699
59994W        W21657  25.531   3.316  13.368
59995W        W21658   3.757  12.251  13.337
59996W        W21659  14.819  28.472   2.342
59997W        W21660  40.482  43.317   1.904
59998W        W21661  33.425  20.669  14.913
59999W        W21662   9.704  41.938  11.018
60000W        W21663   2.329  30.470  13.919
60001W        W21664  21.687  22.700  13.433
60002W        W21665  11.318  13.749   3.375
60003W        W21666   8.899  29.119  10.481
60004W        W21667  33.979   8.868   4.682
60005W        W21668  24.554  20.763   3.358
60006W        W21669  22.165   5.916  10.605
60007W        W21670   6.346   7.294  11.592
60008W        W21671  28.565  41.327  13.827
60009W        W21672  43.324  22.583  13.020
60010W        W21673  33.581  37.377  10.996
60011W        W21674   6.856  36.882  13.854
60012W        W21675  12.119  34.457   5.319
60013W        W21676  22.197  15.133  10.470
60014W        W21677  40.392  11.140   2.727
60015W        W21678  37.560  25.626   0.958
60016W        W21679  17.097  23.023  14.877
60017W        W21680  25.518  30.639  14.388
60018W        W21681  20.131   2.238   1.755
60019W        W21682  39.048  26.607   2.369
60020W        W21683  34.012  37.508  13.937
60021W        W21684  28.986   4.841   4.353
60022W        W21685  28.680  15.638  11.401
60023W        W21686  31.609  21.646   2.736
60024W        W21687   9.328  42.928  13.812
60025W        W21688  33.490  19.631   5.786
60026W        W21689   4.868   9.321  13.351
60027W        W21690  19.567  15.629   2.179
60028W        W21691  13.767  22.038   2.867
60029W        W21692  27.993  40.410   3.821
60030W        W21693  24.181  25.971   1.328
60031W        W21694  43.765  39.375   4.241
60032W        W21695  35.478  12.140  14.022
60033W        W21696  35.996   8.332  11.946
60034W        W21697  42.444  21.248  14.965
60035W        W21698  36.379  12.832   1.931
60036W        W21699  35.069  27.453   3.229
60037W        W21700  36.358  22.136  10.018
60038W        W21701  22.583  19.606  12.950
60039W        W21702   4.800  43.435  13.819
60040W        W21703  20.198  32.967  13.056
60041W        W21704  22.525   8.654  14.461
60042W        W21705  22.066   9.726  14.925
60043W        W21706   6.908  30.935  13.873
60044W        W21707  26.956  28.653  11.885
60045W        W21708  12.665  36.363   3.651
60046W        W21709  15.810  42.361  12.427
60047W        W21710  26.637  14.255   2.772
60048W        W21711  10.327  37.071  10.612
60049W        W21712  38.023  12.235  10.593
60050W        W21713  20.597  16.090   9.986
60051W        W21714  17.725  26.118   0.342
60052W        W21715  27.195  20.650  13.063
60053W        W21716   3.905  33.965  13.489
60054W        W21717  12.221  25.623  12.986
60055W        W21718   4.713  40.847  10.461
60056W        W21719  34.047  39.007  14.808
60057W        W21720  16.072  42.362   3.309
60058W        W21721  24.116  37.406   0.947
60059W        W21722  39.852  28.083   2.802
60060W        W21723  34.565  28.529   4.235
60061W        W21724  40.956  37.999  11.408
60062W        W21725  25.523  21.232   3.149
60063W        W21726  23.216   3.408  12.500
60064W        W21727  17.107  41.003   0.940
60065W        W21728  30.485  37.526   1.699
60066W        W21729  14.717   1.854  11.110
60067W        W21730   1.950  26.135  11.997
60068W        W21731  17.254  33.958   3.773
60069W        W21732  35.476   5.320   1.215
60070W        W21733   1.976  22.185   2.855
60071W        W21734  34.577  27.670   0.363
60072W        W21735   0.322  23.159   1.805
60073W        W21736  43.323  26.057   1.727
60074W        W21737   8.402   7.403  10.980
60075W        W21738   9.186   9.250  12.090
60076W        W21739  14.700   1.285  10.533
60077W        W21740  38.469  20.726   3.795
60078W        W21741  19.054  16.734  13.805
60079W        W21742   0.767  13.254  11.604
60080W        W21743  11.808  39.994   4.155
60081W        W21744  23.225  28.045   0.400
60082W        W21745  32.100  40.466  13.543
60083W        W21746   5.852  24.588   1.921
60084W        W21747  40.041  19.136  13.320
60085W        W21748   7.766  27.186   3.793
60086W        W21749   7.729   3.450   2.668
60087W        W21750   1.322   7.681   2.327
60088W        W21751   4.215  34.023  10.410
60089W        W21752  11.251   2.934   0.418
60090W        W21753  36.036  40.517  12.953
60091W        W21754  43.945   0.432  12.025
60092W        W21755  12.741  10.869  11.871
60093W        W21756  39.027  31.637  10.476
60094W        W21757  34.966   9.749   3.367
60095W        W21758   7.177  13.606   0.960
60096W        W21759   6.850   9.697  11.943
60097W        W21760  19.179  39.017   2.377
60098W        W21761   6.418  34.101   1.917
60099W        W21762  39.494   0.820   0.306
60100W        W21763  24.592   2.321   5.133
60101W        W21764  44.958  25.216  13.000
60102W        W21765  30.016   5.892  12.011
60103W        W21766   7.412   6.868  13.906
60104W        W21767  22.146  33.468   3.762
60105W        W21768  23.503  10.799  12.498
60106W        W21769   6.880  13.838   3.722
60107W        W21770   5.876   3.787   3.823
60108W        W21771   6.254  26.692   0.870
60109W        W21772  30.044   6.314  12.564
60110W        W21773  31.944  15.683   3.303
60111W        W21774   6.375  25.650   4.311
60112W        W21775  33.884   0.321  11.048
60113W        W21776  37.084  20.223   1.333
60114W        W21777  25.635  24.546   3.236
60115W        W21778  27.155   6.240  10.089
60116W        W21779   1.419  44.902   3.702
60117W        W21780  32.534   6.350   2.729
60118W        W21781  15.319  10.742   3.635
60119W        W21782  13.113  19.708   9.977
60120W        W21783   7.808  30.525  12.508
60121W        W21784   3.264  29.583  10.540
60122W        W21785  42.489  34.973   4.769
60123W        W21786  10.705   4.780   3.164
60124W        W21787  40.873  24.078  13.545
60125W        W21788  13.640  28.439  14.925
60126W        W21789  29.627  32.989   4.761
60127W        W21790  15.775  40.515   4.673
60128W        W21791  34.000  41.448  14.480
60129W        W21792  28.175  13.255  11.987
60130W        W21793   8.716   3.429  11.597
60131W        W21794  30.508  33.083   1.783
60132W        W21795  33.921  22.642  13.998
60133W        W21796   9.383   4.862   2.181
60134W        W21797  29.569  38.400  13.891
60135W        W21798  37.030  15.608   1.444
60136W        W21799  20.572  23.067  12.390
60137W        W21800  16.087   1.290  11.069
60138W        W21801  43.876  29.504  13.819
60139W        W21802   5.875  39.447  13.415
60140W        W21803   0.821  15.641   4.151
60141W        W21804  10.729  44.479   1.254
60142W        W21805   8.184  35.478   3.316
60143W        W21806   8.263  11.328  14.976
60144W        W21807  21.126  16.134  12.528
60145W        W21808  27.954  17.660  14.473
60146W        W21809  35.103   4.436   1.717
60147W        W21810  43.513  36.396   2.778
60148W        W21811  38.427   5.767   1.412
60149W        W21812  43.324  14.219  13.343
60150W        W21813  44.010  10.821  14.759
60151W        W21814   3.426  25.198   2.718
60152W        W21815   6.759   0.984  14.948
60153W        W21816  11.826  26.992   2.765
60154W        W21817  23.989   1.274  12.392
60155W        W21818   1.439  14.605  14.438
60156W        W21819  26.457  23.172   1.930
60157W        W21820   9.678  26.673   0.762
60158W        W21821   9.732  22.719   0.396
60159W        W21822   6.207  44.790  12.350
60160W        W21823   3.248  13.636  11.546
60161W        W21824  24.683  19.267  12.427
60162W        W21825  36.077   8.806   1.894
60163W        W21826  13.173  10.687  11.522
60164W        W21827  22.163  37.572  11.925
60165W        W21828  33.577   4.348  14.442
60166W        W21829  17.787  42.868   4.812
60167W        W21830   9.162  40.931  12.949
60168W        W21831  15.767  41.865   1.398
60169W        W21832  13.841  19.672   3.809
60170W        W21833  21.628  21.184  12.495
60171W        W21834   4.236   2.836  11.933
60172W        W21835   2.419   5.881  11.942
60173W        W21836  27.543  25.079   3.384
60174W        W21837   7.226   6.339   0.459
60175W        W21838   3.801   4.348   2.406
60176W        W21839  38.064  24.124   3.187
60177W        W21840  44.319  44.431   3.763
60178W        W21841   8.406  20.041   0.461
60179W        W21842   5.377  16.307   0.311
60180W        W21843  35.923  40.413  14.972
60181W        W21844  38.941  37.482   1.729
60182W        W21845  27.038   9.708   4.793
60183W        W21846  13.837   5.845   0.468
60184W        W21847  21.638  36.883   4.781
60185W        W21848  42.958  27.504  14.411
60186W        W21849   6.310   0.762   4.768
60187W        W21850   8.228   9.353  14.358
60188W        W21851  16.611   5.915  11.589
60189W        W21852  18.598  19.165   0.249
60190W        W21853  16.284  30.003  10.939
60191W        W21854  21.236  43.917  10.963
60192W        W21855  30.053   6.275  10.965
60193W        W21856   8.307  38.879  11.887
60194W        W21857  31.497  19.694   4.169
60195W        W21858  10.162   4.777   5.265
60196W        W21859  23.081  18.210   3.724
60197W        W21860  12.717  26.510  10.995
60198W        W21861  37.403  25.169   2.820
60199W        W21862  24.665   1.747  11.960
60200W        W21863  13.771  27.672  14.941
60201W        W21864  43.773  27.534   3.826
60202W        W21865  28.436  43.787  13.801
60203W        W21866  40.383  43.397  10.595
60204W        W21867  43.773   8.289   2.805
60205W        W21868   0.917  32.076   2.681
60206W        W21869   9.792  16.192   4.799
60207W        W21870  14.653  38.076  14.276
60208W        W21871  11.216   4.262  11.083
60209W        W21872  23.200  30.492   3.834
60210W        W21873   8.867  15.276   4.660
60211W        W21874  24.615  43.965  14.317
60212W        W21875   5.735  40.995   4.181
60213W        W21876   7.860  25.652  14.298
60214W        W21877  26.982  23.202   2.415
60215W        W21878  10.671  21.191   0.378
60216W        W21879  31.066  35.034  14.274
60217W        W21880  40.324  35.496   4.195
60218W        W21881  22.729  33.399   1.362
60219W        W21882  11.197   1.907   1.292
60220W        W21883  34.373  12.851  14.360
60221W        W21884  21.685  32.496   2.717
60222W        W21885  44.337  41.023  13.887
60223W        W21886  34.976  32.426  10.473
60224W        W21887  11.722  26.613  11.978
60225W        W21888   0.953  18.200  13.865
60226W        W21889  19.622  44.004   1.933
60227W        W21890  18.280  24.119   4.731
60228W        W21891  10.705  44.967  12.857
60229W        W21892  40.453  31.996   2.382
60230W        W21893  26.165  27.079   0.883
60231W        W21894   3.294  37.400  13.365
60232W        W21895  33.438  36.568  11.586
60233W        W21896  21.743  26.598   1.934
60234W        W21897  38.417  34.053   0.837
60235W        W21898  43.893  39.024  14.982
60236W        W21899  15.610   0.902   4.339
60237W        W21900  14.304   7.287  10.437
60238W        W21901  15.327  22.700  11.493
60239W        W21902  29.469  37.399   5.275
60240W        W21903  25.702   9.743  12.925
60241W        W21904  18.211  12.239   4.726
60242W        W21905  40.429  41.304  14.363
60243W        W21906  38.974  14.283  14.816
60244W        W21907  21.111   4.272  14.929
60245W        W21908  40.515  13.160   0.472
60246W        W21909  16.313  18.209  11.586
60247W        W21910   2.310  19.668  14.863
60248W        W21911   3.755  28.002   0.924
60249W        W21912  16.222  10.192   2.857
60250W        W21913  35.874  31.428   4.616
60251W        W21914  33.454   4.894  12.943
60252W        W21915  21.735  14.661   2.364
60253W        W21916  41.530  35.966   4.347
60254W        W21917  23.711   6.758   3.356
60255W        W21918   9.358   8.358   3.672
60256W        W21919  38.074  31.563  12.030
60257W        W21920  20.524  28.618  13.900
60258W        W21921  19.738   6.861   3.179
60259W        W21922  33.614  12.201  13.548
60260W        W21923  37.073  18.060  11.933
60261W        W21924   2.253   1.286  12.071
60262W        W21925   9.165  21.068   3.195
60263W        W21926  38.393  24.610  12.901
60264W        W21927  37.900   0.491   2.849
60265W        W21928   1.432  42.523  14.948
60266W        W21929  27.154   1.238  12.356
60267W        W21930  18.650  21.090   2.412
60268W        W21931  27.492  37.531  13.964
60269W        W21932  36.591   4.385   1.322
60270W        W21933  32.139  38.499   0.753
60271W        W21934  41.883   0.842  13.466
60272W        W21935   4.896   0.353  13.880
60273W        W21936  40.493   6.694  13.526
60274W        W21937  17.093  33.893  12.067
60275W        W21938  32.909  10.327  10.019
60276W        W21939  29.059   7.270   4.200
60277W        W21940  10.175   2.783   4.755
60278W        W21941  42.280  31.501   2.387
60279W        W21942  41.994  29.587   2.887
60280W        W21943   3.400   5.404   4.724
60281W        W21944  25.055  22.099  14.018
60282W        W21945   1.432  36.396   3.841
60283W        W21946   1.871  18.231   3.363
60284W        W21947  42.413   5.293  13.976
60285W        W21948   3.389  31.146   3.311
60286W        W21949  41.000  43.355  14.301
60287W        W21950   8.797  13.229   5.266
60288W        W21951  43.976  37.531  10.474
60289W        W21952  38.496  29.061   2.822
60290W        W21953  22.523  40.891   4.762
60291W        W21954  16.672  10.341   1.799
60292W        W21955   7.880  36.908  12.957
60293W        W21956  35.941  20.583  12.489
60294W        W21957   1.412  44.402  11.932
60295W        W21958  32.972  34.077  13.314
60296W        W21959   0.873  19.276  10.527
60297W        W21960  15.136  20.030  10.919
60298W        W21961  32.066  14.147  10.068
60299W        W21962   7.355  25.070  12.478
60300W        W21963  12.322  35.386   5.232
60301W        W21964  42.503  44.341  13.315
60302W        W21965  32.462  26.964  10.421
60303W        W21966   1.359  42.307   0.296
60304W        W21967  18.136  26.486   3.861
60305W        W21968  37.412  39.320  11.541
60306W        W21969  26.680  40.834  14.961
60307W        W21970  28.586  30.095  14.364
60308W        W21971  40.031  42.444   4.250
60309W        W21972  23.201   1.829  13.999
60310W        W21973  27.599   4.891  12.409
60311W        W21974  36.059  15.686   2.777
60312W        W21975  23.213  34.591  14.416
60313W        W21976  28.999  26.978  10.541
60314W        W21977  16.637  10.190   3.171
60315W        W21978  17.150  34.953  12.007
60316W        W21979  10.321  31.576  12.886
60317W        W21980  15.279  43.803  14.407
60318W        W21981  31.525  38.980   1.862
60319W        W21982  37.418  18.651   2.786
60320W        W21983   5.865   1.843   2.802
60321W        W21984  23.608   3.454  11.101
60322W        W21985   1.891   9.817   3.863
60323W        W21986  32.395  17.617   1.807
60324W        W21987  24.171  18.248  14.491
60325W        W21988  44.950  28.014   0.483
60326W        W21989   2.226  22.742  14.891
60327W        W21990  41.432  27.548  12.405
60328W        W21991  36.554  42.964   0.313
60329W        W21992   6.715  34.062   4.744
60330W        W21993  26.195  24.656  13.794
60331W        W21994   7.808  23.099   3.648
60332W        W21995  31.610  36.002   3.309
60333W        W21996  42.976  23.204  14.793
60334W        W21997  17.737  18.134   3.337
60335W        W21998  14.283  12.187  11.906
60336W        W21999   1.785   1.239  13.495
60337W        W22000  20.196  15.756  14.492
60338W        W22001  31.567  22.592  12.086
60339W        W22002  43.430   0.300   3.855
60340W        W22003  36.875  19.267  13.029
60341W        W22004  33.020  44.912  11.971
60342W        W22005  17.239   9.307   0.391
60343W        W22006  15.120  40.842  12.441
60344W        W22007  11.803  38.849   2.802
60345W        W22008  13.702  42.833  13.539
60346W        W22009   0.363  15.821   3.780
60347W        W22010  25.666  28.148  11.379
60348W        W22011  43.452  11.728  14.337
60349W        W22012  31.972  22.020   2.732
60350W        W22013  44.811  43.491  11.526
60351W        W22014  39.064  41.900   1.817
60352W        W22015  29.951  30.601   0.249
60353W        W22016   4.298  16.213  13.934
60354W        W22017   9.229  34.572   0.754
60355W        W22018   3.897  39.463   3.319
60356W        W22019  24.503  18.291  14.458
60357W        W22020  35.487  10.660   3.178
60358W        W22021   9.230  27.995   4.323
60359W        W22022  14.219   0.751  12.404
60360W        W22023  11.150  43.885   4.792
60361W        W22024  15.185  43.269   3.707
60362W        W22025  10.332   6.421   5.091
60363W        W22026  23.095  39.022   4.676
60364W        W22027   5.366   9.655   3.863
60365W        W22028   8.303  36.952  14.355
60366W        W22029   4.826  39.812   0.897
60367W        W22030  21.198  30.631  14.926
60368W        W22031  17.752  38.555   3.353
60369W        W22032  38.842  32.500   2.413
60370W        W22033   0.826   2.877  11.002
60371W        W22034  36.010  39.870  12.905
60372W        W22035   2.793  32.406   3.823
60373W        W22036  31.039  32.925   3.321
60374W        W22037  32.396  12.314   1.834
60375W        W22038  43.338  31.911   0.812
60376W        W22039  22.095  20.090   0.343
60377W        W22040   7.700  19.647   0.813
60378W        W22041  22.601  24.219   0.914
60379W        W22042  21.551  14.250  10.409
60380W        W22043  35.103   2.356  14.288
60381W        W22044  34.380  16.203   1.883
60382W        W22045  23.656  29.116  11.043
60383W        W22046   4.751  21.068  10.926
60384W        W22047   2.807  44.297  10.458
60385W        W22048  12.262   2.291  10.624
60386W        W22049  36.441   6.262  11.089
60387W        W22050  40.036  38.055  14.356
60388W        W22051  22.120  41.834   2.790
60389W        W22052  32.917  14.138   3.374
60390W        W22053  25.625  30.115  14.787
60391W        W22054  28.549  30.926   4.163
60392W        W22055  21.191  20.619  11.377
60393W        W22056  38.924   2.745   1.767
60394W        W22057   0.374  42.859  14.882
60395W        W22058  19.742   5.291   2.251
60396W        W22059  13.776   8.811   3.801
60397W        W22060   0.296  36.527   3.647
60398W        W22061  20.076  26.015  12.540
60399W        W22062  38.361  14.654  11.004
60400W        W22063  36.434  42.501   3.205
60401W        W22064   5.734  41.369  13.521
60402W        W22065  38.340   0.828  14.445
60403W        W22066  36.965  11.694  10.591
60404W        W22067  11.207  44.360   4.690
60405W        W22068  31.615   1.472  13.984
60406W        W22069  37.071  18.660  13.792
60407W        W22070  15.222   5.799  10.528
60408W        W22071  31.491  41.035  13.793
60409W        W22072   4.894   4.211  11.070
60410W        W22073  36.554  37.394  14.976
60411W        W22074  11.251  17.718  13.794
60412W        W22075  27.457  21.607  12.868
60413W        W22076  23.637  30.956  13.434
60414W        W22077  24.154  39.994   1.894
60415W        W22078   8.332   6.842  14.917
60416W        W22079  41.837  32.924  13.865
60417W        W22080  32.084   8.389   4.138
60418W        W22081  17.083  31.988  10.572
60419W        W22082  40.991  28.984   3.833
60420W        W22083  42.378  26.008   3.649
60421W        W22084  33.519  35.048   2.696
60422W        W22085  27.142  18.132   0.333
60423W        W22086  21.722  28.096   4.742
60424W        W22087  21.172  21.113   3.857
60425W        W22088  13.772  25.581  14.327
60426W        W22089  37.508  31.141  12.435
60427W        W22090  38.541   7.898  13.055
60428W        W22091  19.154  10.204  12.896
60429W        W22092  18.201  30.423  10.423
60430W        W22093  19.067  23.062  11.100
60431W        W22094   1.404  22.130   2.764
60432W        W22095  30.159  20.211  11.927
60433W        W22096  38.464  24.631   0.787
60434W        W22097  10.715   7.795   3.641
60435W        W22098  41.899  17.736   3.263
60436W        W22099  42.940  18.640  14.970
60437W        W22100   6.364  25.094  12.918
60438W        W22101  12.213  27.959   2.185
60439W        W22102  37.074  20.166  14.476
60440W        W22103  37.538   2.364   3.693
60441W        W22104  17.064  31.071  12.989
60442W        W22105   3.747  35.453  14.840
60443W        W22106  15.626  25.525  14.492
60444W        W22107   1.448  25.621  11.956
60445W        W22108  23.083  23.024  14.487
60446W        W22109  16.199  15.186   2.305
60447W        W22110   7.218  23.627   4.598
60448W        W22111   5.199   4.435  14.426
60449W        W22112  23.094  18.110  11.469
60450W        W22113  41.816  18.059  14.468
60451W        W22114  24.039   3.322  14.394
60452W        W22115   7.279  12.177   3.244
60453W        W22116   7.219  44.369  12.562
60454W        W22117  18.602  25.476   0.414
60455W        W22118  13.653  15.717   0.286
60456W        W22119  21.022  22.678   2.187
60457W        W22120  12.272   6.261   4.188
60458W        W22121  11.267   8.392   0.901
60459W        W22122   9.336  25.031   4.650
60460W        W22123  35.044  13.711   2.787
60461W        W22124  30.005  12.171  14.512
60462W        W22125  17.247  26.185   3.851
60463W        W22126  29.042  27.685  10.460
60464W        W22127  13.201  20.136   2.835
60465W        W22128  16.767  41.435  11.560
60466W        W22129  31.407   6.699  10.556
60467W        W22130   2.294  26.689  14.493
60468W        W22131  27.529  44.814   3.727
60469W        W22132  36.455  43.806  12.579
60470W        W22133  24.660  23.024  13.980
60471W        W22134  32.589  41.469   1.238
60472W        W22135  25.623  14.148   2.811
60473W        W22136  38.908  19.159  14.336
60474W        W22137  18.233  42.018   0.926
60475W        W22138   7.705  24.208  10.548
60476W        W22139  32.959  33.090   4.656
60477W        W22140  34.432  24.505  10.970
60478W        W22141  33.976  29.928  14.410
60479W        W22142   6.920  39.441   0.313
60480W        W22143  40.340   9.223  11.004
60481W        W22144   2.845  19.106   4.146
60482W        W22145  28.506  10.640   0.859
60483W        W22146  22.599   3.391   3.632
60484W        W22147  44.756  16.808   9.454
60485W        W22148   5.874   1.377  10.956
60486W        W22149  40.026  29.035  11.858
60487W        W22150  26.115  23.727   1.900
60488W        W22151   3.350   3.328   3.834
60489W        W22152  38.942  29.528   2.195
60490W        W22153  40.811  39.351  11.515
60491W        W22154  12.726  22.501   0.727
60492W        W22155   8.295   8.805   4.221
60493W        W22156  32.070  19.263   4.177
60494W        W22157  39.970  30.972   3.322
60495W        W22158   6.315  13.193  14.982
60496W        W22159  33.992  14.727   1.448
60497W        W22160  30.083  14.828   1.899
60498W        W22161  21.141   0.901   1.825
60499W        W22162  32.619  25.525  10.456
60500W        W22163  30.503  25.667   3.200
60501W        W22164  16.753  35.854  14.791
60502W        W22165   5.793  15.702   1.809
60503W        W22166  37.415  27.516   1.932
60504W        W22167  14.651  13.681   3.329
60505W        W22168  11.786  41.314   4.726
60506W        W22169   7.676  30.003  12.404
60507W        W22170  36.513  20.032   3.716
60508W        W22171  37.022  36.066  13.461
60509W        W22172  36.924  42.000   4.821
60510W        W22173   3.741  37.025  12.911
60511W        W22174  29.141  14.284  10.950
60512W        W22175  17.625   4.722   2.794
60513W        W22176  32.603  39.539   2.792
60514W        W22177  29.012  28.100   0.395
60515W        W22178  30.481  36.546  12.046
60516W        W22179  38.376  10.757  10.422
60517W        W22180  24.589  34.511  13.966
60518W        W22181  44.976   3.288   3.298
60519W        W22182  24.155  42.023   4.734
60520W        W22183   8.764  16.777   2.764
60521W        W22184  24.031  20.710   0.793
60522W        W22185  37.411  36.990  13.872
60523W        W22186  27.541  19.686  14.478
60524W        W22187  17.208  32.494   9.946
60525W        W22188  26.041  31.054  13.953
60526W        W22189  34.369  44.847   0.837
60527W        W22190  19.711  31.106  11.600
60528W        W22191  34.919   5.816  13.384
60529W        W22192   5.819   0.935   2.323
60530W        W22193  24.029  23.676   2.348
60531W        W22194  27.614  28.505   0.258
60532W        W22195  42.507   0.433   2.708
60533W        W22196  14.242  40.975  11.114
60534W        W22197   4.716  28.930   0.364
60535W        W22198  39.553  37.456   5.152
60536W        W22199  27.026  27.036  13.800
60537W        W22200  13.250  34.457  10.443
60538W        W22201  43.957  26.525  13.920
60539W        W22202  40.014  21.113  11.103
60540W        W22203  28.935   4.342   2.667
60541W        W22204  29.430  42.935  13.404
60542W        W22205  23.693   3.385   3.847
60543W        W22206   6.858  40.977   0.430
60544W        W22207  20.174  13.669   9.984
60545W        W22208  39.457  29.461   1.259
60546W        W22209  38.369  23.040   0.761
60547W        W22210  15.260  16.748  13.837
60548W        W22211  14.253  32.518   2.801
60549W        W22212  35.378   5.773   5.256
60550W        W22213   0.444  26.475   4.805
60551W        W22214  16.767  11.635   1.777
60552W        W22215   5.916  13.786  14.388
60553W        W22216  42.995  33.086   1.809
60554W        W22217  30.603  35.006  13.862
60555W        W22218  10.775  22.582  14.301
60556W        W22219  35.877  19.683   4.640
60557W        W22220   8.762   4.896  11.547
60558W        W22221  16.165  40.025  10.430
60559W        W22222  25.041  23.621   1.363
60560W        W22223  33.890   0.305   4.657
60561W        W22224   7.731  35.035  12.354
60562W        W22225  38.897  12.721  11.923
60563W        W22226  22.521  37.469   2.370
60564W        W22227  43.768  22.008  12.542
60565W        W22228   1.334  12.351   4.305
60566W        W22229  37.551   8.280  14.455
60567W        W22230  27.088  30.648  12.019
60568W        W22231  44.382  34.536  12.064
60569W        W22232   5.306  31.081  12.029
60570W        W22233  29.443  28.143   5.203
60571W        W22234  34.109  21.605  14.848
60572W        W22235  22.115   1.473   9.443
60573W        W22236  41.379  13.743   2.340
60574W        W22237  14.818  31.595  11.403
60575W        W22238   6.363  16.233  11.949
60576W        W22239   4.292  27.583  14.795
60577W        W22240  39.336  33.618   1.314
60578W        W22241   3.793  29.595  13.310
60579W        W22242  44.453  38.492  11.922
60580W        W22243  30.938  29.494   1.427
60581W        W22244  42.401  10.255  11.088
60582W        W22245   7.775  41.409   4.237
60583W        W22246  25.517  38.909  14.492
60584W        W22247  37.368  41.389  10.914
60585W        W22248  31.437  27.455   0.794
60586W        W22249  43.992  14.311   3.690
60587W        W22250  40.333  15.232   1.845
60588W        W22251   5.407  19.610   1.813
60589W        W22252   0.307  23.130  11.064
60590W        W22253  42.318  15.754  14.409
60591W        W22254  22.252  24.626   2.277
60592W        W22255  13.189   6.321   3.379
60593W        W22256  40.859   9.754  12.092
60594W        W22257  44.946  44.450   1.865
60595W        W22258  37.443   9.799  13.507
60596W        W22259  34.471  24.656  12.998
60597W        W22260  31.526   9.652   3.782
60598W        W22261  18.111  19.126   4.772
60599W        W22262  42.288  37.435   0.330
60600W        W22263  24.517  37.071   0.398
60601W        W22264  12.655  30.962   1.359
60602W        W22265   1.859  39.043   2.804
60603W        W22266  14.829  23.995   3.153
60604W        W22267  44.394  33.005   4.716
60605W        W22268   8.257   6.918   2.250
60606W        W22269  43.825  35.408  12.069
60607W        W22270  10.839   9.818   4.184
60608W        W22271  24.595  39.912  12.068
60609W        W22272  30.592  36.856   0.787
60610W        W22273  18.072  29.539   1.777
60611W        W22274  15.781  43.346   2.873
60612W        W22275  35.387   8.779   3.779
60613W        W22276   5.694   4.337   1.391
60614W        W22277  42.835  33.423  13.991
60615W        W22278  14.122   5.760   3.350
60616W        W22279   2.319  28.980  11.576
60617W        W22280  39.845   4.339  12.428
60618W        W22281  29.455  11.747  10.996
60619W        W22282  17.785   9.179   2.286
60620W        W22283  19.564   6.363   2.313
60621W        W22284  13.625  42.819   4.288
60622W        W22285  29.567  44.313   0.361
60623W        W22286  40.899  18.719   4.732
60624W        W22287  18.638   4.335   4.161
60625W        W22288  18.557  22.603  13.470
60626W        W22289   2.768  22.720   0.784
60627W        W22290  35.977   8.233   1.210
60628W        W22291   6.829  22.540   2.664
60629W        W22292  14.144  23.170  12.959
60630W        W22293  16.809   6.778  14.784
60631W        W22294  36.589  15.182  12.479
60632W        W22295  15.127   4.866  14.412
60633W        W22296  31.928  37.374  13.399
60634W        W22297  21.700  22.548  10.425
60635W        W22298   4.839  28.599   0.329
60636W        W22299   8.843   4.245   0.947
60637W        W22300  44.437  27.148  13.485
60638W        W22301  37.403  33.876  13.470
60639W        W22302  24.062  39.408   4.308
60640W        W22303   6.783  33.388   2.216
60641W        W22304  44.850   2.297   4.123
60642W        W22305  26.208   7.880   2.850
60643W        W22306   0.847  15.698  11.973
60644W        W22307  44.996  28.966  13.935
60645W        W22308  39.535  26.560  11.870
60646W        W22309  18.789  28.059  10.936
60647W        W22310  29.463  42.310  13.893
60648W        W22311  18.228   9.677   4.326
60649W        W22312   8.292  39.924  11.926
60650W        W22313  42.323  31.437  13.925
60651W        W22314  18.061   9.859  13.389
60652W        W22315  43.989  13.307   0.403
60653W        W22316   4.711   3.358   2.225
60654W        W22317  11.704  20.119  11.529
60655W        W22318  26.523   0.776   5.156
60656W        W22319   1.349  21.232   5.131
60657W        W22320  29.605  18.614  14.391
60658W        W22321  11.728  29.075  10.589
60659W        W22322  10.297  20.096  14.976
60660W        W22323  22.712  28.617   3.725
60661W        W22324   3.318  11.155   4.736
60662W        W22325   1.846   8.171  12.845
60663W        W22326   5.385  11.627  11.922
60664W        W22327  38.493  21.218   0.368
60665W        W22328  24.547  34.087   1.723
60666W        W22329  13.270  15.184  11.388
60667W        W22330  13.750   2.366   3.325
60668W        W22331  22.733   6.679  14.852
60669W        W22332  24.553  19.187  14.933
60670W        W22333  44.278  43.864  12.531
60671W        W22334  19.752   7.277  14.308
60672W        W22335  30.998  35.461   0.369
60673W        W22336  34.971  17.614  11.951
60674W        W22337  39.471   7.262   0.839
60675W        W22338  23.207  12.789   1.404
60676W        W22339   8.661   2.872  12.425
60677W        W22340  25.109  14.709   3.641
60678W        W22341   9.390  19.703  14.838
60679W        W22342  33.429   6.850  12.392
60680W        W22343  16.213  43.396   1.423
60681W        W22344  33.442   1.745  10.119
60682W        W22345  32.496  35.397  14.429
60683W        W22346   2.235  33.051   3.346
60684W        W22347  31.516  18.558  11.858
60685W        W22348  36.534  17.574  12.464
60686W        W22349   0.293  17.569  14.483
60687W        W22350  12.360  12.837   3.232
60688W        W22351  36.533  42.972  13.545
60689W        W22352  32.566  30.513   4.350
60690W        W22353  33.619  22.675  12.385
60691W        W22354  25.600  24.487  12.416
60692W        W22355  18.248  18.702   3.762
60693W        W22356  15.319  38.981  11.870
60694W        W22357   9.795  11.206  14.974
60695W        W22358   3.263  18.753   1.709
60696W        W22359  35.483  41.825  13.987
60697W        W22360  25.053   8.161   3.850
60698W        W22361  42.010  27.479   1.368
60699W        W22362  43.995  43.922  14.855
60700W        W22363  24.486   8.873   3.647
60701W        W22364   0.838  11.741   1.911
60702W        W22365  25.115  17.728   1.327
60703W        W22366  12.704  22.203   4.687
60704W        W22367  13.705  31.088   1.729
60705W        W22368  42.030  18.135   3.837
60706W        W22369  36.007  10.219   1.790
60707W        W22370   5.773  10.638   1.296
60708W        W22371  25.065   6.826   4.636
60709W        W22372  33.890  18.623  14.881
60710W        W22373  33.961  15.689   2.234
60711W        W22374  41.877  31.975   3.326
60712W        W22375  30.953  28.136  12.370
60713W        W22376  19.566  15.793   3.782
60714W        W22377  12.729  13.781  12.041
60715W        W22378  19.178  36.474  13.369
60716W        W22379  10.809  26.572   3.324
60717W        W22380  29.450  11.270  13.983
60718W        W22381  16.673  27.036   0.268
60719W        W22382  34.391   3.845  14.505
60720W        W22383  41.322   5.236   0.822
60721W        W22384  37.494  27.470  14.000
60722W        W22385  41.387   6.219  11.599
60723W        W22386  30.146  44.949   2.191
60724W        W22387  27.074  11.328  11.114
60725W        W22388  32.634  18.742   9.952
60726W        W22389   0.895   2.294  12.929
60727W        W22390  31.012  26.562   0.247
60728W        W22391   1.864  38.404  13.336
60729W        W22392  21.116  21.716  14.489
60730W        W22393  38.923  17.713   0.244
60731W        W22394   5.243  17.137   2.263
60732W        W22395   2.881  38.874   4.739
60733W        W22396   1.439  18.642   2.691
60734W        W22397  35.546  42.306  12.368
60735W        W22398  24.541  36.553   4.704
60736W        W22399  26.576  29.619  14.361
60737W        W22400   7.739  28.082   2.340
60738W        W22401   7.708   8.900   0.323
60739W        W22402  22.622   8.250  12.408
60740W        W22403  13.668   3.777   3.294
60741W        W22404  29.146   6.797  14.359
60742W        W22405   1.262  36.934   3.196
60743W        W22406   0.772  38.369   1.890
60744W        W22407  38.949  42.508  10.982
60745W        W22408  14.304   1.826   3.823
60746W        W22409  21.147  22.514   2.788
60747W        W22410  44.320  17.231   5.164
60748W        W22411   8.403  17.076   4.622
60749W        W22412  27.609   3.281  13.858
60750W        W22413  42.329  10.771   3.324
60751W        W22414   3.353  36.066  13.800
60752W        W22415   8.367  30.011   0.253
60753W        W22416  13.110  10.255   1.790
60754W        W22417  31.567  24.074   0.938
60755W        W22418   6.702  30.076   4.269
60756W        W22419  22.137  32.630   0.905
60757W        W22420  17.726  14.272  14.816
60758W        W22421  29.925  35.065  13.528
60759W        W22422  14.238   7.303  14.902
60760W        W22423  19.564  21.754  12.463
60761W        W22424   7.870  41.446   1.747
60762W        W22425  12.817   2.845  13.036
60763W        W22426  38.501  42.911   3.341
60764W        W22427  31.449  30.447  10.463
60765W        W22428   5.931   2.446  12.561
60766W        W22429  25.108   8.234   1.932
60767W        W22430  44.259  40.977   3.739
60768W        W22431   4.733   7.843   3.823
60769W        W22432  19.592   9.325   3.329
60770W        W22433  33.537  18.743   4.191
60771W        W22434   3.858  30.014   1.757
60772W        W22435  23.036  20.602  13.006
60773W        W22436  10.368   9.795  10.464
60774W        W22437  13.621   9.827   1.752
60775W        W22438  14.676  10.162  14.471
60776W        W22439  32.601  13.774   2.376
60777W        W22440  36.052  16.151   1.372
60778W        W22441   9.249  35.402   4.761
60779W        W22442  38.895  14.201  10.980
60780W        W22443   4.371  18.646  11.999
60781W        W22444  40.952  18.113   4.263
60782W        W22445  21.562  24.612   2.700
60783W        W22446  44.489   4.706  12.468
60784W        W22447  10.254  37.580   3.667
60785W        W22448  39.401  42.916   1.433
60786W        W22449  26.194  25.194   0.899
60787W        W22450  14.789  36.474  14.799
60788W        W22451  34.510  36.530  14.471
60789W        W22452  11.703   3.377  10.956
60790W        W22453  21.094   9.679  13.928
60791W        W22454   7.415  40.436  14.360
60792W        W22455  43.384  26.688   0.965
60793W        W22456  33.940   2.338   2.829
60794W        W22457  18.120  37.877   0.275
60795W        W22458  19.569  23.008   2.901
60796W        W22459  30.534  23.689  12.962
60797W        W22460  36.423  16.739   0.889
60798W        W22461  27.006  25.998  13.338
60799W        W22462  44.855  33.096  14.913
60800W        W22463  18.125  10.808   4.139
60801W        W22464  27.126  28.560  13.816
60802W        W22465  30.634  42.392   2.756
60803W        W22466  25.182  27.667   4.194
60804W        W22467   9.227  35.414   2.346
60805W        W22468  35.983  27.031  12.005
60806W        W22469  23.535  18.242  11.049
60807W        W22470  32.895  42.807  10.511
60808W        W22471  36.568  22.638   1.341
60809W        W22472   6.907  38.377   4.717
60810W        W22473  26.960  38.023  12.029
60811W        W22474  22.536  33.907   0.866
60812W        W22475  13.348  12.838   3.234
60813W        W22476  37.414  22.650   4.218
60814W        W22477  24.179  33.491   2.377
60815W        W22478   2.349  27.491  14.991
60816W        W22479   7.792  34.605   1.439
60817W        W22480   2.860  12.278   0.261
60818W        W22481  12.125  28.491  11.514
60819W        W22482  16.674   9.385   1.305
60820W        W22483  19.581  10.747  14.858
60821W        W22484  10.369  35.891  11.454
60822W        W22485  28.507   5.423   3.219
60823W        W22486  17.742  20.699   4.206
60824W        W22487  26.624   8.795  11.475
60825W        W22488  42.818  31.410  13.439
60826W        W22489  44.336  39.910   1.294
60827W        W22490   5.327   6.223   0.740
60828W        W22491  43.961  40.469  14.283
60829W        W22492   3.264   9.889  14.346
60830W        W22493  30.414  18.060   1.409
60831W        W22494  12.156   0.269  13.327
60832W        W22495   9.678  25.219   3.262
60833W        W22496  16.274  20.258  10.919
60834W        W22497  29.652  33.506   4.309
60835W        W22498   9.218  44.887  11.378
60836W        W22499  31.603  10.804  10.994
60837W        W22500  23.624   6.848  14.438
60838W        W22501   3.734  10.723   3.299
60839W        W22502   0.823   2.851  13.038
60840W        W22503   3.282  24.135  13.030
60841W        W22504  22.080  35.512  14.479
60842W        W22505  30.642  39.525   3.222
60843W        W22506  38.366  16.607  10.628
60844W        W22507  11.168  34.487   3.350
60845W        W22508  16.276  18.075  10.529
60846W        W22509  10.202  22.195   2.384
60847W        W22510  28.550  31.512  12.509
60848W        W22511  21.203  25.998  12.081
60849W        W22512  17.779  19.674  13.999
60850W        W22513  12.650   7.385   9.450
60851W        W22514  31.047   5.282  14.961
60852W        W22515  11.298  33.907  13.983
60853W        W22516  23.014  13.111   0.466
60854W        W22517  26.956  12.243   0.467
60855W        W22518  42.927   4.726  10.107
60856W        W22519  10.216  37.395   0.860
60857W        W22520  34.925   5.304   4.303
60858W        W22521  20.246  27.960  10.428
60859W        W22522   5.439  26.561  10.925
60860W        W22523  17.617  35.881   9.518
60861W        W22524  33.932  14.257  13.500
60862W        W22525  27.566  10.196  11.533
60863W        W22526  21.175  13.221   1.761
60864W        W22527  32.428   9.760   3.363
60865W        W22528  17.110  38.518   2.824
60866W        W22529  20.527  43.480  10.519
60867W        W22530  32.103  32.537   0.819
60868W        W22531  25.042  18.248  10.549
60869W        W22532  13.138   0.260  12.063
60870W        W22533   2.959  38.328   4.736
60871W        W22534  37.885  33.533  12.866
60872W        W22535  24.141  38.046  10.602
60873W        W22536  28.942   5.698  13.358
60874W        W22537  37.456   9.690   1.310
60875W        W22538  26.005   3.790  13.809
60876W        W22539   0.368   7.368  12.919
60877W        W22540   1.752  34.095   4.151
60878W        W22541  11.855  35.450  13.341
60879W        W22542   4.274  31.460  12.885
60880W        W22543  10.684  40.806   4.248
60881W        W22544   9.220   3.724   0.739
60882W        W22545   5.921  36.066   3.666
60883W        W22546  30.999  35.445  13.992
60884W        W22547  34.410  44.448  14.979
60885W        W22548  40.952  16.788   9.676
60886W        W22549   6.790  14.123   0.766
60887W        W22550   8.794  31.980   4.185
60888W        W22551  42.936   3.794  11.586
60889W        W22552  32.416  21.673  14.477
60890W        W22553  36.412   1.821   4.795
60891W        W22554  27.625  11.652  13.513
60892W        W22555  14.733  34.520   1.751
60893W        W22556  29.126  19.068  11.086
60894W        W22557  34.452  28.050  13.809
60895W        W22558   6.767  17.159   4.146
60896W        W22559  28.112   9.233  14.366
60897W        W22560   0.478  30.547  14.799
60898W        W22561  23.136  35.888   1.259
60899W        W22562   7.780  33.436   5.194
60900W        W22563   2.305  33.475  13.807
60901W        W22564  18.165  38.545  10.967
60902W        W22565   7.840   6.339  11.567
60903W        W22566  21.609  43.907  11.951
60904W        W22567  24.587  36.369   4.135
60905W        W22568  30.978   8.875   3.732
60906W        W22569  37.864  16.667  14.960
60907W        W22570  22.564   9.794   2.890
60908W        W22571  43.496  42.871   5.288
60909W        W22572   1.331  17.596  13.046
60910W        W22573   5.372  26.153  13.898
60911W        W22574  13.223   3.860   0.814
60912W        W22575  33.441  41.351  13.408
60913W        W22576  34.920  34.876   5.268
60914W        W22577  15.721   4.334  12.991
60915W        W22578  11.215  28.116  13.425
60916W        W22579  36.460   4.838  14.507
60917W        W22580  24.110  32.577  11.889
60918W        W22581  35.386  38.434  14.951
60919W        W22582   4.840  27.118  11.552
60920W        W22583  32.603   1.446   4.642
60921W        W22584   3.396   1.790  11.078
60922W        W22585   3.928   0.947   3.717
60923W        W22586   5.299  38.970  11.457
60924W        W22587   0.338  39.027   3.147
60925W        W22588  33.895  27.486  14.782
60926W        W22589  30.483  12.271   2.189
60927W        W22590  19.685   8.225  14.964
60928W        W22591  27.508  14.728  10.919
60929W        W22592  32.023  13.260   2.796
60930W        W22593  17.715   1.436   4.712
60931W        W22594  15.222  39.535   0.917
60932W        W22595  28.110   1.823  11.908
60933W        W22596  29.481  31.081  10.453
60934W        W22597  42.982  44.410   0.303
60935W        W22598  25.619  34.919   4.168
60936W        W22599  18.187  12.119   0.940
60937W        W22600  36.437  24.647  13.465
60938W        W22601  22.544   9.292  14.859
60939W        W22602  42.945  31.407   2.264
60940W        W22603  24.549  31.619   4.828
60941W        W22604   4.234  38.551  13.896
60942W        W22605   4.329  41.839   3.177
60943W        W22606  15.097   0.963  14.387
60944W        W22607   3.384  40.453  14.799
60945W        W22608  31.409  28.461   4.800
60946W        W22609   3.377  14.716   1.212
60947W        W22610  33.035  16.689   4.208
60948W        W22611   9.221   7.255  12.473
60949W        W22612   4.367   9.868   1.777
60950W        W22613  42.958  10.355   1.833
60951W        W22614  29.969  41.940  11.921
60952W        W22615  18.584  35.463   2.280
60953W        W22616   0.800  30.939  10.563
60954W        W22617  30.158  37.043   0.915
60955W        W22618  16.668   2.908   0.410
60956W        W22619  35.102  29.141  13.382
60957W        W22620   1.921   2.784  14.320
60958W        W22621  31.553  16.076   3.772
60959W        W22622  20.028   4.225   2.666
60960W        W22623  36.580  41.957   1.717
60961W        W22624  43.779   4.821  10.476
60962W        W22625   9.167  13.605   1.778
60963W        W22626  39.373  21.698   2.834
60964W        W22627  28.117   5.364  11.463
60965W        W22628  44.001  39.913  13.502
60966W        W22629  30.640   6.823   3.810
60967W        W22630   4.831  23.613  12.375
60968W        W22631  10.198  29.137   2.387
60969W        W22632  12.216   1.843   2.294
60970W        W22633  11.654  43.004  14.380
60971W        W22634  23.619  29.480  10.522
60972W        W22635  19.275  33.497   3.823
60973W        W22636  36.043  29.027  14.512
60974W        W22637   9.812  35.909   3.195
60975W        W22638  25.219  27.562   1.405
60976W        W22639   0.783   5.749  13.502
60977W        W22640   4.750  35.044  12.406
60978W        W22641  13.126   3.282  14.401
60979W        W22642  25.602  21.646  10.554
60980W        W22643  11.174  30.111   2.885
60981W        W22644  25.656  25.494   2.791
60982W        W22645  27.048   4.221   3.781
60983W        W22646  40.367  32.097   3.258
60984W        W22647  41.464  18.567   4.835
60985W        W22648   6.914  12.119  13.802
60986W        W22649  14.228  16.675   3.274
60987W        W22650  17.618  26.541  13.532
60988W        W22651  16.249  18.242   4.343
60989W        W22652  34.443  33.531   4.329
60990W        W22653  21.564   3.732  12.503
60991W        W22654  18.610  19.748  12.441
60992W        W22655  37.943  41.848  13.915
60993W        W22656  36.405  11.810   4.343
60994W        W22657  20.612  11.308   2.684
60995W        W22658  35.573   0.427  11.027
60996W        W22659  16.689  25.571  14.441
60997W        W22660  27.520  12.311  12.042
60998W        W22661  34.573   3.824   2.354
60999W        W22662  17.649  33.612   0.322
61000W        W22663  18.643  39.486   3.175
61001W        W22664  41.321   8.217   3.854
61002W        W22665  12.666  26.568  14.445
61003W        W22666   7.242  25.088   3.818
61004W        W22667  32.591  33.093  14.477
61005W        W22668  25.101  28.604  13.447
61006W        W22669  19.105  17.681  11.554
61007W        W22670  15.133   1.349   1.835
61008W        W22671  37.444  21.137   2.734
61009W        W22672  16.239  20.125   3.211
61010W        W22673  44.397  13.641   5.573
61011W        W22674  25.081  25.983   3.738
61012W        W22675   3.884  23.009  13.446
61013W        W22676  26.029  31.936  12.904
61014W        W22677  27.570  31.973   4.707
61015W        W22678  40.956  23.158   1.388
61016W        W22679   0.829  17.089   5.232
61017W        W22680  14.236  36.572   4.628
61018W        W22681   9.188  27.131   3.308
61019W        W22682  40.824  42.790  11.545
61020W        W22683  34.076   6.716   2.356
61021W        W22684  28.660  26.701  11.468
61022W        W22685  24.125  12.293  13.483
61023W        W22686  27.638   2.783   4.260
61024W        W22687  30.913  17.152  14.914
61025W        W22688  18.689  42.887  11.390
61026W        W22689   7.864  27.079  12.571
61027W        W22690  16.299  39.906   1.915
61028W        W22691  42.344  43.328  14.500
61029W        W22692  31.038  31.632  11.908
61030W        W22693  34.958  41.008   0.937
61031W        W22694  22.574  25.501   3.359
61032W        W22695   5.358   9.686   0.250
61033W        W22696  11.644  27.188   4.776
61034W        W22697  22.144   4.450   2.290
61035W        W22698  22.505  18.252  14.884
61036W        W22699  30.549   8.689  13.440
61037W        W22700   8.216  38.062  12.878
61038W        W22701  38.820  14.119  10.161
61039W        W22702  43.854  12.358  11.100
61040W        W22703  17.768  38.964  13.019
61041W        W22704   6.239  13.251   3.828
61042W        W22705  21.175  16.301   0.783
61043W        W22706   2.948   6.345   2.271
61044W        W22707   2.755   0.358  14.893
61045W        W22708   5.693   4.915  13.895
61046W        W22709  29.526  17.279   0.365
61047W        W22710  32.544  44.264   4.162
61048W        W22711   4.759   6.905   1.881
61049W        W22712  30.139  24.132   4.764
61050W        W22713  29.113  28.151  11.058
61051W        W22714  24.554  35.951   2.334
61052W        W22715  21.090  38.530  12.350
61053W        W22716   8.900   2.337   3.750
61054W        W22717  44.460  27.069   2.226
61055W        W22718   8.244  42.420  14.833
61056W        W22719  11.811   5.704   3.374
61057W        W22720  23.643  29.624  11.590
61058W        W22721  10.730  19.162  13.424
61059W        W22722  16.749  19.543   2.266
61060W        W22723  38.523   9.200  13.351
61061W        W22724   4.864   8.709   2.313
61062W        W22725  24.552  25.176  11.405
61063W        W22726  36.076  13.672  14.356
61064W        W22727  32.467   2.387  12.919
61065W        W22728  31.409  36.992   2.692
61066W        W22729  10.351  10.646   2.684
61067W        W22730  28.980  12.169   2.846
61068W        W22731  31.017  24.982   0.822
61069W        W22732  29.152  43.929   0.347
61070W        W22733  14.118  20.170  13.424
61071W        W22734  37.940  23.169  11.408
61072W        W22735   0.337  24.193  14.509
61073W        W22736  22.618  21.722   3.853
61074W        W22737  32.929  40.347  13.896
61075W        W22738  21.156  27.642  14.963
61076W        W22739  37.846  43.910  13.795
61077W        W22740  22.579  39.887   2.801
61078W        W22741  10.725  21.072   1.867
61079W        W22742  30.058   9.319   1.419
61080W        W22743  11.318  24.585  11.086
61081W        W22744  31.040  10.648  10.414
61082W        W22745  15.798   3.932   2.766
61083W        W22746  29.120  29.628  12.420
61084W        W22747  36.074   6.785  11.464
61085W        W22748   3.415  38.016  12.547
61086W        W22749  17.117  34.998  12.466
61087W        W22750   4.945   6.247   3.349
61088W        W22751  35.455  44.799  13.929
61089W        W22752  44.357  42.329   1.704
61090W        W22753  40.388  39.527   2.757
61091W        W22754  42.974   4.349   4.188
61092W        W22755  24.527  19.095  12.949
61093W        W22756  10.856  30.611   0.863
61094W        W22757  43.362  17.784  10.597
61095W        W22758  26.655   9.721   4.162
61096W        W22759   1.384  32.542   2.258
61097W        W22760  33.879  44.850   2.689
61098W        W22761  40.451  35.497  11.504
61099W        W22762  40.501  28.502  13.355
61100W        W22763  30.512  38.946  11.894
61101W        W22764  12.152  42.003   4.273
61102W        W22765  15.099  44.412   2.294
61103W        W22766  27.195  16.104  14.875
61104W        W22767  37.975   2.344   0.937
61105W        W22768  29.631   0.390  12.007
61106W        W22769  31.636  32.001   3.344
61107W        W22770   9.686  40.931  12.831
61108W        W22771  21.153   6.380  11.388
61109W        W22772   9.169  30.563  11.597
61110W        W22773   2.330  17.265  10.405
61111W        W22774  26.567  34.593   3.770
61112W        W22775  41.502  19.263   1.933
61113W        W22776  42.313  12.324   4.678
61114W        W22777  34.043  23.062  14.010
61115W        W22778  14.146  13.274   3.653
61116W        W22779  14.252  27.633   1.367
61117W        W22780  15.157  43.413   1.888
61118W        W22781  29.512  18.250   4.747
61119W        W22782  23.002  21.229  13.474
61120W        W22783  33.589  42.445   2.829
61121W        W22784  12.751  22.072  11.023
61122W        W22785   1.304  36.980   4.782
61123W        W22786  25.010  15.188   1.433
61124W        W22787  29.968   9.355  14.502
61125W        W22788   8.184  28.098   2.322
61126W        W22789  29.999  13.785  12.501
61127W        W22790  43.793  37.553  11.904
61128W        W22791  41.976  27.012  13.327
61129W        W22792  18.114  29.939  13.033
61130W        W22793  37.362  29.621  11.913
61131W        W22794   6.218  20.647   2.843
61132W        W22795  31.532   4.906   4.282
61133W        W22796   5.351  15.221   0.781
61134W        W22797  15.330  14.795  10.999
61135W        W22798  27.958  22.091  10.941
61136W        W22799  28.036  40.509  13.981
61137W        W22800   4.422   9.311   0.813
61138W        W22801   2.860  39.543  12.872
61139W        W22802  23.530   4.208  13.018
61140W        W22803  24.686  40.477  11.523
61141W        W22804  32.921  29.128  11.979
61142W        W22805  43.378  16.600  14.409
61143W        W22806  29.939  34.460  14.514
61144W        W22807  16.282  27.531   1.262
61145W        W22808  28.086  37.557   0.468
61146W        W22809  20.675  42.899   1.765
61147W        W22810  16.126  37.016  13.367
61148W        W22811  37.962  19.157   3.861
61149W        W22812  22.545  21.721  13.959
61150W        W22813   5.292   0.454  10.941
61151W        W22814  20.147  37.429  10.046
61152W        W22815   8.861  27.559  12.975
61153W        W22816   0.383   1.363  11.948
61154W        W22817   2.753  25.965   4.158
61155W        W22818  41.524  18.590  11.115
61156W        W22819  30.464  26.137   1.929
61157W        W22820  37.050  42.791  14.344
61158W        W22821  43.300  39.846   5.284
61159W        W22822  32.530  19.240   3.759
61160W        W22823  40.835   4.228  14.489
61161W        W22824  40.968  18.182   1.430
61162W        W22825  25.976   7.879   2.283
61163W        W22826  31.111  36.051   0.857
61164W        W22827  29.064  33.115  14.972
61165W        W22828  36.448  32.581   3.761
61166W        W22829   4.824  24.558  10.982
61167W        W22830  39.375  15.681   4.778
61168W        W22831   1.396  24.685   3.748
61169W        W22832  19.089  34.007  13.546
61170W        W22833  34.961   5.834  10.084
61171W        W22834  41.895  16.245  13.803
61172W        W22835  32.517  31.964   3.767
61173W        W22836  24.983  38.347  12.525
61174W        W22837  17.802  43.492   3.251
61175W        W22838  34.118  31.487   1.427
61176W        W22839  34.503  25.647   3.795
61177W        W22840  21.249   2.379   4.701
61178W        W22841  35.552  22.231  14.785
61179W        W22842  17.695  30.648  10.972
61180W        W22843  38.530  24.713  11.917
61181W        W22844   3.916  12.193  12.562
61182W        W22845  44.918   5.391  11.997
61183W        W22846   2.349  13.327   3.846
61184W        W22847  20.097  22.602   4.221
61185W        W22848  28.988  19.239  12.462
61186W        W22849  33.402  24.010  13.468
61187W        W22850   9.860   2.369  11.529
61188W        W22851  40.053  16.217   1.749
61189W        W22852  14.670  10.864   3.705
61190W        W22853  30.523  18.184   0.755
61191W        W22854  31.443  21.032   1.772
61192W        W22855  21.564  42.521   1.729
61193W        W22856  11.747  22.587  12.518
61194W        W22857  34.912  21.621   4.703
61195W        W22858   0.907  11.685  13.501
61196W        W22859  17.091  43.282   2.331
61197W        W22860  25.573  23.490  10.591
61198W        W22861  10.852  20.610   1.758
61199W        W22862   9.730   0.420  14.887
61200W        W22863  31.100  39.862  12.999
61201W        W22864  43.835  13.336   3.799
61202W        W22865  13.108   8.326  12.826
61203W        W22866  23.073  39.033  14.001
61204W        W22867  41.845  29.664  12.374
61205W        W22868  11.149   0.982  11.474
61206W        W22869  15.303  28.110   2.223
61207W        W22870  21.254   0.931   0.449
61208W        W22871  25.660  44.896   1.354
61209W        W22872  29.022  31.035  10.460
61210W        W22873  29.065   3.256   1.784
61211W        W22874  39.052  28.480   0.410
61212W        W22875  21.048  28.439  10.522
61213W        W22876   3.322   7.222  10.587
61214W        W22877  14.704  26.977   4.710
61215W        W22878  25.012  18.193  11.908
61216W        W22879  41.789  15.794  11.116
61217W        W22880  17.152  32.112   0.362
61218W        W22881  32.552  10.855   1.843
61219W        W22882  26.156  36.471   0.876
61220W        W22883  40.821   5.412  13.315
61221W        W22884  30.051  14.100  14.304
61222W        W22885  40.847   0.793   3.295
61223W        W22886  39.336  27.979  14.848
61224W        W22887  13.322   0.973   2.333
61225W        W22888  16.631  37.574  11.606
61226W        W22889  43.773  25.014   3.324
61227W        W22890  13.228  40.522   0.857
61228W        W22891  23.013  43.962   4.307
61229W        W22892   3.281  23.184  10.412
61230W        W22893   2.371   0.384   3.295
61231W        W22894  30.052  19.679   4.254
61232W        W22895  42.948  19.708  12.428
61233W        W22896  34.461  38.420   4.740
61234W        W22897   3.268  10.276  11.397
61235W        W22898   1.269  24.135  10.473
61236W        W22899  42.785  13.682   1.756
61237W        W22900  41.404  31.628   4.343
61238W        W22901   1.810  16.620  10.993
61239W        W22902  36.971  21.096   1.765
61240W        W22903   8.723   3.722  11.546
61241W        W22904  41.484  25.510  10.949
61242W        W22905  30.549  39.891   4.128
61243W        W22906   3.262  37.496   4.223
61244W        W22907  42.421   1.851   3.808
61245W        W22908  19.092  23.177   1.866
61246W        W22909   3.388  14.148  13.428
61247W        W22910  27.025   0.251  14.839
61248W        W22911   5.312  12.643   1.699
61249W        W22912   4.365  44.264  12.941
61250W        W22913  35.577  18.625   4.300
61251W        W22914   7.187  13.309  12.971
61252W        W22915   9.320  44.787   4.712
61253W        W22916  14.684  25.487  14.864
61254W        W22917  23.560   7.304   1.291
61255W        W22918   9.255  33.482   3.702
61256W        W22919  37.973  21.066   3.364
61257W        W22920  39.973  21.758  13.377
61258W        W22921   9.802   6.763   3.267
61259W        W22922  31.936  42.490  11.504
61260W        W22923  24.216  43.303   2.816
61261W        W22924   1.445  39.838  13.541
61262W        W22925  10.822  12.261   2.805
61263W        W22926   7.855   2.349   0.949
61264W        W22927  42.361   6.816   2.803
61265W        W22928  12.816  13.620  12.419
61266W        W22929  14.095  20.067   0.870
61267W        W22930  40.868   7.863   9.590
61268W        W22931   2.404  29.121   4.251
61269W        W22932  22.137  10.656   4.299
61270W        W22933  38.062  33.551   4.806
61271W        W22934   0.786  18.699  11.460
61272W        W22935  44.484  11.247   1.777
61273W        W22936  43.395  29.553   3.827
61274W        W22937  22.591   0.310  10.482
61275W        W22938   5.697  32.905  10.603
61276W        W22939  40.537  41.325  12.957
61277W        W22940  21.179  16.758  14.851
61278W        W22941  29.038   8.322   2.254
61279W        W22942   6.257  11.722   3.235
61280W        W22943  27.520  42.316   2.878
61281W        W22944  41.475  25.981  13.927
61282W        W22945   1.286  44.312   1.776
61283W        W22946   8.235   7.365  12.068
61284W        W22947  32.464  16.765  10.566
61285W        W22948   6.326  44.912  10.462
61286W        W22949   9.754  42.939   4.729
61287W        W22950  38.001  21.679  14.293
61288W        W22951  10.657  20.187  11.596
61289W        W22952  18.698   1.782  11.031
61290W        W22953  27.195   3.348  11.508
61291W        W22954  20.210  15.281  14.939
61292W        W22955   4.838  21.594  12.363
61293W        W22956  43.469   8.316   3.337
61294W        W22957  39.485  38.499  12.049
61295W        W22958  21.253  30.428   2.894
61296W        W22959  18.686  12.813   1.872
61297W        W22960   0.756   8.837   5.152
61298W        W22961  43.351   9.270   3.776
61299W        W22962  18.283  30.157  11.861
61300W        W22963  32.946  28.627   2.396
61301W        W22964  40.835   0.763   2.713
61302W        W22965  27.580  39.003   0.383
61303W        W22966  20.740   6.353   4.288
61304W        W22967  19.183  17.213   2.348
61305W        W22968  23.180  24.488   9.644
61306W        W22969   9.859  27.572  12.855
61307W        W22970   7.394  17.763  10.911
61308W        W22971  34.045   4.873   2.661
61309W        W22972  15.688  14.171   2.850
61310W        W22973   9.776  11.206  13.400
61311W        W22974  15.786   8.795   3.346
61312W        W22975  28.100  41.791  12.436
61313W        W22976  14.820  18.174   3.869
61314W        W22977   6.795  40.420  14.911
61315W        W22978  14.781  34.438   3.163
61316W        W22979  24.580  24.490  10.050
61317W        W22980   0.285  44.345   1.384
61318W        W22981  27.479  39.451  14.336
61319W        W22982  22.675  24.220   4.679
61320W        W22983  23.187  15.763   0.295
61321W        W22984  24.058  29.469  12.406
61322W        W22985  17.738  22.550  12.500
61323W        W22986  30.978  13.650  12.865
61324W        W22987  19.558  39.380   2.340
61325W        W22988   2.420  38.542   0.886
61326W        W22989   3.349  14.227  13.859
61327W        W22990  22.630   8.401   0.463
61328W        W22991  21.623  18.131   2.252
61329W        W22992   5.355  15.314   2.806
61330W        W22993  10.268  21.195   1.759
61331W        W22994  14.330  14.719  14.437
61332W        W22995  40.331   1.306  14.787
61333W        W22996   7.312  27.539  10.482
61334W        W22997  24.593  26.989   5.208
61335W        W22998  14.115  27.544  13.824
61336W        W22999  10.648  18.593  11.518
61337W        W23000  43.963  14.278   2.824
61338W        W23001   8.375  17.665   3.666
61339W        W23002   6.427  19.210   3.710
61340W        W23003  44.851  40.325  10.610
61341W        W23004  18.227  28.489  11.535
61342W        W23005   4.216  19.272  10.978
61343W        W23006   6.301  11.828   0.450
61344W        W23007  27.543  28.583  12.363
61345W        W23008  44.923  24.543  12.080
61346W        W23009  17.213  28.959   4.170
61347W        W23010  14.618  24.710   3.831
61348W        W23011  16.128  11.244   1.353
61349W        W23012   6.882   4.250   1.888
61350W        W23013  43.365  14.687  12.036
61351W        W23014   6.845  14.298   2.366
61352W        W23015  16.613  23.031   2.806
61353W        W23016  32.935  19.750   5.656
61354W        W23017   0.425  27.164   0.404
61355W        W23018  19.564   8.864   3.657
61356W        W23019  18.648   8.378  13.865
61357W        W23020  27.657   8.688   3.805
61358W        W23021  43.318   1.836   3.836
61359W        W23022  12.278   4.412   4.299
61360W        W23023  25.500   7.255  11.962
61361W        W23024  33.956  30.536   2.715
61362W        W23025  34.563   7.735   2.278
61363W        W23026  31.079   0.862   2.197
61364W        W23027  20.737  42.306   2.405
61365W        W23028  23.044  42.981   0.351
61366W        W23029  39.547  18.087  14.444
61367W        W23030  15.670  12.627  12.552
61368W        W23031  17.142  41.466  10.445
61369W        W23032  22.629  21.726  10.517
61370W        W23033  39.527  28.985   4.655
61371W        W23034  10.836  13.140  13.435
61372W        W23035  35.863  11.311  12.374
61373W        W23036  26.120  29.050   3.299
61374W        W23037  31.018  31.965  11.868
61375W        W23038  19.223  12.350   0.415
61376W        W23039  41.424  42.991  12.867
61377W        W23040  44.457   5.215  10.956
61378W        W23041   6.389  31.994   1.915
61379W        W23042   5.846  16.649  14.784
61380W        W23043   1.311   7.700   0.932
61381W        W23044  23.723  23.085   0.881
61382W        W23045  16.643  21.560  14.981
61383W        W23046  30.908   7.846   0.468
61384W        W23047  32.514  41.409  12.460
61385W        W23048   6.340  18.162   1.266
61386W        W23049  15.706   9.225   1.273
61387W        W23050  34.931  25.713  12.475
61388W        W23051  26.092  29.669   4.306
61389W        W23052  40.828  30.450   4.788
61390W        W23053  22.533  21.055   3.848
61391W        W23054   5.200  32.002  14.374
61392W        W23055   6.185  22.699   1.290
61393W        W23056  11.756   2.899   3.691
61394W        W23057  16.106  40.834   4.701
61395W        W23058  18.742   0.250  13.937
61396W        W23059  38.011  19.260   1.821
61397W        W23060  19.568  29.622   3.770
61398W        W23061  39.983  31.972   1.918
61399W        W23062  17.122   1.970  10.645
61400W        W23063  25.495  40.046  13.392
61401W        W23064  27.652  11.736   1.754
61402W        W23065  12.315  36.090  11.428
61403W        W23066  40.503   7.241   4.610
61404W        W23067  18.291  31.502  14.395
61405W        W23068  27.137  34.010   1.744
61406W        W23069  38.499   5.824   3.837
61407W        W23070  12.758   5.436  11.887
61408W        W23071  28.111  36.477   9.939
61409W        W23072   9.167  21.530   4.696
61410W        W23073  20.135  22.525   2.665
61411W        W23074   4.837  38.837  12.489
61412W        W23075  43.482  23.594  11.067
61413W        W23076   6.885   6.857   4.199
61414W        W23077  10.695  20.619  10.976
61415W        W23078   7.308  21.720   1.283
61416W        W23079  10.175  39.992  14.439
61417W        W23080   0.402  41.940  10.637
61418W        W23081  19.564   1.828  12.080
61419W        W23082   7.306  24.215   0.311
61420W        W23083  44.375  18.732  13.525
61421W        W23084   4.410  43.418  13.855
61422W        W23085  35.553  21.197  11.404
61423W        W23086   7.760  12.234  11.547
61424W        W23087  19.732  35.056  13.888
61425W        W23088   1.398  15.228   4.263
61426W        W23089   2.886  12.263  14.886
61427W        W23090  20.141  35.992   2.290
61428W        W23091  39.839   3.805  13.986
61429W        W23092   7.680  17.787  12.436
61430W        W23093  26.608   7.323   1.750
61431W        W23094  10.148  39.484  10.621
61432W        W23095  33.427  40.316   1.249
61433W        W23096  32.622  16.090  14.408
61434W        W23097   6.286  12.139  14.309
61435W        W23098  26.093  30.525   0.933
61436W        W23099  10.370  11.249   3.740
61437W        W23100   3.448  35.570   4.719
61438W        W23101   5.784  13.706   0.479
61439W        W23102  39.555   9.798  12.905
61440W        W23103  24.210   0.890  13.545
61441W        W23104   6.686  21.518   2.677
61442W        W23105  27.655  41.009  13.367
61443W        W23106  15.693   2.351  10.997
61444W        W23107  39.517  37.536  11.448
61445W        W23108  33.926  32.905  13.993
61446W        W23109   0.936   4.244  14.301
61447W        W23110  36.511  21.257   3.715
61448W        W23111  23.203  20.615  13.360
61449W        W23112  21.703  42.388  10.408
61450W        W23113  18.104  19.064  12.571
61451W        W23114   7.171  34.107  13.986
61452W        W23115  34.974  31.423  10.900
61453W        W23116  27.065  19.623  11.473
61454W        W23117  35.562  22.061   4.194
61455W        W23118  18.239  20.242  10.904
61456W        W23119  26.115  41.428  14.434
61457W        W23120  31.501  18.749   3.629
61458W        W23121  44.471  38.015   0.850
61459W        W23122   4.220  12.634  12.520
61460W        W23123   2.349  37.082  11.105
61461W        W23124  44.402  13.610  13.064
61462W        W23125  19.207   5.694   4.222
61463W        W23126   0.312   5.227   3.743
61464W        W23127  18.119  25.707  12.082
61465W        W23128  38.356  22.728  12.453
61466W        W23129  42.847  16.186   0.816
61467W        W23130  30.654  41.313   1.213
61468W        W23131   6.853  42.454   3.722
61469W        W23132  16.145  13.780  14.507
61470W        W23133   6.282  27.606   1.328
61471W        W23134  15.724  19.148  13.518
61472W        W23135  23.088  15.149  11.427
61473W        W23136  15.774  12.349   2.702
61474W        W23137  33.911   9.244   3.160
61475W        W23138  32.031  26.679  14.993
61476W        W23139   3.808  11.737  14.882
61477W        W23140  38.325  14.754  10.535
61478W        W23141  28.466  43.932  10.617
61479W        W23142   9.849  24.020  12.926
61480W        W23143  16.143  13.679   4.145
61481W        W23144  25.586  22.639   1.300
61482W        W23145  34.519   6.747  13.867
61483W        W23146  34.029  35.526  11.491
61484W        W23147  32.595  34.590   4.259
61485W        W23148   1.325   3.789  11.065
61486W        W23149   5.424  35.912   5.254
61487W        W23150   7.215  20.124   4.621
61488W        W23151  21.721  21.526  10.446
61489W        W23152  35.881  24.690   1.789
61490W        W23153  24.104  15.298   0.434
61491W        W23154  42.427  22.714   0.333
61492W        W23155  42.519  36.893  13.892
61493W        W23156  17.288  12.318  10.915
61494W        W23157  35.041  37.984  12.430
61495W        W23158  30.630  22.628  14.445
61496W        W23159  39.536  17.791   1.833
61497W        W23160  36.555  19.175  13.880
61498W        W23161  35.915  41.377   3.354
61499W        W23162  44.381  34.501   2.220
61500W        W23163  39.535   0.436   0.258
61501W        W23164  21.520  14.166   4.761
61502W        W23165  14.783   3.423  12.463
61503W        W23166  28.627  13.636   0.293
61504W        W23167  36.995  32.569  13.424
61505W        W23168   3.880  27.691   2.783
61506W        W23169  42.514  27.116  13.059
61507W        W23170  35.071  35.892  11.989
61508W        W23171  36.385   8.283  11.966
61509W        W23172  21.127  41.482   4.676
61510W        W23173  26.025  34.516   1.362
61511W        W23174  31.116   7.365  11.112
61512W        W23175  19.704  10.281  10.949
61513W        W23176  38.399  38.052   2.746
61514W        W23177  32.049  19.734   1.443
61515W        W23178   6.698  33.485   1.403
61516W        W23179  30.553  33.432   0.811
61517W        W23180  39.012  10.151   0.317
61518W        W23181  42.917  27.090  14.464
61519W        W23182  16.677  36.564   4.335
61520W        W23183   6.909  26.653  12.400
61521W        W23184  28.537   2.274   2.801
61522W        W23185  21.688  38.883  10.586
61523W        W23186  10.326  30.090   3.357
61524W        W23187  22.140  22.666  13.877
61525W        W23188  40.832  17.117  10.947
61526W        W23189  18.280   3.918   3.707
61527W        W23190   1.886  30.971  11.887
61528W        W23191  33.066   2.838  11.091
61529W        W23192  15.136  30.606  13.422
61530W        W23193  16.146   1.385   2.218
61531W        W23194  24.488  35.403  11.470
61532W        W23195   3.273  13.114   0.741
61533W        W23196  44.784   4.434   0.803
61534W        W23197  11.700  28.586  11.050
61535W        W23198  16.255  22.591   4.352
61536W        W23199   5.413   7.388   1.699
61537W        W23200  38.842  24.495   5.222
61538W        W23201  33.498   8.710  11.449
61539W        W23202  41.930  37.071   0.299
61540W        W23203  34.408  17.707   0.758
61541W        W23204   2.737  23.090   3.707
61542W        W23205  31.448  31.614  14.993
61543W        W23206  22.079  17.676  14.327
61544W        W23207  13.306  44.488  10.946
61545W        W23208   0.956  30.453  14.815
61546W        W23209  36.446   5.764  14.369
61547W        W23210  41.796  32.054   2.375
61548W        W23211  33.964   8.854  11.928
61549W        W23212  29.161  44.928   3.832
61550W        W23213  35.096  31.641   3.751
61551W        W23214  20.673  42.874  11.493
61552W        W23215  16.572  12.325  14.908
61553W        W23216  36.559  18.266  11.899
61554W        W23217  40.511  32.473  10.423
61555W        W23218  25.566  33.916   4.210
61556W        W23219   4.862  30.929  13.427
61557W        W23220  21.722  25.547  11.059
61558W        W23221  14.710  16.640   0.855
61559W        W23222  37.063  27.613   1.881
61560W        W23223  25.502  40.399  11.953
61561W        W23224  13.211  29.082   1.236
61562W        W23225  21.216   1.415   1.847
61563W        W23226  26.166  39.450  14.503
61564W        W23227  25.575  13.172  12.941
61565W        W23228   1.475  29.631   0.386
61566W        W23229  29.446  17.651  10.582
61567W        W23230  40.349  43.453  13.043
61568W        W23231  26.993  24.612  13.931
61569W        W23232  11.741  42.008  14.855
61570W        W23233  37.373  41.009  13.483
61571W        W23234   6.284  27.447  13.312
61572W        W23235  14.694   5.721  13.862
61573W        W23236   6.403  10.788  13.438
61574W        W23237  29.151  25.016  14.884
61575W        W23238  36.917  41.924  12.491
61576W        W23239   3.885  14.794  14.811
61577W        W23240  31.580  32.628   1.379
61578W        W23241  27.977  11.641  14.308
61579W        W23242  12.273   8.779   2.328
61580W        W23243   7.820  16.160  13.434
61581W        W23244  31.585  24.059  10.406
61582W        W23245  37.395  31.442  12.944
61583W        W23246  11.833  16.607   2.388
61584W        W23247  15.759  14.211  14.943
61585W        W23248  16.782  22.712   3.268
61586W        W23249  14.771  11.285   1.223
61587W        W23250  30.988  26.969   4.747
61588W        W23251  38.009  33.984  13.495
61589W        W23252   3.887  12.277  14.511
61590W        W23253  31.446  35.074  13.348
61591W        W23254  30.000  39.550   1.921
61592W        W23255  37.359  10.296  12.866
61593W        W23256  11.270  23.031   4.127
61594W        W23257  30.658   8.658  11.479
61595W        W23258  43.875  32.925   4.662
61596W        W23259  27.165  36.887  11.060
61597W        W23260  23.633   5.834   0.961
61598W        W23261  23.671  36.408   1.330
61599W        W23262   0.271   5.319   3.267
61600W        W23263   4.913  18.657  11.497
61601W        W23264  36.902   4.902   0.764
61602W        W23265  22.721  10.376   0.368
61603W        W23266  39.023  12.632   2.214
61604W        W23267  31.521  20.130   0.430
61605W        W23268  15.772  37.086  13.823
61606W        W23269  17.123  24.542   3.848
61607W        W23270  12.288  15.205   0.255
61608W        W23271  36.907  30.163   3.168
61609W        W23272  13.312  36.039  12.907
61610W        W23273  37.902   0.370  14.470
61611W        W23274  25.630  19.102  10.436
61612W        W23275  24.598  12.319   0.424
61613W        W23276  15.278  43.994   3.744
61614W        W23277  29.659  30.057  14.946
61615W        W23278  24.509   5.423  12.084
61616W        W23279  19.722  37.443  11.443
61617W        W23280  24.077  38.408   3.847
61618W        W23281  33.600   4.439   1.918
61619W        W23282  43.013  35.546  10.945
61620W        W23283  30.147   0.292  11.982
61621W        W23284   6.418  38.511   2.185
61622W        W23285  26.967  27.127   2.689
61623W        W23286  26.036  14.123  13.543
61624W        W23287  14.646  30.542   2.393
61625W        W23288   7.318   5.813   2.182
61626W        W23289  37.544  35.994  12.999
61627W        W23290  15.247  16.212   1.262
61628W        W23291  10.337  27.995  11.865
61629W        W23292  20.264   3.841   3.863
61630W        W23293  26.168  36.045  13.932
61631W        W23294  32.568  10.724   1.434
61632W        W23295  38.452  39.478   2.415
61633W        W23296  14.250  23.151  11.475
61634W        W23297  28.020   9.793  14.456
61635W        W23298  39.510  29.460  11.397
61636W        W23299  44.923   9.165   2.205
61637W        W23300  43.504  16.606   0.287
61638W        W23301  44.465  16.145   1.790
61639W        W23302   9.817  43.409   4.613
61640W        W23303   7.692  27.045  14.491
61641W        W23304  14.157  10.737  14.816
61642W        W23305  21.243  12.716  11.972
61643W        W23306  11.864  36.912   5.806
61644W        W23307  41.832   7.721  12.341
61645W        W23308  11.795  10.782   1.696
61646W        W23309  19.058  41.469  11.400
61647W        W23310  23.231  34.517  10.526
61648W        W23311   3.929  38.839  12.879
61649W        W23312  35.489  40.341   4.775
61650W        W23313  29.448  10.841   4.118
61651W        W23314  22.569  38.922   0.894
61652W        W23315  36.903  20.535   2.178
61653W        W23316  37.919  42.288  14.768
61654W        W23317   4.784  37.336   0.772
61655W        W23318  27.654  36.849   0.479
61656W        W23319  30.413   4.788  10.920
61657W        W23320  20.246  24.128  13.050
61658W        W23321  23.068  27.128  14.425
61659W        W23322  13.620  21.725  11.936
61660W        W23323  23.026  25.167  11.951
61661W        W23324  38.889  44.355  13.857
61662W        W23325  36.435   4.798   4.160
61663W        W23326  14.737   2.948   3.850
61664W        W23327   1.905  26.044  11.532
61665W        W23328   0.815   2.917  13.874
61666W        W23329  22.514  18.122   4.291
61667W        W23330   5.883  13.154  10.542
61668W        W23331  18.760  32.984   1.424
61669W        W23332   5.227   0.853   4.253
61670W        W23333  35.902  43.890  11.025
61671W        W23334  26.660  27.964   2.408
61672W        W23335  34.518   8.279   1.248
61673W        W23336  37.002  34.104   1.447
61674W        W23337  13.147  13.841   0.250
61675W        W23338  44.971   6.224   1.840
61676W        W23339  42.416  35.952   1.887
61677W        W23340   0.964  31.423  10.611
61678W        W23341   3.843  16.726   4.220
61679W        W23342  18.553  17.713  12.867
61680W        W23343  41.378  41.312  11.100
61681W        W23344  43.496  30.577   3.789
61682W        W23345  11.768  32.579   2.667
61683W        W23346   4.221  22.587  14.388
61684W        W23347  27.679   4.311   0.773
61685W        W23348   8.894  39.034  13.012
61686W        W23349  18.188  21.611  10.423
61687W        W23350   7.389  33.470   2.792
61688W        W23351  28.167  24.229  14.005
61689W        W23352   5.373  23.182  11.100
61690W        W23353   6.908   3.222  12.990
61691W        W23354  15.195  41.362   1.334
61692W        W23355  28.550   0.301  13.389
61693W        W23356  42.986  20.233   2.843
61694W        W23357  31.425   7.266  11.054
61695W        W23358  32.051  39.337   3.174
61696W        W23359  22.198  16.166  12.843
61697W        W23360  36.579  18.213   2.178
61698W        W23361  38.826  19.648  12.857
61699W        W23362  19.725  35.554  14.935
61700W        W23363  14.106   5.925   1.920
61701W        W23364  34.996  16.616   0.764
61702W        W23365  19.599  41.973   0.887
61703W        W23366   5.238  36.560   2.401
61704W        W23367   0.461  43.330  14.295
61705W        W23368   0.464   2.946   2.679
61706W        W23369  41.939  40.944   1.933
61707W        W23370  19.743   1.417  12.845
61708W        W23371  12.269   7.832   0.795
61709W        W23372  44.283  40.445  13.981
61710W        W23373  13.240  33.878   1.919
61711W        W23374  14.204  16.573  14.776
61712W        W23375   6.739   0.466  13.436
61713W        W23376   2.952  25.062  14.368
61714W        W23377  44.336  23.711   1.332
61715W        W23378  36.894  32.076   1.919
61716W        W23379   9.276  12.228  12.823
61717W        W23380   9.177  32.404  14.869
61718W        W23381  20.688  11.681   3.657
61719W        W23382  29.494  38.444   4.799
61720W        W23383  37.041  37.000  14.293
61721W        W23384  16.762  25.014   0.773
61722W        W23385  43.289  17.284   0.326
61723W        W23386   7.708  37.016   0.777
61724W        W23387  11.737  30.975   2.395
61725W        W23388  44.358  26.565  10.559
61726W        W23389  23.517  23.559  11.372
61727W        W23390  29.491  26.197   1.274
61728W        W23391   9.373  32.527   2.836
61729W        W23392  42.966  16.628  11.543
61730W        W23393   4.891  18.254  12.013
61731W        W23394  24.635   5.840  12.866
61732W        W23395  41.914  35.539  10.575
61733W        W23396  20.158  42.854   1.849
61734W        W23397  36.544  36.450  10.987
61735W        W23398  17.089  20.719  11.881
61736W        W23399  11.169   9.179   2.818
61737W        W23400  41.814  40.394   4.603
61738W        W23401   2.369  34.389  14.364
61739W        W23402  12.240  22.742   0.896
61740W        W23403  13.330  35.535  14.291
61741W        W23404  22.106   2.796   0.351
61742W        W23405  22.133   7.274  11.940
61743W        W23406  20.753  44.932   2.833
61744W        W23407   3.242  43.278   0.428
61745W        W23408  41.794  17.219  14.330
61746W        W23409  11.650  27.118  13.859
61747W        W23410  14.339  10.194   0.755
61748W        W23411   4.427  23.042   4.629
61749W        W23412   6.891  39.994  13.053
61750W        W23413  31.927   1.429  10.588
61751W        W23414  44.878  17.621  11.011
61752W        W23415  17.308   2.267   4.140
61753W        W23416  21.632  10.780   0.835
61754W        W23417  12.726  36.471  11.553
61755W        W23418  18.671  18.781  10.117
61756W        W23419  20.718  14.769  11.428
61757W        W23420  11.222  43.273   3.386
61758W        W23421  35.592  26.614  12.442
61759W        W23422  32.143  21.538   0.916
61760W        W23423  24.588  35.860   4.758
61761W        W23424   2.901  39.945  11.585
61762W        W23425  20.628  12.251   0.476
61763W        W23426  23.649  33.067   2.825
61764W        W23427  12.778  36.457  10.568
61765W        W23428  34.003  19.622  13.341
61766W        W23429  36.927  17.576  10.420
61767W        W23430  25.013  12.357  12.060
61768W        W23431  14.717  10.782   0.749
61769W        W23432   1.905  40.969  10.542
61770W        W23433   4.905   9.837  12.419
61771W        W23434  26.591  37.568   0.750
61772W        W23435  29.622  10.161  12.421
61773W        W23436   4.836  34.982   3.244
61774W        W23437  35.371  22.744  12.042
61775W        W23438  24.171   9.297   1.254
61776W        W23439  29.921  38.542   2.757
61777W        W23440  40.054  16.596   0.946
61778W        W23441  37.447   9.260   0.796
61779W        W23442  10.646   6.210   3.378
61780W        W23443  23.549  21.632  11.389
61781W        W23444   7.862  35.984  12.018
61782W        W23445  18.695   1.761  14.513
61783W        W23446  20.187  11.234  11.548
61784W        W23447   4.450   6.422  12.948
61785W        W23448  43.018  28.955  10.643
61786W        W23449   5.787  15.774  12.388
61787W        W23450  34.512  12.128   3.760
61788W        W23451  11.657  44.462  10.954
61789W        W23452  39.810   3.331  12.493
61790W        W23453  27.621  32.465   3.246
61791W        W23454  12.697  12.782   1.902
61792W        W23455  22.680  44.307  10.481
61793W        W23456  12.159  39.975   0.894
61794W        W23457  23.498   4.425   2.360
61795W        W23458  42.809  14.285   3.222
61796W        W23459  17.177  20.604   1.827
61797W        W23460  26.099  36.072   4.636
61798W        W23461  17.602   0.330  14.430
61799W        W23462  33.519  10.348   4.292
61800W        W23463   5.420  38.382  14.898
61801W        W23464   8.204  30.468   0.432
61802W        W23465  44.332  22.652  14.361
61803W        W23466  37.933  16.124   3.648
61804W        W23467  31.555   9.789   3.232
61805W        W23468  43.326  18.265   3.377
61806W        W23469  35.365  38.022  14.901
61807W        W23470   7.175  31.574   3.709
61808W        W23471  44.002   7.691   0.333
61809W        W23472  28.523  27.101  12.896
61810W        W23473  10.241  10.262   4.333
61811W        W23474  22.540  44.493   4.275
61812W        W23475  25.639  43.507   3.210
61813W        W23476  31.060   0.444   1.260
61814W        W23477  10.676   4.860   0.401
61815W        W23478  26.592  39.885  11.895
61816W        W23479  30.988  43.906  10.938
61817W        W23480  26.079  23.134  13.375
61818W        W23481  23.077  29.645   2.768
61819W        W23482  15.750   3.234  12.054
61820W        W23483  39.444  16.632   0.835
61821W        W23484  18.278  35.429   2.413
61822W        W23485  14.218   0.407  11.861
61823W        W23486  36.862  16.604   4.673
61824W        W23487  23.030  14.156  12.003
61825W        W23488   1.972  44.760   4.707
61826W        W23489   0.348   1.243  11.596
61827W        W23490  35.410  18.125  12.476
61828W        W23491  22.536  43.392  14.993
61829W        W23492  41.373  14.096   1.271
61830W        W23493  44.431  12.236   1.766
61831W        W23494  15.802  34.477  13.347
61832W        W23495  13.684  14.325   1.812
61833W        W23496  25.189   0.455  10.445
61834W        W23497  40.856   6.218   0.354
61835W        W23498  12.322  11.335   1.781
61836W        W23499  22.148  28.995  14.430
61837W        W23500  16.699  44.952   0.935
61838W        W23501  39.377   6.688   1.705
61839W        W23502  26.021  10.764  14.303
61840W        W23503  40.845  39.912   4.178
61841W        W23504  39.439  35.462  12.496
61842W        W23505  15.579  33.537  10.408
61843W        W23506  13.730  12.143  14.812
61844W        W23507  28.553  21.700   2.398
61845W        W23508   9.281  38.943   4.219
61846W        W23509  40.914  19.718  10.586
61847W        W23510  17.599  25.579  10.982
61848W        W23511  39.425  35.376  10.463
61849W        W23512  27.020   4.764   9.934
61850W        W23513  29.156   8.225  13.391
61851W        W23514  34.414  44.970  13.919
61852W        W23515   6.788  44.904   1.898
61853W        W23516  14.595   8.265   4.755
61854W        W23517  32.947   8.402  14.366
61855W        W23518  18.090  28.031   0.774
61856W        W23519  30.424  15.621   1.927
61857W        W23520  10.745  12.166  10.636
61858W        W23521   5.694  29.078  13.056
61859W        W23522  14.116  42.433  11.520
61860W        W23523  25.584  28.636   0.275
61861W        W23524   8.256  29.062  14.793
61862W        W23525  36.004   9.200   3.799
61863W        W23526  22.677  16.220   2.833
61864W        W23527  17.109  44.870   2.320
61865W        W23528   0.749  38.345   0.427
61866W        W23529  22.545  33.000  12.833
61867W        W23530   5.748  32.573   4.658
61868W        W23531  33.525  10.298  12.451
61869W        W23532  31.493  23.735  14.934
61870W        W23533  24.159  12.230   3.320
61871W        W23534  24.704  29.056  12.370
61872W        W23535  10.751  20.664   0.417
61873W        W23536  16.194  39.522  14.876
61874W        W23537  38.918  34.388   1.736
61875W        W23538  41.997  15.278   1.758
61876W        W23539   8.729  17.652   0.468
61877W        W23540  34.086  29.995   3.257
61878W        W23541   3.936  42.331   4.167
61879W        W23542  16.317  22.152  11.446
61880W        W23543  37.477  22.208  10.036
61881W        W23544  43.502   9.719  11.444
61882W        W23545  21.555  32.970   3.841
61883W        W23546   4.710  27.167  13.445
61884W        W23547   7.387  43.505   0.754
61885W        W23548  24.189   3.817  14.497
61886W        W23549  30.440  35.479   1.296
61887W        W23550  41.311   0.250  10.954
61888W        W23551  26.025  39.025  12.061
61889W        W23552  42.846   2.310  11.938
61890W        W23553  43.959  18.121   4.197
61891W        W23554  19.757   5.408   3.234
61892W        W23555  28.629  22.585  14.500
61893W        W23556  20.047  13.283   3.665
61894W        W23557  26.552   5.204   4.190
61895W        W23558  36.589   6.920   2.317
61896W        W23559  28.933  18.061  10.610
61897W        W23560   2.821  10.327   1.346
61898W        W23561  36.948   4.744  12.560
61899W        W23562  18.134  36.394  11.940
61900W        W23563  13.158  35.082  13.934
61901W        W23564  33.980   4.364  13.370
61902W        W23565  15.814   3.760   4.228
61903W        W23566  21.730  23.180   3.864
61904W        W23567  39.045  42.017  14.872
61905W        W23568  26.480  35.419   1.900
61906W        W23569  40.818  40.444   3.667
61907W        W23570  22.080  37.012   4.306
61908W        W23571  37.559  16.615   3.356
61909W        W23572  13.715  37.890  12.976
61910W        W23573  27.453  44.318   4.289
61911W        W23574  24.103  25.219   1.737
61912W        W23575  41.472  10.180  14.483
61913W        W23576   8.201  32.470  10.426
61914W        W23577  34.416  14.110   1.338
61915W        W23578  43.858   3.710   3.862
61916W        W23579  15.611   9.189   3.643
61917W        W23580  27.460  30.591   1.311
61918W        W23581  17.128  11.798  12.506
61919W        W23582  30.155  20.135   0.752
61920W        W23583  38.056   5.888   1.345
61921W        W23584  40.913   4.404  10.930
61922W        W23585   9.352   7.852  11.523
61923W        W23586  43.419  29.098  11.584
61924W        W23587  40.406  36.870  14.414
61925W        W23588  14.224  28.548   0.836
61926W        W23589  35.478  41.364   4.758
61927W        W23590  26.982  27.170  14.898
61928W        W23591  39.913  40.870   2.725
61929W        W23592  23.661  13.345  12.440
61930W        W23593   9.654  29.609   1.219
61931W        W23594  35.428  38.330   4.833
61932W        W23595  19.249  33.103  10.928
61933W        W23596  28.488   8.353  11.589
61934W        W23597  36.388   0.820   3.651
61935W        W23598  34.388  10.349  11.484
61936W        W23599  20.761  27.006  11.426
61937W        W23600   7.290  19.137  13.805
61938W        W23601  10.248  30.044   4.702
61939W        W23602  21.563  37.373   0.253
61940W        W23603  17.649  30.425   1.862
61941W        W23604  44.343  16.258   3.726
61942W        W23605  32.977  22.222  10.631
61943W        W23606   0.257  15.578  10.943
61944W        W23607  33.899  39.993  13.053
61945W        W23608  11.248   3.790   1.764
61946W        W23609  35.522  36.395  12.422
61947W        W23610  29.111  23.517   4.318
61948W        W23611  39.824  34.419  11.920
61949W        W23612  12.301   3.749  10.964
61950W        W23613  26.991  15.744  12.458
61951W        W23614  12.824  18.185   0.751
61952W        W23615   1.802  13.176  10.572
61953W        W23616  20.755  43.508   0.310
61954W        W23617  37.885  23.657   1.897
61955W        W23618  18.791   5.753  12.505
61956W        W23619   0.873  35.547  12.082
61957W        W23620  37.518  20.245   4.284
61958W        W23621   5.335  43.382   0.395
61959W        W23622   4.726  13.229   3.278
61960W        W23623  15.234  38.564  12.082
61961W        W23624   2.441   0.395   1.342
61962W        W23625  43.984  35.105   2.745
61963W        W23626   3.247  26.474   2.671
61964W        W23627  37.424  41.296  13.455
61965W        W23628  17.258  35.457  13.823
61966W        W23629   8.670  33.101   0.323
61967W        W23630  37.045  31.456  13.998
61968W        W23631   0.356  17.706   1.327
61969W        W23632   9.832  23.635  12.005
61970W        W23633  27.588   4.880  12.924
61971W        W23634   4.720  36.868  12.914
61972W        W23635   3.948   2.904   0.728
61973W        W23636  17.797   4.215   2.311
61974W        W23637  26.492  31.014  10.423
61975W        W23638  39.853   2.771  14.928
61976W        W23639  28.162  11.760   2.268
61977W        W23640  28.640   3.941   3.858
61978W        W23641  23.647  28.528  11.386
61979W        W23642  35.375   4.824  11.123
61980W        W23643  39.409  44.447  14.997
61981W        W23644  42.862  41.907  12.864
61982W        W23645   5.213  22.713  12.453
61983W        W23646  12.639  33.965   1.446
61984W        W23647  36.365  25.665   3.819
61985W        W23648  20.182  40.436  11.599
61986W        W23649   0.783  43.290   1.381
61987W        W23650  25.069   1.865   2.765
61988W        W23651  22.664  35.993  10.639
61989W        W23652   1.919   2.807   4.816
61990W        W23653  27.476  25.654  10.922
61991W        W23654  16.697  36.433   2.721
61992W        W23655   1.839   9.208   3.636
61993W        W23656  16.608  38.514  14.467
61994W        W23657   2.320  35.038   0.396
61995W        W23658  33.879   3.290  11.074
61996W        W23659   2.344   5.305   2.884
61997W        W23660  12.796   2.816  11.431
61998W        W23661  24.561  29.969  14.325
61999W        W23662   4.915  43.964   0.878
62000W        W23663  24.547  27.023  11.382
62001W        W23664  42.944   6.733   0.346
62002W        W23665   9.815  16.085  12.489
62003W        W23666  13.703  42.837   4.702
62004W        W23667  33.593   5.841  11.548
62005W        W23668   8.395  33.020  14.882
62006W        W23669  19.642  14.712   0.287
62007W        W23670  38.847  23.097   1.215
62008W        W23671  19.093  26.591  13.313
62009W        W23672  23.170  44.965  11.959
62010W        W23673  38.903  26.651   2.689
62011W        W23674  44.948  37.860  10.564
62012W        W23675  41.801  27.023   2.664
62013W        W23676  25.701  37.009   0.256
62014W        W23677  31.004  40.432  12.992
62015W        W23678   0.941  27.471   3.292
62016W        W23679  40.449  16.601   2.207
62017W        W23680   0.301   5.209  12.495
62018W        W23681  42.938   7.180   3.341
62019W        W23682  24.495   6.219   0.371
62020W        W23683  41.415  11.698   4.757
62021W        W23684   0.853  25.500   1.793
62022W        W23685  12.192  35.069  14.905
62023W        W23686  23.707  43.019   3.793
62024W        W23687  40.810   2.926  11.546
62025W        W23688   9.656  32.920  13.315
62026W        W23689  26.526  24.574  11.032
62027W        W23690  18.066  17.268  10.044
62028W        W23691  22.010  27.677  11.991
62029W        W23692  16.613  24.514   0.775
62030W        W23693  31.102   6.766  10.490
62031W        W23694   0.931  40.912  13.848
62032W        W23695  26.067  31.049   1.270
62033W        W23696  21.583  25.205   5.568
62034W        W23697  39.326   0.359  12.438
62035W        W23698  38.064  22.169  14.761
62036W        W23699  43.510  18.229  13.022
62037W        W23700  39.489  33.517  13.498
62038W        W23701  15.128  40.939   0.261
62039W        W23702  25.137   7.861   1.854
62040W        W23703   6.381  31.601  14.420
62041W        W23704   0.934  17.208   1.725
62042W        W23705   3.876  30.448   2.838
62043W        W23706   4.808  36.886  14.957
62044W        W23707  22.652  27.020   3.215
62045W        W23708  12.179  13.284  14.488
62046W        W23709  42.331   2.854   4.604
62047W        W23710  35.919  38.414  13.520
62048W        W23711  44.258  23.030  14.444
62049W        W23712  13.144  17.225  12.050
62050W        W23713  12.345  26.118  11.556
62051W        W23714   6.783  22.101   2.184
62052W        W23715  25.006  36.860   0.931
62053W        W23716   9.259   0.824   4.188
62054W        W23717  31.939  28.599  14.342
62055W        W23718  40.302  33.050   1.819
62056W        W23719  16.663  32.408   2.807
62057W        W23720  16.580  12.768  12.405
62058W        W23721  42.883  36.501  10.929
62059W        W23722  29.026   6.764   2.701
62060W        W23723  24.180   0.827   1.340
62061W        W23724  43.326  39.010  14.398
62062W        W23725  17.714   7.412   3.762
62063W        W23726  40.910  35.487   1.774
62064W        W23727  15.805   2.332   5.120
62065W        W23728   7.885   9.270  12.053
62066W        W23729  36.021  30.110  13.028
62067W        W23730  32.910  26.011   3.755
62068W        W23731  29.578  39.986  10.540
62069W        W23732   7.174  35.857   3.328
62070W        W23733  37.067  43.434  10.533
62071W        W23734   5.794  33.115  11.981
62072W        W23735  24.139  17.142  10.641
62073W        W23736  35.046  33.624   1.342
62074W        W23737  28.054  19.760   2.283
62075W        W23738  19.262  31.986   0.895
62076W        W23739  20.044   3.381   2.401
62077W        W23740  22.501  31.517  10.572
62078W        W23741   6.295  12.751   2.868
62079W        W23742   6.227   8.392  12.367
62080W        W23743   4.236  19.754  13.447
62081W        W23744  33.477  40.421   0.746
62082W        W23745  27.182   6.723  11.564
62083W        W23746  14.725  13.199   1.376
62084W        W23747  20.045  27.136   0.281
62085W        W23748   7.786  31.934   1.318
62086W        W23749  27.483  16.702   3.819
62087W        W23750  41.514  36.099   1.370
62088W        W23751  18.594  11.790   4.322
62089W        W23752  44.485  30.612  13.513
62090W        W23753  29.624  41.497  10.548
62091W        W23754  11.786  43.993   0.768
62092W        W23755  43.876  18.598  13.002
62093W        W23756   0.877   5.696   4.151
62094W        W23757  44.369  36.952  12.542
62095W        W23758  31.994   1.803  10.915
62096W        W23759   0.443  29.628  12.472
62097W        W23760   1.786  22.079   4.278
62098W        W23761   3.288  10.678   4.684
62099W        W23762  25.020  18.105  14.844
62100W        W23763  13.770  25.475  11.985
62101W        W23764  43.270   8.892   3.838
62102W        W23765  18.132  31.602  13.532
62103W        W23766  13.636   3.348   2.795
62104W        W23767  42.524  24.641  11.393
62105W        W23768  24.491  29.941  13.819
62106W        W23769  22.559  15.667  12.979
62107W        W23770  26.647  35.990  11.113
62108W        W23771   4.846  22.006  11.938
62109W        W23772  15.130  15.752   0.399
62110W        W23773   8.769  29.099  13.494
62111W        W23774  35.917  18.129   1.449
62112W        W23775  21.136  23.566  13.394
62113W        W23776  18.676  17.721   4.161
62114W        W23777  19.605  19.089  10.562
62115W        W23778  32.577  36.047  12.050
62116W        W23779  36.475  11.803  13.038
62117W        W23780   9.298  37.084  11.895
62118W        W23781   4.286  20.631   1.435
62119W        W23782  26.524   2.444   1.388
62120W        W23783  19.722  42.927  13.022
62121W        W23784  34.018  41.802   1.297
62122W        W23785  32.987  16.728  12.843
62123W        W23786  27.657  29.577  14.935
62124W        W23787   1.272  19.748  14.972
62125W        W23788  40.870  10.721  10.445
62126W        W23789  16.680  21.670  11.422
62127W        W23790  18.659  30.090  10.997
62128W        W23791  36.589  26.577  11.979
62129W        W23792  11.250  25.672  13.480
62130W        W23793  10.161   4.928  12.032
62131W        W23794  44.431  12.144  10.416
62132W        W23795  44.930  11.129   3.305
62133W        W23796  24.545  40.929  14.915
62134W        W23797  32.003  24.644  13.399
62135W        W23798  27.130  11.666  13.474
62136W        W23799  38.333   1.459   4.795
62137W        W23800  21.108  32.548  10.484
62138W        W23801  32.961  27.534   1.696
62139W        W23802  41.981  33.049  12.458
62140W        W23803   3.277  17.691  12.512
62141W        W23804  40.845   6.404  12.907
62142W        W23805  13.657  31.510   1.877
62143W        W23806   8.186  18.588  13.397
62144W        W23807  15.638  20.081   2.322
62145W        W23808   5.807   6.871  12.018
62146W        W23809   9.844  24.035   4.598
62147W        W23810  43.301  40.493   3.151
62148W        W23811   6.755  21.556  11.115
62149W        W23812  22.545  26.009  12.493
62150W        W23813  33.093  31.579  13.900
62151W        W23814  38.050  10.668  12.836
62152W        W23815  23.128   4.284  12.555
62153W        W23816  33.586  36.526  11.857
62154W        W23817   3.918  22.032  13.446
62155W        W23818  19.613  25.569   0.865
62156W        W23819  34.535  23.985  14.472
62157W        W23820  15.244  23.638  12.919
62158W        W23821   9.819  20.045  12.546
62159W        W23822  36.883  44.354   2.338
62160W        W23823   6.398  19.772  13.971
62161W        W23824   1.939  43.932   1.374
62162W        W23825  16.808  44.328   0.854
62163W        W23826  30.417   8.721   1.451
62164W        W23827  29.446  23.069  10.914
62165W        W23828  17.179  13.342  13.019
62166W        W23829  25.187  38.467  11.107
62167W        W23830  14.153   8.787  11.108
62168W        W23831  39.326  34.614  12.046
62169W        W23832  24.118   1.904   0.740
62170W        W23833  37.546  19.598  14.913
62171W        W23834  43.323  19.713   3.805
62172W        W23835   7.305  32.394   3.650
62173W        W23836  10.775  38.414   4.597
62174W        W23837  43.801  23.688   4.214
62175W        W23838  31.979  40.543   5.321
62176W        W23839  44.280  23.576  12.388
62177W        W23840   0.474  29.004   3.855
62178W        W23841  40.917  11.183   3.355
62179W        W23842  22.060  32.916  12.580
62180W        W23843  15.635  41.801   3.784
62181W        W23844   4.383   8.662  12.556
62182W        W23845  11.130  42.944  12.564
62183W        W23846   3.254  12.338   0.309
62184W        W23847  14.141  12.248  10.947
62185W        W23848   3.343  42.914   4.837
62186W        W23849   4.214   6.207   2.186
62187W        W23850  12.799   8.660   0.824
62188W        W23851  27.106  37.540  14.888
62189W        W23852  23.012   4.314   4.224
62190W        W23853  32.514  39.350   3.731
62191W        W23854  37.385  20.611   3.739
62192W        W23855  27.637   9.851   0.726
62193W        W23856  12.662  38.429  14.414
62194W        W23857  28.042  18.634   0.379
62195W        W23858   8.285  19.241  12.372
62196W        W23859  11.724  16.743  11.966
62197W        W23860   6.882  20.073  13.045
62198W        W23861  42.351   5.820   0.892
62199W        W23862  11.141  42.931   2.663
62200W        W23863  22.135  28.450   1.916
62201W        W23864  15.637  38.852   2.733
62202W        W23865  42.784   2.350   4.328
62203W        W23866  36.094  15.108  11.556
62204W        W23867   7.175   6.313   1.825
62205W        W23868  26.690  10.682   2.318
62206W        W23869   8.704  25.483   1.218
62207W        W23870  22.688  11.643   0.329
62208W        W23871  31.580  43.894   1.889
62209W        W23872  30.437  39.507   1.786
62210W        W23873  14.098  29.990  11.471
62211W        W23874  25.158  21.607   2.735
62212W        W23875  10.845  19.569  14.003
62213W        W23876  36.957  30.469   3.384
62214W        W23877  13.325  24.520   3.705
62215W        W23878  29.503  11.857  10.093
62216W        W23879  34.372  15.306  12.849
62217W        W23880   9.874  15.186   4.620
62218W        W23881  27.964   9.245   3.202
62219W        W23882   4.838  13.780  14.003
62220W        W23883  17.141  41.977  14.947
62221W        W23884  37.455   2.920  10.631
62222W        W23885  29.493  35.055   4.159
62223W        W23886  12.679   6.860   5.282
62224W        W23887  39.420  26.201  13.444
62225W        W23888  11.635  38.045   0.355
62226W        W23889  44.864  36.998   4.158
62227W        W23890   9.741  31.451  14.979
62228W        W23891  30.615  29.500   4.792
62229W        W23892  38.954  25.547  14.859
62230W        W23893  38.415  27.560   0.439
62231W        W23894  34.381  22.625  14.989
62232W        W23895  34.900  23.063   3.323
62233W        W23896  19.658  44.419   4.271
62234W        W23897  41.950   6.213   3.265
62235W        W23898  21.753  26.600  10.991
62236W        W23899  19.578  14.120   3.724
62237W        W23900  12.233  41.905   4.810
62238W        W23901  27.601  18.120   3.814
62239W        W23902  29.554  24.229   3.667
62240W        W23903  24.016  24.663   0.938
62241W        W23904   8.687  19.098  12.408
62242W        W23905  17.661  39.917  13.520
62243W        W23906  15.220  36.405   3.155
62244W        W23907  42.879  12.311   2.838
62245W        W23908   8.778  20.548   2.858
62246W        W23909  39.403  40.457   4.250
62247W        W23910  29.918  12.132   2.867
62248W        W23911  21.618  22.692   3.264
62249W        W23912  28.461  35.437   4.606
62250W        W23913   9.241  26.024  11.072
62251W        W23914  31.633  17.799   4.265
62252W        W23915  17.649  12.618  12.473
62253W        W23916  28.057  25.668   9.997
62254W        W23917   8.198  27.029   3.219
62255W        W23918   8.188  21.091  10.571
62256W        W23919  15.824   1.435  11.586
62257W        W23920  25.684  37.530   1.274
62258W        W23921  38.393  30.546   1.388
62259W        W23922  19.204   6.265  12.466
62260W        W23923  21.144  14.309   4.834
62261W        W23924  43.785   2.810  13.930
62262W        W23925  21.231  23.196   0.866
62263W        W23926  11.646  34.049  11.079
62264W        W23927  35.510   5.826   4.604
62265W        W23928  38.893   2.885   4.782
62266W        W23929  13.711  20.639   2.793
62267W        W23930  17.613  11.820  12.921
62268W        W23931  26.692  12.144  13.841
62269W        W23932  33.927  19.109   4.344
62270W        W23933  39.333  16.313   0.368
62271W        W23934  15.234   5.328  12.005
62272W        W23935  29.151  32.045   4.241
62273W        W23936  17.736   8.171  14.462
62274W        W23937  41.793  40.994  10.499
62275W        W23938   3.365   8.679  12.904
62276W        W23939  43.944  24.128   4.815
62277W        W23940  35.423  42.289   0.854
62278W        W23941  14.629  44.326   9.966
62279W        W23942   2.293  33.538   4.687
62280W        W23943  32.132   0.276   2.692
62281W        W23944  29.164  28.521  12.470
62282W        W23945   9.796  38.527   0.852
62283W        W23946  42.801  19.650  11.934
62284W        W23947  11.181  40.449   0.252
62285W        W23948  24.491   4.761   3.671
62286W        W23949  26.700  14.633   4.188
62287W        W23950  37.501  18.562   2.345
62288W        W23951   0.836  31.506  13.002
62289W        W23952  12.212  27.131   2.812
62290W        W23953  10.743  30.942   2.846
62291W        W23954  41.317   9.761  12.970
62292W        W23955  23.151  36.452  11.554
62293W        W23956  32.481  27.446   3.692
62294W        W23957   9.200  25.056   3.791
62295W        W23958  17.606  15.751   2.331
62296W        W23959  34.927  39.824   0.416
62297W        W23960  23.564  26.490  12.943
62298W        W23961  36.395  40.377  12.063
62299W        W23962  24.192  32.546   4.811
62300W        W23963  39.412  27.043  10.587
62301W        W23964   9.746  15.609  10.512
62302W        W23965   2.252  18.221  14.365
62303W        W23966  14.161  16.145  13.541
62304W        W23967  39.929  11.268   2.725
62305W        W23968   7.276  22.180  12.829
62306W        W23969   5.312  19.161  12.533
62307W        W23970  16.635  25.678  13.485
62308W        W23971  32.558   5.358  13.367
62309W        W23972  11.339  41.435   3.749
62310W        W23973  30.439  33.423   2.353
62311W        W23974   4.940  12.806  13.339
62312W        W23975  32.584  44.314  11.930
62313W        W23976   3.349  29.172  11.940
62314W        W23977   7.333  40.814  12.035
62315W        W23978  28.975  21.617   4.693
62316W        W23979  16.133  11.310  13.036
62317W        W23980   7.716  32.407   2.832
62318W        W23981  33.995   6.814   3.796
62319W        W23982  28.476   9.212   1.920
62320W        W23983  15.765  30.563  14.302
62321W        W23984  25.661   7.373   2.339
62322W        W23985  13.767  38.540  11.969
62323W        W23986  23.702  24.074   2.341
62324W        W23987  33.900  20.566  11.549
62325W        W23988   9.788   2.457  12.391
62326W        W23989  30.538  36.909   2.742
62327W        W23990  43.455  36.589   4.602
62328W        W23991  17.613  44.267  11.609
62329W        W23992  16.668  35.877  14.333
62330W        W23993  18.564  37.514   0.955
62331W        W23994  19.273  40.882   1.414
62332W        W23995  43.862  28.125  12.078
62333W        W23996   1.466  15.144   4.680
62334W        W23997  17.157  27.612  12.074
62335W        W23998  37.354   5.691   0.260
62336W        W23999  17.692  12.818  11.966
62337W        W24000   7.250  10.707   2.178
62338W        W24001  32.107   2.938   4.716
62339W        W24002  14.218   6.814   3.220
62340W        W24003  31.961  33.014   4.210
62341W        W24004  40.809   1.410   0.460
62342W        W24005  27.562  36.404  13.363
62343W        W24006  26.629  41.430   0.853
62344W        W24007   3.240   9.727  12.892
62345W        W24008  41.530  22.248   0.753
62346W        W24009  30.532  27.152  13.039
62347W        W24010  25.472  23.676   2.830
62348W        W24011  44.758   5.931   3.773
62349W        W24012  19.588  28.098   4.718
62350W        W24013  37.046  26.478   3.287
62351W        W24014  42.482  20.588   0.760
62352W        W24015  13.743   6.393  13.476
62353W        W24016  22.616  31.049   3.368
62354W        W24017  24.575  31.119   4.179
62355W        W24018  38.544  39.360   3.801
62356W        W24019   9.664  11.246  14.443
62357W        W24020  14.680  38.888  11.983
62358W        W24021  39.014  34.047  12.503
62359W        W24022   5.805  24.028  10.465
62360W        W24023   4.838   0.937   3.211
62361W        W24024   0.976   1.432  11.025
62362W        W24025  33.408  32.619   1.726
62363W        W24026  30.990   3.253  12.482
62364W        W24027  42.859   5.274  13.455
62365W        W24028  10.692  36.091   0.370
62366W        W24029  31.494  34.598   4.625
62367W        W24030   3.457  42.501   4.256
62368W        W24031   9.156  27.133  10.468
62369W        W24032  39.973  43.020  14.515
62370W        W24033  43.373  39.514  14.943
62371W        W24034   3.349  12.243   1.309
62372W        W24035  42.471  43.357  13.904
62373W        W24036  16.134  44.465   4.754
62374W        W24037  35.079  31.462   1.248
62375W        W24038  11.263  10.214  14.448
62376W        W24039  36.473   0.968  12.578
62377W        W24040  17.561  21.120   4.706
62378W        W24041  19.731  12.841   0.727
62379W        W24042   3.333   5.353  14.994
62380W        W24043   0.308  20.678  12.396
62381W        W24044  33.613  10.282  13.882
62382W        W24045  25.186  40.847   2.745
62383W        W24046  11.680   5.789  12.865
62384W        W24047  30.443  14.315   3.150
62385W        W24048  17.063  27.521  13.471
62386W        W24049  37.572  26.581   1.262
62387W        W24050  30.638  27.952  12.344
62388W        W24051  14.284  17.242  12.533
62389W        W24052  28.531  25.041   1.916
62390W        W24053  35.500  12.224   3.256
62391W        W24054  37.021  17.673  13.921
62392W        W24055   3.913  10.194  13.515
62393W        W24056  15.734  18.079  14.392
62394W        W24057   7.753   4.850  14.483
62395W        W24058  33.408  37.335  10.493
62396W        W24059  43.953  12.795  14.785
62397W        W24060  34.079  39.332  11.929
62398W        W24061  29.071   9.683   2.848
62399W        W24062  44.418  17.256   4.211
62400W        W24063  32.579   6.205  11.938
62401W        W24064  31.647  30.439   3.759
62402W        W24065  34.874   9.175   4.645
62403W        W24066  21.138  41.316  14.963
62404W        W24067  31.997   6.803   9.469
62405W        W24068  23.198  18.092   0.318
62406W        W24069  41.856   5.410  11.454
62407W        W24070   7.416  32.485   0.773
62408W        W24071  40.479  26.467  14.363
62409W        W24072   5.830  35.512  10.960
62410W        W24073  17.243   0.333   2.284
62411W        W24074  42.327  22.712   2.312
62412W        W24075  33.621   5.279  13.339
62413W        W24076  12.238  13.622  12.093
62414W        W24077   1.390  26.136   0.822
62415W        W24078  36.843  44.333   1.346
62416W        W24079  19.229   1.405  10.411
62417W        W24080  12.224  37.467   3.247
62418W        W24081  26.594  43.368   4.670
62419W        W24082   9.730  36.589   4.258
62420W        W24083  29.074  39.033  12.096
62421W        W24084   3.873  28.561  14.975
62422W        W24085  35.559  13.305  10.972
62423W        W24086  38.895  40.333   9.980
62424W        W24087  44.932  33.918  12.383
62425W        W24088   8.201  27.476  13.334
62426W        W24089  27.594  18.098  14.020
62427W        W24090   0.881  13.297  12.994
62428W        W24091  43.481  32.097  10.503
62429W        W24092   2.847  23.715   2.868
62430W        W24093  12.276  26.482  14.474
62431W        W24094  26.150  34.027  14.767
62432W        W24095  30.599   6.910  13.017
62433W        W24096   0.408  39.475  11.069
62434W        W24097  17.097   2.423  14.967
62435W        W24098   0.404  37.858  11.928
62436W        W24099  27.453  19.632   1.395
62437W        W24100  35.015  40.919  13.337
62438W        W24101  20.565  27.571   0.465
62439W        W24102  28.050   2.313  14.957
62440W        W24103  34.605  24.085  14.793
62441W        W24104  18.691  25.969  11.013
62442W        W24105   3.215   2.846   3.367
62443W        W24106  13.822  16.813   0.433
62444W        W24107   8.203  20.098   3.264
62445W        W24108  23.052  21.612   2.714
62446W        W24109  25.983  42.968  13.873
62447W        W24110  32.944  32.116   2.311
62448W        W24111  15.780  21.074  13.523
62449W        W24112   3.261   1.963   3.787
62450W        W24113  32.437  18.647  10.405
62451W        W24114  38.469   8.329  14.949
62452W        W24115  35.063  42.981   1.701
62453W        W24116  26.982   4.910   0.807
62454W        W24117  42.425   1.387  10.634
62455W        W24118  12.697  23.588  13.476
62456W        W24119  33.968  16.713  14.360
62457W        W24120  33.079   8.660  12.067
62458W        W24121  23.006  15.176  13.963
62459W        W24122  11.868  29.495  14.014
62460W        W24123  24.525  22.026   3.697
62461W        W24124  15.326   6.398  11.392
62462W        W24125   6.846  41.498   2.846
62463W        W24126   1.468   4.798   2.230
62464W        W24127  21.677  10.153   3.751
62465W        W24128  18.190  12.238   5.203
62466W        W24129  37.498  16.152  14.327
62467W        W24130  44.980  43.329   1.742
62468W        W24131  18.115  35.017  14.951
62469W        W24132  14.198  21.531   4.338
62470W        W24133  22.593  29.101  12.546
62471W        W24134  26.502   9.860  11.449
62472W        W24135  38.904  22.057  14.311
62473W        W24136  25.674  25.963   0.304
62474W        W24137  31.488  21.062  13.850
62475W        W24138  43.966  26.542   1.300
62476W        W24139  42.387   9.775  13.903
62477W        W24140   5.926  14.317  10.891
62478W        W24141  27.601  25.989  12.516
62479W        W24142  14.728  25.054   3.867
62480W        W24143  31.084  42.920   4.332
62481W        W24144   6.208  44.930  11.061
62482W        W24145  35.943  33.952   2.401
62483W        W24146  27.006   6.738  13.923
62484W        W24147  16.682  20.127  10.498
62485W        W24148  25.158  34.992   0.757
62486W        W24149  13.775  35.903   2.234
62487W        W24150  29.085  16.169  13.017
62488W        W24151  21.697  32.407   4.796
62489W        W24152  34.941  36.491   1.758
62490W        W24153  23.577  35.488   1.893
62491W        W24154  39.853   4.873  12.881
62492W        W24155  34.034  30.100   3.723
62493W        W24156  14.120  32.057  14.797
62494W        W24157  22.665  44.817  14.944
62495W        W24158  27.471  20.103  11.930
62496W        W24159  35.549   5.325  10.453
62497W        W24160  44.320  24.165   0.394
62498W        W24161  42.519  11.370   4.738
62499W        W24162  33.559   7.297  13.022
62500W        W24163  25.555  17.066   0.408
62501W        W24164  22.201   7.741   4.650
62502W        W24165  24.586   5.874   1.748
62503W        W24166  32.003   7.288  11.612
62504W        W24167  17.771  18.733  12.378
62505W        W24168  12.137  36.435  12.384
62506W        W24169  15.776  40.931   5.130
62507W        W24170  20.751  10.825  14.897
62508W        W24171  22.234  43.322   4.265
62509W        W24172  43.906  33.540  10.616
62510W        W24173  10.656   9.849   1.214
62511W        W24174   9.785  40.537   1.288
62512W        W24175  10.655  22.039   1.908
62513W        W24176   1.260  33.388   3.630
62514W        W24177   0.952  34.010   1.776
62515W        W24178  39.425  17.213  11.462
62516W        W24179  40.319  40.012  13.392
62517W        W24180  42.033  26.572   4.281
62518W        W24181  10.196   2.254   0.768
62519W        W24182  26.980   1.278  10.628
62520W        W24183  30.967  32.478  12.870
62521W        W24184  42.483  25.618   1.842
62522W        W24185  37.441  25.117  10.008
62523W        W24186  38.857   1.927  11.057
62524W        W24187  10.246   2.289   0.304
62525W        W24188  41.307   1.402  13.888
62526W        W24189  32.091  38.907   1.809
62527W        W24190   8.675  20.198  13.520
62528W        W24191   1.400   9.882   2.356
62529W        W24192  40.305  25.081  13.823
62530W        W24193  20.124   0.249   2.801
62531W        W24194  37.007   4.769   1.407
62532W        W24195   8.843  42.957  14.311
62533W        W24196   8.249  29.119  13.437
62534W        W24197   8.180  15.200  10.600
62535W        W24198  30.941  41.817   4.135
62536W        W24199  41.032   0.444  10.990
62537W        W24200  39.324  44.343   2.385
62538W        W24201  39.487  19.634   3.765
62539W        W24202  34.870   1.752   2.755
62540W        W24203   0.406   0.344  12.396
62541W        W24204  13.176  12.686  11.590
62542W        W24205  29.068  11.738   1.429
62543W        W24206  35.592  19.087   1.777
62544W        W24207   5.193   7.357  14.979
62545W        W24208  33.420  23.212   0.410
62546W        W24209  25.131   6.835   2.243
62547W        W24210  40.353  27.131  10.478
62548W        W24211  18.257  44.424   1.279
62549W        W24212  28.007  29.632   4.790
62550W        W24213   6.829  33.935  13.436
62551W        W24214   7.292  14.114   2.321
62552W        W24215   9.155  20.037  12.474
62553W        W24216  18.082   9.159  11.507
62554W        W24217  39.894  27.446  13.441
62555W        W24218  40.448  43.909   4.743
62556W        W24219  15.281  40.382   2.266
62557W        W24220   0.432  35.021   0.298
62558W        W24221  14.747  41.308   3.173
62559W        W24222  10.256  26.047  14.776
62560W        W24223   5.699  25.062   4.736
62561W        W24224  21.072  11.858   1.754
62562W        W24225  26.198  23.170  10.458
62563W        W24226  30.518  22.161  12.376
62564W        W24227  26.640   9.769  14.436
62565W        W24228  29.563  20.662   4.172
62566W        W24229  17.234  25.090  14.898
62567W        W24230   9.173  41.868   1.917
62568W        W24231  40.823  24.550  13.023
62569W        W24232  21.105  17.677  12.009
62570W        W24233   9.652  20.251   4.719
62571W        W24234  26.624  13.826   4.607
62572W        W24235  31.940   9.225   1.356
62573W        W24236  27.035  36.496   2.294
62574W        W24237  14.128  18.214  11.601
62575W        W24238  15.215  21.229  12.089
62576W        W24239  11.309  44.368  13.878
62577W        W24240  12.307  43.457  12.418
62578W        W24241  19.742  11.209  12.511
62579W        W24242  24.509   7.812   1.885
62580W        W24243   6.859  37.065   4.313
62581W        W24244   4.263   5.417  12.902
62582W        W24245  36.908  23.081   2.231
62583W        W24246  34.033  42.793  12.972
62584W        W24247  12.814  16.754  10.620
62585W        W24248  15.819  40.966  13.460
62586W        W24249  35.388  28.001   4.155
62587W        W24250  35.050  26.604  10.643
62588W        W24251   4.877  17.217   2.785
62589W        W24252  33.027   3.800   3.240
62590W        W24253  20.159  39.008  11.075
62591W        W24254  13.274   2.261  10.617
62592W        W24255  26.980  16.617  13.505
62593W        W24256  36.367  23.208   0.469
62594W        W24257  16.297  26.564  10.073
62595W        W24258  43.292  37.061   3.182
62596W        W24259  20.129  10.337   3.705
62597W        W24260  24.671  32.430   2.817
62598W        W24261  38.925  43.961  12.496
62599W        W24262  24.657  12.722  13.829
62600W        W24263  23.109   7.190   3.680
62601W        W24264   5.264   7.839  11.505
62602W        W24265  27.071  26.682   3.722
62603W        W24266  28.098  34.098  11.124
62604W        W24267   2.961  19.610  11.896
62605W        W24268  43.474  24.225  10.588
62606W        W24269  17.705   6.747  11.106
62607W        W24270  21.174  20.702   4.224
62608W        W24271   7.794  17.203  14.878
62609W        W24272  38.499  42.987  14.284
62610W        W24273  35.588   6.716   1.290
62611W        W24274  36.093  18.124  11.086
62612W        W24275  41.318  16.696   3.230
62613W        W24276   1.276  28.652  14.372
62614W        W24277  31.994  32.541   3.313
62615W        W24278  40.504  37.022   2.735
62616W        W24279  27.446   6.232   1.789
62617W        W24280  24.556  14.795  10.908
62618W        W24281  16.091  22.724  11.406
62619W        W24282  31.047   7.299  11.510
62620W        W24283  28.016   6.203  10.504
62621W        W24284  21.544  12.118   3.727
62622W        W24285  26.160  19.169   1.360
62623W        W24286  41.043  24.548  14.863
62624W        W24287  25.636  33.582   0.378
62625W        W24288  10.809  24.703   4.714
62626W        W24289  17.306   6.196  13.496
62627W        W24290  14.624   1.751  10.625
62628W        W24291   6.736   4.380   0.288
62629W        W24292  44.791  12.141  13.005
62630W        W24293  35.990  37.417  12.872
62631W        W24294  14.650   4.238   0.948
62632W        W24295  17.223  25.631  14.935
62633W        W24296   0.870  25.207   5.097
62634W        W24297   5.809  38.919  12.911
62635W        W24298   7.804  27.138  13.870
62636W        W24299   8.791  24.074   1.760
62637W        W24300  18.652  42.901   1.282
62638W        W24301  18.228  30.993  13.455
62639W        W24302  19.142  37.022  11.107
62640W        W24303  35.942   4.925  11.976
62641W        W24304   3.289  26.629   3.834
62642W        W24305   2.452  12.285   2.391
62643W        W24306   7.754  31.956  13.017
62644W        W24307  12.201  38.868  10.976
62645W        W24308  17.107  18.237  10.042
62646W        W24309  18.268  10.788   3.719
62647W        W24310  40.516  23.991  10.641
62648W        W24311   7.218   1.278   1.213
62649W        W24312  38.914  11.656  14.823
62650W        W24313  40.884  32.986   2.702
62651W        W24314  26.701   3.717   3.261
62652W        W24315  44.827   4.211  10.461
62653W        W24316  38.372  26.631  14.277
62654W        W24317   2.278  30.096  13.039
62655W        W24318  33.974  12.174   0.324
62656W        W24319  15.701  16.754   0.735
62657W        W24320  22.082  29.983   2.779
62658W        W24321   2.804   6.284   4.609
62659W        W24322  13.340  10.705  14.019
62660W        W24323   6.746  23.674   3.171
62661W        W24324  39.503  39.044   4.746
62662W        W24325  24.095  11.360   3.332
62663W        W24326   2.883  41.434   4.214
62664W        W24327  38.890  20.598   2.316
62665W        W24328  21.660  18.740  13.888
62666W        W24329  25.097  13.126  11.411
62667W        W24330  21.710  30.997   2.363
62668W        W24331   2.363  30.053  14.332
62669W        W24332  38.335  26.024  11.105
62670W        W24333  40.522  27.024  11.477
62671W        W24334  25.000  27.989   5.318
62672W        W24335   3.233  20.591   2.691
62673W        W24336  36.455  20.188   5.311
62674W        W24337  37.358  44.269   3.661
62675W        W24338   7.845   4.329  10.622
62676W        W24339  29.027  44.274  12.012
62677W        W24340   7.692   4.742   4.653
62678W        W24341  32.116  44.364  10.941
62679W        W24342  42.339  35.414   3.269
62680W        W24343  32.957   6.282  10.926
62681W        W24344  40.448  17.616   4.337
62682W        W24345  34.515  28.176  12.443
62683W        W24346   6.891  31.571   2.387
62684W        W24347  35.052   8.382   2.693
62685W        W24348  37.066   7.194   0.754
62686W        W24349  12.342   9.874   3.654
62687W        W24350  15.652   5.781  12.438
62688W        W24351  10.763  15.605  14.404
62689W        W24352  16.211  30.104   3.191
62690W        W24353  24.493  21.064  10.014
62691W        W24354  20.561  12.831   3.167
62692W        W24355   0.742  39.063  11.126
62693W        W24356  43.365  43.478   1.801
62694W        W24357  20.552  16.309   3.681
62695W        W24358   5.818  14.100  13.011
62696W        W24359   3.225   4.318  12.960
62697W        W24360  28.651  21.553  11.452
62698W        W24361  27.989   2.862   0.864
62699W        W24362   1.256  23.061   4.145
62700W        W24363  12.763  33.907  12.569
62701W        W24364  14.659   5.366  14.847
62702W        W24365  34.582  13.660   4.157
62703W        W24366  25.053  35.882   0.249
62704W        W24367  35.420  40.819  12.568
62705W        W24368  12.281  11.711   5.085
62706W        W24369   2.419  16.224   1.883
62707W        W24370  30.129  13.238   0.465
62708W        W24371  17.276  42.029  11.994
62709W        W24372  29.158   2.363  11.050
62710W        W24373  43.914  38.529   4.302
62711W        W24374  39.819   8.834   1.857
62712W        W24375  44.263  20.262   1.245
62713W        W24376  36.952  26.478  10.460
62714W        W24377  24.031  30.474   3.337
62715W        W24378  31.996   0.901  14.354
62716W        W24379  14.647  14.693  10.935
62717W        W24380   0.804   5.862   2.315
62718W        W24381   0.268  13.752   3.339
62719W        W24382  35.037  30.941  11.584
62720W        W24383   1.470  17.068   3.738
62721W        W24384  40.459   7.281  13.428
62722W        W24385  16.683  25.553   3.300
62723W        W24386  36.550  12.150  12.383
62724W        W24387   6.798  36.098  14.444
62725W        W24388   5.207  27.666  14.835
62726W        W24389  29.445  16.314   2.352
62727W        W24390  30.019  34.918   4.606
62728W        W24391   3.330   3.916  12.056
62729W        W24392  27.185   7.287   2.379
62730W        W24393  23.523  34.548  10.963
62731W        W24394   6.830  20.753  13.042
62732W        W24395  10.650  43.455   4.784
62733W        W24396   8.314  41.336  14.334
62734W        W24397   7.770   1.748  10.622
62735W        W24398  28.967   7.770  14.842
62736W        W24399  29.005   8.791  10.623
62737W        W24400   0.863  38.915  11.869
62738W        W24401   6.797  15.705  10.907
62739W        W24402  35.925  32.418   0.780
62740W        W24403  30.578  19.076   3.698
62741W        W24404  11.822  14.759  11.103
62742W        W24405  32.520  39.830   1.422
62743W        W24406  15.658  28.934   1.282
62744W        W24407  35.513  14.282   4.761
62745W        W24408  11.694   9.359  13.817
62746W        W24409   9.868  31.499  13.326
62747W        W24410  13.708  27.503   1.267
62748W        W24411   7.374  17.187  12.444
62749W        W24412  42.476  28.564  12.898
62750W        W24413  33.446  44.424  13.867
62751W        W24414  22.029   7.370  10.545
62752W        W24415  23.145  40.379   5.215
62753W        W24416  27.473  15.800   0.906
62754W        W24417  33.949  17.215  10.474
62755W        W24418   6.359  10.148   0.739
62756W        W24419  22.737   8.365  14.438
62757W        W24420  20.223  37.377   2.691
62758W        W24421  31.594  38.379  12.930
62759W        W24422  29.475  40.836  10.616
62760W        W24423  40.805  10.282  14.944
62761W        W24424  16.310  37.880   2.877
62762W        W24425   2.730  34.497  11.458
62763W        W24426  43.458  31.616  14.514
62764W        W24427   2.291   6.294   0.918
62765W        W24428  34.472  13.775  13.320
62766W        W24429  29.429   2.928  12.063
62767W        W24430  38.378  34.065  10.567
62768W        W24431  19.599  29.028  13.041
62769W        W24432  35.604  18.243  11.081
62770W        W24433  15.666  19.671  13.533
62771W        W24434  35.378  21.754   0.965
62772W        W24435  39.384  12.638   2.897
62773W        W24436  43.330  16.725   3.186
62774W        W24437   8.364   4.399   2.821
62775W        W24438  32.064   6.229   3.385
62776W        W24439   0.966  41.898  10.435
62777W        W24440  31.456   0.954  14.454
62778W        W24441  43.909  39.530  11.461
62779W        W24442  33.485  17.277   2.198
62780W        W24443  19.095   9.268  11.876
62781W        W24444   8.778  43.831  12.972
62782W        W24445  15.250  24.551   2.337
62783W        W24446   5.379  44.904   1.235
62784W        W24447  44.398  15.153  14.899
62785W        W24448   5.394  33.616  12.351
62786W        W24449  24.492  20.225  13.492
62787W        W24450  35.093  21.616  10.947
62788W        W24451  34.369   8.688  12.883
62789W        W24452  31.456  27.540   3.269
62790W        W24453  23.085  17.267  13.906
62791W        W24454   9.719  31.969   4.721
62792W        W24455  32.552  26.637   2.877
62793W        W24456  44.405  21.068  11.412
62794W        W24457  33.069   8.785  14.823
62795W        W24458  39.993  42.519  10.428
62796W        W24459  39.408  41.024  14.444
62797W        W24460  28.032  36.379  11.475
62798W        W24461  17.258  28.483  14.359
62799W        W24462  40.991  31.458   1.822
62800W        W24463  35.464  16.639  10.603
62801W        W24464  25.138  12.678   1.287
62802W        W24465   1.896   0.889   3.187
62803W        W24466  35.433   3.863   5.246
62804W        W24467  39.484  43.385  10.433
62805W        W24468   6.809  26.539   0.742
62806W        W24469  30.620  39.508   4.776
62807W        W24470   7.688  14.702   1.696
62808W        W24471  43.905  36.493   2.683
62809W        W24472  40.000  10.638  14.946
62810W        W24473   5.762  26.662   4.792
62811W        W24474  18.093  13.660   1.273
62812W        W24475   7.182  38.503   4.226
62813W        W24476   9.682  25.092  12.500
62814W        W24477  11.222  12.659   4.647
62815W        W24478  38.361  15.751   0.954
62816W        W24479  25.997  32.470   1.437
62817W        W24480  13.605  29.935   2.668
62818W        W24481  43.322  18.263   4.286
62819W        W24482  26.560   7.886  13.419
62820W        W24483  17.184  32.509   1.415
62821W        W24484  41.400   9.779   2.797
62822W        W24485   5.730  29.602   0.286
62823W        W24486  42.778   2.246  10.446
62824W        W24487  19.250  34.452   2.827
62825W        W24488   8.228  42.782  13.315
62826W        W24489   3.261  13.166   1.260
62827W        W24490  30.966  44.935   1.759
62828W        W24491  10.348   2.963   2.797
62829W        W24492   3.312  15.710   3.192
62830W        W24493  26.659  30.596   1.286
62831W        W24494   4.238  27.061  10.546
62832W        W24495  28.507  21.586   3.306
62833W        W24496  26.199  19.229   3.247
62834W        W24497   7.781  19.209  12.412
62835W        W24498  21.736  17.639  11.408
62836W        W24499  36.027   5.350  12.920
62837W        W24500  43.991  35.443   0.385
62838W        W24501  10.664  36.428  11.459
62839W        W24502  13.705   9.324   0.481
62840W        W24503  30.516   7.684   0.894
62841W        W24504  27.083  37.550   1.869
62842W        W24505  19.627  20.730  12.875
62843W        W24506   0.357  19.757  12.894
62844W        W24507  20.190  15.611   2.225
62845W        W24508   1.816   9.875  14.980
62846W        W24509  25.980  11.848  12.366
62847W        W24510  18.638  35.519   2.740
62848W        W24511  10.363  39.812   0.325
62849W        W24512   7.333  16.733  14.823
62850W        W24513  14.722   6.394   3.853
62851W        W24514   3.931   1.266   1.904
62852W        W24515  12.685   1.385  12.540
62853W        W24516  40.458  18.768  12.869
62854W        W24517  17.105  10.743  12.978
62855W        W24518   2.872  18.224  11.074
62856W        W24519  37.359  40.522  11.106
62857W        W24520   7.865   1.794  14.385
62858W        W24521  38.056  10.814   3.653
62859W        W24522   0.325  28.108  12.860
62860W        W24523  41.295   4.350   1.319
62861W        W24524  35.992  35.363   2.780
62862W        W24525  38.857   5.810   2.380
62863W        W24526  13.726  11.353  14.965
62864W        W24527   5.823  25.090   3.655
62865W        W24528  10.377  31.639   1.225
62866W        W24529  13.723  42.490  14.903
62867W        W24530  21.221  17.625   3.743
62868W        W24531  13.689  24.029   4.228
62869W        W24532  40.948  22.060  12.044
62870W        W24533  21.026   8.675  14.813
62871W        W24534   5.926  39.459   0.348
62872W        W24535  44.971  27.057   4.172
62873W        W24536  15.744  12.671   3.742
62874W        W24537   1.334  21.165  14.330
62875W        W24538   2.789  26.148   1.363
62876W        W24539  19.630  37.876  10.497
62877W        W24540   3.428  15.756   3.817
62878W        W24541   2.860  18.061   1.210
62879W        W24542   7.670  43.811   2.293
62880W        W24543  16.156  43.796   0.383
62881W        W24544  12.673  42.949   4.752
62882W        W24545  34.469  35.058   2.341
62883W        W24546  16.294   1.753  13.791
62884W        W24547  43.425   5.408  10.481
62885W        W24548   7.417   9.878   2.802
62886W        W24549  29.614   7.886   2.828
62887W        W24550  37.362  13.334  14.387
62888W        W24551  34.045   8.760  12.412
62889W        W24552   2.420  36.411   0.869
62890W        W24553  23.156  27.090  12.007
62891W        W24554  29.601  12.744  13.430
62892W        W24555  35.541  29.570   3.300
62893W        W24556   5.387  40.513  10.907
62894W        W24557  20.678   0.911   5.638
62895W        W24558  10.283  26.466  13.403
62896W        W24559  22.697  34.909   1.384
62897W        W24560   5.292   5.778  10.590
62898W        W24561   6.722  43.419  13.316
62899W        W24562  20.042  31.052  12.370
62900W        W24563  35.480  22.548  11.611
62901W        W24564  14.306  22.658   4.666
62902W        W24565   5.313  42.863  13.869
62903W        W24566  43.416  39.021  11.381
62904W        W24567  44.010   8.328  10.116
62905W        W24568  20.764  40.495   3.767
62906W        W24569  20.625   2.312  14.417
62907W        W24570  41.039   8.896   2.185
62908W        W24571   7.776  11.319  11.564
62909W        W24572  27.071  22.616   2.837
62910W        W24573  39.455  19.275   0.344
62911W        W24574   9.650  20.579  12.874
62912W        W24575  12.356  40.418   0.886
62913W        W24576   8.766  12.617   3.211
62914W        W24577  36.420   5.914  10.640
62915W        W24578  19.193   8.330   4.306
62916W        W24579   5.869  40.008  14.006
62917W        W24580   0.330  43.433  13.030
62918W        W24581  44.826   8.336  13.888
62919W        W24582  44.997  24.677  13.841
62920W        W24583  16.622  27.638  14.891
62921W        W24584  26.070  15.721  10.563
62922W        W24585  22.007  27.093   1.877
62923W        W24586  42.961  31.050  13.402
62924W        W24587  23.133  28.652  13.356
62925W        W24588  32.033  29.153   0.886
62926W        W24589  12.309   9.660   1.247
62927W        W24590  28.020  17.249  10.488
62928W        W24591   9.754  31.510  12.465
62929W        W24592   9.723  34.107   0.396
62930W        W24593   5.312  31.518  11.915
62931W        W24594  38.000  40.530   3.259
62932W        W24595   4.371   6.378   0.807
62933W        W24596  36.408   4.430  11.090
62934W        W24597   1.788  37.880   0.455
62935W        W24598  32.059  27.495   0.847
62936W        W24599  36.954  20.727  13.487
62937W        W24600  26.024  42.815   0.399
62938W        W24601  42.502   4.764  14.976
62939W        W24602  14.188  21.247  11.060
62940W        W24603  42.511  30.984  11.567
62941W        W24604  39.547   9.323  11.066
62942W        W24605  15.665  30.101  11.115
62943W        W24606  13.295  31.514  12.376
62944W        W24607  27.151  13.241  11.912
62945W        W24608   4.313  13.806   2.681
62946W        W24609  42.842  16.765   1.380
62947W        W24610   7.865  40.535   1.810
62948W        W24611  14.179  16.638   0.863
62949W        W24612  13.652  32.132  11.390
62950W        W24613  34.023  23.230  10.634
62951W        W24614  17.732  42.447   4.831
62952W        W24615   8.668   3.812   1.257
62953W        W24616  34.591  28.526  12.429
62954W        W24617  30.451  29.634   0.937
62955W        W24618  17.193  14.199   0.822
62956W        W24619  22.178   7.379  11.016
62957W        W24620  36.416   0.379  10.446
62958W        W24621   7.223  14.115   2.895
62959W        W24622  31.609  38.449   2.727
62960W        W24623   2.326  38.556  10.501
62961W        W24624  30.515  35.478   2.823
62962W        W24625  39.932  16.224  11.007
62963W        W24626  44.335  13.611  14.890
62964W        W24627  32.392   9.673  11.578
62965W        W24628  39.831  40.449   2.334
62966W        W24629  13.126  15.246   2.298
62967W        W24630  21.260  35.478  14.770
62968W        W24631   6.686   2.965   3.774
62969W        W24632  11.654  36.024   4.779
62970W        W24633  15.780   0.837   5.265
62971W        W24634  27.941  18.726   3.685
62972W        W24635  14.710  19.071   4.284
62973W        W24636   6.239  14.333   5.218
62974W        W24637  43.896   9.682   1.378
62975W        W24638  24.059  14.101  12.874
62976W        W24639  18.582  31.150  10.515
62977W        W24640   8.372  29.434  13.474
62978W        W24641  43.324  15.740  11.398
62979W        W24642   1.467  28.103   0.732
62980W        W24643  29.433  41.474   5.565
62981W        W24644   1.763  20.205  10.502
62982W        W24645  28.945  24.684  10.920
62983W        W24646  31.980   2.384  12.413
62984W        W24647   5.227  21.539   4.601
62985W        W24648  33.551  38.999  11.591
62986W        W24649  34.973  26.573  11.042
62987W        W24650   8.725  12.708   0.456
62988W        W24651   5.784  28.653   3.769
62989W        W24652  39.340  30.149   4.719
62990W        W24653  25.169  33.503   3.154
62991W        W24654  19.648   1.416  11.565
62992W        W24655  27.646  20.125   3.721
62993W        W24656  42.780  28.052  13.462
62994W        W24657  20.220  26.095  11.897
62995W        W24658  39.889  19.604  12.476
62996W        W24659  20.265  37.559   0.879
62997W        W24660  18.610  15.098   2.862
62998W        W24661  35.904   0.333   0.872
62999W        W24662   6.834  21.680  10.534
63000W        W24663  44.424  36.909  14.875
63001W        W24664  42.893  28.171   4.769
63002W        W24665  44.440  22.702  10.930
63003W        W24666   5.899  27.086  12.978
63004W        W24667  22.142  31.590  12.506
63005W        W24668  32.541  37.030   2.683
63006W        W24669  32.121  12.328  12.413
63007W        W24670  12.246  40.388   4.642
63008W        W24671  31.025   6.302   3.210
63009W        W24672   1.287  26.487  11.408
63010W        W24673  43.767   7.297   2.868
63011W        W24674   6.767  35.047  12.836
63012W        W24675  38.524  29.016   3.180
63013W        W24676  38.986  42.941   4.791
63014W        W24677  33.478  23.234  14.866
63015W        W24678  34.515  40.815   2.210
63016W        W24679  38.472  12.673  14.283
63017W        W24680  36.034  26.592   1.296
63018W        W24681  34.918  33.936   4.705
63019W        W24682  23.192  13.618   2.853
63020W        W24683   8.766  18.264   1.738
63021W        W24684  29.066  35.450  11.881
63022W        W24685  34.604  19.551   5.245
63023W        W24686  44.011  19.594  12.983
63024W        W24687  28.124  11.263  14.963
63025W        W24688  15.707   0.878   3.864
63026W        W24689  37.878   9.201  12.924
63027W        W24690  42.910  20.723   1.368
63028W        W24691  33.045  12.720  14.422
63029W        W24692  17.286  13.230  14.321
63030W        W24693   8.738  40.965  12.018
63031W        W24694  27.145  10.708  11.991
63032W        W24695  35.010  15.232  12.391
63033W        W24696  39.380  36.441  13.830
63034W        W24697  37.369  24.527   2.276
63035W        W24698  12.359  44.862  11.487
63036W        W24699  25.146   0.858  12.501
63037W        W24700   6.921  14.826  13.425
63038W        W24701  20.236  14.734  12.538
63039W        W24702   8.757   1.859  10.509
63040W        W24703  10.250  38.366  12.475
63041W        W24704  35.080  20.580   3.795
63042W        W24705  29.472  10.147  10.986
63043W        W24706   7.876  33.580  14.310
63044W        W24707  20.159  26.074  10.899
63045W        W24708  25.525  18.736  14.027
63046W        W24709  22.132  17.194  12.946
63047W        W24710  31.112  36.364   4.747
63048W        W24711  13.121  19.706  13.005
63049W        W24712  19.282  18.195  11.597
63050W        W24713  35.929  31.937  10.641
63051W        W24714  20.749  11.758   0.313
63052W        W24715  13.175  20.557  13.459
63053W        W24716  25.035  41.332   9.947
63054W        W24717   2.936  30.543   0.903
63055W        W24718  26.533  36.483  10.488
63056W        W24719  14.121  36.901   0.314
63057W        W24720  23.577  15.204  14.491
63058W        W24721   6.841  11.814  10.579
63059W        W24722  34.926   2.374  14.953
63060W        W24723  31.534   3.440   2.837
63061W        W24724   2.441  43.326  11.926
63062W        W24725   3.806  31.971  11.581
63063W        W24726  26.068  24.201  11.532
63064W        W24727   7.822  27.562  13.348
63065W        W24728   0.481  20.657  14.499
63066W        W24729  33.100  33.407   1.409
63067W        W24730  14.689   4.297  12.483
63068W        W24731  42.829   6.277   4.768
63069W        W24732  23.067  31.077  10.945
63070W        W24733  42.372  43.930  10.549
63071W        W24734  38.953  34.511  11.547
63072W        W24735  22.730  14.708  10.407
63073W        W24736  43.784  10.779  13.545
63074W        W24737  28.492   3.451   0.890
63075W        W24738  12.145   6.233  13.004
63076W        W24739  19.153  20.765  13.548
63077W        W24740   4.249   9.254   4.323
63078W        W24741  22.651   5.246  12.028
63079W        W24742  15.255  36.359  11.924
63080W        W24743  32.573   1.747   0.777
63081W        W24744  10.138   3.459   0.365
63082W        W24745  10.178  22.669   0.243
63083W        W24746  21.612  16.685   2.822
63084W        W24747   7.215  27.571   3.294
63085W        W24748   5.392  23.505   3.657
63086W        W24749  30.033  11.319  10.498
63087W        W24750   1.308  18.083  14.980
63088W        W24751  14.800  43.290   2.262
63089W        W24752  44.277  37.580  11.923
63090W        W24753   7.200  22.707   1.765
63091W        W24754  35.060  43.986  12.923
63092W        W24755  23.646  12.825  10.633
63093W        W24756  39.867   3.459   3.835
63094W        W24757  38.568  20.107  13.333
63095W        W24758  20.580  20.041  14.010
63096W        W24759   1.825  25.106  12.058
63097W        W24760  20.225  35.006  11.946
63098W        W24761  10.778  24.556   1.240
63099W        W24762  32.492  12.611  12.880
63100W        W24763  43.961  35.583  14.810
63101W        W24764  39.011  15.757  14.437
63102W        W24765  25.488  29.597   9.951
63103W        W24766  44.419  15.712   3.631
63104W        W24767  16.295  13.702   3.858
63105W        W24768   6.679  42.998   1.839
63106W        W24769  35.365  16.615   1.370
63107W        W24770   0.468  28.033  14.971
63108W        W24771  27.137  25.208  13.355
63109W        W24772  14.721  11.803  14.026
63110W        W24773  25.486  16.132   2.411
63111W        W24774  34.483  31.090  10.974
63112W        W24775  29.159  16.625  11.974
63113W        W24776   2.450  36.543  12.932
63114W        W24777  17.777   1.973  14.914
63115W        W24778  24.019  34.489  14.844
63116W        W24779  33.601  27.558  12.841
63117W        W24780  40.821  27.635  11.881
63118W        W24781   9.707  14.334  11.996
63119W        W24782  38.485  39.377  11.882
63120W        W24783  22.523   6.199  14.840
63121W        W24784  12.314  33.880   2.803
63122W        W24785  39.890  18.573  14.323
63123W        W24786  31.421  35.455   2.414
63124W        W24787  17.164  19.272   4.166
63125W        W24788  44.852  24.181  11.062
63126W        W24789  20.575  42.841  14.782
63127W        W24790   1.379  40.919   4.689
63128W        W24791  18.244  32.602  12.443
63129W        W24792  30.154  36.427  14.289
63130W        W24793  11.667   2.330  10.503
63131W        W24794  43.914   1.816  12.529
63132W        W24795   1.460  20.174   4.172
63133W        W24796  25.968   3.929   4.317
63134W        W24797  18.737  43.482   0.370
63135W        W24798  28.546   5.844  13.813
63136W        W24799  12.316  24.217  12.499
63137W        W24800  33.131   2.365  12.912
63138W        W24801  32.992   6.386   5.633
63139W        W24802   6.859  23.687   4.155
63140W        W24803  32.988   4.407   3.703
63141W        W24804   5.358  31.614  13.360
63142W        W24805  31.131   0.482  11.483
63143W        W24806  41.335   7.890  11.954
63144W        W24807  22.587  15.702  10.526
63145W        W24808  23.601   1.746  14.482
63146W        W24809  34.943   7.912   0.324
63147W        W24810  24.210  44.755  13.478
63148W        W24811   1.925  35.906  11.389
63149W        W24812  28.658  18.581   1.338
63150W        W24813   9.193   1.332   3.776
63151W        W24814  18.096  19.702  12.520
63152W        W24815  40.341  34.495  12.549
63153W        W24816  33.089   8.316   4.806
63154W        W24817   1.921   9.190   4.341
63155W        W24818  44.917  28.541  12.561
63156W        W24819  35.878  13.262   5.141
63157W        W24820   8.351  22.568   4.629
63158W        W24821  18.627  22.717  10.136
63159W        W24822   2.320  16.183  13.017
63160W        W24823   2.430  13.616  10.461
63161W        W24824  43.879  26.557   3.274
63162W        W24825  30.029  38.985   1.879
63163W        W24826  20.071  34.992  10.615
63164W        W24827   8.348  37.895   0.881
63165W        W24828  41.303  19.558  12.931
63166W        W24829  43.995  42.849   3.248
63167W        W24830  20.202  39.019   0.921
63168W        W24831  15.249  10.649   0.908
63169W        W24832  20.733  36.421   1.900
63170W        W24833  43.411   6.813   2.789
63171W        W24834  16.692  27.026   4.620
63172W        W24835  21.525   0.805   0.350
63173W        W24836  22.603  35.437  14.013
63174W        W24837  37.003  14.748   4.322
63175W        W24838  15.257   0.906   3.353
63176W        W24839  37.514   9.364  12.504
63177W        W24840  11.835  28.607   1.924
63178W        W24841  30.005  42.808  13.847
63179W        W24842  24.080  14.120  14.392
63180W        W24843  38.824   5.800   0.319
63181W        W24844   4.794  17.578   2.901
63182W        W24845  15.103   2.762  11.532
63183W        W24846  22.018  18.593  13.508
63184W        W24847  14.734  11.230   3.697
63185W        W24848   6.708  11.314   2.266
63186W        W24849   7.349  24.189   0.933
63187W        W24850  16.158  35.054  13.371
63188W        W24851  13.340  14.668  13.937
63189W        W24852   6.420  21.550   1.888
63190W        W24853   0.942   6.386   2.262
63191W        W24854  26.095  32.028   2.285
63192W        W24855  32.579  12.845   3.864
63193W        W24856  14.292  41.823   1.434
63194W        W24857  18.058  26.124  13.972
63195W        W24858  12.246  25.649   2.863
63196W        W24859  32.941  27.175  12.523
63197W        W24860  35.099   0.940  12.361
63198W        W24861   6.412  23.701   4.667
63199W        W24862  19.668  22.141   3.369
63200W        W24863   6.325   0.872   1.702
63201W        W24864  24.107  43.276  10.640
63202W        W24865  31.559  22.551   1.696
63203W        W24866  25.150   9.851   3.193
63204W        W24867  10.691  38.834   3.766
63205W        W24868  33.558  12.632  14.512
63206W        W24869  13.679  17.134   3.816
63207W        W24870   1.262  10.150  13.388
63208W        W24871   9.188  23.611  11.934
63209W        W24872  36.490  30.497  14.981
63210W        W24873  28.639  25.529  12.861
63211W        W24874  10.141  39.014   1.370
63212W        W24875  34.945  38.004  14.871
63213W        W24876  10.648  17.148   3.685
63214W        W24877  44.968  34.978  12.060
63215W        W24878  28.155  33.608   4.655
63216W        W24879  23.056   7.322  11.581
63217W        W24880  34.986  15.126   0.326
63218W        W24881  10.194  19.679   1.323
63219W        W24882  31.480  28.586   3.351
63220W        W24883  33.038  22.138  10.120
63221W        W24884  10.311  27.141   2.896
63222W        W24885  29.531  13.298  13.999
63223W        W24886  32.570  42.004  14.817
63224W        W24887  28.115   3.268   1.397
63225W        W24888  30.573   8.217  12.872
63226W        W24889  44.299  18.110   2.280
63227W        W24890  22.040   9.294  12.942
63228W        W24891  25.490  20.138   1.260
63229W        W24892  29.058  12.737  14.296
63230W        W24893  14.767  18.259   3.181
63231W        W24894   9.214  32.098   1.257
63232W        W24895  22.608  36.370  13.796
63233W        W24896  11.163  27.620   4.141
63234W        W24897  12.167  12.841  13.052
63235W        W24898   0.261  10.779  11.116
63236W        W24899  28.045  14.232   5.258
63237W        W24900  39.542   5.225  13.794
63238W        W24901  37.941  20.075   2.830
63239W        W24902  13.599   6.891  14.454
63240W        W24903  35.420  24.099   0.360
63241W        W24904  10.877   1.794  14.397
63242W        W24905  33.460  15.306   3.704
63243W        W24906  26.030  38.061  11.607
63244W        W24907  11.266  15.205   1.757
63245W        W24908   7.376  44.834  12.545
63246W        W24909   8.820  29.065   2.832
63247W        W24910  23.165  38.011   0.945
63248W        W24911  25.979  12.278   0.343
63249W        W24912  25.504   6.683  13.992
63250W        W24913  27.054  11.274   3.251
63251W        W24914   7.302   1.943  12.939
63252W        W24915  31.598   9.360  14.800
63253W        W24916  41.010  37.835   2.361
63254W        W24917  41.417  37.926  11.055
63255W        W24918  39.814  39.887  12.441
63256W        W24919   6.333   2.800  13.959
63257W        W24920  38.496   4.816   1.329
63258W        W24921   7.894   0.913  12.368
63259W        W24922   7.255  18.555   0.845
63260W        W24923   9.310  39.810  13.791
63261W        W24924   8.401  24.541  14.840
63262W        W24925  10.270  40.497  14.369
63263W        W24926  42.334  31.127   1.274
63264W        W24927   5.800  39.362  11.008
63265W        W24928   9.829  16.643  10.583
63266W        W24929  39.523  13.231  11.413
63267W        W24930  18.133  30.097  11.028
63268W        W24931  10.184  16.113   0.744
63269W        W24932  28.011  29.008   2.899
63270W        W24933  41.425  11.741  12.482
63271W        W24934  37.553   6.746  12.903
63272W        W24935  39.034   9.312  11.922
63273W        W24936  43.993   7.195  12.388
63274W        W24937  21.745  29.998   1.789
63275W        W24938  30.586  33.019   3.264
63276W        W24939  19.247  25.022   1.854
63277W        W24940  22.102   6.779   4.353
63278W        W24941  10.233   8.386   2.666
63279W        W24942   3.404  12.219  11.870
63280W        W24943  19.705   9.363  11.938
63281W        W24944  25.181  24.654  12.879
63282W        W24945  14.146  33.991  11.931
63283W        W24946  37.021  14.281   2.856
63284W        W24947   0.794  18.570   0.917
63285W        W24948  40.531   0.790   0.806
63286W        W24949  12.823  29.530  14.312
63287W        W24950   9.288  15.148   1.259
63288W        W24951  22.535  26.515   1.424
63289W        W24952   9.741  11.291   2.790
63290W        W24953  21.743  29.598  13.348
63291W        W24954   3.292  43.810   3.857
63292W        W24955  11.856  21.104   1.816
63293W        W24956   1.752  21.104   4.140
63294W        W24957  12.853   2.797   2.863
63295W        W24958  29.022  33.395  11.071
63296W        W24959  13.171  30.539  11.552
63297W        W24960  30.975   6.921   0.402
63298W        W24961  44.345  41.357  14.458
63299W        W24962   1.375   4.853  14.403
63300W        W24963  29.450  42.801  12.024
63301W        W24964   8.862   8.318   0.302
63302W        W24965   2.301  14.275  10.983
63303W        W24966  17.629  25.604   3.346
63304W        W24967  36.078   5.346   1.925
63305W        W24968  19.758  42.327  11.497
63306W        W24969   6.807  43.821   4.696
63307W        W24970  21.646  36.423   0.429
63308W        W24971   2.928   3.232  14.314
63309W        W24972  31.993  32.602  11.589
63310W        W24973  34.478  34.439   0.437
63311W        W24974  23.234   4.914   3.331
63312W        W24975  39.489  35.945   3.739
63313W        W24976  12.256   7.366   5.645
63314W        W24977   1.856  42.939   0.381
63315W        W24978  39.886  39.831   3.770
63316W        W24979  11.253  35.048   2.718
63317W        W24980  26.090   0.842  12.017
63318W        W24981  31.556  28.546   3.827
63319W        W24982  44.409  29.926  12.406
63320W        W24983  44.808  38.469  12.574
63321W        W24984  37.994  37.460  12.341
63322W        W24985  36.558  25.131  12.839
63323W        W24986   0.762  32.950   4.178
63324W        W24987  33.461   3.316  10.597
63325W        W24988  32.624   7.752  12.914
63326W        W24989   2.835  33.468   3.854
63327W        W24990  30.022   2.316   2.320
63328W        W24991  20.565  37.571   4.308
63329W        W24992   1.935  24.608   0.423
63330W        W24993  24.479  11.688  14.983
63331W        W24994  13.327  38.432   2.302
63332W        W24995  38.056  14.590   0.744
63333W        W24996  20.743  41.004   3.717
63334W        W24997  34.462   8.807   4.745
63335W        W24998  31.966  26.139   4.122
63336W        W24999  34.557  12.220   1.328
63337W        W25000  20.532  42.821  13.908
63338W        W25001   0.988  15.693   2.328
63339W        W25002   5.700  39.534  11.564
63340W        W25003  32.545  18.735   1.269
63341W        W25004   9.699  21.234   0.932
63342W        W25005  34.453  43.915  11.533
63343W        W25006  29.425  32.402   3.634
63344W        W25007  16.720   5.368  12.501
63345W        W25008  43.338   6.324   4.170
63346W        W25009  33.028  11.194   2.806
63347W        W25010  40.826  32.430   2.218
63348W        W25011  29.658  29.059  14.488
63349W        W25012  36.845  17.245  13.544
63350W        W25013  11.373   4.297   1.748
63351W        W25014  33.556  18.768  14.878
63352W        W25015  21.551   7.334   1.293
63353W        W25016  35.998  12.784   0.359
63354W        W25017  14.107  13.611  14.770
63355W        W25018   4.329   8.881   1.228
63356W        W25019  27.180  33.552  10.079
63357W        W25020   3.250   8.826  14.977
63358W        W25021  34.922  22.674   3.777
63359W        W25022   1.398   2.364   0.319
63360W        W25023  22.577  44.410   3.151
63361W        W25024   3.297   4.831  14.431
63362W        W25025  41.875  15.709   2.271
63363W        W25026  41.882  10.838   3.683
63364W        W25027  26.673   2.864  14.938
63365W        W25028  19.258   8.892   1.446
63366W        W25029  31.112  26.599  12.500
63367W        W25030  12.761  32.412  12.543
63368W        W25031  37.492  16.583  12.976
63369W        W25032  30.415  24.174   0.942
63370W        W25033  15.773  42.424   5.215
63371W        W25034  40.320   3.288  14.417
63372W        W25035  15.268   4.337   4.248
63373W        W25036  13.174   7.384   1.706
63374W        W25037   2.811  11.806  14.379
63375W        W25038  40.886  22.252   0.303
63376W        W25039   1.413  25.049   1.335
63377W        W25040  44.862  39.823   3.294
63378W        W25041  33.394  43.295   4.247
63379W        W25042  10.330  39.522   4.259
63380W        W25043  15.722  10.654   1.881
63381W        W25044   2.230   2.930  11.058
63382W        W25045  44.991  12.736  11.037
63383W        W25046  44.007  28.436   3.266
63384W        W25047  12.813  31.508   1.717
63385W        W25048  21.587  17.724  14.955
63386W        W25049  31.436  28.144   0.951
63387W        W25050  42.446  44.935  14.969
63388W        W25051   0.359  36.035  11.949
63389W        W25052   2.962  36.841  12.457
63390W        W25053  43.412  25.641   3.155
63391W        W25054  35.100  17.760   3.274
63392W        W25055  35.940  37.984  14.411
63393W        W25056  28.520  20.263  13.950
63394W        W25057  18.097  39.423   4.201
63395W        W25058  26.472   7.352  12.049
63396W        W25059  25.149  43.417  14.010
63397W        W25060  31.435  36.351   1.852
63398W        W25061  14.828  44.928  11.889
63399W        W25062  43.936  13.139   2.697
63400W        W25063  24.072  15.581   0.311
63401W        W25064  32.051  29.596   2.314
63402W        W25065  43.480  24.165  14.966
63403W        W25066  35.891  44.325  11.902
63404W        W25067  34.381  41.535  13.460
63405W        W25068  44.777  20.198   0.895
63406W        W25069   5.199  38.446   4.709
63407W        W25070   8.312  34.525  14.512
63408W        W25071  44.975  35.901   0.917
63409W        W25072  20.031  12.353  14.425
63410W        W25073   6.718  27.984  14.363
63411W        W25074  14.297  42.358   2.370
63412W        W25075   2.296  30.464  10.592
63413W        W25076   5.783   8.776   5.098
63414W        W25077   8.739  21.514   3.279
63415W        W25078  30.469  34.558   4.350
63416W        W25079  14.783  23.125  14.394
63417W        W25080  43.481  18.702  11.448
63418W        W25081   2.280  13.704  12.897
63419W        W25082  33.108  39.852  14.008
63420W        W25083   8.696  42.853   3.771
63421W        W25084   7.673  39.382  14.858
63422W        W25085  15.241  31.560  13.478
63423W        W25086  26.674  42.479   4.290
63424W        W25087  30.100  39.384   0.443
63425W        W25088  37.970  41.303   1.835
63426W        W25089  41.887  35.565  12.433
63427W        W25090   8.310   4.203   4.632
63428W        W25091  36.380  20.242  11.867
63429W        W25092  17.108  29.466  12.419
63430W        W25093  35.382  19.100   2.836
63431W        W25094  39.053   8.728   1.787
63432W        W25095  12.120  36.550   5.129
63433W        W25096  39.333   6.767  11.461
63434W        W25097  38.852  32.032  10.024
63435W        W25098  21.583  15.734   4.663
63436W        W25099  14.273   2.738   1.915
63437W        W25100  14.701   8.268   3.338
63438W        W25101   0.846  23.490  14.393
63439W        W25102  40.799   5.208  12.092
63440W        W25103  13.821  34.590  14.300
63441W        W25104  15.727  38.871  11.462
63442W        W25105   2.395  35.945   4.121
63443W        W25106  15.791  28.523   1.404
63444W        W25107  18.569  42.465  12.450
63445W        W25108  27.960   1.911  13.793
63446W        W25109  44.475  18.758   2.782
63447W        W25110  38.959  33.110   0.881
63448W        W25111  40.863  16.148   2.406
63449W        W25112  30.986  40.529  11.067
63450W        W25113   5.934  43.932  11.124
63451W        W25114  17.615  23.099   0.243
63452W        W25115   8.213  34.576  10.588
63453W        W25116   4.876  21.113  13.479
63454W        W25117  34.465  40.327  13.952
63455W        W25118  33.444   4.324   4.352
63456W        W25119  27.158  40.845   1.215
63457W        W25120   6.691  17.710   0.434
63458W        W25121  44.434  34.472   1.758
63459W        W25122  21.673  19.714   3.835
63460W        W25123   8.337  26.103   0.935
63461W        W25124  21.188  33.492   1.750
63462W        W25125  37.042  37.916   2.698
63463W        W25126  39.316   3.226   2.747
63464W        W25127   6.350  21.698  12.880
63465W        W25128  13.772  23.054  10.994
63466W        W25129  42.777  39.855  12.935
63467W        W25130  39.951  29.000   1.900
63468W        W25131  15.620  25.656   0.950
63469W        W25132  29.959  24.156  12.394
63470W        W25133  25.710  41.945   0.809
63471W        W25134  14.823  35.590   3.786
63472W        W25135  26.514   7.786   4.288
63473W        W25136  22.745  30.153   2.821
63474W        W25137  13.342  39.448   3.637
63475W        W25138  14.304  44.344   3.853
63476W        W25139  43.859  35.541   4.182
63477W        W25140   3.269   7.374   3.244
63478W        W25141  30.987  30.544   1.345
63479W        W25142  31.081  19.183  10.154
63480W        W25143  24.557  36.351   1.338
63481W        W25144  10.761   5.335  14.478
63482W        W25145  35.583  19.611   3.691
63483W        W25146   8.681  10.348  10.437
63484W        W25147  27.636  13.167  12.391
63485W        W25148   9.831  31.983   2.229
63486W        W25149  35.520  29.524  13.485
63487W        W25150  28.635  20.560   1.822
63488W        W25151  15.664  20.175   4.316
63489W        W25152  35.363   6.267   1.698
63490W        W25153  41.498  32.051  14.366
63491W        W25154   7.239   5.763  11.012
63492W        W25155   9.766   4.830  10.066
63493W        W25156  32.491   3.246   4.823
63494W        W25157   2.410  27.980  14.916
63495W        W25158  13.699  37.863  13.945
63496W        W25159  16.150   6.358  12.945
63497W        W25160  17.116  35.037  14.448
63498W        W25161  24.534  29.625  10.012
63499W        W25162  15.822   0.382  10.029
63500W        W25163  20.043  34.024  13.986
63501W        W25164   6.781  32.032   4.209
63502W        W25165  20.693  24.572   2.417
63503W        W25166  43.872  30.450   4.627
63504W        W25167  36.591  18.755   1.744
63505W        W25168  30.604  35.067   1.293
63506W        W25169  44.327  13.734  12.528
63507W        W25170  25.136  21.055   5.237
63508W        W25171  42.905  13.632  13.988
63509W        W25172  36.930  26.016   4.175
63510W        W25173  29.601  44.958   0.421
63511W        W25174  29.015  28.078  11.491
63512W        W25175   2.734  24.091   1.265
63513W        W25176  15.228   6.751   3.158
63514W        W25177  44.483  22.569  11.438
63515W        W25178   8.884  34.912  11.891
63516W        W25179  32.019  31.070  10.933
63517W        W25180  18.228  11.259   0.258
63518W        W25181  25.015  26.625  12.493
63519W        W25182  10.694  38.913  10.449
63520W        W25183  35.537  29.128  13.895
63521W        W25184  12.726  39.353  13.972
63522W        W25185  16.172  38.044  10.090
63523W        W25186  35.978   3.446   0.779
63524W        W25187  44.412   2.917  12.901
63525W        W25188  13.184  32.945   1.816
63526W        W25189  35.560  36.559   4.190
63527W        W25190  31.579   3.825   1.708
63528W        W25191  20.644  39.520   2.198
63529W        W25192  22.013  16.082   0.255
63530W        W25193  28.031   4.731   4.817
63531W        W25194  24.125   7.360   4.339
63532W        W25195  38.449   0.464  11.963
63533W        W25196  27.467  23.167  11.931
63534W        W25197   6.237   0.845  12.402
63535W        W25198  14.319  40.845  11.611
63536W        W25199   1.809  11.789   2.294
63537W        W25200  11.213  26.655   1.415
63538W        W25201  44.816   7.196  10.440
63539W        W25202  17.210  34.936   0.473
63540W        W25203   1.950  43.009  12.461
63541W        W25204  20.760  30.056   3.747
63542W        W25205  17.657  19.166   2.295
63543W        W25206  16.145   2.926   3.717
63544W        W25207  37.453   7.174  11.453
63545W        W25208  14.622  20.088   2.247
63546W        W25209   9.375   1.880   1.376
63547W        W25210  29.623  43.982  11.859
63548W        W25211  25.473  15.812   5.219
63549W        W25212   8.829   5.342   2.782
63550W        W25213  12.620   8.664   1.916
63551W        W25214  37.486   6.426   3.356
63552W        W25215  26.176  39.056   5.565
63553W        W25216  29.554   9.672   0.907
63554W        W25217  16.155  10.684   3.811
63555W        W25218  34.418   0.936  11.404
63556W        W25219  10.330   5.303  11.429
63557W        W25220  16.215   8.769  11.382
63558W        W25221  38.483  22.234   0.439
63559W        W25222  14.298   1.346  13.471
63560W        W25223  25.608  34.908   0.425
63561W        W25224  43.998   2.391   1.730
63562W        W25225  32.985  39.382  11.001
63563W        W25226  31.516  15.820  12.971
63564W        W25227   1.330   5.405   2.772
63565W        W25228  43.942   8.266  12.947
63566W        W25229   7.905  22.009  14.866
63567W        W25230  28.467  38.953   1.906
63568W        W25231  21.556  37.553  13.924
63569W        W25232   3.386  24.090  11.094
63570W        W25233  18.188   4.759  11.413
63571W        W25234   8.277   6.792   1.790
63572W        W25235  27.563   8.273  10.583
63573W        W25236  14.109   2.953  14.852
63574W        W25237  16.314  21.208  14.509
63575W        W25238   3.315  33.013   0.740
63576W        W25239  23.559  23.012  11.605
63577W        W25240  44.433  43.364  10.145
63578W        W25241  40.007  13.692   2.701
63579W        W25242   9.836  28.540   0.750
63580W        W25243   7.744  36.006  10.594
63581W        W25244  22.529   5.879  12.002
63582W        W25245  27.031  42.847  10.150
63583W        W25246  37.068  28.630  11.412
63584W        W25247  20.092  21.133  12.032
63585W        W25248  20.686  18.675   3.351
63586W        W25249  42.341  31.565  13.362
63587W        W25250  39.480  22.631  11.579
63588W        W25251   5.779  25.495  12.528
63589W        W25252  27.959  26.175   5.245
63590W        W25253  18.616  13.638   4.823
63591W        W25254  31.012  22.143   1.414
63592W        W25255  15.710  19.674  10.451
63593W        W25256  20.677  15.136  14.848
63594W        W25257   0.477  43.842   0.430
63595W        W25258  14.219  22.513   2.717
63596W        W25259  32.044  14.159   2.775
63597W        W25260  39.925   7.898   9.940
63598W        W25261  17.248   5.304   3.661
63599W        W25262   4.799  20.040  14.939
63600W        W25263  43.918   5.292  14.843
63601W        W25264   5.351  20.594   2.298
63602W        W25265  43.926  17.115  13.332
63603W        W25266  26.670   1.928  10.531
63604W        W25267  22.626  23.061  14.962
63605W        W25268  11.709   2.440  11.531
63606W        W25269   1.809  30.541  11.490
63607W        W25270  15.752  14.143  11.589
63608W        W25271  17.577  37.506   2.861
63609W        W25272  37.025  43.950  13.355
63610W        W25273   5.788  15.299  12.556
63611W        W25274  31.639  14.339  14.776
63612W        W25275  34.613   9.821  14.969
63613W        W25276   3.929  32.412  12.526
63614W        W25277  37.987  28.466   0.818
63615W        W25278  11.166  17.800   3.691
63616W        W25279  44.855  41.446   0.428
63617W        W25280   6.923  14.705   1.285
63618W        W25281  11.737  22.054  11.418
63619W        W25282  28.113  41.970  13.523
63620W        W25283   8.796  22.115  14.940
63621W        W25284   9.690  35.018   3.665
63622W        W25285  30.592  13.636  14.952
63623W        W25286  29.527  36.843  13.794
63624W        W25287  17.586  44.774   3.277
63625W        W25288  31.485  44.916   1.379
63626W        W25289  10.299  41.359   4.805
63627W        W25290  42.432  35.421  12.093
63628W        W25291  41.918  24.060   2.811
63629W        W25292  41.454   7.699  13.852
63630W        W25293   3.415  29.974  10.491
63631W        W25294  44.282  30.464  12.074
63632W        W25295   3.278  27.168   0.742
63633W        W25296  41.527  40.002  14.329
63634W        W25297  17.189   1.934   4.260
63635W        W25298  39.334   1.364   0.938
63636W        W25299  40.497  21.123   0.294
63637W        W25300  44.973  13.654  10.591
63638W        W25301  27.071   3.950  12.500
63639W        W25302  18.639  25.567  13.333
63640W        W25303   3.301  16.765   2.820
63641W        W25304  44.778  25.683  11.017
63642W        W25305  15.632  18.629  13.474
63643W        W25306  22.134  22.637   4.143
63644W        W25307  30.562  23.529  10.960
63645W        W25308  30.618   2.229   1.853
63646W        W25309  10.263   0.426   4.630
63647W        W25310  37.369  13.654   2.689
63648W        W25311  11.797   0.479  10.930
63649W        W25312  34.040   2.385  12.075
63650W        W25313  33.890  17.242   1.734
63651W        W25314   9.364  42.793   2.178
63652W        W25315   4.887   7.801  14.342
63653W        W25316  20.735   9.360  12.923
63654W        W25317  44.842  32.470   0.920
63655W        W25318   5.402  31.009  14.877
63656W        W25319  33.568  31.564  14.463
63657W        W25320  35.025  14.277  14.927
63658W        W25321  27.958  35.950   0.899
63659W        W25322  27.486  38.388   4.328
63660W        W25323  33.947  26.986  12.527
63661W        W25324  23.707   1.447   3.684
63662W        W25325  37.951  38.346  14.841
63663W        W25326   7.912   9.844  13.934
63664W        W25327   5.688  32.564   0.893
63665W        W25328  44.456  28.448  12.389
63666W        W25329  15.149   2.231  10.935
63667W        W25330   3.731  24.689   1.805
63668W        W25331  29.983   5.758   0.368
63669W        W25332  28.491   6.320   1.715
63670W        W25333  42.779   4.717   3.230
63671W        W25334  33.522  10.343   4.768
63672W        W25335  15.324   6.402  10.977
63673W        W25336  39.330  19.117  13.008
63674W        W25337  44.982  29.616   0.283
63675W        W25338  30.941  33.891  10.463
63676W        W25339  28.460  21.166   1.762
63677W        W25340  25.533  22.633   4.348
63678W        W25341  23.694  44.384  13.491
63679W        W25342  30.149  17.288  11.986
63680W        W25343  10.224  16.252   2.897
63681W        W25344   7.720  44.383   2.735
63682W        W25345   5.863  21.116   1.232
63683W        W25346   8.814  20.729   2.192
63684W        W25347  23.718  23.501  13.823
63685W        W25348  33.528  44.494   1.716
63686W        W25349  21.591   6.883   0.779
63687W        W25350   5.720   1.956   3.353
63688W        W25351   0.373  14.760  10.546
63689W        W25352  22.186   5.259  13.529
63690W        W25353  30.425   6.920   0.947
63691W        W25354   5.404  20.665   4.293
63692W        W25355  15.248  29.467  14.865
63693W        W25356  40.465  19.568   2.773
63694W        W25357   2.786  41.814  10.444
63695W        W25358  40.999  43.800  10.464
63696W        W25359  41.998  44.373   3.213
63697W        W25360   0.397  40.346   0.921
63698W        W25361   8.713   1.799  11.472
63699W        W25362  16.638  34.573   0.313
63700W        W25363  17.127  28.156  10.484
63701W        W25364  38.505  39.983  12.547
63702W        W25365  17.556  10.377  13.880
63703W        W25366   1.455   8.750  14.874
63704W        W25367  21.090  26.046  12.572
63705W        W25368  33.082  41.433  11.573
63706W        W25369  16.687  17.676  14.950
63707W        W25370  31.524  18.637   1.843
63708W        W25371  16.797   1.419  11.507
63709W        W25372  34.890  25.608  12.903
63710W        W25373   7.216  11.687  14.510
63711W        W25374  24.130  18.111   3.820
63712W        W25375  15.809  13.783  10.570
63713W        W25376  26.006  42.363   0.325
63714W        W25377  31.485   0.398  14.891
63715W        W25378  25.965  13.655   1.332
63716W        W25379   9.843  43.381  12.034
63717W        W25380  31.933  14.267   0.360
63718W        W25381  25.155  14.711   5.302
63719W        W25382  25.157  11.644  10.994
63720W        W25383  33.942  32.123  14.459
63721W        W25384  25.108  40.028  14.464
63722W        W25385  30.055   0.271  13.037
63723W        W25386  23.041   3.327   1.803
63724W        W25387  29.448  13.335   5.116
63725W        W25388  42.871  32.111   1.441
63726W        W25389   0.343  32.622  14.389
63727W        W25390  28.109  18.248   1.742
63728W        W25391  40.038   1.420  10.530
63729W        W25392  16.179  21.074  14.814
63730W        W25393   0.463   1.939  11.984
63731W        W25394  30.416  23.989  12.035
63732W        W25395  25.537  19.227  10.931
63733W        W25396  38.366  18.654   2.359
63734W        W25397   4.800  27.189   1.395
63735W        W25398   5.873  14.236  12.386
63736W        W25399   5.897   7.722  13.823
63737W        W25400  37.853  16.240  13.892
63738W        W25401   2.720   6.741  13.940
63739W        W25402   4.868  15.639   0.367
63740W        W25403  29.166  33.979  13.029
63741W        W25404  23.079   9.844   2.287
63742W        W25405   2.292  41.967  10.571
63743W        W25406  19.271  16.262  12.363
63744W        W25407  37.087  11.351   2.810
63745W        W25408   8.168  43.990   2.900
63746W        W25409   6.777  10.819  14.765
63747W        W25410  17.149  37.940   3.726
63748W        W25411  26.625  21.064   4.233
63749W        W25412  20.156   9.216  14.861
63750W        W25413  30.958   9.300   0.337
63751W        W25414  43.502  13.647  14.946
63752W        W25415   3.391  14.328   0.392
63753W        W25416  42.517  42.476  13.833
63754W        W25417  10.720   0.889   1.842
63755W        W25418  34.062  12.321   3.279
63756W        W25419   2.308  19.072   3.149
63757W        W25420  44.317   9.865  12.395
63758W        W25421  27.462  41.409  14.025
63759W        W25422  37.061  34.030  10.526
63760W        W25423   3.801  15.618   0.298
63761W        W25424  27.130  23.044   9.475
63762W        W25425  10.178  41.908   4.760
63763W        W25426  24.116  25.621  12.823
63764W        W25427  43.465  34.970  11.446
63765W        W25428  41.887   2.744  11.948
63766W        W25429  22.563  43.869   2.848
63767W        W25430  31.635  10.703  14.380
63768W        W25431  27.024  25.678  10.989
63769W        W25432  37.926  34.887  10.071
63770W        W25433  21.726   9.295  12.905
63771W        W25434  33.606  24.995  11.864
63772W        W25435  26.678  34.112  12.353
63773W        W25436  18.666  23.010   4.290
63774W        W25437  36.092  23.678   3.309
63775W        W25438  13.667  22.595   4.721
63776W        W25439  24.210  19.601  13.484
63777W        W25440  16.626  41.853   0.462
63778W        W25441  18.065   2.293  12.470
63779W        W25442  18.082  36.973   0.305
63780W        W25443  26.472  24.643  14.357
63781W        W25444   1.789  39.885   3.232
63782W        W25445  32.944   4.390   4.312
63783W        W25446  32.540  15.093  12.972
63784W        W25447  41.338  25.173   4.116
63785W        W25448   3.256  16.725  12.485
63786W        W25449  37.451   0.441  14.447
63787W        W25450  14.164  31.090   3.772
63788W        W25451  26.180  27.026  12.433
63789W        W25452  34.885  21.559  11.547
63790W        W25453  42.001  10.193  11.540
63791W        W25454  34.063  16.078  13.951
63792W        W25455  39.419   7.796   4.669
63793W        W25456  28.031  10.227  12.939
63794W        W25457   1.786  12.847  11.107
63795W        W25458  37.001  17.628   2.848
63796W        W25459   1.396  10.755   1.843
63797W        W25460  41.990  33.397   1.812
63798W        W25461  43.927  44.837  13.412
63799W        W25462  11.843  11.785  10.620
63800W        W25463   6.286  44.897   2.219
63801W        W25464   0.960   9.309  11.512
63802W        W25465  11.282  24.590   3.253
63803W        W25466  32.487  39.900  11.918
63804W        W25467  31.054  35.548  11.535
63805W        W25468  28.111  27.103   2.275
63806W        W25469  44.846  32.132  10.888
63807W        W25470  26.123  24.059  13.797
63808W        W25471   6.830   0.802  11.103
63809W        W25472  18.281  12.318   4.326
63810W        W25473  42.503  30.499  13.046
63811W        W25474  14.596   5.910  12.948
63812W        W25475   7.193  17.223   3.748
63813W        W25476  11.235  15.147   2.835
63814W        W25477  35.905  21.527   3.312
63815W        W25478  31.046  24.197  14.418
63816W        W25479  42.488  14.827  13.031
63817W        W25480  12.220  15.615  13.412
63818W        W25481  42.833  39.937  13.988
63819W        W25482  32.476   5.826   2.316
63820W        W25483  34.896   0.405  10.011
63821W        W25484   8.710  25.088  10.600
63822W        W25485  44.884  11.277   4.811
63823W        W25486  28.649  32.047   2.834
63824W        W25487  15.672   3.409  10.638
63825W        W25488  29.532  25.988   4.600
63826W        W25489   8.169  33.103  14.423
63827W        W25490  11.142  32.898  11.540
63828W        W25491  40.870  28.091  13.902
63829W        W25492  37.852   4.778   1.406
63830W        W25493  35.368  13.111  13.932
63831W        W25494  37.999  14.778   3.651
63832W        W25495  44.363  17.296  13.356
63833W        W25496  15.683  15.225   4.257
63834W        W25497  19.697  39.473  10.484
63835W        W25498  16.584  39.989   2.869
63836W        W25499  28.634   1.946  10.439
63837W        W25500  36.059  32.466   0.414
63838W        W25501  41.986  43.393   4.339
63839W        W25502   1.805  39.321   3.691
63840W        W25503   1.809  33.449   0.827
63841W        W25504  12.166  27.504   3.675
63842W        W25505  24.986   5.804   1.301
63843W        W25506  21.029  27.462  11.416
63844W        W25507  10.817  21.116   4.827
63845W        W25508  28.145  26.033  13.400
63846W        W25509  35.981  26.126   4.145
63847W        W25510  14.679  13.192   3.656
63848W        W25511  34.548   9.367   0.897
63849W        W25512  41.378  28.950  12.558
63850W        W25513  32.520  24.656   1.384
63851W        W25514  36.593  17.610  13.857
63852W        W25515  41.999  14.749  12.465
63853W        W25516   5.242  29.161   2.785
63854W        W25517   5.805   8.751   4.814
63855W        W25518  41.312  42.495  11.428
63856W        W25519  10.776  14.270  14.404
63857W        W25520  27.689  13.316   3.812
63858W        W25521  26.628   7.876  14.502
63859W        W25522  14.139  33.024   4.693
63860W        W25523  29.557  21.238   5.302
63861W        W25524   3.266  34.037  13.437
63862W        W25525  30.120  12.254  11.580
63863W        W25526   3.413  43.869  10.932
63864W        W25527  42.883   4.848  13.815
63865W        W25528  18.789  36.547  13.507
63866W        W25529  16.165   2.327  11.051
63867W        W25530  34.554   1.367   3.672
63868W        W25531  43.512  31.615   0.726
63869W        W25532  32.467  10.206  13.901
63870W        W25533  26.531  32.931  13.796
63871W        W25534  18.776  23.576  12.923
63872W        W25535  30.136  25.674  12.915
63873W        W25536  28.620   8.720   2.669
63874W        W25537  40.015  31.636  11.392
63875W        W25538  31.615  23.514  11.945
63876W        W25539  20.270   9.154   3.353
63877W        W25540   4.827  36.919   3.313
63878W        W25541  28.637  44.970   4.281
63879W        W25542  26.619  43.399   9.960
63880W        W25543  22.706  33.410   2.214
63881W        W25544  17.720  13.659   3.721
63882W        W25545   9.694  37.890  12.385
63883W        W25546  11.824  24.635  13.058
63884W        W25547  18.673  34.520  12.571
63885W        W25548  18.172  18.576   3.257
63886W        W25549  37.979  13.723  12.580
63887W        W25550  34.970  10.871  10.997
63888W        W25551  36.913   2.735  11.556
63889W        W25552  19.753  42.808  13.846
63890W        W25553  26.587  32.049  13.960
63891W        W25554   2.727  40.862   1.846
63892W        W25555  24.526  10.191  11.057
63893W        W25556  13.210  39.487  12.043
63894W        W25557  25.538   9.757  10.427
63895W        W25558  23.184   3.271   2.682
63896W        W25559  12.792  39.411  10.983
63897W        W25560  35.470  24.535  11.880
63898W        W25561   6.223   0.898   2.767
63899W        W25562  19.684  19.270  14.916
63900W        W25563   0.932  41.924   0.269
63901W        W25564  32.972   8.786   3.159
63902W        W25565  12.165  34.391  11.534
63903W        W25566  20.595  23.733  14.433
63904W        W25567  10.289  42.309  12.888
63905W        W25568  19.107  38.876   0.785
63906W        W25569  14.669   2.352   3.752
63907W        W25570   5.779  25.528  11.572
63908W        W25571  24.674  33.903   2.316
63909W        W25572  40.521  39.519  10.621
63910W        W25573  27.543  43.824   3.811
63911W        W25574  17.732  15.583  13.812
63912W        W25575  29.591  18.698   3.240
63913W        W25576  22.736   8.393  13.940
63914W        W25577  37.957  44.484   3.262
63915W        W25578  30.995  36.479  10.414
63916W        W25579   6.406  27.128  13.856
63917W        W25580  41.870  41.926  10.917
63918W        W25581  37.996  34.994   3.383
63919W        W25582   4.279  16.615   1.365
63920W        W25583  23.518  30.540   2.392
63921W        W25584  42.408  44.391   4.336
63922W        W25585  43.922   4.872  14.979
63923W        W25586  34.104  44.399  13.929
63924W        W25587  20.183  21.590  12.434
63925W        W25588  37.911  27.943  11.443
63926W        W25589  26.679   1.464   3.313
63927W        W25590  26.588  20.571   2.343
63928W        W25591  26.970  39.424   1.350
63929W        W25592  20.262  29.458  11.524
63930W        W25593   7.844  42.965  12.955
63931W        W25594   0.804  44.431  12.396
63932W        W25595  39.976  43.505  11.863
63933W        W25596   0.302  36.557  12.979
63934W        W25597  42.522  29.964  13.374
63935W        W25598  10.208  35.492  10.939
63936W        W25599  31.094  24.544   1.348
63937W        W25600  32.991  44.880  13.835
63938W        W25601  43.510  20.758  12.575
63939W        W25602   7.328  37.566   1.797
63940W        W25603  22.091  18.588  10.437
63941W        W25604  41.964  38.548   2.678
63942W        W25605  20.082  17.654  11.991
63943W        W25606   3.277  15.092   2.776
63944W        W25607  35.909  27.186   1.395
63945W        W25608  19.743  29.149  12.544
63946W        W25609  37.524  27.496   3.343
63947W        W25610  32.532  29.950  12.865
63948W        W25611  33.041  35.918  13.511
63949W        W25612   1.959  41.304  12.481
63950W        W25613  37.919  20.180   1.328
63951W        W25614  12.629  19.175  10.619
63952W        W25615  24.228  40.411  14.924
63953W        W25616  35.471  25.047   1.787
63954W        W25617  28.157  36.002  14.331
63955W        W25618  27.049   7.306  10.501
63956W        W25619  35.539  32.445   1.917
63957W        W25620  16.116  28.545  13.369
63958W        W25621  44.816  42.895   3.719
63959W        W25622  30.485  16.642   1.898
63960W        W25623   5.688  37.336   2.724
63961W        W25624  43.427  32.568  13.386
63962W        W25625  44.933  37.888   4.669
63963W        W25626  33.889   5.259  13.308
63964W        W25627  24.692  19.272   4.773
63965W        W25628  27.082   2.386  12.823
63966W        W25629  13.216   2.953  14.311
63967W        W25630  36.515  43.916  13.367
63968W        W25631  17.558   8.262   0.272
63969W        W25632  15.141  16.237  12.091
63970W        W25633  17.179  14.786   1.274
63971W        W25634   7.188  39.412   3.762
63972W        W25635   7.203  41.451  13.835
63973W        W25636  18.625  41.324   3.665
63974W        W25637  11.184  34.414  11.467
63975W        W25638  19.535   2.415  10.906
63976W        W25639  43.309  37.948  13.876
63977W        W25640  25.125   3.813   0.471
63978W        W25641  32.403  13.610   4.819
63979W        W25642  28.109  39.815   2.748
63980W        W25643   3.897  23.589  11.467
63981W        W25644  27.577  39.059  14.908
63982W        W25645  28.662  25.080  11.962
63983W        W25646  16.733  16.627  13.522
63984W        W25647  42.459  39.812   1.398
63985W        W25648  25.517  31.941   1.382
63986W        W25649  16.623  19.635   4.278
63987W        W25650  37.017  24.503  12.971
63988W        W25651   7.284  15.719  14.782
63989W        W25652  34.005  11.761   2.234
63990W        W25653  39.362  38.553   3.644
63991W        W25654  18.250  18.562   0.374
63992W        W25655  18.297  42.828  10.543
63993W        W25656  18.184   0.249   2.731
63994W        W25657  28.625   2.340  14.279
63995W        W25658   9.163  44.289  10.009
63996W        W25659  28.119   1.312  12.347
63997W        W25660  36.935  19.590  11.585
63998W        W25661  34.936   9.297   5.156
63999W        W25662  27.652  16.724   1.379
64000W        W25663  33.908  16.613  13.542
64001W        W25664  28.186  38.515  13.936
64002W        W25665  22.180  43.476   1.795
64003W        W25666  12.315  38.457   0.814
64004W        W25667   6.901  20.083   2.876
64005W        W25668  11.627   5.831  12.357
64006W        W25669  35.963  19.770   1.382
64007W        W25670  33.909  29.108   1.279
64008W        W25671  25.544   1.480  12.823
64009W        W25672  27.156   0.374   2.702
64010W        W25673  19.066  28.086  13.471
64011W        W25674   5.828   4.902   0.946
64012W        W25675  13.285  20.097   1.230
64013W        W25676   8.710  29.557   0.468
64014W        W25677  13.777  23.612  12.976
64015W        W25678  19.573  14.275  13.878
64016W        W25679  33.584  42.486  11.042
64017W        W25680   5.755  13.632   4.298
64018W        W25681  40.881  10.355  14.375
64019W        W25682  37.974  13.779   4.224
64020W        W25683   5.887   8.338  13.977
64021W        W25684   5.889  15.323   3.311
64022W        W25685  23.522  36.522  14.409
64023W        W25686  37.986  43.893  10.948
64024W        W25687  31.953   9.855  10.078
64025W        W25688  17.595  27.048   2.224
64026W        W25689  32.006  19.162   0.478
64027W        W25690   7.382  27.087   4.836
64028W        W25691  28.041  41.298   1.747
64029W        W25692  27.186  34.083   4.285
64030W        W25693  18.238  35.487  11.435
64031W        W25694  20.237  28.951  14.886
64032W        W25695  38.064  14.337   5.311
64033W        W25696  32.931  42.994  13.474
64034W        W25697  29.442   0.875  13.510
64035W        W25698  22.593  22.027   3.781
64036W        W25699  10.858  35.054   4.749
64037W        W25700  10.235  27.169   0.861
64038W        W25701  11.716  16.750  13.004
64039W        W25702  20.695   5.930  13.505
64040W        W25703  20.063  43.828   2.733
64041W        W25704  31.589   5.714   4.134
64042W        W25705  24.543  29.466   0.430
64043W        W25706  39.037  20.602   1.295
64044W        W25707  30.067  25.112  10.468
64045W        W25708  41.511  12.202  10.493
64046W        W25709  35.891   0.407  10.921
64047W        W25710  36.979  43.395   0.328
64048W        W25711  12.252  16.125   2.733
64049W        W25712  39.987  22.525   1.775
64050W        W25713  41.813  37.939   3.172
64051W        W25714  39.363  12.284  13.007
64052W        W25715  36.495  32.074   4.749
64053W        W25716  42.938  43.336  12.455
64054W        W25717  41.519   3.726  12.379
64055W        W25718  32.065  37.853  10.448
64056W        W25719  39.893  19.181   2.310
64057W        W25720   3.351  29.128   4.824
64058W        W25721   4.869  39.038  11.921
64059W        W25722  38.421  38.937  11.996
64060W        W25723  34.613   1.837   0.314
64061W        W25724   1.300  41.902   0.260
64062W        W25725  39.985  36.505   0.415
64063W        W25726  41.418  33.021   2.737
64064W        W25727   1.867  15.719  14.952
64065W        W25728  33.444   5.799   2.899
64066W        W25729  31.517   7.211  11.910
64067W        W25730   9.150  20.098  13.832
64068W        W25731  33.962  10.670   4.653
64069W        W25732  19.275  34.410   0.246
64070W        W25733  28.067  37.832  11.580
64071W        W25734  38.535  24.199   4.656
64072W        W25735  32.430  42.442  12.871
64073W        W25736  29.103   0.771   0.753
64074W        W25737  24.976  25.145   3.359
64075W        W25738  25.714  20.133   0.937
64076W        W25739  19.182   4.408   4.303
64077W        W25740  21.621  41.369  11.037
64078W        W25741  28.658  17.075   4.325
64079W        W25742  21.032  28.166  11.072
64080W        W25743  14.316   3.817   0.306
64081W        W25744  24.482  25.994   2.775
64082W        W25745  32.943  16.089   1.802
64083W        W25746  43.909  33.886  11.106
64084W        W25747  28.116  37.378  13.477
64085W        W25748   9.380  44.499  13.973
64086W        W25749  19.244  22.057   1.265
64087W        W25750  37.871  28.650  13.517
64088W        W25751  14.639  21.553  12.084
64089W        W25752  43.510   5.827   9.932
64090W        W25753  19.156  25.554  11.887
64091W        W25754   1.362  42.881  14.907
64092W        W25755   7.785  28.617  10.976
64093W        W25756  26.499   4.827   1.304
64094W        W25757  19.221   0.917  13.940
64095W        W25758  13.137  42.517   3.758
64096W        W25759  39.855  25.702   3.659
64097W        W25760  24.559  29.094   4.632
64098W        W25761  33.062   4.874  11.561
64099W        W25762   6.764  44.816  11.514
64100W        W25763  23.121  43.463   3.695
64101W        W25764   3.891  11.310   0.436
64102W        W25765   8.710   9.358  13.818
64103W        W25766  23.176  26.052   5.739
64104W        W25767  32.599  43.316   0.950
64105W        W25768   5.803  19.168   3.689
64106W        W25769  19.179  16.108  12.973
64107W        W25770  25.133  37.419  10.406
64108W        W25771   3.323   0.492   0.907
64109W        W25772  34.587  37.384   4.818
64110W        W25773  37.388   6.352   5.248
64111W        W25774  32.412  43.506   4.333
64112W        W25775  25.524  39.514   1.315
64113W        W25776  17.605  35.049   4.230
64114W        W25777  42.483   5.884   2.255
64115W        W25778  10.696  26.662  11.063
64116W        W25779   7.881  17.770   3.161
64117W        W25780  17.258  22.543   0.925
64118W        W25781  25.630  38.882  14.834
64119W        W25782  23.045  11.754  11.980
64120W        W25783  27.544  10.284  13.796
64121W        W25784   9.808   2.776  12.379
64122W        W25785  18.756  30.499   5.129
64123W        W25786   8.234  32.424  10.919
64124W        W25787  18.264  26.563  13.913
64125W        W25788   2.768  31.644   3.777
64126W        W25789   0.899  41.362  12.340
64127W        W25790  42.368  19.280  10.935
64128W        W25791  38.969  24.141  13.385
64129W        W25792   9.240  38.062   0.455
64130W        W25793  22.704  14.313   2.352
64131W        W25794  19.633  17.634  13.472
64132W        W25795  29.124  37.365  14.418
64133W        W25796  33.381  14.306   4.295
64134W        W25797  17.615   0.836   4.675
64135W        W25798  43.357  19.173  13.984
64136W        W25799  29.918  43.434   4.316
64137W        W25800  22.229  31.490  13.397
64138W        W25801  44.381   1.773   2.214
64139W        W25802  36.380   5.746   4.238
64140W        W25803  39.874  23.150   3.217
64141W        W25804  31.048  17.584  11.431
64142W        W25805   7.387  18.680  13.964
64143W        W25806  27.501  38.984  14.433
64144W        W25807   2.432  22.584   5.172
64145W        W25808  26.112  43.008  10.450
64146W        W25809  35.404  11.331  11.027
64147W        W25810  37.886  10.723  11.538
64148W        W25811  32.563  44.275  12.876
64149W        W25812   3.437  32.089   0.870
64150W        W25813   5.874  20.605   0.370
64151W        W25814   9.301  28.043  11.103
64152W        W25815  38.894  38.415  12.981
64153W        W25816  37.581   7.900   4.149
64154W        W25817  12.302  34.447   0.373
64155W        W25818  29.134  42.022  10.475
64156W        W25819  21.629  38.929  13.947
64157W        W25820  43.369  18.663  12.825
64158W        W25821  29.565  25.641  12.534
64159W        W25822  36.527   2.799  11.595
64160W        W25823  42.349  11.802   0.417
64161W        W25824  13.824  14.207  12.847
64162W        W25825  29.062  35.978  14.880
64163W        W25826  14.698   5.274   0.763
64164W        W25827  15.268  12.846   2.279
64165W        W25828  40.486  13.334   0.776
64166W        W25829  22.194  43.944   0.442
64167W        W25830  27.447  44.471  14.277
64168W        W25831  38.030  23.054   4.711
64169W        W25832  27.595  25.626  11.447
64170W        W25833  14.692   3.781  13.510
64171W        W25834  43.895  38.983  11.096
64172W        W25835  23.179  34.551  14.008
64173W        W25836  23.492   9.182   4.757
64174W        W25837   2.299  35.086  13.912
64175W        W25838   2.933  26.967   1.823
64176W        W25839  21.585  40.503   4.730
64177W        W25840  38.007   1.961  11.406
64178W        W25841   7.274  32.427  10.917
64179W        W25842  13.716   7.803   5.191
64180W        W25843  22.740  27.966  11.047
64181W        W25844  36.855  34.596  14.846
64182W        W25845   7.869   0.330  11.983
64183W        W25846  27.121  22.039  10.642
64184W        W25847  21.079  36.426   3.361
64185W        W25848  38.839  44.931   1.375
64186W        W25849  41.865  35.092  14.776
64187W        W25850  21.599  21.063   1.214
64188W        W25851  44.792   7.334  11.061
64189W        W25852   5.724  41.924  13.498
64190W        W25853   4.348  22.547  12.514
64191W        W25854   0.274  11.777  14.814
64192W        W25855  21.132   7.326   2.204
64193W        W25856  19.694  24.117   4.687
64194W        W25857  13.824  20.064  13.442
64195W        W25858  34.376  32.511  12.549
64196W        W25859  12.680  35.577   2.235
64197W        W25860   5.298  11.293   3.336
64198W        W25861  11.343   6.426  14.912
64199W        W25862  14.275  21.721  12.849
64200W        W25863  30.521  16.195  14.934
64201W        W25864  22.122  15.754  10.143
64202W        W25865  34.098  43.492   0.417
64203W        W25866  29.120  28.063  13.452
64204W        W25867  11.264   8.243  13.986
64205W        W25868  12.764  37.984   1.759
64206W        W25869  42.526  30.617  10.545
64207W        W25870  28.009  37.555  13.011
64208W        W25871  26.187  35.936   4.241
64209W        W25872   5.396  15.281   0.415
64210W        W25873  32.549  38.928   4.730
64211W        W25874   8.694  24.137  11.550
64212W        W25875   2.427  41.363  12.500
64213W        W25876  44.778  10.152   2.711
64214W        W25877  43.938  44.953   4.232
64215W        W25878  20.034  36.007   5.109
64216W        W25879  11.249  18.220   1.792
64217W        W25880  22.615   5.843   3.637
64218W        W25881  11.313  16.108  10.898
64219W        W25882  28.159  22.136  12.050
64220W        W25883  13.753   8.698   5.169
64221W        W25884   2.432  24.064   5.259
64222W        W25885  26.971  15.217   1.854
64223W        W25886  40.804   1.766  11.914
64224W        W25887  31.101  12.789  10.917
64225W        W25888  37.422  28.462   2.309
64226W        W25889  37.845  39.551   0.450
64227W        W25890  27.600  19.191   2.250
64228W        W25891  35.881   6.688   2.333
64229W        W25892  16.269  24.479  11.089
64230W        W25893   6.315  20.150   1.767
64231W        W25894  22.733  43.493  13.932
64232W        W25895  39.370  30.018   0.395
64233W        W25896   3.390   8.688  13.463
64234W        W25897  43.475  14.208   2.681
64235W        W25898  42.317  10.285  11.974
64236W        W25899  22.999   3.863  12.825
64237W        W25900   3.461  28.468   2.270
64238W        W25901  19.669  30.109  14.448
64239W        W25902   7.853   0.251  11.541
64240W        W25903  27.614  24.136   0.481
64241W        W25904  38.038  28.004  10.536
64242W        W25905  31.415   6.679   0.478
64243W        W25906  39.505   6.722  13.534
64244W        W25907  20.530  25.519  13.811
64245W        W25908  31.425  39.508  12.519
64246W        W25909   1.286  31.144  14.783
64247W        W25910  23.562  19.196  14.498
64248W        W25911   9.882  21.179  13.323
64249W        W25912   0.907   4.427  10.107
64250W        W25913  33.111   8.703   4.280
64251W        W25914   6.700  40.348  10.928
64252W        W25915  43.007  11.826  13.805
64253W        W25916  15.732   2.286   3.149
64254W        W25917  37.576   1.248  12.971
64255W        W25918  42.469  27.485   2.219
64256W        W25919  43.902  44.771   2.858
64257W        W25920  39.894  20.181  14.857
64258W        W25921  17.564  21.125   2.204
64259W        W25922   9.332  26.513   4.775
64260W        W25923  13.734   9.783  10.907
64261W        W25924   1.814  28.099   3.819
64262W        W25925   4.942  40.023  13.428
64263W        W25926  10.145  11.238  14.899
64264W        W25927  41.890  26.499  10.640
64265W        W25928  18.070  34.442   2.720
64266W        W25929  43.343  24.700  11.995
64267W        W25930  35.896   0.385  11.593
64268W        W25931   4.260  25.073   1.747
64269W        W25932  14.733  19.665   1.221
64270W        W25933  19.130  40.464   1.837
64271W        W25934  10.333  39.339  11.510
64272W        W25935  32.896  19.268  11.567
64273W        W25936  37.551  32.508  12.501
64274W        W25937  39.818  39.958  12.893
64275W        W25938  41.040  25.107  11.102
64276W        W25939  33.900   5.732  12.972
64277W        W25940   5.821  39.421  13.806
64278W        W25941  23.006  31.011  11.525
64279W        W25942   0.790  39.530  13.040
64280W        W25943  19.780  14.757  14.904
64281W        W25944  13.692  35.436  14.827
64282W        W25945  26.084  10.802   4.295
64283W        W25946  43.514  26.526  11.983
64284W        W25947  21.512  11.689   4.139
64285W        W25948  25.052  17.231  13.360
64286W        W25949  21.255   6.364  14.866
64287W        W25950   1.348   3.948   2.336
64288W        W25951  20.746  10.256  12.451
64289W        W25952   4.305  30.492  12.380
64290W        W25953  41.870  18.237   1.282
64291W        W25954  19.600  35.374  12.534
64292W        W25955   5.292  22.659   4.680
64293W        W25956  10.185   5.924  12.423
64294W        W25957   2.270  18.260   9.924
64295W        W25958  38.919  25.499   3.322
64296W        W25959  33.522  36.909   4.295
64297W        W25960   7.704  28.497  12.833
64298W        W25961   0.790   4.229   0.396
64299W        W25962  36.370   9.822  14.971
64300W        W25963  17.647  18.208   2.250
64301W        W25964  16.603  12.302  11.559
64302W        W25965  27.465  37.989  12.576
64303W        W25966  10.149  30.989   2.814
64304W        W25967   9.777  24.062   0.932
64305W        W25968   9.271  40.382   0.900
64306W        W25969  10.170  29.451  14.942
64307W        W25970  20.063  17.773   0.339
64308W        W25971   2.743  35.604  14.314
64309W        W25972  34.453  14.120  13.424
64310W        W25973  36.369  26.989  11.572
64311W        W25974  38.370   3.785  14.032
64312W        W25975  33.587  31.132  11.984
64313W        W25976  21.652  32.913  12.370
64314W        W25977  16.142  26.106   0.906
64315W        W25978  39.888  39.449  13.388
64316W        W25979  40.935  19.146  13.823
64317W        W25980  26.592   2.228   4.631
64318W        W25981  11.303  40.487   4.127
64319W        W25982   4.261   8.687   3.309
64320W        W25983  44.345  40.350  12.450
64321W        W25984  27.032  38.989   1.841
64322W        W25985   8.331  30.911  11.584
64323W        W25986  25.524  26.473   1.395
64324W        W25987  43.368  40.995  14.868
64325W        W25988  10.342  30.012  11.067
64326W        W25989  20.716   0.900  14.433
64327W        W25990  21.587  40.367  13.809
64328W        W25991   5.244   5.894   4.711
64329W        W25992  42.387   7.739  11.950
64330W        W25993  26.660  36.047   2.232
64331W        W25994  40.320  40.397  12.533
64332W        W25995  44.834  23.582   1.928
64333W        W25996   6.685  35.387  12.369
64334W        W25997  26.010   3.949  11.888
64335W        W25998  36.513  36.545   3.822
64336W        W25999   4.875   8.267   1.694
64337W        W26000  42.956  18.136   4.134
64338W        W26001  12.634  29.998  14.416
64339W        W26002   3.313  11.691   4.121
64340W        W26003   2.305  19.673   3.729
64341W        W26004  14.723   6.423  11.046
64342W        W26005  14.596  36.954  12.894
64343W        W26006  40.941  39.359  13.976
64344W        W26007   1.971  44.833  11.085
64345W        W26008  37.979  35.079   1.435
64346W        W26009   2.403   4.345   1.238
64347W        W26010  41.400  24.174   2.741
64348W        W26011  15.327  39.895  13.963
64349W        W26012   9.685  35.023  12.970
64350W        W26013  23.537  42.522   4.736
64351W        W26014  40.368   7.392   0.462
64352W        W26015  16.317  38.435  13.831
64353W        W26016  32.478   8.715   1.754
64354W        W26017  31.953  37.083  11.572
64355W        W26018  44.909  42.289   1.386
64356W        W26019  17.083  33.105  10.457
64357W        W26020   1.358   1.930   2.192
64358W        W26021  13.668  29.168   2.290
64359W        W26022  11.331  42.033   3.299
64360W        W26023  39.471  22.006  14.479
64361W        W26024  28.959  41.832   3.796
64362W        W26025  44.877   3.910  14.825
64363W        W26026   4.424   1.904   4.654
64364W        W26027  20.050   4.925  12.507
64365W        W26028  19.736  39.364   3.298
64366W        W26029   2.884  33.623  12.537
64367W        W26030  40.930   8.838  14.019
64368W        W26031  17.303   7.764   2.883
64369W        W26032  12.756  39.018   3.382
64370W        W26033  10.354  42.896   1.235
64371W        W26034  21.066  30.514   2.231
64372W        W26035  37.865   0.805   4.148
64373W        W26036  16.162   0.761  13.892
64374W        W26037  23.667  19.710  12.420
64375W        W26038  34.943  27.083  10.924
64376W        W26039  22.043   4.936  13.039
64377W        W26040   2.875  14.096   0.372
64378W        W26041  11.862  10.789  13.943
64379W        W26042  30.002   9.788   2.253
64380W        W26043   4.910   5.889   4.287
64381W        W26044   2.243  40.951  14.842
64382W        W26045  10.167  16.204  13.885
64383W        W26046   2.414  33.526  12.389
64384W        W26047  10.157  32.942  13.372
64385W        W26048   2.739   2.309   0.479
64386W        W26049  18.110  17.068   1.770
64387W        W26050  23.060  27.559  13.991
64388W        W26051  34.614  13.316   0.397
64389W        W26052  35.964  18.642   1.722
64390W        W26053  38.556  40.542   4.177
64391W        W26054   3.452   2.300  14.887
64392W        W26055  28.621  42.787  14.421
64393W        W26056  42.807  28.987   0.823
64394W        W26057  42.396   9.841   2.717
64395W        W26058  15.658  21.241   0.869
64396W        W26059  35.986  42.435   3.298
64397W        W26060   2.731  31.455  11.995
64398W        W26061  13.153  35.381  12.860
64399W        W26062   0.471   1.946  12.557
64400W        W26063   2.955  40.873  11.052
64401W        W26064   2.864  22.667   0.331
64402W        W26065   4.441  21.567   3.645
64403W        W26066  22.607   2.850   1.756
64404W        W26067  14.223  41.000   0.448
64405W        W26068  33.620  17.288   5.237
64406W        W26069   8.780  16.231   3.811
64407W        W26070  18.135  23.028   0.381
64408W        W26071  43.887  13.349  13.426
64409W        W26072  11.687  27.142  13.348
64410W        W26073   3.357  39.030   1.411
64411W        W26074  22.077   1.733  13.331
64412W        W26075  15.296  17.728  10.525
64413W        W26076  39.323  30.962  11.097
64414W        W26077  24.036  41.334   3.845
64415W        W26078  13.223  43.456   0.913
64416W        W26079   7.317  19.106   3.789
64417W        W26080  38.867  26.503   5.248
64418W        W26081   8.863  38.432   1.277
64419W        W26082  21.090   6.720   2.865
64420W        W26083  15.772   7.724  14.026
64421W        W26084  24.669  10.224   1.362
64422W        W26085   4.220   6.238  12.465
64423W        W26086  16.704  18.605   4.653
64424W        W26087  26.468  10.268  14.360
64425W        W26088  33.976  37.386  14.876
64426W        W26089  26.203  32.602  11.480
64427W        W26090  19.158  27.002  14.957
64428W        W26091  17.065  24.093  12.576
64429W        W26092  13.141  13.785  10.992
64430W        W26093   6.319  12.176   3.811
64431W        W26094  41.494  18.646   2.838
64432W        W26095  39.430  17.711   0.869
64433W        W26096  11.219  41.856   1.849
64434W        W26097  24.219  38.358   1.241
64435W        W26098  15.257   8.668  12.937
64436W        W26099   5.433  44.409   0.449
64437W        W26100  12.686  29.123  12.006
64438W        W26101  15.184   6.814   3.830
64439W        W26102  24.173  24.602   0.370
64440W        W26103  20.760  44.820   2.352
64441W        W26104  22.596  28.488  13.880
64442W        W26105   8.371  11.205   3.318
64443W        W26106   0.934  14.601   4.787
64444W        W26107  26.634  31.071   0.383
64445W        W26108   0.871  43.905   1.442
64446W        W26109  39.323   0.845   2.347
64447W        W26110  37.952  44.003  12.456
64448W        W26111  31.411  37.999  14.417
64449W        W26112  37.028  37.389  11.921
64450W        W26113   2.253  20.749   4.749
64451W        W26114  39.833  15.804  14.397
64452W        W26115  30.493  36.853   1.260
64453W        W26116   2.336  31.106   3.695
64454W        W26117  18.143   1.968   2.218
64455W        W26118   8.726  36.443   1.284
64456W        W26119   3.258  16.273   1.741
64457W        W26120   7.301  17.286   4.795
64458W        W26121  29.127  14.222   1.767
64459W        W26122  14.218  13.782   1.774
64460W        W26123  19.622  21.205  13.793
64461W        W26124   0.270  41.980   3.354
64462W        W26125  44.868  39.438  13.466
64463W        W26126  39.925  29.014  14.908
64464W        W26127  36.561  11.627   1.408
64465W        W26128  17.111  39.530  10.071
64466W        W26129   7.359   9.200   2.676
64467W        W26130  16.749  12.663   3.638
64468W        W26131  18.787  41.476  10.506
64469W        W26132  19.045  17.156  10.556
64470W        W26133   7.850   2.819   3.768
64471W        W26134  22.560  11.625  14.460
64472W        W26135  17.266  20.039  12.088
64473W        W26136  13.215   1.432   2.821
64474W        W26137  41.973  36.935  12.855
64475W        W26138   7.734  32.410   4.648
64476W        W26139  11.823  10.200   2.219
64477W        W26140  36.993  14.647  14.826
64478W        W26141  41.380  12.723   1.839
64479W        W26142  30.048  35.465   2.823
64480W        W26143  27.522   3.273  14.385
64481W        W26144  43.814   3.920   4.800
64482W        W26145  39.521  38.520  14.770
64483W        W26146  15.667  13.342  11.577
64484W        W26147  44.823  18.063   3.205
64485W        W26148   6.727  30.538  13.317
64486W        W26149   9.178  29.557   2.713
64487W        W26150  32.970  38.023  13.828
64488W        W26151  16.584  40.388   4.803
64489W        W26152  18.114  15.766  11.032
64490W        W26153  24.011  34.104   2.194
64491W        W26154  24.552  32.626  13.335
64492W        W26155  20.547  12.670  12.378
64493W        W26156   9.778   6.689   0.896
64494W        W26157  37.982  37.944  14.443
64495W        W26158  26.481  33.987   0.394
64496W        W26159  22.725  42.878  10.601
64497W        W26160  26.164  21.223   1.698
64498W        W26161  20.226  21.201  11.012
64499W        W26162  29.017  23.201   0.291
64500W        W26163   0.444   6.417   1.251
64501W        W26164  13.202   2.376   1.302
64502W        W26165   1.832  35.569   0.747
64503W        W26166  20.706  34.970   4.772
64504W        W26167   5.923  43.407   4.634
64505W        W26168   4.733   3.242   3.842
64506W        W26169  27.492  23.193  14.020
64507W        W26170   9.200  20.251  11.087
64508W        W26171  43.344  13.205   0.303
64509W        W26172   8.308  11.202   4.324
64510W        W26173  12.356   1.869  14.973
64511W        W26174   9.374  44.786   1.283
64512W        W26175  20.245   8.871   4.780
64513W        W26176  33.504  43.833   0.266
64514W        W26177  16.668  27.567   2.364
64515W        W26178  41.923  40.345   4.148
64516W        W26179   0.874  14.654   5.081
64517W        W26180  36.852   2.783  10.501
64518W        W26181   4.373  24.695   4.834
64519W        W26182  44.774   4.268   2.268
64520W        W26183  41.816  42.780   4.824
64521W        W26184  34.939  43.982  13.401
64522W        W26185   0.408   7.810  13.496
64523W        W26186   2.388  23.217   2.701
64524W        W26187  20.147  26.155   1.265
64525W        W26188  16.730   7.299   1.381
64526W        W26189  16.074   3.386   5.209
64527W        W26190  36.845   7.790   0.856
64528W        W26191  42.022  28.065  12.911
64529W        W26192  23.058  17.662  13.509
64530W        W26193  19.157  41.374   4.824
64531W        W26194  34.491  18.253   3.253
64532W        W26195  10.840   2.453   1.779
64533W        W26196  14.098  25.567  14.855
64534W        W26197  16.760  28.980   1.397
64535W        W26198  13.708   8.308   3.663
64536W        W26199  10.678  37.369  14.004
64537W        W26200  38.980  20.628   0.832
64538W        W26201  15.756  24.520  13.397
64539W        W26202  44.462  35.016  11.460
64540W        W26203   4.888  27.965   5.092
64541W        W26204  16.082  43.429   4.284
64542W        W26205  18.123  40.360   0.334
64543W        W26206  42.908  35.042  13.983
64544W        W26207  18.559  10.731   3.664
64545W        W26208  30.510  35.425  14.353
64546W        W26209  10.866  37.510   2.395
64547W        W26210  42.358  29.001  10.964
64548W        W26211  16.608  35.450   0.898
64549W        W26212  40.460  44.005  12.967
64550W        W26213   1.883  38.460  14.961
64551W        W26214  41.907  25.995   0.342
64552W        W26215  41.375   5.342   3.766
64553W        W26216  30.430  16.214  13.020
64554W        W26217   6.745  30.007  12.868
64555W        W26218   3.891  13.333   3.296
64556W        W26219   5.285  22.097   0.250
64557W        W26220  11.681  10.723  11.963
64558W        W26221  41.454  43.478   3.375
64559W        W26222  37.488  31.142  13.511
64560W        W26223  40.320   7.665  11.521
64561W        W26224   3.786  28.152  13.423
64562W        W26225  37.984  27.972  11.084
64563W        W26226  30.105  14.255   0.463
64564W        W26227  24.130  34.540  14.499
64565W        W26228   1.867  24.207  12.942
64566W        W26229  12.659  20.028  11.510
64567W        W26230  30.080  44.309  13.524
64568W        W26231  22.148  30.055  12.469
64569W        W26232  20.146  40.005   4.764
64570W        W26233  19.611  22.148   4.770
64571W        W26234  38.357  42.800   3.832
64572W        W26235  23.095  26.635  13.014
64573W        W26236  20.558  20.639  14.313
64574W        W26237  26.056  38.374   4.118
64575W        W26238  26.094  27.593   2.775
64576W        W26239  33.441  24.620   9.523
64577W        W26240  31.149  39.333  13.998
64578W        W26241  14.601  18.651   3.711
64579W        W26242  30.105  20.700  12.407
64580W        W26243  29.056  32.072  13.923
64581W        W26244  44.963  17.613   0.299
64582W        W26245  38.399   1.804   4.219
64583W        W26246  14.181  31.414  11.536
64584W        W26247  23.561   7.683   3.840
64585W        W26248  20.529  32.580   0.733
64586W        W26249  18.108   1.351   4.177
64587W        W26250  26.646   5.271  12.350
64588W        W26251  24.166  40.991  14.780
64589W        W26252  30.141  15.112  14.019
64590W        W26253  30.446  33.416  11.411
64591W        W26254  35.569  41.854   4.207
64592W        W26255  24.150  31.511  12.549
64593W        W26256   8.387   2.745  12.513
64594W        W26257  37.527  26.478  14.901
64595W        W26258  20.750  20.764   3.775
64596W        W26259  19.197  18.262  14.444
64597W        W26260  15.286  44.876   0.378
64598W        W26261  20.079  38.054   3.206
64599W        W26262  24.508  28.616   4.801
64600W        W26263  41.376  31.102   2.834
64601W        W26264  15.172   4.360  14.771
64602W        W26265  11.859   2.847  14.942
64603W        W26266  26.141  28.634  11.040
64604W        W26267   8.657  31.114  11.383
64605W        W26268  13.763   2.878   0.845
64606W        W26269  19.223  20.140   0.324
64607W        W26270   3.316  21.514  12.948
64608W        W26271  33.035  22.630   2.331
64609W        W26272   3.293  36.039  13.421
64610W        W26273  19.051  36.988   3.232
64611W        W26274  22.740  13.623   2.229
64612W        W26275  29.088   8.708  11.874
64613W        W26276  17.660  20.124   1.804
64614W        W26277  36.391  30.592  10.079
64615W        W26278   0.967  10.696   4.643
64616W        W26279   5.407   4.737   2.299
64617W        W26280  39.495   9.308  12.396
64618W        W26281  36.095  42.295   2.780
64619W        W26282   4.801   1.903   0.826
64620W        W26283  41.313  29.634  11.096
64621W        W26284   8.256   1.367  10.441
64622W        W26285   8.397  18.277  14.409
64623W        W26286  27.514   7.683   3.203
64624W        W26287  25.018  39.029   0.782
64625W        W26288   2.778  23.714   1.790
64626W        W26289  15.585  11.235  11.076
64627W        W26290  15.123  44.461  12.076
64628W        W26291  11.686  31.570   4.290
64629W        W26292   5.213  36.549  12.827
64630W        W26293  14.790  34.543  10.557
64631W        W26294  37.424  18.176   0.753
64632W        W26295  29.160  30.435  12.904
64633W        W26296   7.412  42.902   0.477
64634W        W26297   2.389  33.445  10.604
64635W        W26298   5.894   0.382  11.503
64636W        W26299  40.540   2.427  10.582
64637W        W26300   9.341  26.469  13.342
64638W        W26301  31.094  16.707   1.283
64639W        W26302  17.585   0.866   2.407
64640W        W26303  29.973   5.374  14.009
64641W        W26304  38.493  16.291   3.353
64642W        W26305   5.252   8.710   0.364
64643W        W26306  32.066  25.714   3.691
64644W        W26307  38.906  37.399   3.172
64645W        W26308   6.905  11.224   1.932
64646W        W26309  14.679   5.882   1.337
64647W        W26310  41.922  19.247   4.140
64648W        W26311  44.861  28.084  14.290
64649W        W26312  29.048  24.996   3.211
64650W        W26313  27.971   1.878  13.320
64651W        W26314  39.357  11.690   1.744
64652W        W26315  41.465   9.865  14.012
64653W        W26316  34.551  18.288  12.017
64654W        W26317  13.162  40.844   4.821
64655W        W26318  30.580  13.214   3.763
64656W        W26319   7.292   0.934  12.567
64657W        W26320   9.850  27.179   0.944
64658W        W26321   8.845   6.713  10.896
64659W        W26322  33.895  32.515   3.747
64660W        W26323  20.630  42.951   0.392
64661W        W26324  27.588  32.031  12.530
64662W        W26325  18.586  17.192  12.465
64663W        W26326  13.827  42.435  14.295
64664W        W26327  29.134  23.112  14.412
64665W        W26328  37.987  20.523  10.616
64666W        W26329  16.218  39.064   0.432
64667W        W26330  10.299  29.121   1.846
64668W        W26331  18.631  38.462  14.874
64669W        W26332  19.040  32.392  13.028
64670W        W26333  28.450  40.892   3.832
64671W        W26334  40.472   2.887   3.273
64672W        W26335   5.811  14.673   3.360
64673W        W26336  23.626  11.840   2.695
64674W        W26337  27.469  17.565  13.970
64675W        W26338   4.730  28.007   0.373
64676W        W26339  31.438  38.868  12.488
64677W        W26340  16.309   0.269   1.370
64678W        W26341  39.404  25.687  11.571
64679W        W26342  20.680   8.218  11.607
64680W        W26343  29.163  14.733  11.469
64681W        W26344  21.536  42.933   4.235
64682W        W26345  25.713  38.464  14.990
64683W        W26346   3.304  38.445   4.604
64684W        W26347  22.658  37.935  14.320
64685W        W26348  18.217  39.929   1.694
64686W        W26349   9.313   4.849  11.423
64687W        W26350  43.981  26.701   0.425
64688W        W26351  43.005   9.148  13.865
64689W        W26352   2.450   5.857   4.641
64690W        W26353   3.729  35.054  11.451
64691W        W26354  40.850  34.375   0.849
64692W        W26355  36.061  27.094  10.986
64693W        W26356  11.346  44.406  12.400
64694W        W26357  34.491   7.311  12.378
64695W        W26358  43.408   0.462  13.965
64696W        W26359  12.741  35.987   3.645
64697W        W26360  43.803  34.076  13.958
64698W        W26361   8.181   4.912   3.170
64699W        W26362   6.687  34.603  13.965
64700W        W26363  40.935   6.754   4.600
64701W        W26364  18.140  36.896  13.899
64702W        W26365  22.052  14.223  12.911
64703W        W26366  21.535   3.941  13.857
64704W        W26367  25.018  16.160   1.872
64705W        W26368  12.179  42.406   4.179
64706W        W26369  27.182  42.349  12.091
64707W        W26370  39.861  25.040  10.551
64708W        W26371  25.147  28.479   4.143
64709W        W26372  40.955  15.782  10.534
64710W        W26373  16.755   0.980   3.698
64711W        W26374  26.043  37.440   4.760
64712W        W26375   8.165  25.147  11.071
64713W        W26376  29.042   0.319  14.998
64714W        W26377  35.030   7.320   4.293
64715W        W26378  37.492   4.386  10.552
64716W        W26379  16.785  16.228  11.907
64717W        W26380  12.816   8.843  12.853
64718W        W26381  36.020  32.977   3.363
64719W        W26382  37.875   5.762   4.349
64720W        W26383  16.694  12.341  10.566
64721W        W26384   0.888  13.201   5.124
64722W        W26385  30.588   4.718  13.962
64723W        W26386   8.160   5.410   3.726
64724W        W26387  26.604  20.758  12.037
64725W        W26388  34.496  30.474  11.096
64726W        W26389  11.319  32.928   2.804
64727W        W26390   0.463  24.169   3.190
64728W        W26391  29.997  44.400  13.944
64729W        W26392  32.523  39.399   4.791
64730W        W26393   9.270  15.205   1.753
64731W        W26394  24.058  14.734  11.442
64732W        W26395  35.370  27.046   3.155
64733W        W26396   1.937  14.831  14.844
64734W        W26397  35.907  26.005  11.502
64735W        W26398   0.491  10.633   2.212
64736W        W26399  30.481  40.899  12.837
64737W        W26400  38.840  44.313  10.426
64738W        W26401  40.830  11.795   3.237
64739W        W26402  35.992   5.718   1.333
64740W        W26403  28.648  25.160  14.289
64741W        W26404  33.105   1.366  12.059
64742W        W26405  14.769  34.069   1.388
64743W        W26406  21.710  30.013  12.500
64744W        W26407  33.548  22.548   5.583
64745W        W26408  41.415   1.244  13.448
64746W        W26409  19.241  25.190   0.403
64747W        W26410   0.969  35.564   4.604
64748W        W26411  10.138  20.120  12.861
64749W        W26412  40.394  39.000   2.327
64750W        W26413   3.450   1.317   4.709
64751W        W26414  34.559   2.315   2.800
64752W        W26415  42.306  14.804   3.808
64753W        W26416  24.034  35.574  14.443
64754W        W26417  37.348  35.537   3.380
64755W        W26418   6.791  36.050  11.897
64756W        W26419   2.400  24.040   0.815
64757W        W26420  15.675  38.913  12.461
64758W        W26421  23.136  35.539  11.567
64759W        W26422  17.107  19.102   9.960
64760W        W26423   0.439  32.533   1.767
64761W        W26424  29.023  10.294   1.805
64762W        W26425  39.022  23.134   0.826
64763W        W26426   5.895  18.770  12.899
64764W        W26427  42.315  13.747   3.307
64765W        W26428  23.576  26.596   0.316
64766W        W26429  42.296  19.214  10.458
64767W        W26430  24.216   3.776   0.963
64768W        W26431  32.115  34.554  12.921
64769W        W26432   8.792   6.188   5.190
64770W        W26433  21.617  17.120  11.105
64771W        W26434   1.789  16.757  12.470
64772W        W26435  41.969  17.260   0.807
64773W        W26436  34.538   4.701   4.176
64774W        W26437  19.631  40.536  10.409
64775W        W26438   9.879  20.528   3.359
64776W        W26439   9.264   0.964  12.988
64777W        W26440  24.018   6.684  11.377
64778W        W26441   5.193  30.584   3.205
64779W        W26442  30.045  43.406   0.433
64780W        W26443  10.270   3.828  12.505
64781W        W26444  13.691  35.430  11.941
64782W        W26445  34.610  39.998   4.832
64783W        W26446  35.535   8.865   0.882
64784W        W26447  28.451  26.123  11.041
64785W        W26448  40.443  23.129   1.332
64786W        W26449  32.542  34.527  14.482
64787W        W26450  29.954   2.367   0.828
64788W        W26451  20.626   2.835   0.275
64789W        W26452   7.854   5.199   4.325
64790W        W26453   6.289   9.158   0.329
64791W        W26454   1.332   2.886  14.384
64792W        W26455  13.706  20.686   3.809
64793W        W26456  25.533   7.904  13.990
64794W        W26457   6.327  14.700   3.275
64795W        W26458  43.791  31.932  10.125
64796W        W26459   8.800   8.383   1.712
64797W        W26460  24.013  11.224  14.430
64798W        W26461  15.121  13.824  13.509
64799W        W26462  34.948  17.279   0.322
64800W        W26463   6.243   7.314   0.956
64801W        W26464   0.861  22.043   3.267
64802W        W26465  31.434  13.786   4.127
64803W        W26466  14.705  28.637   0.444
64804W        W26467  10.684  28.091  11.901
64805W        W26468   4.294  25.670   4.158
64806W        W26469  12.248   2.447  11.942
64807W        W26470  26.674   7.334  12.463
64808W        W26471   9.319  12.135   2.193
64809W        W26472  16.255  44.931  10.429
64810W        W26473  22.508  39.000   2.817
64811W        W26474  43.281  11.692   2.664
64812W        W26475   8.703   4.854   4.195
64813W        W26476   8.340  13.755   3.163
64814W        W26477  20.563  29.093   2.392
64815W        W26478  12.702  15.248   1.847
64816W        W26479  11.139  25.084  12.521
64817W        W26480  42.484  12.667   0.819
64818W        W26481  38.877   8.388  13.032
64819W        W26482  17.286  21.605  11.449
64820W        W26483  10.324  15.682  10.002
64821W        W26484  27.049  25.169   4.644
64822W        W26485  32.634  18.651   2.666
64823W        W26486  35.096   1.860   1.886
64824W        W26487  21.710   6.910   3.824
64825W        W26488   1.356  36.536  14.974
64826W        W26489   9.386  43.016  13.374
64827W        W26490  17.602  44.425  12.529
64828W        W26491  42.328  24.117   4.238
64829W        W26492  40.461   8.796   3.366
64830W        W26493  32.532  24.711   2.873
64831W        W26494  41.334   9.826   2.384
64832W        W26495  27.183  39.422   0.402
64833W        W26496  31.621   5.842   3.330
64834W        W26497  39.547  36.499   2.348
64835W        W26498  35.571  18.563  13.352
64836W        W26499  16.651  22.667   4.804
64837W        W26500  26.470   8.701  14.459
64838W        W26501  12.209  38.327  10.975
64839W        W26502  16.666  15.676   1.893
64840W        W26503  40.858  38.992  12.906
64841W        W26504  27.162   8.334  12.837
64842W        W26505  35.534  22.078   1.702
64843W        W26506  44.365  17.623  12.955
64844W        W26507  24.619  21.630   0.358
64845W        W26508   3.750  44.933   0.410
64846W        W26509  24.685   7.379  12.407
64847W        W26510  26.197  30.027  10.995
64848W        W26511  37.372   2.898  13.413
64849W        W26512  39.817  26.078  13.000
64850W        W26513  37.887  16.811  12.507
64851W        W26514   2.326  30.413   5.167
64852W        W26515   9.887   3.905  13.398
64853W        W26516  38.409  24.686   3.772
64854W        W26517  27.062  17.739  11.897
64855W        W26518  11.161  40.542  14.980
64856W        W26519   5.746  36.960   1.929
64857W        W26520  32.065   7.901  10.447
64858W        W26521  41.519   8.739   0.442
64859W        W26522  40.025   2.777   0.253
64860W        W26523  23.213  12.173   1.773
64861W        W26524  35.973  33.464   1.741
64862W        W26525  38.971  11.193  14.446
64863W        W26526   3.312  13.168   2.407
64864W        W26527  31.080  29.577  11.507
64865W        W26528  27.533  26.573   1.728
64866W        W26529   7.261   5.855  12.345
64867W        W26530  22.625  23.578   4.173
64868W        W26531  43.807   8.195  13.325
64869W        W26532  13.725  25.540   3.319
64870W        W26533  39.941  21.128   3.683
64871W        W26534  38.070  23.176   0.436
64872W        W26535  20.224  13.177   0.967
64873W        W26536   6.194  19.540   5.273
64874W        W26537  44.779  26.594   0.281
64875W        W26538   4.284   3.447   3.263
64876W        W26539  24.497  16.286  11.052
64877W        W26540  41.477  30.072   3.179
64878W        W26541  30.153  14.180   1.917
64879W        W26542  31.117  26.560   1.712
64880W        W26543  29.530  44.495  12.408
64881W        W26544  24.197   8.820   9.984
64882W        W26545  35.601   9.754  13.521
64883W        W26546  12.354  43.899  12.919
64884W        W26547  43.340  15.638   2.750
64885W        W26548  33.882  18.598   2.892
64886W        W26549  34.982  21.661   1.904
64887W        W26550  14.132  44.357   2.738
64888W        W26551  28.979  35.500  12.886
64889W        W26552  13.777  22.540  12.367
64890W        W26553  30.516   6.784  10.972
64891W        W26554  42.323  29.116  14.870
64892W        W26555  11.338  29.117   0.368
64893W        W26556  20.154  23.089  11.922
64894W        W26557   1.449   9.327   1.797
64895W        W26558   8.346  35.537   0.338
64896W        W26559   7.220  31.541   0.957
64897W        W26560  21.665  17.086  13.408
64898W        W26561  10.355  37.923  11.054
64899W        W26562  32.099  33.436  10.594
64900W        W26563  28.435   2.727   0.782
64901W        W26564  12.677  37.552   0.462
64902W        W26565  11.744  42.984   0.727
64903W        W26566  11.784  23.564  10.582
64904W        W26567  11.181  13.222   0.430
64905W        W26568  11.144  40.024   3.826
64906W        W26569  16.644  36.919   4.250
64907W        W26570   5.304  13.285  14.825
64908W        W26571   8.324  36.959   0.378
64909W        W26572   2.890  40.385  13.398
64910W        W26573  11.326  32.484   2.328
64911W        W26574  42.973  33.998  14.897
64912W        W26575   2.882  11.274   2.405
64913W        W26576  20.692  30.914   4.622
64914W        W26577  39.827  14.611  10.981
64915W        W26578  24.522   0.402  14.282
64916W        W26579   0.843   4.709  12.434
64917W        W26580  43.954   5.782   3.356
64918W        W26581  25.071  29.430  11.371
64919W        W26582   8.268  20.036  12.445
64920W        W26583  34.063  20.614  13.543
64921W        W26584  21.131   3.798  11.069
64922W        W26585  33.920  25.148  14.947
64923W        W26586  32.986  26.012   1.215
64924W        W26587  22.614  42.330  12.554
64925W        W26588  43.855  10.808   2.887
64926W        W26589   1.395  32.011   1.391
64927W        W26590   7.904  22.742   9.978
64928W        W26591  17.765   6.843   4.216
64929W        W26592  37.529  38.538  12.551
64930W        W26593  30.953  33.992  14.793
64931W        W26594  10.256   6.855   3.804
64932W        W26595  31.581  35.392  13.946
64933W        W26596  37.932  17.772  11.890
64934W        W26597  41.338  41.804   2.892
64935W        W26598  23.005  28.029  14.816
64936W        W26599  25.650  12.135  10.599
64937W        W26600  27.582  22.073  11.093
64938W        W26601   0.744  17.661  13.798
64939W        W26602  13.753  40.887   3.706
64940W        W26603  29.631   1.394  11.554
64941W        W26604   1.342  33.510   2.386
64942W        W26605  32.949  38.545   4.325
64943W        W26606  10.711  42.012  12.542
64944W        W26607  40.943   7.672  11.115
64945W        W26608  37.014   9.351  12.519
64946W        W26609  11.280  37.861   3.317
64947W        W26610  42.527  36.465  14.477
64948W        W26611  42.342  23.112  11.424
64949W        W26612  37.371   9.150   5.174
64950W        W26613  36.001  26.525   3.328
64951W        W26614  16.250  25.639  13.814
64952W        W26615  17.650   0.465  14.958
64953W        W26616   4.924  24.163  11.606
64954W        W26617  26.623  28.138   4.242
64955W        W26618  19.647  15.261  12.061
64956W        W26619   3.885   1.906  10.628
64957W        W26620  21.682  25.059   9.989
64958W        W26621  32.059  11.361   2.251
64959W        W26622  14.661   7.295   3.652
64960W        W26623  27.640  36.095  11.859
64961W        W26624  40.412  26.046  10.423
64962W        W26625   5.768  24.629  10.590
64963W        W26626  28.012  25.057  13.390
64964W        W26627   6.757  40.414   4.735
64965W        W26628  19.631  41.867   1.451
64966W        W26629  12.662  17.270   2.675
64967W        W26630  15.655  24.152   1.787
64968W        W26631  12.316   5.314  13.438
64969W        W26632   4.237  14.593  13.868
64970W        W26633   6.361  37.067   4.791
64971W        W26634  20.114  15.695   2.710
64972W        W26635   6.195  35.372   4.756
64973W        W26636  19.711  21.247  13.341
64974W        W26637  25.184   8.313   3.157
64975W        W26638  32.569   2.803   0.859
64976W        W26639  42.836  18.249   0.283
64977W        W26640  22.133  42.929  12.516
64978W        W26641   5.715  28.172   2.770
64979W        W26642   3.279  39.815  12.023
64980W        W26643  41.819  42.904  12.056
64981W        W26644  22.606  30.999  10.536
64982W        W26645  26.503   5.861  12.420
64983W        W26646   8.336  18.568  13.017
64984W        W26647   0.817  27.000   0.263
64985W        W26648  31.627  22.734  12.536
64986W        W26649   6.735  19.228  12.461
64987W        W26650   8.208   6.191   4.739
64988W        W26651  20.536  17.802   1.290
64989W        W26652  39.994  27.495  13.906
64990W        W26653  17.245  36.533  10.062
64991W        W26654  37.917  31.450  13.863
64992W        W26655  20.571  26.683  14.351
64993W        W26656  16.087  24.495   3.775
64994W        W26657  14.756  28.066   4.650
64995W        W26658   5.357  15.681  12.872
64996W        W26659  18.153  42.784   0.737
64997W        W26660   7.212   8.713   0.346
64998W        W26661  10.875  40.306  11.970
64999W        W26662   1.920  13.842  11.612
65000W        W26663  17.301  15.724   3.180
65001W        W26664  12.734   2.898   0.357
65002W        W26665  17.244  20.654   4.225
65003W        W26666  35.095   7.314  11.927
65004W        W26667  36.045  18.784  10.431
65005W        W26668  15.580  22.146  14.405
65006W        W26669  37.339   0.393  12.991
65007W        W26670  15.589   0.370   0.858
65008W        W26671  31.626  37.951   4.121
65009W        W26672   4.883  12.714   2.203
65010W        W26673  24.042  26.062  11.979
65011W        W26674  33.989  33.420   4.678
65012W        W26675   0.441   7.376   3.865
65013W        W26676  12.258   1.297  14.311
65014W        W26677  23.584  37.372   3.362
65015W        W26678  23.583  33.513   2.744
65016W        W26679  18.657  19.052   0.902
65017W        W26680   3.261  16.110  13.967
65018W        W26681  22.167  17.193   3.340
65019W        W26682  28.615   3.936   4.626
65020W        W26683  17.141   1.337  10.915
65021W        W26684  13.328  26.661   4.694
65022W        W26685   0.903  30.912   3.779
65023W        W26686  36.524  32.956  14.496
65024W        W26687   0.865  32.541   0.396
65025W        W26688  14.229  27.557  12.417
65026W        W26689  42.982   9.218  14.412
65027W        W26690  38.406  19.770  11.914
65028W        W26691  33.056  30.545   2.826
65029W        W26692  24.138   9.274  14.929
65030W        W26693  20.640  43.421   3.322
65031W        W26694  43.413   6.217  13.897
65032W        W26695  23.594  37.506  12.052
65033W        W26696  22.609  19.215  13.496
65034W        W26697  19.085  43.007   4.189
65035W        W26698  27.558   5.196  10.891
65036W        W26699  23.684   4.319  12.019
65037W        W26700  16.568  23.643   0.298
65038W        W26701  44.364  35.477   4.779
65039W        W26702   6.870  28.638   0.266
65040W        W26703  24.019  42.426  12.433
65041W        W26704  44.843  31.093   4.291
65042W        W26705   4.403  36.939   0.914
65043W        W26706  21.613   6.226   1.889
65044W        W26707  24.483  30.162  12.985
65045W        W26708  19.224  29.973  13.356
65046W        W26709  14.116  25.666   2.716
65047W        W26710  11.334   5.718  14.395
65048W        W26711  14.237  39.404  12.944
65049W        W26712   9.235  20.740  12.975
65050W        W26713   7.815  27.114   1.388
65051W        W26714  12.313  36.546  10.057
65052W        W26715  10.733  25.975  11.439
65053W        W26716  29.935  16.138  11.373
65054W        W26717   1.417  35.865   4.256
65055W        W26718  21.589  33.459   2.692
65056W        W26719  17.721  36.547   5.127
65057W        W26720  15.638  12.619  10.001
65058W        W26721  28.454  34.460  13.039
65059W        W26722   2.800  12.737  10.614
65060W        W26723  21.657  13.228  13.390
65061W        W26724  24.643  21.589   0.864
65062W        W26725  11.171  26.510  13.506
65063W        W26726  13.764  29.056   4.280
65064W        W26727   6.741  32.630   4.613
65065W        W26728   0.333   1.355   3.381
65066W        W26729  12.818  22.058  14.946
65067W        W26730  40.450  27.454  14.395
65068W        W26731  42.294   5.326   3.686
65069W        W26732   2.777   0.283   4.292
65070W        W26733  37.525  27.107  12.846
65071W        W26734  15.656  35.522   1.245
65072W        W26735   9.826  36.398   1.430
65073W        W26736  33.903  37.517  11.004
65074W        W26737  17.177   3.378   2.189
65075W        W26738  39.939  28.161   4.226
65076W        W26739  41.955   3.367   3.837
65077W        W26740  36.532  12.645  12.087
65078W        W26741   7.288  34.959  11.439
65079W        W26742  25.710  23.565   3.710
65080W        W26743  13.258  38.533  10.987
65081W        W26744  12.713  37.852  10.456
65082W        W26745  24.096  11.358  10.958
65083W        W26746  13.204   7.405  13.378
65084W        W26747  21.647  22.042   0.411
65085W        W26748  22.104  22.737   3.324
65086W        W26749  38.988  29.001  14.857
65087W        W26750  11.127   6.331  10.946
65088W        W26751  44.905  36.985   1.343
65089W        W26752  27.666  28.474   1.223
65090W        W26753  36.592  35.487   1.354
65091W        W26754  35.996  31.046   1.755
65092W        W26755  10.247   4.796   1.934
65093W        W26756  38.004  37.053  10.494
65094W        W26757  13.193  13.108  14.409
65095W        W26758  44.472  26.028   4.292
65096W        W26759  41.345  18.601  10.614
65097W        W26760   8.232  17.116   3.209
65098W        W26761  29.156  25.473  10.928
65099W        W26762  14.177  18.555  12.461
65100W        W26763  18.099  22.735   2.830
65101W        W26764  31.547  43.963   4.780
65102W        W26765   1.902  13.175   4.272
65103W        W26766   1.873   5.885  12.981
65104W        W26767   7.676  39.834  13.452
65105W        W26768  40.958  24.180  11.612
65106W        W26769  19.765  21.213  11.461
65107W        W26770  26.052  10.852   0.454
65108W        W26771   9.370   3.905  13.357
65109W        W26772   4.328  15.121  14.509
65110W        W26773  25.707  41.515  14.853
65111W        W26774  20.077  42.368   2.192
65112W        W26775   9.646  36.522  11.005
65113W        W26776   4.295   0.350  11.955
65114W        W26777  29.950  36.508   2.877
65115W        W26778  15.790  23.554  10.446
65116W        W26779   9.782  35.070  13.971
65117W        W26780   1.286   5.417  10.914
65118W        W26781  43.780  11.621  11.952
65119W        W26782  26.988   2.345  13.329
65120W        W26783   4.223  38.892  13.970
65121W        W26784   3.835  27.068  10.925
65122W        W26785  40.837  40.402   2.313
65123W        W26786   2.862  22.130  11.373
65124W        W26787   4.304   8.893  14.289
65125W        W26788  17.276  32.592   2.189
65126W        W26789   9.284  22.221   1.423
65127W        W26790  39.508   0.765   0.848
65128W        W26791  19.700  44.367  12.875
65129W        W26792   8.185   1.834   3.750
65130W        W26793  11.861   3.220  10.546
65131W        W26794  21.602  31.479  10.555
65132W        W26795  20.573  13.737  14.775
65133W        W26796  12.740  18.546  12.044
65134W        W26797  19.726  42.936   0.822
65135W        W26798  28.094  36.850   4.294
65136W        W26799  41.326  36.548  14.326
65137W        W26800   3.222  21.039  12.895
65138W        W26801  15.617  14.208   4.652
65139W        W26802  26.092  16.742   3.242
65140W        W26803  17.240  44.379   0.729
65141W        W26804  37.463  32.019  12.926
65142W        W26805   6.844   0.297  11.913
65143W        W26806  23.002   8.190  11.113
65144W        W26807  27.015  14.268  11.499
65145W        W26808  18.783   0.277  11.423
65146W        W26809  19.582  17.211   2.416
65147W        W26810   2.846  18.724  12.982
65148W        W26811  40.502  26.154  13.829
65149W        W26812   6.872   4.937  11.593
65150W        W26813  20.716   5.885   4.217
65151W        W26814  18.790   9.777  14.787
65152W        W26815  34.609  27.120   2.674
65153W        W26816  12.326   1.847  11.495
65154W        W26817  29.975  37.423  12.482
65155W        W26818   9.173  24.224   3.287
65156W        W26819  32.098   8.826   3.786
65157W        W26820  32.600  15.796  14.442
65158W        W26821  41.796  30.984  10.521
65159W        W26822  33.085  42.436  12.089
65160W        W26823  27.006  27.134  10.480
65161W        W26824  33.082   2.343   2.394
65162W        W26825  32.515  28.962  12.960
65163W        W26826  37.481  15.623  14.476
65164W        W26827  26.581   1.966  11.395
65165W        W26828  42.423  15.807  12.986
65166W        W26829  17.069   5.809   3.709
65167W        W26830  24.990  32.985  10.473
65168W        W26831  38.412  28.674   0.871
65169W        W26832  24.986  17.270  14.798
65170W        W26833  44.365  37.352   2.196
65171W        W26834  44.492  37.976   0.339
65172W        W26835  10.238   3.341   1.360
65173W        W26836  27.483  26.581   5.117
65174W        W26837  33.449   4.319  11.041
65175W        W26838  34.931  17.786  12.411
65176W        W26839  12.813  14.136  11.611
65177W        W26840   9.759  20.671  10.630
65178W        W26841   3.866  17.234  14.807
65179W        W26842  34.052  28.135  14.914
65180W        W26843   4.893  42.318   0.909
65181W        W26844   2.416  39.542   0.418
65182W        W26845  33.905  40.365   0.276
65183W        W26846  13.711  22.033   1.288
65184W        W26847  34.496  33.959  13.029
65185W        W26848  25.204  12.224  12.435
65186W        W26849  12.808  10.183   0.412
65187W        W26850   1.455   0.428   4.338
65188W        W26851  33.385   0.439   4.620
65189W        W26852  12.335  35.476   2.203
65190W        W26853  24.000  38.375   0.284
65191W        W26854  25.507  15.148   0.876
65192W        W26855  38.033   6.198  12.048
65193W        W26856  41.833  22.716  10.598
65194W        W26857  30.646  17.242   3.314
65195W        W26858  41.483  18.205   2.303
65196W        W26859  36.033  29.450   0.244
65197W        W26860  24.654  36.397   3.355
65198W        W26861   0.363   9.251   3.787
65199W        W26862  36.951  27.499   1.250
65200W        W26863  33.128  12.762  10.521
65201W        W26864   8.256  29.599   0.320
65202W        W26865   7.411  40.936  13.421
65203W        W26866  13.810  40.822   2.192
65204W        W26867   5.761  27.584  12.931
65205W        W26868   8.721  11.629  10.543
65206W        W26869  14.665  10.684  12.345
65207W        W26870   4.848  15.677   1.802
65208W        W26871  29.098   0.313  12.879
65209W        W26872  12.319  33.005   0.279
65210W        W26873  30.922  41.522  13.429
65211W        W26874  23.144  23.492  11.928
65212W        W26875  33.529  25.647   4.726
65213W        W26876  18.622  34.387   4.833
65214W        W26877  31.439  23.720   4.630
65215W        W26878  16.799   5.225  10.626
65216W        W26879  25.711  28.019   2.379
65217W        W26880  41.959  10.838  11.110
65218W        W26881  43.285   0.261   1.915
65219W        W26882  26.195  42.343  10.608
65220W        W26883  39.330  36.376  10.986
65221W        W26884  18.632  36.918  14.840
65222W        W26885  41.300  11.260   1.308
65223W        W26886  16.164  40.496  11.392
65224W        W26887  39.018  30.007  14.994
65225W        W26888  33.604  26.491  12.883
65226W        W26889   6.327  18.790   1.361
65227W        W26890  29.942  16.233   4.244
65228W        W26891  24.515  37.018  11.381
65229W        W26892   5.431  43.421  12.391
65230W        W26893  44.370  34.041   0.759
65231W        W26894  26.984   6.258  11.884
65232W        W26895   7.810  30.438  11.973
65233W        W26896  24.998   0.423  11.408
65234W        W26897   4.382  26.967  12.050
65235W        W26898  40.849   6.277  11.998
65236W        W26899  15.214  43.456  11.918
65237W        W26900  21.223  22.715   1.316
65238W        W26901  39.815   8.343  10.913
65239W        W26902  36.028  41.890  11.008
65240W        W26903  15.732  20.056  12.906
65241W        W26904   1.354  42.526  13.860
65242W        W26905  14.617  33.619   0.402
65243W        W26906  44.466  11.768  14.825
65244W        W26907   5.873  38.939   3.776
65245W        W26908  27.667   3.905   2.402
65246W        W26909  23.576   2.892  12.565
65247W        W26910  22.090  35.889  13.332
65248W        W26911  37.985  33.547  11.097
65249W        W26912  15.129  11.844   1.397
65250W        W26913  38.546   4.819   4.280
65251W        W26914   5.827  19.125  11.944
65252W        W26915  30.539  26.491   3.153
65253W        W26916  36.851  33.126   2.867
65254W        W26917  27.183   3.397  13.901
65255W        W26918  21.153  10.758   2.360
65256W        W26919  30.125   4.211  11.406
65257W        W26920  43.367  41.037   1.369
65258W        W26921  44.346  10.340  13.026
65259W        W26922  31.120  30.130  14.398
65260W        W26923  40.430  23.166  11.550
65261W        W26924  11.626  29.145   0.309
65262W        W26925   3.752   7.702  11.557
65263W        W26926  22.054   5.304  12.069
65264W        W26927  21.120  29.168   4.628
65265W        W26928  32.014   4.359   3.846
65266W        W26929   8.727  12.120   2.763
65267W        W26930  20.650  37.835   0.478
65268W        W26931   8.711  37.962   3.347
65269W        W26932  35.086   9.714  10.490
65270W        W26933  13.273  36.534  11.427
65271W        W26934  13.728  26.192   1.277
65272W        W26935  38.330   8.179   5.239
65273W        W26936  14.773  34.035  14.290
65274W        W26937  25.153  35.025  13.018
65275W        W26938  41.534  31.980   4.248
65276W        W26939  22.251  29.988   2.205
65277W        W26940  24.178  10.180   4.838
65278W        W26941  32.621   8.305  11.048
65279W        W26942  18.644   3.280  10.622
65280W        W26943  20.171  30.593  12.018
65281W        W26944  18.101  29.473   0.291
65282W        W26945   7.824   5.785   1.297
65283W        W26946  11.174  35.532   3.310
65284W        W26947   4.910   5.329   4.147
65285W        W26948   8.655  38.047  11.592
65286W        W26949  27.454  31.503   0.865
65287W        W26950  41.890  24.683   2.380
65288W        W26951  32.411   9.184   4.768
65289W        W26952  32.560  36.534  11.577
65290W        W26953  18.196  43.013  13.055
65291W        W26954   0.798  29.168  10.566
65292W        W26955  41.460  17.259  11.584
65293W        W26956   2.460  29.158  13.413
65294W        W26957  38.988  22.743   1.925
65295W        W26958   6.277   9.693   2.273
65296W        W26959  36.916   7.179   1.236
65297W        W26960   9.837  10.705   0.891
65298W        W26961  37.475  41.010   1.701
65299W        W26962  24.220  10.706  11.063
65300W        W26963  40.421  10.173   5.213
65301W        W26964  42.516  44.962  12.414
65302W        W26965   5.792  16.709   2.321
65303W        W26966  26.621   3.274   3.257
65304W        W26967  31.091  15.769  14.369
65305W        W26968  16.223  13.787  12.539
65306W        W26969  44.395   2.302  12.473
65307W        W26970  44.905   0.793  13.859
65308W        W26971   6.185   6.730   3.252
65309W        W26972  14.644  15.597   4.164
65310W        W26973  13.704   4.700  14.929
65311W        W26974   4.840  34.068  10.416
65312W        W26975  25.982  18.084   0.850
65313W        W26976  32.532   8.877   3.288
65314W        W26977  16.684  43.885   1.272
65315W        W26978  13.716  13.157  12.563
65316W        W26979  17.680  10.719  11.536
65317W        W26980   5.732  12.261   2.231
65318W        W26981   3.884  38.960   1.847
65319W        W26982  27.956   5.376  14.401
65320W        W26983  11.656  43.455  10.530
65321W        W26984  30.023  44.756   3.675
65322W        W26985  31.018  25.489  13.382
65323W        W26986  25.196  22.097   3.844
65324W        W26987   5.259  17.655  11.390
65325W        W26988  35.095  10.717   0.272
65326W        W26989  30.496  11.170  11.859
65327W        W26990  13.846  26.622  14.326
65328W        W26991  40.978  17.263   2.392
65329W        W26992  36.394  36.518  10.504
65330W        W26993  38.992  13.251   5.159
65331W        W26994   6.870   2.963   2.193
65332W        W26995  36.039  30.612   1.924
65333W        W26996   5.367  25.647   2.798
65334W        W26997  24.586   4.724  11.612
65335W        W26998  44.955   0.483  11.957
65336W        W26999  24.632  44.802  10.643
65337W        W27000  25.651  17.148  11.029
65338W        W27001  42.967  27.017   3.247
65339W        W27002  44.758  15.683  12.054
65340W        W27003  21.690  23.127   4.676
65341W        W27004  39.901  39.317  11.437
65342W        W27005  22.098   7.271   4.323
65343W        W27006  11.276  15.208   0.885
65344W        W27007  33.921  29.061   4.652
65345W        W27008  16.668  20.552  13.367
65346W        W27009  19.746  26.147   0.427
65347W        W27010   4.447  36.466  10.559
65348W        W27011  14.653  28.610  10.958
65349W        W27012  22.102   8.696  14.890
65350W        W27013  35.936  14.204  13.019
65351W        W27014   9.877  44.911  13.475
65352W        W27015   4.778  10.174  12.051
65353W        W27016  11.296  25.185   1.418
65354W        W27017   4.782  21.225   3.737
65355W        W27018   9.748  37.395   4.163
65356W        W27019  11.840  21.154   2.830
65357W        W27020  33.534   2.469  12.998
65358W        W27021  35.424   1.765   0.379
65359W        W27022  10.803  29.090  12.364
65360W        W27023  14.811   5.391  14.366
65361W        W27024  21.027   7.773   3.802
65362W        W27025  25.009  38.327  14.962
65363W        W27026  35.469  23.540  14.488
65364W        W27027  33.946   6.334  13.944
65365W        W27028  25.099  31.594   0.863
65366W        W27029  11.862  34.403  10.959
65367W        W27030  33.532  17.112   0.433
65368W        W27031  42.451  35.096  14.462
65369W        W27032   2.439  18.057  10.930
65370W        W27033  13.838  14.608   4.797
65371W        W27034   7.816   9.869   4.135
65372W        W27035  19.059  32.600   4.205
65373W        W27036  27.141  13.770   2.264
65374W        W27037  32.463  18.647  11.538
65375W        W27038  40.426  13.318  13.026
65376W        W27039  15.819  33.568  11.414
65377W        W27040  34.525  23.705  13.325
65378W        W27041   5.438  20.039   3.354
65379W        W27042  40.445  36.947   3.631
65380W        W27043   8.845  11.335   2.800
65381W        W27044  15.599  21.162   1.839
65382W        W27045   2.311  41.479  12.000
65383W        W27046  28.054   5.716   4.719
65384W        W27047  29.424  34.509   4.813
65385W        W27048  41.449   2.281   3.654
65386W        W27049  26.095   1.844  10.900
65387W        W27050  39.337  33.921   3.806
65388W        W27051   9.381  14.801  13.887
65389W        W27052  13.619  39.549   2.693
65390W        W27053  43.360  27.097   0.840
65391W        W27054   6.844  40.513  13.435
65392W        W27055  27.094  42.426  10.561
65393W        W27056  15.768   2.836   0.328
65394W        W27057  29.616  26.061   2.889
65395W        W27058  44.004  10.316  13.975
65396W        W27059  17.118  35.867  11.900
65397W        W27060  31.441  37.946  13.923
65398W        W27061  39.343   5.903  13.309
65399W        W27062  15.173  42.008   1.372
65400W        W27063  35.537  11.828  13.004
65401W        W27064   1.971   7.778   1.758
65402W        W27065  13.762  12.678  11.964
65403W        W27066  24.074  34.537  12.971
65404W        W27067  35.007   3.445  13.529
65405W        W27068  35.049  41.000  10.517
65406W        W27069  25.993  18.258   1.883
65407W        W27070   4.863  38.455  14.979
65408W        W27071  16.247  29.526  13.866
65409W        W27072   3.777  41.537  14.828
65410W        W27073  13.673   5.212   1.710
65411W        W27074  44.760  18.219   1.294
65412W        W27075  10.760  42.808  13.871
65413W        W27076  14.806  15.219   0.244
65414W        W27077  19.118  20.633   0.243
65415W        W27078  11.189  42.009  11.595
65416W        W27079  15.119  44.807  12.095
65417W        W27080  14.640  41.898   1.709
65418W        W27081  16.289   9.750   0.276
65419W        W27082   3.258  12.841   3.173
65420W        W27083  43.393   1.865   3.369
65421W        W27084   7.690   7.213  13.060
65422W        W27085  31.095  17.697  10.644
65423W        W27086  43.455  24.724   2.739
65424W        W27087   7.845  40.813  13.343
65425W        W27088  28.089  40.015  11.875
65426W        W27089  41.811  42.972   2.900
65427W        W27090  32.553  20.152  11.983
65428W        W27091   6.414  18.282   5.244
65429W        W27092  34.051  42.518   2.727
65430W        W27093  21.114  12.267   1.313
65431W        W27094  25.156  14.813   2.329
65432W        W27095  17.207  26.636  10.018
65433W        W27096   7.825   0.357  10.643
65434W        W27097  15.282  14.760  12.068
65435W        W27098  25.542   5.378   0.943
65436W        W27099  14.808  24.211   0.468
65437W        W27100  42.287  38.023   2.900
65438W        W27101   6.883   4.704  12.402
65439W        W27102  39.411  33.975   3.198
65440W        W27103  28.136   5.196   3.146
65441W        W27104  29.587  24.006   4.629
65442W        W27105  11.363  38.437   2.351
65443W        W27106  44.771  39.468   0.900
65444W        W27107  23.030  15.319   4.651
65445W        W27108   5.203  17.615  11.909
65446W        W27109  25.669   2.749  11.459
65447W        W27110   7.264  15.311   2.294
65448W        W27111   1.905  37.903  11.557
65449W        W27112  37.557  10.717   1.889
65450W        W27113  28.568  16.085  14.806
65451W        W27114  39.429  37.900  10.596
65452W        W27115  31.626   7.225   2.702
65453W        W27116  41.908   1.844  10.128
65454W        W27117  41.441  12.611   4.286
65455W        W27118  15.216   8.696   3.717
65456W        W27119  20.237  17.800   4.321
65457W        W27120  20.546  12.765  13.332
65458W        W27121  33.490  37.418  13.451
65459W        W27122   0.303  36.931  11.013
65460W        W27123  16.570  43.813   2.419
65461W        W27124  32.040  11.714  12.345
65462W        W27125  25.031  36.023   2.297
65463W        W27126  27.504  21.626  14.956
65464W        W27127  40.019  12.708   3.340
65465W        W27128  17.124  25.061  10.524
65466W        W27129  25.565  32.055  11.480
65467W        W27130  17.136   9.243  11.979
65468W        W27131  39.009   3.866  10.549
65469W        W27132  38.463  12.227  10.465
65470W        W27133  40.813  25.190  12.522
65471W        W27134  18.610   4.868   4.740
65472W        W27135  31.941  23.078   3.365
65473W        W27136   2.334  35.361   1.927
65474W        W27137  34.477  14.275  12.864
65475W        W27138  30.077   7.379  10.501
65476W        W27139   1.426  42.370  11.453
65477W        W27140  44.321  18.663   0.317
65478W        W27141  23.724  29.007  12.997
65479W        W27142   2.908  44.505  11.010
65480W        W27143  12.672  26.055  12.068
65481W        W27144  11.782   8.665  12.827
65482W        W27145   8.699   2.262  10.558
65483W        W27146  34.865   4.272   1.214
65484W        W27147  11.142   6.833   2.226
65485W        W27148  32.012  17.177  10.973
65486W        W27149  38.394  38.331   3.718
65487W        W27150  14.252   1.872   0.876
65488W        W27151  42.426  33.389   2.678
65489W        W27152  24.178   9.165   0.370
65490W        W27153   3.262  20.040  12.458
65491W        W27154  24.096  43.966  13.416
65492W        W27155   7.892   4.388  12.574
65493W        W27156  31.941   9.786   3.703
65494W        W27157  39.983  35.936  11.417
65495W        W27158  35.483  17.613   3.302
65496W        W27159   2.298  37.872  14.410
65497W        W27160  33.038  40.353  11.895
65498W        W27161  18.685  44.848   0.287
65499W        W27162   2.896  37.016   0.306
65500W        W27163  17.225  38.041  11.610
65501W        W27164  19.640  11.779   2.290
65502W        W27165  32.489  34.992  12.054
65503W        W27166  35.476  43.358  14.512
65504W        W27167  10.275   2.789   4.203
65505W        W27168   2.863   9.395  12.079
65506W        W27169  21.145   7.903   1.861
65507W        W27170   6.891  15.275   3.380
65508W        W27171  35.601  27.002   4.813
65509W        W27172  35.055  36.033   1.325
65510W        W27173  23.014  29.012  13.848
65511W        W27174  23.063  25.603   2.181
65512W        W27175  22.550  30.499  14.382
65513W        W27176   8.257  41.312   1.889
65514W        W27177  38.880  30.026   4.619
65515W        W27178  31.930  18.061  12.925
65516W        W27179  43.804  10.170   9.641
65517W        W27180  25.090  20.754  12.433
65518W        W27181  28.080  36.969  14.312
65519W        W27182  36.460  41.366   0.334
65520W        W27183   9.724  36.058  14.415
65521W        W27184  33.895   5.799   4.133
65522W        W27185   2.312  35.566  13.058
65523W        W27186  33.582  17.607   0.908
65524W        W27187  37.969  17.610  13.355
65525W        W27188  31.579   2.372   1.401
65526W        W27189  22.203   4.424   0.933
65527W        W27190  23.036  23.165   2.883
65528W        W27191   7.232  41.392   2.378
65529W        W27192  30.120  33.904   2.830
65530W        W27193  41.812  20.100  12.014
65531W        W27194  31.487  31.111  11.945
65532W        W27195  40.935  43.376  12.343
65533W        W27196  29.527   7.390  12.074
65534W        W27197  19.175  33.002  14.841
65535W        W27198  27.649  34.112  11.383
65536W        W27199   4.237  26.976  11.481
65537W        W27200  44.474  40.879   2.197
65538W        W27201  28.002  24.068  12.449
65539W        W27202  10.324  36.054  12.386
65540W        W27203  22.024   8.827  12.438
65541W        W27204  13.273  16.803  13.418
65542W        W27205   4.829   9.354  11.049
65543W        W27206  16.756  11.770   0.797
65544W        W27207  25.058  34.589  14.012
65545W        W27208  26.598  40.471  12.502
65546W        W27209   9.235  23.085   4.762
65547W        W27210  31.005  40.468  13.390
65548W        W27211  25.200  30.629   0.336
65549W        W27212  26.012  42.950  14.299
65550W        W27213  30.615  27.452   3.837
65551W        W27214   1.861  31.964   3.668
65552W        W27215  42.895  11.731  13.415
65553W        W27216  16.093  21.567   3.717
65554W        W27217  23.074  23.591  14.841
65555W        W27218  23.678  27.971   2.809
65556W        W27219  39.534  16.110   3.356
65557W        W27220  21.693   9.275  13.547
65558W        W27221   0.473  41.340   0.788
65559W        W27222  20.763   7.262   2.766
65560W        W27223  12.763  13.299  10.547
65561W        W27224  22.109   3.392  13.385
65562W        W27225  16.237  37.529  12.852
65563W        W27226  11.310   5.789   4.748
65564W        W27227  13.324  41.457  12.489
65565W        W27228   3.457   7.691   4.295
65566W        W27229  24.591  27.984  12.008
65567W        W27230  41.885  23.073   2.887
65568W        W27231  20.700  31.098  13.397
65569W        W27232   8.369  26.461   2.374
65570W        W27233  34.486  24.139   4.763
65571W        W27234  34.997  32.952  11.433
65572W        W27235   4.301  12.831   4.633
65573W        W27236  39.809   5.837  13.469
65574W        W27237   7.684  38.824  10.546
65575W        W27238  40.004  31.511  10.934
65576W        W27239  28.941  18.586  13.430
65577W        W27240   1.895  24.132   3.865
65578W        W27241  44.290  17.641   2.684
65579W        W27242  11.186  31.555   3.639
65580W        W27243  23.992   2.721  13.360
65581W        W27244  22.646  15.790   3.288
65582W        W27245  42.407   1.874   2.860
65583W        W27246  33.493  35.387   2.726
65584W        W27247  21.103  19.125  13.329
65585W        W27248  39.496  40.848  13.486
65586W        W27249  33.101   0.268  10.976
65587W        W27250  37.987  15.730  13.376
65588W        W27251  13.222  33.944   2.837
65589W        W27252  20.546   0.882   1.895
65590W        W27253  16.813  25.569  10.493
65591W        W27254   8.746  29.953  11.930
65592W        W27255  21.034  23.632  10.094
65593W        W27256  12.738  33.459  14.020
65594W        W27257  31.922   6.799   0.882
65595W        W27258  17.609  21.170  10.937
65596W        W27259   9.310  37.998   1.400
65597W        W27260  16.711  31.949   0.898
65598W        W27261  40.920  18.284  14.986
65599W        W27262  44.466   4.747   4.241
65600W        W27263  18.750   2.926  14.789
65601W        W27264  39.414  30.544   1.335
65602W        W27265  25.097  27.526  10.933
65603W        W27266  31.968  23.189   2.401
65604W        W27267   6.807  18.076   3.633
65605W        W27268  10.380  42.804   4.175
65606W        W27269  29.133  18.586  10.574
65607W        W27270  26.577  23.048   5.315
65608W        W27271  21.140   8.330   4.701
65609W        W27272  33.473   4.802   4.605
65610W        W27273  31.002   6.274   4.210
65611W        W27274   8.192   5.223  10.915
65612W        W27275   5.706  10.368   1.833
65613W        W27276   5.331   7.343  11.936
65614W        W27277  42.890  21.099  13.337
65615W        W27278  37.995   7.714  11.021
65616W        W27279  14.602  36.403   4.200
65617W        W27280  16.078   8.750  14.434
65618W        W27281  33.001  26.009  11.126
65619W        W27282   4.443  21.657   4.143
65620W        W27283  38.844  32.397   1.233
65621W        W27284   7.229  13.644  10.460
65622W        W27285  31.567  40.357  11.890
65623W        W27286  18.295  27.006   4.732
65624W        W27287  19.644  44.384   4.779
65625W        W27288  41.344  12.683   5.689
65626W        W27289  25.575   6.267   3.776
65627W        W27290  16.303  18.067   2.898
65628W        W27291   1.849  12.183   3.322
65629W        W27292  11.187  40.853   2.695
65630W        W27293  18.722  44.826  14.324
65631W        W27294  20.580  34.924   2.746
65632W        W27295  43.348   6.754   9.989
65633W        W27296   4.448   6.819   3.765
65634W        W27297  32.617  21.690   2.699
65635W        W27298  36.389  21.094  11.530
65636W        W27299   0.802  28.436   3.247
65637W        W27300  15.595   6.733   0.848
65638W        W27301  24.504   3.823   4.226
65639W        W27302  18.733  22.536   3.803
65640W        W27303  26.099  16.192   2.404
65641W        W27304   0.988  44.324  10.948
65642W        W27305  21.096  29.562  12.837
65643W        W27306  11.796  40.977   0.322
65644W        W27307  30.454  13.606   4.802
65645W        W27308  14.228  25.512  12.353
65646W        W27309  22.144  18.557   1.821
65647W        W27310  38.537  35.533  11.865
65648W        W27311  29.430   3.413   4.174
65649W        W27312   7.832  19.132  12.847
65650W        W27313  20.615  16.720  10.923
65651W        W27314  26.098  21.597   3.170
65652W        W27315  13.239  39.995  13.798
65653W        W27316   1.252  38.471   1.268
65654W        W27317  37.580  11.822  10.446
65655W        W27318  18.713  27.140   2.321
65656W        W27319   9.829  38.329  11.566
65657W        W27320  25.662  28.125   3.831
65658W        W27321   1.354  26.650  12.939
65659W        W27322  22.201  27.595  14.461
65660W        W27323  26.107  26.531   9.981
65661W        W27324  24.209  19.637   3.668
65662W        W27325  30.482   3.839  13.016
65663W        W27326  23.621   0.817  11.105
65664W        W27327  25.008  11.757   4.342
65665W        W27328  18.719  25.186  10.625
65666W        W27329  14.101  15.743  14.992
65667W        W27330  40.460  15.192   2.825
65668W        W27331   6.775  17.558   4.821
65669W        W27332  29.000  28.660  12.977
65670W        W27333  19.729   1.820   1.294
65671W        W27334   4.415   3.871  14.892
65672W        W27335  44.816  18.786  11.587
65673W        W27336  42.413  10.266  13.994
65674W        W27337  31.994  26.159  12.523
65675W        W27338   1.978  13.134   4.835
65676W        W27339  29.146   5.843   4.732
65677W        W27340   3.944  19.122   3.671
65678W        W27341  39.348  20.108  11.081
65679W        W27342   0.929  26.071   0.364
65680W        W27343  42.334  13.330  12.404
65681W        W27344   8.322  21.220   3.265
65682W        W27345  41.362  19.769  13.483
65683W        W27346  35.494  44.295  11.572
65684W        W27347  15.215  29.956   4.660
65685W        W27348   3.341  43.351  11.498
65686W        W27349  19.203  36.480   3.726
65687W        W27350  38.463  40.993   2.402
65688W        W27351  32.420  27.508  12.968
65689W        W27352   6.190  16.269  14.381
65690W        W27353  41.317  12.248  10.075
65691W        W27354   2.246  12.198  13.957
65692W        W27355   9.307   8.377  13.500
65693W        W27356  44.984   2.947  12.406
65694W        W27357   6.219  25.019  13.931
65695W        W27358  44.479  29.669   1.357
65696W        W27359   5.296  30.041  11.931
65697W        W27360  17.259   1.237   3.310
65698W        W27361  23.703  19.776  10.437
65699W        W27362   9.871  43.961   1.831
65700W        W27363  26.494  36.034  10.550
65701W        W27364  24.988  12.147  13.525
65702W        W27365  39.466   0.912   4.681
65703W        W27366  13.227  21.699  14.875
65704W        W27367  17.146  21.534   4.824
65705W        W27368  27.078  20.197   2.301
65706W        W27369  38.331  29.521   3.757
65707W        W27370   4.348  42.491  13.470
65708W        W27371  17.596  12.742   1.322
65709W        W27372  22.530  12.119   3.324
65710W        W27373  15.631  13.164   3.637
65711W        W27374  41.354  30.014  12.516
65712W        W27375   5.840  18.095   0.919
65713W        W27376   7.309  21.514  10.996
65714W        W27377  28.672  30.506   3.235
65715W        W27378   8.725  36.982   0.799
65716W        W27379  31.070  10.217   1.216
65717W        W27380  14.290  44.372   1.820
65718W        W27381  38.045  21.052   2.812
65719W        W27382  20.171  14.724  11.969
65720W        W27383  34.975  24.651  11.128
65721W        W27384  17.795  42.391  12.894
65722W        W27385  15.605  19.654   1.218
65723W        W27386  36.500   6.230  14.489
65724W        W27387  40.318  43.896  13.824
65725W        W27388  43.433  16.096   1.399
65726W        W27389  26.134   5.879   1.920
65727W        W27390  40.932   3.429   3.348
65728W        W27391   3.350  12.616   1.215
65729W        W27392  33.389  22.096   2.812
65730W        W27393   0.949  21.626   0.788
65731W        W27394  37.509   8.271   1.213
65732W        W27395  31.587  21.709   1.827
65733W        W27396   9.152  40.541   0.270
65734W        W27397  16.811  28.603  14.005
65735W        W27398   9.197  41.327  12.482
65736W        W27399   4.227  36.000   2.714
65737W        W27400  15.647  44.966  11.582
65738W        W27401   2.282   7.863  10.411
65739W        W27402   0.840   1.240   0.916
65740W        W27403  30.152   9.359   2.886
65741W        W27404  20.241  31.465   4.681
65742W        W27405  35.385  33.896   2.721
65743W        W27406   8.857  42.387   1.749
65744W        W27407  10.777  33.952  13.360
65745W        W27408  25.657  18.703   1.755
65746W        W27409  34.399   5.226   3.703
65747W        W27410   6.716  30.995   4.281
65748W        W27411  39.983  28.628  12.053
65749W        W27412  26.166  22.044   4.175
65750W        W27413   1.435  40.529   3.232
65751W        W27414  29.453  24.480  12.341
65752W        W27415  34.549  11.758   1.295
65753W        W27416  31.059   9.723  12.454
65754W        W27417  23.532  27.985   1.844
65755W        W27418  31.468  29.620  11.890
65756W        W27419  27.052  42.452   4.307
65757W        W27420  23.542  26.119  13.526
65758W        W27421  22.221  23.232  12.531
65759W        W27422  25.074  31.625   1.825
65760W        W27423   6.855  16.621  13.855
65761W        W27424  12.777   3.395  14.461
65762W        W27425   1.268  36.950  13.408
65763W        W27426  30.022  26.205  14.849
65764W        W27427  24.689   1.267   4.199
65765W        W27428   2.272   9.734   2.230
65766W        W27429   5.892   6.749  14.872
65767W        W27430  17.689  31.984  10.542
65768W        W27431   4.706  44.779   4.645
65769W        W27432  32.113  25.085  14.901
65770W        W27433   4.823  35.575   3.729
65771W        W27434   2.362   6.821   0.306
65772W        W27435  15.748  14.630   4.797
65773W        W27436  14.611   9.841   1.324
65774W        W27437  44.872  12.207   3.864
65775W        W27438  20.213   0.772  13.386
65776W        W27439  19.646  21.205  12.077
65777W        W27440   7.700  25.183   4.688
65778W        W27441  11.363  23.695   0.750
65779W        W27442  40.909   3.888   0.469
65780W        W27443  13.344  37.567  13.984
65781W        W27444  40.491  32.088  10.024
65782W        W27445  35.961  20.558  10.595
65783W        W27446   0.286   7.746  14.289
65784W        W27447  14.754   3.848  14.849
65785W        W27448  37.075  38.988   3.801
65786W        W27449  18.791  38.400  12.990
65787W        W27450   4.900  29.026  13.492
65788W        W27451  14.707  44.429   2.777
65789W        W27452  27.621  34.069  14.949
65790W        W27453  32.944  15.262   3.147
65791W        W27454  15.651  14.741   2.179
65792W        W27455  23.173  21.143   3.790
65793W        W27456  29.091  18.070   0.451
65794W        W27457  21.678  38.004   0.923
65795W        W27458   9.670   5.218  10.904
65796W        W27459   7.771   8.793   1.299
65797W        W27460  17.238   3.415  13.987
65798W        W27461  17.225  37.904  11.094
65799W        W27462  41.391  44.330   3.150
65800W        W27463  20.226  31.457   1.429
65801W        W27464  26.131  25.015  14.465
65802W        W27465  24.013  30.561  14.384
65803W        W27466  30.505  43.425  13.428
65804W        W27467  37.454  16.628   4.222
65805W        W27468  42.281  21.053   2.698
65806W        W27469  34.996  42.302  10.535
65807W        W27470  12.298   7.870  14.003
65808W        W27471  31.043  30.658   4.166
65809W        W27472  17.762  39.386  14.412
65810W        W27473  29.655  30.577   2.342
65811W        W27474  41.308   9.686   1.355
65812W        W27475   1.822   5.844   3.238
65813W        W27476   3.308   8.262  12.998
65814W        W27477  25.489  24.026   1.748
65815W        W27478  11.274  24.075  13.803
65816W        W27479   5.772  20.081   0.950
65817W        W27480  30.087  39.346  10.437
65818W        W27481   9.710  38.036  13.516
65819W        W27482  29.539  20.138  14.985
65820W        W27483  26.504   2.243   2.243
65821W        W27484  39.531   1.774   4.803
65822W        W27485  44.427  41.869   4.655
65823W        W27486  34.491  35.554   2.228
65824W        W27487  37.959   2.361  12.932
65825W        W27488  36.521  39.902   2.419
65826W        W27489  32.888  17.656   3.818
65827W        W27490   7.854   0.798  11.537
65828W        W27491  19.562  30.062  10.448
65829W        W27492  17.729  38.980   4.751
65830W        W27493  29.970  19.043   3.298
65831W        W27494  38.435   0.445   3.687
65832W        W27495  22.129   7.215   3.377
65833W        W27496  32.987  36.978  14.950
65834W        W27497  10.662  21.560  14.284
65835W        W27498  11.220  33.405   2.817
65836W        W27499  42.921  39.319   1.262
65837W        W27500  44.353  18.665   4.739
65838W        W27501  10.278   4.323  12.948
65839W        W27502   5.756  35.043   4.734
65840W        W27503  32.991  11.228  13.007
65841W        W27504  33.534  35.464   4.792
65842W        W27505  26.605  38.986   1.839
65843W        W27506  14.827  17.280  12.478
65844W        W27507   4.342  14.156  10.614
65845W        W27508  30.074  41.467  14.425
65846W        W27509   1.323  22.161   1.823
65847W        W27510   2.776   3.272   1.835
65848W        W27511  24.063  30.154  12.884
65849W        W27512  21.189  38.357   0.288
65850W        W27513  15.174  42.005  11.003
65851W        W27514   8.267  17.702   0.366
65852W        W27515  27.092  35.408   1.885
65853W        W27516   4.449  34.552   3.748
65854W        W27517  17.091  36.350   2.776
65855W        W27518  33.883  25.692   3.313
65856W        W27519   1.279  42.315   1.786
65857W        W27520  31.509  27.635  13.923
65858W        W27521  24.547  42.819  13.464
65859W        W27522  19.155  10.862  12.400
65860W        W27523  40.453   4.395  11.536
65861W        W27524  40.891  28.439  10.622
65862W        W27525   2.406  28.969  10.407
65863W        W27526  29.584  26.136  11.053
65864W        W27527  20.677   0.251   5.629
65865W        W27528  35.051  25.085  10.055
65866W        W27529   9.816  24.200  11.525
65867W        W27530  42.929  41.497  12.081
65868W        W27531   5.736   2.892  10.918
65869W        W27532  39.438  19.266  13.355
65870W        W27533  19.752  33.415  12.893
65871W        W27534   3.864   5.234   2.366
65872W        W27535  12.815  13.137  12.015
65873W        W27536  42.949   1.446  10.421
65874W        W27537   4.227   7.322  11.583
65875W        W27538  38.914  21.158   3.866
65876W        W27539  42.883   5.237   2.356
65877W        W27540  26.990  17.710   4.713
65878W        W27541  36.060  33.512   4.171
65879W        W27542  12.663  35.399   1.248
65880W        W27543  35.977  28.122   5.117
65881W        W27544  29.156  27.595   3.813
65882W        W27545   7.890  33.082  11.429
65883W        W27546  40.312  43.358  14.017
65884W        W27547  14.283  36.039  14.786
65885W        W27548  16.203  28.176  10.625
65886W        W27549  22.568   7.400   0.913
65887W        W27550  10.285  28.097  13.957
65888W        W27551  38.563  39.555  13.319
65889W        W27552  19.754  40.044   1.314
65890W        W27553  44.855  14.688   0.355
65891W        W27554  11.373  42.027  12.373
65892W        W27555  16.072  35.922  10.621
65893W        W27556  21.518  19.620   5.141
65894W        W27557  39.915  10.332  14.814
65895W        W27558  42.985   4.282  12.991
65896W        W27559  31.515  35.467  11.486
65897W        W27560  22.583  27.193   2.676
65898W        W27561  36.848  37.552   3.253
65899W        W27562   7.759   4.403   3.247
65900W        W27563  25.975  23.677   3.737
65901W        W27564  38.404  35.491   2.182
65902W        W27565   7.731  23.022   0.761
65903W        W27566   1.427   7.681   4.772
65904W        W27567  31.039  28.613   4.679
65905W        W27568  23.241  11.196   3.307
65906W        W27569  12.662  44.770  13.862
65907W        W27570  34.523  25.491  14.514
65908W        W27571  20.747  24.567  11.126
65909W        W27572  26.127  36.432   1.349
65910W        W27573  44.406  38.913  13.898
65911W        W27574  25.547  15.652   2.190
65912W        W27575  27.044  42.872  14.854
65913W        W27576  11.183  28.437   2.267
65914W        W27577  16.725  35.103   2.843
65915W        W27578   2.449  13.764   4.634
65916W        W27579  37.928   2.344  11.523
65917W        W27580  43.861  29.955  10.515
65918W        W27581  35.495  30.438   1.848
65919W        W27582  29.446  37.906  12.001
65920W        W27583  25.167  20.541  13.967
65921W        W27584  36.528  42.818   4.235
65922W        W27585  33.988  31.494  13.800
65923W        W27586  38.978  18.258   3.732
65924W        W27587  31.913  14.600   1.741
65925W        W27588  31.979  24.721   2.380
65926W        W27589  38.538  33.567   3.186
65927W        W27590   8.726   8.165  11.454
65928W        W27591   5.337  34.006  12.466
65929W        W27592  20.256  19.584   1.880
65930W        W27593  25.134  18.078   3.351
65931W        W27594  29.580  28.449   3.274
65932W        W27595   6.412  22.224  14.823
65933W        W27596  43.491  24.132  10.152
65934W        W27597   3.345  20.724  13.525
65935W        W27598  12.197  27.063   3.769
65936W        W27599  24.140   9.339   3.158
65937W        W27600  33.083  21.632   4.200
65938W        W27601   4.767   0.777  13.009
65939W        W27602   9.813  30.949   2.285
65940W        W27603  34.420   5.369  13.843
65941W        W27604  36.089  35.952  11.436
65942W        W27605   7.205  28.978  13.007
65943W        W27606  30.128  16.150   3.176
65944W        W27607  29.426   5.778  13.492
65945W        W27608  19.681  11.212  10.436
65946W        W27609  11.690   0.895  10.626
65947W        W27610  35.516  39.443   1.218
65948W        W27611  16.288  10.264  13.971
65949W        W27612   0.811  11.799   2.270
65950W        W27613  38.356  25.609  14.498
65951W        W27614  44.464   2.329  12.996
65952W        W27615   1.750  15.161   4.728
65953W        W27616  21.035  18.161  11.968
65954W        W27617  42.822  11.834   0.360
65955W        W27618  25.618  16.668  12.532
65956W        W27619  41.405  29.111  13.505
65957W        W27620   5.720  10.738   4.200
65958W        W27621  42.418  14.203   4.606
65959W        W27622   9.389  15.621   2.291
65960W        W27623  11.158  28.591  12.896
65961W        W27624  29.943  28.144   1.250
65962W        W27625  44.396  26.989   4.219
65963W        W27626  44.777   1.377   0.894
65964W        W27627  24.500  23.599  11.386
65965W        W27628  30.434  11.250  13.820
65966W        W27629  12.233  24.143   0.353
65967W        W27630  24.136  38.059   0.327
65968W        W27631  27.124   0.939   3.654
65969W        W27632   4.802  14.293  10.575
65970W        W27633  15.786  21.130   2.713
65971W        W27634  37.949   9.299  11.606
65972W        W27635   2.840   8.186  13.862
65973W        W27636  14.647  28.037   1.795
65974W        W27637   1.762   5.438  11.547
65975W        W27638  27.537  26.056  12.830
65976W        W27639  22.697   3.942   0.468
65977W        W27640  38.437  41.451   4.706
65978W        W27641  39.974  15.769  13.981
65979W        W27642  42.932  40.361   2.227
65980W        W27643  22.013  33.455  12.371
65981W        W27644  37.855   5.259  13.851
65982W        W27645  20.687  15.635   3.181
65983W        W27646  17.260   4.271   2.857
65984W        W27647   7.785  38.866  13.017
65985W        W27648  15.764   7.714   2.697
65986W        W27649  34.092  24.608  14.327
65987W        W27650   7.354  18.725   1.291
65988W        W27651  44.468  44.842   2.882
65989W        W27652  25.563   5.814  11.462
65990W        W27653   6.348  43.384  13.869
65991W        W27654  22.590   2.469  12.919
65992W        W27655  41.404  33.445   2.761
65993W        W27656  20.587  11.317  13.342
65994W        W27657  13.708   7.208  13.876
65995W        W27658  21.704  31.487  11.375
65996W        W27659  35.516  26.623   2.891
65997W        W27660  33.921  14.724  12.874
65998W        W27661  44.286  37.510   4.627
65999W        W27662  29.541  20.556   1.779
66000W        W27663  24.526   5.804  10.477
66001W        W27664  15.762  30.005  10.430
66002W        W27665   1.926   3.403  14.777
66003W        W27666   9.231  33.380  10.469
66004W        W27667   7.830  35.975  14.933
66005W        W27668   6.293   5.231   4.194
66006W        W27669  19.560  14.271  12.536
66007W        W27670  14.118  20.556  14.931
66008W        W27671  34.992   5.864  11.878
66009W        W27672  33.943  22.023  14.398
66010W        W27673  40.989   5.933   1.873
66011W        W27674  14.782  11.790  10.113
66012W        W27675  10.187  28.530  13.509
66013W        W27676  32.132  41.301  12.052
66014W        W27677  17.771  39.023  14.979
66015W        W27678  44.907  13.345   0.732
66016W        W27679  28.672   1.348  12.505
66017W        W27680  24.638  30.520   1.367
66018W        W27681   5.837  29.040  10.958
66019W        W27682  42.866   5.849  10.633
66020W        W27683   4.749  15.205   3.656
66021W        W27684  17.630   4.254   3.725
66022W        W27685  20.726  27.943   4.774
66023W        W27686   2.911  17.596  12.390
66024W        W27687  18.094  11.203  14.450
66025W        W27688  13.194  14.202   5.126
66026W        W27689  38.910   8.868  12.885
66027W        W27690  36.410  28.057   4.782
66028W        W27691  17.737  13.708  12.454
66029W        W27692  39.994   6.282  14.376
66030W        W27693  22.658  38.885  14.904
66031W        W27694  38.044  17.578   0.828
66032W        W27695   8.228  23.545  12.848
66033W        W27696  34.044  15.106  13.815
66034W        W27697  18.286  14.727   4.171
66035W        W27698  35.465  15.743   4.252
66036W        W27699  23.047   9.706   0.324
66037W        W27700  37.425  23.635   4.201
66038W        W27701  10.271   4.812  13.390
66039W        W27702  14.683  43.822  12.823
66040W        W27703   0.965  33.967   3.293
66041W        W27704  14.335   8.252   2.408
66042W        W27705   2.904  16.774  13.421
66043W        W27706  40.504  34.882  12.906
66044W        W27707  40.372  39.876   2.797
66045W        W27708   6.252  22.225   3.868
66046W        W27709  43.455  33.896  12.981
66047W        W27710   9.743   3.791  11.034
66048W        W27711  23.235  22.069   4.776
66049W        W27712  35.863   3.800  13.041
66050W        W27713  23.540   6.840  10.098
66051W        W27714  30.992  27.118   0.860
66052W        W27715  32.539  16.197   1.305
66053W        W27716  33.100  39.989  12.913
66054W        W27717   0.846   0.393  11.924
66055W        W27718  28.609  17.786   2.880
66056W        W27719  25.138  10.268   9.924
66057W        W27720  13.654   3.799  14.344
66058W        W27721  34.051  17.786   4.785
66059W        W27722  24.611  41.466   3.775
66060W        W27723  13.173  22.190   1.814
66061W        W27724  12.835  34.913   0.804
66062W        W27725  20.746  42.439   4.667
66063W        W27726   9.155   8.749  14.771
66064W        W27727   5.705  36.507  12.092
66065W        W27728   0.929   2.803  13.462
66066W        W27729  15.705  17.228  11.021
66067W        W27730  26.016  20.757   0.267
66068W        W27731  44.315   5.694   3.869
66069W        W27732   6.772  27.982   1.881
66070W        W27733  38.349  43.820   1.716
66071W        W27734  14.327  30.575  10.006
66072W        W27735  28.975   3.712  13.499
66073W        W27736  34.904  30.136  13.021
66074W        W27737  38.353   8.182  11.517
66075W        W27738  21.188  38.070  13.502
66076W        W27739  40.538  34.077   4.278
66077W        W27740   2.260   7.811  13.488
66078W        W27741  40.018  11.337  14.471
66079W        W27742   3.878   2.414  13.001
66080W        W27743  44.966  24.527   2.665
66081W        W27744   7.218   9.292  10.125
66082W        W27745  22.232  14.764  13.480
66083W        W27746   1.421  29.513  14.471
66084W        W27747  22.640  24.033   0.258
66085W        W27748  28.581  23.163  10.539
66086W        W27749   2.226  34.385  12.543
66087W        W27750   1.911   6.710  11.566
66088W        W27751  18.075  14.591   3.792
66089W        W27752  36.895  39.019   2.694
66090W        W27753   2.389   1.257   2.818
66091W        W27754  19.667  24.190  12.409
66092W        W27755   8.775  40.437   1.895
66093W        W27756  44.971  26.156   4.666
66094W        W27757  41.883   4.817   0.792
66095W        W27758  22.070  33.490  11.474
66096W        W27759  34.503   5.726   4.807
66097W        W27760  25.216  44.394  14.790
66098W        W27761  40.834  26.566   0.903
66099W        W27762   3.762  39.439   0.362
66100W        W27763  23.126  20.224   1.736
66101W        W27764  32.568  44.793   4.290
66102W        W27765  21.069   9.679   2.255
66103W        W27766  31.991  43.328   0.443
66104W        W27767  32.965  30.457   1.778
66105W        W27768   1.810   3.717   3.252
66106W        W27769  28.126  22.724   4.126
66107W        W27770  31.008  27.148  14.798
66108W        W27771   8.835  31.442  13.334
66109W        W27772  32.047   0.879   3.289
66110W        W27773  42.886  15.293   0.866
66111W        W27774  44.905  25.176   3.813
66112W        W27775  26.608  42.284   4.676
66113W        W27776  28.635  37.362  11.430
66114W        W27777  26.962  22.530   4.335
66115W        W27778  11.179  18.050  14.353
66116W        W27779  37.858   9.288  11.991
66117W        W27780   3.219  21.519   1.698
66118W        W27781  35.492   0.793  11.909
66119W        W27782  41.919  43.998  11.911
66120W        W27783  27.958  35.425   4.310
66121W        W27784  10.288  33.421  10.606
66122W        W27785  21.218  18.094  12.846
66123W        W27786  26.043   3.247   4.202
66124W        W27787  25.635  18.054   1.372
66125W        W27788   3.404  11.162   1.225
66126W        W27789  16.272  24.980   3.288
66127W        W27790  25.202  32.466   3.246
66128W        W27791  37.060  34.537   1.402
66129W        W27792  20.135   5.868   4.615
66130W        W27793   7.208  41.354   1.297
66131W        W27794  31.470   5.793  10.450
66132W        W27795  14.112  44.447  12.542
66133W        W27796  34.550  44.402  11.118
66134W        W27797  21.020  41.303   1.306
66135W        W27798   5.377  34.923  11.611
66136W        W27799  12.789  38.904  12.848
66137W        W27800  10.871  43.787  13.849
66138W        W27801  42.952  18.239   1.830
66139W        W27802   9.281  16.602  11.516
66140W        W27803  29.974  10.757  11.610
66141W        W27804   9.872  35.510  13.973
66142W        W27805  44.766  22.060  14.412
66143W        W27806  19.562   8.761   2.744
66144W        W27807   2.395  12.652   2.780
66145W        W27808  42.289  16.788  13.023
66146W        W27809   4.434  41.811   4.816
66147W        W27810  13.750  31.602   0.397
66148W        W27811   8.728   5.801  14.844
66149W        W27812  14.700  26.575   0.921
66150W        W27813  18.690   4.840  13.541
66151W        W27814   3.733   6.879  11.976
66152W        W27815  26.566  43.012   4.645
66153W        W27816  20.108  37.920  14.402
66154W        W27817  10.710  24.126  10.502
66155W        W27818  18.228  42.298   1.303
66156W        W27819   0.970  32.439   3.631
66157W        W27820   6.209  34.077  13.407
66158W        W27821  33.975  22.184   2.244
66159W        W27822  30.603  20.127  10.455
66160W        W27823  33.114  16.755   2.185
66161W        W27824  35.496  16.306  11.914
66162W        W27825  34.370  24.046  11.011
66163W        W27826  30.629  18.583  11.892
66164W        W27827  26.971   9.655   3.233
66165W        W27828  11.768   8.805  14.864
66166W        W27829  40.962  26.982   2.312
66167W        W27830  30.119  37.935  14.364
66168W        W27831  29.633  20.241   1.273
66169W        W27832  30.030   7.825  10.980
66170W        W27833  21.256   2.406   1.716
66171W        W27834  43.495  24.649  11.589
66172W        W27835  18.128  42.790  14.446
66173W        W27836  32.580  21.101  12.560
66174W        W27837   8.683  41.357   3.823
66175W        W27838  19.168  21.603   3.732
66176W        W27839   5.927   2.894  12.085
66177W        W27840  24.687   1.874  13.820
66178W        W27841  29.513  16.079  10.925
66179W        W27842  43.452  40.495   9.997
66180W        W27843  14.099  22.595  13.443
66181W        W27844  23.119  19.760  12.353
66182W        W27845  23.642  40.494  11.124
66183W        W27846   1.265  32.513   2.861
66184W        W27847  41.338   1.447  14.283
66185W        W27848  42.882  38.076  13.842
66186W        W27849  38.947  17.744  11.408
66187W        W27850  27.457   2.234   2.256
66188W        W27851  19.666  43.396  12.914
66189W        W27852   2.327  31.556   3.806
66190W        W27853  10.755  39.554   2.195
66191W        W27854   4.433  35.924   2.302
66192W        W27855  19.074  29.006  11.915
66193W        W27856  12.281  29.927  13.825
66194W        W27857  16.316  34.401  14.370
66195W        W27858   7.250   3.402   3.823
66196W        W27859   8.308  41.040  11.491
66197W        W27860  43.377  22.033   2.741
66198W        W27861  35.042   9.677   5.181
66199W        W27862  33.456  42.440   4.167
66200W        W27863   8.248  16.138   2.182
66201W        W27864  20.721  16.589   0.320
66202W        W27865  25.029   3.261  11.014
66203W        W27866  16.776  32.982  11.870
66204W        W27867  30.127  21.551   3.372
66205W        W27868  11.683  11.172  11.383
66206W        W27869  41.304   6.357  13.054
66207W        W27870   8.272   9.732  14.369
66208W        W27871  25.205   1.462  10.407
66209W        W27872  43.440  36.362   4.345
66210W        W27873   6.808  26.677   4.187
66211W        W27874   7.207  43.864  10.904
66212W        W27875  37.412  22.173   1.862
66213W        W27876  13.707  44.267  10.454
66214W        W27877   8.855   6.359  13.035
66215W        W27878  39.461  23.720   2.823
66216W        W27879   0.288  33.452  10.597
66217W        W27880  36.075  20.526  11.531
66218W        W27881  24.040  10.775   2.665
66219W        W27882   4.924   8.162  11.468
66220W        W27883  39.887   5.426  13.500
66221W        W27884  17.748  10.186   3.378
66222W        W27885   6.909   0.882  13.046
66223W        W27886  33.889  11.756   1.228
66224W        W27887  10.175  21.652  14.420
66225W        W27888  19.175  35.012   3.346
66226W        W27889   8.254  44.797   1.351
66227W        W27890  24.107  36.473   3.297
66228W        W27891  39.016  20.248   3.178
66229W        W27892  29.542   2.462   4.740
66230W        W27893  26.010  39.444   3.178
66231W        W27894  11.703  36.004  11.913
66232W        W27895  23.085   7.390   3.191
66233W        W27896  34.032   8.230  14.489
66234W        W27897  25.204  40.926  14.886
66235W        W27898   3.819  14.097   4.190
66236W        W27899   3.948  25.019  13.050
66237W        W27900  34.553  43.797   4.229
66238W        W27901  18.680  35.867  13.547
66239W        W27902  14.109  21.045  13.807
66240W        W27903  36.581  36.393  11.554
66241W        W27904  11.801   4.372  13.014
66242W        W27905  25.490   8.694  11.066
66243W        W27906  32.103  18.185   4.777
66244W        W27907  42.795  38.357  13.478
66245W        W27908  24.481  30.981  11.416
66246W        W27909  28.977   5.752   0.437
66247W        W27910  25.966  39.329   2.718
66248W        W27911  34.541   4.389  12.484
66249W        W27912   1.965  11.175   2.204
66250W        W27913   3.821  36.048  14.762
66251W        W27914  35.883  29.153  12.501
66252W        W27915  19.664  22.670   4.305
66253W        W27916   6.806  41.463  11.569
66254W        W27917  32.106  21.222   2.681
66255W        W27918  39.342   6.198  13.934
66256W        W27919  28.610  20.123  14.845
66257W        W27920  35.001  13.682   3.218
66258W        W27921   2.742  38.940   3.329
66259W        W27922  41.843  19.551   9.977
66260W        W27923   7.690   4.844  12.394
66261W        W27924  17.719   5.805   3.197
66262W        W27925  13.769  27.979   4.206
66263W        W27926  15.773  21.597   3.850
66264W        W27927   9.275  38.404  14.276
66265W        W27928  36.052  34.412  12.488
66266W        W27929  18.745  39.847   2.357
66267W        W27930   9.864   7.896   1.227
66268W        W27931   9.812  40.535  14.922
66269W        W27932  31.471  29.467  10.470
66270W        W27933   9.723  38.564   4.742
66271W        W27934  35.016  16.242   1.718
66272W        W27935  22.720  23.705   1.772
66273W        W27936  38.841  30.549  10.639
66274W        W27937  19.215   8.841  10.940
66275W        W27938  43.010  17.173   4.726
66276W        W27939  16.077  44.462   4.244
66277W        W27940  25.998  31.543   4.794
66278W        W27941  19.150  21.614  10.561
66279W        W27942  44.920  21.203   2.900
66280W        W27943  40.037  16.569  13.821
66281W        W27944  44.846   3.783  11.092
66282W        W27945  24.479  24.173  10.447
66283W        W27946  36.511   9.720  13.414
66284W        W27947  35.385  30.907   1.316
66285W        W27948  37.986  34.582  11.449
66286W        W27949  17.703  25.648   2.291
66287W        W27950  25.641   7.789   4.604
66288W        W27951  22.016   7.381   1.812
66289W        W27952   6.186  18.727  12.066
66290W        W27953  20.730   4.898  14.318
66291W        W27954   6.309  26.596  14.949
66292W        W27955  19.243  19.212  11.465
66293W        W27956   1.857  29.097   0.908
66294W        W27957  17.267  15.712  13.496
66295W        W27958   0.962  40.403   3.717
66296W        W27959  21.754  23.660   3.691
66297W        W27960  17.223  38.983  14.282
66298W        W27961  17.274  35.521   2.760
66299W        W27962  25.670  30.024  14.311
66300W        W27963   2.722  42.946   2.820
66301W        W27964   7.682   1.756  11.121
66302W        W27965  15.592  37.528   3.182
66303W        W27966  40.529   9.887   3.651
66304W        W27967  21.261  11.689  11.932
66305W        W27968  37.449  14.109   2.826
66306W        W27969  17.605  27.521   0.900
66307W        W27970   9.227  25.975  13.026
66308W        W27971  10.362  23.089  10.486
66309W        W27972  16.589  44.437  10.494
66310W        W27973  26.638  35.885  11.585
66311W        W27974   8.746  41.425   4.671
66312W        W27975  18.251  33.487   4.341
66313W        W27976  41.858  20.755   4.166
66314W        W27977  39.905  40.461  13.323
66315W        W27978  43.823   8.182  14.949
66316W        W27979  34.492   6.278  14.292
66317W        W27980  27.028  29.005  12.012
66318W        W27981  26.198  42.806   3.374
66319W        W27982  35.865   1.876  11.900
66320W        W27983  19.776  44.291  10.983
66321W        W27984   8.748   0.452  13.956
66322W        W27985  44.764   5.736  13.394
66323W        W27986   0.767  24.092  10.512
66324W        W27987  23.703  31.470  13.340
66325W        W27988   8.807  38.518  10.967
66326W        W27989  36.087  14.645  11.876
66327W        W27990  37.015  41.850   3.666
66328W        W27991  29.500  29.127   1.337
66329W        W27992   3.297  35.438  12.018
66330W        W27993   4.282  37.013  13.481
66331W        W27994  25.025  30.939  11.516
66332W        W27995  26.671  33.992  10.571
66333W        W27996  43.847   7.689   2.807
66334W        W27997  23.073  12.304   2.255
66335W        W27998  27.666   1.933   4.139
66336W        W27999  22.251  27.574  14.995
66337W        W28000  14.693  21.753  14.854
66338W        W28001  28.126  31.496   3.851
66339W        W28002  34.595  19.060   0.387
66340W        W28003  33.051  19.086  12.492
66341W        W28004  11.848  12.209  12.942
66342W        W28005  10.214   9.840  12.048
66343W        W28006   9.344  22.114   0.306
66344W        W28007  33.094  44.393   3.149
66345W        W28008  42.351   6.824  11.862
66346W        W28009   1.317  19.654  11.416
66347W        W28010   9.213  24.229  11.042
66348W        W28011   6.198   8.899  13.809
66349W        W28012  34.540  14.608  13.408
66350W        W28013  10.158  28.116   5.150
66351W        W28014   2.268  20.580   1.419
66352W        W28015  11.158   7.377  14.844
66353W        W28016  17.772  29.112  12.395
66354W        W28017  27.120  28.943   0.806
66355W        W28018  20.760  14.218   3.324
66356W        W28019   2.935  19.655  10.906
66357W        W28020  20.122   7.270   3.776
66358W        W28021  19.607  44.995   1.902
66359W        W28022   3.905  12.120   3.840
66360W        W28023   5.830  36.950   3.357
66361W        W28024   5.397  24.554  10.584
66362W        W28025  33.589  29.099   1.811
66363W        W28026  24.693  14.623   2.850
66364W        W28027  34.007  41.896  10.639
66365W        W28028  23.582  33.951  10.969
66366W        W28029  13.823  31.417   4.812
66367W        W28030   4.420  21.169   2.793
66368W        W28031  31.470  24.173  11.030
66369W        W28032  30.088  19.592   3.259
66370W        W28033  30.055   6.734  13.503
66371W        W28034  42.996  28.636   0.334
66372W        W28035  11.749  24.995  13.399
66373W        W28036   3.878  19.624  10.911
66374W        W28037  41.908   8.695   5.585
66375W        W28038  27.949  16.573  10.544
66376W        W28039  20.559  14.657   3.381
66377W        W28040  33.964  37.470  11.437
66378W        W28041  19.084  38.403   1.405
66379W        W28042   3.716  19.193  13.357
66380W        W28043  11.646  32.568  14.984
66381W        W28044   2.846  24.692   0.882
66382W        W28045  28.015  29.633  14.411
66383W        W28046   2.456   4.762   0.382
66384W        W28047  23.016  18.124   2.250
66385W        W28048   6.269   4.223  14.996
66386W        W28049  31.615  37.029   1.707
66387W        W28050  44.876  11.355  12.561
66388W        W28051   1.843  30.082   3.169
66389W        W28052  12.231  22.658  14.000
66390W        W28053  38.021   8.781   2.849
66391W        W28054  16.105  44.479  14.028
66392W        W28055  38.419  12.325  14.416
66393W        W28056  22.236  34.903   1.734
66394W        W28057   0.428  21.578  11.122
66395W        W28058  23.527  17.776  10.582
66396W        W28059  30.907  42.365   4.241
66397W        W28060  44.913  27.670   2.856
66398W        W28061  39.016  36.387  13.030
66399W        W28062  39.424  24.498  14.450
66400W        W28063  30.066   5.392   3.784
66401W        W28064  43.772  21.628  14.878
66402W        W28065  35.948   0.934   3.225
66403W        W28066  16.751  39.443   1.703
66404W        W28067  23.624  37.536  13.539
66405W        W28068   1.923  23.696   3.211
66406W        W28069  39.511  32.024  12.966
66407W        W28070  35.985  44.931  14.953
66408W        W28071  16.302   2.735   1.754
66409W        W28072  16.219  34.487  12.038
66410W        W28073  26.479  43.887  10.479
66411W        W28074  20.584   0.754   2.858
66412W        W28075  40.345   2.311  13.872
66413W        W28076  22.011  44.980  13.966
66414W        W28077   8.753  43.473   2.290
66415W        W28078  23.202  36.009  14.330
66416W        W28079  33.543   4.836  14.288
66417W        W28080  12.246  17.724  14.841
66418W        W28081  17.706  44.406  12.824
66419W        W28082   3.325  14.254   2.269
66420W        W28083   5.779  36.044  13.381
66421W        W28084  22.577  23.700   0.244
66422W        W28085  19.702  31.612  13.468
66423W        W28086  32.907  18.260   3.288
66424W        W28087  13.641  30.501  13.353
66425W        W28088   7.297  31.129   1.229
66426W        W28089  22.595  40.911   0.730
66427W        W28090  37.569   2.768   0.751
66428W        W28091  21.610   1.294   3.356
66429W        W28092  37.478  36.449  14.988
66430W        W28093  41.333  37.881  14.986
66431W        W28094  28.133  24.691   2.182
66432W        W28095  12.293  33.579  11.124
66433W        W28096  33.036  25.680  12.997
66434W        W28097   2.906  40.019   0.257
66435W        W28098   0.265   1.271   2.764
66436W        W28099  22.196  18.631   0.325
66437W        W28100  21.221   7.849  14.297
66438W        W28101  39.987  40.334  12.453
66439W        W28102   7.713  35.072  13.461
66440W        W28103  38.868  34.074   3.355
66441W        W28104  22.557  42.489   0.378
66442W        W28105  37.837  36.873  12.372
66443W        W28106  43.293  19.175   2.257
66444W        W28107   2.282  18.134   1.761
66445W        W28108  16.198  19.601   3.253
66446W        W28109   8.383   7.219  13.870
66447W        W28110  34.935  43.958   0.828
66448W        W28111  20.108  34.961   2.270
66449W        W28112   5.221  11.738   2.902
66450W        W28113  14.198  17.141  13.415
66451W        W28114  43.291   4.882  12.576
66452W        W28115  26.517  32.954  10.983
66453W        W28116  41.517  41.345   3.154
66454W        W28117   0.779  32.968  13.385
66455W        W28118   6.712  34.952  14.904
66456W        W28119  14.185  25.012  14.511
66457W        W28120  18.062   8.882  13.000
66458W        W28121  24.151  14.142  10.462
66459W        W28122  11.219   1.851  10.599
66460W        W28123   1.240   6.378   0.950
66461W        W28124  12.203   8.247   3.275
66462W        W28125  26.021  16.782  13.430
66463W        W28126  32.937   5.718  11.890
66464W        W28127  23.042  33.523  12.549
66465W        W28128  26.122  36.977   2.687
66466W        W28129  19.543  40.834  10.459
66467W        W28130  23.602  32.028   2.301
66468W        W28131  17.616  13.719   5.183
66469W        W28132  13.202  15.727  12.911
66470W        W28133  18.239  16.789  13.476
66471W        W28134   3.909  36.968  13.462
66472W        W28135  29.544  39.991   3.805
66473W        W28136  33.545  38.564  14.342
66474W        W28137  39.914  22.729   2.748
66475W        W28138  35.968  29.034   0.731
66476W        W28139   5.916   7.223   2.824
66477W        W28140  20.570  15.814   1.902
66478W        W28141  25.157  43.923   4.628
66479W        W28142  18.757  13.252   1.813
66480W        W28143  25.654  20.738   3.741
66481W        W28144  29.490  14.799   2.253
66482W        W28145  24.634  23.678   3.199
66483W        W28146  43.325  39.535  10.528
66484W        W28147  13.104  12.620  13.944
66485W        W28148   9.209  42.974  10.953
66486W        W28149  26.167  21.566  12.982
66487W        W28150  33.391  33.886  14.424
66488W        W28151  23.122  29.007  11.048
66489W        W28152  27.109  23.600  13.799
66490W        W28153  20.124   7.403   0.776
66491W        W28154   5.797   2.818   3.826
66492W        W28155  11.359  29.543  14.812
66493W        W28156  10.759  33.067   4.673
66494W        W28157   1.369  42.435  12.539
66495W        W28158  32.985  23.194   2.752
66496W        W28159  35.105   1.457   0.421
66497W        W28160  44.371   5.927   2.792
66498W        W28161   9.162   5.834   2.390
66499W        W28162   9.785  20.272   4.289
66500W        W28163  39.032  14.700  11.479
66501W        W28164  15.617  34.535   2.884
66502W        W28165  31.906  37.534   2.212
66503W        W28166  16.112  41.514   1.846
66504W        W28167  19.679  41.031  11.074
66505W        W28168  24.578  41.851  11.093
66506W        W28169  21.606  35.084   9.960
66507W        W28170  22.565  23.591   2.228
66508W        W28171  21.235  41.356  13.867
66509W        W28172  16.104  35.547   0.869
66510W        W28173  12.218  31.562  14.284
66511W        W28174   2.784   0.801  14.866
66512W        W28175   1.376  11.309  13.500
66513W        W28176   3.796  19.153  12.909
66514W        W28177  34.401  27.500   3.820
66515W        W28178  25.008  22.019   4.718
66516W        W28179  35.924  24.124   4.226
66517W        W28180   7.286   2.794   3.763
66518W        W28181   7.847  14.312   4.249
66519W        W28182  32.010   3.442   2.258
66520W        W28183   3.316  24.684   4.268
66521W        W28184   7.737  33.094   1.933
66522W        W28185  28.533  44.481  12.892
66523W        W28186  30.447  30.969   0.395
66524W        W28187  38.861  42.936  12.933
66525W        W28188   6.717  20.712  13.418
66526W        W28189  39.877   1.367   3.335
66527W        W28190  36.504   0.751  14.934
66528W        W28191  24.693  44.417  11.961
66529W        W28192  12.728  20.151   2.685
66530W        W28193  41.991   9.770   1.350
66531W        W28194   3.783  39.317   4.809
66532W        W28195  27.679   1.258  13.932
66533W        W28196  32.993   5.815   2.199
66534W        W28197   1.290   9.788  12.936
66535W        W28198  12.129  41.304  12.353
66536W        W28199  22.509  23.068  10.495
66537W        W28200  33.543  36.090   4.343
66538W        W28201  35.496  32.435  12.952
66539W        W28202  29.667  32.624   2.702
66540W        W28203  20.743  22.126  11.481
66541W        W28204  22.693  36.514  11.436
66542W        W28205  15.798  36.477  11.522
66543W        W28206  13.686  19.690  12.949
66544W        W28207  36.437  23.003   0.963
66545W        W28208   9.694  25.008  11.587
66546W        W28209  42.338   6.833   2.285
66547W        W28210  44.981  42.814  12.413
66548W        W28211  16.652  22.594   4.331
66549W        W28212  42.981   1.475  11.424
66550W        W28213  18.614  31.046   0.271
66551W        W28214  18.273   4.405   3.346
66552W        W28215  10.641  26.024  13.519
66553W        W28216  34.970  14.311   5.121
66554W        W28217   5.926  19.235  14.923
66555W        W28218  39.362  18.661  10.423
66556W        W28219   3.956  39.521  12.975
66557W        W28220  36.908  14.718   0.385
66558W        W28221   6.877  23.651  12.503
66559W        W28222  16.230  30.993   3.766
66560W        W28223  28.091  40.964  14.386
66561W        W28224  16.173  26.144   4.660
66562W        W28225  11.775  39.966  13.535
66563W        W28226  39.031  10.780   0.318
66564W        W28227   5.269   5.353  13.011
66565W        W28228   5.310  15.742   4.782
66566W        W28229  15.296   7.209   3.700
66567W        W28230  23.541  12.136  12.453
66568W        W28231  12.774  39.520   3.836
66569W        W28232  22.147  40.890   2.880
66570W        W28233  12.672  44.930   3.147
66571W        W28234  33.538  43.460   4.823
66572W        W28235  42.831   5.244  13.902
66573W        W28236   1.392   3.243  12.846
66574W        W28237  35.397  23.133  14.928
66575W        W28238  23.692  25.060  13.476
66576W        W28239  24.666  39.821  12.840
66577W        W28240  27.176   8.741   3.270
66578W        W28241  32.440  26.475  10.110
66579W        W28242  23.234  43.924  11.556
66580W        W28243  40.016   8.187  12.537
66581W        W28244   8.399   6.310  11.094
66582W        W28245  39.901  36.921  14.788
66583W        W28246  34.463  14.796   1.210
66584W        W28247  29.620  23.168  13.856
66585W        W28248  16.667  43.019  13.324
66586W        W28249  41.487   3.848  11.434
66587W        W28250  34.543   9.735   3.860
66588W        W28251   3.743   9.282   1.728
66589W        W28252  37.031   3.817  11.044
66590W        W28253  38.013  39.358  14.420
66591W        W28254  41.334  40.857   0.745
66592W        W28255  41.036   4.317  13.495
66593W        W28256  40.515  32.920  11.886
66594W        W28257  23.082  26.658   4.720
66595W        W28258   4.856  22.700   2.691
66596W        W28259  43.825  19.715   1.324
66597W        W28260  14.792  38.072  12.534
66598W        W28261  23.015   3.853   4.821
66599W        W28262   9.307   2.445  10.938
66600W        W28263   7.204   3.938  13.541
66601W        W28264  37.359  12.772   0.851
66602W        W28265   7.884  10.633   0.929
66603W        W28266  18.166  37.990  12.021
66604W        W28267  40.438   3.258   1.412
66605W        W28268  32.535  38.831  12.433
66606W        W28269   5.920  19.043  10.625
66607W        W28270  42.328  26.482  11.979
66608W        W28271  43.366  43.802  10.466
66609W        W28272  38.507   4.391  11.411
66610W        W28273  34.896  41.912   2.327
66611W        W28274  30.155  21.102  11.467
66612W        W28275  42.778   6.367  13.450
66613W        W28276  25.634  35.017  12.825
66614W        W28277  42.931  35.418  12.924
66615W        W28278   0.926   1.958  14.964
66616W        W28279  19.103  39.942  13.424
66617W        W28280   2.227   5.424  11.070
66618W        W28281  30.640  17.173  13.405
66619W        W28282   0.901   6.704  12.491
66620W        W28283  13.829  40.865  12.396
66621W        W28284  11.809  22.118   3.273
66622W        W28285  32.619  44.789  13.821
66623W        W28286  11.805  21.256  14.795
66624W        W28287  33.503   6.721  13.320
66625W        W28288  42.884  44.497  11.856
66626W        W28289  30.948  22.162   0.795
66627W        W28290  33.435  41.899  10.439
66628W        W28291  33.562  34.368   4.626
66629W        W28292  41.418  14.246  13.531
66630W        W28293  18.611  38.399  10.602
66631W        W28294  25.022  32.064  11.542
66632W        W28295  43.788  43.384   1.702
66633W        W28296  22.160   9.164   2.715
66634W        W28297   3.759  36.927  11.439
66635W        W28298  25.120  15.254  12.488
66636W        W28299  22.564  36.423   0.292
66637W        W28300  19.566  18.724   1.273
66638W        W28301   2.850  38.032  13.500
66639W        W28302  24.543  12.228  10.598
66640W        W28303  22.696  14.711   2.199
66641W        W28304  15.647  24.630  11.000
66642W        W28305  24.073  32.923   0.370
66643W        W28306  30.040   3.299   3.234
66644W        W28307   5.864   3.779  12.368
66645W        W28308  40.997  25.974  10.944
66646W        W28309  25.690   6.702   0.932
66647W        W28310  19.654  44.333   1.780
66648W        W28311  35.971  41.859   4.759
66649W        W28312   4.875  23.563   4.742
66650W        W28313  33.054  33.882   0.425
66651W        W28314   8.276  20.207   4.164
66652W        W28315  35.007  31.472   1.724
66653W        W28316  15.639  26.624  10.530
66654W        W28317  31.013   8.236  14.025
66655W        W28318  25.156  27.945   3.198
66656W        W28319  19.614  13.738  12.090
66657W        W28320  22.666  31.557  14.402
66658W        W28321   8.380   9.873   2.875
66659W        W28322  19.189   3.363  14.514
66660W        W28323  43.380  17.201  10.977
66661W        W28324  19.188  10.299  12.567
66662W        W28325  21.614  44.282  14.813
66663W        W28326  36.529  38.020   4.817
66664W        W28327  35.584  22.577   1.262
66665W        W28328  28.044  10.743  10.596
66666W        W28329  37.389  21.740  13.915
66667W        W28330  32.031  40.850  14.278
66668W        W28331  44.852   9.703  10.418
66669W        W28332  28.180   2.797   4.119
66670W        W28333  28.001   3.912  11.561
66671W        W28334  11.831  34.974   4.307
66672W        W28335  12.798  32.939   3.844
66673W        W28336  19.729   1.740   0.877
66674W        W28337  35.414  34.952   2.326
66675W        W28338  33.939  28.659  13.534
66676W        W28339  23.718  32.443   4.162
66677W        W28340   4.288  17.600   1.223
66678W        W28341  36.002  15.807   9.939
66679W        W28342   9.840  23.537   0.351
66680W        W28343   1.852  11.751   4.172
66681W        W28344  11.834  41.970   3.364
66682W        W28345  40.856   5.734  10.965
66683W        W28346  11.625  27.968   2.360
66684W        W28347  37.546  25.153  10.474
66685W        W28348  33.439  10.266   0.313
66686W        W28349  30.953  19.747   3.358
66687W        W28350  27.023  36.379  11.123
66688W        W28351  31.484  23.562   2.817
66689W        W28352  22.232  32.614   3.698
66690W        W28353  30.033  34.939  11.997
66691W        W28354  25.033   2.811  13.821
66692W        W28355   2.852  19.760  14.902
66693W        W28356  30.493  15.126  11.976
66694W        W28357   3.936  41.416  13.386
66695W        W28358  12.804  41.439  11.049
66696W        W28359  15.086  34.518  11.496
66697W        W28360  13.721  38.893   0.335
66698W        W28361   3.410  23.544   4.155
66699W        W28362  16.597   7.723  12.860
66700W        W28363  27.029  18.624   1.848
66701W        W28364   9.654  20.606  12.389
66702W        W28365  35.539  15.085  14.509
66703W        W28366  14.809  17.169   1.839
66704W        W28367  33.018  12.231  13.336
66705W        W28368  21.524  23.094  12.391
66706W        W28369  17.103  14.130   9.469
66707W        W28370  20.553   4.347   1.789
66708W        W28371  39.822  11.648   3.212
66709W        W28372   0.257  40.807   0.383
66710W        W28373   1.382  41.788  11.604
66711W        W28374   4.893  15.657   4.721
66712W        W28375  10.337  24.637   3.378
66713W        W28376  19.208  34.500  11.882
66714W        W28377  16.779  28.519   1.335
66715W        W28378   8.269   8.349   1.871
66716W        W28379   9.195  32.090   0.478
66717W        W28380  23.543  42.342  12.023
66718W        W28381  29.071  36.089   0.864
66719W        W28382   0.851  16.268   3.862
66720W        W28383  25.592  23.183   0.351
66721W        W28384   7.260  21.237  14.507
66722W        W28385  27.094  13.771  13.407
66723W        W28386  42.341   1.883   4.256
66724W        W28387   0.832   8.321  11.127
66725W        W28388   7.308   3.736   4.157
66726W        W28389  28.664  30.119   4.119
66727W        W28390   9.390  29.577  11.452
66728W        W28391  34.562  14.153   3.848
66729W        W28392   3.717  21.122   1.261
66730W        W28393   2.306  37.934   0.347
66731W        W28394  27.535  23.650   0.781
66732W        W28395  35.591  30.625  14.808
66733W        W28396   7.393  24.686  13.439
66734W        W28397  18.229  39.437  13.497
66735W        W28398  34.455  18.786   2.844
66736W        W28399   1.275   0.831   1.925
66737W        W28400  42.011  31.492  12.874
66738W        W28401  19.228  12.784  14.943
66739W        W28402  24.684  16.247   4.826
66740W        W28403  29.563   4.383  11.414
66741W        W28404  13.232   4.204   4.661
66742W        W28405   9.730  37.392   0.941
66743W        W28406  32.620  30.463   0.745
66744W        W28407  42.522  39.904  12.501
66745W        W28408  32.957  15.117  12.945
66746W        W28409  16.585  33.046  14.436
66747W        W28410  16.756  39.853  12.343
66748W        W28411  38.478  30.066   3.820
66749W        W28412  19.170   8.186  10.891
66750W        W28413   9.779   1.795   0.732
66751W        W28414  32.508  21.197   0.885
66752W        W28415  25.208  19.230  11.457
66753W        W28416  11.840  33.549  10.520
66754W        W28417  19.678   2.370   4.181
66755W        W28418   1.963   6.907  11.961
66756W        W28419  23.235  12.647  11.535
66757W        W28420  27.507   9.390   0.360
66758W        W28421  32.626   6.768  11.461
66759W        W28422  32.069  40.491  12.029
66760W        W28423   6.238   0.279   4.263
66761W        W28424  30.966  10.816  10.940
66762W        W28425  33.438  38.863   4.713
66763W        W28426   4.338  32.958  12.495
66764W        W28427  40.894  15.678   3.167
66765W        W28428  23.043  31.142   4.165
66766W        W28429  37.901  33.002  12.997
66767W        W28430  40.945  28.997  12.566
66768W        W28431  11.214  15.172   3.226
66769W        W28432  28.675  14.334   4.669
66770W        W28433   6.198   1.328  14.433
66771W        W28434  36.413  33.010   0.915
66772W        W28435  15.325   3.723   4.196
66773W        W28436  32.611  17.769   5.246
66774W        W28437  27.533   2.264  11.917
66775W        W28438  33.879  41.831   0.377
66776W        W28439  31.453   2.764  10.557
66777W        W28440  15.740  40.807   1.782
66778W        W28441  25.083  27.466   3.709
66779W        W28442  42.916   7.809   1.859
66780W        W28443  38.348   8.699  12.094
66781W        W28444  14.803  22.682   4.152
66782W        W28445  28.447  12.286   0.362
66783W        W28446  22.583   8.757   1.826
66784W        W28447  27.057  44.461   0.903
66785W        W28448  43.803   7.302  14.312
66786W        W28449  13.723   8.847   3.354
66787W        W28450   3.447  38.915  12.516
66788W        W28451  17.711  29.448   1.372
66789W        W28452  29.161  12.811   1.854
66790W        W28453  27.001  37.081   3.857
66791W        W28454  28.038  27.989  12.507
66792W        W28455  14.245   9.824  11.010
66793W        W28456  40.307  38.380   4.784
66794W        W28457  15.084   4.384  10.470
66795W        W28458  22.634  37.373  13.404
66796W        W28459  15.651  19.610   2.335
66797W        W28460  16.621  32.134   3.331
66798W        W28461  31.977  36.527  11.597
66799W        W28462  16.780  15.637  12.359
66800W        W28463   3.277  26.537  13.794
66801W        W28464  20.076   2.803   4.187
66802W        W28465   6.912  44.973   4.806
66803W        W28466  36.023  19.257  10.629
66804W        W28467  13.800  25.110  11.405
66805W        W28468   2.342   4.702   1.271
66806W        W28469  38.000  36.577  11.478
66807W        W28470  10.355  21.625  13.827
66808W        W28471  28.539  24.173   4.743
66809W        W28472  15.292  34.093  13.487
66810W        W28473  11.154  31.475  13.366
66811W        W28474   7.765  14.790  11.903
66812W        W28475  17.611  39.542  12.569
66813W        W28476  27.185  23.501  10.943
66814W        W28477   6.871  14.752  11.995
66815W        W28478   7.670  12.664  10.094
66816W        W28479  41.304  20.693   3.789
66817W        W28480   3.928  24.496   2.284
66818W        W28481  38.454   4.767   1.799
66819W        W28482  11.371  41.368   4.197
66820W        W28483  37.357  39.020  13.516
66821W        W28484  34.071   1.871  13.489
66822W        W28485  11.820  24.658  14.424
66823W        W28486  27.079  30.566   2.681
66824W        W28487   8.740  43.391  12.906
66825W        W28488   6.750  22.514  12.988
66826W        W28489   6.405  38.927  10.954
66827W        W28490  18.709   9.739   1.792
66828W        W28491  12.831  44.992   3.834
66829W        W28492   4.312   4.399   0.270
66830W        W28493  44.889   9.290  13.894
66831W        W28494  27.682   3.226  12.835
66832W        W28495  16.770  17.605  11.878
66833W        W28496  34.492  31.412  12.072
66834W        W28497  25.066  16.738  13.336
66835W        W28498  42.320   5.399   4.778
66836W        W28499  43.846  25.485   2.299
66837W        W28500   2.339  34.391  11.870
66838W        W28501  15.599  18.179  13.495
66839W        W28502  43.002  18.192  14.989
66840W        W28503   3.337  21.149  10.639
66841W        W28504  40.864  43.946   0.786
66842W        W28505  13.755  28.169  14.768
66843W        W28506  12.688  34.911   1.710
66844W        W28507   4.371  14.641   4.327
66845W        W28508   1.269   4.722  12.089
66846W        W28509  30.055  33.004   1.439
66847W        W28510  21.571  15.667  11.891
66848W        W28511   7.789  42.782  11.083
66849W        W28512  30.956   4.704   3.668
66850W        W28513  12.663  16.636  14.890
66851W        W28514  14.688  12.284   1.721
66852W        W28515  34.576  43.991  11.047
66853W        W28516  23.214  17.263  12.093
66854W        W28517   8.691  33.614  13.538
66855W        W28518  36.439  16.118   0.817
66856W        W28519  10.215  22.212  13.515
66857W        W28520  29.463   6.413   3.341
66858W        W28521   4.432  40.015  11.982
66859W        W28522  18.747   2.882  10.895
66860W        W28523  32.452  22.547  12.576
66861W        W28524   6.811  23.572  10.951
66862W        W28525  39.494   6.721  10.610
66863W        W28526  31.560  20.182   9.462
66864W        W28527   0.766  38.939   1.796
66865W        W28528  10.669   5.913  12.354
66866W        W28529   2.799  11.760  14.856
66867W        W28530  25.589  24.671  12.991
66868W        W28531  38.542   9.201   0.761
66869W        W28532  31.129  28.669  13.801
66870W        W28533   0.383  20.196   2.207
66871W        W28534  33.963  32.633  12.984
66872W        W28535  34.003  13.240   4.302
66873W        W28536   7.732  27.186  10.574
66874W        W28537  14.337  44.273  13.061
66875W        W28538  14.588  12.784  11.425
66876W        W28539  31.116  22.133   2.827
66877W        W28540  27.056  34.530  14.444
66878W        W28541   1.269  41.963   2.314
66879W        W28542  18.582   3.925  14.766
66880W        W28543   8.779  16.630   3.287
66881W        W28544  10.660   6.361   5.707
66882W        W28545  23.506  10.823  12.009
66883W        W28546  29.499   3.908  14.471
66884W        W28547  44.999  35.545   4.188
66885W        W28548   3.396   3.866  11.396
66886W        W28549  44.003  10.308  12.916
66887W        W28550  35.867   2.806  14.972
66888W        W28551   5.853  30.028   3.648
66889W        W28552  42.910  21.572  13.495
66890W        W28553  20.176  11.827  13.441
66891W        W28554  15.232  25.111  11.942
66892W        W28555  26.492   5.908   0.445
66893W        W28556  12.257   4.434   4.660
66894W        W28557  25.515  19.610  14.874
66895W        W28558  39.518  13.608  12.400
66896W        W28559  30.961  33.452   2.411
66897W        W28560   5.336  18.100   4.653
66898W        W28561  22.695  24.977  11.049
66899W        W28562  40.458   8.358  11.519
66900W        W28563  10.157  34.375  13.905
66901W        W28564  43.975  17.274   1.301
66902W        W28565  35.909   1.446   2.798
66903W        W28566   1.755  21.084  11.576
66904W        W28567  18.116  16.810   1.363
66905W        W28568   9.855  41.450   0.938
66906W        W28569  43.805   0.338  13.935
66907W        W28570  27.988  31.913   4.273
66908W        W28571   5.839  31.440  12.969
66909W        W28572  42.499  21.636   2.890
66910W        W28573  33.065   6.390   5.266
66911W        W28574  21.535   7.238  10.977
66912W        W28575  26.660  40.303   1.338
66913W        W28576  36.953   8.280   4.776
66914W        W28577  44.366  32.449  14.399
66915W        W28578   1.444  33.927  11.103
66916W        W28579   7.849   8.195   0.776
66917W        W28580  44.927  16.808  12.358
66918W        W28581  40.317  19.748  13.419
66919W        W28582   8.817   1.850   2.664
66920W        W28583  40.473  41.517  10.560
66921W        W28584  34.497  39.414  10.622
66922W        W28585   4.799   1.805  12.936
66923W        W28586  13.119  34.377   4.283
66924W        W28587  42.308  19.047   3.155
66925W        W28588  11.213  14.155   4.622
66926W        W28589  26.500   2.460  12.547
66927W        W28590  42.021  19.043  12.023
66928W        W28591  36.979  30.631  13.912
66929W        W28592   4.736   8.844  12.984
66930W        W28593  33.625   4.884   4.300
66931W        W28594   7.829  12.132  10.613
66932W        W28595   5.755  22.688   4.603
66933W        W28596  20.066  11.226   2.865
66934W        W28597   7.773  34.498  13.503
66935W        W28598  40.470   8.377   4.194
66936W        W28599   0.285  36.555  11.855
66937W        W28600  16.653  42.470   0.744
66938W        W28601   8.833  39.508   2.281
66939W        W28602  22.022  28.490   2.179
66940W        W28603  32.527   1.891   1.395
66941W        W28604  33.132  14.287   4.165
66942W        W28605  23.657  23.702  10.482
66943W        W28606  39.415   7.675   3.383
66944W        W28607  24.588  28.163  10.462
66945W        W28608   1.822  42.868   4.226
66946W        W28609  20.059   5.924   2.874
66947W        W28610  13.144  23.155  12.429
66948W        W28611  30.947  20.047  11.027
66949W        W28612  16.732  33.490   0.821
66950W        W28613   4.262  25.062   4.739
66951W        W28614   9.782   6.833   4.193
66952W        W28615   7.796  38.898  14.971
66953W        W28616  42.957  19.556   1.421
66954W        W28617  33.914  19.545   0.381
66955W        W28618  38.448  28.074   0.795
66956W        W28619  26.020  30.630   3.808
66957W        W28620  39.979  24.031  10.417
66958W        W28621  42.800  33.436   4.687
66959W        W28622  33.429  13.283   4.244
66960W        W28623   1.873  26.005   0.935
66961W        W28624   7.334  21.261   1.859
66962W        W28625  21.042  34.036   2.411
66963W        W28626   7.677  35.028   2.845
66964W        W28627  23.234   5.347   2.321
66965W        W28628   0.755  17.699   2.759
66966W        W28629   7.303  22.704  12.432
66967W        W28630  21.625  20.159   4.125
66968W        W28631  12.656  15.703  14.379
66969W        W28632  24.608  13.826   3.676
66970W        W28633  18.774  33.961  12.029
66971W        W28634  11.282  36.944   2.757
66972W        W28635  22.654   0.444  12.341
66973W        W28636  18.070  31.067   3.658
66974W        W28637   9.879  14.698  13.335
66975W        W28638   7.789  37.017   1.388
66976W        W28639  14.598  14.194   3.745
66977W        W28640  35.908  14.272  13.498
66978W        W28641  15.145  44.466  10.500
66979W        W28642  42.854  19.745   2.343
66980W        W28643  43.774  15.298  10.474
66981W        W28644  36.405  27.008  11.096
66982W        W28645   2.918  32.943  13.308
66983W        W28646  36.018   3.713   3.148
66984W        W28647  24.644  37.476   1.390
66985W        W28648  29.010  35.378  12.446
66986W        W28649   9.233  30.943   2.865
66987W        W28650   5.335  41.860  10.630
66988W        W28651  42.285  19.741  12.947
66989W        W28652  44.435   5.277   0.329
66990W        W28653  30.988  26.176   0.286
66991W        W28654  13.692   0.856  14.330
66992W        W28655  35.523   7.717  13.333
66993W        W28656  35.381   5.892  12.045
66994W        W28657  42.981  43.879   2.753
66995W        W28658  11.629  31.643   0.408
66996W        W28659   5.301   5.901   1.829
66997W        W28660  12.806   3.843  13.414
66998W        W28661  22.534   0.745   1.396
66999W        W28662  43.270  39.370   3.271
67000W        W28663  39.892  31.970   9.976
67001W        W28664  22.099   6.407  14.770
67002W        W28665   4.400  32.427   4.677
67003W        W28666  22.056  35.375  10.897
67004W        W28667  35.892  16.650   4.219
67005W        W28668  35.574  18.739   0.829
67006W        W28669   9.798  33.891  11.563
67007W        W28670   6.404   6.218  12.060
67008W        W28671  15.143  20.070   4.264
67009W        W28672  40.835   2.843  11.944
67010W        W28673  10.193  43.443  13.973
67011W        W28674  44.420  26.661   1.420
67012W        W28675  40.857   4.296  12.480
67013W        W28676  29.628   3.421   5.167
67014W        W28677  36.920  43.942  14.944
67015W        W28678  40.528   1.417   1.822
67016W        W28679  18.210  31.993  10.975
67017W        W28680  35.518  10.715  10.086
67018W        W28681  15.817   7.312  10.565
67019W        W28682   9.867  10.795  12.489
67020W        W28683  22.513  37.469   1.262
67021W        W28684  14.094  14.177   1.814
67022W        W28685  25.610  25.983   2.313
67023W        W28686   2.944  35.870   1.719
67024W        W28687  15.765  23.631   2.866
67025W        W28688   0.980  23.091   0.383
67026W        W28689  29.622  20.736  12.444
67027W        W28690  29.574  24.677   0.443
67028W        W28691  28.143  41.368  13.804
67029W        W28692   1.479   6.398   1.718
67030W        W28693  34.464   5.195   2.378
67031W        W28694  18.640  33.611  13.951
67032W        W28695   4.828   1.283  13.916
67033W        W28696  35.515  44.446  13.498
67034W        W28697   6.356   9.698   3.802
67035W        W28698   6.878  17.602  11.383
67036W        W28699  30.162  13.615   1.706
67037W        W28700  43.838  15.102   3.189
67038W        W28701  38.508  13.165  14.483
67039W        W28702  25.626  40.527  12.933
67040W        W28703  16.719  20.082   2.412
67041W        W28704   8.785   3.710   4.828
67042W        W28705  22.070   0.977   2.274
67043W        W28706  15.156  23.608   0.359
67044W        W28707  28.174  23.005  14.910
67045W        W28708  19.742  30.957  14.905
67046W        W28709  43.374   7.297   1.217
67047W        W28710   9.226  31.500   2.309
67048W        W28711  32.996  13.759  10.559
67049W        W28712  20.579  37.455  12.970
67050W        W28713  43.942   4.711   2.702
67051W        W28714  43.307  27.506   1.449
67052W        W28715  10.735   3.853  14.463
67053W        W28716   7.181  43.359  13.805
67054W        W28717  39.823   9.706  12.364
67055W        W28718   9.188   6.737  13.421
67056W        W28719  14.310   9.340   0.931
67057W        W28720   4.732  38.506   4.779
67058W        W28721  35.421  26.587   0.364
67059W        W28722  34.565   2.894   1.844
67060W        W28723  22.075  30.616   1.928
67061W        W28724  36.032  25.033   3.747
67062W        W28725  34.943  23.699   0.881
67063W        W28726  21.567  16.163  11.494
67064W        W28727   2.822  11.288   2.818
67065W        W28728  30.611  22.106   4.161
67066W        W28729  27.970  39.819   0.908
67067W        W28730  28.544  38.894   0.801
67068W        W28731   8.225  23.545   1.828
67069W        W28732  31.541  10.794  13.324
67070W        W28733  24.593  19.253   3.739
67071W        W28734   3.807  29.622   1.816
67072W        W28735  35.556   6.911   3.337
67073W        W28736  41.825   5.290   0.945
67074W        W28737  31.450   6.756   1.371
67075W        W28738  15.298  40.411   4.342
67076W        W28739   9.242   0.939   1.783
67077W        W28740  22.507  44.319   1.332
67078W        W28741  12.312  44.886   3.701
67079W        W28742  23.694  19.177   3.742
67080W        W28743  35.058  44.401   1.893
67081W        W28744   3.228  32.910   3.216
67082W        W28745  19.054  33.964   1.213
67083W        W28746  41.369  26.472  11.464
67084W        W28747  34.478  20.120   0.901
67085W        W28748  44.928  11.852  10.888
67086W        W28749  38.524  38.349   1.396
67087W        W28750   1.332  38.012   4.312
67088W        W28751  43.892  10.141   1.903
67089W        W28752  13.708   1.810  11.120
67090W        W28753  12.232   7.296   1.227
67091W        W28754  15.183  44.438   1.277
67092W        W28755   2.915  31.462  11.606
67093W        W28756  17.103  16.699  10.637
67094W        W28757   2.736   2.860   3.781
67095W        W28758  17.268  32.590  13.335
67096W        W28759  35.912   7.198  13.365
67097W        W28760  43.389  11.675   2.395
67098W        W28761   1.769   6.717   2.877
67099W        W28762   6.385   4.750  14.961
67100W        W28763  21.205  15.693   0.742
67101W        W28764  19.570   6.803  11.505
67102W        W28765  32.483  14.664  14.793
67103W        W28766   6.190  14.819   0.385
67104W        W28767  11.674  23.551   3.381
67105W        W28768  33.597  19.601  11.006
67106W        W28769   4.348  14.135   2.258
67107W        W28770  32.131  14.182   1.265
67108W        W28771  18.296  34.868   0.438
67109W        W28772   2.291  44.811  11.418
67110W        W28773  33.103  12.296  14.465
67111W        W28774  17.643  30.657  10.474
67112W        W28775  15.278  17.083  14.885
67113W        W28776   9.767  28.678   2.315
67114W        W28777  20.741  26.620  13.917
67115W        W28778   8.347  10.759  14.426
67116W        W28779  25.480  22.505  14.915
67117W        W28780   9.790  18.059   1.330
67118W        W28781   9.222  30.002   0.328
67119W        W28782  44.979  44.286  13.808
67120W        W28783   2.322  35.539  13.357
67121W        W28784   3.239  30.049   3.752
67122W        W28785  37.358   4.843   2.318
67123W        W28786  28.964  27.974  14.512
67124W        W28787  35.562  44.312   4.226
67125W        W28788  12.779  12.711  13.415
67126W        W28789  39.963  20.622   2.232
67127W        W28790  14.591  40.997   1.263
67128W        W28791  37.364  14.618  12.439
67129W        W28792  41.461  10.733   2.827
67130W        W28793  16.777   1.753   0.441
67131W        W28794  13.268  38.926   1.355
67132W        W28795  24.552  21.128   4.331
67133W        W28796  44.890   9.304  13.472
67134W        W28797  26.672  41.928   0.361
67135W        W28798  41.962  44.984  12.966
67136W        W28799  34.983   7.730  10.973
67137W        W28800   3.758  28.589  14.027
67138W        W28801   7.394   2.259  13.839
67139W        W28802  16.716  11.191  12.828
67140W        W28803  40.896  43.953  12.865
67141W        W28804  35.996  35.904  14.820
67142W        W28805  44.850  32.048   3.277
67143W        W28806   7.892  25.211  10.999
67144W        W28807   9.198  42.314  11.106
67145W        W28808  42.342   1.452  12.016
67146W        W28809   3.810  41.445   4.248
67147W        W28810   1.882  14.243   4.611
67148W        W28811   6.744   8.897   3.250
67149W        W28812  26.614  23.513  11.411
67150W        W28813  17.151   8.841   1.927
67151W        W28814  34.430  43.399  11.969
67152W        W28815  41.391  11.211   1.775
67153W        W28816  19.559  32.095  13.028
67154W        W28817  12.311  15.795   0.859
67155W        W28818  17.702  35.485   0.392
67156W        W28819   4.933  44.004  13.947
67157W        W28820   2.845  30.969  12.451
67158W        W28821  36.025  11.177  13.495
67159W        W28822   8.298   6.871   2.666
67160W        W28823  35.507  39.023   0.748
67161W        W28824  44.788  32.071  12.022
67162W        W28825  12.260  32.534   3.212
67163W        W28826   5.257  14.290   2.336
67164W        W28827  18.760  29.129   2.782
67165W        W28828  29.013  26.133  10.475
67166W        W28829  27.603  23.722  14.436
67167W        W28830  10.372   7.259   2.696
67168W        W28831  27.620  23.497  11.423
67169W        W28832  24.530  11.358  13.509
67170W        W28833   0.463  34.401  11.427
67171W        W28834  38.376   2.825  10.472
67172W        W28835  33.418   0.465  10.540
67173W        W28836  12.210  34.511  10.498
67174W        W28837  21.516  18.152  10.943
67175W        W28838  39.900  14.788   4.226
67176W        W28839   1.399  39.445  10.447
67177W        W28840   2.938  34.471   2.701
67178W        W28841  10.872  20.608   3.753
67179W        W28842  17.076  37.489  11.893
67180W        W28843  10.163  24.652   0.882
67181W        W28844  44.805  17.609  14.515
67182W        W28845   3.764  25.679   1.392
67183W        W28846   1.367  32.424   1.359
67184W        W28847   0.346   8.801  12.983
67185W        W28848  24.225   3.329  13.802
67186W        W28849  25.692   4.901  14.761
67187W        W28850  23.039   3.838   3.311
67188W        W28851  44.343  19.191  13.332
67189W        W28852  28.181  24.042  10.596
67190W        W28853  22.132   1.773   4.623
67191W        W28854  23.684  10.637   0.942
67192W        W28855  43.791   2.951  14.370
67193W        W28856   7.865  27.061   3.256
67194W        W28857   6.836  43.406   3.658
67195W        W28858  11.628  19.108   3.386
67196W        W28859   3.452  30.500  11.415
67197W        W28860  16.769  31.061   2.186
67198W        W28861  40.521  12.147  14.384
67199W        W28862  35.484  16.106   1.251
67200W        W28863   2.779  24.080  14.344
67201W        W28864  16.707  28.462   0.863
67202W        W28865  20.039  18.636   1.280
67203W        W28866  18.782  26.523  14.890
67204W        W28867  13.351  33.084  12.005
67205W        W28868   8.882  37.071  13.359
67206W        W28869  21.232  34.535  12.898
67207W        W28870  34.610  25.565  13.877
67208W        W28871  14.832  44.758   0.871
67209W        W28872  34.450   2.902   2.770
67210W        W28873  30.649  18.741   4.693
67211W        W28874  42.447  38.855  13.018
67212W        W28875   0.387  38.466   3.260
67213W        W28876  15.164  36.510  11.488
67214W        W28877  12.263  15.747  12.852
67215W        W28878  39.985  23.695  13.319
67216W        W28879  35.359  21.572  14.333
67217W        W28880  10.717  40.476   0.929
67218W        W28881  15.155  20.216  11.515
67219W        W28882  36.988   3.741  13.310
67220W        W28883  39.846   6.843   3.819
67221W        W28884   5.783  35.538  13.500
67222W        W28885  32.478  35.054   2.182
67223W        W28886  15.178  17.689   1.904
67224W        W28887  33.049  24.689  13.823
67225W        W28888  25.217  35.059   4.257
67226W        W28889  16.623   5.253  12.902
67227W        W28890  26.956  41.414  14.336
67228W        W28891   5.761  19.110   4.835
67229W        W28892  10.789  21.057   1.233
67230W        W28893   6.798  23.062   1.774
67231W        W28894  18.606   4.905   0.247
67232W        W28895   7.672  14.133   4.806
67233W        W28896  42.981  35.475   4.253
67234W        W28897  14.124  40.405   4.727
67235W        W28898  17.161  15.149  12.915
67236W        W28899  10.774  35.882  13.418
67237W        W28900  14.667  35.484   1.218
67238W        W28901  33.511   8.867   0.247
67239W        W28902   3.864  28.108   2.899
67240W        W28903  23.070  37.557  10.946
67241W        W28904  31.482   8.328   1.271
67242W        W28905  20.108  34.415  11.088
67243W        W28906  21.582  44.366   1.814
67244W        W28907  34.466  41.924  11.906
67245W        W28908  16.284   6.261   1.237
67246W        W28909   0.267  39.977   4.729
67247W        W28910   8.373  25.198   1.805
67248W        W28911   0.453  27.043  14.462
67249W        W28912   0.262  18.237   2.215
67250W        W28913  40.946   8.364   0.900
67251W        W28914   2.226  31.012   1.925
67252W        W28915  43.312  38.877  12.054
67253W        W28916  28.553  29.551  11.373
67254W        W28917  23.501   5.225  11.410
67255W        W28918   2.898  18.051  12.486
67256W        W28919  13.307  37.998   1.792
67257W        W28920  37.930  31.128  12.385
67258W        W28921  41.446   1.472  12.035
67259W        W28922  43.459  14.197   1.439
67260W        W28923  29.113  20.730   4.225
67261W        W28924  41.399  11.296  11.514
67262W        W28925  11.173   3.426   1.378
67263W        W28926  26.043   9.172  13.990
67264W        W28927   7.763  41.804   3.648
67265W        W28928   0.472  15.098  13.346
67266W        W28929   8.161  10.219  14.834
67267W        W28930  36.044  35.422  10.577
67268W        W28931   0.350  42.489  12.464
67269W        W28932   8.797  19.551   3.801
67270W        W28933  32.011   2.770   0.399
67271W        W28934  19.115  44.330   4.679
67272W        W28935  29.975  27.154   2.676
67273W        W28936  38.538  28.456  11.094
67274W        W28937  18.180  13.238   4.797
67275W        W28938  26.009  30.417  12.898
67276W        W28939  18.210  39.412  13.905
67277W        W28940  34.401  38.554  10.635
67278W        W28941  30.653  32.445  14.415
67279W        W28942  28.667   3.379  11.010
67280W        W28943  33.941  35.990   1.326
67281W        W28944  24.120  35.920  14.958
67282W        W28945  40.972  27.178   0.252
67283W        W28946  13.171  17.681   2.335
67284W        W28947  42.344  34.119  14.427
67285W        W28948  31.014  23.587  12.913
67286W        W28949  44.990  35.491  14.759
67287W        W28950  23.106  11.801   0.463
67288W        W28951   3.261   0.807  13.354
67289W        W28952  38.492  31.629  12.533
67290W        W28953  19.254  23.087  13.406
67291W        W28954  30.956  20.244   4.794
67292W        W28955  41.861   4.790   2.337
67293W        W28956  39.457  20.148  11.508
67294W        W28957  38.855  40.803   3.858
67295W        W28958   4.749  23.688  11.029
67296W        W28959  24.698  15.131   1.251
67297W        W28960  14.313  31.085   3.230
67298W        W28961  38.496   7.715   2.672
67299W        W28962  21.520  12.777  10.500
67300W        W28963  15.109   4.334   4.826
67301W        W28964  19.551  12.287   0.367
67302W        W28965  22.104  37.880   1.274
67303W        W28966  18.578  10.726  13.381
67304W        W28967  44.359  39.049  11.928
67305W        W28968  27.153  41.478  12.404
67306W        W28969  42.923  31.910   0.398
67307W        W28970  26.630  39.045   1.253
67308W        W28971  18.178  33.041   2.328
67309W        W28972   7.221  35.401  11.418
67310W        W28973  38.414  19.732   2.834
67311W        W28974  44.332  16.567  10.629
67312W        W28975  18.618  26.098  14.276
67313W        W28976   4.895  22.125  14.303
67314W        W28977  34.540  17.196   1.349
67315W        W28978  37.906  21.560   2.418
67316W        W28979   9.167  11.838  13.347
67317W        W28980  31.027   4.350  11.457
67318W        W28981  17.578   7.829   0.786
67319W        W28982  26.597  29.529  12.458
67320W        W28983  33.122  32.043  10.628
67321W        W28984  38.518  39.348  11.085
67322W        W28985  35.988  35.503  14.437
67323W        W28986   8.740  30.584  14.771
67324W        W28987  37.578  20.669  12.565
67325W        W28988  33.916  37.384  12.343
67326W        W28989  37.070  13.244   4.696
67327W        W28990  38.880  27.024  11.496
67328W        W28991  13.644  34.070   0.834
67329W        W28992  43.471  31.964   0.438
67330W        W28993  36.894  16.226   4.701
67331W        W28994  39.027   3.766  10.928
67332W        W28995  35.561  22.551   4.292
67333W        W28996  44.988  38.887  11.862
67334W        W28997  35.508  38.969   3.684
67335W        W28998  41.299  22.571   3.679
67336W        W28999  36.415  42.404   0.876
67337W        W29000  39.008   3.272  12.366
67338W        W29001  37.460   4.850   2.724
67339W        W29002  33.003  38.997   1.214
67340W        W29003  28.548  18.218  13.425
67341W        W29004  39.841   3.865   4.308
67342W        W29005  27.539  16.736   1.842
67343W        W29006  30.154  15.675  10.574
67344W        W29007   3.235  34.095  14.275
67345W        W29008  11.311   6.368   5.638
67346W        W29009  28.528  12.664   4.797
67347W        W29010   2.384  17.688   2.696
67348W        W29011   4.877   4.716  14.394
67349W        W29012   2.792  16.751   2.352
67350W        W29013  39.498  36.376   4.740
67351W        W29014  40.017  35.962   1.327
67352W        W29015  44.895   3.794   3.654
67353W        W29016  18.163  23.062   0.936
67354W        W29017  17.722   2.920  14.867
67355W        W29018  36.911  22.197   2.339
67356W        W29019  12.204  44.286  11.390
67357W        W29020  11.648   5.805   1.294
67358W        W29021   0.906   7.841  11.125
67359W        W29022  14.794  10.673   1.819
67360W        W29023  38.947  10.786   0.795
67361W        W29024   0.475  17.252  12.499
67362W        W29025   8.723  39.330  13.902
67363W        W29026  22.616  17.284  10.937
67364W        W29027  41.508   0.275   2.673
67365W        W29028  18.753  43.417  12.563
67366W        W29029  27.567   4.751   1.874
67367W        W29030  20.737  17.185   1.313
67368W        W29031   6.898  31.614   4.236
67369W        W29032   0.333  36.909   4.677
67370W        W29033  14.708   6.424  12.890
67371W        W29034  10.701   6.888   2.677
67372W        W29035  25.162   0.336   1.934
67373W        W29036  11.280  41.438  11.988
67374W        W29037  43.399  27.587   2.663
67375W        W29038  20.550  36.514   3.387
67376W        W29039  39.476  20.603  10.946
67377W        W29040  22.659  30.060  10.906
67378W        W29041  12.208  25.678   4.793
67379W        W29042  33.972  12.783   3.802
67380W        W29043  16.596  30.637  13.381
67381W        W29044  29.591  29.010   4.757
67382W        W29045   3.363  30.989  14.910
67383W        W29046  30.430  15.778  11.117
67384W        W29047  16.618  35.954   2.690
67385W        W29048  16.104  27.956   1.279
67386W        W29049  24.987   0.484  12.838
67387W        W29050  18.713  42.289   2.776
67388W        W29051  17.630   5.371   1.396
67389W        W29052  33.999  34.934  13.953
67390W        W29053  37.513   4.848  10.935
67391W        W29054  27.641  20.676   1.795
67392W        W29055   8.369   9.253  13.452
67393W        W29056   9.793  14.639   2.301
67394W        W29057  39.973   9.327   3.206
67395W        W29058  31.081  36.433   4.203
67396W        W29059  17.683  24.536   4.630
67397W        W29060   1.750  20.217   2.709
67398W        W29061   2.435   9.645  14.927
67399W        W29062  22.635   5.757   1.899
67400W        W29063   5.397  11.738  10.581
67401W        W29064  33.876   1.792   0.874
67402W        W29065  17.062  17.289   2.772
67403W        W29066  38.461   0.799  12.378
67404W        W29067  12.261  16.104   0.335
67405W        W29068   9.843  13.773  13.454
67406W        W29069   0.989   3.766   4.114
67407W        W29070  39.548  43.848   1.427
67408W        W29071   3.391  30.636  13.904
67409W        W29072  16.704  25.511   3.811
67410W        W29073  44.819  44.841  10.940
67411W        W29074  44.847  42.914  14.495
67412W        W29075   9.858  36.958   4.145
67413W        W29076  21.601  17.161  12.436
67414W        W29077  23.725  27.105  10.450
67415W        W29078  37.990  11.821  12.934
67416W        W29079  37.918   5.390  10.574
67417W        W29080  34.028  30.946   1.381
67418W        W29081  21.164   4.735  12.383
67419W        W29082   0.882  38.057  14.018
67420W        W29083   0.797  15.231   3.751
67421W        W29084  17.107  21.529   0.430
67422W        W29085  30.959  23.524   2.310
67423W        W29086  22.081   3.406  14.396
67424W        W29087   1.977  29.603   3.186
67425W        W29088  31.468  38.065   1.737
67426W        W29089  29.166  12.621  13.409
67427W        W29090  37.945  22.146   4.788
67428W        W29091  15.257   5.837   3.147
67429W        W29092   6.234  38.536   3.362
67430W        W29093  21.546  32.967  10.889
67431W        W29094  32.463   5.795   3.845
67432W        W29095  22.669  31.434   1.274
67433W        W29096  14.231  38.974   3.360
67434W        W29097  30.631   5.294  14.408
67435W        W29098  13.131  16.746   4.165
67436W        W29099  38.967   9.808  13.541
67437W        W29100  33.118  26.469  11.870
67438W        W29101  24.146  40.844  13.416
67439W        W29102  10.342  26.676   4.717
67440W        W29103   6.424  14.219  11.519
67441W        W29104  21.037   7.773  13.016
67442W        W29105  12.711  20.219   0.820
67443W        W29106  27.516   0.256  14.778
67444W        W29107  28.650  14.225   2.210
67445W        W29108   8.700  29.938   2.887
67446W        W29109  26.057  37.911   0.361
67447W        W29110  22.723  11.635   5.261
67448W        W29111  16.744  30.955  12.485
67449W        W29112   7.880  31.119   2.214
67450W        W29113   4.826  40.406  14.851
67451W        W29114  29.047  35.059  10.582
67452W        W29115  37.409  34.446   4.630
67453W        W29116  33.581  26.009  11.513
67454W        W29117  19.713  21.050   2.711
67455W        W29118   4.217   6.786  14.994
67456W        W29119  21.177  42.435   1.749
67457W        W29120  28.466  15.609  14.304
67458W        W29121  35.538  31.933  12.430
67459W        W29122  15.705  26.090  14.281
67460W        W29123  29.543   4.373  10.427
67461W        W29124  44.906  15.582  11.499
67462W        W29125  30.442   3.768   1.735
67463W        W29126  34.493   8.781  12.544
67464W        W29127   8.275  16.575  12.087
67465W        W29128  33.057  28.944  13.325
67466W        W29129  18.672  35.932   3.335
67467W        W29130  32.925  24.057   4.652
67468W        W29131  27.162  28.095  14.353
67469W        W29132  35.432  33.588  11.483
67470W        W29133  28.931  39.955   5.604
67471W        W29134   0.306  13.180  14.931
67472W        W29135  24.668  16.738  10.972
67473W        W29136  36.562  44.847  11.499
67474W        W29137  11.711  27.618   3.640
67475W        W29138   0.816   9.789   0.344
67476W        W29139  21.148   0.377   3.797
67477W        W29140  16.084  44.780   0.925
67478W        W29141  39.503  16.792   1.442
67479W        W29142   5.231   5.408  12.427
67480W        W29143   2.330  21.725  13.822
67481W        W29144   8.741  29.032  11.899
67482W        W29145  36.977  21.604   1.835
67483W        W29146  42.843  18.613   3.858
67484W        W29147  17.251  27.031   4.214
67485W        W29148   9.330  31.443   1.738
67486W        W29149  11.621  31.976  10.943
67487W        W29150  27.142  16.282   4.260
67488W        W29151  12.293  42.943   2.700
67489W        W29152  15.812  19.681  11.432
67490W        W29153  30.658  23.161   3.652
67491W        W29154   9.160  43.802  14.513
67492W        W29155  29.128  13.743  11.985
67493W        W29156  42.329  16.273  12.387
67494W        W29157  19.281  12.692   1.711
67495W        W29158  44.459  23.172   1.269
67496W        W29159  18.750  39.057  12.857
67497W        W29160  18.557   8.769   3.165
67498W        W29161   8.371  24.090  12.367
67499W        W29162  31.578  32.084  11.948
67500W        W29163   6.427  24.034   0.856
67501W        W29164  43.860  21.519  13.434
67502W        W29165  41.883  20.266   0.878
67503W        W29166   3.952  32.484  13.930
67504W        W29167  35.934  42.849   4.697
67505W        W29168  32.604   3.275  13.006
67506W        W29169  21.025   2.324  10.143
67507W        W29170   3.215  28.528  12.927
67508W        W29171  25.113  11.153  12.502
67509W        W29172  28.553  15.747  13.399
67510W        W29173   2.416  20.149   2.282
67511W        W29174  10.736   0.257  12.002
67512W        W29175  23.080   3.421   2.310
67513W        W29176   8.823  36.018  10.415
67514W        W29177  25.702  13.711   0.334
67515W        W29178  36.043  17.768   4.346
67516W        W29179  20.527  39.983   2.291
67517W        W29180  31.628  34.485   2.249
67518W        W29181  43.414  30.644   1.908
67519W        W29182  21.580  20.234  11.127
67520W        W29183   4.717  24.033   4.644
67521W        W29184  19.618  23.050  14.500
67522W        W29185  40.885   7.723   1.386
67523W        W29186  20.552  43.834   3.870
67524W        W29187  41.324  17.649   4.237
67525W        W29188  34.916  31.028  11.966
67526W        W29189  29.953  24.973   4.146
67527W        W29190  22.043  28.117   2.771
67528W        W29191   5.729  30.425  10.632
67529W        W29192  22.747  25.674  13.025
67530W        W29193   0.750  30.419  12.067
67531W        W29194  41.829   4.937   3.287
67532W        W29195   8.666  10.797   5.187
67533W        W29196  10.329  44.270  11.957
67534W        W29197   7.233   4.300   4.752
67535W        W29198   8.703  43.322   4.262
67536W        W29199  18.559  17.739   4.736
67537W        W29200  31.409   1.965   2.398
67538W        W29201  31.020   6.245  13.026
67539W        W29202   5.750  27.054  10.543
67540W        W29203  16.281  19.708  12.537
67541W        W29204   6.369  10.360  12.408
67542W        W29205   5.326  21.580   3.171
67543W        W29206  24.023  17.093  10.905
67544W        W29207  21.234  32.127   1.443
67545W        W29208   2.740  20.709   4.786
67546W        W29209  41.502   8.823   5.124
67547W        W29210  40.537  15.725   2.399
67548W        W29211  18.099  24.536   4.782
67549W        W29212  12.721  12.211  12.017
67550W        W29213  18.104  12.838   2.688
67551W        W29214  28.630  10.169   3.805
67552W        W29215   2.735  28.959  14.292
67553W        W29216  19.121  21.685   2.729
67554W        W29217  38.469  39.349   4.145
67555W        W29218  24.038  20.730  14.758
67556W        W29219  24.225   0.364   1.333
67557W        W29220   9.235  38.517   3.268
67558W        W29221  40.332  35.473  11.981
67559W        W29222  15.103   0.258  13.823
67560W        W29223   5.197  41.892   2.354
67561W        W29224  34.088  25.126   0.955
67562W        W29225  27.003  35.515  10.962
67563W        W29226  22.673  20.645  13.530
67564W        W29227   5.285   1.945  14.846
67565W        W29228  20.746  19.173  10.435
67566W        W29229  38.329  31.021  10.595
67567W        W29230   6.731  22.080   1.914
67568W        W29231  12.811  39.529   0.390
67569W        W29232  42.975  32.609   2.303
67570W        W29233  41.496  36.050   3.378
67571W        W29234  13.283  26.169  10.587
67572W        W29235  24.594  14.159   2.250
67573W        W29236  30.983   1.358  11.524
67574W        W29237  25.004   7.298   4.299
67575W        W29238  11.370   2.842  10.442
67576W        W29239   4.927  12.303  12.942
67577W        W29240  38.982  17.072   4.622
67578W        W29241  33.416  31.084  11.553
67579W        W29242  39.014  25.044  12.397
67580W        W29243  31.016  36.890  14.430
67581W        W29244   7.345  30.011  11.462
67582W        W29245  31.544  43.459   2.734
67583W        W29246  39.066  27.447   1.344
67584W        W29247  43.474  32.974  13.021
67585W        W29248  23.997  22.253   3.365
67586W        W29249  12.646   8.224   2.664
67587W        W29250  18.136  33.465  14.861
67588W        W29251  43.982   8.735   3.200
67589W        W29252  35.449  11.340  12.572
67590W        W29253  17.072  12.692   0.267
67591W        W29254  44.467  27.465  13.499
67592W        W29255  15.215  11.863   3.795
67593W        W29256   8.284  35.602   1.288
67594W        W29257  44.403  26.581   4.211
67595W        W29258  27.120   3.312  12.417
67596W        W29259  27.469  33.097   0.453
67597W        W29260   6.331  19.058   2.340
67598W        W29261  33.960  22.165   2.675
67599W        W29262  34.457  20.107   1.818
67600W        W29263  31.082  12.339  10.521
67601W        W29264  26.980   9.655   0.874
67602W        W29265  25.615  39.941  12.439
67603W        W29266  42.342  41.373   3.146
67604W        W29267   2.897  22.172  14.936
67605W        W29268  10.728   6.811   5.727
67606W        W29269  24.601   2.261   1.219
67607W        W29270  41.903  30.957  14.021
67608W        W29271  15.198  24.176  13.370
67609W        W29272   6.681   4.413  11.409
67610W        W29273   0.973   3.718   0.791
67611W        W29274  29.037  23.213   0.946
67612W        W29275  41.325  37.036  10.433
67613W        W29276  29.512   1.894   4.320
67614W        W29277  14.650  44.007   1.911
67615W        W29278  25.491  11.190   4.710
67616W        W29279  22.680  40.368   2.374
67617W        W29280   2.425   8.883  13.893
67618W        W29281  36.040   7.741  13.952
67619W        W29282  21.019  39.486   4.703
67620W        W29283  34.474  10.149  14.492
67621W        W29284  30.132  25.608  14.328
67622W        W29285  13.162  23.072  13.915
67623W        W29286   3.281  34.369   1.843
67624W        W29287  43.514  21.081   0.305
67625W        W29288  28.009  42.345  13.473
67626W        W29289  11.698  41.830  13.390
67627W        W29290  30.122  26.055   4.630
67628W        W29291   6.347  11.170   0.411
67629W        W29292  17.096  20.564  14.808
67630W        W29293  11.856  14.705   0.783
67631W        W29294   4.396  30.127  13.466
67632W        W29295  42.336  23.594  10.429
67633W        W29296  21.617  33.072  13.454
67634W        W29297  35.009  24.569  11.437
67635W        W29298   7.698  22.730   4.205
67636W        W29299  23.028  26.128   3.217
67637W        W29300  34.979  17.570   4.262
67638W        W29301  23.236  37.002   0.259
67639W        W29302   7.729  30.440  10.935
67640W        W29303   1.786  15.697   4.700
67641W        W29304  32.138   0.265  10.907
67642W        W29305  11.129  33.489  13.423
67643W        W29306  30.093  39.436   1.408
67644W        W29307   9.323   1.245  13.369
67645W        W29308  30.491   2.324  11.393
67646W        W29309  15.304  18.592  10.894
67647W        W29310  34.037  18.715   0.893
67648W        W29311  43.300  30.993   4.233
67649W        W29312  23.211  34.949  12.070
67650W        W29313  25.470  25.521   1.362
67651W        W29314  41.875  32.949   3.744
67652W        W29315  33.579   0.321   2.765
67653W        W29316  25.166  36.921   2.300
67654W        W29317  34.899   0.926  13.886
67655W        W29318  25.979   4.874  14.010
67656W        W29319  30.456   4.387  12.828
67657W        W29320  36.090  22.661   1.729
67658W        W29321  33.019   1.289   0.260
67659W        W29322  17.238   1.253   4.658
67660W        W29323  24.056  24.978   2.781
67661W        W29324  21.067  17.237   1.217
67662W        W29325   5.363  26.520   3.819
67663W        W29326  41.365  20.563   3.305
67664W        W29327   1.303  17.264  12.903
67665W        W29328  24.107   4.773   0.813
67666W        W29329  21.252  29.543   3.869
67667W        W29330  17.109  12.361   3.345
67668W        W29331   2.783  20.667   1.842
67669W        W29332  41.960   9.850   3.761
67670W        W29333  30.593  14.238   5.206
67671W        W29334  16.728  42.316  10.912
67672W        W29335  30.622  25.598  13.055
67673W        W29336  21.146  10.263   2.682
67674W        W29337  28.942  31.427  10.569
67675W        W29338  30.503  36.853  10.545
67676W        W29339  35.062  32.113  14.405
67677W        W29340  30.032  37.399  11.424
67678W        W29341  33.970  22.007  14.994
67679W        W29342  26.967  12.131  11.083
67680W        W29343  35.365  17.200  10.453
67681W        W29344  21.113  30.160  10.583
67682W        W29345  37.572  33.015  13.456
67683W        W29346  24.107  28.467  14.798
67684W        W29347  43.863  34.973   3.779
67685W        W29348  28.153  12.304   3.215
67686W        W29349  43.004   9.229  10.087
67687W        W29350  37.458  31.102  11.929
67688W        W29351  16.602  26.003  11.106
67689W        W29352   5.210  32.476  11.966
67690W        W29353  13.820   5.749  13.991
67691W        W29354  19.629  29.015  14.485
67692W        W29355  30.510  42.883  10.628
67693W        W29356  32.993  31.136  10.629
67694W        W29357   7.710  22.537  11.458
67695W        W29358  32.918  19.645   3.322
67696W        W29359   3.376  35.546   0.292
67697W        W29360   4.723  16.624   1.857
67698W        W29361  35.481   9.844   3.716
67699W        W29362  18.173   9.182  10.923
67700W        W29363   1.353  38.408  11.500
67701W        W29364  38.335  14.336  13.515
67702W        W29365  13.828  40.535  14.403
67703W        W29366  30.033  24.100   1.427
67704W        W29367  33.425   6.704   3.330
67705W        W29368   3.258  34.033  12.887
67706W        W29369  19.092  35.872  10.465
67707W        W29370  40.548  18.069   1.309
67708W        W29371  25.552  33.948   3.811
67709W        W29372  25.991  31.532  14.283
67710W        W29373  36.035  35.866   4.246
67711W        W29374   8.252  27.058   2.871
67712W        W29375  32.600  11.357   0.473
67713W        W29376  21.105  37.982   1.294
67714W        W29377  37.066  33.026  12.412
67715W        W29378  43.387  11.809  12.048
67716W        W29379  28.061  14.694   2.200
67717W        W29380   7.185  30.053   0.919
67718W        W29381  21.078   8.840  14.361
67719W        W29382  39.458  23.211   3.374
67720W        W29383  34.040  36.874  12.007
67721W        W29384  12.684  15.815  10.605
67722W        W29385  36.981  24.979  13.921
67723W        W29386  44.978  18.231  12.029
67724W        W29387  35.479  10.779  11.919
67725W        W29388  35.091  28.590  12.456
67726W        W29389  33.955  32.130   1.232
67727W        W29390  24.003  23.032  14.782
67728W        W29391  25.659  38.863   5.723
67729W        W29392  29.518  42.987  12.554
67730W        W29393  24.184   1.904   5.293
67731W        W29394  30.908  27.608   3.360
67732W        W29395  22.109  41.425  12.915
67733W        W29396  22.522  31.489   2.201
67734W        W29397  41.805  41.501  11.424
67735W        W29398  21.224  43.950   2.200
67736W        W29399  41.978   2.797   4.802
67737W        W29400   6.916  12.121  13.340
67738W        W29401  13.230   4.870  11.394
67739W        W29402   8.894   2.242  14.966
67740W        W29403  16.573  37.065  12.986
67741W        W29404  33.448  35.512  13.822
67742W        W29405  24.103  22.213   1.819
67743W        W29406  31.152  26.120  11.595
67744W        W29407  37.337  29.594   4.205
67745W        W29408  25.199  26.139   1.424
67746W        W29409  29.670   9.858   2.259
67747W        W29410  20.090  44.005  13.966
67748W        W29411  18.710  25.131  13.010
67749W        W29412  26.981  18.228   4.714
67750W        W29413   5.729  32.448  11.046
67751W        W29414   5.739  12.626   2.751
67752W        W29415  21.560   4.942  14.978
67753W        W29416  21.187  22.091   3.762
67754W        W29417   4.815  25.148  14.979
67755W        W29418  33.556  40.831  10.630
67756W        W29419   2.441  32.420  12.345
67757W        W29420   8.863  24.670   1.267
67758W        W29421   0.948  44.886  10.986
67759W        W29422  31.906   4.297  13.834
67760W        W29423  37.481  20.743  13.035
67761W        W29424  34.458  10.224   3.367
67762W        W29425  41.332  38.413   1.441
67763W        W29426  38.008   6.355  10.442
67764W        W29427  23.007  44.489  10.639
67765W        W29428  35.100  22.695  14.887
67766W        W29429  37.461  38.421   0.840
67767W        W29430  15.740  36.899  14.966
67768W        W29431   0.407  33.595  10.889
67769W        W29432  17.788  33.410   4.798
67770W        W29433  33.058  18.172   2.419
67771W        W29434  23.228   8.403  11.489
67772W        W29435  11.321  17.293   4.721
67773W        W29436  32.906  25.523   3.174
67774W        W29437  34.535  16.184  13.901
67775W        W29438  25.042  38.837   0.480
67776W        W29439  21.523  10.244   3.247
67777W        W29440  36.427  22.724  14.808
67778W        W29441  12.296  40.011  11.601
67779W        W29442  27.168  21.063  14.431
67780W        W29443  41.891  38.868   4.216
67781W        W29444   2.840  28.995  14.760
67782W        W29445  31.047  15.276  10.625
67783W        W29446  20.218  18.149   1.229
67784W        W29447  21.203  19.255   3.837
67785W        W29448  25.105  29.084  13.348
67786W        W29449  18.695  42.879   5.227
67787W        W29450  12.143  12.747   0.793
67788W        W29451  25.538  37.930  12.385
67789W        W29452  37.993  18.791  13.968
67790W        W29453   4.926  18.564   0.309
67791W        W29454  14.255  20.085   2.705
67792W        W29455  17.269  25.211   3.184
67793W        W29456  16.247  16.704  12.029
67794W        W29457   1.778  33.487  11.080
67795W        W29458  17.266  33.402   5.307
67796W        W29459   7.413   4.754   3.238
67797W        W29460  37.043   2.951  12.462
67798W        W29461  13.664  12.244   1.229
67799W        W29462  22.101  43.990   1.352
67800W        W29463  38.929  11.659   1.716
67801W        W29464  35.016  33.120  13.437
67802W        W29465  26.697  14.753   3.783
67803W        W29466  32.927  24.017   3.194
67804W        W29467  16.145  17.285   2.284
67805W        W29468   4.729  27.534  14.820
67806W        W29469  25.989   4.341  10.547
67807W        W29470   2.234  28.481  10.424
67808W        W29471  30.532  22.233   0.931
67809W        W29472  30.509  13.330  12.577
67810W        W29473  27.132  21.714  13.412
67811W        W29474  27.688   3.388  14.880
67812W        W29475   9.166   4.726   2.776
67813W        W29476   6.730  37.984   1.906
67814W        W29477  37.851  32.589  12.860
67815W        W29478  30.951  18.094   5.153
67816W        W29479   8.199  38.571  10.914
67817W        W29480   8.736   7.371   2.371
67818W        W29481  31.041   3.786  13.357
67819W        W29482   5.291  20.603   3.292
67820W        W29483  29.487  29.068   2.276
67821W        W29484  41.937   9.795  13.346
67822W        W29485   6.325  24.722   3.219
67823W        W29486  36.440  29.615  14.929
67824W        W29487  12.623  42.366  13.040
67825W        W29488  24.140  41.508   2.802
67826W        W29489  16.205  10.741  12.473
67827W        W29490  31.938   5.323   1.404
67828W        W29491  27.992  20.735  12.360
67829W        W29492   5.214   8.655   2.742
67830W        W29493   7.729   7.331   3.775
67831W        W29494  43.359  41.328  10.472
67832W        W29495  41.855  34.079  14.372
67833W        W29496  39.502  42.336   1.877
67834W        W29497  21.569  20.061   3.781
67835W        W29498   6.738  22.252  11.574
67836W        W29499   6.408  13.291  14.413
67837W        W29500  20.542   8.173  14.419
67838W        W29501  25.673  38.433  13.035
67839W        W29502  30.952  26.518  11.968
67840W        W29503  26.205  13.347   3.298
67841W        W29504  22.029  44.876   3.659
67842W        W29505  24.583  18.700   0.925
67843W        W29506  22.195   7.248  14.277
67844W        W29507  31.930  20.690   1.786
67845W        W29508  40.845  39.885  14.387
67846W        W29509  37.002  24.210  11.455
67847W        W29510   7.192   1.338  12.345
67848W        W29511  38.438  44.385  14.923
67849W        W29512   5.336  43.327   1.880
67850W        W29513   0.785  32.021  14.987
67851W        W29514  29.624  11.190  11.037
67852W        W29515  33.083  27.450   0.847
67853W        W29516  21.252  20.268  10.499
67854W        W29517  20.033  13.778  11.604
67855W        W29518  11.359  22.719   3.641
67856W        W29519   8.265   5.718  14.013
67857W        W29520  17.196  14.612  12.935
67858W        W29521  32.469   0.906   1.297
67859W        W29522  18.732  17.191  10.405
67860W        W29523   9.315  13.144   4.659
67861W        W29524   9.792  41.880  12.864
67862W        W29525  24.693   4.819   4.223
67863W        W29526   6.229  39.455  13.409
67864W        W29527  37.085   5.294  14.328
67865W        W29528  25.692  28.957  11.129
67866W        W29529  11.679  38.331  13.836
67867W        W29530  29.516  31.510  10.505
67868W        W29531  35.576  15.681   1.261
67869W        W29532  36.858  17.200  11.974
67870W        W29533   6.747  38.885   2.415
67871W        W29534  38.970  40.895   5.126
67872W        W29535  19.169  15.172   1.757
67873W        W29536  10.322  29.578  14.008
67874W        W29537  24.060  35.546   4.124
67875W        W29538   8.172  38.431   1.781
67876W        W29539  27.677  27.541  14.949
67877W        W29540  42.838  14.796   2.882
67878W        W29541  31.528  30.164  11.395
67879W        W29542  32.438  34.425   2.857
67880W        W29543  28.101  42.410  12.034
67881W        W29544  11.311  39.983  13.386
67882W        W29545  13.329  19.559   3.833
67883W        W29546  12.642  13.321  14.781
67884W        W29547  10.221  40.826   2.297
67885W        W29548  41.919  35.565  14.814
67886W        W29549  30.502  31.925  14.299
67887W        W29550  33.072  23.552   0.920
67888W        W29551  35.532  28.997  14.872
67889W        W29552  30.639  10.180   3.649
67890W        W29553  12.204  23.534  13.038
67891W        W29554  26.091  24.018   1.219
67892W        W29555  23.635  19.205   4.655
67893W        W29556  37.450  18.165   2.891
67894W        W29557   0.271  39.501   2.327
67895W        W29558   1.241   1.745  12.357
67896W        W29559  33.579  15.757   4.337
67897W        W29560  13.190   4.918  12.480
67898W        W29561   4.245  22.570   4.333
67899W        W29562   4.850  23.107   1.875
67900W        W29563  25.553  11.846   0.375
67901W        W29564   9.689  10.636   9.440
67902W        W29565  42.322  17.621  13.055
67903W        W29566  40.908   3.270  11.471
67904W        W29567  17.768  29.433   3.665
67905W        W29568  29.612  32.473   1.330
67906W        W29569  24.070  34.590  11.055
67907W        W29570  42.903   9.826   0.961
67908W        W29571  19.650   9.826   4.832
67909W        W29572  11.745   4.942  13.393
67910W        W29573   8.375  28.465   3.275
67911W        W29574   6.864  13.835   2.288
67912W        W29575   0.983   4.249   4.279
67913W        W29576  33.471   7.325  13.312
67914W        W29577  24.634  15.659  14.446
67915W        W29578  31.596  34.532   1.383
67916W        W29579  18.151  22.514  12.877
67917W        W29580  15.324  25.590   0.257
67918W        W29581  15.605  16.095  12.932
67919W        W29582   3.838  43.427  12.024
67920W        W29583  13.127  39.493  12.862
67921W        W29584   1.253  26.002  12.407
67922W        W29585  25.608  38.386  14.326
67923W        W29586  35.905  13.152  13.362
67924W        W29587   5.781  20.555   3.292
67925W        W29588  31.020  11.328  11.592
67926W        W29589   2.355   1.354   4.752
67927W        W29590  31.098   4.438   0.747
67928W        W29591  16.297  41.979   2.238
67929W        W29592  17.749  42.822   1.248
67930W        W29593  18.186  42.415  12.497
67931W        W29594  43.289  10.272  14.925
67932W        W29595   8.389  20.725  13.400
67933W        W29596  31.002   7.810   1.320
67934W        W29597  12.683  38.072  14.286
67935W        W29598  35.531  28.131  13.509
67936W        W29599  34.952  11.832   1.918
67937W        W29600  34.557  36.465   4.225
67938W        W29601  27.664  15.593  12.562
67939W        W29602  19.757  20.611   2.217
67940W        W29603  44.999  33.383   0.937
67941W        W29604  20.545  23.235   2.787
67942W        W29605   7.875   7.864   2.851
67943W        W29606  36.020  21.536   4.611
67944W        W29607  36.918  37.869  12.958
67945W        W29608  38.518  31.031   3.166
67946W        W29609  23.102  34.529   2.723
67947W        W29610  40.328  28.606  12.429
67948W        W29611   2.722  36.044   0.477
67949W        W29612   6.805  28.681  12.854
67950W        W29613  40.368  23.990  12.572
67951W        W29614  40.939  32.952  12.025
67952W        W29615  25.111  22.244  11.013
67953W        W29616  36.022   9.172  10.497
67954W        W29617  38.969  33.625  10.496
67955W        W29618  41.824  17.205   5.174
67956W        W29619   5.807  25.515   4.651
67957W        W29620   7.770  13.226  13.819
67958W        W29621  37.387  40.542   1.884
67959W        W29622  11.720  17.793   0.788
67960W        W29623  38.949  19.606  14.850
67961W        W29624   1.732  16.749  14.764
67962W        W29625  20.539  42.925   4.336
67963W        W29626  10.778  31.047  11.556
67964W        W29627  37.991  43.881  10.444
67965W        W29628  32.484  26.636  11.908
67966W        W29629  25.560  18.238  11.964
67967W        W29630  10.735   1.460  10.995
67968W        W29631  44.971  19.087  11.498
67969W        W29632   2.355  11.204  12.486
67970W        W29633  22.617  18.177  13.898
67971W        W29634  20.535  11.839  11.039
67972W        W29635  24.149  29.523  10.641
67973W        W29636  28.125  30.579   3.147
67974W        W29637   2.287  14.262  13.935
67975W        W29638  39.923  28.541   3.684
67976W        W29639   1.314   9.781  12.410
67977W        W29640   7.704  41.332   1.319
67978W        W29641  22.190  26.017  11.583
67979W        W29642  22.060  42.918  12.001
67980W        W29643  19.280  22.242  14.910
67981W        W29644   3.234  23.113   3.206
67982W        W29645   9.357  23.153  12.413
67983W        W29646   6.803  32.599  10.621
67984W        W29647  34.369  10.821  12.348
67985W        W29648  37.920  35.891   2.261
67986W        W29649  29.487  37.469  12.823
67987W        W29650  36.585  36.977   1.740
67988W        W29651   5.275  26.563  14.449
67989W        W29652  43.339   4.300   3.202
67990W        W29653   3.346  21.095   4.308
67991W        W29654   2.926  15.711  12.384
67992W        W29655  19.050   0.254  11.494
67993W        W29656   5.770  29.069   2.380
67994W        W29657  12.308  26.686  13.030
67995W        W29658   5.282  30.460  11.864
67996W        W29659  12.627   4.891   2.681
67997W        W29660   3.900  10.870  11.054
67998W        W29661  25.522  43.381  11.471
67999W        W29662  41.464   9.185  13.852
68000W        W29663  22.560  21.151  10.004
68001W        W29664  39.390  27.584  12.564
68002W        W29665  27.007  19.209  11.441
68003W        W29666  28.490  15.256   3.766
68004W        W29667  41.395  29.546   1.435
68005W        W29668  27.535  23.497  10.119
68006W        W29669  27.016  23.706  13.467
68007W        W29670   3.940  19.700   3.180
68008W        W29671  25.980   6.781   2.347
68009W        W29672   8.678  10.789   1.288
68010W        W29673  28.586  10.801  14.943
68011W        W29674   9.292   6.692  10.443
68012W        W29675  44.828  39.341  13.857
68013W        W29676   5.437  21.659  14.296
68014W        W29677  26.123  19.196  11.402
68015W        W29678   3.383  15.309   0.371
68016W        W29679  27.687  28.481   1.744
68017W        W29680   3.359  17.239   4.299
68018W        W29681   1.827   8.876   2.359
68019W        W29682  13.611  35.431   2.232
68020W        W29683  27.178  36.537  12.523
68021W        W29684  14.115  12.281   1.347
68022W        W29685  26.035  27.138  11.123
68023W        W29686  33.389  35.913  12.835
68024W        W29687  17.605  15.264   0.455
68025W        W29688  44.346  15.633  10.991
68026W        W29689  37.936  35.546   3.669
68027W        W29690  37.834  31.507  14.474
68028W        W29691  38.395  19.605  12.872
68029W        W29692   3.355  25.048  13.972
68030W        W29693  39.008  31.081   2.723
68031W        W29694  19.582  21.676   1.324
68032W        W29695  21.191  25.982   1.861
68033W        W29696  30.581  25.184   4.779
68034W        W29697  12.816  38.850   4.277
68035W        W29698   7.215  17.723   2.413
68036W        W29699   1.743  21.115  14.998
68037W        W29700   6.904  25.576   1.241
68038W        W29701   5.769   3.779   4.628
68039W        W29702  28.669  22.742  14.985
68040W        W29703  33.494  13.282   0.300
68041W        W29704  31.643   9.208  13.981
68042W        W29705   3.777   1.258  13.849
68043W        W29706  19.762  16.642   2.814
68044W        W29707  19.753   2.244   9.441
68045W        W29708  36.497  43.899  11.009
68046W        W29709  38.966  39.054  13.392
68047W        W29710  44.434  28.053   3.161
68048W        W29711  24.195  34.876  14.797
68049W        W29712  29.442  26.104   2.401
68050W        W29713  14.751  28.585   3.773
68051W        W29714   3.893  17.786   4.613
68052W        W29715  41.967  38.962  12.558
68053W        W29716  44.956  11.689   4.727
68054W        W29717  19.582  14.186   9.517
68055W        W29718  37.366  31.969  13.502
68056W        W29719  14.224  26.033  13.539
68057W        W29720  31.915  22.528  14.902
68058W        W29721   4.918  20.726  12.352
68059W        W29722  26.619  13.141   3.845
68060W        W29723  16.762  39.048   0.350
68061W        W29724  34.419  28.515  14.997
68062W        W29725  10.864  12.823   0.389
68063W        W29726  22.704  19.171   2.706
68064W        W29727  30.482  22.736  13.532
68065W        W29728  40.480  38.934   0.408
68066W        W29729  30.598   7.900  12.524
68067W        W29730  40.341  21.042  14.799
68068W        W29731  21.119  42.316   0.293
68069W        W29732  21.690  17.617  13.510
68070W        W29733  24.630  36.390  12.040
68071W        W29734  25.134  37.456   3.313
68072W        W29735  25.484  20.633   4.335
68073W        W29736   2.290  22.632  10.157
68074W        W29737   4.799  17.583   4.709
68075W        W29738   2.322   7.324   3.643
68076W        W29739   4.272  21.174   3.342
68077W        W29740  42.807  38.378   1.781
68078W        W29741  36.490  13.289  14.006
68079W        W29742  43.820  22.608   2.411
68080W        W29743   7.700  31.548  13.405
68081W        W29744  31.578  25.017   2.244
68082W        W29745   7.318  23.698  11.372
68083W        W29746  19.655  30.026   0.736
68084W        W29747  21.758   4.935  13.546
68085W        W29748  17.307   2.312  11.526
68086W        W29749  23.146  26.656  12.508
68087W        W29750  42.458  40.462   4.270
68088W        W29751  36.482   3.803   3.328
68089W        W29752  40.497  15.186  14.491
68090W        W29753  42.849   3.222  10.538
68091W        W29754  30.002  20.632   3.800
68092W        W29755  22.591   4.872  12.498
68093W        W29756  24.078  23.993  14.972
68094W        W29757  23.618  31.404   3.722
68095W        W29758  36.524   3.713  12.909
68096W        W29759  44.836   5.205   0.303
68097W        W29760   7.893  12.819  11.041
68098W        W29761  32.003  19.563  13.852
68099W        W29762  12.689   8.188   2.350
68100W        W29763  13.753  22.216  12.574
68101W        W29764  11.636  40.388  10.976
68102W        W29765  27.082  32.532   4.618
68103W        W29766  18.731  17.287   4.281
68104W        W29767  14.176  15.326  14.334
68105W        W29768  29.470  42.969   0.837
68106W        W29769  10.141  18.657  10.143
68107W        W29770  29.031  30.468   2.195
68108W        W29771  24.069  27.950  13.043
68109W        W29772  35.589  17.557  11.592
68110W        W29773  13.171  11.348   1.364
68111W        W29774  38.472   1.909  11.494
68112W        W29775  13.716   7.816   2.249
68113W        W29776  43.329  40.024   3.269
68114W        W29777  42.877   5.708   3.740
68115W        W29778  13.137  22.706   3.803
68116W        W29779  19.105  31.624  14.498
68117W        W29780  10.678   5.366   0.752
68118W        W29781  36.496  40.405  11.061
68119W        W29782  13.682  43.444   4.321
68120W        W29783  33.059  38.880   3.858
68121W        W29784  22.717   3.948  13.964
68122W        W29785   8.789  26.062  11.383
68123W        W29786  41.367  42.333   2.897
68124W        W29787   8.760  18.278  13.845
68125W        W29788  30.153   0.353  14.340
68126W        W29789  16.121  29.578  12.992
68127W        W29790  20.703   8.327   1.924
68128W        W29791  31.117  41.498   0.467
68129W        W29792   6.922   3.755  14.865
68130W        W29793   1.736  28.975  14.804
68131W        W29794  24.055  33.396   0.357
68132W        W29795  32.533  19.165   9.590
68133W        W29796  18.112  40.042  10.618
68134W        W29797   3.721  13.701  12.538
68135W        W29798   6.791  19.678   0.242
68136W        W29799   9.154  20.558   0.456
68137W        W29800  44.938  24.082   1.215
68138W        W29801  33.417  37.354   3.303
68139W        W29802  10.702  29.068   1.344
68140W        W29803  15.257  19.690  13.791
68141W        W29804  30.552   7.284  13.521
68142W        W29805  38.010  42.816   4.609
68143W        W29806   1.430   8.884  12.432
68144W        W29807  17.209  24.027   4.252
68145W        W29808  31.514  31.636  12.378
68146W        W29809  16.300  12.720   1.822
68147W        W29810  24.988  27.602  12.881
68148W        W29811  35.080  29.107   4.290
68149W        W29812  26.468   6.921   3.153
68150W        W29813  42.345  23.002   0.905
68151W        W29814  18.212   1.412  12.088
68152W        W29815  20.040  42.899   0.253
68153W        W29816  30.651  12.661   0.960
68154W        W29817  35.483  37.505   0.346
68155W        W29818  18.747   9.714   3.270
68156W        W29819  42.414   7.221  13.327
68157W        W29820  27.012   6.309   0.264
68158W        W29821  15.770  22.512   3.179
68159W        W29822   9.650  10.304   2.675
68160W        W29823  14.110   7.386   0.909
68161W        W29824  26.131  40.873   0.472
68162W        W29825  11.674  41.028   2.723
68163W        W29826  15.649  12.288  14.888
68164W        W29827  26.497  25.013  12.574
68165W        W29828  24.174  13.164   3.236
68166W        W29829  19.743  38.888  10.037
68167W        W29830  43.944  44.874   3.347
68168W        W29831  41.340  33.900   4.697
68169W        W29832   7.853   2.936   2.838
68170W        W29833  24.025  26.492  10.042
68171W        W29834   0.403  24.977  12.973
68172W        W29835   9.878  40.955   3.204
68173W        W29836   5.358  34.386  11.984
68174W        W29837  41.862  36.011   0.298
68175W        W29838  12.617  34.006  11.459
68176W        W29839  16.112   1.314  11.442
68177W        W29840  30.646  18.693  12.830
68178W        W29841   7.316   6.846   2.866
68179W        W29842  11.782  13.664  13.064
68180W        W29843  25.698   8.900  12.358
68181W        W29844  42.414  39.521   3.175
68182W        W29845   2.960  22.600   1.789
68183W        W29846  32.501  42.883   1.878
68184W        W29847   7.335  34.395  10.487
68185W        W29848   2.283  22.139   2.730
68186W        W29849  24.576  21.153  12.860
68187W        W29850  24.587   0.820  13.861
68188W        W29851   0.925   4.885   1.373
68189W        W29852   4.823  36.423   4.604
68190W        W29853  36.896   4.712  13.949
68191W        W29854   6.845  37.087   3.838
68192W        W29855   3.305  30.046  14.004
68193W        W29856  39.927  31.468   0.881
68194W        W29857  14.220  10.384  12.011
68195W        W29858  17.250  39.413   1.347
68196W        W29859  43.311  38.959   4.158
68197W        W29860  32.496  40.906  12.945
68198W        W29861  17.595   2.921   0.790
68199W        W29862  44.915  35.002   3.634
68200W        W29863  25.540   8.722  11.541
68201W        W29864  44.986   6.286  11.056
68202W        W29865  10.834  15.169   4.307
68203W        W29866  37.421  40.451   1.447
68204W        W29867  29.459  23.559   1.896
68205W        W29868   7.374   8.741  11.019
68206W        W29869  18.227  17.247   3.328
68207W        W29870  20.043  24.025   2.838
68208W        W29871  10.679  12.653  11.520
68209W        W29872  33.879   4.276  14.360
68210W        W29873  13.625  12.228  10.552
68211W        W29874  16.212  36.893  11.989
68212W        W29875  16.749  42.939   4.243
68213W        W29876  34.992  38.433   2.718
68214W        W29877  15.258   4.400  13.959
68215W        W29878  19.077  19.204   1.848
68216W        W29879   4.932  10.333   2.398
68217W        W29880  44.299  26.129   4.685
68218W        W29881  29.920  10.209  10.436
68219W        W29882  15.579  31.104  14.796
68220W        W29883  15.681  18.680   0.958
68221W        W29884  10.169   5.840   3.385
68222W        W29885  44.828  20.758  12.477
68223W        W29886  41.294  37.539  10.957
68224W        W29887  41.861  41.792  12.825
68225W        W29888  33.571  42.776  12.878
68226W        W29889   2.367  31.631  11.884
68227W        W29890  43.475  42.477   4.832
68228W        W29891  19.258  25.700  11.126
68229W        W29892  25.147  44.953   2.800
68230W        W29893  21.734  39.968  12.824
68231W        W29894  31.071  25.533   2.362
68232W        W29895  28.648  37.388   0.442
68233W        W29896   9.272  12.667  12.014
68234W        W29897   9.764  10.275  11.060
68235W        W29898   2.296  37.060   1.357
68236W        W29899   1.810  43.465   1.757
68237W        W29900  10.211  36.893  11.955
68238W        W29901  21.210  19.588   3.643
68239W        W29902  29.142  11.674   3.273
68240W        W29903  28.600   9.238  14.335
68241W        W29904   3.401  11.728   3.643
68242W        W29905  10.315  11.817   0.748
68243W        W29906  15.643  28.179  13.369
68244W        W29907  31.052  39.436   4.337
68245W        W29908  16.724  41.518  14.022
68246W        W29909  18.055  42.295  10.566
68247W        W29910  38.029  34.418   2.747
68248W        W29911  35.468  42.329   4.633
68249W        W29912  36.056  21.562  14.450
68250W        W29913  43.813  23.188   0.337
68251W        W29914  13.108   2.916  12.971
68252W        W29915  42.300  42.311  11.513
68253W        W29916  22.666  20.587   2.251
68254W        W29917  18.095  21.235  10.555
68255W        W29918  13.781  37.927   9.624
68256W        W29919  14.281  27.472  10.142
68257W        W29920  11.735  43.366   1.276
68258W        W29921   2.728  40.001  12.073
68259W        W29922  11.840  39.336   2.780
68260W        W29923   0.820  36.059  13.940
68261W        W29924   5.851  18.727  11.405
68262W        W29925  39.835  14.241  13.015
68263W        W29926  23.604  27.123  11.022
68264W        W29927  30.965  33.084   0.459
68265W        W29928  40.406  23.733  13.873
68266W        W29929  43.270  40.005   0.321
68267W        W29930  38.948  28.436   4.163
68268W        W29931  32.077   9.797   1.789
68269W        W29932   0.461  30.128   4.686
68270W        W29933  11.834   9.185   5.148
68271W        W29934  15.164  38.399   5.787
68272W        W29935  39.333  41.526   2.890
68273W        W29936  34.038  42.986  14.326
68274W        W29937  27.691   7.688  12.889
68275W        W29938   0.330   6.316   2.189
68276W        W29939  10.806  30.555  14.359
68277W        W29940  32.116   5.839   3.162
68278W        W29941  13.819  31.488   1.241
68279W        W29942   2.358  21.632   2.181
68280W        W29943  43.851   0.311   1.282
68281W        W29944  19.639  41.455  13.042
68282W        W29945   6.256  34.388  10.986
68283W        W29946  40.930  19.675   3.226
68284W        W29947   2.383  40.485   4.289
68285W        W29948   4.314  43.777  13.041
68286W        W29949  42.444   2.240  11.484
68287W        W29950  37.036  14.590  13.814
68288W        W29951   2.873  37.925  12.911
68289W        W29952  27.556  29.155   4.315
68290W        W29953  16.722   0.404   2.699
68291W        W29954  20.074   4.932   4.193
68292W        W29955  33.980  43.500  13.886
68293W        W29956  39.062   2.881  11.081
68294W        W29957  41.991  13.842   0.830
68295W        W29958   4.426  14.632   2.219
68296W        W29959  21.539  42.391  13.836
68297W        W29960  28.120  31.012   4.274
68298W        W29961   2.735  44.379  13.401
68299W        W29962   3.925  37.835   4.321
68300W        W29963  40.541  31.944  12.947
68301W        W29964  23.044  39.847   2.200
68302W        W29965  18.065  37.965   2.888
68303W        W29966  24.530  28.017   3.234
68304W        W29967  40.000  43.917   3.302
68305W        W29968   2.272  19.576   4.344
68306W        W29969  37.858   9.348  14.965
68307W        W29970  25.192  28.531   3.665
68308W        W29971   8.771  15.749  14.918
68309W        W29972  12.674   7.315   0.915
68310W        W29973   0.940  32.970   3.867
68311W        W29974  43.846  41.465   3.636
68312W        W29975  42.909  23.497   1.887
68313W        W29976  38.468  20.607   4.222
68314W        W29977  37.380  40.916  11.868
68315W        W29978  21.062  43.998  13.878
68316W        W29979   6.301  38.336  10.415
68317W        W29980  18.106  12.706   2.245
68318W        W29981  25.195  23.524   3.217
68319W        W29982  17.192  12.286   1.307
68320W        W29983  31.942  43.298  13.484
68321W        W29984   6.364  39.327  11.408
68322W        W29985  43.853  32.618  13.991
68323W        W29986  29.070   0.861  10.916
68324W        W29987  15.740   5.768   1.863
68325W        W29988  36.560  18.588  11.921
68326W        W29989   9.163  30.920  12.432
68327W        W29990  28.633  31.123  13.967
68328W        W29991  10.767   3.433   3.180
68329W        W29992  17.271  43.998   3.812
68330W        W29993  24.137  22.029   2.233
68331W        W29994  39.348  23.544   4.204
68332W        W29995  27.669   4.863   3.304
68333W        W29996  35.560  23.503  12.445
68334W        W29997  22.527  32.413   1.771
68335W        W29998  20.223  25.577   3.748
68336W        W29999  20.749   7.392  11.531
68337W        W30000   3.364  43.942   2.686
68338W        W30001  16.160  40.319  12.048
68339W        W30002  35.879  23.144   3.177
68340W        W30003  15.660  10.691   2.262
68341W        W30004  43.875  16.702  11.107
68342W        W30005  36.982  29.134   0.281
68343W        W30006  17.631  16.180   1.780
68344W        W30007  12.635   3.901   4.298
68345W        W30008  30.519  34.604   3.803
68346W        W30009  23.003  12.729   4.598
68347W        W30010  18.704  27.940  12.520
68348W        W30011  35.052   2.407  11.374
68349W        W30012  44.765  41.002   4.708
68350W        W30013  32.612  19.624  13.916
68351W        W30014   7.790  18.677  14.463
68352W        W30015  35.529  18.730   1.788
68353W        W30016  25.008  31.433   3.671
68354W        W30017  44.957  17.291   4.176
68355W        W30018  22.590  24.004  12.027
68356W        W30019  25.151  15.667   3.732
68357W        W30020  33.028  10.752  10.592
68358W        W30021  37.518  21.261   4.259
68359W        W30022  14.106   3.940  12.881
68360W        W30023  24.699  40.975   2.207
68361W        W30024  32.946  16.666   4.619
68362W        W30025   4.397   7.882  12.519
68363W        W30026   6.704  17.074  11.076
68364W        W30027   1.894  22.505   1.394
68365W        W30028  40.847  43.390  13.018
68366W        W30029  34.099  36.568  11.123
68367W        W30030   4.925   5.869  14.792
68368W        W30031  14.242  24.976   3.321
68369W        W30032  32.016  16.090  12.416
68370W        W30033   5.688  32.014  11.864
68371W        W30034  14.779  31.627  13.838
68372W        W30035  30.916  31.123   0.739
68373W        W30036  38.838  17.675   3.294
68374W        W30037  30.580   6.222  12.897
68375W        W30038  33.458  40.319  11.893
68376W        W30039   5.279  24.053  14.391
68377W        W30040  23.508   2.414   2.821
68378W        W30041  13.788  15.217   3.674
68379W        W30042  33.097  16.777  11.121
68380W        W30043   9.265  19.114  14.362
68381W        W30044   3.290  37.338  10.565
68382W        W30045  26.168  30.540  13.351
68383W        W30046  19.609   0.413   2.179
68384W        W30047   1.763  26.041  14.508
68385W        W30048  29.627  13.115  11.121
68386W        W30049  17.774  27.670  14.459
68387W        W30050   9.243  37.835  12.871
68388W        W30051  36.046  39.421  14.894
68389W        W30052  24.068  40.307  12.831
68390W        W30053  35.857  36.016   2.324
68391W        W30054  40.834   1.873   2.809
68392W        W30055  40.318  21.036  12.982
68393W        W30056  32.912  29.432  12.461
68394W        W30057  26.512  42.009   0.820
68395W        W30058  19.560  36.846  11.525
68396W        W30059  13.265  39.888   4.250
68397W        W30060   7.883  26.614  10.086
68398W        W30061  27.653  27.985   3.649
68399W        W30062   5.344  22.619  10.908
68400W        W30063  21.127   1.391  12.405
68401W        W30064  43.493   2.889  14.779
68402W        W30065   2.358  13.780  12.528
68403W        W30066  11.699  20.552  13.382
68404W        W30067   3.887   2.897  12.079
68405W        W30068   3.407   0.954   3.309
68406W        W30069  32.886  40.973   3.204
68407W        W30070  41.998  26.088  11.857
68408W        W30071  42.507   3.876  11.514
68409W        W30072   6.698  34.103  11.398
68410W        W30073  30.914  15.329  13.919
68411W        W30074   4.274  43.989   3.792
68412W        W30075  19.680  36.902   1.714
68413W        W30076  42.934   6.741   5.095
68414W        W30077   5.410  35.875  13.473
68415W        W30078   3.934  43.876   0.750
68416W        W30079   5.722   5.904  14.356
68417W        W30080  28.074  26.484  14.024
68418W        W30081  10.647  43.802   1.885
68419W        W30082   3.240   6.688   1.428
68420W        W30083  11.636  32.572  14.398
68421W        W30084  17.268   3.316  14.356
68422W        W30085  18.070   3.384  13.889
68423W        W30086   5.829  30.113  11.515
68424W        W30087  25.180   3.777  11.068
68425W        W30088  22.157  43.489  13.939
68426W        W30089  24.022   7.340  10.049
68427W        W30090   1.343  33.991  11.900
68428W        W30091   3.907  44.878   2.408
68429W        W30092  15.119  11.764  14.817
68430W        W30093  26.067  33.899  11.542
68431W        W30094  42.887  21.584   4.749
68432W        W30095  11.726  39.466  13.322
68433W        W30096   2.288  13.110  13.406
68434W        W30097   4.764  35.924  10.942
68435W        W30098  23.732  17.682  13.868
68436W        W30099  24.582  21.619  13.487
68437W        W30100  29.995   2.283   4.248
68438W        W30101  20.153   3.937   2.845
68439W        W30102  26.542  18.208  10.988
68440W        W30103   2.343   1.779  12.898
68441W        W30104  34.001  24.648  13.846
68442W        W30105   8.163  28.175   0.404
68443W        W30106  18.696  20.574   1.345
68444W        W30107  29.615   2.899   4.732
68445W        W30108   4.774   4.742   1.833
68446W        W30109  42.792  42.349   2.690
68447W        W30110  30.616  38.408   0.307
68448W        W30111  37.993  27.187  11.562
68449W        W30112  28.452   4.931   3.233
68450W        W30113  33.467  36.007   3.276
68451W        W30114  13.269   6.246   4.296
68452W        W30115  39.947  37.408   0.378
68453W        W30116  24.001  16.301   0.372
68454W        W30117  29.486   4.362  11.095
68455W        W30118  29.538  23.537  14.319
68456W        W30119  37.486  43.440   4.713
68457W        W30120   9.691  25.159   4.707
68458W        W30121   3.823  16.173  10.601
68459W        W30122  26.670  10.199   0.431
68460W        W30123  10.823  29.650  11.862
68461W        W30124  38.556  22.190  11.029
68462W        W30125   9.654  14.628   1.313
68463W        W30126  19.755   2.762   0.388
68464W        W30127   1.374  31.104   4.314
68465W        W30128   8.279   2.845   2.719
68466W        W30129  21.625  21.171   3.207
68467W        W30130  37.520   4.866   3.797
68468W        W30131  33.915   1.299   1.372
68469W        W30132  19.766  43.345   2.730
68470W        W30133  12.182  33.588   4.750
68471W        W30134  30.613  42.323  14.891
68472W        W30135  28.509  11.179   0.903
68473W        W30136   5.841  13.600  12.458
68474W        W30137  20.659  20.196   1.395
68475W        W30138   1.280  30.574   2.351
68476W        W30139  34.084   3.868  10.518
68477W        W30140  23.101  20.680   4.330
68478W        W30141  14.827  23.550   3.310
68479W        W30142  37.545   7.722  10.974
68480W        W30143  19.721   4.850  13.922
68481W        W30144   7.745  30.970   4.286
68482W        W30145  12.700  15.170  10.468
68483W        W30146  29.949  30.911  10.954
68484W        W30147   1.796  24.647  14.796
68485W        W30148  21.058  24.066  13.507
68486W        W30149  32.541  27.991  12.915
68487W        W30150  40.492  28.065  14.863
68488W        W30151  10.700  32.471   3.807
68489W        W30152  43.963  23.050  12.535
68490W        W30153  21.178   7.321   3.768
68491W        W30154   6.212  19.600   4.229
68492W        W30155  25.058  43.372   4.312
68493W        W30156  29.152  10.267  13.414
68494W        W30157   4.233  38.413   3.268
68495W        W30158  16.623  22.537   2.685
68496W        W30159  10.800  25.001   4.730
68497W        W30160   8.262  18.238  12.069
68498W        W30161  10.196  27.058  13.880
68499W        W30162   3.925  22.696  13.948
68500W        W30163  40.009  12.717   4.344
68501W        W30164  30.448  39.066  11.603
68502W        W30165  12.270  26.626   0.954
68503W        W30166  43.892  31.488  10.499
68504W        W30167  18.576  21.097  12.851
68505W        W30168  30.473  13.798  13.934
68506W        W30169  15.650  28.645   4.243
68507W        W30170  15.791  43.982   2.813
68508W        W30171  36.398  41.468   4.672
68509W        W30172  17.213  27.060   2.866
68510W        W30173  13.176  10.657   2.224
68511W        W30174  41.508  35.379   4.606
68512W        W30175   3.240  33.909  12.392
68513W        W30176   6.273  20.730  10.954
68514W        W30177  26.195   6.407  12.468
68515W        W30178  21.127  35.961   1.771
68516W        W30179  44.405  37.074  10.468
68517W        W30180  19.221  23.582   2.759
68518W        W30181  16.747  33.997   4.685
68519W        W30182  28.975  32.481  14.836
68520W        W30183  14.173  30.547  10.445
68521W        W30184  29.066   2.807   1.283
68522W        W30185  39.934  37.006  11.384
68523W        W30186  25.539   0.797  14.950
68524W        W30187  39.341  28.550  14.023
68525W        W30188  35.485  31.411  12.891
68526W        W30189   3.419  30.483   1.850
68527W        W30190   9.837  39.478   1.809
68528W        W30191  38.464   3.229  12.837
68529W        W30192  18.751  16.249   5.242
68530W        W30193  30.435  14.652  10.923
68531W        W30194  14.649  29.519   3.334
68532W        W30195  41.313  40.420   2.842
68533W        W30196  41.866  11.761   3.726
68534W        W30197  18.130  20.101   1.731
68535W        W30198   7.308  18.100  12.927
68536W        W30199  18.163   7.347   2.728
68537W        W30200   4.244   1.909   3.180
68538W        W30201  10.826   6.921  12.460
68539W        W30202  15.279  39.557   9.624
68540W        W30203   2.902  42.996   3.667
68541W        W30204  28.495   3.915   4.152
68542W        W30205   9.882  19.074   4.751
68543W        W30206  17.198   1.937  10.021
68544W        W30207  24.065   7.849   3.151
68545W        W30208  26.469  16.072  12.891
68546W        W30209  26.118  17.779   1.706
68547W        W30210  18.212  14.122  12.824
68548W        W30211   7.713  36.349   1.214
68549W        W30212   1.825  25.019  14.369
68550W        W30213  37.033  28.479   4.619
68551W        W30214  36.888  15.106  13.516
68552W        W30215  15.808  23.661   4.756
68553W        W30216   6.901  34.108  13.001
68554W        W30217   2.303  35.941   0.424
68555W        W30218  29.621   7.773  12.057
68556W        W30219  35.986  38.056  11.477
68557W        W30220  36.842  31.964   4.656
68558W        W30221  30.592  33.508   2.740
68559W        W30222   3.889  15.140   0.330
68560W        W30223  19.554   8.780   0.381
68561W        W30224  19.556  37.457  13.910
68562W        W30225   5.724  12.346   4.296
68563W        W30226  11.333   8.811   5.789
68564W        W30227  35.980  17.152  10.455
68565W        W30228  36.466  26.509   4.737
68566W        W30229   2.909  44.919   3.712
68567W        W30230  25.103  26.475   3.706
68568W        W30231   7.797  11.645  13.377
68569W        W30232  36.506  32.393  13.493
68570W        W30233  19.637  31.060  11.068
68571W        W30234   0.368  29.504   2.234
68572W        W30235  15.655   9.692  14.882
68573W        W30236  34.103   3.425   5.258
68574W        W30237  21.707  12.253   2.813
68575W        W30238  33.026  18.780   1.247
68576W        W30239   5.330  14.596  11.054
68577W        W30240  21.161  36.967  11.606
68578W        W30241  25.671  38.884  11.998
68579W        W30242  35.893  11.132  10.427
68580W        W30243   3.866  11.157  12.538
68581W        W30244  36.987  37.858   4.186
68582W        W30245   9.850  37.029  11.572
68583W        W30246  40.448  19.109  14.949
68584W        W30247   7.884  33.881   1.832
68585W        W30248  15.325  41.919   4.739
68586W        W30249  44.810  11.137   1.298
68587W        W30250  38.832  22.089   2.344
68588W        W30251  38.517   0.450  14.923
68589W        W30252   1.770  25.574  11.111
68590W        W30253  26.026  29.071  12.391
68591W        W30254  14.592  40.905  12.862
68592W        W30255  39.907   8.407   2.841
68593W        W30256  34.412  28.123   2.239
68594W        W30257   4.349   0.966   2.284
68595W        W30258  31.466   4.732  11.550
68596W        W30259  10.381  26.159  14.490
68597W        W30260  12.820   7.218   3.213
68598W        W30261  39.400  28.962  13.917
68599W        W30262  11.787  26.592   4.645
68600W        W30263  41.409  42.480  12.007
68601W        W30264   8.685  44.329  10.410
68602W        W30265  40.991  12.744  11.064
68603W        W30266  28.577  33.059   3.735
68604W        W30267  42.888  38.011  12.856
68605W        W30268   9.358  43.863   1.324
68606W        W30269  18.206   5.268   3.756
68607W        W30270  11.274  19.664   3.834
68608W        W30271  44.286  32.438   4.185
68609W        W30272  19.138  10.373   1.322
68610W        W30273  15.660  21.710   0.299
68611W        W30274  40.499  38.375   0.772
68612W        W30275  24.030  29.447  14.508
68613W        W30276  41.500  10.191   0.345
68614W        W30277  17.181   1.748   2.737
68615W        W30278  10.250  19.702   5.094
68616W        W30279  32.415  32.445  10.414
68617W        W30280   9.752  26.075  14.949
68618W        W30281  12.635  10.227  12.065
68619W        W30282  18.585  15.113  11.485
68620W        W30283  43.968   7.270  14.984
68621W        W30284  41.476   7.783   2.400
68622W        W30285   2.785  37.574  12.086
68623W        W30286  33.057   3.287  14.483
68624W        W30287  44.909  10.144   0.883
68625W        W30288   8.895  24.582  13.424
68626W        W30289  28.489  36.916  10.590
68627W        W30290  15.141   1.754  13.438
68628W        W30291  21.153  20.158   3.751
68629W        W30292  36.551  32.546  12.414
68630W        W30293  16.244  26.479   4.785
68631W        W30294   9.827  29.969   4.797
68632W        W30295  34.610  39.326  13.007
68633W        W30296  12.260   1.290  10.620
68634W        W30297  18.754  31.641  13.981
68635W        W30298   6.417  19.133   2.755
68636W        W30299   0.909   0.984   3.787
68637W        W30300  39.528  26.033  12.565
68638W        W30301   5.761   6.315   4.737
68639W        W30302  27.606  24.551  11.400
68640W        W30303  17.067  31.991  11.001
68641W        W30304  14.279  27.485  10.498
68642W        W30305   4.808  17.755  12.839
68643W        W30306  21.570  36.939  10.599
68644W        W30307  38.955   5.894   3.687
68645W        W30308  19.580   0.925  10.934
68646W        W30309  37.532  24.585   3.149
68647W        W30310   3.734  36.939  11.940
68648W        W30311  11.771  39.535  13.003
68649W        W30312   6.271   3.399   1.916
68650W        W30313  24.502   4.902  11.025
68651W        W30314  40.427  20.134  14.957
68652W        W30315  34.446  42.331   1.321
68653W        W30316   9.252  33.088  10.901
68654W        W30317  35.970  35.872   1.899
68655W        W30318  23.592   9.332   1.245
68656W        W30319  40.434  43.398   3.261
68657W        W30320  43.009  43.432  11.077
68658W        W30321   9.245   0.814  10.604
68659W        W30322  21.156  37.869  12.361
68660W        W30323  25.042   1.919  10.566
68661W        W30324  44.309  44.472  10.635
68662W        W30325  22.132  13.692  12.982
68663W        W30326  19.705   0.943  14.785
68664W        W30327  31.602  36.963  14.014
68665W        W30328  20.720  44.813   4.292
68666W        W30329  29.034  36.574   1.931
68667W        W30330  43.825  38.378   0.750
68668W        W30331  41.532   2.855  12.404
68669W        W30332  24.711  26.580   2.741
68670W        W30333   0.769  22.713   2.710
68671W        W30334  26.018  44.309   2.769
68672W        W30335  20.241   7.667  11.514
68673W        W30336   8.704  36.435   4.304
68674W        W30337  44.313  17.720  13.326
68675W        W30338  18.192  17.692   3.332
68676W        W30339  26.083  26.677  12.911
68677W        W30340  31.609  36.003   3.844
68678W        W30341  22.741  43.954  13.810
68679W        W30342  39.321  41.998   1.250
68680W        W30343  29.057  22.630  12.981
68681W        W30344  44.463  28.048  10.614
68682W        W30345   7.789  39.025   0.741
68683W        W30346   7.678  36.360  14.988
68684W        W30347   7.172  44.985  13.400
68685W        W30348  11.308  24.535  14.827
68686W        W30349  16.729  34.024   2.775
68687W        W30350  43.001  17.306  12.343
68688W        W30351  38.465  27.616  11.902
68689W        W30352  24.158  30.978  12.888
68690W        W30353  44.802   5.864  11.044
68691W        W30354  32.604  42.351  10.416
68692W        W30355  26.196  27.661  11.882
68693W        W30356  30.145  28.638   1.915
68694W        W30357  25.520  36.353  14.451
68695W        W30358   9.837  20.607   4.702
68696W        W30359  15.227  35.992  12.829
68697W        W30360  42.839  11.370   2.274
68698W        W30361  31.431  29.512  12.521
68699W        W30362  14.174   6.783   0.855
68700W        W30363  42.304  16.139  14.824
68701W        W30364  18.744  31.532  14.829
68702W        W30365  12.182  20.261   3.790
68703W        W30366  40.029  15.116  12.919
68704W        W30367  26.102  39.921  11.050
68705W        W30368  21.589  41.801  12.480
68706W        W30369   3.854  28.158   3.723
68707W        W30370  28.663  16.747   4.266
68708W        W30371  22.103   3.937   2.762
68709W        W30372  29.123  38.478   9.965
68710W        W30373  30.053  44.898  12.962
68711W        W30374  26.510  21.702   1.237
68712W        W30375  26.602  11.753  13.441
68713W        W30376  24.534  30.568   4.271
68714W        W30377  31.140  29.660   4.192
68715W        W30378  13.735  12.136   2.260
68716W        W30379  10.255  35.469   1.899
68717W        W30380   3.829  37.425  10.049
68718W        W30381   6.908   8.387  11.996
68719W        W30382  24.136  33.400   1.284
68720W        W30383  28.593   2.827  11.931
68721W        W30384  11.670  41.987   1.396
68722W        W30385  17.796  29.927   1.382
68723W        W30386  19.597  29.544  10.635
68724W        W30387  27.139   9.712  11.590
68725W        W30388  17.578  38.890  10.540
68726W        W30389  41.008   4.442   0.795
68727W        W30390  24.022  28.147   0.313
68728W        W30391   5.848  28.512  11.873
68729W        W30392   2.814  42.445   4.334
68730W        W30393  21.034  31.078   4.195
68731W        W30394   9.716  18.155   4.244
68732W        W30395  11.228   7.891   3.690
68733W        W30396  31.479  35.434   3.654
68734W        W30397   2.230   4.745   2.321
68735W        W30398  38.379  11.223  11.597
68736W        W30399  35.047  32.131  11.000
68737W        W30400   9.735   0.940   3.810
68738W        W30401  21.252  42.888  12.055
68739W        W30402  39.380  43.835   0.830
68740W        W30403  33.015  22.034   3.678
68741W        W30404  34.085   6.758   0.283
68742W        W30405  44.336  40.996   0.957
68743W        W30406   1.853  36.080  13.482
68744W        W30407  17.142  10.140   4.289
68745W        W30408   2.440  43.470  11.434
68746W        W30409  17.239  25.656   1.283
68747W        W30410   8.843  22.027   0.254
68748W        W30411   9.857  23.708   1.804
68749W        W30412  33.598  34.031  12.014
68750W        W30413  10.186  10.251   2.273
68751W        W30414   4.274  12.181  13.008
68752W        W30415  35.948   7.769   0.402
68753W        W30416   3.380  21.027  14.432
68754W        W30417   6.292   9.322   0.840
68755W        W30418  32.539  41.949  13.545
68756W        W30419  35.948  13.667  11.900
68757W        W30420  38.885  35.963  12.973
68758W        W30421   1.929  19.133   0.868
68759W        W30422  18.121  21.126   2.292
68760W        W30423  17.586  11.199   4.295
68761W        W30424  29.520   3.900   2.818
68762W        W30425  29.152  42.920   1.437
68763W        W30426  27.569   1.806   0.335
68764W        W30427   1.392  21.737  10.940
68765W        W30428  44.473  11.846   3.724
68766W        W30429  15.197   6.825  12.005
68767W        W30430  42.344  20.226   0.304
68768W        W30431  40.975  44.372   1.407
68769W        W30432   6.399  39.484   4.121
68770W        W30433  40.938  24.707   2.831
68771W        W30434  33.543  30.970   4.705
68772W        W30435  29.992  40.423   3.350
68773W        W30436  44.495   1.270  13.956
68774W        W30437  30.528  13.309  11.980
68775W        W30438  35.513  41.379  12.056
68776W        W30439  16.767  30.577   3.789
68777W        W30440  34.461  24.682  10.437
68778W        W30441  14.220  33.959  12.905
68779W        W30442  43.355  27.691  14.435
68780W        W30443  19.259  27.616   1.874
68781W        W30444  19.552  16.599   1.215
68782W        W30445  42.397  15.160   2.393
68783W        W30446  26.159  16.742  11.080
68784W        W30447   5.907  35.101  11.598
68785W        W30448   3.393  24.114   3.797
68786W        W30449  25.113   2.232   0.784
68787W        W30450  33.514  35.540   5.125
68788W        W30451  36.438  38.829  11.547
68789W        W30452  31.007  41.959   2.786
68790W        W30453  36.389  42.796   3.370
68791W        W30454  22.694   6.290  13.951
68792W        W30455  44.969  37.398   3.820
68793W        W30456  22.160  11.263  14.830
68794W        W30457  23.688  16.631  12.495
68795W        W30458  14.627  24.058   2.200
68796W        W30459  39.427  41.382   3.819
68797W        W30460  26.702  11.864  12.524
68798W        W30461  16.218  39.318  12.035
68799W        W30462  38.974  10.848   9.920
68800W        W30463  34.066  37.567  13.318
68801W        W30464  20.525  32.582  13.896
68802W        W30465   4.780   4.802   5.263
68803W        W30466  39.917  10.729  11.584
68804W        W30467  13.350  23.734   2.218
68805W        W30468  12.808  29.080  10.623
68806W        W30469  30.588  35.428   1.887
68807W        W30470   2.336  13.769   2.694
68808W        W30471  16.715  21.572   4.787
68809W        W30472  29.431  41.944   2.300
68810W        W30473   8.704  23.735   3.367
68811W        W30474  11.300  17.269   0.916
68812W        W30475  20.210  17.105   0.440
68813W        W30476  20.106   5.421  14.909
68814W        W30477  34.530  25.649   2.806
68815W        W30478  41.998   2.732   2.272
68816W        W30479  33.131  12.246  12.003
68817W        W30480   3.386   4.307  10.039
68818W        W30481   3.934  19.275   1.240
68819W        W30482   7.897   4.293   2.341
68820W        W30483  13.661   0.382  13.910
68821W        W30484  29.960   7.716   3.157
68822W        W30485  23.653  11.321  12.559
68823W        W30486  36.953   1.267   0.243
68824W        W30487  41.405  40.459  13.825
68825W        W30488   3.946  29.111   0.242
68826W        W30489  19.244  20.231   4.207
68827W        W30490  22.735   6.703   3.302
68828W        W30491  20.742   4.903   1.904
68829W        W30492  11.765   6.693   0.783
68830W        W30493  29.554  21.750  11.544
68831W        W30494  41.411  42.030   4.822
68832W        W30495  39.470  16.607   0.410
68833W        W30496  19.709  16.134   2.380
68834W        W30497  23.237  41.842   5.282
68835W        W30498  29.020  44.292  13.470
68836W        W30499   8.358   1.853   3.235
68837W        W30500   6.691   2.767   0.259
68838W        W30501   0.362  23.197  12.014
68839W        W30502  19.240  34.606   3.153
68840W        W30503  43.288   1.331  14.509
68841W        W30504   0.263  12.265  12.340
68842W        W30505   4.923   2.761   2.283
68843W        W30506  15.088   3.347  10.929
68844W        W30507   3.837  31.403  13.004
68845W        W30508   2.369   3.758  14.483
68846W        W30509  44.925  28.041  13.848
68847W        W30510  25.512  10.756  11.090
68848W        W30511   1.973   7.226   2.299
68849W        W30512  29.585  19.692  11.966
68850W        W30513  29.468   2.871  12.526
68851W        W30514  30.150  26.207   1.345
68852W        W30515  22.215  34.047  14.369
68853W        W30516  13.300  14.321   3.268
68854W        W30517  13.283   2.262  14.973
68855W        W30518  26.663  31.995  10.007
68856W        W30519  15.634  22.026   3.156
68857W        W30520  17.190  13.299  14.782
68858W        W30521  12.641  18.141  14.394
68859W        W30522  24.157  39.525   0.741
68860W        W30523   0.788   9.185   1.808
68861W        W30524  40.345  22.560  14.769
68862W        W30525  27.986   0.973   1.910
68863W        W30526  43.020  10.265  12.563
68864W        W30527  31.511  28.945  11.001
68865W        W30528  13.287   4.359   1.216
68866W        W30529  23.519  22.154  14.356
68867W        W30530   0.455  32.893   3.160
68868W        W30531  38.930  14.713  13.825
68869W        W30532  41.516  34.938   3.683
68870W        W30533  35.897  21.689  13.930
68871W        W30534  14.306  26.031  11.948
68872W        W30535  14.307  13.755  10.452
68873W        W30536   7.375   4.798   4.239
68874W        W30537  42.891  34.003   1.872
68875W        W30538  28.445  29.967  10.952
68876W        W30539  39.525   4.713   3.354
68877W        W30540  44.412   4.347   1.889
68878W        W30541  32.079   1.821  11.899
68879W        W30542  27.099  20.269   2.673
68880W        W30543  34.398   3.362  13.973
68881W        W30544  32.526  43.340   1.717
68882W        W30545  12.275  32.487  13.370
68883W        W30546  38.469  36.074  12.965
68884W        W30547   4.911  13.280   0.800
68885W        W30548   6.759   1.926   3.318
68886W        W30549  27.645  30.569   5.196
68887W        W30550  30.507  12.174  12.988
68888W        W30551  23.066   2.870  13.525
68889W        W30552   2.426   3.338  13.352
68890W        W30553  20.644   2.782   3.320
68891W        W30554  44.823  17.605   4.668
68892W        W30555  43.376  10.239   1.296
68893W        W30556  28.066   0.423   1.405
68894W        W30557   8.893  43.770   0.855
68895W        W30558  37.459  22.724   4.831
68896W        W30559  34.892  44.791  14.948
68897W        W30560   9.292  26.009  14.478
68898W        W30561  11.765  19.743   0.459
68899W        W30562  28.943  24.973   1.907
68900W        W30563  26.011  35.909  12.443
68901W        W30564  22.124  43.316   3.281
68902W        W30565  33.513  43.793  11.020
68903W        W30566  25.013  43.993  10.445
68904W        W30567   9.229  36.462  13.880
68905W        W30568  42.952   6.785   5.799
68906W        W30569  40.955  17.273   4.780
68907W        W30570  34.392   2.321  10.413
68908W        W30571  16.089  17.785   4.790
68909W        W30572  15.605  37.904   0.390
68910W        W30573  28.150  38.349  14.325
68911W        W30574  27.101  34.990  11.581
68912W        W30575  10.267  26.666  12.034
68913W        W30576  40.027  38.393  11.388
68914W        W30577  32.989   8.308  11.974
68915W        W30578   9.755  32.618  14.885
68916W        W30579  20.703   8.278  12.368
68917W        W30580  32.887  43.869  10.446
68918W        W30581  20.156   5.218   1.234
68919W        W30582  34.077  17.652  14.821
68920W        W30583  30.987  20.156  13.965
68921W        W30584  16.109  29.545  11.860
68922W        W30585  42.445  10.667   2.396
68923W        W30586  32.060  39.010  14.397
68924W        W30587  42.859  20.226  12.416
68925W        W30588  10.319  26.604   2.313
68926W        W30589  41.026  41.000  13.432
68927W        W30590  19.666  15.224   2.377
68928W        W30591  11.228  19.633  10.488
68929W        W30592  37.052  34.424   4.212
68930W        W30593  12.716   6.793   9.953
68931W        W30594  23.516   9.730   0.300
68932W        W30595  39.951  32.403  14.404
68933W        W30596   0.406  37.429   1.229
68934W        W30597   6.893  39.869  13.494
68935W        W30598   6.779  44.394   1.314
68936W        W30599   9.710   6.308   4.333
68937W        W30600  11.146  29.953   4.275
68938W        W30601  27.501  39.478   5.804
68939W        W30602  38.070  30.545  10.427
68940W        W30603  16.723  28.930   3.244
68941W        W30604   7.823  26.667  14.391
68942W        W30605  24.558  42.930  13.882
68943W        W30606  43.458   5.228  12.374
68944W        W30607  38.543  43.462   2.874
68945W        W30608  24.723  38.569  14.373
68946W        W30609  41.496  11.273  12.423
68947W        W30610  24.981  12.159   3.178
68948W        W30611  41.366  39.838   2.397
68949W        W30612  18.721   9.845  11.572
68950W        W30613   4.246  26.146   3.767
68951W        W30614   2.846  26.480  11.447
68952W        W30615  38.979  18.238  14.009
68953W        W30616  30.126  16.249   0.731
68954W        W30617  44.374  16.625   0.413
68955W        W30618  21.023  37.072   4.203
68956W        W30619  24.526  27.063   2.342
68957W        W30620  16.576  13.348  12.580
68958W        W30621   2.790  16.567  13.052
68959W        W30622  42.816  37.874  13.438
68960W        W30623  25.129  15.107   0.906
68961W        W30624   7.873  42.910   2.862
68962W        W30625  38.522  37.351   1.321
68963W        W30626  14.659  39.834  11.400
68964W        W30627  42.308  13.168  13.883
68965W        W30628  33.028  15.215  11.589
68966W        W30629   8.756  24.610   4.723
68967W        W30630  21.661  10.271  10.160
68968W        W30631   7.281   5.322  14.853
68969W        W30632  37.937   4.791  14.462
68970W        W30633  27.147  22.676   0.777
68971W        W30634  37.564   0.283   4.215
68972W        W30635  12.697  30.649  14.890
68973W        W30636   6.814  11.326  12.033
68974W        W30637  16.098  10.707   0.861
68975W        W30638  36.537   1.807  10.068
68976W        W30639  13.297   1.891  13.029
68977W        W30640  30.423  38.493  13.517
68978W        W30641  16.723   7.684   1.361
68979W        W30642   6.409  43.437  13.411
68980W        W30643  38.984  37.834  13.474
68981W        W30644  43.383   4.934  10.493
68982W        W30645  34.950  16.670   4.308
68983W        W30646   0.440  40.355   3.638
68984W        W30647  25.149  31.112   0.396
68985W        W30648  10.871   0.366  10.537
68986W        W30649  16.176  17.684  11.377
68987W        W30650  35.454   0.841  13.933
68988W        W30651  31.586  12.765   4.223
68989W        W30652  14.297  16.631  14.469
68990W        W30653  44.874   2.371  11.972
68991W        W30654  35.445  11.261   3.720
68992W        W30655  17.716  34.563   3.227
68993W        W30656  43.288  12.289   0.479
68994W        W30657  15.743  43.272  11.498
68995W        W30658  13.349  26.075   0.365
68996W        W30659  42.339  28.570  12.054
68997W        W30660  28.512   6.341   0.815
68998W        W30661  13.647  15.757   4.278
68999W        W30662  32.598  16.666  12.039
69000W        W30663   2.724  34.448   1.419
69001W        W30664   8.813  25.040   4.184
69002W        W30665   0.891  24.003   1.261
69003W        W30666  24.116  34.377  12.420
69004W        W30667  38.445  15.763   1.798
69005W        W30668   0.949  25.091  13.064
69006W        W30669  40.824   3.955   1.290
69007W        W30670  11.149   6.917   1.860
69008W        W30671   2.335   7.773   3.237
69009W        W30672  30.448  44.850  14.400
69010W        W30673  39.923  36.395   4.272
69011W        W30674  42.009  29.040  10.066
69012W        W30675  35.358   2.793  12.541
69013W        W30676  20.627  38.870  14.881
69014W        W30677   7.729   1.965   5.217
69015W        W30678  12.610   8.250   0.446
69016W        W30679  18.639  31.960  10.105
69017W        W30680   7.672  40.497  11.599
69018W        W30681   2.763  12.729   3.271
69019W        W30682  37.460  16.290  11.573
69020W        W30683  40.941  16.091   3.319
69021W        W30684  13.235  42.484  14.896
69022W        W30685  40.494  25.030   1.850
69023W        W30686  41.501  26.504   3.268
69024W        W30687   9.277   8.281  12.998
69025W        W30688   9.180  17.740  11.576
69026W        W30689  18.139  21.263  14.330
69027W        W30690  25.640  20.643  10.621
69028W        W30691  14.106   6.678  12.553
69029W        W30692  33.559  27.479  14.303
69030W        W30693  39.846  14.208   0.369
69031W        W30694  42.933   0.388   4.335
69032W        W30695  21.616  42.378  13.386
69033W        W30696  22.216  37.528  12.984
69034W        W30697   7.407  17.671  13.434
69035W        W30698  41.467  18.744  11.999
69036W        W30699  25.966  22.053  12.864
69037W        W30700  30.466  22.568  12.874
69038W        W30701  40.971   7.273  11.856
69039W        W30702  31.072  18.588   1.842
69040W        W30703  22.703  10.752   2.340
69041W        W30704   7.231  37.938  12.843
69042W        W30705   1.927  24.025  13.813
69043W        W30706  11.273  36.096   4.773
69044W        W30707  13.257  10.864   0.787
69045W        W30708  42.816  23.627  10.470
69046W        W30709   1.858  37.082   1.704
69047W        W30710  21.602  36.942   1.868
69048W        W30711  26.495  17.762   3.145
69049W        W30712   9.829  35.996   2.673
69050W        W30713  33.580  41.936   2.663
69051W        W30714  38.350   6.295   2.202
69052W        W30715  38.447  41.887  12.528
69053W        W30716  30.458  24.643   2.307
69054W        W30717  10.859  11.677  12.454
69055W        W30718   7.181  37.536   1.425
69056W        W30719  17.724  26.136  13.438
69057W        W30720  20.204  42.911  12.559
69058W        W30721  44.298  34.880  12.999
69059W        W30722  29.566   6.393   0.826
69060W        W30723  11.211  21.706  12.891
69061W        W30724  11.194  44.941  11.920
69062W        W30725   4.253  30.973  12.523
69063W        W30726  17.128   8.678   3.242
69064W        W30727   9.650  29.452  11.098
69065W        W30728  21.229  13.147   4.331
69066W        W30729  35.525  23.042  14.006
69067W        W30730  12.224  41.913  14.489
69068W        W30731  15.208  30.618  13.934
69069W        W30732  35.062  15.089  11.481
69070W        W30733  18.099   8.890   2.814
69071W        W30734  13.675  16.656  14.480
69072W        W30735   7.410  41.488   1.844
69073W        W30736   4.231   1.385   3.281
69074W        W30737  34.871  34.517   4.751
69075W        W30738  15.687  33.466   1.872
69076W        W30739  23.002  20.213  13.057
69077W        W30740  37.496  22.200  12.416
69078W        W30741  11.829  22.011  12.364
69079W        W30742  17.802  24.696  12.353
69080W        W30743  16.161  14.269   3.824
69081W        W30744  34.608  39.520   4.313
69082W        W30745  43.960   8.226  11.927
69083W        W30746  30.922  17.230   0.414
69084W        W30747  32.996   5.381   4.346
69085W        W30748  18.134   8.798   1.776
69086W        W30749  23.128  40.477   4.300
69087W        W30750   4.275  25.122  13.470
69088W        W30751  24.975  29.463   2.773
69089W        W30752  34.865  21.609   3.370
69090W        W30753  33.971  33.040   0.793
69091W        W30754  41.384  20.133   0.296
69092W        W30755   2.779  36.371   4.627
69093W        W30756  39.053  20.111  12.499
69094W        W30757  33.905  44.296   2.749
69095W        W30758  20.245   8.723   3.199
69096W        W30759  16.132  28.956   4.193
69097W        W30760  23.201  10.700   3.761
69098W        W30761   0.766  40.838  11.394
69099W        W30762  44.446  23.196  10.511
69100W        W30763  32.011   8.222   2.287
69101W        W30764   1.433  44.455   0.802
69102W        W30765  33.405  22.145  14.379
69103W        W30766   0.884  39.811  10.008
69104W        W30767  12.716  15.181  12.459
69105W        W30768  36.436  38.334  11.530
69106W        W30769  39.385   3.246   1.830
69107W        W30770  18.185  36.556  14.884
69108W        W30771  24.041  29.973   3.163
69109W        W30772  35.374  41.847   1.918
69110W        W30773  24.044  19.188  14.932
69111W        W30774   5.219   8.313  14.974
69112W        W30775  30.581  17.274   2.820
69113W        W30776   1.861   2.800  11.870
69114W        W30777  41.353   6.842   0.481
69115W        W30778  28.081  27.575  10.923
69116W        W30779  25.012   8.831  14.278
69117W        W30780  39.053  13.808   4.601
69118W        W30781  31.623  29.467   0.377
69119W        W30782  10.267  25.690   2.745
69120W        W30783  19.219  40.422   4.209
69121W        W30784   5.712  23.179  11.474
69122W        W30785  33.578   7.231   2.801
69123W        W30786  29.501   7.284  13.980
69124W        W30787  34.933  12.678   4.272
69125W        W30788   7.238   1.976   4.729
69126W        W30789   0.838   8.740  11.120
69127W        W30790  13.791  35.955   3.850
69128W        W30791  25.695  32.106  14.444
69129W        W30792  35.405  24.106  14.361
69130W        W30793  26.509  44.309  12.383
69131W        W30794  30.417  22.122  13.879
69132W        W30795  27.479  39.988   2.242
69133W        W30796  15.751  29.635   4.712
69134W        W30797  34.907  23.182  12.043
69135W        W30798   8.281  25.630   0.831
69136W        W30799  22.734  24.142  10.595
69137W        W30800  40.517  30.497  13.512
69138W        W30801  25.155  24.022  14.831
69139W        W30802  42.320  15.748   1.273
69140W        W30803  26.601   5.815  14.977
69141W        W30804  37.524  20.625   4.642
69142W        W30805   6.290  27.558  11.566
69143W        W30806  41.400  41.328  13.536
69144W        W30807  41.869  26.699  10.941
69145W        W30808  43.281  43.356   3.270
69146W        W30809  40.390  19.663  12.996
69147W        W30810  13.160   4.937   2.395
69148W        W30811  43.345  37.567   1.364
69149W        W30812  39.539  16.078   1.213
69150W        W30813  27.123  20.232  10.492
69151W        W30814  24.028  35.874  14.357
69152W        W30815   7.666  20.192  14.293
69153W        W30816  20.131   3.316  11.554
69154W        W30817  12.361  33.561  11.383
69155W        W30818  44.393  24.544  12.901
69156W        W30819  37.933  17.146  13.964
69157W        W30820  10.267  27.551  14.275
69158W        W30821  16.676   5.242   2.862
69159W        W30822  39.368  22.612   0.250
69160W        W30823  16.653  11.779  11.517
69161W        W30824  33.565  41.861   0.735
69162W        W30825  42.855  34.918   1.829
69163W        W30826   7.191   0.791  10.423
69164W        W30827  41.939  37.973  11.470
69165W        W30828   7.679   5.404   1.234
69166W        W30829  22.122  30.414   2.888
69167W        W30830  26.023  26.689  14.957
69168W        W30831  38.841  15.808   4.303
69169W        W30832  39.031  32.085  12.872
69170W        W30833  24.060  29.948  14.929
69171W        W30834  20.249  41.506  13.049
69172W        W30835  25.596  29.036   1.901
69173W        W30836   7.893  34.036   2.260
69174W        W30837  29.137  35.541   4.612
69175W        W30838  15.198  34.562   2.725
69176W        W30839  25.219  35.366  12.532
69177W        W30840  38.538  35.010   3.804
69178W        W30841  40.516  24.137  14.782
69179W        W30842   1.886   9.717   0.915
69180W        W30843  36.963  28.630   2.302
69181W        W30844  25.005   4.391   0.878
69182W        W30845   0.344  42.314  14.423
69183W        W30846   9.866  32.141  10.505
69184W        W30847   3.370  33.024  13.846
69185W        W30848  36.409  31.969   2.310
69186W        W30849  34.596  28.155  11.602
69187W        W30850  18.774  12.256   4.199
69188W        W30851  38.373  20.716  13.475
69189W        W30852  27.537  43.887   2.682
69190W        W30853  32.047  44.915   4.338
69191W        W30854  31.123  42.358   1.772
69192W        W30855   2.447  27.514   2.861
69193W        W30856  42.900   4.256  12.519
69194W        W30857   3.356  33.876   4.285
69195W        W30858  17.100  19.130  14.889
69196W        W30859  36.368   8.164   2.372
69197W        W30860  16.109  12.284   2.727
69198W        W30861   0.484  39.856  11.596
69199W        W30862   9.151   8.720   1.386
69200W        W30863  14.238  44.343  14.970
69201W        W30864  10.680  35.387   0.314
69202W        W30865   0.330   3.949   1.709
69203W        W30866  13.804  42.320   1.887
69204W        W30867  20.550  13.650  12.894
69205W        W30868   6.225  30.033   2.337
69206W        W30869  21.036  38.374   1.415
69207W        W30870  40.814  15.822  14.396
69208W        W30871  44.805  23.592  14.361
69209W        W30872  32.049   7.236   0.390
69210W        W30873  13.309  37.864   2.235
69211W        W30874  23.146  31.570  14.780
69212W        W30875  37.009  12.272  14.824
69213W        W30876   8.775  27.498   1.828
69214W        W30877  12.674   1.736  14.859
69215W        W30878  12.710   9.763  14.804
69216W        W30879  44.948  42.014   4.136
69217W        W30880  44.408  30.081   1.860
69218W        W30881  21.554  21.524  14.032
69219W        W30882  37.984  29.594  12.981
69220W        W30883  35.520  31.013  12.969
69221W        W30884   5.286  27.566   2.286
69222W        W30885  44.403  33.954   9.947
69223W        W30886  37.856  10.863   1.888
69224W        W30887  33.108  12.637   0.428
69225W        W30888   6.679  13.123   3.828
69226W        W30889  44.923  35.082  13.859
69227W        W30890   8.706   6.679  12.971
69228W        W30891   1.946  22.644  11.953
69229W        W30892   1.734  29.061  11.026
69230W        W30893  36.348  11.790   1.815
69231W        W30894  24.032  44.788  12.471
69232W        W30895  30.999  26.036  14.500
69233W        W30896   8.681  11.699   4.158
69234W        W30897  39.396  35.481  12.996
69235W        W30898  28.462  40.497   5.764
69236W        W30899  27.979  30.467   4.619
69237W        W30900  15.253  41.443  12.538
69238W        W30901  22.174  27.994  12.014
69239W        W30902   6.835  38.476  13.518
69240W        W30903  30.426   6.840  12.480
69241W        W30904   9.816  39.887   0.327
69242W        W30905  23.094  17.680   0.266
69243W        W30906   5.784  18.157  12.928
69244W        W30907  15.155  43.270   1.221
69245W        W30908   9.653  30.558   4.243
69246W        W30909  44.459  17.560  11.002
69247W        W30910  31.578  28.505  11.003
69248W        W30911  11.362  21.522   3.853
69249W        W30912   0.756  35.000   0.919
69250W        W30913   4.795  42.311   3.831
69251W        W30914   9.777  26.697  14.495
69252W        W30915  22.105  40.527  11.933
69253W        W30916  44.805   5.432  11.515
69254W        W30917  40.548  35.954  12.999
69255W        W30918  25.100  44.822   3.341
69256W        W30919  35.364  35.022   2.715
69257W        W30920   0.957   8.316   0.784
69258W        W30921  20.596  31.982  12.429
69259W        W30922  38.854  35.387  13.972
69260W        W30923  14.789  21.252   0.752
69261W        W30924   5.769  22.246  14.943
69262W        W30925  28.144   0.483  14.466
69263W        W30926  26.999  10.789   1.811
69264W        W30927  12.813  19.649   1.278
69265W        W30928  34.526   4.216   1.878
69266W        W30929  13.649  33.037  14.918
69267W        W30930  29.534  31.967  12.479
69268W        W30931  31.927  12.177  14.409
69269W        W30932  37.860  21.145  12.478
69270W        W30933  27.991  23.111   4.146
69271W        W30934  36.442  34.554   3.708
69272W        W30935  38.516   7.863  12.486
69273W        W30936  28.514  29.116  12.428
69274W        W30937  13.820  44.342   2.356
69275W        W30938   0.418  14.199  14.789
69276W        W30939  23.562  28.046  12.939
69277W        W30940  14.723  44.819   2.357
69278W        W30941  26.120   0.442   3.385
69279W        W30942   7.686  11.233  14.016
69280W        W30943  16.203  33.092   0.346
69281W        W30944   5.436  44.868  13.791
69282W        W30945  13.209   3.313   3.827
69283W        W30946  26.013  17.711   3.844
69284W        W30947  20.743  32.096   4.322
69285W        W30948  16.201  26.674  14.954
69286W        W30949  38.362  14.635   0.318
69287W        W30950   6.799  38.870  12.823
69288W        W30951  13.760  13.692   3.266
69289W        W30952  12.331  27.952   4.172
69290W        W30953  39.967   0.903  14.960
69291W        W30954  33.528  20.690   4.341
69292W        W30955  18.254  19.044  11.482
69293W        W30956  25.004  19.613   4.649
69294W        W30957   1.398  26.578   2.710
69295W        W30958  18.631  13.804  12.479
69296W        W30959  24.499  32.013   0.870
69297W        W30960   7.685  45.000  14.789
69298W        W30961   5.209  26.043  14.995
69299W        W30962  32.986  20.163  12.892
69300W        W30963  10.758   4.237   3.775
69301W        W30964  31.605  43.395  13.885
69302W        W30965   2.447  38.828   1.933
69303W        W30966  20.229  28.944  14.447
69304W        W30967   3.241  32.102   3.850
69305W        W30968  37.397  18.091  14.853
69306W        W30969   8.871   3.461  14.807
69307W        W30970  36.379  32.544  14.345
69308W        W30971  26.156  25.982  12.988
69309W        W30972  26.207  42.873   2.886
69310W        W30973   2.330  43.477   3.732
69311W        W30974  26.627  31.909   4.620
69312W        W30975  19.598  19.702  13.984
69313W        W30976  27.517   6.876  13.967
69314W        W30977   9.180  30.523   2.183
69315W        W30978   2.855  16.201  13.908
69316W        W30979  36.359  39.944  14.417
69317W        W30980  32.628   6.259  14.881
69318W        W30981   5.228  28.620   2.368
69319W        W30982  16.603  10.689   4.310
69320W        W30983  42.855  26.616  14.455
69321W        W30984  42.484  42.791  12.502
69322W        W30985  22.626  32.105   0.464
69323W        W30986  35.011  10.679   1.830
69324W        W30987  29.010   5.924   0.796
69325W        W30988   2.391  36.090  13.798
69326W        W30989  29.108  36.365   3.177
69327W        W30990   6.806   1.409  14.825
69328W        W30991  29.118  26.984   4.334
69329W        W30992  35.029  27.632   0.803
69330W        W30993  10.660   4.424   2.396
69331W        W30994  15.727  27.971   3.853
69332W        W30995  40.879  11.280   3.671
69333W        W30996  21.041  18.690   2.213
69334W        W30997  22.552   9.709   2.415
69335W        W30998  12.699   6.741  13.925
69336W        W30999  28.994   1.302  12.430
69337W        W31000   1.311  21.070  12.446
69338W        W31001  33.874   3.379  12.459
69339W        W31002  13.612  37.086  12.343
69340W        W31003  34.872   9.746   0.781
69341W        W31004  12.276   5.419   0.301
69342W        W31005  31.493   3.877  14.495
69343W        W31006  33.381  24.126   1.825
69344W        W31007  16.808  13.220  10.925
69345W        W31008  40.907   9.334  11.611
69346W        W31009   7.283  10.356   0.322
69347W        W31010  29.071   3.813   3.231
69348W        W31011   6.806  42.344   4.271
69349W        W31012  31.488  38.938  14.410
69350W        W31013  20.129  34.432   1.935
69351W        W31014  10.814  38.063  10.903
69352W        W31015  26.203  11.835  12.895
69353W        W31016  33.068  22.104   5.750
69354W        W31017  25.995  40.495  10.593
69355W        W31018  31.042  20.244   1.817
69356W        W31019  38.477  14.275  11.394
69357W        W31020   0.348  25.158  10.995
69358W        W31021  35.361  40.835  10.949
69359W        W31022  33.941  26.566  13.888
69360W        W31023   3.410   9.279  12.838
69361W        W31024   6.799  11.678   3.194
69362W        W31025   4.281   7.405  12.852
69363W        W31026  27.184  10.739   4.124
69364W        W31027  38.066  17.112  10.074
69365W        W31028  23.599  23.691   1.845
69366W        W31029  28.601  37.982  11.473
69367W        W31030  11.321  24.021   1.885
69368W        W31031   7.801  39.317  11.612
69369W        W31032  12.212  15.686   1.430
69370W        W31033  23.069   8.722  14.958
69371W        W31034   2.313   1.479  10.566
69372W        W31035  39.814  25.654   3.302
69373W        W31036  42.884  37.024  14.815
69374W        W31037   7.362  33.087  12.349
69375W        W31038  33.074  21.632  10.022
69376W        W31039  14.745  37.363  12.408
69377W        W31040  38.989  36.450   3.353
69378W        W31041  32.913  13.329  14.895
69379W        W31042  35.911  18.644  13.311
69380W        W31043  28.992   3.412  12.003
69381W        W31044  23.112   1.300  12.560
69382W        W31045   1.760  36.433   3.158
69383W        W31046  14.265  29.499   4.653
69384W        W31047  10.352  15.261   0.847
69385W        W31048  10.213  14.711   3.244
69386W        W31049  25.645   7.666   2.817
69387W        W31050  27.136  20.702   0.735
69388W        W31051  25.555  22.611  10.150
69389W        W31052   1.901   8.656   1.410
69390W        W31053  29.134  28.935  10.607
69391W        W31054  39.315  41.893   0.748
69392W        W31055   5.700  39.375   2.185
69393W        W31056  10.805  44.420   4.728
69394W        W31057   8.178   7.249   4.711
69395W        W31058  19.200   6.191   4.612
69396W        W31059  42.027  31.010  14.766
69397W        W31060  37.847  26.538  11.516
69398W        W31061  37.385  16.593   0.772
69399W        W31062  35.493  33.030   1.403
69400W        W31063  21.603  35.087  13.432
69401W        W31064  34.525   1.436  11.057
69402W        W31065  34.442  19.193  12.892
69403W        W31066   4.273  30.650  13.926
69404W        W31067   0.309  29.658  12.079
69405W        W31068   5.279  31.475   1.438
69406W        W31069  24.502  32.933   0.934
69407W        W31070  39.536  23.571  11.958
69408W        W31071  27.020  29.642  10.588
69409W        W31072  30.066   8.797   0.728
69410W        W31073  13.290  42.928   2.708
69411W        W31074   9.228  36.481   4.788
69412W        W31075   3.260  24.578  12.522
69413W        W31076   1.450  38.873  11.123
69414W        W31077  41.818  13.200   4.718
69415W        W31078  12.800  41.490   3.302
69416W        W31079  18.086  12.812  13.978
69417W        W31080   7.698  36.560  11.473
69418W        W31081  43.840  25.626  13.791
69419W        W31082  21.122  44.424   4.142
69420W        W31083   6.370   0.820  11.919
69421W        W31084  18.124  18.204  13.942
69422W        W31085  10.305  41.798  13.049
69423W        W31086  15.744  18.678   2.342
69424W        W31087  36.032   4.711  14.961
69425W        W31088  32.990  17.268   4.750
69426W        W31089  11.350  26.997   3.259
69427W        W31090  15.743  40.952   2.287
69428W        W31091  38.820   5.732  11.874
69429W        W31092  18.123  25.148  11.589
69430W        W31093  34.457  32.608  11.379
69431W        W31094  33.064  14.320   0.401
69432W        W31095   6.183   0.760  14.953
69433W        W31096  32.968  35.591   4.122
69434W        W31097  38.050  26.190   1.893
69435W        W31098  37.506  16.204  14.823
69436W        W31099   1.743  14.122   0.902
69437W        W31100   6.244   1.843   2.797
69438W        W31101  37.870  27.983  13.853
69439W        W31102  31.900  34.064   2.745
69440W        W31103  16.174   8.217  14.864
69441W        W31104   9.845  30.031   4.353
69442W        W31105  29.482  19.753  13.492
69443W        W31106   1.474  27.639   4.703
69444W        W31107  10.215  30.515  11.500
69445W        W31108  33.048  26.071   2.265
69446W        W31109  16.291  38.514   0.247
69447W        W31110  31.947  42.790   3.174
69448W        W31111  28.579  31.411  10.966
69449W        W31112  15.740  23.635  14.763
69450W        W31113   2.729  14.317  14.859
69451W        W31114  36.532  44.434  10.433
69452W        W31115  30.140  18.583  13.876
69453W        W31116  13.287  21.127  13.334
69454W        W31117  23.732  26.176  14.325
69455W        W31118  28.974   2.943  11.867
69456W        W31119  29.462  36.969  14.294
69457W        W31120  22.707  16.215   2.229
69458W        W31121  19.692  44.421   0.428
69459W        W31122  32.975   8.848  12.566
69460W        W31123   0.344  35.543  12.079
69461W        W31124  39.330  27.500   2.749
69462W        W31125  22.741   5.717   4.137
69463W        W31126  22.252   1.884   1.858
69464W        W31127   7.243  20.732   0.905
69465W        W31128   7.217  13.137   3.277
69466W        W31129   9.335  27.477  11.433
69467W        W31130  25.690  22.145   2.394
69468W        W31131  15.792  39.440  14.844
69469W        W31132   2.843  22.152   4.744
69470W        W31133  30.656  20.714   3.676
69471W        W31134   9.656   1.854  13.312
69472W        W31135   5.694  24.692  13.956
69473W        W31136  21.716  21.661   4.114
69474W        W31137  38.494  19.050   2.851
69475W        W31138  36.434   2.826  10.553
69476W        W31139  25.060  19.157  10.481
69477W        W31140  39.829  17.592  14.839
69478W        W31141  11.649   6.283  13.483
69479W        W31142  30.589  29.089  14.357
69480W        W31143  13.110  30.621   4.144
69481W        W31144  20.598   5.317  14.495
69482W        W31145  43.502  18.132  14.813
69483W        W31146  17.761   3.764   2.682
69484W        W31147  15.279  14.590   1.393
69485W        W31148  10.314  21.108   3.221
69486W        W31149  22.580  30.426   4.728
69487W        W31150  25.502   0.834   3.270
69488W        W31151   1.822  16.239  11.501
69489W        W31152   4.860  43.951   2.186
69490W        W31153   6.823   8.801   3.723
69491W        W31154  25.081   2.798  12.542
69492W        W31155  19.058  42.938   0.460
69493W        W31156  15.293  16.121  14.437
69494W        W31157  16.103  35.581  14.291
69495W        W31158  27.165  19.045   1.374
69496W        W31159  11.757  18.785   1.862
69497W        W31160  27.064   1.838   2.329
69498W        W31161  10.157  14.788  11.379
69499W        W31162  17.558   6.711   3.278
69500W        W31163  23.123  31.472  12.525
69501W        W31164  37.339  25.046   0.907
69502W        W31165  15.647  25.636   1.780
69503W        W31166  12.772  26.186  12.409
69504W        W31167  44.423  26.098  11.926
69505W        W31168  19.042  38.406   2.778
69506W        W31169   5.914  10.208  10.021
69507W        W31170  18.622   0.395  13.396
69508W        W31171  16.671  25.634  12.568
69509W        W31172  37.396   5.409  12.392
69510W        W31173   4.423  27.940  11.502
69511W        W31174  10.711  30.464  13.308
69512W        W31175   8.236  33.066   2.828
69513W        W31176   1.763  32.052  10.527
69514W        W31177  19.101  17.244  12.932
69515W        W31178  32.991  28.571   4.783
69516W        W31179  41.938  32.129  10.043
69517W        W31180   9.855  30.501   0.476
69518W        W31181  37.885  20.144  11.065
69519W        W31182   8.321  30.480   2.821
69520W        W31183  39.476   5.307  12.023
69521W        W31184  29.642  31.442  11.026
69522W        W31185  16.127  36.841   1.909
69523W        W31186  43.503  19.188  10.422
69524W        W31187  24.079  34.510   1.729
69525W        W31188   6.360  12.350   1.860
69526W        W31189   7.178   8.698   3.774
69527W        W31190  32.482  41.827  12.929
69528W        W31191  30.608  28.956  11.864
69529W        W31192  23.724  42.988   0.826
69530W        W31193   4.256  42.935  12.382
69531W        W31194   2.402   8.246  11.997
69532W        W31195  43.962  17.275  14.885
69533W        W31196  36.921  25.673   4.251
69534W        W31197  41.458  21.739  10.894
69535W        W31198  14.313   8.749  11.865
69536W        W31199  10.853   9.151  10.059
69537W        W31200   8.169  38.879   4.762
69538W        W31201   1.900   6.861  13.346
69539W        W31202  36.504  36.940  13.355
69540W        W31203  18.669  23.018  13.479
69541W        W31204  40.894  38.015  11.980
69542W        W31205  26.978  30.941   4.120
69543W        W31206   5.315   6.333  13.493
69544W        W31207  10.852  40.823   0.273
69545W        W31208  15.158  22.525   2.701
69546W        W31209  33.023  29.625  13.375
69547W        W31210   5.235  17.112  10.515
69548W        W31211  43.283   4.364  14.924
69549W        W31212   6.347   9.791   0.737
69550W        W31213  10.140  14.803   5.218
69551W        W31214  25.702  21.219  10.597
69552W        W31215  12.827  42.342   1.397
69553W        W31216   5.300  13.285   2.417
69554W        W31217  26.179  23.729  14.878
69555W        W31218  29.519   6.304   3.735
69556W        W31219  25.622   8.691   4.765
69557W        W31220  26.994  35.086   2.799
69558W        W31221  38.468  38.964  10.906
69559W        W31222   2.927  15.239  12.402
69560W        W31223  13.836   7.832  10.016
69561W        W31224   9.819  12.157  11.040
69562W        W31225  21.615  44.955   1.421
69563W        W31226   5.700  30.491   4.638
69564W        W31227  22.566  25.161   3.293
69565W        W31228   4.417  33.952   2.198
69566W        W31229  20.551   6.410  11.040
69567W        W31230  34.992   7.228   3.859
69568W        W31231   4.252  24.700  11.398
69569W        W31232  19.572   0.394   0.396
69570W        W31233  34.902  36.533   2.218
69571W        W31234   5.310   4.798   3.203
69572W        W31235  39.346  19.758   2.760
69573W        W31236  22.640  35.584   0.796
69574W        W31237  25.116   1.937   1.724
69575W        W31238   6.790   1.844   3.770
69576W        W31239   8.177  18.088  11.389
69577W        W31240  26.703  20.140   3.742
69578W        W31241  25.691  39.545  13.411
69579W        W31242  21.681  35.046  11.578
69580W        W31243  23.555  33.951   1.818
69581W        W31244  21.088  30.547  12.026
69582W        W31245  17.662  26.980  11.473
69583W        W31246  10.247  25.581  13.052
69584W        W31247  14.334  43.338   0.446
69585W        W31248  30.558  29.957  12.521
69586W        W31249   0.877  36.977  10.432
69587W        W31250  35.902  14.757  12.353
69588W        W31251  40.434  29.581  13.500
69589W        W31252  13.714  39.016  14.334
69590W        W31253  34.445   8.857  11.951
69591W        W31254  30.958  40.939   4.673
69592W        W31255  33.947  34.956   0.289
69593W        W31256  12.635  38.503   2.285
69594W        W31257   0.897  41.300   0.384
69595W        W31258  23.596   4.249  11.458
69596W        W31259  24.121  33.510  10.627
69597W        W31260  24.008  31.602  13.928
69598W        W31261  39.982  16.286   3.654
69599W        W31262   5.411  14.660  14.950
69600W        W31263  19.555   5.707   0.387
69601W        W31264  33.114  23.616   4.341
69602W        W31265  20.079  27.156   3.269
69603W        W31266  35.369  32.887   0.732
69604W        W31267  26.594   1.748  13.512
69605W        W31268  20.229   6.291  14.823
69606W        W31269  13.819   8.887  11.477
69607W        W31270   0.386  22.684  13.982
69608W        W31271  21.119   4.750   2.373
69609W        W31272   6.826  22.042   4.114
69610W        W31273  31.598  17.686   4.598
69611W        W31274   1.836   0.812   1.929
69612W        W31275   7.777   7.201  11.112
69613W        W31276  38.927  26.143   0.930
69614W        W31277  27.125  23.076  10.468
69615W        W31278   6.264   6.396   2.225
69616W        W31279   1.384  41.375   3.711
69617W        W31280  23.674  30.054  10.983
69618W        W31281  15.235  31.897  13.507
69619W        W31282  39.452   1.479  13.800
69620W        W31283  43.779  39.521   1.787
69621W        W31284  26.038  33.898   4.201
69622W        W31285  39.467  38.354   0.391
69623W        W31286  28.566  29.157   3.374
69624W        W31287  13.343  10.787  14.493
69625W        W31288  15.285  24.561   4.160
69626W        W31289  35.011  42.448   2.894
69627W        W31290  10.149  12.182  10.920
69628W        W31291   0.920  31.562   3.232
69629W        W31292  36.522  15.151  13.476
69630W        W31293  30.526   7.694   2.389
69631W        W31294  44.837  16.157  10.592
69632W        W31295  31.483  20.536   1.371
69633W        W31296   3.741  16.773  13.821
69634W        W31297  15.788  26.634   0.396
69635W        W31298  15.310  28.484  14.293
69636W        W31299  38.946  35.960   4.752
69637W        W31300   8.219  12.357  12.576
69638W        W31301   5.824  13.330  12.828
69639W        W31302  16.624  41.005  14.031
69640W        W31303  20.213  13.821  11.105
69641W        W31304  13.118  13.790   1.211
69642W        W31305   8.189  10.325   2.322
69643W        W31306  43.282  42.974  14.801
69644W        W31307  28.623   3.336  13.953
69645W        W31308  36.379  14.802   4.279
69646W        W31309  13.603  35.535  12.419
69647W        W31310   5.212   0.957   3.830
69648W        W31311  16.694  15.092  11.458
69649W        W31312  31.924  23.003  12.374
69650W        W31313  44.789  35.867  10.965
69651W        W31314  29.087  41.886   2.219
69652W        W31315   0.334  12.695   1.294
69653W        W31316   7.290  40.028   1.440
69654W        W31317  16.709  12.129   3.656
69655W        W31318  22.552  32.608   2.358
69656W        W31319  39.469  42.005   3.864
69657W        W31320  37.945  10.208   4.303
69658W        W31321   2.918  22.661   2.856
69659W        W31322  24.516  24.127  12.522
69660W        W31323  33.472  27.630   2.741
69661W        W31324  29.007   8.731  13.389
69662W        W31325  27.098  31.477  13.999
69663W        W31326   4.917  40.368   3.736
69664W        W31327  30.129  25.638   2.715
69665W        W31328  20.078  20.145  13.413
69666W        W31329  28.476   0.976   3.635
69667W        W31330  24.543  37.069   1.311
69668W        W31331  29.980  23.514   0.758
69669W        W31332   0.371  36.456  10.513
69670W        W31333  28.072  13.708  14.859
69671W        W31334   6.785  35.405  11.580
69672W        W31335   2.856  14.820  11.948
69673W        W31336  13.325  16.190   2.303
69674W        W31337  17.607  19.662  14.497
69675W        W31338   3.429  23.579   4.615
69676W        W31339   7.717  10.773   1.297
69677W        W31340  12.262  34.888  10.009
69678W        W31341  32.440   6.850  11.113
69679W        W31342   4.223  18.247  14.876
69680W        W31343  24.080  17.574  13.046
69681W        W31344  39.393  25.165   1.330
69682W        W31345  17.140  33.990  13.869
69683W        W31346  10.184   8.877  14.444
69684W        W31347   8.701   7.905   2.224
69685W        W31348  19.695  39.524  12.904
69686W        W31349  40.900  19.229  11.915
69687W        W31350   1.770  16.754   3.211
69688W        W31351  27.649  21.671   1.451
69689W        W31352  27.619  13.270  13.325
69690W        W31353  21.177  33.402  11.948
69691W        W31354  33.881  43.909   2.752
69692W        W31355  17.285  17.145   3.751
69693W        W31356  22.006  19.137   3.852
69694W        W31357  43.879  34.605   0.436
69695W        W31358  14.773  29.158   4.798
69696W        W31359  42.384  19.733  12.455
69697W        W31360  44.908  27.061  13.450
69698W        W31361  14.241   1.411  12.084
69699W        W31362  40.432  18.728  11.427
69700W        W31363  15.316  42.961  14.007
69701W        W31364   8.751  25.610  13.324
69702W        W31365  14.124   2.467   2.205
69703W        W31366  20.604  15.099   0.883
69704W        W31367  42.956  19.640   4.278
69705W        W31368  34.081   6.268  12.934
69706W        W31369   2.786  34.014  13.865
69707W        W31370  41.395  16.195   4.130
69708W        W31371  31.052  10.768   1.739
69709W        W31372  19.145   5.729   4.781
69710W        W31373  18.667  11.302  14.889
69711W        W31374  39.976  13.294  14.905
69712W        W31375  29.562  13.321   2.305
69713W        W31376   6.258  42.030  10.507
69714W        W31377   4.836  34.495   1.732
69715W        W31378  15.285  28.114  11.476
69716W        W31379  34.438   0.402  14.846
69717W        W31380  30.572  41.795  14.920
69718W        W31381  11.730  41.385   0.429
69719W        W31382  16.691  12.182  13.940
69720W        W31383  36.378  38.899   3.357
69721W        W31384  27.955  16.695  13.494
69722W        W31385  40.328  17.793   2.826
69723W        W31386  24.009  36.383   0.469
69724W        W31387  40.394  32.020  11.106
69725W        W31388  33.475  44.960   4.664
69726W        W31389  36.555  19.681   1.783
69727W        W31390  10.658  32.436  13.379
69728W        W31391  44.477  14.199   1.731
69729W        W31392   0.408  38.401   1.333
69730W        W31393  23.729  34.863   0.439
69731W        W31394  43.832  23.079  11.093
69732W        W31395  35.495  33.401   3.377
69733W        W31396  22.123  21.151   1.365
69734W        W31397  21.102  29.552   1.378
69735W        W31398  38.513   6.683   0.805
69736W        W31399  37.002   0.352  11.454
69737W        W31400  24.143  36.542   2.244
69738W        W31401  43.776   9.293   3.749
69739W        W31402  41.021  37.537  11.471
69740W        W31403  12.709  11.688   1.896
69741W        W31404   2.963   4.367  12.342
69742W        W31405   8.397   0.448   3.753
69743W        W31406  25.528  19.660  12.874
69744W        W31407   2.894  40.485   3.258
69745W        W31408   7.726   1.386   3.771
69746W        W31409  19.061   3.760  10.588
69747W        W31410  32.558  34.014   2.346
69748W        W31411  30.631   4.781   0.430
69749W        W31412  13.302  36.389   0.883
69750W        W31413  26.073  29.442   1.255
69751W        W31414  21.616  25.609   9.938
69752W        W31415  42.957  22.204   4.302
69753W        W31416  18.086  22.183  13.840
69754W        W31417  23.551   7.851   0.808
69755W        W31418  39.853  22.178  14.423
69756W        W31419  42.923   5.690   2.871
69757W        W31420  32.888  12.843  11.907
69758W        W31421  38.395  13.819   2.696
69759W        W31422   7.715  42.286   4.145
69760W        W31423   5.224  33.108   4.186
69761W        W31424  10.851  39.869  14.945
69762W        W31425  37.438  11.360  11.890
69763W        W31426  27.447   8.255  10.992
69764W        W31427   3.792  35.433  13.353
69765W        W31428   0.903  31.942   9.920
69766W        W31429  41.841  22.163   3.159
69767W        W31430  39.891  27.039   2.720
69768W        W31431  40.912  12.317  14.279
69769W        W31432  12.323  11.749   3.678
69770W        W31433  10.698  42.469  11.549
69771W        W31434  41.971   4.414  10.404
69772W        W31435   2.799   2.867   1.766
69773W        W31436  20.044  36.056   1.339
69774W        W31437  19.702  28.126  11.425
69775W        W31438  22.730  35.411  11.028
69776W        W31439  37.434  35.480   3.819
69777W        W31440  18.280   2.251  11.118
69778W        W31441  35.060  36.367   4.742
69779W        W31442  26.693  42.873  13.969
69780W        W31443  14.656   8.838  11.122
69781W        W31444   3.720  22.070   0.430
69782W        W31445  15.758  19.618   4.269
69783W        W31446  14.240  38.897   2.241
69784W        W31447  37.847  33.113  11.867
69785W        W31448  39.529  10.678  12.092
69786W        W31449  32.946  28.984  11.395
69787W        W31450  17.254  43.487   1.797
69788W        W31451  22.585  43.790  11.882
69789W        W31452  11.157  41.873  11.108
69790W        W31453  26.057  33.496  10.641
69791W        W31454  12.776  40.547  11.024
69792W        W31455   2.832  19.114  13.513
69793W        W31456  31.509  20.173   1.712
69794W        W31457  16.617  28.153  10.633
69795W        W31458  39.927   0.847  11.534
69796W        W31459  14.225  31.910   1.760
69797W        W31460  28.122  10.328   5.228
69798W        W31461   9.335  22.015   2.731
69799W        W31462   3.415  23.516  11.967
69800W        W31463   3.777  35.490  14.445
69801W        W31464  20.128   9.281  13.424
69802W        W31465  41.295  25.530  10.579
69803W        W31466  15.119  29.922   0.260
69804W        W31467   4.233   9.680  14.016
69805W        W31468  31.592  13.248   4.214
69806W        W31469  11.775  33.064   4.141
69807W        W31470  35.889  26.084   2.381
69808W        W31471   2.462  10.869   0.905
69809W        W31472  11.232   6.755   3.765
69810W        W31473  36.569  28.997   1.831
69811W        W31474  33.922   9.828   4.687
69812W        W31475  23.196  28.937   3.770
69813W        W31476   6.191  35.852   1.383
69814W        W31477  14.301  33.983   2.697
69815W        W31478   5.400  41.450   0.886
69816W        W31479  12.676  32.439   2.740
69817W        W31480  29.585   7.301   0.733
69818W        W31481   6.271  39.390  12.843
69819W        W31482  32.914  27.501  13.323
69820W        W31483   3.828  44.320   3.181
69821W        W31484  29.072  40.442   0.302
69822W        W31485  37.024   3.359   2.367
69823W        W31486  24.594  38.963  14.312
69824W        W31487  33.054  19.584   5.273
69825W        W31488  39.497   8.779   0.268
69826W        W31489  23.186   8.228  14.780
69827W        W31490   3.716   5.216   1.398
69828W        W31491  16.267  19.120   3.305
69829W        W31492   5.890  14.659  11.384
69830W        W31493  32.637   3.316   2.898
69831W        W31494  11.770  17.585   4.674
69832W        W31495  10.252  32.989   3.341
69833W        W31496  32.108  28.031   2.851
69834W        W31497   2.818   1.746  14.850
69835W        W31498   0.380  31.090   0.868
69836W        W31499   8.256  38.999  13.991
69837W        W31500   0.400   6.680   3.793
69838W        W31501   1.364  23.511  11.442
69839W        W31502  29.571  39.390   4.599
69840W        W31503  40.419   3.239   2.882
69841W        W31504  17.587  42.819  13.975
69842W        W31505   5.267  33.982  14.805
69843W        W31506   3.322  12.818  11.033
69844W        W31507  26.513  33.574  13.509
69845W        W31508  19.582  27.100   0.966
69846W        W31509  28.071  14.591  14.276
69847W        W31510   3.809  43.330   0.819
69848W        W31511   9.766   6.395   3.814
69849W        W31512  39.408  34.594   3.738
69850W        W31513  14.599  40.860  14.316
69851W        W31514  13.738  16.785   4.248
69852W        W31515  41.851   3.354   2.882
69853W        W31516  38.410   2.470   0.908
69854W        W31517  30.547  41.884  11.475
69855W        W31518  25.475   0.345  11.025
69856W        W31519  22.530  42.489   3.240
69857W        W31520  14.670   9.884  13.878
69858W        W31521  31.468  11.752  10.611
69859W        W31522  33.511   6.403  13.351
69860W        W31523   1.481  16.122   1.258
69861W        W31524  22.108   0.979  13.398
69862W        W31525  22.236  18.678  13.829
69863W        W31526   5.718  35.074  12.069
69864W        W31527  15.199  16.111  13.542
69865W        W31528  42.977  40.458  11.038
69866W        W31529  21.631   1.429  13.361
69867W        W31530  40.797  41.937   2.183
69868W        W31531  20.085   0.770   2.720
69869W        W31532  36.955  14.265   3.829
69870W        W31533   4.286   6.209   0.285
69871W        W31534  19.628  31.904   0.459
69872W        W31535  31.112  12.132  12.383
69873W        W31536  41.805  24.641   0.817
69874W        W31537  42.891   9.740  12.400
69875W        W31538  38.489  29.428   4.772
69876W        W31539  28.033  15.300  13.328
69877W        W31540  18.690  32.972  13.383
69878W        W31541   0.871   2.252  10.980
69879W        W31542  23.202  25.173  12.873
69880W        W31543  22.540  31.090  14.300
69881W        W31544  17.778  32.494  13.051
69882W        W31545  40.386  32.589   4.346
69883W        W31546  11.838  35.483  10.934
69884W        W31547   5.368  13.279   3.858
69885W        W31548   0.787   4.252   1.369
69886W        W31549  22.571  10.328  14.889
69887W        W31550  11.288  19.746  14.986
69888W        W31551  21.534  11.678  13.016
69889W        W31552  31.425   0.411   4.342
69890W        W31553   1.464  32.893   3.767
69891W        W31554  22.026  33.997   1.379
69892W        W31555  23.151  28.995   0.243
69893W        W31556  42.424  32.070  12.352
69894W        W31557   4.736  40.883  12.977
69895W        W31558  11.723  14.721  14.927
69896W        W31559   4.782  12.350   3.186
69897W        W31560  16.085   8.327   1.763
69898W        W31561  32.901   1.888  13.962
69899W        W31562  14.592   2.814  10.435
69900W        W31563  36.405  13.814   0.780
69901W        W31564  27.089  31.990   2.248
69902W        W31565  11.753  31.429   2.716
69903W        W31566   7.307  30.614  13.509
69904W        W31567  29.539  18.628   0.470
69905W        W31568  12.793  39.822   3.331
69906W        W31569  43.414  15.732   3.770
69907W        W31570  32.439   8.738  13.841
69908W        W31571  37.469  17.250  12.996
69909W        W31572  13.324  41.424  13.885
69910W        W31573  19.202  18.544   4.353
69911W        W31574   9.675  27.062  14.912
69912W        W31575  39.899  42.921   1.330
69913W        W31576   4.371   2.855  10.437
69914W        W31577  40.945   0.454   1.780
69915W        W31578  30.631  34.959  13.370
69916W        W31579  42.832   8.873   3.225
69917W        W31580   9.889  10.269  12.438
69918W        W31581  25.689  29.663   4.172
69919W        W31582  38.933   4.768  10.630
69920W        W31583  17.733   6.838  13.795
69921W        W31584  10.764  25.477   0.842
69922W        W31585  32.138  40.322  10.614
69923W        W31586  18.685   1.243   2.254
69924W        W31587  10.158  34.924  13.332
69925W        W31588  30.461  31.558  13.058
69926W        W31589  29.531  35.093  13.965
69927W        W31590  40.004  38.902   0.881
69928W        W31591  24.216   2.880  11.587
69929W        W31592  25.158  25.546  14.344
69930W        W31593  35.960   1.404  13.545
69931W        W31594  31.630   6.294   2.670
69932W        W31595  14.190  10.812  11.532
69933W        W31596  11.712  11.692  14.796
69934W        W31597  31.471  21.131  12.457
69935W        W31598  14.264  41.504  14.985
69936W        W31599  21.141  39.878  13.827
69937W        W31600  11.306  11.763  11.431
69938W        W31601  14.781  10.227   5.224
69939W        W31602  17.670   5.236   4.202
69940W        W31603  12.781  10.228  14.993
69941W        W31604  31.432  26.014   1.802
69942W        W31605   0.755  39.346  14.361
69943W        W31606   9.747  25.068  14.504
69944W        W31607   2.878  38.504   4.153
69945W        W31608   9.373   3.381   4.304
69946W        W31609   2.831  17.640   0.305
69947W        W31610   4.713  33.386   4.250
69948W        W31611   5.416  39.016   1.838
69949W        W31612  14.671  12.218   2.788
69950W        W31613  26.046   0.823   3.658
69951W        W31614  25.563  30.946   4.315
69952W        W31615  23.072  31.611  13.819
69953W        W31616   8.733   2.790  12.876
69954W        W31617  28.116  44.841  11.105
69955W        W31618  21.687  35.488  14.286
69956W        W31619  42.778  15.643   1.268
69957W        W31620   0.326  29.963   4.289
69958W        W31621  30.041   8.283  13.799
69959W        W31622  32.554   9.253  14.456
69960W        W31623  22.564  21.681   0.864
69961W        W31624  40.343   2.231   0.880
69962W        W31625  13.825  19.254  13.988
69963W        W31626   5.218  22.139   3.783
69964W        W31627   9.701  14.244  14.808
69965W        W31628   3.310  22.675   0.258
69966W        W31629  41.433   9.330   4.672
69967W        W31630  36.520  28.002  10.639
69968W        W31631  34.948  36.952   1.385
69969W        W31632  21.625  19.182  12.374
69970W        W31633  40.913  43.327   3.190
69971W        W31634  38.060   6.241  14.786
69972W        W31635  19.611  15.667  13.982
69973W        W31636  41.447  41.460  14.367
69974W        W31637  15.806  40.020   3.868
69975W        W31638  41.291   2.283   4.681
69976W        W31639   5.792   7.862   1.238
69977W        W31640  27.100   2.331  14.916
69978W        W31641   1.871  43.938   4.723
69979W        W31642  10.172  36.973   4.139
69980W        W31643  27.003  38.402  14.944
69981W        W31644  22.536   6.262   4.287
69982W        W31645  15.100   0.919   1.899
69983W        W31646  39.464  25.124   5.083
69984W        W31647   9.864  32.595   3.225
69985W        W31648   4.721  34.043   3.364
69986W        W31649  28.492   3.880   0.245
69987W        W31650  22.608  17.220   4.601
69988W        W31651  36.454  24.008  13.426
69989W        W31652  31.493  26.954  14.864
69990W        W31653  16.086   7.685  13.417
69991W        W31654   3.949  44.284   2.860
69992W        W31655  26.625  37.881   3.362
69993W        W31656  38.377  12.790  13.547
69994W        W31657  10.166  11.816  14.281
69995W        W31658   8.812  23.160   0.882
69996W        W31659  27.637   5.255   4.624
69997W        W31660   7.829  32.399   4.349
69998W        W31661  31.028   1.461  12.540
69999W        W31662  35.981  10.233   3.789
70000W        W31663  10.352   0.897   0.882
70001W        W31664  12.324  10.182  11.920
70002W        W31665  39.969   1.823  11.925
70003W        W31666   3.769   8.761  13.027
70004W        W31667  17.648  32.137  11.400
70005W        W31668   1.926  40.916   2.281
70006W        W31669  10.306  43.772  13.471
70007W        W31670  29.572  41.916   2.780
70008W        W31671  29.050   6.269  14.290
70009W        W31672  43.484  14.802   2.774
70010W        W31673  41.324  23.061   1.706
70011W        W31674  10.308  30.516  10.598
70012W        W31675  16.791  16.104   4.628
70013W        W31676  23.998  40.454   2.843
70014W        W31677   0.272  22.999  14.885
70015W        W31678  14.328  34.933   1.344
70016W        W31679  37.523  29.028   2.891
70017W        W31680   9.299  18.687  12.395
70018W        W31681  12.650   7.713  11.963
70019W        W31682  37.469  30.953   2.217
70020W        W31683  19.596  31.083  12.871
70021W        W31684  36.480   9.337  14.864
70022W        W31685  17.741  14.755  14.293
70023W        W31686  32.055  23.236   0.843
70024W        W31687  42.828  30.931  11.511
70025W        W31688  33.116   2.250   0.391
70026W        W31689  14.657  37.875   4.806
70027W        W31690   3.799  11.319   3.270
70028W        W31691  44.991  37.456   4.672
70029W        W31692  17.269  28.986   4.699
70030W        W31693  27.634  24.081   1.297
70031W        W31694  18.137  21.044  13.988
70032W        W31695  38.871  19.631   4.616
70033W        W31696  44.363  35.883  11.494
70034W        W31697  29.940  32.114  12.040
70035W        W31698  35.027  36.485  12.459
70036W        W31699  33.995  29.646   3.776
70037W        W31700  24.585   1.743   2.195
70038W        W31701  11.853  34.608   1.351
70039W        W31702  18.782  21.751  13.327
70040W        W31703  44.447  37.549  14.485
70041W        W31704   1.853  41.372   4.837
70042W        W31705  36.876  37.848  12.051
70043W        W31706  28.007  29.033  13.965
70044W        W31707   9.885   2.364  12.908
70045W        W31708  41.807  21.625   4.152
70046W        W31709  18.727  44.953   3.747
70047W        W31710   7.355   4.434  12.415
70048W        W31711  33.394  24.497   4.816
70049W        W31712  19.070  38.036   1.766
70050W        W31713  24.025  36.980   3.263
70051W        W31714  24.168  26.127  12.908
70052W        W31715  13.160  41.476   0.945
70053W        W31716   6.334  26.161  14.383
70054W        W31717   6.870   9.286  14.978
70055W        W31718  31.531  41.931  11.037
70056W        W31719   8.167   8.847  11.404
70057W        W31720  11.749  25.156   2.240
70058W        W31721  23.617  15.157  11.519
70059W        W31722  41.825  24.070  10.496
70060W        W31723  13.809  42.386  13.365
70061W        W31724  22.056  31.442  12.910
70062W        W31725  34.595   7.322   3.738
70063W        W31726  32.915  24.074   2.245
70064W        W31727   1.830  32.981   1.800
70065W        W31728  16.772  37.043  11.947
70066W        W31729   9.197  35.473   1.419
70067W        W31730  18.760  19.277  10.520
70068W        W31731  15.212  23.139  12.943
70069W        W31732  42.865  12.130   3.264
70070W        W31733  36.904   1.868   1.284
70071W        W31734   5.334  27.016  10.985
70072W        W31735  42.024  11.245   4.343
70073W        W31736  23.034  37.909   4.818
70074W        W31737  10.338  32.606   2.199
70075W        W31738  42.321  11.856  13.490
70076W        W31739   0.853  16.242  12.456
70077W        W31740  32.048  14.805   4.775
70078W        W31741  23.028  17.575   4.724
70079W        W31742   7.692  39.423   2.757
70080W        W31743  30.509  21.528  10.027
70081W        W31744  16.737  28.633   4.189
70082W        W31745  41.807  32.951  14.408
70083W        W31746   9.363   5.293  12.942
70084W        W31747  32.422  14.121  10.903
70085W        W31748  36.425  34.119   4.155
70086W        W31749  23.521   2.739   1.712
70087W        W31750  18.753   3.870  11.907
70088W        W31751  38.958   7.287   2.671
70089W        W31752  36.408  31.424  13.337
70090W        W31753   0.404  14.162  11.371
70091W        W31754  44.373  34.042   2.758
70092W        W31755   9.311  32.621   4.212
70093W        W31756  38.067   7.300   0.447
70094W        W31757  21.687   6.801   4.301
70095W        W31758  19.733  12.637  14.881
70096W        W31759  22.746  25.468  13.335
70097W        W31760  16.136  40.468   3.812
70098W        W31761  14.272  13.616  12.467
70099W        W31762  29.007  19.701   2.334
70100W        W31763   7.197   6.249  12.089
70101W        W31764  23.126   3.788  11.471
70102W        W31765   3.864  12.697   2.415
70103W        W31766  22.098  37.884   2.699
70104W        W31767  12.207   0.747   4.157
70105W        W31768  19.683  44.358   1.247
70106W        W31769  21.676  11.844  10.629
70107W        W31770  31.584  16.615   1.759
70108W        W31771   1.862  10.314  10.641
70109W        W31772  26.138   6.873   1.703
70110W        W31773  28.597  29.627  12.456
70111W        W31774  26.598  28.441   4.805
70112W        W31775   7.793  30.051   2.883
70113W        W31776   3.871  16.618   0.414
70114W        W31777  24.004  28.504  11.565
70115W        W31778  38.404  33.509  10.056
70116W        W31779   7.800   5.824   1.724
70117W        W31780  41.380  20.757   4.142
70118W        W31781  24.495   4.916   1.217
70119W        W31782  12.806  11.357   1.363
70120W        W31783  25.653  35.918  14.434
70121W        W31784  32.887  25.625  14.372
70122W        W31785  11.793   2.961  14.384
70123W        W31786  37.907  35.985  11.371
70124W        W31787  22.510  10.155   0.906
70125W        W31788   8.383   9.774  13.814
70126W        W31789  38.442  38.331  11.987
70127W        W31790  14.656  17.793   1.260
70128W        W31791  14.612  37.883   3.387
70129W        W31792  40.811   8.199   1.327
70130W        W31793  10.314  11.726   1.419
70131W        W31794  27.054  42.867  14.412
70132W        W31795  42.391   0.253   1.721
70133W        W31796  32.127  31.484  13.806
70134W        W31797  36.968  33.116  14.779
70135W        W31798  29.515  14.718   1.284
70136W        W31799  15.139  37.443   3.735
70137W        W31800  21.543  31.125   2.706
70138W        W31801  28.099  27.145   1.368
70139W        W31802  11.277  15.749  13.386
70140W        W31803  26.528  11.850   2.883
70141W        W31804  27.069  33.581   4.324
70142W        W31805  41.871   1.966  12.055
70143W        W31806  11.250  11.286  10.986
70144W        W31807  21.149  24.060  11.590
70145W        W31808  29.129  32.979  12.948
70146W        W31809  11.239  37.979   3.845
70147W        W31810  44.395   5.802  13.987
70148W        W31811  43.355  16.222  14.910
70149W        W31812  14.688  41.383  14.331
70150W        W31813  38.334   5.287   1.272
70151W        W31814  26.613  36.869   2.743
70152W        W31815  30.994  17.579  10.958
70153W        W31816  12.150   0.458  12.879
70154W        W31817  30.646  15.233  13.806
70155W        W31818  30.642  11.866  11.560
70156W        W31819   2.822  14.108  13.389
70157W        W31820  18.094  14.266   5.257
70158W        W31821  24.006  35.096   3.243
70159W        W31822  21.221  32.427  12.428
70160W        W31823  28.571  37.871  12.042
70161W        W31824  37.865  26.182  12.363
70162W        W31825  36.090  19.062  14.327
70163W        W31826  31.607  34.597  11.561
70164W        W31827   3.448   2.275  11.449
70165W        W31828  22.691  17.642   3.789
70166W        W31829  20.080  28.117  14.920
70167W        W31830  20.667  25.552   1.915
70168W        W31831  33.016  17.276  10.615
70169W        W31832  20.152   7.869   2.900
70170W        W31833  18.202  42.449   2.734
70171W        W31834   0.269  43.816   2.714
70172W        W31835  20.665  20.247   4.654
70173W        W31836  44.809  12.736   0.728
70174W        W31837  40.045  45.000   3.301
70175W        W31838  38.346  42.479   3.820
70176W        W31839  33.502  10.711  12.341
70177W        W31840  25.638   4.345  11.926
70178W        W31841  38.367  36.400  12.492
70179W        W31842  39.973  21.590  11.929
70180W        W31843   6.828   4.889  13.921
70181W        W31844  28.533   4.431  11.500
70182W        W31845  44.371  13.125   4.121
70183W        W31846  40.350  44.341  13.842
70184W        W31847  44.283   6.682  12.904
70185W        W31848   0.438  12.170  10.119
70186W        W31849   3.793  10.824  10.557
70187W        W31850   1.436  25.473   3.675
70188W        W31851  18.193  41.016  10.970
70189W        W31852  42.791   5.322  11.102
70190W        W31853  14.787   0.898   3.147
70191W        W31854  11.763  11.740   1.217
70192W        W31855  40.865  28.633   4.226
70193W        W31856  24.552  25.203   0.903
70194W        W31857  26.528  23.609   4.831
70195W        W31858  21.614   3.900   0.265
70196W        W31859  33.031  30.983   0.273
70197W        W31860   0.817  29.158   3.171
70198W        W31861   7.693  25.043   1.370
70199W        W31862   3.326  21.080  12.443
70200W        W31863  33.943  15.577   4.155
70201W        W31864  11.330   7.175  11.004
70202W        W31865   2.366  44.448   0.368
70203W        W31866  26.100  11.287  12.400
70204W        W31867  20.531  20.683  14.869
70205W        W31868  36.032   4.726   1.839
70206W        W31869  33.949  38.382   3.309
70207W        W31870   5.408  21.754   1.336
70208W        W31871   0.922  35.527   1.924
70209W        W31872  23.041  41.804   1.867
70210W        W31873  41.787   7.790  11.951
70211W        W31874  28.938  41.014  12.532
70212W        W31875  33.056  23.169   3.267
70213W        W31876  33.433   7.891   0.922
70214W        W31877  29.453  28.452  12.896
70215W        W31878  38.032  35.534  14.995
70216W        W31879  44.311  22.082  14.286
70217W        W31880   5.840  14.244  11.918
70218W        W31881  38.347  26.499   0.946
70219W        W31882  35.387  42.897   4.778
70220W        W31883  21.019  32.071   4.648
70221W        W31884  41.299  34.020  10.528
70222W        W31885  22.547   0.926  11.938
70223W        W31886  39.823  35.363  12.373
70224W        W31887  15.132  42.409  13.949
70225W        W31888  26.169  25.133  11.530
70226W        W31889  29.599  23.632  11.861
70227W        W31890  21.661  33.474   1.801
70228W        W31891  21.189  24.230  14.857
70229W        W31892  38.350   3.291   2.724
70230W        W31893   8.195  27.644  14.971
70231W        W31894  34.554  25.492  12.386
70232W        W31895  17.179  24.117   3.202
70233W        W31896  38.377  15.208  14.016
70234W        W31897  25.988   9.887  11.884
70235W        W31898  20.149  36.510   3.658
70236W        W31899  30.592  19.770   3.729
70237W        W31900  16.094  13.769  10.428
70238W        W31901   4.718  25.977   4.715
70239W        W31902  23.722   3.768  12.839
70240W        W31903  35.918   0.899   4.695
70241W        W31904  40.976   9.391   3.379
70242W        W31905   7.193  33.921   1.350
70243W        W31906   1.451  40.308  14.414
70244W        W31907  19.210  26.539  13.892
70245W        W31908  16.802  31.990  12.578
70246W        W31909  16.572  17.793  13.853
70247W        W31910  10.852  18.609   1.290
70248W        W31911  28.654  14.179   1.858
70249W        W31912  35.937  22.130   1.336
70250W        W31913  26.531  13.240  14.912
70251W        W31914  24.088  29.967   1.808
70252W        W31915  20.136  31.475   2.372
70253W        W31916  26.663  26.535  14.304
70254W        W31917  30.542  39.352  14.795
70255W        W31918  29.426  37.906  13.014
70256W        W31919   5.795   8.176  11.032
70257W        W31920  44.922  42.337  13.814
70258W        W31921   0.898   7.353   1.759
70259W        W31922  17.674  27.140   1.909
70260W        W31923  44.854  17.257   3.241
70261W        W31924  43.458   3.829  11.391
70262W        W31925   9.166  42.833  10.571
70263W        W31926   7.804  13.134   0.875
70264W        W31927  40.806   6.691  12.533
70265W        W31928  29.100  30.057   0.933
70266W        W31929  44.313  19.697  14.775
70267W        W31930  10.332  34.560  11.505
70268W        W31931  15.711   9.651   0.952
70269W        W31932   0.755  20.523   2.752
70270W        W31933  32.422  40.870  14.979
70271W        W31934  37.415  41.897  11.953
70272W        W31935  37.507  43.412   4.210
70273W        W31936  25.084  35.076  14.851
70274W        W31937  42.295  19.571  14.301
70275W        W31938  39.066  25.139  10.146
70276W        W31939  39.955  39.410   3.340
70277W        W31940  39.822  43.371  14.000
70278W        W31941  31.027  26.172   3.272
70279W        W31942   8.230  42.930   1.789
70280W        W31943  23.667  12.734   3.154
70281W        W31944  31.454  24.609   4.346
70282W        W31945  24.147  42.285  12.869
70283W        W31946   7.760   1.827   0.459
70284W        W31947  13.146  17.157  12.558
70285W        W31948  39.503   1.883   3.714
70286W        W31949  33.621   0.913   0.909
70287W        W31950  37.582   1.305  13.427
70288W        W31951   3.909  20.585  12.882
70289W        W31952  28.033   5.860  12.531
70290W        W31953  10.686   2.349  14.900
70291W        W31954  40.811  25.571   3.270
70292W        W31955  35.918   9.289  13.805
70293W        W31956   4.745  42.420   1.347
70294W        W31957  42.029   0.745   4.353
70295W        W31958   2.930  40.319   4.162
70296W        W31959   7.199  18.553   4.125
70297W        W31960  32.968  26.126   2.702
70298W        W31961   7.305  21.610  10.532
70299W        W31962  34.403  22.118  11.414
70300W        W31963   5.890   1.476   1.310
70301W        W31964   4.356   4.708   2.793
70302W        W31965  26.053  33.600  12.047
70303W        W31966  23.525  22.684   4.812
70304W        W31967  29.042  17.778  10.623
70305W        W31968  22.671  38.939   1.362
70306W        W31969  17.759  32.423  13.946
70307W        W31970  26.460  13.227   4.830
70308W        W31971  35.946  41.846   0.315
70309W        W31972  26.547   3.404   4.612
70310W        W31973  23.693  22.710  12.866
70311W        W31974   7.713   1.241   4.236
70312W        W31975  11.818  32.093  13.854
70313W        W31976  18.238  44.359   0.290
70314W        W31977  37.504  25.192   4.775
70315W        W31978   2.805  27.062   4.208
70316W        W31979  12.646   2.948  10.893
70317W        W31980  26.150  30.562  10.995
70318W        W31981  37.443   3.332   4.325
70319W        W31982  20.703   4.312  11.906
70320W        W31983   7.836  17.762   0.302
70321W        W31984  25.972  41.019  11.421
70322W        W31985  11.139   9.240  12.389
70323W        W31986  35.589  38.434  12.073
70324W        W31987  13.112  31.921  13.350
70325W        W31988  32.632  38.934  14.904
70326W        W31989  44.846   1.462   4.671
70327W        W31990   0.422  36.020  11.547
70328W        W31991   8.192   3.450  12.043
70329W        W31992  21.152  15.746   4.810
70330W        W31993  35.947  44.477   1.811
70331W        W31994  35.504  36.915  12.919
70332W        W31995   2.394  23.562   1.930
70333W        W31996  14.788  25.700  13.425
70334W        W31997  30.035  29.616  13.020
70335W        W31998  10.810   3.770  11.380
70336W        W31999  23.042  36.498  14.464
70337W        W32000  43.324   2.448   0.894
70338W        W32001  20.706  30.557  13.454
70339W        W32002  16.768  10.785   3.819
70340W        W32003  40.549  11.722  13.524
70341W        W32004  30.919  22.074  13.859
70342W        W32005  38.446   7.756   2.302
70343W        W32006  15.155   5.894  12.929
70344W        W32007   0.315   6.232  12.408
70345W        W32008  43.780  43.961  12.962
70346W        W32009  14.298  30.952   1.342
70347W        W32010  39.438  22.191   3.254
70348W        W32011  32.585  35.426  11.902
70349W        W32012  36.588  10.156  10.912
70350W        W32013  20.107  15.740  12.564
70351W        W32014  18.247  37.078  10.546
70352W        W32015   3.779  11.733   2.779
70353W        W32016   1.258  30.528  13.031
70354W        W32017  12.186  42.875   1.419
70355W        W32018   5.828  34.514   0.275
70356W        W32019   6.281  24.013   4.746
70357W        W32020  41.869   4.424   4.715
70358W        W32021   0.445  32.517  14.769
70359W        W32022  23.175  39.039  12.953
70360W        W32023   7.355  32.065   4.707
70361W        W32024  44.777  15.131  10.577
70362W        W32025   1.931  18.650   2.250
70363W        W32026  14.116  40.979  14.895
70364W        W32027  42.831  44.346   1.751
70365W        W32028  16.268  22.507  12.052
70366W        W32029  24.579  26.534   1.874
70367W        W32030  25.069  41.903  11.387
70368W        W32031   8.801  12.329   2.374
70369W        W32032  27.537  39.931  11.973
70370W        W32033  22.515  36.008  12.534
70371W        W32034  17.633  32.929   1.411
70372W        W32035  42.352  25.611   4.229
70373W        W32036  10.187   3.747  11.413
70374W        W32037   2.469  23.727   3.868
70375W        W32038  26.979  23.549   4.670
70376W        W32039  14.748  30.537   4.751
70377W        W32040  14.120  17.709   2.883
70378W        W32041  13.137  10.741   0.363
70379W        W32042  37.556  19.096  10.990
70380W        W32043  24.717  22.746  14.966
70381W        W32044  37.548  36.546   2.416
70382W        W32045  27.191   6.410  14.375
70383W        W32046  17.275   0.829  14.480
70384W        W32047  10.287  26.196   0.890
70385W        W32048  39.438   7.902   2.665
70386W        W32049  28.181   0.313   2.661
70387W        W32050  25.962  15.656  12.015
70388W        W32051  18.051  17.090  10.967
70389W        W32052   7.186  25.550   4.657
70390W        W32053  30.481  35.444  13.314
70391W        W32054  19.056  32.475   2.216
70392W        W32055  18.269   7.276   4.165
70393W        W32056  10.678  10.182  14.807
70394W        W32057   0.753   4.881   1.815
70395W        W32058   7.854  32.091   0.843
70396W        W32059   2.725   9.741  11.910
70397W        W32060   6.400  22.641   0.804
70398W        W32061  32.425   7.694  11.875
70399W        W32062  25.543  25.128  11.434
70400W        W32063  14.189   0.748   2.734
70401W        W32064  40.385  24.226  13.339
70402W        W32065  32.599  29.025  10.929
70403W        W32066  35.508   1.803  14.291
70404W        W32067  41.873  12.843  14.760
70405W        W32068  29.503  22.061  12.980
70406W        W32069  22.622  24.036  10.151
70407W        W32070  37.040   6.236   2.803
70408W        W32071  25.653  33.542  11.870
70409W        W32072   9.160  11.661  13.985
70410W        W32073  25.139  31.104  14.782
70411W        W32074  22.566  27.042  10.470
70412W        W32075   2.795  32.419   4.302
70413W        W32076  36.063  13.700   1.857
70414W        W32077   9.200  42.853  13.057
70415W        W32078   6.677  24.147  11.900
70416W        W32079  10.183  34.988   4.194
70417W        W32080  13.339  40.354  10.445
70418W        W32081  36.860  18.108  11.397
70419W        W32082  17.195  19.617  11.538
70420W        W32083  19.193   4.219   3.171
70421W        W32084   3.897   2.862  14.006
70422W        W32085   4.806  40.428   4.622
70423W        W32086  43.830  39.860   4.728
70424W        W32087  27.588   2.840  13.903
70425W        W32088  19.582   0.273   0.919
70426W        W32089  29.586  38.863  13.425
70427W        W32090   9.380  35.420  14.390
70428W        W32091  17.153   2.868   1.756
70429W        W32092   1.801  22.639  10.970
70430W        W32093  19.166   3.832  12.004
70431W        W32094  18.681  12.819  12.845
70432W        W32095  25.698  39.504   3.647
70433W        W32096   0.413  12.642  12.968
70434W        W32097  28.659  27.620  11.589
70435W        W32098  18.563  44.312  13.326
70436W        W32099   6.317   2.457   0.956
70437W        W32100  18.203  38.429   0.312
70438W        W32101  21.146   7.756  13.522
70439W        W32102   4.927  11.712   5.163
70440W        W32103   3.806  33.592   2.723
70441W        W32104  33.538  23.135   3.654
70442W        W32105  32.534  44.363   0.890
70443W        W32106   3.739   5.288  10.566
70444W        W32107  12.712  21.237   3.234
70445W        W32108   2.929  11.709  12.013
70446W        W32109   4.853  35.984   3.826
70447W        W32110  42.920  24.663  13.508
70448W        W32111   6.285  43.889  13.514
70449W        W32112  34.606  22.147  12.471
70450W        W32113  38.848  14.282   4.175
70451W        W32114  22.723  23.518   2.849
70452W        W32115  26.677   1.760  11.092
70453W        W32116   8.277   6.857  13.530
70454W        W32117   9.778  43.969   4.335
70455W        W32118  18.715  30.949   3.370
70456W        W32119   0.819   8.850   2.274
70457W        W32120  20.029  39.405   3.695
70458W        W32121   9.202  40.307  11.986
70459W        W32122  11.792   4.223  14.996
70460W        W32123  19.175  27.022   1.761
70461W        W32124  36.591  44.984  14.418
70462W        W32125  16.130   5.337  11.965
70463W        W32126   5.805  16.261  11.904
70464W        W32127  38.955  35.945  14.992
70465W        W32128  38.908  28.098   0.902
70466W        W32129  26.104  15.317  14.870
70467W        W32130  42.306   2.742  14.804
70468W        W32131  44.791  39.451   1.234
70469W        W32132  44.792   7.209  13.442
70470W        W32133  42.291  16.710   1.342
70471W        W32134  20.150  17.577  14.375
70472W        W32135  22.588  36.029   0.795
70473W        W32136   1.467  43.995  11.496
70474W        W32137   0.896   8.850   0.919
70475W        W32138   9.798  29.044   3.372
70476W        W32139  44.455  43.494  10.627
70477W        W32140  26.973  36.547   4.219
70478W        W32141  26.148  33.021   4.701
70479W        W32142   9.332  26.558   3.666
70480W        W32143   1.837  41.451  10.575
70481W        W32144   8.234  32.486   3.298
70482W        W32145   8.702   3.740   3.342
70483W        W32146   4.914   2.279   3.236
70484W        W32147  14.133   6.297  14.831
70485W        W32148   8.698  28.168   1.881
70486W        W32149   1.475  15.667   4.788
70487W        W32150  12.761  31.903  12.369
70488W        W32151  13.750   0.422  11.487
70489W        W32152  36.905  23.063   1.780
70490W        W32153   2.729  36.924   2.858
70491W        W32154   5.780  41.987   2.190
70492W        W32155  18.614  40.308   0.412
70493W        W32156  42.484   8.377  11.951
70494W        W32157  14.780  35.995   0.883
70495W        W32158  32.074   8.371  12.580
70496W        W32159   5.738  29.439  11.883
70497W        W32160  22.064  25.088   1.932
70498W        W32161  40.803  33.983  11.960
70499W        W32162  12.190  18.645   0.449
70500W        W32163  14.610  14.110   2.220
70501W        W32164  44.840  32.467   3.367
70502W        W32165  15.241  23.731  13.800
70503W        W32166  23.510  25.073   3.348
70504W        W32167  43.006  30.986   5.305
70505W        W32168  41.856  44.957   1.427
70506W        W32169   7.800   4.737   0.808
70507W        W32170  15.731  44.921   1.382
70508W        W32171  25.214  37.994  12.092
70509W        W32172  13.231  41.407  13.032
70510W        W32173  33.419   3.913  13.875
70511W        W32174  20.103  35.589  11.571
70512W        W32175  30.004  14.134   2.182
70513W        W32176  43.902  22.519   1.271
70514W        W32177  27.533   8.885   9.956
70515W        W32178  34.090  30.624  10.473
70516W        W32179  35.495  25.015   1.280
70517W        W32180  41.999  41.909   0.440
70518W        W32181  17.641  36.023   5.313
70519W        W32182  38.884  25.177  10.580
70520W        W32183   9.181  37.877  14.397
70521W        W32184  28.985   3.769   0.318
70522W        W32185  14.237  35.110  11.534
70523W        W32186  31.425  18.148   4.277
70524W        W32187  30.592  30.641  11.563
70525W        W32188   7.697  36.450   4.659
70526W        W32189  26.617  11.694   3.643
70527W        W32190  24.700   6.422   1.273
70528W        W32191  31.473   6.256   4.190
70529W        W32192  36.582  23.592  11.570
70530W        W32193  22.027  32.485  14.455
70531W        W32194  33.510  18.583   5.263
70532W        W32195  15.625  40.858  11.068
70533W        W32196   1.872  41.845  10.577
70534W        W32197  36.094  24.012  14.341
70535W        W32198  37.488  43.807  10.403
70536W        W32199  41.831   0.968   0.798
70537W        W32200  42.953  30.977   0.456
70538W        W32201  18.088  40.987  11.587
70539W        W32202  24.525  14.186  13.396
70540W        W32203  28.074  13.187   2.279
70541W        W32204   6.887  38.974   3.321
70542W        W32205  17.122  18.261  11.982
70543W        W32206   8.659   0.869  12.475
70544W        W32207  16.102  40.411  10.081
70545W        W32208   6.922  37.883   0.255
70546W        W32209  20.058   6.392  11.581
70547W        W32210  26.580  43.823   4.197
70548W        W32211  16.085   9.824  13.802
70549W        W32212  11.358  35.925  14.482
70550W        W32213  41.421  31.029  13.875
70551W        W32214  37.422  12.242  10.465
70552W        W32215  13.129  38.946  13.989
70553W        W32216  40.050  41.308  12.400
70554W        W32217  31.107  43.886  12.928
70555W        W32218  30.526  25.482   0.951
70556W        W32219  37.579  30.639  12.891
70557W        W32220  31.488  32.044   5.191
70558W        W32221   0.316   9.687  14.845
70559W        W32222   4.412  23.184  10.974
70560W        W32223  12.854  15.819   1.256
70561W        W32224   1.424  18.547   3.646
70562W        W32225  43.003  28.124   0.340
70563W        W32226  37.918  32.595   2.277
70564W        W32227  34.545  11.773   1.878
70565W        W32228  25.042  44.855   1.912
70566W        W32229  38.970  10.648   1.892
70567W        W32230  31.543  16.767  11.589
70568W        W32231  13.171   7.303   5.311
70569W        W32232   7.229  24.512  12.053
70570W        W32233  12.700   6.831  14.437
70571W        W32234  35.061  27.601  13.064
70572W        W32235   0.480  17.767   4.655
70573W        W32236  31.118  20.085   5.783
70574W        W32237  28.026  33.565  14.335
70575W        W32238  13.797  44.872  13.414
70576W        W32239  41.958  12.840   4.760
70577W        W32240  44.385  13.665  11.439
70578W        W32241  31.566  34.487   2.800
70579W        W32242   0.378  42.776   1.749
70580W        W32243   7.190  16.798   2.843
70581W        W32244  12.825   7.843   1.363
70582W        W32245   7.226  22.535   0.479
70583W        W32246  16.572  39.550   5.275
70584W        W32247  35.461  31.947  13.038
70585W        W32248   6.384  13.341  10.063
70586W        W32249  18.682   4.874  14.875
70587W        W32250   9.838  24.534   2.818
70588W        W32251  18.105   6.284  11.060
70589W        W32252  23.017  22.672  12.843
70590W        W32253  13.684   9.807   4.261
70591W        W32254  18.754  21.022   0.393
70592W        W32255  29.019  41.350   3.323
70593W        W32256   3.248  17.298   2.365
70594W        W32257  36.525  44.409  13.480
70595W        W32258  12.628   4.698   0.265
70596W        W32259  12.835  33.535   3.256
70597W        W32260  20.683  32.909   4.204
70598W        W32261  31.143  14.232   5.218
70599W        W32262  14.246  43.370  10.431
70600W        W32263  12.134  31.473  11.006
70601W        W32264  40.858  15.197  12.574
70602W        W32265  15.786  29.176  10.437
70603W        W32266  25.644  19.636  12.482
70604W        W32267  36.520  44.453   2.390
70605W        W32268  30.605  17.564  10.434
70606W        W32269  26.545  27.570   1.217
70607W        W32270  29.436  27.469   4.342
70608W        W32271  31.021  11.219  13.997
70609W        W32272   3.861  21.242   3.700
70610W        W32273  33.467  13.760   0.957
70611W        W32274   6.404   0.480  11.464
70612W        W32275   8.664   6.851   1.897
70613W        W32276   9.306   4.912   1.293
70614W        W32277  15.793  41.294   3.819
70615W        W32278  42.023  39.488   3.240
70616W        W32279  39.323  12.212   2.805
70617W        W32280   1.873  44.360   2.703
70618W        W32281   9.703  44.308  13.891
70619W        W32282  14.826  28.945  14.340
70620W        W32283  36.559   7.197  11.571
70621W        W32284   9.175  26.652  14.425
70622W        W32285   6.207  24.593   0.472
70623W        W32286   4.378  44.947  14.306
70624W        W32287  16.752  22.146   4.298
70625W        W32288  44.315  31.131   1.835
70626W        W32289  28.676  21.129  12.575
70627W        W32290  44.281  42.994   2.860
70628W        W32291  44.824  38.338  14.505
70629W        W32292  27.564  19.105   2.820
70630W        W32293  42.359  44.888  14.014
70631W        W32294  13.209   5.703   0.920
70632W        W32295  16.275  15.162  14.299
70633W        W32296   0.894  31.415  14.390
70634W        W32297  19.701  36.408   5.296
70635W        W32298  22.074   6.359  10.500
70636W        W32299  11.772   5.712  11.063
70637W        W32300  13.662  20.263   0.789
70638W        W32301  28.486  40.900  14.495
70639W        W32302  44.007   2.257   0.414
70640W        W32303   4.410  20.605   4.782
70641W        W32304  31.069  16.171  10.892
70642W        W32305  16.253  13.799   1.288
70643W        W32306  34.954  28.637   2.367
70644W        W32307   4.369  41.293  11.929
70645W        W32308  41.308   4.914  12.483
70646W        W32309   7.825  20.617  14.021
70647W        W32310  29.147  24.040  11.026
70648W        W32311  10.718  14.748   4.138
70649W        W32312  35.874  17.734   0.403
70650W        W32313   1.475   2.361   1.694
70651W        W32314  28.978  30.952   2.884
70652W        W32315  17.574  32.414   2.882
70653W        W32316  21.190  10.687   3.816
70654W        W32317  16.187  42.308  14.763
70655W        W32318  39.475   1.742   2.836
70656W        W32319  32.637  25.981  11.439
70657W        W32320   8.794  30.513  10.533
70658W        W32321  39.389  29.015  14.335
70659W        W32322  19.079  23.144  10.551
70660W        W32323  25.103  12.254  13.908
70661W        W32324  44.345  23.641  11.414
70662W        W32325  14.693   3.225   4.619
70663W        W32326  38.523  22.518   4.237
70664W        W32327  41.394  38.542  10.979
70665W        W32328  35.955  37.853  10.405
70666W        W32329  10.709  29.158  14.968
70667W        W32330   9.881  19.557   2.803
70668W        W32331   7.907  16.113   3.174
70669W        W32332  37.034   1.257  12.902
70670W        W32333  25.659  19.235  14.918
70671W        W32334   3.424   2.871   2.871
70672W        W32335   7.724  18.583  13.505
70673W        W32336  13.284  25.118  10.095
70674W        W32337  12.126  24.578   0.949
70675W        W32338  16.128  11.766  12.914
70676W        W32339  28.585  10.810   0.450
70677W        W32340   5.281  35.059   2.385
70678W        W32341  13.619  38.465  13.828
70679W        W32342   8.174  40.963   2.326
70680W        W32343   5.435   7.826   2.848
70681W        W32344  15.266  24.121  14.298
70682W        W32345  32.898  29.125  11.042
70683W        W32346  41.307  37.343  14.402
70684W        W32347  23.563  38.822  13.954
70685W        W32348   7.784   9.262   9.603
70686W        W32349  39.004  42.289  13.461
70687W        W32350  25.970   5.730  13.998
70688W        W32351  34.518  18.076   2.737
70689W        W32352  33.425  26.632   2.773
70690W        W32353   6.222  33.415   2.873
70691W        W32354  23.502  31.512   4.835
70692W        W32355  35.928  28.479   2.338
70693W        W32356  35.553  23.193   5.177
70694W        W32357  12.158  10.276  14.356
70695W        W32358   8.396  26.112  13.926
70696W        W32359   4.813  16.255  10.472
70697W        W32360   8.842  39.397   4.728
70698W        W32361  18.686   3.417  11.478
70699W        W32362  40.817  40.441   4.294
70700W        W32363   0.776  31.531   0.275
70701W        W32364  34.963   1.411  14.892
70702W        W32365   9.711  41.933   2.865
70703W        W32366  38.915  28.563   0.837
70704W        W32367  17.126  38.393  14.866
70705W        W32368  30.657   0.843  14.300
70706W        W32369  28.169  35.367  11.599
70707W        W32370  24.485  10.245   3.691
70708W        W32371  27.104   7.191  12.527
70709W        W32372   8.855   2.788  13.328
70710W        W32373  37.397  43.878   1.346
70711W        W32374  36.355   6.280   3.220
70712W        W32375  34.968  24.180  12.509
70713W        W32376  44.495  34.400  11.390
70714W        W32377  19.057  28.147   4.232
70715W        W32378  35.452  21.699   4.144
70716W        W32379  40.490  25.501   1.321
70717W        W32380  26.697  32.458  14.877
70718W        W32381  44.356   8.870   0.394
70719W        W32382  18.121  31.592   3.713
70720W        W32383   8.246   8.654   3.292
70721W        W32384  27.541  16.690   4.830
70722W        W32385  12.273  25.008   4.820
70723W        W32386   4.733  43.512   5.247
70724W        W32387  14.696  32.900   3.742
70725W        W32388  16.119  41.375   2.863
70726W        W32389  24.081  21.623   1.425
70727W        W32390  37.394  44.316  14.015
70728W        W32391   6.330   1.409  12.487
70729W        W32392   5.760  38.506   4.335
70730W        W32393  39.013  31.541   3.759
70731W        W32394  28.116  16.600  14.405
70732W        W32395  43.426  33.940  10.513
70733W        W32396  13.800  18.231  13.801
70734W        W32397  30.058   5.797  12.973
70735W        W32398  39.332   8.341  13.343
70736W        W32399   8.212  44.864   3.822
70737W        W32400  41.439  27.577  13.484
70738W        W32401  11.833   5.247  13.335
70739W        W32402  19.174  30.956  14.988
70740W        W32403   7.713  20.754   2.662
70741W        W32404  10.657  34.613   2.722
70742W        W32405  27.604  17.146  13.964
70743W        W32406  16.254  16.737   0.732
70744W        W32407  19.225  36.020   0.346
70745W        W32408  32.576   4.390   1.300
70746W        W32409   0.977   6.890  10.963
70747W        W32410  13.830  32.527  11.032
70748W        W32411  29.585  30.024   2.319
70749W        W32412  26.678   5.405   3.663
70750W        W32413  11.652   0.928  13.437
70751W        W32414  16.309  40.316  13.022
70752W        W32415  32.100   9.389  12.500
70753W        W32416  25.147   0.904   1.722
70754W        W32417  19.139  18.604  14.482
70755W        W32418  30.466  39.316  13.429
70756W        W32419  14.235   2.750  10.899
70757W        W32420  30.910  31.079  14.031
70758W        W32421  22.688  34.558   2.823
70759W        W32422  44.409  32.083   2.764
70760W        W32423   2.366  18.756  13.820
70761W        W32424  12.181  11.788  12.835
70762W        W32425  25.518  21.241   2.802
70763W        W32426   9.222   7.665   0.429
70764W        W32427  11.274  19.241  14.759
70765W        W32428   6.857   7.378  11.488
70766W        W32429  37.009  42.437  14.786
70767W        W32430   2.321  13.695  11.944
70768W        W32431  29.501  12.721  14.839
70769W        W32432  33.421   6.788   0.918
70770W        W32433  24.566  44.384   1.770
70771W        W32434  35.914   1.282  12.567
70772W        W32435  24.683   0.748  12.914
70773W        W32436  19.658  32.945  11.453
70774W        W32437  36.972  25.030   4.295
70775W        W32438  30.926  39.053   0.890
70776W        W32439   2.930  20.757  11.439
70777W        W32440   8.678  26.205  10.526
70778W        W32441  13.267  24.064   5.309
70779W        W32442  21.621  11.234   3.858
70780W        W32443  25.169  35.372  10.423
70781W        W32444   0.477  37.430  11.974
70782W        W32445  25.148   1.477  12.985
70783W        W32446  20.642  17.674  10.421
70784W        W32447   9.739  10.800  14.869
70785W        W32448  38.945  10.288  14.414
70786W        W32449  12.790   4.742   0.799
70787W        W32450  32.510   5.265  14.283
70788W        W32451  29.100  25.101   2.782
70789W        W32452   3.334  24.513   3.205
70790W        W32453   7.248  21.702   4.211
70791W        W32454  32.130  40.954  10.491
70792W        W32455  22.519  12.287   0.808
70793W        W32456  34.614  12.360   4.762
70794W        W32457  11.230  40.474   2.774
70795W        W32458  12.170  23.225   3.869
70796W        W32459  41.491  24.716  12.095
70797W        W32460  42.863  31.094   3.237
70798W        W32461  21.739  19.100  11.490
70799W        W32462  32.621  42.484   0.325
70800W        W32463  41.344   0.301   0.282
70801W        W32464  35.952  27.455  11.025
70802W        W32465  40.523  19.602  12.403
70803W        W32466  31.638  24.635   1.345
70804W        W32467  39.476  24.522  12.916
70805W        W32468   2.445  23.090  13.925
70806W        W32469   0.427  32.042  13.012
70807W        W32470  21.152  16.769  12.067
70808W        W32471  29.530  42.351  14.983
70809W        W32472  25.635  27.624   5.264
70810W        W32473  22.153   2.802   0.737
70811W        W32474   2.931   2.367  12.053
70812W        W32475  29.562  11.710  13.440
70813W        W32476  16.743  34.504   9.516
70814W        W32477  38.429  28.525   4.693
70815W        W32478  34.598  28.528   2.757
70816W        W32479   7.240  18.243   3.783
70817W        W32480  29.438  16.713   1.901
70818W        W32481  12.255  34.060   3.255
70819W        W32482  16.140   7.895   2.891
70820W        W32483   0.308  16.775   2.819
70821W        W32484  37.349   8.709  13.021
70822W        W32485  29.434  43.784   1.822
70823W        W32486  37.046   9.275  13.038
70824W        W32487  15.165  39.845  11.611
70825W        W32488   8.782   5.340   1.911
70826W        W32489  43.414  37.911  13.010
70827W        W32490  23.609   4.372   3.756
70828W        W32491  17.142  27.972   3.685
70829W        W32492  28.644   5.702  13.055
70830W        W32493   9.838  21.568   2.232
70831W        W32494  19.097  36.429   4.285
70832W        W32495  25.100  16.187   2.776
70833W        W32496  24.593  30.021  11.071
70834W        W32497  19.234  19.680   3.233
70835W        W32498   4.387  19.251  13.491
70836W        W32499  40.318  16.277   3.368
70837W        W32500   0.392  40.524  12.352
70838W        W32501  24.646  42.497  14.870
70839W        W32502  43.820   6.242   2.851
70840W        W32503  19.099  14.281   1.931
70841W        W32504  34.030  32.996   2.902
70842W        W32505   0.832  30.082  12.043
70843W        W32506  40.047   6.761  11.544
70844W        W32507  14.210  23.090   0.742
70845W        W32508  27.062  40.930  11.929
70846W        W32509   6.701  27.458   1.273
70847W        W32510  17.208  30.572   5.113
70848W        W32511   2.431  42.384  14.402
70849W        W32512  11.702  41.468  12.405
70850W        W32513  28.664  28.993   0.906
70851W        W32514  22.551  14.744  12.891
70852W        W32515  29.603  10.153  13.330
70853W        W32516  43.782   2.912  10.551
70854W        W32517  29.466   4.399   1.337
70855W        W32518  35.492  43.970  11.021
70856W        W32519  17.149  37.574   2.719
70857W        W32520  24.132  43.770   4.645
70858W        W32521  43.325  37.843  14.451
70859W        W32522   8.772  24.524   0.929
70860W        W32523  44.790   2.752   1.739
70861W        W32524   1.967   5.916   2.196
70862W        W32525   8.770  43.940  11.918
70863W        W32526  42.288  17.588   5.197
70864W        W32527   0.971  27.087   2.862
70865W        W32528  26.989   2.955   1.697
70866W        W32529   3.748   5.740  12.533
70867W        W32530  25.484  20.726   1.404
70868W        W32531  20.123   4.368  12.074
70869W        W32532  32.602  37.566   3.734
70870W        W32533   6.774  20.610   1.910
70871W        W32534  28.493  37.421   2.739
70872W        W32535  20.752  44.408  13.025
70873W        W32536  22.637  40.502  10.114
70874W        W32537  15.692   3.379  12.475
70875W        W32538   5.868  19.161   0.779
70876W        W32539  25.569  43.921   1.885
70877W        W32540  16.753  27.613   3.158
70878W        W32541  13.829  13.715   1.926
70879W        W32542  13.159  17.776   1.449
70880W        W32543  42.493   1.244   3.805
70881W        W32544  25.969  16.125   2.895
70882W        W32545  26.485  41.383   3.780
70883W        W32546  31.118  13.251   4.170
70884W        W32547   1.426   4.407  14.372
70885W        W32548  31.532  26.996   4.645
70886W        W32549   0.399  28.147   1.320
70887W        W32550  38.835  13.635  11.080
70888W        W32551  27.026  14.206   2.279
70889W        W32552  40.956   9.833  14.328
70890W        W32553  41.820  17.153   1.874
70891W        W32554  31.112  23.560   1.252
70892W        W32555  16.147   4.829  11.065
70893W        W32556   9.786  13.753   0.856
70894W        W32557  18.106   1.346  12.527
70895W        W32558  10.171   7.829   2.685
70896W        W32559  15.655  15.234  14.363
70897W        W32560  27.013  27.120   2.350
70898W        W32561  27.009  11.828   2.377
70899W        W32562  24.665  34.048  12.065
70900W        W32563  43.502  12.142   3.695
70901W        W32564  28.094  37.030  12.347
70902W        W32565  11.665  25.042  10.961
70903W        W32566   2.964   8.877   3.791
70904W        W32567   6.286  39.041   4.621
70905W        W32568   6.410  40.011   0.369
70906W        W32569  20.050  13.811   0.385
70907W        W32570  23.658  35.443   0.766
70908W        W32571  20.061  42.781   5.265
70909W        W32572  31.451   4.932  13.040
70910W        W32573  32.886   0.430  10.521
70911W        W32574   4.257  34.013  12.938
70912W        W32575  44.854  31.434  14.433
70913W        W32576   2.895  32.942  11.941
70914W        W32577  27.652  17.584   3.183
70915W        W32578  35.906  41.022   3.323
70916W        W32579   8.778  36.541  12.827
70917W        W32580  28.605  22.079  11.564
70918W        W32581  21.599  15.587   1.872
70919W        W32582   4.705   8.314   4.709
70920W        W32583  38.377  23.662   2.844
70921W        W32584  39.559  20.696   1.360
70922W        W32585  19.159  27.998   0.369
70923W        W32586  29.040  18.579  14.282
70924W        W32587  15.674  26.979   2.683
70925W        W32588  27.543  10.802  10.433
70926W        W32589  22.087   6.355  11.609
70927W        W32590  38.490  32.424   3.721
70928W        W32591  23.107  11.643  12.893
70929W        W32592   0.802  14.670  12.440
70930W        W32593  13.766  41.992  14.495
70931W        W32594  25.666   6.826  14.424
70932W        W32595  14.168  20.760   1.853
70933W        W32596   5.764  17.151  13.860
70934W        W32597  30.158  17.293  12.525
70935W        W32598  40.982  35.026   2.255
70936W        W32599  43.923  31.605   0.442
70937W        W32600  40.319  16.769   3.680
70938W        W32601  17.156  23.202   0.450
70939W        W32602  28.679   6.204  11.499
70940W        W32603  27.100  28.658   3.778
70941W        W32604  18.068   4.334   0.399
70942W        W32605  36.042  22.525  13.477
70943W        W32606  19.202   3.832   0.483
70944W        W32607   5.331  39.473  10.495
70945W        W32608  37.876  34.964   3.823
70946W        W32609  23.558  10.791  13.957
70947W        W32610  44.363  21.198  11.895
70948W        W32611   9.300  30.145   2.265
70949W        W32612  28.620  38.407   1.320
70950W        W32613  18.754   7.761  11.458
70951W        W32614  18.275   7.694  12.407
70952W        W32615  20.672  13.632   0.878
70953W        W32616  19.252  35.390   2.231
70954W        W32617   9.739   5.922  14.323
70955W        W32618  23.235  31.103   1.741
70956W        W32619   7.189  26.035  13.378
70957W        W32620   8.819   1.821   3.292
70958W        W32621  44.403   7.775   3.193
70959W        W32622  13.147  26.984   4.119
70960W        W32623  40.046  24.590  14.350
70961W        W32624  29.983  13.182  12.951
70962W        W32625   5.894  29.136  11.889
70963W        W32626  27.132  31.137   2.896
70964W        W32627  23.119  13.831  10.567
70965W        W32628  31.452  13.642  11.893
70966W        W32629  17.624  44.952  10.467
70967W        W32630   5.721  32.973  13.987
70968W        W32631  36.855  23.719   3.332
70969W        W32632  22.115   6.723  10.141
70970W        W32633  28.164  26.171  10.633
70971W        W32634   1.427  22.730   0.434
70972W        W32635  20.054  22.571   0.752
70973W        W32636  34.986  37.558   3.230
70974W        W32637  37.540  23.235  12.902
70975W        W32638  31.000  42.841  10.496
70976W        W32639  11.811  32.992  11.010
70977W        W32640   1.275  26.972   2.832
70978W        W32641   0.375   8.816  11.886
70979W        W32642  20.184  25.214  13.880
70980W        W32643  11.693   5.259  10.546
70981W        W32644  24.703  13.610  10.567
70982W        W32645  15.629  31.096   1.387
70983W        W32646   7.317  36.974   4.207
70984W        W32647  12.247  40.028   4.306
70985W        W32648  20.556   1.345  11.602
70986W        W32649  23.079  36.412  12.574
70987W        W32650   5.429  33.622  13.868
70988W        W32651  39.480  14.337  13.986
70989W        W32652   3.248   1.825   4.689
70990W        W32653  29.528   0.865  10.929
70991W        W32654  21.733  14.743   3.307
70992W        W32655  42.520  14.135  10.563
70993W        W32656   3.793  38.413  14.494
70994W        W32657  11.362  33.560  11.946
70995W        W32658  12.615  16.268  13.810
70996W        W32659  36.593   6.233  13.874
70997W        W32660   8.776  44.931   0.882
70998W        W32661  12.262  42.921  13.854
70999W        W32662  12.326  40.486  14.874
71000W        W32663  14.336  26.172  11.034
71001W        W32664  12.277   9.357   2.339
71002W        W32665  33.517  33.912   3.741
71003W        W32666  22.688  35.604  14.444
71004W        W32667   6.855   9.363   0.818
71005W        W32668  13.218  28.603   0.778
71006W        W32669  10.272  22.643  14.781
71007W        W32670  16.710  25.038   4.128
71008W        W32671  44.794  15.130   1.870
71009W        W32672   0.465  10.239  11.965
71010W        W32673  16.192  42.300  12.499
71011W        W32674   3.372  15.117  12.987
71012W        W32675  25.107  44.858  14.916
71013W        W32676  44.382   4.391  11.416
71014W        W32677  16.103  36.377   3.370
71015W        W32678   1.886  30.053  13.956
71016W        W32679  31.627   7.331  12.513
71017W        W32680  38.464   1.900   2.235
71018W        W32681  12.640  40.317   4.345
71019W        W32682  21.618  37.925  12.890
71020W        W32683  18.283  27.482  12.013
71021W        W32684  33.400   2.435   0.783
71022W        W32685   4.778  32.022   2.181
71023W        W32686   3.836  39.030   9.969
71024W        W32687  44.422  23.052  13.873
71025W        W32688  23.563  44.426  11.378
71026W        W32689   1.910   5.350   3.737
71027W        W32690   2.454  22.529  11.016
71028W        W32691  36.522   8.820  10.989
71029W        W32692   4.367  16.675   0.367
71030W        W32693  31.082  16.746   2.794
71031W        W32694  38.396  17.275  13.863
71032W        W32695  34.949   6.355  14.290
71033W        W32696  16.201  24.640  14.867
71034W        W32697  24.061  40.980  12.574
71035W        W32698  16.571  14.107   4.626
71036W        W32699  16.695  31.010   1.423
71037W        W32700  40.523   9.734  12.469
71038W        W32701  18.736  22.632  11.525
71039W        W32702  33.597  39.382  10.478
71040W        W32703  33.026  28.503  13.868
71041W        W32704  33.068   5.411   1.307
71042W        W32705  30.557   0.447   0.791
71043W        W32706  27.140   8.669  12.347
71044W        W32707  35.436  11.208  13.848
71045W        W32708   7.281  31.055   3.273
71046W        W32709  42.392  43.932  14.494
71047W        W32710  44.320  17.172   2.869
71048W        W32711  24.633   5.801   0.468
71049W        W32712  24.584  24.574  12.341
71050W        W32713  10.706  15.784  14.031
71051W        W32714   5.283  33.496  14.347
71052W        W32715  15.195   3.373  12.393
71053W        W32716   5.364  34.897  12.407
71054W        W32717   6.798  12.746   0.251
71055W        W32718  29.637   7.904   3.336
71056W        W32719  43.789  36.018   1.239
71057W        W32720  23.020   1.761   9.451
71058W        W32721  44.369  34.980   2.413
71059W        W32722  22.189  22.119   2.201
71060W        W32723  20.064  17.690  13.309
71061W        W32724   3.940  23.618   2.891
71062W        W32725  38.475  26.479   1.298
71063W        W32726  11.231  15.226  14.318
71064W        W32727  14.835  41.915  11.882
71065W        W32728  13.138  17.782  10.568
71066W        W32729   7.248   0.351  11.398
71067W        W32730  37.869  21.111   3.711
71068W        W32731   2.435   7.691   1.855
71069W        W32732  22.131   6.320  14.509
71070W        W32733  28.595  11.799   4.141
71071W        W32734   8.713  15.787   3.346
71072W        W32735   4.709  18.738  11.099
71073W        W32736  10.347  43.492  13.376
71074W        W32737  22.100  29.497   0.877
71075W        W32738  10.333   9.385   4.141
71076W        W32739  20.635   6.264  14.425
71077W        W32740  27.989  38.024  10.052
71078W        W32741  15.248  34.561  11.002
71079W        W32742  33.008  22.525  14.341
71080W        W32743  31.447  38.071  12.995
71081W        W32744  37.342   1.767  14.978
71082W        W32745  44.361  21.673   3.688
71083W        W32746  22.051  14.716  14.439
71084W        W32747  24.144  22.149  14.805
71085W        W32748  30.935   8.372  14.277
71086W        W32749  23.615   5.708  12.095
71087W        W32750  12.290  41.493   2.316
71088W        W32751  21.223  19.046   0.337
71089W        W32752  18.762  28.471  14.822
71090W        W32753  16.731   3.928   3.267
71091W        W32754  32.026  24.691  12.571
71092W        W32755  34.499  28.537  11.961
71093W        W32756  10.706  36.983  14.977
71094W        W32757  38.462  36.068   4.298
71095W        W32758  39.437  27.555   1.242
71096W        W32759  44.873  24.530  14.387
71097W        W32760  32.401  11.360  14.001
71098W        W32761  14.323  38.062   0.961
71099W        W32762  23.555  37.436  10.480
71100W        W32763  24.053   9.183  12.421
71101W        W32764   7.400  14.677   2.883
71102W        W32765  15.236   9.211   2.772
71103W        W32766   8.810  16.599   0.313
71104W        W32767   3.385  17.117  13.935
71105W        W32768  39.462  23.082  10.927
71106W        W32769   1.885  10.858   1.256
71107W        W32770  33.099  16.653  13.341
71108W        W32771  13.334   5.302  12.514
71109W        W32772  17.669   0.869   0.452
71110W        W32773   6.240  13.787  12.899
71111W        W32774  41.831   2.317   1.899
71112W        W32775   7.724  22.246  14.306
71113W        W32776  19.707  19.630   3.297
71114W        W32777  22.155  11.722  12.503
71115W        W32778   2.245   0.428   4.604
71116W        W32779  14.308  17.109   0.929
71117W        W32780  34.962   1.777  12.362
71118W        W32781   6.354  16.226   0.813
71119W        W32782   7.753   7.826   3.831
71120W        W32783  21.597  32.885  10.495
71121W        W32784   9.888  13.306  12.004
71122W        W32785  41.999  32.109   1.795
71123W        W32786   5.881  16.239   0.242
71124W        W32787   0.875  10.641  12.469
71125W        W32788   9.176  18.108  10.938
71126W        W32789  13.245  29.664   1.879
71127W        W32790  42.943  11.368   4.193
71128W        W32791  36.409  34.009   1.923
71129W        W32792  35.362  27.600  13.325
71130W        W32793  15.231   2.354   0.893
71131W        W32794  32.486  23.131  11.925
71132W        W32795  26.684  11.150   3.701
71133W        W32796  37.369   5.757   0.832
71134W        W32797  20.635  40.958  13.365
71135W        W32798  18.682  24.548   3.223
71136W        W32799  35.035  13.747   3.831
71137W        W32800  35.370  15.239  14.813
71138W        W32801  34.019   2.249  10.437
71139W        W32802  27.524  41.939   1.387
71140W        W32803   7.279   1.434   2.894
71141W        W32804  17.239  13.327   4.136
71142W        W32805   7.892  11.630   0.839
71143W        W32806  18.210   0.952   4.268
71144W        W32807  11.662   5.346  11.446
71145W        W32808  34.044  29.068  13.947
71146W        W32809   9.303  44.882   0.901
71147W        W32810  27.527   7.861   3.702
71148W        W32811  14.803  36.082   1.349
71149W        W32812  37.947  40.341  14.903
71150W        W32813  32.972  23.048  14.854
71151W        W32814  10.645   3.944   1.359
71152W        W32815  20.084  38.967   4.224
71153W        W32816  30.519  37.365  11.412
71154W        W32817   4.216  23.675  14.960
71155W        W32818  21.215   3.898   4.199
71156W        W32819   6.193  40.387   2.189
71157W        W32820  15.311  23.710   2.411
71158W        W32821  41.484  27.962  14.837
71159W        W32822  41.863  36.391  10.896
71160W        W32823  36.498  37.413   4.600
71161W        W32824   6.312   3.422   0.807
71162W        W32825  38.380  20.099  13.879
71163W        W32826  37.463  19.722  11.952
71164W        W32827  10.282  27.093   1.285
71165W        W32828   9.271   5.927  12.495
71166W        W32829   3.792   6.749   1.383
71167W        W32830  42.376  25.056  14.927
71168W        W32831  42.961  22.692  14.496
71169W        W32832  35.440  41.400   1.303
71170W        W32833  39.460  19.190   1.855
71171W        W32834  28.034  18.642  13.481
71172W        W32835  22.698   8.290   0.845
71173W        W32836  44.790  30.139   3.253
71174W        W32837  13.121   0.852   0.264
71175W        W32838  32.130  22.165   3.738
71176W        W32839  41.461  10.793   0.282
71177W        W32840  30.021  17.230  13.013
71178W        W32841  16.796  26.692  14.400
71179W        W32842   0.984  36.531  14.949
71180W        W32843  21.089  38.004   2.798
71181W        W32844  11.257  18.693  13.950
71182W        W32845  15.264  33.427   3.304
71183W        W32846   2.283  31.126   1.307
71184W        W32847  16.127  12.716  14.889
71185W        W32848  17.291   5.696  13.427
71186W        W32849   2.415   7.383   1.722
71187W        W32850   5.870  44.890   2.202
71188W        W32851  40.306  39.417  14.875
71189W        W32852  16.312  21.733   2.871
71190W        W32853   5.259  38.859   2.296
71191W        W32854  25.156  30.501  14.845
71192W        W32855   0.913  27.539  14.845
71193W        W32856  41.860  36.437  13.984
71194W        W32857  24.515  24.547   3.348
71195W        W32858  14.635  19.744  13.035
71196W        W32859  42.879  28.098   2.676
71197W        W32860   3.335  34.466  14.512
71198W        W32861  41.494  23.716   0.331
71199W        W32862  27.143  21.735   1.862
71200W        W32863  29.525  27.474   0.271
71201W        W32864  31.098  28.991   4.677
71202W        W32865  39.448   6.806   2.310
71203W        W32866  14.135  26.681   0.404
71204W        W32867  11.128  37.988   4.661
71205W        W32868  18.290   3.235   4.344
71206W        W32869  22.588   2.814   0.417
71207W        W32870  39.524  41.356  14.367
71208W        W32871  25.561  11.755  12.502
71209W        W32872  27.537  12.256   2.759
71210W        W32873   7.897  12.683   3.177
71211W        W32874  10.683  13.327   3.761
71212W        W32875  29.931  30.941   2.804
71213W        W32876   5.238  35.017  10.994
71214W        W32877   0.816  15.766  11.018
71215W        W32878  27.477  25.542  13.528
71216W        W32879  20.635  26.979  14.409
71217W        W32880  11.628  30.945  13.917
71218W        W32881  44.500  41.510  11.397
71219W        W32882  30.119  31.131   1.343
71220W        W32883  13.787   6.711   3.335
71221W        W32884  40.317  31.032   1.406
71222W        W32885  37.940  19.663  10.443
71223W        W32886   5.291   5.273  11.922
71224W        W32887  14.828  29.995  13.508
71225W        W32888  16.184  39.060  10.988
71226W        W32889  25.043  30.434   0.802
71227W        W32890   6.243  43.354  12.348
71228W        W32891   6.755  35.930  12.501
71229W        W32892   8.239  21.151   1.698
71230W        W32893  36.393  24.657  13.970
71231W        W32894   1.270  28.590  12.491
71232W        W32895  43.446  42.369   3.244
71233W        W32896  39.854   2.403  10.581
71234W        W32897  10.259  27.587   3.682
71235W        W32898  39.024  44.809   3.324
71236W        W32899   6.363  10.188  14.470
71237W        W32900  20.692  31.989  11.484
71238W        W32901  24.103  41.962   3.268
71239W        W32902   8.666  32.540   3.267
71240W        W32903  40.906  19.193   3.720
71241W        W32904  44.990  20.176   3.827
71242W        W32905  37.408   5.389   4.129
71243W        W32906  35.395  25.576  14.936
71244W        W32907   5.383  39.028  12.422
71245W        W32908  41.899  34.989   2.818
71246W        W32909   8.256  13.743  11.962
71247W        W32910  38.989  17.231  12.079
71248W        W32911   0.816  16.238   2.193
71249W        W32912  33.455  41.019   4.805
71250W        W32913  14.262   2.899   4.603
71251W        W32914  35.529  37.864   3.732
71252W        W32915   3.261   9.782  10.993
71253W        W32916  29.023   4.807  12.001
71254W        W32917   2.914   2.439  14.391
71255W        W32918  38.417   0.754   1.928
71256W        W32919  14.713  18.559   0.351
71257W        W32920  28.634  34.431  10.529
71258W        W32921  27.125   1.469   1.805
71259W        W32922  27.599  17.146   3.261
71260W        W32923  10.268  25.061  13.924
71261W        W32924  34.515  38.499  10.965
71262W        W32925  20.730  19.668   1.735
71263W        W32926  25.018  24.123  10.078
71264W        W32927   1.474   9.694   0.796
71265W        W32928  23.527  29.077   4.172
71266W        W32929  25.689  29.106   0.946
71267W        W32930   7.335  25.219  11.476
71268W        W32931  16.280  32.923   0.858
71269W        W32932   5.876  17.776  10.510
71270W        W32933   2.432  37.087   0.375
71271W        W32934   2.347  30.046   2.785
71272W        W32935  35.426  22.556   0.730
71273W        W32936   1.841   7.313  11.014
71274W        W32937  11.657  26.197  11.887
71275W        W32938   9.808  33.531  13.059
71276W        W32939  28.529  34.536  14.513
71277W        W32940   6.354  38.864   4.288
71278W        W32941  20.119   9.351  14.372
71279W        W32942   1.852  13.642  14.362
71280W        W32943  13.221  25.626  12.409
71281W        W32944  30.594  34.577  14.493
71282W        W32945  16.671  39.889   4.130
71283W        W32946  25.193   3.815   3.335
71284W        W32947  11.807  26.595  12.543
71285W        W32948  31.628  28.158   1.886
71286W        W32949   5.882  12.241  11.058
71287W        W32950  14.616  35.063   3.213
71288W        W32951  33.982  17.070  11.898
71289W        W32952   1.444  15.197   2.248
71290W        W32953   8.289  16.316   0.882
71291W        W32954  26.690  23.703  12.388
71292W        W32955  18.788  44.261  14.981
71293W        W32956   0.379  20.261  10.637
71294W        W32957  27.011  18.733   3.152
71295W        W32958  26.079  36.413  13.312
71296W        W32959  22.723  44.787   2.329
71297W        W32960  32.042  42.009   5.244
71298W        W32961   8.776  24.698   2.676
71299W        W32962  39.500   0.416   3.191
71300W        W32963  16.704  36.514   3.862
71301W        W32964  23.053  30.145   2.818
71302W        W32965  41.821  36.525  12.393
71303W        W32966   0.934   0.317   1.364
71304W        W32967  22.606  11.839   2.752
71305W        W32968  12.280  27.538   3.239
71306W        W32969  22.526  13.680   4.184
71307W        W32970  25.483  30.122  10.594
71308W        W32971  23.507  34.390  12.406
71309W        W32972  42.947  21.615   2.269
71310W        W32973  21.655   8.790  11.071
71311W        W32974  33.410  26.595  11.541
71312W        W32975  13.271  13.140  14.884
71313W        W32976  39.490  25.208  13.393
71314W        W32977  36.090  23.631   2.683
71315W        W32978  42.973   5.200  13.021
71316W        W32979  23.052  36.976   3.291
71317W        W32980  20.064  30.502   4.235
71318W        W32981   5.790  27.965  13.957
71319W        W32982  14.775  22.647   4.657
71320W        W32983  15.624   1.890   0.774
71321W        W32984   3.894  15.784   4.315
71322W        W32985  43.360  16.154   4.281
71323W        W32986  24.165  27.952  11.507
71324W        W32987  27.014  31.594  14.352
71325W        W32988  29.979  28.134  14.026
71326W        W32989  29.984  23.069  12.353
71327W        W32990  42.977  16.252  12.854
71328W        W32991  24.059  42.412  10.503
71329W        W32992   0.484  17.171  10.631
71330W        W32993  17.226  28.998  11.597
71331W        W32994  22.671  23.107   3.761
71332W        W32995  22.674  32.414  12.942
71333W        W32996  42.829   2.460   2.691
71334W        W32997  16.233  26.188   4.347
71335W        W32998  32.587  29.452  13.805
71336W        W32999  28.107  17.210  12.875
71337W        W33000  16.270  19.121  12.093
71338W        W33001  23.668  33.901  13.410
71339W        W33002   2.795   5.920  14.769
71340W        W33003   2.404  40.037   1.273
71341W        W33004  13.348  34.889   1.263
71342W        W33005  10.256   0.919  12.868
71343W        W33006  18.736  37.351  13.487
71344W        W33007  28.023   7.246   4.673
71345W        W33008   5.263  42.380  10.599
71346W        W33009  27.082  34.392   1.801
71347W        W33010  24.170  20.576  13.045
71348W        W33011   1.914  22.587   4.220
71349W        W33012  28.973   6.220  11.550
71350W        W33013  38.062  24.540  12.910
71351W        W33014  42.504   4.885  11.115
71352W        W33015  27.662  35.548  12.371
71353W        W33016  13.190   4.347   1.739
71354W        W33017  33.461  36.399   4.811
71355W        W33018  12.740  20.573  13.942
71356W        W33019  26.977  39.348   5.277
71357W        W33020  36.872   1.480   0.795
71358W        W33021  14.813  34.935  12.377
71359W        W33022  27.120  17.218   9.964
71360W        W33023  23.514  14.248   4.136
71361W        W33024   4.779   2.242   0.369
71362W        W33025   7.408  36.361  13.882
71363W        W33026  19.745  33.539   4.804
71364W        W33027  25.039  21.171  13.354
71365W        W33028  28.525  33.515   4.116
71366W        W33029  29.921  21.167   5.099
71367W        W33030  14.291  41.920   4.816
71368W        W33031  13.665  28.059   1.868
71369W        W33032   3.778  42.281  12.837
71370W        W33033  21.136  28.656  11.599
71371W        W33034  24.624   3.855   1.778
71372W        W33035  37.986  36.093  12.993
71373W        W33036  24.096  13.153   2.318
71374W        W33037   4.232  31.930  10.952
71375W        W33038  28.454  13.803  14.455
71376W        W33039  41.492  15.127   3.680
71377W        W33040  26.999  27.672   2.237
71378W        W33041   1.946  11.633   3.667
71379W        W33042  34.091  29.985   0.948
71380W        W33043   3.273  27.526   1.819
71381W        W33044  28.500  40.532   4.175
71382W        W33045  41.930   7.878   3.247
71383W        W33046   8.355  29.137   0.785
71384W        W33047  23.710  36.359   0.891
71385W        W33048  11.154  29.939  11.861
71386W        W33049  44.789  33.106  11.429
71387W        W33050  18.754  40.358   5.255
71388W        W33051  22.253  19.120   4.773
71389W        W33052  20.750  35.574   3.300
71390W        W33053  27.026  15.116   1.303
71391W        W33054  13.206  10.280  14.293
71392W        W33055   2.720   1.755  10.889
71393W        W33056   2.334  40.321   3.196
71394W        W33057  32.109  18.759  14.314
71395W        W33058  21.720  14.313  14.948
71396W        W33059  41.860  20.638  10.562
71397W        W33060  44.439   0.450  14.793
71398W        W33061   9.241  15.686  12.531
71399W        W33062   1.244  15.223  14.480
71400W        W33063  36.995  18.230   3.209
71401W        W33064  24.067  16.701  13.473
71402W        W33065  35.033  21.516  10.586
71403W        W33066  24.078   6.686  14.760
71404W        W33067   7.842  13.636   1.224
71405W        W33068  30.907  27.087  12.847
71406W        W33069  39.061  11.678   2.294
71407W        W33070   1.958   4.866   1.270
71408W        W33071   0.805  29.168   2.783
71409W        W33072   9.662  43.920   0.832
71410W        W33073  27.040  27.561   3.749
71411W        W33074  21.129  38.500   2.670
71412W        W33075  32.424  15.275  14.305
71413W        W33076   6.237  29.052   4.646
71414W        W33077  40.876  30.544  12.542
71415W        W33078  30.618  28.151   4.183
71416W        W33079  14.631   7.874  10.410
71417W        W33080  33.539   9.249   4.199
71418W        W33081  18.760   9.266   3.346
71419W        W33082  36.964   8.841   2.729
71420W        W33083  25.129  22.236  11.904
71421W        W33084  26.110   1.275   0.926
71422W        W33085  33.488   1.778   3.631
71423W        W33086  15.194  28.674   4.714
71424W        W33087   0.313  43.278   2.347
71425W        W33088  16.697  29.960   0.446
71426W        W33089  41.385   1.962  13.972
71427W        W33090  38.342  28.163  11.597
71428W        W33091  37.909   4.319  11.433
71429W        W33092   9.661  32.615   0.366
71430W        W33093  44.376  42.363   1.210
71431W        W33094  43.859   6.213   3.638
71432W        W33095  25.599  26.475   5.318
71433W        W33096   4.308  14.649   1.821
71434W        W33097  18.760  13.827  12.886
71435W        W33098  42.396   7.417   2.861
71436W        W33099  18.092  26.039  14.856
71437W        W33100  31.532  12.745   0.857
71438W        W33101  21.639  18.609   3.632
71439W        W33102  38.912  43.777   3.776
71440W        W33103  17.688  16.279   1.305
71441W        W33104  44.429  28.133   2.802
71442W        W33105   9.279   9.194  12.860
71443W        W33106  25.608  41.935  13.423
71444W        W33107  36.475  16.185   4.764
71445W        W33108  40.356  35.516  13.492
71446W        W33109  19.050   7.401   1.403
71447W        W33110   0.864  40.017  13.404
71448W        W33111  30.466  32.079  11.880
71449W        W33112   5.230  29.524   2.751
71450W        W33113   5.279  18.760  12.906
71451W        W33114   4.408  18.614   3.699
71452W        W33115  35.032   1.921   9.973
71453W        W33116  29.510  19.750   0.807
71454W        W33117  40.866  36.487  13.364
71455W        W33118   7.707   3.911   2.232
71456W        W33119   0.441  18.180  12.011
71457W        W33120   6.697  28.609   1.244
71458W        W33121  35.433   9.873  14.411
71459W        W33122  22.112   5.198  13.903
71460W        W33123  17.789   7.784   1.266
71461W        W33124  27.978  12.620  10.546
71462W        W33125  32.934  27.989  11.026
71463W        W33126  20.044  38.359   1.919
71464W        W33127   9.884  12.769  14.948
71465W        W33128   4.320  17.142   1.419
71466W        W33129  26.980  43.962  14.975
71467W        W33130  28.641  19.543   0.942
71468W        W33131   5.252   3.890   4.312
71469W        W33132  31.960   0.314  11.893
71470W        W33133  27.122  29.499   2.785
71471W        W33134  16.247  43.421  12.513
71472W        W33135  38.548  16.256  10.508
71473W        W33136  35.382  11.765   4.604
71474W        W33137  32.000  16.630  12.433
71475W        W33138   5.771  25.189  10.578
71476W        W33139  34.037   4.820  12.451
71477W        W33140  40.354  43.504   2.185
71478W        W33141  20.618  13.796  10.618
71479W        W33142  28.932  43.468   0.289
71480W        W33143  38.357  30.965   4.621
71481W        W33144  39.889  21.171  14.769
71482W        W33145   3.770  24.501  12.446
71483W        W33146  36.395  31.133  13.896
71484W        W33147   2.359   5.396  14.920
71485W        W33148   9.270  32.078   4.745
71486W        W33149  21.528  41.790  14.318
71487W        W33150   4.231   7.188  13.427
71488W        W33151  37.434  12.167  12.532
71489W        W33152  41.372  32.990  10.412
71490W        W33153  14.224  10.776   4.265
71491W        W33154  24.010  16.179  13.963
71492W        W33155   0.305  18.582  12.876
71493W        W33156  35.471  39.006  14.005
71494W        W33157  42.443  27.946   1.721
71495W        W33158  35.916  17.288   1.923
71496W        W33159   8.318  29.047  11.569
71497W        W33160  38.893  18.289   1.808
71498W        W33161   8.229  41.957   1.285
71499W        W33162  19.233  29.123   0.313
71500W        W33163  11.671  30.978  14.377
71501W        W33164  27.079   8.249   4.828
71502W        W33165  40.387  35.893   2.228
71503W        W33166  38.927   4.437  10.625
71504W        W33167   2.300  29.948  10.589
71505W        W33168  15.110  11.851  12.389
71506W        W33169  24.063  21.068   5.092
71507W        W33170   9.343   8.775  13.343
71508W        W33171  31.429  41.372   0.907
71509W        W33172  37.055  20.233   3.824
71510W        W33173   1.776  12.254   4.251
71511W        W33174  35.556   4.775   2.670
71512W        W33175  34.557  44.336  13.316
71513W        W33176  41.916   6.839  11.481
71514W        W33177   9.170  37.025   0.386
71515W        W33178  43.272   5.715   2.685
71516W        W33179  14.598   0.783  14.279
71517W        W33180   0.258  14.282   1.333
71518W        W33181   4.729  37.570   1.306
71519W        W33182  39.365  32.456   2.898
71520W        W33183  16.747  20.687   3.313
71521W        W33184  10.304  29.086  12.919
71522W        W33185   2.746   7.704  11.521
71523W        W33186  37.427  34.426   2.229
71524W        W33187  36.869  12.359   3.264
71525W        W33188  14.217  31.062  11.020
71526W        W33189  33.056  19.106   9.523
71527W        W33190  33.621   7.830  13.016
71528W        W33191   4.776  28.171  12.012
71529W        W33192  34.955  28.562   4.697
71530W        W33193  29.646  12.336  14.456
71531W        W33194  26.649  33.881   3.746
71532W        W33195   8.729   0.434   0.934
71533W        W33196  40.457  38.859   4.816
71534W        W33197  41.429  10.158  14.905
71535W        W33198  38.569   9.664  11.878
71536W        W33199  16.148  34.451   4.292
71537W        W33200   8.241  35.857   2.208
71538W        W33201  33.451  21.153  14.969
71539W        W33202  26.637  33.121  13.516
71540W        W33203  38.325  19.679   4.226
71541W        W33204  22.093  19.198   1.906
71542W        W33205  34.607  16.098   4.214
71543W        W33206  14.670  19.628  10.047
71544W        W33207  44.883  35.384   1.856
71545W        W33208  11.771   7.824  14.420
71546W        W33209  19.198  43.929  12.847
71547W        W33210  13.643  23.534   4.186
71548W        W33211  14.816  38.866  10.049
71549W        W33212  35.451  16.722  13.431
71550W        W33213  16.583   1.417   3.264
71551W        W33214  43.342   1.795   4.631
71552W        W33215  18.678   6.197   2.199
71553W        W33216  26.047  39.936   3.330
71554W        W33217  19.249  34.554   4.150
71555W        W33218  16.682   6.256  10.483
71556W        W33219  14.321   9.213   9.623
71557W        W33220  10.353  44.755   0.258
71558W        W33221  27.506  41.910  11.462
71559W        W33222  25.473  14.338  10.620
71560W        W33223  42.024  18.137   0.961
71561W        W33224  28.567  18.784   3.754
71562W        W33225  38.062  14.336  11.086
71563W        W33226   8.789  26.499   5.110
71564W        W33227  13.680  22.689   1.321
71565W        W33228  44.783  19.222   1.835
71566W        W33229   6.799  14.295   0.259
71567W        W33230  27.168  15.287   0.405
71568W        W33231  10.164  32.413  13.946
71569W        W33232  27.115   6.400  14.010
71570W        W33233   6.788  18.286  12.965
71571W        W33234  11.765  38.870  13.048
71572W        W33235  20.158  17.240  10.903
71573W        W33236  40.534  29.165  12.396
71574W        W33237  28.574  11.229  11.438
71575W        W33238   7.721  17.140   4.708
71576W        W33239  32.978  41.993   2.357
71577W        W33240  16.279  36.929   0.331
71578W        W33241  42.782  10.277  10.052
71579W        W33242  39.883  43.270   1.298
71580W        W33243  13.161  30.998   1.923
71581W        W33244  27.177  24.540   1.775
71582W        W33245  16.730  20.130   2.669
71583W        W33246  34.111  24.691  10.951
71584W        W33247  11.298  31.508   2.389
71585W        W33248  38.881  17.576  10.935
71586W        W33249  44.456  31.043  12.839
71587W        W33250  44.927   0.286   5.243
71588W        W33251   5.806  33.107  14.276
71589W        W33252  25.647  27.640   3.296
71590W        W33253  15.736  30.580  12.411
71591W        W33254  14.748  41.874  11.448
71592W        W33255  14.762  44.823  14.376
71593W        W33256  36.393  37.956   3.739
71594W        W33257  36.557  36.484   1.315
71595W        W33258  10.236  30.036  14.760
71596W        W33259   4.418  42.284  11.502
71597W        W33260  35.924  42.338   1.816
71598W        W33261   5.364  20.228  12.471
71599W        W33262   8.379   9.727  10.594
71600W        W33263  41.826  20.249   0.342
71601W        W33264  29.056  25.635  13.449
71602W        W33265  27.145  40.925  12.893
71603W        W33266  14.124  40.830  10.410
71604W        W33267  20.706  44.302  12.527
71605W        W33268  35.507  20.193   0.425
71606W        W33269  34.007  27.541  11.440
71607W        W33270  14.652  20.594  11.977
71608W        W33271  33.391  13.126   3.834
71609W        W33272  37.340   1.976  10.614
71610W        W33273   9.184  32.057  13.831
71611W        W33274   4.362   9.308  12.043
71612W        W33275  17.737  26.207   1.392
71613W        W33276  23.519  33.411  10.482
71614W        W33277   8.252  44.767   4.728
71615W        W33278   0.976   4.227   1.749
71616W        W33279  24.121   5.726  10.426
71617W        W33280  22.723  10.369  12.008
71618W        W33281  38.922  32.926  13.958
71619W        W33282  33.526  40.882  13.538
71620W        W33283  11.788   8.362   1.314
71621W        W33284  13.161   4.261  13.934
71622W        W33285  17.576  11.653   2.355
71623W        W33286   8.872   2.908  11.034
71624W        W33287  30.527  32.633  10.894
71625W        W33288   4.279  15.626   1.403
71626W        W33289  12.635  10.318   4.271
71627W        W33290   2.838  24.510  13.996
71628W        W33291   7.678  36.891  13.880
71629W        W33292  11.223  34.034   2.240
71630W        W33293  15.205  35.521  10.439
71631W        W33294  29.093  44.880   0.794
71632W        W33295   9.690  31.468   3.729
71633W        W33296  36.506  39.446   1.740
71634W        W33297  30.605  24.108   1.717
71635W        W33298  37.023  23.518  10.911
71636W        W33299   6.776  34.008   4.187
71637W        W33300  25.973  31.505   3.184
71638W        W33301  15.281  11.155  14.814
71639W        W33302  20.652  20.228  14.391
71640W        W33303  39.461  25.614   1.884
71641W        W33304   5.782  39.903   0.955
71642W        W33305  29.146  42.978  12.341
71643W        W33306   0.454  20.607   4.735
71644W        W33307  41.983  12.294  14.972
71645W        W33308  14.156  22.554  11.042
71646W        W33309  33.422  18.730  11.504
71647W        W33310  39.064  37.923  10.093
71648W        W33311  28.142   8.289   4.834
71649W        W33312   0.291   5.358  10.459
71650W        W33313  11.789  39.341   1.403
71651W        W33314  42.008  20.710  12.359
71652W        W33315   3.721  16.651  14.895
71653W        W33316   4.407  35.978   4.183
71654W        W33317   7.746  38.432  10.639
71655W        W33318  23.644  22.743   1.321
71656W        W33319  16.671  42.846   3.777
71657W        W33320  29.511  25.468  12.823
71658W        W33321   8.741  17.759  13.326
71659W        W33322  21.029  10.273  13.543
71660W        W33323  34.443  22.025  13.322
71661W        W33324  42.294   8.365   2.409
71662W        W33325  36.528   1.344  14.476
71663W        W33326  28.657  36.090   5.212
71664W        W33327  29.961  24.099   2.375
71665W        W33328  33.556  34.905  14.954
71666W        W33329  35.855   3.292  10.471
71667W        W33330  19.567  23.621   4.223
71668W        W33331  27.494  24.633   3.273
71669W        W33332  35.584  29.956   4.209
71670W        W33333  39.040   0.408   1.219
71671W        W33334  19.695  33.456  10.482
71672W        W33335  21.641  10.359   1.402
71673W        W33336   1.947  15.116  12.433
71674W        W33337  41.464  31.020   2.385
71675W        W33338  18.593  29.122  14.883
71676W        W33339  19.091   5.335  12.006
71677W        W33340  37.454  31.931   4.265
71678W        W33341  29.924  22.174  12.884
71679W        W33342   9.278  17.274   0.874
71680W        W33343  44.986  39.485  10.479
71681W        W33344   6.751  41.819   3.373
71682W        W33345   9.885   1.287  14.762
71683W        W33346  34.916   0.411  12.883
71684W        W33347  22.648  29.919  10.450
71685W        W33348  24.540  15.267   2.396
71686W        W33349  10.799  38.873   9.983
71687W        W33350  39.028  25.123  13.447
71688W        W33351  41.467  43.386   0.246
71689W        W33352  17.183  40.397  12.468
71690W        W33353  30.414  19.255  10.564
71691W        W33354   7.735  44.412   3.664
71692W        W33355  26.980  16.225  10.598
71693W        W33356  33.437   6.267  14.023
71694W        W33357  22.736  32.633   2.871
71695W        W33358  29.922  29.019  11.592
71696W        W33359  24.092  23.512   4.245
71697W        W33360  37.543  36.029  10.156
71698W        W33361   8.881  37.504  14.373
71699W        W33362  25.508  20.760  12.070
71700W        W33363  35.065  29.035   1.440
71701W        W33364  20.595  21.667  13.040
71702W        W33365  31.134  18.093   0.946
71703W        W33366  21.551  21.710  13.054
71704W        W33367  43.324  38.439  14.764
71705W        W33368  12.772  36.507   9.621
71706W        W33369  13.319  19.107   1.710
71707W        W33370  22.141  35.087   4.666
71708W        W33371  15.782  13.746  13.883
71709W        W33372  38.413  30.100  10.972
71710W        W33373  17.645  38.050  14.936
71711W        W33374   4.223  21.194   0.793
71712W        W33375  33.057  32.492  13.948
71713W        W33376  19.074  36.567  11.890
71714W        W33377   4.264   2.324   4.341
71715W        W33378  12.333  41.370  11.972
71716W        W33379  21.658  26.514  10.147
71717W        W33380   7.777  11.794   2.804
71718W        W33381  41.921  28.956  14.983
71719W        W33382  33.519  33.026  14.940
71720W        W33383  12.159  10.743   9.497
71721W        W33384  36.530  37.460   0.387
71722W        W33385  20.121  28.021   1.918
71723W        W33386  29.644  22.626   2.353
71724W        W33387  40.855  32.079  13.827
71725W        W33388  34.005  40.381   2.721
71726W        W33389   3.851  20.612   4.250
71727W        W33390   2.781  21.745  11.023
71728W        W33391  24.017  14.788  13.828
71729W        W33392   7.694  10.370   4.693
71730W        W33393  30.090  32.005  13.360
71731W        W33394  19.225   5.728  11.895
71732W        W33395  42.778  44.886   1.313
71733W        W33396  22.544   0.365   0.345
71734W        W33397  43.765   2.909   1.733
71735W        W33398  38.070  19.174  10.972
71736W        W33399  22.744  20.241  11.080
71737W        W33400   9.703  40.905  14.917
71738W        W33401   6.402  40.373   0.322
71739W        W33402  29.094  23.193  13.832
71740W        W33403   5.367  10.184  12.020
71741W        W33404  36.024   3.420   0.409
71742W        W33405  16.264  15.601   2.287
71743W        W33406  15.295  16.299   2.327
71744W        W33407  26.144   0.764   4.129
71745W        W33408  41.862  25.043   4.194
71746W        W33409  38.336   4.277   3.839
71747W        W33410  40.326  26.187  11.415
71748W        W33411  18.610  26.951  11.599
71749W        W33412  37.534   6.342  13.342
71750W        W33413  23.668  37.516  11.077
71751W        W33414   2.750  33.431   1.294
71752W        W33415  29.607  33.909   0.845
71753W        W33416   7.693  33.010  12.901
71754W        W33417   5.423  32.009   3.844
71755W        W33418  19.250  36.462  11.580
71756W        W33419  27.084   5.887  14.320
71757W        W33420  44.898  32.891   0.933
71758W        W33421  36.843   4.819  14.981
71759W        W33422  33.015   0.773   3.198
71760W        W33423  32.090   7.417  12.899
71761W        W33424   9.390  15.275  12.094
71762W        W33425  24.506  30.426  12.864
71763W        W33426   4.704  37.429  11.467
71764W        W33427  37.945  16.711   4.217
71765W        W33428  27.173  30.001   1.334
71766W        W33429  35.101   8.850   0.779
71767W        W33430  24.548  37.549  10.926
71768W        W33431   5.775  21.186   3.700
71769W        W33432  32.541  17.626  10.982
71770W        W33433  22.139   0.297   5.639
71771W        W33434  33.875  25.089   3.342
71772W        W33435  14.624  35.517  14.427
71773W        W33436  34.998   2.438   2.768
71774W        W33437  19.254   8.661   1.892
71775W        W33438   5.306  35.889   3.266
71776W        W33439  41.881   8.893   3.783
71777W        W33440  27.485   5.861  12.534
71778W        W33441  31.594  26.088  14.875
71779W        W33442  35.421  24.623  12.930
71780W        W33443  14.775  12.711  14.926
71781W        W33444  11.652  42.526  13.492
71782W        W33445  18.649  14.149  13.928
71783W        W33446  25.652  41.449   1.367
71784W        W33447  12.840  33.550  10.936
71785W        W33448  39.015  26.517  10.446
71786W        W33449  22.525  41.982   3.322
71787W        W33450  42.357  29.562  11.880
71788W        W33451  23.730   0.253  11.415
71789W        W33452  32.486  44.832   2.417
71790W        W33453  15.190  14.733   4.213
71791W        W33454   8.693  24.218  10.472
71792W        W33455   3.415  43.476   2.707
71793W        W33456   1.907  27.131  13.022
71794W        W33457  35.388  32.407   4.757
71795W        W33458  42.027   4.279  14.356
71796W        W33459  32.979  28.680  12.925
71797W        W33460  32.442  37.460   1.225
71798W        W33461  20.523   2.849  13.048
71799W        W33462  10.807  19.039   0.889
71800W        W33463  14.689  38.492  12.087
71801W        W33464  33.414   8.898  14.369
71802W        W33465  13.335  11.325  13.429
71803W        W33466  40.956  31.622   4.136
71804W        W33467  29.084  13.185  12.076
71805W        W33468  43.017  26.510   1.819
71806W        W33469   5.696   0.771   3.642
71807W        W33470   7.298   9.234   4.118
71808W        W33471  14.707  28.181   0.294
71809W        W33472  11.661  15.642   0.961
71810W        W33473  13.632  39.407   2.263
71811W        W33474  34.920  33.045   3.343
71812W        W33475  21.707   9.264   0.752
71813W        W33476  35.886   9.866   3.786
71814W        W33477   2.450   4.279   2.704
71815W        W33478  17.728  16.664  11.527
71816W        W33479  37.070  22.603   4.133
71817W        W33480  42.779  11.250  11.949
71818W        W33481  37.991  33.959   1.902
71819W        W33482  42.312  34.565   0.962
71820W        W33483  10.254  10.773  12.930
71821W        W33484  41.008  33.068  14.506
71822W        W33485  32.421  31.467   1.721
71823W        W33486   3.231  44.777  10.530
71824W        W33487  23.506  14.811  14.875
71825W        W33488  23.109  40.918   2.783
71826W        W33489  29.458  32.040   1.805
71827W        W33490  24.031  20.066  11.592
71828W        W33491  30.010  38.027   2.845
71829W        W33492  41.505  19.278   1.270
71830W        W33493  16.301  38.452  12.865
71831W        W33494  37.523   6.754  11.415
71832W        W33495  20.053  38.326  14.462
71833W        W33496  40.019   5.423   4.797
71834W        W33497  29.477  12.633  12.834
71835W        W33498  40.049  18.753   4.265
71836W        W33499  16.074   3.425  13.357
71837W        W33500  40.309  23.711   1.376
71838W        W33501  42.405  35.876   4.702
71839W        W33502   7.767  18.567  11.424
71840W        W33503  32.003  27.477   4.667
71841W        W33504  15.144  28.048  12.400
71842W        W33505  19.602   1.733   3.743
71843W        W33506  27.139   7.748  11.990
71844W        W33507   9.660  35.876   4.653
71845W        W33508   0.950  12.144   0.370
71846W        W33509  10.309  18.201  12.056
71847W        W33510   0.828  39.818   2.360
71848W        W33511   0.885   1.451   4.748
71849W        W33512  41.854  37.401   9.981
71850W        W33513  28.937  20.562   2.349
71851W        W33514  41.007  18.603   0.809
71852W        W33515   2.442   2.233  12.839
71853W        W33516   5.377   7.315   3.328
71854W        W33517  22.634   9.643   4.352
71855W        W33518  38.075   9.210  10.561
71856W        W33519  26.663  23.103  14.929
71857W        W33520   4.292  17.598   0.734
71858W        W33521  41.517  36.064  12.884
71859W        W33522  18.115  39.551   3.822
71860W        W33523  38.386   5.806   2.719
71861W        W33524  32.919  32.964  13.488
71862W        W33525  13.810   1.380  11.009
71863W        W33526  24.668   0.418   2.801
71864W        W33527  36.413  11.844   5.308
71865W        W33528  16.224  28.029   4.261
71866W        W33529  24.633  41.532  14.428
71867W        W33530  11.669  19.252  13.815
71868W        W33531  25.116  22.657  10.575
71869W        W33532  36.474   2.957   3.811
71870W        W33533  14.141  27.054   0.476
71871W        W33534  26.609  37.552   4.832
71872W        W33535  41.528  39.424  11.486
71873W        W33536   2.385  18.154   0.831
71874W        W33537  33.522  40.029   0.796
71875W        W33538  44.854  38.980   4.671
71876W        W33539  22.196  31.151   3.162
71877W        W33540   1.391  12.252  14.514
71878W        W33541   7.677  33.874  11.948
71879W        W33542  22.026  18.668   4.751
71880W        W33543   9.281  29.046  10.495
71881W        W33544   2.798   7.837   2.288
71882W        W33545   4.812  37.836   1.700
71883W        W33546  34.023  19.592   3.370
71884W        W33547  29.447  30.622  11.025
71885W        W33548  18.747   6.316   1.286
71886W        W33549  17.186  23.661  11.487
71887W        W33550  29.641   8.255   1.326
71888W        W33551  26.056  27.111   4.804
71889W        W33552  37.350   7.779  12.016
71890W        W33553   0.329  16.192  13.466
71891W        W33554  24.072  15.110  12.385
71892W        W33555  37.919  23.987   4.203
71893W        W33556   9.728  11.775  14.441
71894W        W33557  26.111  17.776  10.937
71895W        W33558  39.392  15.632   3.223
71896W        W33559  39.556  13.263  11.995
71897W        W33560  23.194  42.402  14.451
71898W        W33561  30.131  15.232  14.376
71899W        W33562  22.132  44.995  11.487
71900W        W33563  12.239   3.350   3.203
71901W        W33564   7.227  23.672   1.263
71902W        W33565  12.713  40.385   5.290
71903W        W33566  12.856  34.601   1.844
71904W        W33567  14.106   5.400   2.258
71905W        W33568  24.601  11.256   0.759
71906W        W33569  17.221  30.089   2.192
71907W        W33570  13.751  37.426  12.061
71908W        W33571  37.385  42.966  14.279
71909W        W33572  33.410  20.523   1.412
71910W        W33573  25.564  29.175   2.756
71911W        W33574   3.943   1.967  14.840
71912W        W33575  10.366   6.888   1.732
71913W        W33576  44.851  39.372  14.393
71914W        W33577   8.317  19.254   3.239
71915W        W33578  42.893   6.376   1.758
71916W        W33579  29.657   5.706   2.699
71917W        W33580  19.594   2.843   2.705
71918W        W33581  13.800  27.090   0.464
71919W        W33582  40.424   2.744   1.695
71920W        W33583  37.408  20.596  10.527
71921W        W33584  22.738  17.176  14.875
71922W        W33585  16.312   9.170  10.455
71923W        W33586  43.892  19.161  12.431
71924W        W33587  36.011  19.601  14.848
71925W        W33588  25.038   2.400   1.358
71926W        W33589  34.914  17.208   4.327
71927W        W33590  34.409  36.057  11.056
71928W        W33591  43.898   4.305  11.415
71929W        W33592  14.175  21.203  10.559
71930W        W33593  10.342  42.449   3.840
71931W        W33594   9.744  24.609  11.427
71932W        W33595  31.594  43.879   2.705
71933W        W33596  14.829  21.750  11.045
71934W        W33597  35.500  37.025  14.390
71935W        W33598  14.760  30.007  11.603
71936W        W33599   0.472  34.874  13.959
71937W        W33600  41.467  37.006   3.695
71938W        W33601  18.551  32.058  12.544
71939W        W33602   4.767  32.908  12.823
71940W        W33603   6.343   0.389  11.934
71941W        W33604  33.412  22.055   1.706
71942W        W33605  15.091  41.971   2.406
71943W        W33606  25.675  26.660   2.886
71944W        W33607  30.458   6.421  11.962
71945W        W33608  40.816  32.096  11.491
71946W        W33609   6.862   5.252  11.871
71947W        W33610   7.373   7.908   1.898
71948W        W33611  26.604  39.833   4.343
71949W        W33612  38.822  33.032  13.047
71950W        W33613   7.286  18.218  11.522
71951W        W33614  35.884  24.610  13.523
71952W        W33615  11.821  35.464   1.863
71953W        W33616  14.684  35.943   0.309
71954W        W33617   6.206  14.311  13.057
71955W        W33618  17.555   5.922   0.263
71956W        W33619  19.547  10.862  10.889
71957W        W33620  24.181  32.141  12.930
71958W        W33621  16.614  34.521   5.234
71959W        W33622  42.953  24.166   2.879
71960W        W33623  20.126  14.241  10.533
71961W        W33624  29.946  17.123   4.134
71962W        W33625  36.895   8.323  12.529
71963W        W33626  12.165  11.133   3.359
71964W        W33627   7.353   8.747  12.065
71965W        W33628   9.339  36.875  14.861
71966W        W33629   8.317   6.872  14.357
71967W        W33630  33.968  22.670  14.351
71968W        W33631  16.567  41.490   4.170
71969W        W33632   0.397  40.883  11.555
71970W        W33633  24.038  30.959   2.213
71971W        W33634  24.572  41.344   3.339
71972W        W33635  33.097  39.341  14.432
71973W        W33636  36.392  23.665   3.707
71974W        W33637  35.067  41.998  13.435
71975W        W33638  42.985  17.632   3.343
71976W        W33639  33.533  40.959   1.859
71977W        W33640   4.446   4.392  13.969
71978W        W33641  21.248  17.597   2.701
71979W        W33642   8.227  16.659  13.918
71980W        W33643   3.423   3.834   2.791
71981W        W33644   0.481  40.805  14.017
71982W        W33645  43.342   3.243   1.817
71983W        W33646  12.641  21.746  12.431
71984W        W33647  32.599   9.670   4.204
71985W        W33648   3.824  29.994  10.564
71986W        W33649  40.362  33.388   0.921
71987W        W33650  12.849  20.247   2.405
71988W        W33651  10.743  41.445   2.696
71989W        W33652  37.547  42.314   3.674
71990W        W33653  21.218  27.050   4.242
71991W        W33654  22.678  15.088  11.056
71992W        W33655   8.746  25.966  12.967
71993W        W33656  17.305  39.346   4.830
71994W        W33657  28.031  10.212   0.293
71995W        W33658  43.775  32.470  12.996
71996W        W33659   4.701  31.000  10.588
71997W        W33660  34.376  32.997   2.896
71998W        W33661  44.861  37.439   4.161
71999W        W33662  24.173  41.923  11.002
72000W        W33663  13.138  18.617   4.323
72001W        W33664  36.873  17.134   0.930
72002W        W33665  39.545  12.743   3.703
72003W        W33666  37.082  20.757   2.758
72004W        W33667  40.440  15.173   0.959
72005W        W33668  25.692  25.597   0.304
72006W        W33669   3.267  20.128   1.395
72007W        W33670  43.479  22.235   3.728
72008W        W33671  15.250  33.432  13.852
72009W        W33672  17.254   9.236  14.949
72010W        W33673  35.563  32.086   0.822
72011W        W33674  37.044   5.802   4.213
72012W        W33675  10.186  40.541  10.589
72013W        W33676  23.985  30.018  10.603
72014W        W33677  14.825  25.984   1.237
72015W        W33678  11.761  33.914  14.902
72016W        W33679  43.360  22.580   0.912
72017W        W33680  26.179  35.890  12.862
72018W        W33681   5.302  34.585  14.395
72019W        W33682  24.046  14.300  10.929
72020W        W33683  41.433   6.869  11.609
72021W        W33684  36.567   1.238  13.015
72022W        W33685  25.158  19.082  14.811
72023W        W33686  14.136  21.743   3.741
72024W        W33687  36.420  44.315  14.505
72025W        W33688   4.300  14.620   3.182
72026W        W33689   1.754   2.264  13.530
72027W        W33690  23.138  34.435   3.639
72028W        W33691   0.807  29.951  10.469
72029W        W33692   6.409  26.609   4.272
72030W        W33693   2.232  38.410  14.990
72031W        W33694   7.700  38.423   2.903
72032W        W33695   3.771   5.888   2.277
72033W        W33696  23.611   9.312  10.440
72034W        W33697  32.476  25.644  12.427
72035W        W33698  30.531  19.168  12.914
72036W        W33699  33.886   5.781  12.572
72037W        W33700   7.877  23.663  10.546
72038W        W33701  27.501  36.003   0.314
72039W        W33702  16.783  26.954  12.079
72040W        W33703  12.810  26.185   1.222
72041W        W33704   5.897  33.448  11.020
72042W        W33705  20.723  20.208   4.194
72043W        W33706   7.292  20.253   2.347
72044W        W33707   5.370  25.565  14.424
72045W        W33708  35.387  13.269   2.318
72046W        W33709  18.107   8.822   0.891
72047W        W33710  22.213   9.865  12.398
72048W        W33711  20.228  27.521   2.188
72049W        W33712  27.546  21.687   0.372
72050W        W33713  33.556  35.073   5.265
72051W        W33714  29.071  29.964   0.353
72052W        W33715   7.870  21.543  14.875
72053W        W33716  13.673  18.064  10.922
72054W        W33717   4.712   5.262  14.377
72055W        W33718   7.874   0.933   4.291
72056W        W33719  15.308  13.796  11.576
72057W        W33720  37.527  32.529   3.710
72058W        W33721  17.570   7.698   3.665
72059W        W33722  18.585  26.655  11.610
72060W        W33723  13.740   4.441  12.471
72061W        W33724  30.577  11.792  12.574
72062W        W33725  10.217  40.537  12.843
72063W        W33726  34.112  26.677   4.718
72064W        W33727  24.096  13.193  10.537
72065W        W33728  26.469   9.853  12.064
72066W        W33729  26.469  34.567  12.867
72067W        W33730  34.408  25.162   1.225
72068W        W33731  14.820  36.890  12.488
72069W        W33732  30.922  15.303  13.378
72070W        W33733  14.336  15.590  14.392
72071W        W33734  12.652  39.036   2.300
72072W        W33735  12.130  22.706   4.810
72073W        W33736  39.339  33.974  13.977
72074W        W33737  43.481  36.396   1.717
72075W        W33738  14.186  44.976   4.822
72076W        W33739  33.508  11.824   1.393
72077W        W33740  39.361  19.694   1.358
72078W        W33741  10.299  23.663  11.423
72079W        W33742   5.281  17.683   4.652
72080W        W33743  36.955  43.409   3.793
72081W        W33744  32.631  20.644  13.481
72082W        W33745  15.725  11.274   4.335
72083W        W33746  21.732   1.815   3.814
72084W        W33747  20.258   3.873  12.353
72085W        W33748   4.826   0.381   9.923
72086W        W33749  39.938  38.326   4.216
72087W        W33750  23.134  44.980   9.963
72088W        W33751   0.791   1.892   4.280
72089W        W33752  41.499  17.103   2.895
72090W        W33753  37.485  36.417  13.395
72091W        W33754  13.614  39.906   3.296
72092W        W33755   8.713   9.261  12.472
72093W        W33756   2.337  17.167   4.702
72094W        W33757  14.688   5.738   2.705
72095W        W33758  36.375  27.955   2.404
72096W        W33759  19.693  12.250   3.189
72097W        W33760  16.762   7.758  14.942
72098W        W33761  35.503   3.244   0.306
72099W        W33762  12.249  21.740   0.743
72100W        W33763  24.058   1.455  13.914
72101W        W33764   8.855  28.099  14.029
72102W        W33765   2.852  15.744   1.239
72103W        W33766  38.009  42.996   2.215
72104W        W33767  29.098  22.524  13.449
72105W        W33768   4.255   1.923  14.795
72106W        W33769  20.076  38.940   0.416
72107W        W33770  22.714  28.171   1.323
72108W        W33771  22.159   9.390   4.816
72109W        W33772   8.303  18.705  10.431
72110W        W33773  28.032  37.852   1.796
72111W        W33774  12.784   6.410  11.565
72112W        W33775  25.050  29.575  13.359
72113W        W33776  27.503  41.462  14.818
72114W        W33777  40.505  12.191   2.683
72115W        W33778  38.020  20.526   2.361
72116W        W33779  39.541   3.423  11.918
72117W        W33780  33.381  21.702  11.990
72118W        W33781  40.833  21.039  11.927
72119W        W33782  33.043  10.369   2.322
72120W        W33783  35.538  20.684  12.495
72121W        W33784  38.978  37.984   4.779
72122W        W33785   4.738   5.876   1.408
72123W        W33786  27.952  21.213  10.979
72124W        W33787   2.748  26.141  11.966
72125W        W33788   1.911  12.125  11.417
72126W        W33789  35.425  24.669  13.838
72127W        W33790   8.799  15.315  13.917
72128W        W33791   9.864  38.500  13.831
72129W        W33792  43.378  40.378  10.922
72130W        W33793  28.620  19.590  13.937
72131W        W33794  17.306  22.697   4.137
72132W        W33795  36.872  43.336  13.443
72133W        W33796   7.258   0.338   2.800
72134W        W33797  44.272  17.640   0.794
72135W        W33798  44.343   9.193   0.947
72136W        W33799   6.393  41.928  11.419
72137W        W33800  17.100   3.721   1.361
72138W        W33801  39.994  14.708   3.812
72139W        W33802  17.274  42.971   4.335
72140W        W33803  17.159  29.932  12.527
72141W        W33804  16.745   6.885   2.288
72142W        W33805  32.025  37.489  13.915
72143W        W33806  14.673  27.978  13.504
72144W        W33807  42.829  36.471   2.381
72145W        W33808  37.483  33.905   1.407
72146W        W33809  32.095  10.318   5.117
72147W        W33810  29.477  18.195   5.179
72148W        W33811  39.547  44.841   3.189
72149W        W33812  25.065  42.383  12.530
72150W        W33813  15.150   3.717   3.260
72151W        W33814  39.383  28.465  14.784
72152W        W33815  41.019  40.835   2.355
72153W        W33816  22.516   6.407   2.697
72154W        W33817  10.813  41.315   2.393
72155W        W33818  41.359  39.995   0.395
72156W        W33819  32.922  26.668   3.655
72157W        W33820  11.214  20.042  14.452
72158W        W33821  44.915  14.616   9.922
72159W        W33822   3.404  39.906  10.629
72160W        W33823  44.884  32.954   1.740
72161W        W33824  41.979  32.015   3.828
72162W        W33825  38.403  41.523  14.838
72163W        W33826  18.137  29.028   2.747
72164W        W33827  23.204  21.700  11.990
72165W        W33828  19.602  36.513  10.500
72166W        W33829  28.643  24.501  12.083
72167W        W33830  36.873  17.241   1.421
72168W        W33831   9.364   1.975  11.044
72169W        W33832  18.126  28.653   1.911
72170W        W33833   4.860  27.466  12.561
72171W        W33834  10.658  22.117  13.408
72172W        W33835  32.616  42.434   4.174
72173W        W33836   1.940   3.284  13.033
72174W        W33837  38.069   6.688   3.256
72175W        W33838  13.798  25.661  13.858
72176W        W33839   3.872  14.150  10.894
72177W        W33840   7.665   2.949  10.623
72178W        W33841   8.322  25.700  11.034
72179W        W33842  26.956  30.979   0.330
72180W        W33843  42.413  10.268  10.532
72181W        W33844  22.644  26.010   3.839
72182W        W33845  22.068  11.283   4.651
72183W        W33846  39.857   5.194   1.280
72184W        W33847  35.885   0.465  14.789
72185W        W33848   0.359   6.230   4.638
72186W        W33849  11.661  12.663  14.465
72187W        W33850  11.705   2.952   0.437
72188W        W33851  42.475  36.052  14.860
72189W        W33852   0.865  21.582  11.517
72190W        W33853  15.784  39.061  14.001
72191W        W33854  38.513  43.336   1.743
72192W        W33855   9.842   2.902  14.770
72193W        W33856  10.357  12.190   4.143
72194W        W33857  33.459  29.618   2.774
72195W        W33858  39.560  41.466   4.719
72196W        W33859  34.484   5.399  11.866
72197W        W33860  13.605  40.898  11.550
72198W        W33861  40.388  15.094  12.938
72199W        W33862  27.658  26.502  14.429
72200W        W33863  35.377   4.830  13.996
72201W        W33864   6.265   0.789   2.223
72202W        W33865   8.747  27.564  12.023
72203W        W33866   8.802  40.421   4.727
72204W        W33867  43.286  39.945  13.886
72205W        W33868  33.035  16.580  11.449
72206W        W33869  32.909  38.488   0.777
72207W        W33870  18.276  15.312  12.891
72208W        W33871  27.030   1.769   4.170
72209W        W33872   7.677  12.293  14.338
72210W        W33873  36.053  43.764   4.129
72211W        W33874  35.528  42.437  12.018
72212W        W33875  21.235  12.645   1.875
72213W        W33876   6.283  24.203   4.308
72214W        W33877  15.195  19.635  14.943
72215W        W33878  19.764  36.572  10.937
72216W        W33879  42.411  33.563  14.347
72217W        W33880   5.705  19.193  11.418
72218W        W33881   2.430  42.864   1.697
72219W        W33882  38.506   5.781   0.834
72220W        W33883  16.568  24.182  13.020
72221W        W33884   5.842  26.619  11.965
72222W        W33885  42.489  21.724   0.406
72223W        W33886  34.984  27.603  11.018
72224W        W33887  43.475   7.878   4.232
72225W        W33888  21.530  28.492   4.662
72226W        W33889   0.863  29.051  10.955
72227W        W33890  36.386  19.061   2.237
72228W        W33891  42.861  22.213  14.421
72229W        W33892  19.120  29.660  12.488
72230W        W33893   5.878  36.476   0.913
72231W        W33894   3.882  31.991  14.879
72232W        W33895  18.138  41.525  14.027
72233W        W33896   1.252  28.440  13.955
72234W        W33897  28.006  14.782  12.429
72235W        W33898  30.453  44.915   2.869
72236W        W33899  37.965   3.932  10.553
72237W        W33900  40.496  22.550  13.948
72238W        W33901   3.245  44.424  12.075
72239W        W33902  39.499  19.536   3.195
72240W        W33903  41.829  17.275   1.330
72241W        W33904  40.331  26.204   2.756
72242W        W33905  44.504  32.406  14.870
72243W        W33906  32.951   0.475   3.352
72244W        W33907   3.267   7.852   0.467
72245W        W33908  20.107   4.897   2.886
72246W        W33909  41.332  34.528   2.219
72247W        W33910   4.891   6.220  12.059
72248W        W33911  15.683  29.945  14.955
72249W        W33912  43.930  27.549   0.296
72250W        W33913  19.208  41.419   2.767
72251W        W33914  40.501  39.499   4.777
72252W        W33915  23.523  20.665  11.043
72253W        W33916  16.278  30.562  12.514
72254W        W33917  42.991   3.923   4.807
72255W        W33918   5.416  44.978   3.208
72256W        W33919  42.348   2.807   3.346
72257W        W33920   6.312   3.807   0.934
72258W        W33921  21.126  17.663   3.333
72259W        W33922  27.636  28.047  10.569
72260W        W33923  33.425  17.678  14.925
72261W        W33924  14.606  13.845   4.297
72262W        W33925  15.286   8.198   2.378
72263W        W33926  12.705  16.668  12.096
72264W        W33927  39.382   9.649  12.480
72265W        W33928  42.310  35.569   0.335
72266W        W33929  20.067  38.854   2.299
72267W        W33930  18.721  44.490  13.917
72268W        W33931  13.805  43.006  14.775
72269W        W33932  35.481  28.985   4.206
72270W        W33933  41.929  34.112  13.935
72271W        W33934   7.709   2.352  14.948
72272W        W33935   3.926  10.363  12.902
72273W        W33936  38.053  29.961  14.462
72274W        W33937  38.485  21.147   4.741
72275W        W33938  24.494   6.818  13.973
72276W        W33939  11.319  10.340  13.517
72277W        W33940   1.952  15.289   1.790
72278W        W33941  10.299  14.258   5.124
72279W        W33942  23.522  21.222  10.990
72280W        W33943  39.419  18.200  12.017
72281W        W33944  24.617   1.262  11.606
72282W        W33945  11.282  20.198   1.701
72283W        W33946  38.915  12.333  11.020
72284W        W33947  35.517  44.354  14.417
72285W        W33948   5.882  18.672   2.845
72286W        W33949  16.301  11.362   2.299
72287W        W33950   7.197  24.646  13.803
72288W        W33951  42.469  27.597  12.378
72289W        W33952   3.247  17.562  10.625
72290W        W33953  14.792  24.539  14.293
72291W        W33954   4.369  16.662   3.220
72292W        W33955   8.658   6.225   3.852
72293W        W33956  20.203  42.286  12.435
72294W        W33957  20.060  37.480  13.819
72295W        W33958  29.440  41.320  14.764
72296W        W33959  35.481  41.966   3.700
72297W        W33960  12.275   3.882   3.715
72298W        W33961  34.540  41.415  14.413
72299W        W33962  40.953  36.452  13.912
72300W        W33963   5.782  14.112   1.717
72301W        W33964  29.462   0.916  12.007
72302W        W33965  42.404  39.411   4.116
72303W        W33966  43.488   2.947   3.788
72304W        W33967  44.339   5.256  10.450
72305W        W33968  41.885  23.588  14.932
72306W        W33969  10.218  36.537   0.844
72307W        W33970  23.653   2.920   1.258
72308W        W33971  36.506  28.079  10.090
72309W        W33972   8.670   6.246  12.464
72310W        W33973  17.620  29.937  12.898
72311W        W33974  33.515   2.866   3.343
72312W        W33975  14.757  41.437   3.776
72313W        W33976  15.134  32.970  13.005
72314W        W33977  10.710   6.259   1.861
72315W        W33978  41.953  25.524   2.767
72316W        W33979  12.795  40.330  12.939
72317W        W33980  42.366  27.653  11.902
72318W        W33981  35.943  37.486   0.912
72319W        W33982  19.092  31.910   4.198
72320W        W33983  14.255   3.240   3.247
72321W        W33984  20.136  29.070   2.666
72322W        W33985   6.370  37.387  11.927
72323W        W33986  15.579  27.961   0.247
72324W        W33987  38.363  40.407   4.797
72325W        W33988  13.607  23.698   3.369
72326W        W33989  41.030  21.650  11.912
72327W        W33990  38.007  11.312   2.753
72328W        W33991   7.229  41.295   2.888
72329W        W33992   0.429  22.177   2.787
72330W        W33993   1.928  38.053   2.243
72331W        W33994  23.165  21.241  13.838
72332W        W33995  27.943  40.821  12.495
72333W        W33996   1.786  18.626   4.618
72334W        W33997  27.620  27.182  11.966
72335W        W33998   6.211  14.663  11.963
72336W        W33999  27.941  28.669  11.378
72337W        W34000  22.208   5.435  11.120
72338W        W34001  10.682   0.848   2.186
72339W        W34002  37.912  28.609  14.849
72340W        W34003  21.556  31.047   0.756
72341W        W34004  15.745  34.534   1.348
72342W        W34005  44.984   9.320   1.881
72343W        W34006  35.026   7.272   0.781
72344W        W34007  43.368  41.915   2.778
72345W        W34008  20.062  11.309  14.915
72346W        W34009  38.327  21.262  11.945
72347W        W34010  41.799  11.241  14.808
72348W        W34011  27.683  38.046  13.814
72349W        W34012  42.871  23.190  10.585
72350W        W34013   9.837  39.844  14.281
72351W        W34014  32.512  11.328   2.302
72352W        W34015  32.933  13.744   2.797
72353W        W34016  24.050  41.999  11.930
72354W        W34017  11.331   0.322  11.118
72355W        W34018   7.877   2.913  13.501
72356W        W34019  13.758   5.230   1.319
72357W        W34020  24.489   9.806   1.279
72358W        W34021  16.198  32.024  14.787
72359W        W34022  12.783  27.994   0.927
72360W        W34023   2.931  10.644   4.677
72361W        W34024   2.460  23.516  11.904
72362W        W34025  22.053  40.420   1.327
72363W        W34026   2.354  39.535   2.245
72364W        W34027  38.399  43.861  14.289
72365W        W34028  36.540  18.713   2.821
72366W        W34029  26.600   4.801   5.297
72367W        W34030  15.674  12.334   3.760
72368W        W34031  37.436  43.770  11.394
72369W        W34032  34.539  37.922  12.881
72370W        W34033  15.616  33.493   3.792
72371W        W34034  29.092  31.481   3.220
72372W        W34035  44.431  39.840   3.738
72373W        W34036  25.712  41.422   1.901
72374W        W34037   7.834   1.276  11.493
72375W        W34038   0.282  38.992  13.861
72376W        W34039   3.383  23.631  11.074
72377W        W34040  21.099  21.741   1.895
72378W        W34041   4.327  28.533  13.848
72379W        W34042   8.884  22.189  11.113
72380W        W34043   0.276   8.658  11.550
72381W        W34044  12.854   2.434  13.437
72382W        W34045  24.700  25.681  12.500
72383W        W34046  42.399  19.692   4.188
72384W        W34047   5.343  38.394  11.562
72385W        W34048  23.724  27.037   0.731
72386W        W34049  15.635  11.233  12.381
72387W        W34050  21.686  33.512   0.943
72388W        W34051   2.464  14.829   4.671
72389W        W34052  21.084   3.885  11.589
72390W        W34053  15.693   1.304   0.365
72391W        W34054  11.214  10.680  13.543
72392W        W34055   8.897  26.956  12.354
72393W        W34056  11.249   9.310   1.783
72394W        W34057  34.984   7.378  11.576
72395W        W34058  40.911   9.646   0.245
72396W        W34059  16.578  16.265  13.979
72397W        W34060  34.488  33.396   3.161
72398W        W34061  28.992  23.545  11.486
72399W        W34062   3.450   2.918  13.491
72400W        W34063  39.406   5.762   1.836
72401W        W34064  32.112  10.223   0.247
72402W        W34065   8.685  36.459   2.769
72403W        W34066   5.306  23.171  10.521
72404W        W34067  19.692  15.794   2.899
72405W        W34068   9.202  34.593   3.264
72406W        W34069  43.881  22.573  12.445
72407W        W34070  29.055  27.649  13.051
72408W        W34071  16.169  44.884  14.812
72409W        W34072  31.545   4.285   0.441
72410W        W34073  43.839  43.397  14.856
72411W        W34074   7.851   9.645  14.968
72412W        W34075  17.069   7.327   2.305
72413W        W34076  44.906  13.283  11.531
72414W        W34077   5.875  42.811  10.917
72415W        W34078  12.629  24.657  11.009
72416W        W34079  18.273  21.724  14.927
72417W        W34080  28.450  42.510   3.693
72418W        W34081  29.453  42.302   3.799
72419W        W34082  24.984  19.638  12.987
72420W        W34083   7.767  36.389   4.230
72421W        W34084  20.245  27.190   2.868
72422W        W34085  44.808  11.666  11.557
72423W        W34086   4.254  10.137   3.366
72424W        W34087  30.986   3.311  13.821
72425W        W34088  14.684  35.570   0.454
72426W        W34089  25.137   9.764   4.744
72427W        W34090  44.869  22.137  11.488
72428W        W34091  39.038  42.460  12.973
72429W        W34092  31.534  36.054  10.962
72430W        W34093  10.769  29.032  14.507
72431W        W34094   0.423   5.292   4.143
72432W        W34095   4.945  30.578   2.721
72433W        W34096  44.465  38.535  13.323
72434W        W34097  39.325   0.440   2.803
72435W        W34098   8.214  19.562   3.214
72436W        W34099   8.223   1.409  13.007
72437W        W34100  11.142  26.697   9.969
72438W        W34101  25.513  42.368   0.766
72439W        W34102  11.146  26.566   3.219
72440W        W34103  42.516  16.726   2.717
72441W        W34104  11.216  28.618  13.516
72442W        W34105  30.512  10.279   4.825
72443W        W34106  19.092  10.344   0.922
72444W        W34107  16.728  41.004  10.900
72445W        W34108  23.658  43.440   4.638
72446W        W34109  32.542  23.145   4.794
72447W        W34110  43.830  17.692   2.231
72448W        W34111  17.565  36.867   1.210
72449W        W34112   6.694   8.245   0.456
72450W        W34113  13.331  32.980  13.803
72451W        W34114  40.923  42.308  10.617
72452W        W34115   1.449   1.475   0.951
72453W        W34116  29.538  37.873   4.679
72454W        W34117   6.917   2.277  12.456
72455W        W34118  16.139  31.630  14.498
72456W        W34119   1.241  20.643   1.886
72457W        W34120  16.654  30.581   0.810
72458W        W34121   3.452   6.814  14.378
72459W        W34122   3.261  28.013  12.040
72460W        W34123  18.583   6.855  13.808
72461W        W34124  26.005   1.325  10.908
72462W        W34125  37.880   1.811   0.314
72463W        W34126  29.030   4.726  10.501
72464W        W34127  17.136   8.799   0.434
72465W        W34128   7.293  43.959   3.356
72466W        W34129  30.488  31.580   0.801
72467W        W34130   5.389  42.310  14.831
72468W        W34131  12.134  31.982   4.837
72469W        W34132   1.356   8.700   3.780
72470W        W34133  16.251  29.539   3.767
72471W        W34134   8.202  24.599  13.904
72472W        W34135  44.261   8.255  12.486
72473W        W34136   2.373  24.590  12.988
72474W        W34137  31.938  28.572   3.310
72475W        W34138   6.354  11.768  11.110
72476W        W34139  12.125  30.060  12.457
72477W        W34140  32.916   2.790   4.291
72478W        W34141  40.046   9.889   2.380
72479W        W34142  39.539  44.334   3.701
72480W        W34143  14.778  13.689   0.398
72481W        W34144   8.227  28.646   3.702
72482W        W34145  28.446  43.279  11.095
72483W        W34146  31.108  22.647  14.504
72484W        W34147  10.244  42.871  11.519
72485W        W34148  26.473  20.761   0.467
72486W        W34149  25.086  22.589   4.338
72487W        W34150  16.791  40.325  12.044
72488W        W34151  15.638   9.789  13.372
72489W        W34152  42.486  26.538   0.482
72490W        W34153  29.130  39.340  14.429
72491W        W34154  37.834  15.678   1.903
72492W        W34155  15.736   7.307   2.365
72493W        W34156   2.768  22.676  12.340
72494W        W34157  19.677   6.280  12.915
72495W        W34158  20.527  21.711   3.275
72496W        W34159  23.593  30.047  13.355
72497W        W34160  40.377  26.953   3.649
72498W        W34161  22.163  38.990   3.273
72499W        W34162  26.641  31.592  14.992
72500W        W34163  28.011  42.000   2.294
72501W        W34164  27.666  31.621  14.418
72502W        W34165  13.295  40.467   4.211
72503W        W34166  17.716  21.524   2.689
72504W        W34167  41.411  13.166  14.848
72505W        W34168  33.125  14.741   1.434
72506W        W34169  11.664  25.530  12.933
72507W        W34170  37.952  37.870   2.202
72508W        W34171  39.491   2.268   0.419
72509W        W34172  33.093  41.427  11.920
72510W        W34173  39.009  28.061  12.953
72511W        W34174  44.948  12.659   3.699
72512W        W34175  39.891  30.090   3.262
72513W        W34176  33.119  13.276  14.516
72514W        W34177  24.168  35.527   2.391
72515W        W34178  39.473  12.710  11.509
72516W        W34179  39.866  31.403   1.451
72517W        W34180  25.147  24.533   3.298
72518W        W34181  39.011   8.843  11.855
72519W        W34182  16.766  36.915   0.855
72520W        W34183  19.659  38.332   4.143
72521W        W34184  31.490  31.617   2.253
72522W        W34185  13.129   7.810  13.437
72523W        W34186   8.402  12.748   3.680
72524W        W34187  23.595  14.640  10.955
72525W        W34188  13.786  26.046   0.807
72526W        W34189  42.522  24.995   5.318
72527W        W34190   0.278   9.371   2.708
72528W        W34191  38.900  34.614  13.915
72529W        W34192  36.423  36.056   1.863
72530W        W34193  37.049  28.594   4.201
72531W        W34194  27.602   3.873  13.412
72532W        W34195   6.779   6.746  14.983
72533W        W34196  19.088  11.803   3.164
72534W        W34197  25.037  35.561  14.918
72535W        W34198  42.526   4.324   3.738
72536W        W34199   8.307   1.834  13.490
72537W        W34200  15.756  35.890  10.437
72538W        W34201  31.078  27.507   4.703
72539W        W34202  20.719  34.447  13.023
72540W        W34203  33.000  43.444  12.951
72541W        W34204  34.949  13.707  13.840
72542W        W34205  39.840  31.624  14.764
72543W        W34206  33.426  18.075   0.884
72544W        W34207  11.632   9.654   0.266
72545W        W34208   6.316  19.723   1.887
72546W        W34209  17.559   8.178   2.237
72547W        W34210  34.871  22.730   2.342
72548W        W34211  36.986   8.836  11.873
72549W        W34212   7.730   6.852   0.374
72550W        W34213  31.526  43.469   4.838
72551W        W34214  36.891  13.181  10.902
72552W        W34215  26.060  23.592   2.873
72553W        W34216  36.524  36.424   4.805
72554W        W34217  42.483  32.995   2.836
72555W        W34218   6.802  12.149   1.343
72556W        W34219  14.591  12.189  12.374
72557W        W34220  17.236   9.821  11.028
72558W        W34221  44.331  33.964   4.742
72559W        W34222   4.440  27.566  11.110
72560W        W34223   7.289  37.372   2.685
72561W        W34224  32.062   3.460   0.870
72562W        W34225  40.859  39.010   0.923
72563W        W34226   7.889  31.486   0.788
72564W        W34227  24.576   3.792   0.382
72565W        W34228  24.169   8.202  14.865
72566W        W34229  14.709   6.695   2.711
72567W        W34230  28.085  28.037  12.093
72568W        W34231  26.956   8.883   0.890
72569W        W34232  37.532  43.502  12.357
72570W        W34233   4.888  29.925  12.534
72571W        W34234  11.640  18.617  13.897
72572W        W34235  16.733  11.737  12.073
72573W        W34236  37.546  43.395   1.922
72574W        W34237  32.942   2.920  11.547
72575W        W34238  38.891  39.364  11.895
72576W        W34239  25.964  23.628   4.228
72577W        W34240  15.751  16.719   0.373
72578W        W34241  37.071  35.370   3.351
72579W        W34242  20.591  34.469  10.616
72580W        W34243  33.008   4.305   3.363
72581W        W34244  40.475   7.667   4.700
72582W        W34245  11.159  33.588  14.982
72583W        W34246   6.766  12.856   4.249
72584W        W34247  24.226   6.348  10.480
72585W        W34248  15.325   9.872   4.635
72586W        W34249   4.232  20.171   0.463
72587W        W34250  26.656  27.607  14.435
72588W        W34251  12.841  14.819  14.448
72589W        W34252   5.738  22.174   2.680
72590W        W34253  38.936  33.430   5.258
72591W        W34254  43.786   5.342  13.309
72592W        W34255   3.855  16.127   2.201
72593W        W34256  21.175  35.384   2.198
72594W        W34257   0.408  25.554  14.345
72595W        W34258  23.725  25.503  12.449
72596W        W34259  44.489  39.005   5.266
72597W        W34260  38.911   4.793   3.261
72598W        W34261  25.200   1.333  14.808
72599W        W34262  37.948  22.538  11.000
72600W        W34263  18.545  19.100   2.686
72601W        W34264  21.055  31.509   2.393
72602W        W34265  43.939  11.798   0.959
72603W        W34266  39.906   7.201   4.183
72604W        W34267  20.246  15.720   0.359
72605W        W34268  19.189  37.580   3.759
72606W        W34269  15.801   7.375  11.585
72607W        W34270   9.299  25.571   0.351
72608W        W34271   4.918  19.142  11.866
72609W        W34272  12.348   5.345   4.638
72610W        W34273  26.513  40.907   0.834
72611W        W34274  24.145   0.793  11.107
72612W        W34275   1.967  18.716  14.784
72613W        W34276   3.895  28.006  10.914
72614W        W34277  40.311  27.507   1.923
72615W        W34278  36.870  33.501   3.841
72616W        W34279  20.263  20.724   3.763
72617W        W34280  36.046  15.128  10.934
72618W        W34281   8.692  18.181  12.831
72619W        W34282  28.623  10.326  10.454
72620W        W34283  18.739  19.057  14.368
72621W        W34284  24.554  28.453   2.684
72622W        W34285   1.786  20.033   2.218
72623W        W34286  44.272  24.608  10.441
72624W        W34287  35.921  43.966   1.344
72625W        W34288  41.990  24.655  10.950
72626W        W34289  34.424  41.453   3.354
72627W        W34290  40.843  12.790   0.760
72628W        W34291  11.337   7.769   4.774
72629W        W34292  44.765  20.198  11.371
72630W        W34293  41.382   0.397   1.794
72631W        W34294  16.782  30.547   2.700
72632W        W34295  17.718  19.071  11.605
72633W        W34296   8.398  20.061   2.891
72634W        W34297  25.078  20.540   3.352
72635W        W34298   0.407  43.966  13.468
72636W        W34299  40.323  19.778  10.082
72637W        W34300  40.514   1.939  13.484
72638W        W34301  37.462  42.416   1.850
72639W        W34302  43.809  18.210   4.713
72640W        W34303  14.792   0.262  12.911
72641W        W34304   8.782  22.654  11.028
72642W        W34305   8.397  22.079   0.287
72643W        W34306  10.698  24.166  13.010
72644W        W34307  27.520  14.107   2.772
72645W        W34308   4.759  43.991  11.608
72646W        W34309  18.296  37.514  13.825
72647W        W34310   2.742  40.947  14.325
72648W        W34311  25.965  11.638   4.601
72649W        W34312   5.774  25.532  14.899
72650W        W34313  44.800   2.456  14.278
72651W        W34314  28.097   5.826  10.014
72652W        W34315  17.125  11.708   2.227
72653W        W34316  25.606   4.911   4.226
72654W        W34317  28.080  32.584   1.332
72655W        W34318  29.163  24.723  14.299
72656W        W34319  27.624  26.481  12.350
72657W        W34320  15.232   7.817   4.696
72658W        W34321  38.491  13.801   4.716
72659W        W34322  26.053  31.062  11.379
72660W        W34323   8.264  27.991   3.848
72661W        W34324   7.812   3.832  14.487
72662W        W34325  25.129  19.215   3.152
72663W        W34326  34.378  40.871  14.838
72664W        W34327  28.533  34.505  14.022
72665W        W34328  40.455  31.013   0.385
72666W        W34329   2.932  35.425   2.282
72667W        W34330  21.519  41.866  13.937
72668W        W34331  33.907  29.002  14.771
72669W        W34332  11.239  28.484   1.847
72670W        W34333  27.958  44.842   3.325
72671W        W34334  41.976   9.314   2.233
72672W        W34335  20.030  12.801  10.452
72673W        W34336  29.007  38.070  12.535
72674W        W34337   4.218  38.445  13.307
72675W        W34338  25.556  33.001   0.909
72676W        W34339  32.521  13.206  13.906
72677W        W34340  11.841   9.731   3.648
72678W        W34341  18.643  29.647   0.440
72679W        W34342   3.823  12.737   1.436
72680W        W34343   4.226  41.018   0.279
72681W        W34344  42.518  31.964   3.738
72682W        W34345  28.088  19.726   5.227
72683W        W34346   7.190  40.447  12.502
72684W        W34347   3.396  27.651   3.329
72685W        W34348  38.429   3.740  11.962
72686W        W34349  11.361  14.669   4.310
72687W        W34350   2.430  39.545   2.816
72688W        W34351   7.240  34.031   2.721
72689W        W34352  20.577   9.799  14.308
72690W        W34353  18.234   5.284  11.013
72691W        W34354  20.234   2.797   9.970
72692W        W34355  19.248  37.485   0.798
72693W        W34356  20.140  23.636  14.976
72694W        W34357  11.645   6.709  12.501
72695W        W34358  18.757   3.437  12.877
72696W        W34359  14.643  21.141  10.451
72697W        W34360  23.084  17.697  12.464
72698W        W34361  36.050  30.573   2.666
72699W        W34362  19.742  17.270  12.068
72700W        W34363  24.031  14.595   3.218
72701W        W34364  27.497   8.275   0.308
72702W        W34365  13.787  33.562  14.878
72703W        W34366  10.791  29.971  11.902
72704W        W34367  20.229  18.283   3.767
72705W        W34368   9.179  17.712   3.632
72706W        W34369  12.263  23.057  14.442
72707W        W34370  16.683  13.765   1.854
72708W        W34371  22.084  16.625  11.964
72709W        W34372   9.877  34.548  12.532
72710W        W34373  13.652  42.419   0.877
72711W        W34374  10.347  38.532  10.006
72712W        W34375  38.365  26.577  13.490
72713W        W34376   6.329  15.625   3.247
72714W        W34377   4.878  17.764   1.749
72715W        W34378  41.396  15.693   0.777
72716W        W34379  25.037  27.515   1.819
72717W        W34380  42.358  23.027  10.940
72718W        W34381  14.794  43.970  14.960
72719W        W34382  28.134  29.057  12.069
72720W        W34383  13.783  23.224  13.331
72721W        W34384  37.477  28.181   1.252
72722W        W34385  27.511   9.316  11.480
72723W        W34386  22.674  21.106  11.408
72724W        W34387  33.979  25.559  10.570
72725W        W34388  14.193  31.136  11.427
72726W        W34389   3.855  20.174  14.805
72727W        W34390  42.790  11.224   9.976
72728W        W34391  27.498  22.063   4.782
72729W        W34392  24.206  35.524   1.276
72730W        W34393  11.265  18.751   0.820
72731W        W34394  32.010   7.186  14.938
72732W        W34395  35.539  14.688  13.377
72733W        W34396  24.546  20.096   3.350
72734W        W34397  17.623   5.267  12.437
72735W        W34398  21.691   1.321  14.351
72736W        W34399  21.166  13.280   2.769
72737W        W34400  43.774  43.990  14.011
72738W        W34401  14.178  41.975  13.872
72739W        W34402  28.015   6.369  12.404
72740W        W34403  32.949  31.905  12.571
72741W        W34404  18.785  23.154  11.030
72742W        W34405   1.441  26.996  11.550
72743W        W34406  38.834   7.178  13.980
72744W        W34407  11.279  13.754  12.908
72745W        W34408  28.603  23.636   3.861
72746W        W34409   4.916  41.412   4.305
72747W        W34410  17.117  39.363   0.269
72748W        W34411  39.356   3.336   4.698
72749W        W34412   4.253  37.004   3.356
72750W        W34413   4.410  27.573  12.055
72751W        W34414  29.004  42.417   2.352
72752W        W34415  16.702  21.053  12.920
72753W        W34416  43.766  22.522   3.864
72754W        W34417  20.671  29.613   3.747
72755W        W34418   9.373  20.595  13.530
72756W        W34419  33.454  36.541   3.280
72757W        W34420  10.143  20.678  11.093
72758W        W34421  10.715   9.178  14.281
72759W        W34422  42.496   2.768  11.884
72760W        W34423  14.692  38.338   0.306
72761W        W34424  20.740   3.260   1.857
72762W        W34425  26.042  37.913  10.643
72763W        W34426  25.623   6.230  14.861
72764W        W34427  38.415  26.649   3.268
72765W        W34428  11.209  19.579   0.362
72766W        W34429  25.030  33.584   4.603
72767W        W34430   7.888  15.657   3.687
72768W        W34431  44.768  15.258   1.262
72769W        W34432  44.318  41.352  12.014
72770W        W34433  10.636  43.769  14.775
72771W        W34434  22.619  18.150   5.206
72772W        W34435   5.725   4.861  12.911
72773W        W34436  16.703  20.614   2.242
72774W        W34437  27.001   4.863   1.702
72775W        W34438  40.516  16.160   2.353
72776W        W34439  32.488   3.737   4.304
72777W        W34440  25.700  23.525  14.985
72778W        W34441  30.996  13.273  14.922
72779W        W34442  16.753  23.241   4.681
72780W        W34443   5.359  23.694  14.862
72781W        W34444  25.978   6.293   2.341
72782W        W34445   0.426  20.149  14.357
72783W        W34446   2.396  37.414   2.802
72784W        W34447  29.454  22.232  14.292
72785W        W34448  40.396  43.799   2.746
72786W        W34449  26.478  25.970   5.153
72787W        W34450  24.516   8.761  10.417
72788W        W34451  18.271  39.439   1.726
72789W        W34452  23.011  10.740   2.839
72790W        W34453   4.899  32.597   1.365
72791W        W34454  17.621  14.663   2.707
72792W        W34455   0.963  43.410   0.752
72793W        W34456  41.381   7.354   3.267
72794W        W34457  27.114   0.377  11.538
72795W        W34458  40.889  38.425   1.909
72796W        W34459   6.357  40.476  11.562
72797W        W34460   8.741  19.098   1.321
72798W        W34461  20.186  26.129  13.535
72799W        W34462  15.108  12.337  12.091
72800W        W34463   7.387  28.056  11.953
72801W        W34464   4.724  28.031  14.837
72802W        W34465  44.813  19.620  14.988
72803W        W34466  33.988  29.960   2.388
72804W        W34467  15.164  44.353  13.486
72805W        W34468  23.625  44.313   1.361
72806W        W34469  38.562  17.069   4.628
72807W        W34470  25.010  10.804  12.032
72808W        W34471  35.061  16.723   4.694
72809W        W34472  36.868  24.680  14.891
72810W        W34473  31.418   3.844  12.525
72811W        W34474  38.541  18.238   1.419
72812W        W34475  23.644  29.453   0.403
72813W        W34476  15.641  16.618  14.007
72814W        W34477  10.258  37.375   5.299
72815W        W34478  27.114  15.662   3.847
72816W        W34479  14.153   2.331  11.449
72817W        W34480  40.910  38.382  12.564
72818W        W34481  29.950  19.113   2.262
72819W        W34482  28.004   9.717  13.924
72820W        W34483  38.993  22.153   1.776
72821W        W34484  40.902  23.003  14.448
72822W        W34485   7.205  12.344  13.340
72823W        W34486  32.405   8.810  13.354
72824W        W34487  42.446   0.953   2.418
72825W        W34488  19.617   7.738  13.449
72826W        W34489  34.506  12.336  12.843
72827W        W34490   0.271   9.321  10.956
72828W        W34491  22.095  27.603  11.537
72829W        W34492  21.247  22.177   2.723
72830W        W34493  11.705   8.294   0.958
72831W        W34494  12.847  13.743   0.292
72832W        W34495  10.324  28.136  12.959
72833W        W34496  21.547   2.822  11.439
72834W        W34497   6.823  43.020   2.414
72835W        W34498  15.697  16.315   2.874
72836W        W34499  44.924   5.842  10.643
72837W        W34500  14.631  34.889   4.835
72838W        W34501  28.096  35.526   2.303
72839W        W34502  41.333  17.717  12.576
72840W        W34503   2.321  34.476   3.705
72841W        W34504  26.973  32.485  13.976
72842W        W34505  40.531  31.495   0.393
72843W        W34506  14.830   2.743  14.948
72844W        W34507  30.631   3.822   2.369
72845W        W34508  41.919  16.591   1.698
72846W        W34509  20.692  12.209   1.915
72847W        W34510  24.675  20.065   2.272
72848W        W34511  16.711   5.754  13.792
72849W        W34512  12.250  18.103  11.988
72850W        W34513  19.041  42.838  13.950
72851W        W34514  18.080   6.193   2.232
72852W        W34515   7.320  17.238  13.431
72853W        W34516  20.267  21.225   2.691
72854W        W34517  17.596  21.559  10.924
72855W        W34518   7.882  28.128  10.992
72856W        W34519  13.710  13.244  11.063
72857W        W34520  35.437  13.631   2.680
72858W        W34521   7.845  36.887  10.914
72859W        W34522  37.007  34.032  10.984
72860W        W34523   9.210  12.267  11.922
72861W        W34524   5.818  24.537   3.361
72862W        W34525   2.254  16.646   4.617
72863W        W34526  24.603  28.456   1.225
72864W        W34527  20.643  13.751   0.356
72865W        W34528   0.477  25.578   1.413
72866W        W34529  25.520  11.625  11.106
72867W        W34530  28.137  38.404  11.993
72868W        W34531  23.569  22.539  12.500
72869W        W34532  16.281  26.473  10.894
72870W        W34533  21.160  41.450   1.884
72871W        W34534   1.831   8.230  13.822
72872W        W34535  12.199  39.361  12.381
72873W        W34536  37.969  20.151  14.885
72874W        W34537  14.213  19.546  13.362
72875W        W34538  28.635  12.685  10.537
72876W        W34539  37.531  35.386   1.335
72877W        W34540  25.560  18.743  10.487
72878W        W34541   7.820  43.297   1.702
72879W        W34542  44.468   6.723   4.141
72880W        W34543   9.643   2.295  13.886
72881W        W34544   7.402  16.658  13.432
72882W        W34545   5.306  29.120  11.105
72883W        W34546  12.152  21.185   3.172
72884W        W34547  41.411  33.408   1.294
72885W        W34548  23.622  39.831  14.839
72886W        W34549  21.209  19.649  10.429
72887W        W34550  10.338  35.974   3.765
72888W        W34551  30.110  14.819  11.569
72889W        W34552  23.221   9.767  11.047
72890W        W34553  22.681   9.382   2.854
72891W        W34554  31.623  14.094  11.379
72892W        W34555  37.982  43.457  13.946
72893W        W34556   5.914   0.370  10.949
72894W        W34557  27.042  10.819  14.469
72895W        W34558   8.336  16.754  12.414
72896W        W34559   6.249   5.716  13.320
72897W        W34560  13.634  23.195  13.849
72898W        W34561  31.994  38.875   5.151
72899W        W34562  30.530  23.560   1.363
72900W        W34563  37.506  16.690  14.017
72901W        W34564  15.813  19.120  12.064
72902W        W34565   1.370   0.275  10.478
72903W        W34566  36.021  27.960  12.504
72904W        W34567  35.362  23.652  13.985
72905W        W34568  35.050  37.469  10.912
72906W        W34569  34.379  32.421   1.914
72907W        W34570  34.467  40.349   2.305
72908W        W34571  14.246  35.089   0.271
72909W        W34572   1.842  43.938   0.875
72910W        W34573  31.047   7.908   1.853
72911W        W34574   9.387  29.068   0.883
72912W        W34575  42.400  11.255  14.927
72913W        W34576  38.934  12.122  14.908
72914W        W34577  43.483  44.987  11.869
72915W        W34578  24.200  19.538   5.182
72916W        W34579  18.775  25.212  11.913
72917W        W34580   5.193   2.780   2.902
72918W        W34581  35.490   2.934  14.910
72919W        W34582  16.654   7.212  13.853
72920W        W34583  30.993  38.463  12.535
72921W        W34584   3.383  38.330   4.234
72922W        W34585  16.599  14.132  10.572
72923W        W34586   9.766  38.382  10.980
72924W        W34587   1.390  24.566  13.064
72925W        W34588   4.334   4.209   1.435
72926W        W34589  35.397   7.338  10.115
72927W        W34590  34.892  17.639   0.280
72928W        W34591  33.569   4.924  11.417
72929W        W34592   8.236   5.259  12.522
72930W        W34593  16.072  23.133   0.476
72931W        W34594   6.367   7.311  14.988
72932W        W34595  40.802  36.934  10.577
72933W        W34596  38.934  33.993  12.006
72934W        W34597  40.008  22.250  10.924
72935W        W34598   2.291  35.005   4.614
72936W        W34599  34.414  30.133  10.536
72937W        W34600  34.951  36.861   3.814
72938W        W34601  38.478  16.587   2.877
72939W        W34602   1.452  31.050  10.611
72940W        W34603   5.723  11.711  12.880
72941W        W34604  35.949  18.259   4.635
72942W        W34605  35.955  37.855   1.314
72943W        W34606  42.306  10.871   1.913
72944W        W34607  36.026  20.618  14.492
72945W        W34608  17.688  27.997  13.887
72946W        W34609   0.436  42.416   0.936
72947W        W34610  11.828  14.593  11.599
72948W        W34611   7.678   1.877  13.420
72949W        W34612  27.967   3.949   2.797
72950W        W34613  22.218  33.403  14.896
72951W        W34614   4.803  39.962  13.801
72952W        W34615   3.399  23.218   1.917
72953W        W34616  10.719  16.661  11.025
72954W        W34617  31.523  21.665  12.359
72955W        W34618  17.669  20.029  10.417
72956W        W34619   0.263  31.959   3.322
72957W        W34620  10.806  38.554  11.124
72958W        W34621  20.548  24.080   1.716
72959W        W34622  38.867   5.194   2.841
72960W        W34623  16.718  33.412   3.162
72961W        W34624  29.511  44.364   2.406
72962W        W34625  13.275  37.582  12.079
72963W        W34626   2.895  18.196   2.754
72964W        W34627  29.943  32.613  10.996
72965W        W34628   4.225   2.302   4.761
72966W        W34629   2.812  43.344   0.782
72967W        W34630  30.496  26.574   0.410
72968W        W34631  13.610  28.563   1.823
72969W        W34632  13.312  38.483  12.560
72970W        W34633   9.375  17.112   9.981
72971W        W34634  32.475  30.924   3.371
72972W        W34635  25.661  27.687   0.835
72973W        W34636   2.906   3.846  14.774
72974W        W34637  34.018  26.067   3.194
72975W        W34638  26.194   1.410   1.934
72976W        W34639   7.833   1.814  11.872
72977W        W34640   0.983  13.262   2.337
72978W        W34641   7.776  14.282   0.885
72979W        W34642  33.009  41.329   3.650
72980W        W34643   0.822  44.300  13.816
72981W        W34644   1.305  12.260   3.157
72982W        W34645  22.045  27.120   4.164
72983W        W34646  39.419  40.517   0.480
72984W        W34647  20.765  22.147   4.700
72985W        W34648  32.023  14.201   4.113
72986W        W34649  21.642   8.697   4.779
72987W        W34650  24.709  35.892  10.922
72988W        W34651  17.751  41.414  12.439
72989W        W34652   7.341  26.086   3.296
72990W        W34653  39.424  37.351   3.863
72991W        W34654  42.788   0.397  13.935
72992W        W34655  16.239   0.763  13.484
72993W        W34656  11.804   8.324   3.162
72994W        W34657  10.728  43.923   3.322
72995W        W34658  24.513   2.897  13.528
72996W        W34659  35.931   2.746  11.409
72997W        W34660  41.324   5.923   4.211
72998W        W34661   0.971  42.307  14.307
72999W        W34662  34.076  20.219  12.066
73000W        W34663   3.295  39.321  14.004
73001W        W34664  10.371  26.512   3.837
73002W        W34665   7.290  28.131   2.867
73003W        W34666  11.288  41.789  13.454
73004W        W34667  12.311  22.538  11.403
73005W        W34668  36.042  22.655  13.829
73006W        W34669  36.911  14.666   2.328
73007W        W34670  31.476  36.458   0.835
73008W        W34671  17.771   4.826  12.947
73009W        W34672  22.678  11.228  12.546
73010W        W34673  24.989  36.045   3.832
73011W        W34674  37.919   9.323  13.457
73012W        W34675  43.306   6.832  13.402
73013W        W34676  29.460  12.737  11.908
73014W        W34677  44.260  32.040   3.200
73015W        W34678  32.949  21.218  13.986
73016W        W34679   9.849   8.899   2.706
73017W        W34680  32.551  33.620   4.197
73018W        W34681  12.137  28.576  12.379
73019W        W34682   0.865  37.936  12.054
73020W        W34683  15.606  37.835  12.094
73021W        W34684  22.218  33.913   3.182
73022W        W34685  42.935   9.350   3.261
73023W        W34686   6.315  17.608   1.753
73024W        W34687   4.708  39.826   2.878
73025W        W34688  39.990  31.430   1.742
73026W        W34689  37.516   6.901  12.568
73027W        W34690  21.182  34.389  13.418
73028W        W34691  29.553  40.482   3.182
73029W        W34692  10.754  23.164   2.809
73030W        W34693  40.375   2.959   2.221
73031W        W34694  36.431  42.803  11.013
73032W        W34695  24.495   7.752   2.730
73033W        W34696  22.503   1.794   2.718
73034W        W34697  11.279   9.282  13.063
73035W        W34698  43.779   4.304   0.922
73036W        W34699  37.886  29.458   3.838
73037W        W34700  38.483  19.572  13.967
73038W        W34701   5.272  23.717   1.243
73039W        W34702  44.369  39.944   2.706
73040W        W34703  29.010   9.861  12.342
73041W        W34704  10.767   4.380   0.408
73042W        W34705   6.422  34.614  11.895
73043W        W34706  14.254  42.323   4.174
73044W        W34707  18.641   1.897   1.391
73045W        W34708   3.911  44.353   1.334
73046W        W34709  22.174  26.105   3.829
73047W        W34710  15.250  41.964  13.354
73048W        W34711  43.860   1.314  11.489
73049W        W34712  39.493  28.657  12.053
73050W        W34713  12.786  17.577   4.751
73051W        W34714   5.306  43.783  13.939
73052W        W34715  40.425  10.721  14.946
73053W        W34716   9.714  43.343  13.499
73054W        W34717  26.686  14.108  13.798
73055W        W34718  33.530  13.265  11.082
73056W        W34719  19.765  36.967  13.006
73057W        W34720  15.212  27.988   0.919
73058W        W34721  20.707  19.134  13.527
73059W        W34722  23.050  28.461  10.544
73060W        W34723  24.074  18.767  11.390
73061W        W34724  24.153  37.469  12.553
73062W        W34725  29.455  19.068   1.313
73063W        W34726  24.487  19.284  13.867
73064W        W34727  29.161  40.330   3.860
73065W        W34728  19.552  14.810   2.290
73066W        W34729  37.402  39.509  12.435
73067W        W34730  34.542  23.122   0.834
73068W        W34731   0.456  13.212  13.985
73069W        W34732   0.906   0.862   3.366
73070W        W34733  32.942  11.866   2.866
73071W        W34734  44.810  22.720  12.567
73072W        W34735  17.109  20.675  13.526
73073W        W34736   2.357  40.388  12.862
73074W        W34737  10.273  17.172  12.437
73075W        W34738  36.379  23.659   1.259
73076W        W34739  17.149  23.584  11.072
73077W        W34740  16.219  16.659   2.816
73078W        W34741  34.056  37.045   3.386
73079W        W34742   1.445  16.773   3.188
73080W        W34743  28.536  31.004  11.023
73081W        W34744  11.267  10.721   5.289
73082W        W34745   1.357  25.023   3.673
73083W        W34746  40.313   6.322  11.922
73084W        W34747  13.626  10.661  10.927
73085W        W34748  38.826   3.804   1.780
73086W        W34749  28.001   2.915  11.384
73087W        W34750   3.373  27.510  13.909
73088W        W34751  12.740  11.654   0.318
73089W        W34752  24.635  35.076   4.260
73090W        W34753  30.931  11.685  10.926
73091W        W34754  44.840  31.543   1.230
73092W        W34755   9.315   4.829   1.696
73093W        W34756  26.522  29.094   0.294
73094W        W34757  38.076  34.574   1.435
73095W        W34758  41.862   7.911  14.441
73096W        W34759   1.805  14.823   4.640
73097W        W34760  35.072  25.205  11.592
73098W        W34761  43.776  39.913  11.084
73099W        W34762  30.470  21.182   9.943
73100W        W34763  15.587  23.637  12.398
73101W        W34764  36.044  30.001   1.239
73102W        W34765  26.540  23.672  12.833
73103W        W34766  19.189  24.574  14.455
73104W        W34767  16.568  10.788   0.318
73105W        W34768  41.318  31.533   0.301
73106W        W34769  33.419   6.192   2.745
73107W        W34770  21.715  39.366   1.307
73108W        W34771  21.709  11.751  10.040
73109W        W34772   8.828  25.601  11.908
73110W        W34773   0.312  24.504   3.156
73111W        W34774  12.821  43.945   0.906
73112W        W34775   0.287   7.888  12.926
73113W        W34776  37.060  11.713   1.403
73114W        W34777  11.838   3.931  14.929
73115W        W34778   5.244  15.809  12.414
73116W        W34779  40.476   6.791   2.823
73117W        W34780  22.229  15.243   3.763
73118W        W34781  11.329   2.324  13.855
73119W        W34782  17.218  29.592  14.389
73120W        W34783  44.298  33.954  14.991
73121W        W34784  40.340  17.080   2.721
73122W        W34785   7.680  20.202  11.421
73123W        W34786  23.644  11.816  14.855
73124W        W34787  33.972   8.323   0.433
73125W        W34788  21.104  23.666   1.857
73126W        W34789  31.034  20.154  13.054
73127W        W34790  25.113  35.968  12.492
73128W        W34791  36.433   9.715   3.771
73129W        W34792  19.599  31.552   2.735
73130W        W34793  24.617  14.757  13.453
73131W        W34794   0.494  21.185   1.445
73132W        W34795  16.777  29.550   1.245
73133W        W34796  32.102  28.652  12.852
73134W        W34797   9.344  19.578  11.589
73135W        W34798  25.036  10.333   2.882
73136W        W34799  37.902  38.330   3.340
73137W        W34800  28.616  37.960  10.544
73138W        W34801   2.379  12.175  12.566
73139W        W34802  29.513   9.844  14.336
73140W        W34803   5.238   5.298  14.012
73141W        W34804  36.991  20.648   1.264
73142W        W34805  17.277  40.010   0.796
73143W        W34806  21.516  12.794   3.720
73144W        W34807  23.502   2.942  14.451
73145W        W34808  24.667  42.483  12.828
73146W        W34809  32.019  39.492  14.310
73147W        W34810  38.902   4.703   1.754
73148W        W34811  21.072  44.457  11.071
73149W        W34812  40.387  29.126  11.539
73150W        W34813  26.986   2.834   1.277
73151W        W34814  35.871  19.089   4.702
73152W        W34815  37.031  31.441   4.773
73153W        W34816  30.008  36.014   0.372
73154W        W34817  26.972  36.565  14.500
73155W        W34818  24.498  16.154  14.841
73156W        W34819  20.581   5.850   5.279
73157W        W34820  40.043  41.439   3.799
73158W        W34821  35.972  12.227   3.357
73159W        W34822  19.186  33.932   4.710
73160W        W34823  26.539   7.844   4.634
73161W        W34824   8.655  25.078  10.889
73162W        W34825  18.784  34.041   3.752
73163W        W34826   4.732  32.070  10.905
73164W        W34827  24.983  22.102  11.600
73165W        W34828  21.660  43.305  12.381
73166W        W34829  37.428  39.900  10.018
73167W        W34830  32.114   0.986  12.476
73168W        W34831   2.906   6.333   0.396
73169W        W34832  20.169  25.571   2.697
73170W        W34833  32.973  10.329  12.938
73171W        W34834  27.560  35.853   4.274
73172W        W34835  32.471   0.800   1.821
73173W        W34836  16.772  33.539  14.884
73174W        W34837  33.613  34.511   0.940
73175W        W34838  42.010   5.348  10.954
73176W        W34839  35.603  13.731  13.336
73177W        W34840  18.577  15.705   0.965
73178W        W34841   1.331  38.872   1.447
73179W        W34842  41.336  25.202   1.816
73180W        W34843  31.639   2.773   1.774
73181W        W34844  23.144  42.793  10.561
73182W        W34845  26.554  21.629  11.969
73183W        W34846  28.572   7.334   1.406
73184W        W34847  35.947   3.817   2.262
73185W        W34848   0.474   3.453  11.450
73186W        W34849  21.194  18.175   3.791
73187W        W34850  35.497  42.892  12.489
73188W        W34851   3.939  25.973  10.913
73189W        W34852  40.458   4.229  14.021
73190W        W34853  23.077  19.665   4.628
73191W        W34854  43.409  31.617  14.026
73192W        W34855  18.626  19.557  14.788
73193W        W34856  37.914  18.123  10.470
73194W        W34857  19.743  18.134  11.569
73195W        W34858  35.937  34.597  10.544
73196W        W34859  37.466  31.642   0.361
73197W        W34860  34.079  36.035  10.459
73198W        W34861  13.224   0.430   4.693
73199W        W34862  43.506  11.156  12.376
73200W        W34863  11.269  20.037  13.792
73201W        W34864  42.820  17.798  14.503
73202W        W34865  14.325  24.202  11.935
73203W        W34866  41.356  38.882  10.898
73204W        W34867  39.402   7.336   1.369
73205W        W34868  30.417  38.054   4.228
73206W        W34869  15.205   4.768  10.549
73207W        W34870   9.313  39.003  12.340
73208W        W34871  40.813  35.867  10.599
73209W        W34872  38.515   6.406  13.464
73210W        W34873  20.590   4.302   2.365
73211W        W34874  30.157  29.972  11.564
73212W        W34875  38.841  42.962  10.643
73213W        W34876  43.886  16.727   2.883
73214W        W34877   5.395  36.004   3.662
73215W        W34878   5.434   0.470   4.605
73216W        W34879  33.884   9.824   2.411
73217W        W34880  15.688  42.458   2.867
73218W        W34881  33.592  29.567  14.417
73219W        W34882  44.316   8.333   1.246
73220W        W34883  10.698  21.745  11.069
73221W        W34884  17.673  32.554  11.046
73222W        W34885  13.175  35.884   1.285
73223W        W34886  13.158  31.032  11.593
73224W        W34887   8.871  39.005   3.690
73225W        W34888  37.831   3.312  13.813
73226W        W34889  41.424  27.109   0.349
73227W        W34890  33.073  23.628   1.906
73228W        W34891  21.751  32.500  13.859
73229W        W34892  18.742  24.098  10.050
73230W        W34893  28.533  15.221  14.026
73231W        W34894  12.342  30.038   0.816
73232W        W34895  33.602  44.423   2.900
73233W        W34896  35.867  13.263  14.495
73234W        W34897  15.771  30.051   0.249
73235W        W34898  38.474  20.171   2.265
73236W        W34899  43.813  41.485  13.974
73237W        W34900  35.852   0.769   0.393
73238W        W34901  43.988  43.501   3.298
73239W        W34902  23.051  42.966  13.816
73240W        W34903  34.477  39.824  12.066
73241W        W34904  10.712  17.628  14.304
73242W        W34905  28.150  44.412  14.973
73243W        W34906  12.618  20.129  11.128
73244W        W34907  28.608   9.743  12.843
73245W        W34908  12.713  30.447  10.461
73246W        W34909  21.738   3.445   0.916
73247W        W34910  11.759  29.995   0.923
73248W        W34911   1.465  27.555   0.395
73249W        W34912  12.195  33.480  12.402
73250W        W34913  24.226   4.254   3.844
73251W        W34914  37.065  28.022   0.869
73252W        W34915   7.834   4.753  10.562
73253W        W34916  37.476   7.331  10.013
73254W        W34917  25.159  41.927   2.419
73255W        W34918  38.921  30.007   3.824
73256W        W34919   3.798  25.034  12.008
73257W        W34920  24.715  23.121   1.913
73258W        W34921  32.630  38.510  13.053
73259W        W34922  39.365  23.064   3.758
73260W        W34923  27.543  32.029  14.481
73261W        W34924   3.444  32.101  13.003
73262W        W34925  35.541  44.838   3.855
73263W        W34926  25.992  38.945   2.731
73264W        W34927  44.860  16.753   9.948
73265W        W34928  16.772   4.429   3.755
73266W        W34929  27.183  31.501   1.446
73267W        W34930  42.492  40.521   0.953
73268W        W34931  22.528  37.863   0.782
73269W        W34932  20.532  33.494   1.928
73270W        W34933  26.051  36.931   0.897
73271W        W34934  22.198   1.793   3.235
73272W        W34935  15.812  23.137   0.765
73273W        W34936   3.765  16.303  10.966
73274W        W34937  31.969  10.665  13.427
73275W        W34938  27.994  35.932  14.947
73276W        W34939   2.900  31.532   4.668
73277W        W34940  33.099  38.829  11.394
73278W        W34941   6.848  42.945  10.994
73279W        W34942  24.682  15.103   2.721
73280W        W34943  25.673  43.988   3.167
73281W        W34944   0.753   6.678  14.017
73282W        W34945  21.606  40.473  10.889
73283W        W34946   8.354  26.010   1.768
73284W        W34947  22.673   8.827  10.582
73285W        W34948  39.506   5.744   0.483
73286W        W34949  23.202  17.296   0.787
73287W        W34950  37.898  34.562  10.970
73288W        W34951  38.526  24.554  10.450
73289W        W34952  35.406  37.430   1.212
73290W        W34953   0.955   5.325   0.370
73291W        W34954  34.969  28.097  14.009
73292W        W34955   9.183  17.735  13.834
73293W        W34956  25.173  39.545   2.379
73294W        W34957  21.699  38.471  12.417
73295W        W34958  34.447  32.981  11.585
73296W        W34959   3.950  23.230  11.118
73297W        W34960  14.720  22.054  12.824
73298W        W34961  16.108  18.253  12.461
73299W        W34962  11.368  17.176  13.062
73300W        W34963  10.269   2.771  14.812
73301W        W34964  16.570  11.682   1.343
73302W        W34965   8.203  20.168   2.273
73303W        W34966  36.472  15.745   2.847
73304W        W34967  33.620  17.144   9.967
73305W        W34968  34.876  14.181   1.408
73306W        W34969  14.717  44.978   2.800
73307W        W34970   9.367   0.473  11.917
73308W        W34971  27.493  42.017  12.577
73309W        W34972  29.599   9.351   4.286
73310W        W34973  12.238  23.008  11.458
73311W        W34974  24.649  41.989  11.613
73312W        W34975  22.526  13.795  11.120
73313W        W34976  19.579   5.291   1.723
73314W        W34977  18.199  26.559  12.013
73315W        W34978   1.919  30.936   1.818
73316W        W34979  30.067  31.053   3.647
73317W        W34980   9.877   1.399   1.255
73318W        W34981  43.836   5.765   0.311
73319W        W34982  26.201   7.753   1.449
73320W        W34983  41.012  15.580  11.092
73321W        W34984  10.843  19.733  14.836
73322W        W34985  19.701  26.623  13.995
73323W        W34986  21.223   1.796   2.192
73324W        W34987  26.002  12.838   0.813
73325W        W34988   0.900   0.982  11.038
73326W        W34989  42.286  23.224  13.009
73327W        W34990  39.812  23.008   1.418
73328W        W34991  28.466  11.642   0.872
73329W        W34992  33.080  25.544  13.477
73330W        W34993  25.078  28.118   1.812
73331W        W34994  21.701   7.880   3.648
73332W        W34995  26.559  27.104   1.922
73333W        W34996  19.095  37.059   0.457
73334W        W34997  36.067  21.644   2.281
73335W        W34998  14.324  40.442   1.394
73336W        W34999   0.781   6.352   1.888
73337W        W35000  35.999  13.330   0.795
73338W        W35001  19.664  43.482  13.500
73339W        W35002  32.048  19.728   3.814
73340W        W35003  39.036   6.687  14.429
73341W        W35004  27.655  11.627  14.996
73342W        W35005   0.278  24.129  14.822
73343W        W35006  16.772   0.747  14.898
73344W        W35007  25.650   6.262  12.064
73345W        W35008  21.131  28.156  10.523
73346W        W35009  19.697  39.854  10.959
73347W        W35010  37.883  23.554   4.164
73348W        W35011  10.672  22.199  14.328
73349W        W35012  20.043  44.489  13.459
73350W        W35013  33.490  28.667  14.291
73351W        W35014  43.018   5.786  11.973
73352W        W35015  19.665  31.501  13.948
73353W        W35016  20.758   5.322   1.237
73354W        W35017  39.969  13.284  10.644
73355W        W35018  29.562  26.064   3.335
73356W        W35019  39.516  37.335  13.434
73357W        W35020  39.954  17.562   1.397
73358W        W35021  29.625  26.703   1.281
73359W        W35022  33.874   4.880   5.603
73360W        W35023  27.084  35.474  12.981
73361W        W35024  42.971  20.601   1.815
73362W        W35025  12.714   2.380   4.691
73363W        W35026   5.211  15.198   2.250
73364W        W35027  16.120   5.772   1.239
73365W        W35028   4.416  36.867  12.399
73366W        W35029  13.318  18.786   2.729
73367W        W35030   3.932  24.665   1.250
73368W        W35031  26.140  35.064  13.991
73369W        W35032   9.659  31.573  10.574
73370W        W35033  25.527   3.296  10.902
73371W        W35034  27.971   8.671  10.948
73372W        W35035  23.984  37.563  13.028
73373W        W35036   7.282  13.277  10.416
73374W        W35037  44.809  38.966  14.796
73375W        W35038  43.478  44.786  14.399
73376W        W35039  15.127  42.468  10.632
73377W        W35040  31.602  28.970  14.844
73378W        W35041  13.333  20.679   0.364
73379W        W35042  15.711  30.145  12.059
73380W        W35043   2.797  17.278   0.419
73381W        W35044  13.226  41.864  12.879
73382W        W35045  35.914  22.014  13.012
73383W        W35046   7.783  33.574   3.804
73384W        W35047  23.060   3.277   0.916
73385W        W35048  43.830  10.348   3.824
73386W        W35049  15.672  17.629  10.536
73387W        W35050   0.337  31.437  13.847
73388W        W35051   3.275  22.028  11.460
73389W        W35052  10.374   8.694   0.788
73390W        W35053  38.002  14.243   1.707
73391W        W35054  27.977  26.042  10.982
73392W        W35055  37.011  17.116  11.013
73393W        W35056  42.013  11.768   3.157
73394W        W35057  22.633  29.025   0.273
73395W        W35058  40.473  14.270   1.725
73396W        W35059  17.071  43.437  14.844
73397W        W35060  38.992  11.653   4.187
73398W        W35061   1.306  18.188  13.006
73399W        W35062  39.491   7.332   3.156
73400W        W35063  29.424   3.403   1.919
73401W        W35064  15.189  13.112  12.889
73402W        W35065  10.186  11.768  11.118
73403W        W35066  33.959  21.723   3.843
73404W        W35067  23.688   3.231  10.150
73405W        W35068  28.536   7.822   2.840
73406W        W35069  20.584   0.762  10.581
73407W        W35070   2.277  33.610  14.415
73408W        W35071  31.558  36.386   3.786
73409W        W35072  28.557  18.612   4.261
73410W        W35073  27.634   4.434  11.860
73411W        W35074  10.792  20.049   4.196
73412W        W35075   1.472  16.684  11.482
73413W        W35076   9.873   6.267  11.023
73414W        W35077  26.049   6.801   0.349
73415W        W35078   3.755  17.571  14.931
73416W        W35079  19.099  16.154  13.841
73417W        W35080  16.762  33.438  11.896
73418W        W35081  17.136  43.858  14.832
73419W        W35082  13.763  17.154  11.982
73420W        W35083   5.851  33.056  11.404
73421W        W35084  24.116  22.724   3.665
73422W        W35085  31.058  38.958  11.995
73423W        W35086  15.284  20.122   2.732
73424W        W35087  12.768  16.811  13.907
73425W        W35088  43.895  36.025   2.851
73426W        W35089  38.072  41.815   1.358
73427W        W35090  28.068  31.531   1.768
73428W        W35091   7.737   4.906   9.960
73429W        W35092  41.828  18.212   2.410
73430W        W35093  35.102  23.154   3.642
73431W        W35094  33.891  23.083   0.934
73432W        W35095   7.277   4.892  12.921
73433W        W35096  31.648   6.782   5.090
73434W        W35097  27.593  38.543  11.478
73435W        W35098  44.386  15.724   0.323
73436W        W35099  21.030  15.626  12.506
73437W        W35100   9.849   6.236  11.403
73438W        W35101  10.777  42.933  11.482
73439W        W35102  43.415   4.905   3.352
73440W        W35103  10.809   2.306  11.393
73441W        W35104  16.702  26.093  14.833
73442W        W35105  34.381  30.658   4.761
73443W        W35106  23.534  15.161   2.796
73444W        W35107   3.303  17.714   0.781
73445W        W35108  34.527  13.728   0.469
73446W        W35109  22.535  28.045   0.753
73447W        W35110  24.483  36.998  13.498
73448W        W35111  21.667  29.453   1.386
73449W        W35112  33.424  18.201  11.586
73450W        W35113  44.769  34.484  11.539
73451W        W35114  11.691  25.511   4.130
73452W        W35115   1.358  31.605   2.667
73453W        W35116  10.848  10.257   3.284
73454W        W35117  16.798  43.790   4.760
73455W        W35118  34.991   2.907   4.693
73456W        W35119  30.488   7.391   2.736
73457W        W35120   2.343   5.393  14.002
73458W        W35121  18.631   7.902   2.729
73459W        W35122  42.898   1.803  10.629
73460W        W35123  20.220  34.484  10.583
73461W        W35124   7.352  12.650   0.429
73462W        W35125  38.023  13.656  11.390
73463W        W35126  39.995  10.207  12.457
73464W        W35127  24.684  24.980   3.174
73465W        W35128  34.011   5.328   5.206
73466W        W35129  44.381  16.750   1.419
73467W        W35130   1.849  34.119  12.409
73468W        W35131   5.346  11.859   4.810
73469W        W35132  24.486   2.398  12.928
73470W        W35133  22.583  40.875  14.019
73471W        W35134  10.732  25.209   1.795
73472W        W35135  31.525   8.262  13.532
73473W        W35136  43.995  17.221   2.875
73474W        W35137  39.818  24.117  13.899
73475W        W35138  17.170  27.959   5.107
73476W        W35139   0.905   9.877  14.848
73477W        W35140   3.342  39.015   3.805
73478W        W35141  44.286  12.116  10.116
73479W        W35142   7.881  24.530  13.964
73480W        W35143  20.760   2.805   5.244
73481W        W35144  41.310  11.698  14.421
73482W        W35145  41.935  22.649   0.750
73483W        W35146   3.865  43.960   4.187
73484W        W35147  42.441  30.141  10.432
73485W        W35148  38.050   0.888  14.412
73486W        W35149  22.682   4.854   5.083
73487W        W35150  37.836  34.006   2.365
73488W        W35151  17.799  22.101   3.314
73489W        W35152  27.008  13.241   0.936
73490W        W35153  43.358   9.327  13.418
73491W        W35154  23.677  19.132   1.872
73492W        W35155  12.361  42.810  11.996
73493W        W35156  16.196  30.520  10.484
73494W        W35157  16.794  36.561   2.233
73495W        W35158  42.365   2.924   2.848
73496W        W35159  36.385  40.958  11.040
73497W        W35160   9.279  35.453   3.303
73498W        W35161  40.310  34.610   0.791
73499W        W35162  29.990  41.422   3.365
73500W        W35163  16.700   6.883   0.806
73501W        W35164  30.076  44.961   1.839
73502W        W35165   1.820   1.389   0.270
73503W        W35166  10.150  25.166   1.408
73504W        W35167  29.438  29.511  11.436
73505W        W35168  16.810   0.933  11.102
73506W        W35169  17.237  32.914   4.704
73507W        W35170  25.044  19.196  13.367
73508W        W35171   2.344  26.620   2.246
73509W        W35172  11.167  24.040  13.041
73510W        W35173  42.419  14.693   1.694
73511W        W35174  16.185  24.637   0.429
73512W        W35175  28.498   3.897   0.824
73513W        W35176  33.434  35.404  13.351
73514W        W35177   3.436  25.142   3.871
73515W        W35178  17.226  26.589   3.863
73516W        W35179   1.866  43.299  13.014
73517W        W35180  33.038   6.836   3.703
73518W        W35181  13.625   0.358  12.510
73519W        W35182  24.184  43.453   1.772
73520W        W35183  34.439  42.288   0.320
73521W        W35184  43.444  41.008  11.940
73522W        W35185   9.781  33.016  13.853
73523W        W35186  43.963   7.387  11.450
73524W        W35187  24.653  12.185   3.700
73525W        W35188  31.126  27.526  12.423
73526W        W35189  37.486   0.797   3.782
73527W        W35190  19.203  42.427  10.537
73528W        W35191  11.356  23.514  11.510
73529W        W35192  22.558   8.195  11.937
73530W        W35193  25.060  37.450  11.096
73531W        W35194  13.749   9.269  14.307
73532W        W35195   8.271   5.903   3.866
73533W        W35196  12.613  25.577   4.826
73534W        W35197  17.269   4.869   4.715
73535W        W35198  10.200  18.626  11.097
73536W        W35199  32.447  23.500   3.324
73537W        W35200   9.390  29.631  11.063
73538W        W35201  42.504  15.691   5.798
73539W        W35202   9.847  28.089  11.858
73540W        W35203  36.092  28.079   2.222
73541W        W35204   7.825  15.719   0.941
73542W        W35205  26.503  35.977  14.834
73543W        W35206  14.198  29.459   3.640
73544W        W35207  44.372  42.975   3.352
73545W        W35208  21.577  26.201  14.758
73546W        W35209  44.431  18.128   2.836
73547W        W35210   6.399  44.289   0.791
73548W        W35211  26.582  16.642  12.879
73549W        W35212  38.470  13.651   3.217
73550W        W35213   4.700  30.500  14.457
73551W        W35214  35.565  19.249   0.258
73552W        W35215  26.597  18.635   3.683
73553W        W35216  29.937  37.891   4.741
73554W        W35217  29.445  32.574  14.931
73555W        W35218  18.764  32.975   3.334
73556W        W35219  38.918  33.601   1.801
73557W        W35220  23.631  31.413   0.484
73558W        W35221  39.053  35.941   1.284
73559W        W35222  40.862  39.892   4.612
73560W        W35223  20.580   5.358  11.426
73561W        W35224  26.675   2.832   2.347
73562W        W35225  32.928   6.207  11.428
73563W        W35226  11.631  40.987   4.807
73564W        W35227  23.200  42.295  12.361
73565W        W35228  22.612  36.042  11.430
73566W        W35229   2.299   2.967  13.982
73567W        W35230  32.583  16.215  10.586
73568W        W35231   5.722  18.762  14.484
73569W        W35232  15.654  44.373  10.959
73570W        W35233  43.304  22.227   4.315
73571W        W35234  37.856  29.561  12.027
73572W        W35235  30.517  26.571   3.771
73573W        W35236  30.088  37.355  11.057
73574W        W35237  25.007  31.930  10.445
73575W        W35238  24.051  38.875  12.340
73576W        W35239  14.144  22.123   1.882
73577W        W35240   6.819   7.386   4.153
73578W        W35241  11.768  32.394  12.072
73579W        W35242  43.000  39.853   2.346
73580W        W35243  21.149  36.367  10.538
73581W        W35244  34.000   2.913  10.927
73582W        W35245   6.759  36.056   3.804
73583W        W35246  28.018  32.398  10.541
73584W        W35247  17.768  15.605   1.814
73585W        W35248  28.959  15.774   0.893
73586W        W35249  32.466  36.507   3.159
73587W        W35250  12.810   1.261   2.739
73588W        W35251  35.501   9.303  13.047
73589W        W35252  44.499  42.492   2.346
73590W        W35253  21.094  29.079   1.779
73591W        W35254   9.348  32.408  14.371
73592W        W35255  16.644  20.212  13.393
73593W        W35256  32.998  38.365  11.050
73594W        W35257  30.043  15.821   2.303
73595W        W35258  22.252   9.392  11.061
73596W        W35259  16.777  38.357  12.026
73597W        W35260  10.292  37.338  12.007
73598W        W35261  11.848  40.515   1.260
73599W        W35262  43.302   4.777   3.723
73600W        W35263  20.768  23.206   1.911
73601W        W35264  32.566  35.478  10.490
73602W        W35265  27.562  31.969   2.335
73603W        W35266   4.272  30.072  13.833
73604W        W35267  34.512   4.228  10.590
73605W        W35268   1.386  14.792   0.430
73606W        W35269   2.925  31.453  14.460
73607W        W35270  32.611  40.484  11.004
73608W        W35271  44.955   3.343   4.750
73609W        W35272  43.849   3.364  11.039
73610W        W35273  17.251   9.237  12.372
73611W        W35274  39.414  38.842  11.544
73612W        W35275  24.531  25.000  12.565
73613W        W35276  23.177  37.558  14.293
73614W        W35277  13.107  15.592   1.451
73615W        W35278  19.597  29.996   3.661
73616W        W35279  23.170  37.461   4.808
73617W        W35280  25.162  36.436  14.933
73618W        W35281  10.190  33.902   0.268
73619W        W35282  38.952  31.112   0.918
73620W        W35283  10.637   6.418  11.034
73621W        W35284   3.246   0.383   1.744
73622W        W35285  41.407   3.863   1.423
73623W        W35286  44.991   7.759  12.872
73624W        W35287  24.034  40.526   0.460
73625W        W35288  43.366  33.944   0.418
73626W        W35289  31.149  43.022  10.041
73627W        W35290  29.968  42.819  12.919
73628W        W35291   3.358  11.217  11.603
73629W        W35292  38.885  31.125   3.315
73630W        W35293  11.175   5.201  13.454
73631W        W35294  32.542   7.407  12.018
73632W        W35295  26.186  43.466   4.676
73633W        W35296  41.939  19.235  14.513
73634W        W35297  31.913  33.052   2.881
73635W        W35298   7.262   1.289   0.847
73636W        W35299  38.978  18.599  10.915
73637W        W35300  29.559  35.466   1.266
73638W        W35301   0.434  22.532  11.453
73639W        W35302  41.810  26.457   0.752
73640W        W35303  35.542   8.856   5.571
73641W        W35304   7.250  40.549  11.405
73642W        W35305  12.201  17.204  11.913
73643W        W35306  36.590   7.831   2.231
73644W        W35307   0.753  42.498   1.786
73645W        W35308   9.854  27.520   4.315
73646W        W35309  36.003  11.843   0.801
73647W        W35310  23.182  32.989  13.426
73648W        W35311   6.677  34.435   4.119
73649W        W35312  34.038  34.979  11.879
73650W        W35313   3.455   5.738  13.966
73651W        W35314  12.210  25.490   0.893
73652W        W35315  40.320   8.720   2.283
73653W        W35316  18.186   8.278  12.840
73654W        W35317  41.343  22.539   2.225
73655W        W35318  20.759   9.283   1.702
73656W        W35319  32.611  33.585   1.725
73657W        W35320  34.091  32.900   4.774
73658W        W35321  35.952  24.658   2.683
73659W        W35322   5.886   9.323   0.350
73660W        W35323  16.697  34.872  11.118
73661W        W35324  30.962   5.798  10.499
73662W        W35325  40.036  19.232  14.298
73663W        W35326  34.976  21.746   0.349
73664W        W35327  37.046  20.059   0.304
73665W        W35328  29.459  21.131   3.153
73666W        W35329  29.574   8.705   2.354
73667W        W35330   0.752  21.661   3.666
73668W        W35331  29.561  43.875   0.300
73669W        W35332  19.542  20.637  14.953
73670W        W35333  19.200  41.415   1.233
73671W        W35334  36.390  39.021  10.890
73672W        W35335  41.466  22.508   2.874
73673W        W35336   5.714  11.726   0.431
73674W        W35337  11.129   5.295   4.169
73675W        W35338  12.659  17.639   2.723
73676W        W35339  32.979  29.501  10.435
73677W        W35340  27.606  39.016   0.886
73678W        W35341  36.875  27.467   2.842
73679W        W35342  17.684  10.861   3.740
73680W        W35343  31.643  37.857  11.075
73681W        W35344  43.862   8.877  11.533
73682W        W35345   0.977  19.224   3.787
73683W        W35346   3.770  38.532  12.527
73684W        W35347   5.850  29.026   4.156
73685W        W35348  15.285  34.889  11.398
73686W        W35349  29.031  40.929  10.407
73687W        W35350  14.205  40.858   0.796
73688W        W35351  40.349  40.487   0.931
73689W        W35352   5.778  43.911  14.762
73690W        W35353  17.130  34.448  13.866
73691W        W35354   0.907  36.034  10.445
73692W        W35355   6.886  37.539  12.406
73693W        W35356  16.314  32.567   0.246
73694W        W35357  14.134   8.844  13.454
73695W        W35358  36.911  38.896   4.253
73696W        W35359  17.662  23.727  12.572
73697W        W35360   3.366  34.403  11.873
73698W        W35361  20.579  30.469  13.970
73699W        W35362   2.268  40.460  12.357
73700W        W35363  18.552  22.082  10.424
73701W        W35364  28.165   3.782   3.732
73702W        W35365  36.482   6.755   1.773
73703W        W35366   5.254   1.364  10.547
73704W        W35367  20.555  10.199   0.290
73705W        W35368  26.074   8.883   3.258
73706W        W35369  41.525  28.607  13.544
73707W        W35370  17.635  34.564   4.246
73708W        W35371  44.809   4.210   4.655
73709W        W35372  29.038  41.323   3.847
73710W        W35373   6.768  21.568   4.277
73711W        W35374   2.406  25.009  14.428
73712W        W35375   1.343  26.702  14.977
73713W        W35376  26.657  40.958   3.837
73714W        W35377  17.101  11.366  12.541
73715W        W35378  30.426   3.216  10.159
73716W        W35379  11.677  44.959   3.367
73717W        W35380   0.821  16.318   4.239
73718W        W35381  28.518  33.421   0.937
73719W        W35382   5.413  33.982  12.032
73720W        W35383  25.711  37.853   4.801
73721W        W35384  36.916  18.613   1.793
73722W        W35385  31.488  25.137  10.428
73723W        W35386  27.061   1.841  14.789
73724W        W35387  30.998   3.274   1.888
73725W        W35388   4.849  17.571   1.392
73726W        W35389   2.236  34.464  13.820
73727W        W35390  13.761  16.213  12.898
73728W        W35391  33.554  24.509   2.221
73729W        W35392  18.182  21.029   4.282
73730W        W35393  38.983   8.664  13.423
73731W        W35394  15.273  35.109   3.235
73732W        W35395  42.861  13.685   2.794
73733W        W35396  35.042  21.657  13.825
73734W        W35397  14.597  34.498  12.468
73735W        W35398  14.801  13.209  11.996
73736W        W35399  14.252   8.754  11.384
73737W        W35400  40.005  32.627  14.937
73738W        W35401  13.820  13.768  11.423
73739W        W35402  38.542  13.647  14.850
73740W        W35403  18.121   7.279  12.461
73741W        W35404  29.508  20.199  11.990
73742W        W35405  42.368  21.151  11.909
73743W        W35406  28.035  34.938  13.421
73744W        W35407  22.621  40.383   4.599
73745W        W35408  31.983  22.533  13.515
73746W        W35409  21.750   4.246  14.394
73747W        W35410  37.015  27.005   1.247
73748W        W35411  39.326  26.699   1.816
73749W        W35412   6.208  16.210   4.597
73750W        W35413  13.295  28.457  10.573
73751W        W35414  14.750  23.707  10.103
73752W        W35415  41.892  39.323  14.904
73753W        W35416  24.592   5.770   3.303
73754W        W35417  12.151  40.354  11.387
73755W        W35418  44.831  23.513  12.470
73756W        W35419  35.999   1.455  14.893
73757W        W35420  38.481  42.319  12.870
73758W        W35421   8.328  26.489   1.329
73759W        W35422  43.987   3.340   4.295
73760W        W35423  13.113  32.427  10.641
73761W        W35424  38.019  16.803   0.790
73762W        W35425  18.134  14.664  10.448
73763W        W35426  20.716  10.679   2.894
73764W        W35427  31.972  34.076  11.984
73765W        W35428   1.448  21.589  11.977
73766W        W35429  24.694  30.908  10.986
73767W        W35430  25.479   1.738  12.395
73768W        W35431   9.277  28.046   0.419
73769W        W35432  18.594  12.258  12.340
73770W        W35433  25.573  27.475   4.269
73771W        W35434  13.255  21.203   3.345
73772W        W35435  31.639  19.775   5.302
73773W        W35436  10.683   9.722   0.278
73774W        W35437  36.989  34.882  14.409
73775W        W35438  36.491  12.263   4.308
73776W        W35439  34.388  36.576   0.910
73777W        W35440  29.622   8.266  11.516
73778W        W35441  43.847  40.308   2.209
73779W        W35442  18.589  26.037  12.486
73780W        W35443  34.514  43.923   3.696
73781W        W35444  38.428  11.665   3.686
73782W        W35445  39.050   2.327   2.702
73783W        W35446  14.700  42.861   0.801
73784W        W35447  34.512  38.913  12.530
73785W        W35448  21.233  39.861   3.871
73786W        W35449   2.361  23.564   9.953
73787W        W35450  13.217  44.892  14.904
73788W        W35451  22.189  18.134  14.450
73789W        W35452  27.597  29.097   1.223
73790W        W35453   5.312  37.851  10.586
73791W        W35454  42.926  19.744   2.735
73792W        W35455  19.154  21.078   5.138
73793W        W35456   4.837  43.981   3.331
73794W        W35457   2.899  26.172  10.454
73795W        W35458   8.178  35.075   2.392
73796W        W35459  35.038  16.631  13.926
73797W        W35460  23.692  26.550   2.367
73798W        W35461  21.122   1.964  10.938
73799W        W35462  43.413  37.836   3.871
73800W        W35463  22.091  33.060   3.847
73801W        W35464  16.621   4.357  11.460
73802W        W35465  37.442   2.953   4.243
73803W        W35466  28.568  15.307   2.793
73804W        W35467  32.427   8.270  11.969
73805W        W35468  40.520  30.129  14.808
73806W        W35469   7.279   8.871   2.775
73807W        W35470  11.774  30.006  12.422
73808W        W35471  19.607  41.998  10.997
73809W        W35472  33.477  12.693  10.066
73810W        W35473  20.191   4.282   0.449
73811W        W35474   1.937  27.552   2.385
73812W        W35475  23.013  13.756  12.356
73813W        W35476  30.566  32.627   2.817
73814W        W35477  24.694  17.737   3.217
73815W        W35478   5.347   0.816  14.509
73816W        W35479  39.986  26.490  11.094
73817W        W35480  27.157  15.719  13.937
73818W        W35481   8.281  37.531   2.304
73819W        W35482  35.882  24.534  12.049
73820W        W35483  40.483  40.519   9.933
73821W        W35484  14.718   1.370  12.920
73822W        W35485  44.492   8.712  12.836
73823W        W35486  12.356  14.236   1.725
73824W        W35487  32.072  36.416  13.910
73825W        W35488   6.801   5.274  13.541
73826W        W35489  14.304   3.735   5.317
73827W        W35490  10.151   6.205   3.182
73828W        W35491  31.643  29.918  11.859
73829W        W35492  35.043   9.348  11.056
73830W        W35493  23.153   8.747   3.374
73831W        W35494   8.221   1.926   0.334
73832W        W35495  18.060  25.669   0.481
73833W        W35496  22.076   8.397   2.354
73834W        W35497  23.202  23.703  14.006
73835W        W35498   6.705  12.287  14.286
73836W        W35499  15.773  43.352  14.916
73837W        W35500   7.791  17.272  13.051
73838W        W35501  31.518  36.962  13.542
73839W        W35502   3.798  28.629   3.690
73840W        W35503  13.130  37.488  12.437
73841W        W35504  27.075  43.800   2.709
73842W        W35505  20.134   4.305  13.484
73843W        W35506  22.510  31.927  10.547
73844W        W35507  28.988  18.236   3.222
73845W        W35508  13.720  25.679   4.326
73846W        W35509  21.088  26.637  10.574
73847W        W35510   4.798   1.883   3.149
73848W        W35511  30.602   9.770   1.321
73849W        W35512  25.578  39.999   1.445
73850W        W35513  37.499  11.721  11.435
73851W        W35514  29.068  42.829  14.912
73852W        W35515  27.662  13.709   2.686
73853W        W35516  38.480  25.036   1.744
73854W        W35517  36.953   9.668  10.141
73855W        W35518  30.443  35.061  14.324
73856W        W35519   1.746  39.395  13.437
73857W        W35520  17.298  11.358   2.837
73858W        W35521  29.579  10.752   4.628
73859W        W35522  13.696  20.030  12.467
73860W        W35523   5.364  13.229  10.904
73861W        W35524  22.503   9.204  11.443
73862W        W35525  11.774  13.832   9.927
73863W        W35526   3.315  23.497  10.486
73864W        W35527  23.579  36.863   1.368
73865W        W35528  16.734   0.454  11.448
73866W        W35529  24.143  28.592  11.905
73867W        W35530   1.965  16.317   1.290
73868W        W35531  40.895  29.995  10.423
73869W        W35532  39.352  38.994   3.802
73870W        W35533  24.511  43.362   0.868
73871W        W35534  39.407  16.726   1.807
73872W        W35535  16.227   7.397  14.792
73873W        W35536  21.210  30.607   3.176
73874W        W35537  29.431  11.192   3.231
73875W        W35538  22.230   6.787  10.948
73876W        W35539  27.690   2.229  10.446
73877W        W35540  13.606  19.128   1.720
73878W        W35541  33.521   5.390  14.027
73879W        W35542  26.567  20.191  11.376
73880W        W35543  30.102  30.154   3.792
73881W        W35544  29.481   6.314   2.694
73882W        W35545  23.542  17.287  10.601
73883W        W35546  24.681   9.850   0.406
73884W        W35547  41.798   0.792   2.871
73885W        W35548  22.230  30.482   0.310
73886W        W35549  12.692  24.648   3.778
73887W        W35550   3.811  17.188   0.940
73888W        W35551  23.690   0.918  12.516
73889W        W35552  16.128  39.050   4.230
73890W        W35553  36.882  14.127   2.251
73891W        W35554  44.262   0.306   4.296
73892W        W35555  36.896  39.956   2.730
73893W        W35556   2.834   1.463  13.005
73894W        W35557  11.852  15.776   2.809
73895W        W35558  11.279   8.366   1.403
73896W        W35559  12.784   0.926   1.392
73897W        W35560   5.867  27.191   0.833
73898W        W35561  33.916   0.860  11.024
73899W        W35562   1.974  44.817  12.424
73900W        W35563   6.747  38.479  12.499
73901W        W35564   5.834  15.687   1.241
73902W        W35565  22.730   2.276   3.249
73903W        W35566  18.554   7.710  13.381
73904W        W35567   9.269  42.387   1.383
73905W        W35568  34.442  21.557  13.523
73906W        W35569  24.642  32.421   0.917
73907W        W35570  32.633  13.713   0.387
73908W        W35571   8.223  27.983  13.875
73909W        W35572  35.376  15.636   4.706
73910W        W35573  19.208  38.391  14.410
73911W        W35574  14.212  17.189  10.466
73912W        W35575  38.972  38.961  11.128
73913W        W35576   8.792  13.694  13.992
73914W        W35577  26.479  17.113   4.320
73915W        W35578  32.042  29.948  14.846
73916W        W35579  28.573  23.009  11.474
73917W        W35580  17.774  27.989  12.540
73918W        W35581  19.216   4.369   0.843
73919W        W35582  27.113  24.988   4.194
73920W        W35583  41.967   1.866  14.898
73921W        W35584  21.034   8.688   0.748
73922W        W35585  18.063  15.109   0.902
73923W        W35586  11.840  37.942  12.846
73924W        W35587  38.871  37.046  12.476
73925W        W35588  41.415  34.046   3.867
73926W        W35589  42.837  38.045  11.591
73927W        W35590  43.464  31.139  11.895
73928W        W35591  12.802  17.117  12.581
73929W        W35592   8.267  34.098   1.771
73930W        W35593  24.212  44.341  14.830
73931W        W35594  13.108  22.132  12.523
73932W        W35595  44.425  12.185   3.209
73933W        W35596   7.334  23.126  13.480
73934W        W35597  14.278  13.769  13.317
73935W        W35598   6.816   5.396   4.168
73936W        W35599  23.175  24.513   2.731
73937W        W35600  28.566  20.103   4.258
73938W        W35601  28.009  17.744   0.445
73939W        W35602  42.897  17.655   4.806
73940W        W35603  13.619  39.541   1.223
73941W        W35604  31.917  32.068   2.857
73942W        W35605  29.578  33.086  14.918
73943W        W35606  41.330   5.432  12.522
73944W        W35607   5.207  39.519  14.973
73945W        W35608  16.210  18.568   4.779
73946W        W35609   3.309  21.026   3.315
73947W        W35610  31.409  28.440   2.306
73948W        W35611  20.260  14.599   5.632
73949W        W35612  17.094  36.883   4.603
73950W        W35613  23.045  16.211  14.322
73951W        W35614  16.581  23.161   1.753
73952W        W35615  24.121  38.026  10.925
73953W        W35616  21.048  40.391  14.896
73954W        W35617  24.118  39.908   2.885
73955W        W35618   5.220  38.366  10.964
73956W        W35619   5.868   2.781   2.708
73957W        W35620  15.272  37.066  13.312
73958W        W35621  33.019  22.715   5.794
73959W        W35622  40.507  40.830  12.551
73960W        W35623  41.923  12.234   9.445
73961W        W35624  35.906  39.492   3.658
73962W        W35625  11.789  38.356  10.973
73963W        W35626   4.810  11.320  12.404
73964W        W35627  13.632  19.719  11.066
73965W        W35628  30.105  30.503   4.230
73966W        W35629  19.684   7.703  14.352
73967W        W35630  12.838  41.478   4.173
73968W        W35631   6.742   7.820   4.755
73969W        W35632  15.284  37.045  14.816
73970W        W35633  39.854  16.126  12.005
73971W        W35634  31.054  10.357  10.422
73972W        W35635  28.987  42.371  12.842
73973W        W35636  41.827  24.072   4.274
73974W        W35637  21.522  30.655   3.373
73975W        W35638  16.296  14.656   0.411
73976W        W35639  32.489  32.443  13.830
73977W        W35640  13.646  19.213  10.619
73978W        W35641  42.792   8.371   1.349
73979W        W35642  34.481   0.304   2.393
73980W        W35643  20.716  22.044  12.086
73981W        W35644   4.750  20.529   4.316
73982W        W35645  43.435   1.369  14.928
73983W        W35646  40.327  14.125  13.868
73984W        W35647   9.834  35.381   4.721
73985W        W35648  31.058   6.899   2.415
73986W        W35649  24.157   3.427  12.420
73987W        W35650  13.281   9.702   2.894
73988W        W35651  12.841   4.256  12.893
73989W        W35652  28.598   6.786  13.908
73990W        W35653  23.167   9.814  12.916
73991W        W35654  11.639  39.323   4.121
73992W        W35655   0.448   3.349  12.412
73993W        W35656  12.304   4.385  13.035
73994W        W35657  34.597  40.958   3.160
73995W        W35658   2.820  43.463   1.895
73996W        W35659  18.659  40.420   0.784
73997W        W35660  34.592  14.293  14.909
73998W        W35661   3.324   4.938   0.963
73999W        W35662  24.032  37.850   3.869
74000W        W35663  23.186   0.469  10.944
74001W        W35664  32.538   6.353   0.794
74002W        W35665   5.765  24.579  11.906
74003W        W35666  44.481  37.497   2.828
74004W        W35667  13.701  14.830  14.415
74005W        W35668  42.991  35.376   3.662
74006W        W35669  30.011  44.009  14.025
74007W        W35670  12.329   4.363  13.348
74008W        W35671  41.791  35.998   5.226
74009W        W35672  32.079   6.331   1.350
74010W        W35673   1.774  34.968  11.015
74011W        W35674  16.766  44.886  13.422
74012W        W35675  23.987   4.718  13.515
74013W        W35676  30.989   3.433  11.070
74014W        W35677  40.334   9.302  10.099
74015W        W35678  26.142   1.386  12.072
74016W        W35679   8.742  18.562   2.416
74017W        W35680   7.856  32.513  13.379
74018W        W35681  44.464  25.167   5.282
74019W        W35682  17.668  43.364  12.488
74020W        W35683  32.012  14.191   3.799
74021W        W35684  27.562  19.178  12.066
74022W        W35685   0.942  22.556  14.814
74023W        W35686  13.241   0.867   4.609
74024W        W35687  32.963  43.981  13.931
74025W        W35688  18.664  29.509  10.418
74026W        W35689  37.472  38.962   0.863
74027W        W35690  33.531  23.671   1.918
74028W        W35691  10.769   9.344  11.513
74029W        W35692  14.170  28.983   4.118
74030W        W35693  22.516  28.667  10.955
74031W        W35694  15.097  25.641  10.540
74032W        W35695  27.113   5.256  12.472
74033W        W35696  15.179  17.569   0.881
74034W        W35697  36.086  38.819  14.975
74035W        W35698  30.987  15.597   2.399
74036W        W35699  31.950   5.425   4.734
74037W        W35700  29.150  33.906  13.883
74038W        W35701   5.885  35.395   2.797
74039W        W35702  39.417  35.859   1.331
74040W        W35703  13.207  25.650   2.696
74041W        W35704   4.716   3.244  11.381
74042W        W35705  11.209  39.551  13.396
74043W        W35706  27.165  20.061   4.621
74044W        W35707  11.319  15.303  12.070
74045W        W35708  10.760  40.502  12.477
74046W        W35709   5.783  42.974  12.055
74047W        W35710   1.295  40.385   2.268
74048W        W35711   5.773  13.619  13.978
74049W        W35712  20.148  44.376   0.448
74050W        W35713  19.681   3.349  10.633
74051W        W35714  17.271  42.863   0.256
74052W        W35715  16.091  25.682   3.870
74053W        W35716  20.029  23.691   4.285
74054W        W35717  43.891   1.880   4.144
74055W        W35718  29.092  39.848   2.297
74056W        W35719   2.422  37.541  12.068
74057W        W35720  43.434  11.213   2.399
74058W        W35721  30.083   4.354   1.345
74059W        W35722  41.824  24.015   1.223
74060W        W35723  10.191  22.118  13.016
74061W        W35724  22.066  23.101   1.898
74062W        W35725  15.597  18.790   5.156
74063W        W35726  40.914   7.214   2.780
74064W        W35727  32.615  20.575  11.606
74065W        W35728  36.890   8.711  14.945
74066W        W35729  15.812   5.773   1.444
74067W        W35730  38.077  15.172   0.835
74068W        W35731  19.279  42.878  13.063
74069W        W35732   8.305   2.460  11.577
74070W        W35733  26.465  38.978   0.447
74071W        W35734  23.174  39.923  13.332
74072W        W35735   0.892  17.147  14.784
74073W        W35736  11.848  16.306  12.540
74074W        W35737   3.331  22.563   4.163
74075W        W35738  34.612   0.961   0.936
74076W        W35739  15.747  40.369  11.917
74077W        W35740  24.036   7.767  13.422
74078W        W35741   7.814  12.657   1.358
74079W        W35742  17.746  38.062  13.330
74080W        W35743  19.188  29.993  14.493
74081W        W35744   7.870   7.824  13.825
74082W        W35745  40.904   0.409   4.283
74083W        W35746   7.383  20.612   1.272
74084W        W35747  38.413  28.589  13.450
74085W        W35748  29.028  23.209   4.300
74086W        W35749  26.606  43.008  12.056
74087W        W35750  31.936  20.655  12.539
74088W        W35751  15.621  36.534  12.873
74089W        W35752  26.618  41.487  13.923
74090W        W35753   2.860  10.680   1.220
74091W        W35754  39.320  42.451   0.830
74092W        W35755   6.262   4.311   3.213
74093W        W35756   8.726  30.160   1.823
74094W        W35757  28.508  30.038  12.431
74095W        W35758  31.069  40.867   3.237
74096W        W35759  29.516  13.162  12.901
74097W        W35760  10.326  12.814   3.684
74098W        W35761  18.711  31.116   4.120
74099W        W35762   7.200   6.857  10.537
74100W        W35763  41.953  39.885  12.086
74101W        W35764  10.825  32.963  13.411
74102W        W35765  32.605  19.181  11.996
74103W        W35766   0.312   6.786  11.066
74104W        W35767   1.259  44.329   3.756
74105W        W35768  10.708  36.417  13.357
74106W        W35769   5.774  40.521  12.566
74107W        W35770  19.687  14.195  14.771
74108W        W35771  28.464  12.658  13.054
74109W        W35772  22.506  11.155  11.523
74110W        W35773  30.953  38.940   3.292
74111W        W35774  32.085  41.956   3.212
74112W        W35775  30.105  12.330   2.338
74113W        W35776  35.460   3.250  14.351
74114W        W35777   6.684  13.696  12.076
74115W        W35778  23.595  27.048   4.209
74116W        W35779  31.966  34.876  12.455
74117W        W35780  36.080  23.113   0.261
74118W        W35781  20.140  39.947  10.932
74119W        W35782  14.250  32.114   5.123
74120W        W35783  16.273  37.335  12.458
74121W        W35784   1.964  31.504   4.331
74122W        W35785  23.527  19.247   0.286
74123W        W35786   0.287  17.071   2.833
74124W        W35787  26.980  22.739  13.491
74125W        W35788   7.187  44.974  10.458
74126W        W35789  13.680  37.954   2.205
74127W        W35790  18.631  11.719  13.450
74128W        W35791  31.143  13.226   1.735
74129W        W35792   7.217  32.495  14.435
74130W        W35793  26.159  29.551  13.936
74131W        W35794  39.363  12.189  13.463
74132W        W35795  22.688   3.774  14.473
74133W        W35796   4.928  37.478  13.422
74134W        W35797  25.544   9.203  12.526
74135W        W35798  20.107  41.927   3.739
74136W        W35799  40.856   7.187  12.460
74137W        W35800  38.494  17.070   1.344
74138W        W35801  36.490  10.706   4.754
74139W        W35802  37.834  26.545  12.841
74140W        W35803   5.790   5.199   2.310
74141W        W35804  37.580  37.357  10.983
74142W        W35805  33.431  21.750  13.032
74143W        W35806  42.282  43.354   0.925
74144W        W35807  17.307  28.502   3.719
74145W        W35808   4.873  30.459  10.604
74146W        W35809  34.864  10.846   5.235
74147W        W35810   8.797  42.862  12.395
74148W        W35811  20.078  34.459  12.963
74149W        W35812  29.430  18.217  11.860
74150W        W35813  28.076  34.369  13.513
74151W        W35814  43.373   9.310  10.995
74152W        W35815   8.341  39.839   2.692
74153W        W35816   8.685  20.759   4.623
74154W        W35817  40.343   3.300  13.884
74155W        W35818   7.184   9.304   4.733
74156W        W35819  39.359  15.595   2.849
74157W        W35820  15.134  33.895  12.914
74158W        W35821  29.020  27.582   1.211
74159W        W35822  12.299  41.934  12.013
74160W        W35823  19.543  33.397  11.926
74161W        W35824  13.351   4.804  13.457
74162W        W35825   9.340   7.742   1.436
74163W        W35826  27.988  43.789   4.123
74164W        W35827  28.642  35.567   2.375
74165W        W35828  18.766  35.854  14.297
74166W        W35829  30.075   9.348   2.376
74167W        W35830  22.049   8.730  13.317
74168W        W35831  23.133  37.856   3.168
74169W        W35832  35.942  31.088   2.380
74170W        W35833  15.295   6.364  12.408
74171W        W35834  20.558  41.974  14.432
74172W        W35835  21.046  28.595   3.748
74173W        W35836  12.222   3.252   2.863
74174W        W35837  10.317  34.890  11.578
74175W        W35838  40.426  11.202  11.886
74176W        W35839  14.303   0.462   2.867
74177W        W35840  41.928  38.862   4.659
74178W        W35841  16.254  10.821   2.207
74179W        W35842   6.900  39.916   0.790
74180W        W35843  43.475   6.845   5.647
74181W        W35844   8.319  15.314  14.947
74182W        W35845  15.307  24.499   3.683
74183W        W35846   5.897  24.599  14.895
74184W        W35847  36.923   3.712   2.858
74185W        W35848  24.155  15.275  11.390
74186W        W35849   7.400  14.217  12.484
74187W        W35850   6.294  40.833   0.310
74188W        W35851  24.724   2.851  12.985
74189W        W35852   7.770  33.416  11.127
74190W        W35853  42.798  36.409   0.835
74191W        W35854  22.012   8.209   4.691
74192W        W35855  35.973  12.228   1.290
74193W        W35856  35.512  16.132   4.635
74194W        W35857   3.248  37.993   2.800
74195W        W35858  13.325  24.048   1.763
74196W        W35859   9.701   2.828  14.301
74197W        W35860  30.487  26.960  11.599
74198W        W35861  35.522  42.812   1.856
74199W        W35862  39.063  36.464  14.919
74200W        W35863  28.442  10.766   3.201
74201W        W35864  17.230   2.408   0.793
74202W        W35865  17.295  12.246  14.433
74203W        W35866   8.282  43.899   4.739
74204W        W35867   0.813  25.536  14.483
74205W        W35868  31.008  44.933   3.278
74206W        W35869   5.712  44.923   1.287
74207W        W35870  41.885  25.032  14.369
74208W        W35871  37.524  31.473   2.671
74209W        W35872  17.207  11.159  14.851
74210W        W35873  23.572  21.122   1.785
74211W        W35874  11.166  12.625   4.324
74212W        W35875  39.369  41.338  13.541
74213W        W35876  37.947  20.199  12.835
74214W        W35877  43.907  24.085  10.411
74215W        W35878  28.584  39.418  10.992
74216W        W35879  23.136  36.351   4.664
74217W        W35880   9.354  25.994  12.565
74218W        W35881   5.232   6.389  11.967
74219W        W35882  43.865  44.790  14.479
74220W        W35883  15.660   2.777  11.038
74221W        W35884  23.231   8.769  10.639
74222W        W35885  35.543   0.282  13.542
74223W        W35886  43.407  18.071   5.226
74224W        W35887   1.773  44.392   4.150
74225W        W35888  41.486  22.606  11.094
74226W        W35889   1.409  35.456   1.272
74227W        W35890  42.896  10.347  14.347
74228W        W35891  11.631  41.426  10.910
74229W        W35892  25.206  41.974   1.701
74230W        W35893  41.020  22.560  10.640
74231W        W35894  18.598  38.026   1.712
74232W        W35895  17.295  24.127  10.418
74233W        W35896  33.002  36.017  12.866
74234W        W35897  40.430  13.262  14.030
74235W        W35898  18.604  30.451  14.414
74236W        W35899  29.457  36.572   2.769
74237W        W35900  16.291  35.567   4.179
74238W        W35901  23.702   6.819   4.706
74239W        W35902  23.135  21.175  14.924
74240W        W35903  29.614   3.855   1.694
74241W        W35904  42.913  44.488  12.539
74242W        W35905  10.716   2.730  14.933
74243W        W35906   7.848  13.690   0.755
74244W        W35907  32.611  11.307  14.811
74245W        W35908  21.623  19.627  14.492
74246W        W35909   5.718  22.650   4.317
74247W        W35910  28.963   4.400  14.773
74248W        W35911  38.336  18.231  13.002
74249W        W35912  28.939  40.959   1.727
74250W        W35913  19.118   7.865   0.895
74251W        W35914  37.370  41.862   4.296
74252W        W35915  38.821  29.574  12.846
74253W        W35916  22.097   0.941  14.496
74254W        W35917  32.970   4.363  13.855
74255W        W35918  28.662  33.092   0.314
74256W        W35919  30.063  39.967   5.696
74257W        W35920  26.056   4.392   0.332
74258W        W35921  44.482  30.058   3.240
74259W        W35922  40.011  37.928  10.574
74260W        W35923   1.878  11.189  13.444
74261W        W35924  42.405  39.947  14.304
74262W        W35925  38.886  29.519  10.623
74263W        W35926  21.080  26.959  13.942
74264W        W35927   9.305   4.340  12.974
74265W        W35928  13.286  34.052  13.433
74266W        W35929  11.355  21.551  11.993
74267W        W35930   0.869  43.385   3.349
74268W        W35931   6.262  30.921  11.060
74269W        W35932   3.306   1.434  13.321
74270W        W35933  28.509  28.938   3.835
74271W        W35934  28.956  41.473   5.148
74272W        W35935  20.050  40.508   2.707
74273W        W35936  22.702  30.141   4.158
74274W        W35937   3.411  18.291  12.907
74275W        W35938  12.210  26.495  10.951
74276W        W35939  27.150  20.662   2.388
74277W        W35940   5.378  30.089  13.535
74278W        W35941  12.166  31.602   3.152
74279W        W35942  14.332  22.690  13.808
74280W        W35943   3.308  38.499   1.850
74281W        W35944   0.862   9.226   2.228
74282W        W35945   5.220   9.248   0.950
74283W        W35946   4.726  22.670   1.368
74284W        W35947  34.384  41.462   3.768
74285W        W35948  36.983  29.558   2.346
74286W        W35949   6.301  38.960   0.246
74287W        W35950  16.801  35.875   4.723
74288W        W35951  24.186  37.499   5.298
74289W        W35952  33.925  41.496   0.243
74290W        W35953  10.221  32.420   4.662
74291W        W35954   4.307  11.637  10.474
74292W        W35955  13.296  25.175   4.250
74293W        W35956  31.986   3.936   4.826
74294W        W35957  34.087   8.182  14.879
74295W        W35958  27.499  17.082  11.921
74296W        W35959  15.604  27.566   3.304
74297W        W35960  43.312  37.843  14.950
74298W        W35961   5.219  41.518  14.959
74299W        W35962   1.791  44.768  11.975
74300W        W35963   6.378   2.467   1.799
74301W        W35964  12.330  16.231  10.427
74302W        W35965  25.622  26.042   2.735
74303W        W35966  24.691  21.175  11.451
74304W        W35967   4.824  10.664  11.427
74305W        W35968   5.331  21.623  13.864
74306W        W35969   4.266  10.677  13.498
74307W        W35970  33.437  21.609  11.439
74308W        W35971  42.324  36.539  11.919
74309W        W35972  36.465  29.119  12.425
74310W        W35973  15.636   8.250   1.405
74311W        W35974  32.053  13.115  14.893
74312W        W35975  11.829   7.772   1.868
74313W        W35976  40.993  15.748   0.366
74314W        W35977   8.767  27.642  13.458
74315W        W35978  30.094  27.992  12.534
74316W        W35979   6.389   9.796  13.438
74317W        W35980  18.104  36.940   0.942
74318W        W35981  21.233  24.190  10.148
74319W        W35982  29.429  24.513   2.862
74320W        W35983  26.514  38.384   4.278
74321W        W35984  29.146  34.887   0.381
74322W        W35985  12.809  15.713   0.277
74323W        W35986  16.576  24.553   1.776
74324W        W35987  16.568   4.712  14.844
74325W        W35988  33.457  27.505  11.528
74326W        W35989  42.485  44.473   2.305
74327W        W35990  33.605  39.998  12.902
74328W        W35991   0.434  22.177   4.613
74329W        W35992  24.206  12.752   4.279
74330W        W35993  12.803  43.831   2.367
74331W        W35994  43.791  37.878  10.895
74332W        W35995   0.753   7.318  10.422
74333W        W35996  13.797  29.467   4.326
74334W        W35997  25.642   8.674  14.827
74335W        W35998   2.921  11.227   0.854
74336W        W35999   9.711   2.727  12.929
74337W        W36000  23.518   6.718  13.819
74338W        W36001  23.718  32.969  13.005
74339W        W36002  17.163  26.056   2.748
74340W        W36003  15.725  20.117   0.754
74341W        W36004  42.977  33.896   4.620
74342W        W36005  40.949  22.560  11.106
74343W        W36006  42.976  33.470   3.297
74344W        W36007   9.860  24.194   2.689
74345W        W36008  43.796  23.601   0.812
74346W        W36009  17.290  39.930  11.091
74347W        W36010   8.372   6.317   3.170
74348W        W36011  27.125  27.167   1.335
74349W        W36012  31.585  43.930   2.355
74350W        W36013  22.232  41.501   0.426
74351W        W36014  16.746  26.100   2.788
74352W        W36015  40.391  16.121  11.453
74353W        W36016  21.160   0.390  14.882
74354W        W36017  31.466  34.563   0.292
74355W        W36018   4.387   6.310   1.373
74356W        W36019  33.504   7.717  14.851
74357W        W36020   0.311  34.982  12.395
74358W        W36021  29.002  10.310  11.457
74359W        W36022  12.237  22.523   3.739
74360W        W36023  32.060  35.922   1.277
74361W        W36024  39.924  43.906   0.740
74362W        W36025  18.726  25.137  14.342
74363W        W36026  16.765   6.840  12.013
74364W        W36027   6.826  15.159   1.894
74365W        W36028  37.430  41.532   4.339
74366W        W36029  27.030  37.453  13.950
74367W        W36030   9.754  12.648   3.149
74368W        W36031  14.102  27.502  14.366
74369W        W36032   7.276  31.922  13.372
74370W        W36033  13.321   2.389   0.935
74371W        W36034   1.959  40.501   1.302
74372W        W36035  44.278  25.002  13.966
74373W        W36036  39.374  24.115   2.321
74374W        W36037   5.317   6.299  14.428
74375W        W36038  12.731   2.390  14.516
74376W        W36039  19.580  30.044  11.970
74377W        W36040  28.980  14.803  13.406
74378W        W36041   9.156  30.461   0.313
74379W        W36042  13.174  32.132  13.839
74380W        W36043  20.128   4.912  14.818
74381W        W36044  41.788  31.601  12.448
74382W        W36045   1.296  36.388  10.635
74383W        W36046  23.099  43.772  12.927
74384W        W36047  22.547  35.382  11.867
74385W        W36048  28.670  10.351  13.972
74386W        W36049  11.185  12.164  12.071
74387W        W36050  11.311  40.814   0.474
74388W        W36051  27.126  14.243  10.472
74389W        W36052  17.230  27.947  12.013
74390W        W36053  25.497  43.511  12.915
74391W        W36054  18.067  25.157   4.148
74392W        W36055  24.640  16.747   4.786
74393W        W36056  19.725  31.130   2.211
74394W        W36057  15.097  28.574  14.845
74395W        W36058   7.742   2.896  14.327
74396W        W36059  10.142  33.394   4.279
74397W        W36060  17.724  44.377   9.930
74398W        W36061  13.323  24.215   4.690
74399W        W36062   1.479  19.080   1.210
74400W        W36063  42.302   7.212   0.956
74401W        W36064  25.218   8.691  12.521
74402W        W36065  39.375  34.874   1.337
74403W        W36066  36.981  27.197  11.534
74404W        W36067  40.499  32.456   0.940
74405W        W36068  42.307   1.846   0.841
74406W        W36069  28.574  30.613  14.412
74407W        W36070  25.091  42.349   3.666
74408W        W36071  21.090  26.558  11.581
74409W        W36072  25.713  18.748   3.369
74410W        W36073   1.454   1.243   2.771
74411W        W36074  33.976  22.055   5.201
74412W        W36075  43.976  39.495   2.259
74413W        W36076  25.543  12.638  14.971
74414W        W36077   4.363   7.242   3.658
74415W        W36078   6.746  26.519  10.566
74416W        W36079   9.694  10.775  14.307
74417W        W36080  12.251  23.705   1.348
74418W        W36081  18.274  19.614   0.737
74419W        W36082  44.772  14.223  14.917
74420W        W36083   1.944  28.117   0.272
74421W        W36084  33.023  35.575  11.609
74422W        W36085  34.091  21.534   0.257
74423W        W36086   6.234  24.049  12.505
74424W        W36087  28.964  43.795   1.852
74425W        W36088  35.481   3.219  10.153
74426W        W36089  24.129  34.552  13.546
74427W        W36090   6.768   0.268   1.695
74428W        W36091   9.684  33.972  10.642
74429W        W36092   4.443  12.676  11.507
74430W        W36093  11.676   0.802   0.471
74431W        W36094  41.508  28.624   1.776
74432W        W36095  18.259   2.805  11.082
74433W        W36096  17.591  37.556   5.256
74434W        W36097  31.436   5.750  13.358
74435W        W36098   0.280  10.313  12.884
74436W        W36099  27.046  36.887   0.473
74437W        W36100   6.843  31.010   2.376
74438W        W36101  16.232  18.577  11.607
74439W        W36102   2.236  16.141   1.328
74440W        W36103  27.954   2.862  10.920
74441W        W36104  28.106  18.770  12.033
74442W        W36105  15.118  22.132  12.355
74443W        W36106  30.468  26.019   4.681
74444W        W36107  22.073  39.065   4.289
74445W        W36108   4.849   2.861   4.716
74446W        W36109  20.676  30.908   1.418
74447W        W36110  43.434  33.930  14.030
74448W        W36111   3.740  14.273  10.473
74449W        W36112  41.500  34.030  14.923
74450W        W36113  24.137   4.205   2.203
74451W        W36114  32.597  13.146   3.703
74452W        W36115  28.960  33.881  11.127
74453W        W36116  42.445  39.021   4.338
74454W        W36117  16.719  37.558   5.159
74455W        W36118  12.765  26.625   2.723
74456W        W36119  26.498  31.589  13.033
74457W        W36120   6.688  20.646   1.221
74458W        W36121  31.143  41.980  10.940
74459W        W36122  21.038  11.783  11.087
74460W        W36123  19.276  11.834   2.364
74461W        W36124  11.179  38.889   3.212
74462W        W36125   2.923  34.538  13.397
74463W        W36126  22.143  41.470   0.824
74464W        W36127  26.593  25.600   0.295
74465W        W36128  43.271  40.967  11.099
74466W        W36129   1.425  44.009   3.842
74467W        W36130  37.937  12.126  12.383
74468W        W36131  44.806  28.610  13.801
74469W        W36132  17.679  17.688   0.743
74470W        W36133   4.423  40.048  11.082
74471W        W36134  15.752  44.754   0.783
74472W        W36135  22.216  19.224  12.347
74473W        W36136  27.605  19.183   4.831
74474W        W36137  14.320  17.578   0.880
74475W        W36138  31.013  15.243   3.770
74476W        W36139   8.697  21.165   3.867
74477W        W36140  13.275  14.214   1.363
74478W        W36141  26.165  36.983   2.204
74479W        W36142  30.137  41.886   3.376
74480W        W36143  19.096   3.892   3.193
74481W        W36144  40.838  15.111  14.932
74482W        W36145  39.502  35.861   4.341
74483W        W36146  36.052   1.454   3.841
74484W        W36147  29.657  34.925  14.401
74485W        W36148  26.564  36.535   1.772
74486W        W36149  28.477  30.577   3.869
74487W        W36150   6.200  16.198   0.453
74488W        W36151  40.512  16.154   4.257
74489W        W36152   9.391  30.041  12.945
74490W        W36153   9.388  26.008   4.350
74491W        W36154  27.951  11.861  12.386
74492W        W36155  23.080  20.130   3.777
74493W        W36156  34.477   6.373   2.390
74494W        W36157  11.644  20.110  13.971
74495W        W36158  34.503  23.514  11.561
74496W        W36159  29.105  10.266   0.914
74497W        W36160  41.405  41.016   1.269
74498W        W36161  25.705  31.010   3.741
74499W        W36162  38.324  37.397   4.762
74500W        W36163  21.586  36.440  14.827
74501W        W36164  41.900   6.783  12.510
74502W        W36165  40.491  10.182   0.347
74503W        W36166   5.286  13.672   3.262
74504W        W36167  34.591  22.241  10.452
74505W        W36168  15.145  18.206  10.572
74506W        W36169   1.777  39.832  14.501
74507W        W36170  28.092  20.755   0.328
74508W        W36171  24.990  30.027  11.402
74509W        W36172  23.015  44.775  14.855
74510W        W36173   2.343  14.687  11.407
74511W        W36174  15.177  21.561  12.572
74512W        W36175  33.005  17.158  14.393
74513W        W36176   1.849   4.915   0.879
74514W        W36177  10.196   3.458   0.813
74515W        W36178  21.520  33.552  12.049
74516W        W36179  41.373  23.200  11.423
74517W        W36180  19.178  23.657  11.579
74518W        W36181  18.596  33.025   3.790
74519W        W36182  18.608   1.927  10.492
74520W        W36183  43.783  37.988   4.116
74521W        W36184  32.404  33.563  13.484
74522W        W36185  37.417  11.710   0.369
74523W        W36186  22.677  39.368  14.506
74524W        W36187   6.306   4.841  11.411
74525W        W36188   5.872  19.563  13.460
74526W        W36189  33.951   5.354  12.430
74527W        W36190  38.872  15.231  12.576
74528W        W36191  42.326  18.611   0.758
74529W        W36192  25.538  14.281   5.172
74530W        W36193  33.447  33.975  14.807
74531W        W36194  29.535  21.578  14.866
74532W        W36195  15.179   9.849   0.478
74533W        W36196  11.628   2.801  13.793
74534W        W36197  28.590  13.128   4.353
74535W        W36198  16.172  23.593   2.888
74536W        W36199  12.125  34.945  13.543
74537W        W36200  41.452  37.431  12.502
74538W        W36201   2.342  38.437  13.955
74539W        W36202  21.214   2.301   0.735
74540W        W36203  11.286  29.951  13.809
74541W        W36204   6.863  21.038   2.235
74542W        W36205  14.808  11.847   0.910
74543W        W36206  23.083  35.928  12.039
74544W        W36207  27.451  29.480   3.788
74545W        W36208  35.519  40.023  12.353
74546W        W36209  23.712   8.336   1.916
74547W        W36210   2.881  29.015   0.369
74548W        W36211  12.246   8.732   1.931
74549W        W36212  11.274  23.630  12.965
74550W        W36213  24.985  25.001   1.372
74551W        W36214  14.735  12.674   1.301
74552W        W36215  15.259  19.248  11.924
74553W        W36216  27.593  21.086  14.928
74554W        W36217  30.990   1.317   3.237
74555W        W36218  18.600  18.051   4.785
74556W        W36219  27.628  14.161   1.302
74557W        W36220  21.555  12.711  13.850
74558W        W36221  14.787  29.551  12.085
74559W        W36222   1.780   3.342  10.435
74560W        W36223  30.535  30.153  11.524
74561W        W36224  17.756  24.050   2.814
74562W        W36225  17.625  43.291   1.244
74563W        W36226   2.906  37.463  13.399
74564W        W36227  36.881  27.998  10.484
74565W        W36228  11.687  11.315   2.893
74566W        W36229  28.033   4.388   4.831
74567W        W36230  26.064  15.132  13.439
74568W        W36231   4.214  11.245  11.432
74569W        W36232  36.567   1.241  13.482
74570W        W36233  43.802  36.060  13.513
74571W        W36234  17.691  42.002  10.462
74572W        W36235   2.807  36.471  13.402
74573W        W36236  24.118  25.066  11.965
74574W        W36237  28.486  13.605   3.246
74575W        W36238  19.710  40.481  13.984
74576W        W36239  32.577  14.146   2.806
74577W        W36240  34.411   3.770   4.626
74578W        W36241   2.874  17.077   0.761
74579W        W36242  24.018  10.748  12.943
74580W        W36243   5.413   6.780  11.477
74581W        W36244   7.882  11.714   0.388
74582W        W36245  21.545  18.259  12.828
74583W        W36246  22.200  44.946   0.871
74584W        W36247  33.074  43.491  11.566
74585W        W36248  27.976  31.562   4.154
74586W        W36249  38.061  18.569   3.287
74587W        W36250   5.785  20.687  12.487
74588W        W36251  14.204   3.868   2.828
74589W        W36252   4.364  43.859   1.312
74590W        W36253   7.862   7.908  10.893
74591W        W36254  40.362   0.457  10.552
74592W        W36255  21.165  16.615   1.346
74593W        W36256  22.628   0.837   2.251
74594W        W36257  27.946  30.012   3.384
74595W        W36258  10.287  44.269  12.345
74596W        W36259  43.343  20.715   1.857
74597W        W36260   9.704  25.052   4.178
74598W        W36261  24.172  19.094   1.843
74599W        W36262   3.773  30.134   3.869
74600W        W36263   1.397  30.160  14.355
74601W        W36264  14.181  38.884   1.859
74602W        W36265  20.765  36.509  11.878
74603W        W36266  41.974   4.353   2.220
74604W        W36267   6.184   7.677   2.765
74605W        W36268   4.406   0.374  11.452
74606W        W36269  27.042  18.244   2.277
74607W        W36270  26.201  13.143  13.054
74608W        W36271  37.457  13.324   0.477
74609W        W36272  34.524   6.399   4.232
74610W        W36273  10.152   7.389   0.816
74611W        W36274  35.603  20.741  11.007
74612W        W36275  10.284   3.893  10.548
74613W        W36276  42.287  20.746   4.783
74614W        W36277  22.614   8.803  10.122
74615W        W36278  28.044  26.619  14.395
74616W        W36279   4.424   4.429   0.910
74617W        W36280   8.343  36.098  13.482
74618W        W36281   2.337  41.843   0.950
74619W        W36282  38.434   6.249  11.112
74620W        W36283  41.945   8.298  10.964
74621W        W36284   8.207  13.259   0.745
74622W        W36285   7.362   9.180   1.337
74623W        W36286  35.493  31.581   4.682
74624W        W36287  33.452  38.349  11.516
74625W        W36288  28.530  17.116  11.484
74626W        W36289  40.309  42.892   1.804
74627W        W36290   6.317  15.774   1.801
74628W        W36291  17.133  17.236  11.087
74629W        W36292  32.925   8.853  10.890
74630W        W36293  29.128  21.242  11.074
74631W        W36294  42.944  10.179   3.312
74632W        W36295  34.908  43.514  11.873
74633W        W36296  31.567  27.524   0.416
74634W        W36297  30.431  36.071  10.510
74635W        W36298  29.493  12.182   1.801
74636W        W36299  44.875  40.972  12.087
74637W        W36300  22.035  32.403   4.741
74638W        W36301  16.776  14.808   3.761
74639W        W36302  28.071  19.740  12.973
74640W        W36303   1.259  39.348   0.931
74641W        W36304   2.423  39.945   3.188
74642W        W36305  15.268   3.903   2.412
74643W        W36306  40.031  36.934   0.298
74644W        W36307  41.943  38.525  10.575
74645W        W36308   7.722  42.010   3.291
74646W        W36309   4.837  42.427   2.271
74647W        W36310  16.570  23.223  10.901
74648W        W36311  18.688   8.708  11.469
74649W        W36312  27.025  25.148  14.312
74650W        W36313  17.684  33.889  10.454
74651W        W36314   0.326   3.258  13.989
74652W        W36315  15.132  16.744  12.832
74653W        W36316   1.256  13.321  14.800
74654W        W36317  24.042   3.228  13.038
74655W        W36318  31.907  33.539   3.672
74656W        W36319  10.643  10.756   3.689
74657W        W36320  23.037  39.418  14.899
74658W        W36321   4.311  22.223   2.773
74659W        W36322  44.466  37.023  11.984
74660W        W36323  43.478   8.781  11.600
74661W        W36324  23.139  18.136  14.432
74662W        W36325  28.137  33.540   2.774
74663W        W36326  36.844  32.615  12.920
74664W        W36327  11.733  38.837   2.221
74665W        W36328   4.769  26.192   4.336
74666W        W36329  16.803  12.149  13.038
74667W        W36330  27.062  14.252  11.002
74668W        W36331   5.736  12.845   2.334
74669W        W36332  36.926   0.967   2.390
74670W        W36333  39.025  24.153   0.789
74671W        W36334  22.166  18.219  13.537
74672W        W36335  35.965   4.866   3.206
74673W        W36336  11.228  28.089   2.816
74674W        W36337   8.223  11.208  11.427
74675W        W36338  26.475  42.936  13.401
74676W        W36339  26.982   7.681   1.758
74677W        W36340  42.472   3.294  10.497
74678W        W36341  19.235  19.058   1.358
74679W        W36342  21.730  18.079  13.412
74680W        W36343  10.294   2.861  12.870
74681W        W36344  16.577  38.360   3.285
74682W        W36345  23.016  32.948   1.363
74683W        W36346  13.669  19.206   0.321
74684W        W36347  38.936  10.376  13.799
74685W        W36348  36.587  31.639   2.771
74686W        W36349  22.201  24.229  11.942
74687W        W36350  31.073  17.287   2.814
74688W        W36351  19.731   2.259   0.349
74689W        W36352  42.319  20.137   0.849
74690W        W36353  44.461  21.108   1.745
74691W        W36354  24.012  27.150  14.981
74692W        W36355   8.327  42.371   4.754
74693W        W36356   1.739   1.956  11.996
74694W        W36357  30.605  24.167   3.821
74695W        W36358  37.514  42.974  11.993
74696W        W36359  27.631  30.570  11.492
74697W        W36360  21.520  31.640   3.796
74698W        W36361  38.332   9.805  14.764
74699W        W36362  27.585  42.883   1.709
74700W        W36363   9.282  26.082   3.145
74701W        W36364  42.017   6.840   1.268
74702W        W36365  35.392  30.028  12.527
74703W        W36366  31.457   5.208  14.310
74704W        W36367  41.516   0.412  14.405
74705W        W36368  13.223  23.008   3.371
74706W        W36369  28.065  16.170  13.801
74707W        W36370  16.114   3.410   2.808
74708W        W36371   8.804  29.498   0.803
74709W        W36372  44.884   0.896  10.102
74710W        W36373  16.096  26.160   0.304
74711W        W36374   0.492   0.343   2.744
74712W        W36375  40.353   8.891   4.660
74713W        W36376  30.964  33.882   1.255
74714W        W36377  14.683   7.805  12.493
74715W        W36378  17.168   9.671   1.709
74716W        W36379  30.472   6.837   0.389
74717W        W36380   9.187  17.174  14.465
74718W        W36381  32.020  17.788   0.312
74719W        W36382  29.161   3.757  11.857
74720W        W36383  34.895  19.649   4.116
74721W        W36384   9.224  28.986   1.850
74722W        W36385   6.765  41.490  13.809
74723W        W36386  41.352  22.595  13.039
74724W        W36387  29.919   9.325  10.922
74725W        W36388  24.218   3.890   3.206
74726W        W36389  22.540  11.834  14.885
74727W        W36390  34.505  37.335   2.338
74728W        W36391  18.175   3.238   0.250
74729W        W36392  27.007  35.485   0.382
74730W        W36393   9.681  16.730  13.005
74731W        W36394  19.217  22.670  11.985
74732W        W36395   3.822  16.305   4.690
74733W        W36396  14.815   3.828   4.811
74734W        W36397  16.782  28.089   1.386
74735W        W36398  37.910  17.247  12.068
74736W        W36399  29.973  24.695  12.980
74737W        W36400  16.680  27.007   3.665
74738W        W36401  44.338   0.373   0.466
74739W        W36402  15.631  44.276   4.613
74740W        W36403  20.067  44.911  14.311
74741W        W36404  14.628  20.552   3.299
74742W        W36405  21.716  34.038  11.905
74743W        W36406   0.802  27.172  13.502
74744W        W36407  38.054   6.776   2.239
74745W        W36408  13.658  28.575  14.327
74746W        W36409  36.022  30.575  11.102
74747W        W36410  35.962  12.343   4.750
74748W        W36411  21.594  23.698  12.455
74749W        W36412  17.620  16.233   5.145
74750W        W36413  17.246  18.703  11.443
74751W        W36414   9.247  29.950   0.932
74752W        W36415  21.067  11.167   1.921
74753W        W36416  27.631  17.725   4.287
74754W        W36417  21.238  12.253   0.468
74755W        W36418  20.110  18.203   3.328
74756W        W36419  14.336  38.372   2.898
74757W        W36420   6.823  34.580  14.355
74758W        W36421  19.779   3.910  13.839
74759W        W36422  20.716   3.937  13.800
74760W        W36423  18.051   9.195   2.307
74761W        W36424  36.541  41.853  12.533
74762W        W36425  32.994  34.928   2.210
74763W        W36426  14.731  37.427   4.297
74764W        W36427  41.419  26.605  14.350
74765W        W36428  27.106  31.091   1.697
74766W        W36429  14.641  40.531  10.538
74767W        W36430  25.141  41.897  13.375
74768W        W36431  30.122  36.979  10.465
74769W        W36432  19.762  40.883  12.948
74770W        W36433  15.215  36.034  11.042
74771W        W36434  44.372   7.416  13.930
74772W        W36435   5.380   2.361   2.418
74773W        W36436  13.154  21.532   2.679
74774W        W36437  44.941  14.688   4.661
74775W        W36438  43.399  14.810   5.154
74776W        W36439  14.820  15.765  11.452
74777W        W36440   2.246  40.437   1.317
74778W        W36441  31.489  14.293  12.963
74779W        W36442  36.539  17.751   2.206
74780W        W36443  42.436  35.508   3.783
74781W        W36444  25.176  20.545   3.763
74782W        W36445   8.835  30.118   1.440
74783W        W36446  44.861  34.104  10.449
74784W        W36447   3.259  15.615   4.656
74785W        W36448  19.664  27.017   0.421
74786W        W36449  36.070  33.091   1.393
74787W        W36450  23.217  27.671   3.327
74788W        W36451  24.008  16.089   3.660
74789W        W36452   7.788  43.014   3.181
74790W        W36453  21.257   7.273  13.485
74791W        W36454  13.705   1.368   3.755
74792W        W36455   6.300   3.288  10.619
74793W        W36456   8.227   9.342  12.049
74794W        W36457  19.126  31.147   3.852
74795W        W36458  32.478  17.603  13.834
74796W        W36459   8.800   3.237  14.383
74797W        W36460  16.761  25.647  13.026
74798W        W36461  25.062  14.624   0.729
74799W        W36462   3.892  25.486   2.376
74800W        W36463   1.755  23.570   0.316
74801W        W36464   9.192   9.868  14.426
74802W        W36465  23.675  27.493  13.926
74803W        W36466  43.324  44.289   0.482
74804W        W36467  43.894  31.582  14.885
74805W        W36468   4.389  23.100   1.344
74806W        W36469  33.545   3.772   2.697
74807W        W36470  13.792  40.328   0.387
74808W        W36471  40.369  40.863   4.733
74809W        W36472  37.507  13.808   0.300
74810W        W36473   3.901   9.289  14.462
74811W        W36474  24.171  33.942   0.943
74812W        W36475   2.925  30.930   2.718
74813W        W36476   7.766  18.099  10.017
74814W        W36477  19.091   8.882  10.465
74815W        W36478  26.121  11.751  10.487
74816W        W36479   3.353  26.673  14.823
74817W        W36480  35.865  32.019  13.858
74818W        W36481   4.251   3.305   0.733
74819W        W36482  37.973  14.756   3.327
74820W        W36483  10.722  24.623   3.725
74821W        W36484  38.390   1.429   0.941
74822W        W36485  17.134  44.782  10.474
74823W        W36486  16.676  19.721  12.018
74824W        W36487   1.307  21.235  13.917
74825W        W36488  13.831  21.158   1.213
74826W        W36489  26.626   0.775  13.019
74827W        W36490  44.945  13.802  13.927
74828W        W36491   5.411  32.090  12.510
74829W        W36492  40.512  44.894   4.329
74830W        W36493  43.803  23.621  11.126
74831W        W36494   0.250  31.125   4.255
74832W        W36495   4.818  11.740   0.935
74833W        W36496  37.983  12.126   3.703
74834W        W36497   1.965   0.261   1.340
74835W        W36498  33.036  25.018   1.221
74836W        W36499  43.973  41.339  10.497
74837W        W36500  34.046  17.258  14.766
74838W        W36501  30.104  28.558  12.053
74839W        W36502  11.355  26.535   2.863
74840W        W36503  35.603   4.903   1.734
74841W        W36504  28.441   7.668  14.808
74842W        W36505  41.932  35.513   1.801
74843W        W36506  22.237   0.432   3.152
74844W        W36507  15.768  33.938   4.619
74845W        W36508  34.615  19.534  14.315
74846W        W36509   0.762  22.192   1.320
74847W        W36510  27.004  31.910  11.397
74848W        W36511  30.607  28.015  14.996
74849W        W36512   0.355   5.286   2.206
74850W        W36513  24.082  40.807   2.693
74851W        W36514   5.425  39.050   3.826
74852W        W36515  14.122  42.921   1.930
74853W        W36516   2.281  31.503  11.391
74854W        W36517  14.827   3.222   9.950
74855W        W36518  42.327  16.195   4.345
74856W        W36519   7.272  10.324   9.975
74857W        W36520  18.296   2.888   3.263
74858W        W36521  12.244  19.600   3.634
74859W        W36522  23.099  41.346   3.634
74860W        W36523  38.039  32.065   4.157
74861W        W36524  30.163  27.614   3.840
74862W        W36525   7.811  17.076   4.200
74863W        W36526   6.696  25.215   4.732
74864W        W36527  40.313  41.510  14.899
74865W        W36528  12.323  38.064  11.096
74866W        W36529  11.768  23.571  14.319
74867W        W36530  11.748   3.877  13.930
74868W        W36531  38.440   4.357   3.344
74869W        W36532  29.067  39.055   4.122
74870W        W36533  25.018  22.247   5.141
74871W        W36534  10.700  11.305   0.435
74872W        W36535  20.111  26.140   4.751
74873W        W36536  16.261   1.876  10.454
74874W        W36537  27.191  10.695  12.969
74875W        W36538  20.119  24.157   3.276
74876W        W36539   0.395   4.908  13.848
74877W        W36540  42.787  38.398   9.932
74878W        W36541  34.588   2.769  14.777
74879W        W36542  32.419  37.418  13.504
74880W        W36543  12.316  21.625   2.711
74881W        W36544   9.301  16.691  10.941
74882W        W36545  20.523  25.063   0.928
74883W        W36546   2.937   0.870  13.477
74884W        W36547  39.347  15.283   2.237
74885W        W36548  31.470  26.135  12.835
74886W        W36549  10.244   1.914  13.927
74887W        W36550  20.723   3.827   2.885
74888W        W36551  35.028   1.481  11.109
74889W        W36552  28.586  25.008  10.507
74890W        W36553  44.356  31.505  13.872
74891W        W36554  38.041  44.455   2.348
74892W        W36555  42.797  16.260  13.433
74893W        W36556  10.259  32.026   0.762
74894W        W36557   1.470  40.413  13.920
74895W        W36558   5.819  13.292   0.401
74896W        W36559  14.319   9.385  13.474
74897W        W36560  16.201  21.136   2.353
74898W        W36561  20.174  32.919   2.762
74899W        W36562  28.059  33.126  12.840
74900W        W36563  19.595  23.551  11.990
74901W        W36564  35.588  37.546  13.346
74902W        W36565  20.227  24.707   4.320
74903W        W36566  13.156  33.986  12.432
74904W        W36567  24.531  12.624  12.840
74905W        W36568  23.612  22.127  14.878
74906W        W36569   6.302  24.093   5.148
74907W        W36570  34.516   7.258   1.293
74908W        W36571  39.396  20.232   1.762
74909W        W36572  18.700   8.892   4.702
74910W        W36573  24.000  24.979   0.448
74911W        W36574  25.638   2.407   1.406
74912W        W36575  30.648   4.821  11.983
74913W        W36576  19.284  13.336   0.427
74914W        W36577  31.485   1.905  14.938
74915W        W36578  21.208   2.936   1.863
74916W        W36579  32.958  16.655   2.731
74917W        W36580  37.426   1.470   4.271
74918W        W36581  25.169  26.969   0.474
74919W        W36582  36.954  44.491   3.817
74920W        W36583  39.816  43.451   2.266
74921W        W36584  19.563   6.882   1.352
74922W        W36585  24.588  33.028   2.389
74923W        W36586  15.124  10.661  10.892
74924W        W36587  10.361  13.254   2.809
74925W        W36588  31.982   5.246   0.308
74926W        W36589  21.730   0.768  12.377
74927W        W36590  37.495  42.814  13.052
74928W        W36591  35.092  24.214   3.166
74929W        W36592  29.010  23.538   4.647
74930W        W36593   7.769   6.351   3.721
74931W        W36594  15.711   3.768   3.227
74932W        W36595  44.846  40.957   2.841
74933W        W36596   5.872  38.014  13.343
74934W        W36597  41.501  33.475   2.245
74935W        W36598   1.891   9.196   1.865
74936W        W36599  11.748  37.337   4.327
74937W        W36600  15.612   8.682  13.816
74938W        W36601  22.529  23.601  14.294
74939W        W36602  38.863  41.851  10.443
74940W        W36603  25.167  24.184  10.525
74941W        W36604   8.386  19.577   3.746
74942W        W36605  11.208  26.199  10.959
74943W        W36606  17.300  37.457   3.295
74944W        W36607  32.954  19.608   3.671
74945W        W36608  18.789  32.905   2.321
74946W        W36609  33.976  34.084   4.627
74947W        W36610   5.387  43.884  14.884
74948W        W36611   7.909  41.335   0.750
74949W        W36612  25.533  29.449  11.380
74950W        W36613  40.461  21.136  11.416
74951W        W36614  23.039  14.783   0.928
74952W        W36615   8.182  42.313  14.444
74953W        W36616   4.824  31.492  12.557
74954W        W36617   0.382  41.463  10.611
74955W        W36618  21.186   1.918  14.793
74956W        W36619  19.670  37.044   2.307
74957W        W36620  26.968  37.439   0.425
74958W        W36621  43.272  34.892   4.661
74959W        W36622   4.701  17.756  13.870
74960W        W36623   7.289  41.434   4.187
74961W        W36624  17.706  39.952  11.376
74962W        W36625  39.816  41.322   1.365
74963W        W36626  18.628   6.755  12.341
74964W        W36627  27.647  40.883  14.763
74965W        W36628   3.952   8.822   1.269
74966W        W36629  31.454   6.680   9.938
74967W        W36630  11.280  39.819  10.898
74968W        W36631  16.241   2.819   3.290
74969W        W36632  41.474  30.483  12.422
74970W        W36633  42.819  20.065  10.958
74971W        W36634   0.971  11.655   3.376
74972W        W36635  23.726  42.522   2.853
74973W        W36636  32.478  23.042  11.458
74974W        W36637  26.153   4.355  14.776
74975W        W36638  17.570  21.237  13.347
74976W        W36639  44.400  13.675   3.235
74977W        W36640  13.149  39.044   0.902
74978W        W36641  24.066  26.104   0.744
74979W        W36642   7.335  17.239  13.807
74980W        W36643  18.117  16.155  10.131
74981W        W36644  30.988  35.386   1.238
74982W        W36645  30.146  30.164  14.509
74983W        W36646  39.819  40.872  12.035
74984W        W36647  26.565  15.127  13.048
74985W        W36648  11.706   1.272   4.153
74986W        W36649   0.944  15.255  12.443
74987W        W36650  23.180  36.350   2.822
74988W        W36651   4.432  22.517  10.974
74989W        W36652   7.875   7.329   2.329
74990W        W36653  41.963  40.932  13.393
74991W        W36654  29.985  11.652  10.643
74992W        W36655  16.176  37.471  14.436
74993W        W36656  22.575  17.588  11.894
74994W        W36657  34.999  28.954  10.501
74995W        W36658  35.090   6.823  12.399
74996W        W36659  19.591  30.575  14.453
74997W        W36660   2.392  30.992  12.416
74998W        W36661   3.732  11.221   3.827
74999W        W36662  38.051   0.316   0.901
75000W        W36663  19.117  42.370   0.745
75001W        W36664   0.462  20.588   0.777
75002W        W36665  35.083  32.015   0.899
75003W        W36666   0.418  12.258  11.605
75004W        W36667   5.782   7.671  12.912
75005W        W36668  35.435   6.888  13.798
75006W        W36669  16.225  18.565   1.853
75007W        W36670  13.212  21.061  13.054
75008W        W36671  16.637   9.170   2.378
75009W        W36672  11.165  37.348  13.800
75010W        W36673  44.878  19.192   2.673
75011W        W36674  12.137   1.919  11.986
75012W        W36675  15.314  22.661  13.921
75013W        W36676   1.424   5.918  11.123
75014W        W36677  14.334  31.575   3.313
75015W        W36678  43.972   5.375   4.341
75016W        W36679  22.639  24.616   2.201
75017W        W36680   4.886  36.389  12.558
75018W        W36681  25.978  34.510  11.002
75019W        W36682  28.444  28.472  10.903
75020W        W36683  44.946   8.809   4.152
75021W        W36684  16.752  39.915  10.561
75022W        W36685   0.371  21.153   0.375
75023W        W36686  29.658  30.010   0.362
75024W        W36687  19.630  33.025  12.428
75025W        W36688   1.862  30.984   3.808
75026W        W36689   7.293  41.379  14.910
75027W        W36690   2.287   0.390   3.716
75028W        W36691   8.286  15.725   2.863
75029W        W36692  29.135  28.583  10.893
75030W        W36693  21.028  23.064  11.456
75031W        W36694  22.615  20.564  11.528
75032W        W36695  44.009  30.068  13.883
75033W        W36696  23.692   5.267  12.532
75034W        W36697  40.842  37.398  12.413
75035W        W36698  17.565  42.886   1.918
75036W        W36699   0.942   1.303  13.018
75037W        W36700  40.930  33.964   0.419
75038W        W36701  43.353  42.986   3.183
75039W        W36702  29.644  44.896  10.579
75040W        W36703  20.760   2.463  11.581
75041W        W36704   8.780  39.358  12.530
75042W        W36705   1.749  23.690   4.318
75043W        W36706  31.080   8.329  11.899
75044W        W36707  38.336  40.808  12.461
75045W        W36708  18.233  28.977   1.926
75046W        W36709  36.414   3.776   4.186
75047W        W36710  18.289  28.665   0.360
75048W        W36711  25.161  36.374  13.953
75049W        W36712  41.030  35.870  13.992
75050W        W36713   6.403   8.400   0.389
75051W        W36714  20.575  40.540  13.021
75052W        W36715  21.140  42.018  13.449
75053W        W36716   7.669  12.665   4.336
75054W        W36717  41.807  32.474  11.447
75055W        W36718  43.790  26.066   0.894
75056W        W36719  40.040  26.100   1.293
75057W        W36720  33.030  43.937   0.872
75058W        W36721  39.853  13.692  11.389
75059W        W36722   3.822   5.317  12.037
75060W        W36723   3.359  31.148   1.910
75061W        W36724   6.207  26.043   3.812
75062W        W36725  16.772  13.317  14.765
75063W        W36726  13.325  35.858   4.294
75064W        W36727  36.841  11.778  12.052
75065W        W36728   3.928  31.153   0.376
75066W        W36729  36.579  31.642  14.344
75067W        W36730   5.330   4.389  11.104
75068W        W36731  32.907  15.642   4.818
75069W        W36732   0.393   0.898   2.413
75070W        W36733  28.560   4.227  12.879
75071W        W36734  28.994  37.853   4.312
75072W        W36735  20.228   0.758  14.447
75073W        W36736   8.765  10.353  14.881
75074W        W36737  10.646  19.195   1.874
75075W        W36738  28.180  21.052   1.371
75076W        W36739  38.530  23.666   0.376
75077W        W36740  22.718  29.018   4.684
75078W        W36741  24.019  13.725   0.945
75079W        W36742   6.281  10.710  13.018
75080W        W36743  12.638  16.080  11.401
75081W        W36744  30.530  13.639  12.948
75082W        W36745  41.448   5.350   2.181
75083W        W36746  18.688  14.211   1.894
75084W        W36747  23.678   9.372   0.771
75085W        W36748  41.872  22.137   4.774
75086W        W36749  10.832  41.334  13.404
75087W        W36750  20.679  41.408   0.793
75088W        W36751  24.688  42.997  11.986
75089W        W36752  14.700  31.622  12.570
75090W        W36753  26.060   6.849   3.754
75091W        W36754  39.894   8.869  13.895
75092W        W36755  24.089  18.079  11.873
75093W        W36756  27.178  14.219   2.722
75094W        W36757  16.264   1.797   1.444
75095W        W36758  16.599   6.708   1.890
75096W        W36759  35.051  27.184  11.861
75097W        W36760   6.294  29.639  14.384
75098W        W36761  32.103   0.273   3.249
75099W        W36762   2.425  41.841  14.947
75100W        W36763  30.923  15.725  11.471
75101W        W36764  18.647  24.614   0.293
75102W        W36765  10.722  27.648   4.658
75103W        W36766   4.722  11.205  13.309
75104W        W36767   3.928   2.851   0.462
75105W        W36768  19.755  36.471   1.876
75106W        W36769   1.736  14.332  11.482
75107W        W36770  37.053  37.470  14.413
75108W        W36771  36.085  31.087  14.342
75109W        W36772   3.261   2.320   0.345
75110W        W36773  23.665   6.701   1.300
75111W        W36774  19.040  33.568   0.345
75112W        W36775   3.710   1.866   3.674
75113W        W36776  33.071  11.140  13.485
75114W        W36777  31.991  44.010   2.370
75115W        W36778  23.143   6.833  12.865
75116W        W36779  17.201  35.497  13.535
75117W        W36780  19.240  30.017   2.837
75118W        W36781  36.918   2.314  11.908
75119W        W36782  42.784  31.452  14.350
75120W        W36783   7.715  20.110   3.659
75121W        W36784  22.189  25.083  12.054
75122W        W36785   4.448   8.829   2.849
75123W        W36786  35.424  38.904   3.368
75124W        W36787  19.126  41.917   4.255
75125W        W36788  26.113   2.409  13.524
75126W        W36789   3.316   5.404  12.017
75127W        W36790  16.202  20.607   4.344
75128W        W36791  40.899   1.872   0.350
75129W        W36792  12.202  36.031   1.356
75130W        W36793   9.155  35.565   1.889
75131W        W36794  29.427   1.272   4.186
75132W        W36795  32.636  13.676  10.946
75133W        W36796  15.714   8.272  12.088
75134W        W36797  36.360  14.279   4.174
75135W        W36798  28.079  38.838   3.637
75136W        W36799  39.953   2.905  13.957
75137W        W36800  42.464  11.152   2.289
75138W        W36801  33.616  43.275  10.575
75139W        W36802  37.896  15.235  11.490
75140W        W36803   7.696  33.974  10.581
75141W        W36804  21.090  21.192   2.897
75142W        W36805  31.911   8.860  13.466
75143W        W36806   2.331  25.026   0.961
75144W        W36807  39.874   6.918   1.280
75145W        W36808  36.948  38.497  13.522
75146W        W36809   4.370  38.929  12.980
75147W        W36810  43.780   6.869   0.450
75148W        W36811  40.862  26.570   3.746
75149W        W36812  10.763  41.907   3.169
75150W        W36813  18.639  10.227   2.304
75151W        W36814  10.867  25.074   3.858
75152W        W36815  15.621   2.743  12.451
75153W        W36816  10.776  43.433  12.424
75154W        W36817  33.606   3.236  11.019
75155W        W36818   2.724  33.487  12.002
75156W        W36819  42.354  26.016   1.902
75157W        W36820  24.204  35.888   3.846
75158W        W36821  11.834  36.945   3.729
75159W        W36822  12.173  44.376   0.476
75160W        W36823  35.878  26.488  14.783
75161W        W36824  27.045  23.080   1.800
75162W        W36825  30.418  34.035   2.861
75163W        W36826  20.205   8.734  10.538
75164W        W36827  43.772  39.897   1.921
75165W        W36828  44.442   4.334   3.160
75166W        W36829  14.711  17.780  12.083
75167W        W36830  40.821   6.390   9.600
75168W        W36831  24.060  11.716   0.924
75169W        W36832  28.163  21.129   2.417
75170W        W36833  43.426  40.814  11.462
75171W        W36834  24.552  23.594   3.668
75172W        W36835  20.114  20.622   2.278
75173W        W36836  23.691  16.600  12.006
75174W        W36837  19.070  15.663  12.386
75175W        W36838  26.624  38.045   9.968
75176W        W36839  37.464  44.454   1.423
75177W        W36840  37.340  35.478  12.527
75178W        W36841   6.229   3.388  11.944
75179W        W36842   8.766  14.197  13.017
75180W        W36843  43.446   9.189   4.598
75181W        W36844  29.458  23.618  11.414
75182W        W36845   6.303  26.083   4.123
75183W        W36846   1.746  38.357   0.472
75184W        W36847   0.774   6.816  14.963
75185W        W36848   9.309   6.783   1.695
75186W        W36849  41.970   1.303   1.306
75187W        W36850  26.128  25.474   2.391
75188W        W36851  31.535  24.000   2.381
75189W        W36852  20.660   9.746  11.892
75190W        W36853  41.808  42.830  13.937
75191W        W36854  43.493  39.955  13.314
75192W        W36855  17.200  40.997   2.390
75193W        W36856  36.852  21.188  13.874
75194W        W36857  35.859  32.940  11.097
75195W        W36858  21.056   5.907  11.939
75196W        W36859   1.870  27.501  10.505
75197W        W36860  28.933   0.765   2.859
75198W        W36861   3.387   0.305   0.317
75199W        W36862  23.037  28.602  10.066
75200W        W36863  43.793  29.668   0.350
75201W        W36864   7.701  17.775  11.586
75202W        W36865   7.375   5.352  12.523
75203W        W36866   7.817  18.222   3.338
75204W        W36867   2.795  31.136  14.788
75205W        W36868  31.116   6.426  14.346
75206W        W36869  37.407   4.909  14.999
75207W        W36870   7.200  22.653   4.735
75208W        W36871  21.127  24.563  10.005
75209W        W36872  39.440   1.931  12.914
75210W        W36873   1.814  41.505   3.314
75211W        W36874  32.081   4.869  14.862
75212W        W36875  36.946  37.457   2.790
75213W        W36876   9.354  21.105   4.636
75214W        W36877  20.764  15.239  14.003
75215W        W36878  39.905  32.522   2.324
75216W        W36879  41.035  12.301  14.957
75217W        W36880  44.406  19.724  12.360
75218W        W36881  17.217  44.345   4.239
75219W        W36882  22.081   7.775  13.834
75220W        W36883  39.479  25.649   2.418
75221W        W36884  43.363  42.917   4.269
75222W        W36885  36.989  12.736   0.889
75223W        W36886  44.270  22.624  10.448
75224W        W36887  34.573  17.269   4.238
75225W        W36888  23.680   8.318  11.971
75226W        W36889  25.139  18.676   0.317
75227W        W36890  17.709  20.651   4.755
75228W        W36891  10.380   8.673   2.193
75229W        W36892  20.135   0.273   0.894
75230W        W36893  37.029   5.726   2.764
75231W        W36894  20.220  30.060  10.889
75232W        W36895  30.011  19.607  12.512
75233W        W36896  25.038  33.471  12.430
75234W        W36897  29.974  11.188  14.952
75235W        W36898   6.811  22.557   0.791
75236W        W36899   5.373  38.909   4.122
75237W        W36900   9.209  25.532  10.622
75238W        W36901  26.165  27.196  13.419
75239W        W36902  20.082  44.344  10.059
75240W        W36903  33.877  21.249  14.290
75241W        W36904  44.914  14.663  14.020
75242W        W36905  29.493   8.239  13.999
75243W        W36906  28.543   3.739   1.898
75244W        W36907  27.159  33.568   1.809
75245W        W36908  31.459  40.370  12.572
75246W        W36909  30.502  14.606   1.922
75247W        W36910  22.693  36.042  12.996
75248W        W36911  29.504  13.732   3.814
75249W        W36912   4.750  35.554  11.474
75250W        W36913  11.713  12.265  11.467
75251W        W36914  13.815   3.915  11.970
75252W        W36915   6.783  35.410   1.404
75253W        W36916  33.598  14.602  13.976
75254W        W36917  43.771  16.697  10.527
75255W        W36918   4.898  15.159  14.404
75256W        W36919   6.276  29.061   2.272
75257W        W36920   6.323  12.209  12.858
75258W        W36921  11.219   7.407   0.341
75259W        W36922   8.216  40.320  14.309
75260W        W36923  33.397  32.090   1.355
75261W        W36924  20.604  22.654  12.838
75262W        W36925  13.767  20.181  11.088
75263W        W36926  29.082   6.799   1.315
75264W        W36927  36.551  24.667  14.393
75265W        W36928  32.990  27.135   0.951
75266W        W36929  32.502  26.635  11.000
75267W        W36930   0.967  19.107   0.913
75268W        W36931  29.619  24.559   2.187
75269W        W36932  22.524  19.734   3.655
75270W        W36933  12.165   1.328  12.377
75271W        W36934  16.111  12.306  13.950
75272W        W36935   4.223  16.677   3.678
75273W        W36936  24.975  34.980  11.396
75274W        W36937  13.610  28.634   2.864
75275W        W36938  14.180  29.423  12.403
75276W        W36939  10.361  29.976  14.345
75277W        W36940  19.761  25.598   3.329
75278W        W36941  25.586  12.716  13.799
75279W        W36942   2.933   3.886  11.884
75280W        W36943  11.822   7.226   3.840
75281W        W36944   8.268  23.502   2.216
75282W        W36945   7.819  27.496   0.857
75283W        W36946  23.012  37.507   5.172
75284W        W36947  17.559  43.485   1.762
75285W        W36948   3.868  17.680   1.754
75286W        W36949  32.903  41.840  14.888
75287W        W36950  18.560  21.064   1.925
75288W        W36951  24.520  25.655  11.491
75289W        W36952  35.404  36.042   0.845
75290W        W36953  44.943   3.910  13.354
75291W        W36954  27.036  27.181  11.061
75292W        W36955  33.081  16.305   3.833
75293W        W36956  36.033  39.822  14.776
75294W        W36957   9.256  39.991  14.974
75295W        W36958  39.831   7.844  10.449
75296W        W36959  20.706  30.081  11.419
75297W        W36960   9.172  42.825   0.781
75298W        W36961   4.414  37.432   0.364
75299W        W36962  41.352   7.772   3.846
75300W        W36963  30.919  36.051  13.907
75301W        W36964  44.492  36.863   0.446
75302W        W36965  21.263   8.253   2.295
75303W        W36966   2.353  24.195   3.742
75304W        W36967  27.091  40.046   2.182
75305W        W36968  39.998  11.204   0.890
75306W        W36969   4.699  17.110  10.973
75307W        W36970  12.275  28.139  13.877
75308W        W36971   4.404  18.756   3.379
75309W        W36972  13.730  26.030  13.792
75310W        W36973  41.823  11.840   2.866
75311W        W36974  27.022   1.243  10.915
75312W        W36975   6.200   7.808  14.789
75313W        W36976  14.242   9.745  10.624
75314W        W36977   0.473  40.989  10.467
75315W        W36978  34.546  42.818   2.797
75316W        W36979  30.009  39.905   2.322
75317W        W36980  41.513   0.252  13.851
75318W        W36981  14.129  32.975   0.400
75319W        W36982  26.489   5.743   2.836
75320W        W36983  28.149  43.927  13.793
75321W        W36984  16.117   8.231  11.532
75322W        W36985   0.771   4.744  13.030
75323W        W36986  25.630  19.707   2.334
75324W        W36987   0.788   9.246  12.561
75325W        W36988  15.324  41.849  14.010
75326W        W36989  35.520  12.783   0.244
75327W        W36990  19.746  31.118   0.334
75328W        W36991  44.948   9.719   4.700
75329W        W36992  28.154  26.619  14.967
75330W        W36993   0.326  17.674   0.791
75331W        W36994  37.353  26.028  14.828
75332W        W36995  36.487  32.421   4.668
75333W        W36996   3.923  37.001   4.714
75334W        W36997  27.525  19.608   4.710
75335W        W36998  17.723  34.904   4.715
75336W        W36999  15.165  21.257   1.738
75337W        W37000  30.586  35.861   2.793
75338W        W37001  32.974   0.941   3.860
75339W        W37002  23.037   2.227   2.841
75340W        W37003   2.763  26.464  14.926
75341W        W37004   2.821  30.039  11.561
75342W        W37005   3.255  14.681  11.865
75343W        W37006   7.247   3.433  10.601
75344W        W37007   9.338  44.454   3.731
75345W        W37008  34.574   8.686   5.234
75346W        W37009  33.416  30.633  12.517
75347W        W37010  15.122  13.192  14.912
75348W        W37011  22.207  18.766   3.300
75349W        W37012  32.112  19.577  11.449
75350W        W37013   7.395  28.015   1.397
75351W        W37014  34.061  35.540  13.825
75352W        W37015   2.340   8.273   4.718
75353W        W37016   2.783   5.261   0.454
75354W        W37017  25.146  35.039  10.608
75355W        W37018  33.071  13.212   0.377
75356W        W37019  19.043  28.538   4.289
75357W        W37020  39.938  32.523  10.999
75358W        W37021  14.327  20.035  14.347
75359W        W37022  43.312  37.527   0.875
75360W        W37023  13.765  18.283  12.094
75361W        W37024  43.921  33.913   0.376
75362W        W37025  38.555  31.430  13.322
75363W        W37026  19.560  40.902   1.873
75364W        W37027  28.139  31.032   3.249
75365W        W37028  34.872  43.294  11.513
75366W        W37029   7.789  42.849  10.564
75367W        W37030  17.146  33.612   1.280
75368W        W37031  21.697  29.452   3.335
75369W        W37032  28.025   8.758  10.630
75370W        W37033  25.619  23.541   3.315
75371W        W37034  40.364  25.219  14.813
75372W        W37035  28.518  27.650  10.936
75373W        W37036  28.594  22.205  14.942
75374W        W37037  31.033  24.604   4.798
75375W        W37038  10.845   8.379  11.459
75376W        W37039   4.788   2.819  13.922
75377W        W37040   3.257  16.739   2.180
75378W        W37041  37.941  16.143   2.746
75379W        W37042  25.970  29.086   3.708
75380W        W37043   9.735  38.984   1.864
75381W        W37044  38.868  23.185   2.381
75382W        W37045  15.603  27.534   1.842
75383W        W37046   7.369  31.441   4.144
75384W        W37047  42.300  41.798  12.831
75385W        W37048  17.201  18.259  14.406
75386W        W37049  33.553  33.406   2.795
75387W        W37050  30.133   9.220   3.338
75388W        W37051  13.812  12.787   4.314
75389W        W37052  21.132  33.607   3.833
75390W        W37053  23.725  42.840  12.569
75391W        W37054  27.990  11.827  10.623
75392W        W37055  25.012  34.419  10.077
75393W        W37056   1.370   1.433   3.811
75394W        W37057   4.826  37.350   2.340
75395W        W37058  36.515  15.152   2.666
75396W        W37059  41.961  26.546  10.080
75397W        W37060  14.182  33.570   3.793
75398W        W37061  33.501  20.523  13.362
75399W        W37062  32.022   2.895  11.473
75400W        W37063   1.384  23.011  12.379
75401W        W37064   0.929  36.894   0.324
75402W        W37065  15.201   1.808   1.798
75403W        W37066   3.401  15.761  11.371
75404W        W37067  35.477  19.604   4.734
75405W        W37068  24.702  15.143   0.315
75406W        W37069  31.553  44.767  12.039
75407W        W37070  28.966  40.444  14.434
75408W        W37071  13.270  21.128   4.149
75409W        W37072   4.402   5.374  14.026
75410W        W37073  26.618  37.407  14.494
75411W        W37074   7.249  10.274  13.883
75412W        W37075  18.789  38.963   4.147
75413W        W37076   9.679  38.960  12.949
75414W        W37077  12.313   2.373  13.438
75415W        W37078   7.197  10.778   2.785
75416W        W37079   0.342  36.527  14.841
75417W        W37080   6.702  12.766  11.003
75418W        W37081  11.159   4.402  12.559
75419W        W37082  33.123   3.434  11.060
75420W        W37083  21.179  43.867  12.045
75421W        W37084  22.142  14.288   5.295
75422W        W37085   8.759  12.153   4.135
75423W        W37086  19.048   2.246   4.274
75424W        W37087   4.363  37.571   4.619
75425W        W37088  32.485   8.784  14.411
75426W        W37089   5.881  11.297   2.764
75427W        W37090   5.354   4.861  14.440
75428W        W37091  35.019   5.766  11.523
75429W        W37092  13.794  44.941   4.604
75430W        W37093  26.557  16.712  11.521
75431W        W37094  32.450   6.253   5.170
75432W        W37095  40.408  29.994  14.290
75433W        W37096  38.903  25.976   1.444
75434W        W37097   3.801   9.840  10.890
75435W        W37098  33.550  10.846   1.778
75436W        W37099  20.235  23.491   3.725
75437W        W37100  30.573  31.603   0.322
75438W        W37101  31.048  28.167   0.368
75439W        W37102  25.532   8.363  11.497
75440W        W37103  44.801  19.548   2.330
75441W        W37104  35.068  39.968   2.704
75442W        W37105  30.102  25.148  12.982
75443W        W37106  13.747  12.846  12.445
75444W        W37107  23.568   7.675   1.935
75445W        W37108   7.806  29.484  10.474
75446W        W37109  23.526   7.672  13.515
75447W        W37110   6.412  25.546   0.928
75448W        W37111  33.511  40.878  14.302
75449W        W37112  39.396  11.672  13.000
75450W        W37113   4.912  24.211   2.394
75451W        W37114   6.741  30.907   1.719
75452W        W37115  23.048  27.065   2.286
75453W        W37116  26.572  15.148   3.308
75454W        W37117  24.040  23.129   5.301
75455W        W37118  19.285   9.806  14.282
75456W        W37119  24.219  28.551   1.704
75457W        W37120   0.900   3.776  13.063
75458W        W37121  11.370   1.258  12.095
75459W        W37122  13.230  41.375   2.795
75460W        W37123   3.249   3.875   4.315
75461W        W37124  21.546  41.039   4.118
75462W        W37125  32.612  11.311   1.286
75463W        W37126  28.500  22.569  12.958
75464W        W37127  25.079  18.624   3.313
75465W        W37128  23.146  20.226  11.980
75466W        W37129  25.479  27.521  12.492
75467W        W37130  21.631  39.950   1.261
75468W        W37131  38.860   8.677   4.719
75469W        W37132  35.540  40.978   0.316
75470W        W37133  26.638  15.141  14.773
75471W        W37134  28.619   4.800   2.674
75472W        W37135  26.505  28.535  13.939
75473W        W37136   9.793  18.294  12.893
75474W        W37137  26.174  19.776   0.807
75475W        W37138  42.864  44.886  13.954
75476W        W37139  37.988   7.238  10.957
75477W        W37140  41.881   2.823  14.335
75478W        W37141   2.447  43.976  10.916
75479W        W37142  27.629   4.876   2.271
75480W        W37143  40.321  40.015  12.059
75481W        W37144  23.726  33.119   0.932
75482W        W37145   4.710  37.533   4.307
75483W        W37146  11.284   4.801  11.473
75484W        W37147  25.984  35.868   0.468
75485W        W37148  35.500   9.831   5.168
75486W        W37149  44.942  18.155  12.937
75487W        W37150  36.977   8.388   1.262
75488W        W37151  42.956   0.749  14.954
75489W        W37152   2.838  39.348  11.470
75490W        W37153  38.001   5.705  12.862
75491W        W37154  42.854  27.961   3.299
75492W        W37155  18.253  43.928  13.511
75493W        W37156  12.342  34.551   1.905
75494W        W37157  10.346  39.367  13.970
75495W        W37158  14.666  15.104  10.532
75496W        W37159  10.635  40.485   4.190
75497W        W37160  43.476  25.164  11.916
75498W        W37161   3.910  35.372   4.205
75499W        W37162   5.788  23.718   4.804
75500W        W37163   9.198  25.616   2.317
75501W        W37164  20.158  43.999   3.231
75502W        W37165   7.730   4.365   2.799
75503W        W37166   3.400  35.527  14.514
75504W        W37167  17.565  41.372  14.505
75505W        W37168  31.418  44.281   1.818
75506W        W37169  12.137   1.791  13.547
75507W        W37170  25.536  25.584   3.683
75508W        W37171   1.947  38.340   3.831
75509W        W37172  27.466   9.750  12.499
75510W        W37173  24.612  10.647  11.977
75511W        W37174  43.287  14.738   2.275
75512W        W37175  40.997   5.760  14.369
75513W        W37176  34.103  22.181   3.796
75514W        W37177  10.831   6.723  11.102
75515W        W37178  10.373  28.468   3.196
75516W        W37179  35.555  40.022  13.407
75517W        W37180  29.932  16.724  14.419
75518W        W37181  39.018  17.254  14.472
75519W        W37182  20.035   0.450   4.601
75520W        W37183  37.990  17.749   3.337
75521W        W37184  17.269  23.505   2.389
75522W        W37185  42.429   4.299  14.313
75523W        W37186  19.276  28.457   0.819
75524W        W37187  24.644  41.417  14.877
75525W        W37188  41.949   1.402  14.963
75526W        W37189  23.237   2.241   1.236
75527W        W37190  20.230  25.622  12.374
75528W        W37191  38.071  28.085   2.238
75529W        W37192  38.927   9.810  10.897
75530W        W37193  12.650  43.460   1.726
75531W        W37194  44.950  18.732   3.377
75532W        W37195  32.552  38.359   1.400
75533W        W37196  30.412  23.194  13.908
75534W        W37197   1.775  20.048   4.119
75535W        W37198  17.227  39.424  13.374
75536W        W37199  18.721  18.698  10.469
75537W        W37200  11.858  43.021   1.415
75538W        W37201  33.884  36.507  14.855
75539W        W37202  22.708  22.664  14.880
75540W        W37203   2.369  30.638   2.743
75541W        W37204   0.979  33.064  14.947
75542W        W37205  33.484  38.865   4.300
75543W        W37206  28.140  13.793  10.633
75544W        W37207   8.306  12.851  14.463
75545W        W37208   4.944  14.207  14.404
75546W        W37209   1.908  16.675   2.343
75547W        W37210  38.075  28.935  12.410
75548W        W37211  22.141  29.148  12.384
75549W        W37212  36.527   7.391  13.024
75550W        W37213  27.088  37.514  13.448
75551W        W37214  31.109  44.473   0.731
75552W        W37215  25.508  27.604  12.954
75553W        W37216  14.724  18.712   3.198
75554W        W37217   1.960   2.461  13.011
75555W        W37218   7.406   9.877   4.830
75556W        W37219  15.223  17.288   4.264
75557W        W37220  37.581  36.983   4.205
75558W        W37221   7.257  32.556   2.335
75559W        W37222   8.883  28.593  14.007
75560W        W37223  21.558  35.027  12.974
75561W        W37224  25.624  38.434   1.713
75562W        W37225  15.098  12.725  13.828
75563W        W37226   9.320  43.327   1.332
75564W        W37227   6.346   0.408  14.380
75565W        W37228  25.041  34.087   2.243
75566W        W37229   0.953  37.465   4.225
75567W        W37230  25.590   7.188  12.995
75568W        W37231  12.743  40.029   0.288
75569W        W37232   3.291  26.107  11.519
75570W        W37233  33.592  23.157  10.597
75571W        W37234  43.307  34.938  12.557
75572W        W37235  40.810  43.020  12.496
75573W        W37236  38.484   0.315   3.355
75574W        W37237  33.566   0.381   5.236
75575W        W37238  30.080  14.687   2.271
75576W        W37239  36.358  41.433   1.395
75577W        W37240  28.086  20.171   4.659
75578W        W37241   6.206  13.614   0.888
75579W        W37242  42.349  23.664  14.950
75580W        W37243  20.033  41.385  13.959
75581W        W37244  29.982  43.814   2.836
75582W        W37245  10.811   0.977  10.970
75583W        W37246  23.071   9.260  14.403
75584W        W37247  41.043  20.549  12.824
75585W        W37248   7.303  31.994   1.782
75586W        W37249  41.414  12.831  13.800
75587W        W37250  25.212  26.666  14.977
75588W        W37251  11.813  41.910   0.280
75589W        W37252  32.107  35.372   1.701
75590W        W37253   9.295  36.004  13.944
75591W        W37254  32.936  12.181   2.414
75592W        W37255  12.764   5.724   1.375
75593W        W37256  39.954   1.818   1.298
75594W        W37257  31.556  19.238  10.459
75595W        W37258  38.031  12.794   3.685
75596W        W37259   7.276   9.233  12.528
75597W        W37260  11.359  29.618   4.173
75598W        W37261  25.708  38.071   1.311
75599W        W37262   5.849  33.596  12.026
75600W        W37263  13.143  32.462   1.822
75601W        W37264  18.108  43.409  14.773
75602W        W37265  13.225  41.296  14.374
75603W        W37266  34.891  40.405   3.848
75604W        W37267  33.418  30.959   2.876
75605W        W37268   8.257  15.686   0.353
75606W        W37269  18.566   8.675   0.414
75607W        W37270  25.063  42.377   2.679
75608W        W37271  36.850  13.270  11.602
75609W        W37272  16.621  37.989   5.311
75610W        W37273   5.759  30.956   0.369
75611W        W37274   2.836  34.596   3.191
75612W        W37275  36.066  25.653   3.763
75613W        W37276  28.012  27.609  11.371
75614W        W37277  24.479  24.068   5.763
75615W        W37278  13.819  38.888   1.752
75616W        W37279  41.485  24.523  10.972
75617W        W37280  38.027  43.434  10.634
75618W        W37281  23.190  13.660   1.448
75619W        W37282  32.009  26.503  10.543
75620W        W37283  27.603   1.401   1.274
75621W        W37284  25.021   3.718  13.345
75622W        W37285   2.420  38.491   1.899
75623W        W37286  29.099  12.775  13.030
75624W        W37287  41.849  39.358  14.457
75625W        W37288  12.280   5.785   1.245
75626W        W37289  24.621  10.153   0.755
75627W        W37290  17.634  29.490  12.030
75628W        W37291  36.013   1.925   4.191
75629W        W37292  13.729  15.803  10.514
75630W        W37293   2.875   6.344   1.761
75631W        W37294  23.212  10.363   1.828
75632W        W37295  15.232  22.233  14.381
75633W        W37296   0.865  10.329   0.268
75634W        W37297  39.485  12.205  12.014
75635W        W37298  40.336  11.248  12.443
75636W        W37299  10.290  31.103   4.297
75637W        W37300   7.782  30.422   3.290
75638W        W37301  40.043   6.730   2.205
75639W        W37302  23.696  38.561   4.203
75640W        W37303   5.265  17.257   1.370
75641W        W37304  10.269  10.251   3.246
75642W        W37305  10.365  24.572  10.612
75643W        W37306   8.738  28.673   3.692
75644W        W37307  29.492  20.121  13.307
75645W        W37308  15.313  21.071  14.371
75646W        W37309  11.809  30.441   5.290
75647W        W37310  10.350   0.413   1.452
75648W        W37311  36.388  31.141   1.302
75649W        W37312  12.633  28.555  14.823
75650W        W37313   4.894  31.630  12.883
75651W        W37314  20.141   0.862   1.326
75652W        W37315  41.929  10.758  13.976
75653W        W37316  15.673  18.143  14.961
75654W        W37317  41.320  31.561   1.822
75655W        W37318   1.251  12.161  10.503
75656W        W37319  29.568  22.711  10.573
75657W        W37320  40.462   3.870   1.874
75658W        W37321  36.884  15.586  14.792
75659W        W37322  14.229  22.534   1.295
75660W        W37323  27.105  22.087   2.247
75661W        W37324  25.044  37.889   4.222
75662W        W37325  23.493  15.198   1.788
75663W        W37326  44.353   6.803   3.164
75664W        W37327  22.223  20.270   2.780
75665W        W37328  40.356   3.811  13.314
75666W        W37329  16.593  11.237   3.704
75667W        W37330   3.270  13.193  12.853
75668W        W37331  32.437   4.840   3.190
75669W        W37332  33.012  38.841  13.977
75670W        W37333   8.721  20.261  10.980
75671W        W37334  44.281  27.532   2.359
75672W        W37335  34.102  42.918   2.810
75673W        W37336  30.448  19.223   2.816
75674W        W37337  44.441  25.582   0.341
75675W        W37338   1.299  44.387  13.361
75676W        W37339  29.138   6.294  13.012
75677W        W37340  30.053  39.879  10.084
75678W        W37341  36.407  43.998  13.875
75679W        W37342   3.321  22.063   2.750
75680W        W37343   6.770  41.485   3.321
75681W        W37344  32.494  33.566   4.601
75682W        W37345  18.565  16.718   2.265
75683W        W37346  26.611  17.274   3.224
75684W        W37347   2.352  17.287  11.875
75685W        W37348  40.950  19.547  14.006
75686W        W37349  31.544  42.887   4.777
75687W        W37350   5.396   8.828  13.846
75688W        W37351   6.261  29.599   5.321
75689W        W37352   6.726  44.845   3.728
75690W        W37353  35.581   4.427   3.322
75691W        W37354   6.684  44.285   4.684
75692W        W37355  15.723  42.416   0.458
75693W        W37356   6.828  19.672   4.630
75694W        W37357  19.166   8.802   4.814
75695W        W37358  38.985  18.725  10.044
75696W        W37359  41.369   4.311   3.859
75697W        W37360   3.385  22.685   3.632
75698W        W37361  40.308  40.431  13.348
75699W        W37362  40.420  30.969  12.024
75700W        W37363  31.499  17.209  10.636
75701W        W37364  40.028  24.230  11.916
75702W        W37365  29.456  27.526  11.123
75703W        W37366   5.272  34.980   3.729
75704W        W37367   2.912  31.090  11.462
75705W        W37368  12.795  19.678   3.212
75706W        W37369  27.162  17.781   4.269
75707W        W37370   4.286  30.571  10.507
75708W        W37371   8.850  21.201   1.790
75709W        W37372  17.802  43.485   2.329
75710W        W37373  43.841  31.477  14.516
75711W        W37374  37.072  25.664   1.229
75712W        W37375  42.891  30.929  10.531
75713W        W37376  13.260  29.668  10.040
75714W        W37377  13.130  18.740  11.583
75715W        W37378  18.242   8.724  11.456
75716W        W37379  12.167  24.695  13.532
75717W        W37380  22.107  37.446  14.301
75718W        W37381  10.244  11.183  10.894
75719W        W37382  37.537  28.969   4.662
75720W        W37383  14.319   2.830  10.530
75721W        W37384  36.454  19.636  10.480
75722W        W37385  18.212   4.424  14.382
75723W        W37386  12.321  28.598  12.908
75724W        W37387   7.299   6.689  13.533
75725W        W37388  28.183  15.651  12.920
75726W        W37389  34.904  31.438  13.533
75727W        W37390   9.277  32.899   3.331
75728W        W37391  21.723  31.538   0.331
75729W        W37392  11.867  14.604   0.403
75730W        W37393   1.249  24.548  11.980
75731W        W37394  36.511  42.786   0.790
75732W        W37395  35.028  34.527   2.348
75733W        W37396   0.978   4.906  14.400
75734W        W37397  30.484  20.728  11.002
75735W        W37398   5.754  28.080   0.271
75736W        W37399  31.959  12.321   4.131
75737W        W37400  29.929  17.560  13.877
75738W        W37401   8.859  24.608  14.978
75739W        W37402  20.131  27.669  13.390
75740W        W37403  13.184  27.639  13.940
75741W        W37404  15.296  20.207  13.999
75742W        W37405  17.307   9.353  12.978
75743W        W37406  23.557  36.098   1.694
75744W        W37407  24.546   2.458  13.959
75745W        W37408   1.307  20.753   0.967
75746W        W37409   6.807  29.459   4.197
75747W        W37410  36.922   4.331  14.760
75748W        W37411  41.904  32.391  10.537
75749W        W37412  39.816   7.351  11.593
75750W        W37413  30.654  44.502  14.457
75751W        W37414  12.235  31.023   4.247
75752W        W37415  12.735   8.201  12.021
75753W        W37416  34.539  39.036  11.467
75754W        W37417  27.945  15.654   5.255
75755W        W37418  33.896  44.774   1.770
75756W        W37419  25.511   1.914  11.863
75757W        W37420  28.031  15.272  13.004
75758W        W37421  39.469  10.380  14.357
75759W        W37422  33.415   0.913   1.245
75760W        W37423  13.740  24.100  13.902
75761W        W37424  12.701  23.162   3.387
75762W        W37425  27.993  33.941  11.466
75763W        W37426  12.824  32.118   1.424
75764W        W37427  12.746  40.545   1.872
75765W        W37428  27.164  21.121  13.870
75766W        W37429  21.589   9.673  10.534
75767W        W37430  28.173  36.539   4.773
75768W        W37431  28.444  29.154  13.401
75769W        W37432  21.064   6.780   0.761
75770W        W37433  40.809  34.537   1.213
75771W        W37434  43.489  26.613   2.746
75772W        W37435  13.153   6.183  11.568
75773W        W37436  41.972   4.860  13.966
75774W        W37437   7.834   0.474  14.289
75775W        W37438  12.251   6.710  10.601
75776W        W37439  31.486  41.376   3.278
75777W        W37440   7.355  12.308  13.929
75778W        W37441  13.730  41.428  12.339
75779W        W37442   5.714   1.243  11.908
75780W        W37443   9.296  15.631  10.074
75781W        W37444  36.857  10.317  14.327
75782W        W37445  28.460  33.941  14.914
75783W        W37446  29.650  38.057  13.914
75784W        W37447  13.239   3.407   4.660
75785W        W37448   6.789  35.106   2.196
75786W        W37449  42.411   0.440   2.412
75787W        W37450  44.339  15.658   4.773
75788W        W37451   4.801  10.159   1.795
75789W        W37452  32.909  26.104   0.364
75790W        W37453  16.224  29.551  11.499
75791W        W37454   6.773  44.448  13.877
75792W        W37455  31.911  11.750   2.713
75793W        W37456  18.136  19.253   2.211
75794W        W37457   1.766   4.738   4.260
75795W        W37458  18.616  18.201   2.224
75796W        W37459  24.016  13.254  14.447
75797W        W37460  34.902   8.197   4.222
75798W        W37461  40.517  25.565  10.536
75799W        W37462  42.283  24.693   0.481
75800W        W37463   9.377   1.936  10.105
75801W        W37464  15.105   2.319   4.750
75802W        W37465  43.985  44.433  13.376
75803W        W37466  26.644  33.513   0.957
75804W        W37467   5.702  41.437   0.387
75805W        W37468  34.499  33.618  11.574
75806W        W37469  35.967   6.245   2.686
75807W        W37470   6.364  39.054   5.167
75808W        W37471  36.992  25.967  11.965
75809W        W37472   8.197  19.538  13.842
75810W        W37473  34.498   4.892  10.561
75811W        W37474  39.360  33.530   4.253
75812W        W37475  37.485  27.539   1.303
75813W        W37476  17.784  42.418  12.368
75814W        W37477  18.768   7.192  11.458
75815W        W37478   7.848  38.002   3.314
75816W        W37479   8.696  17.612   3.855
75817W        W37480  27.484  35.533   2.814
75818W        W37481  15.732   0.420  13.417
75819W        W37482  14.292  36.931   3.283
75820W        W37483  34.495  10.261  12.386
75821W        W37484  25.981  24.530  14.790
75822W        W37485  28.556   5.921   4.807
75823W        W37486  31.637   1.761   4.272
75824W        W37487  36.432  37.543   3.282
75825W        W37488   5.769  14.681  11.982
75826W        W37489  26.620  21.177   2.201
75827W        W37490   0.383  44.456  13.896
75828W        W37491  32.981  11.253  10.944
75829W        W37492  16.294  39.891  10.898
75830W        W37493  41.387  39.959   0.768
75831W        W37494   3.791   1.977   4.718
75832W        W37495  34.983  41.346   9.983
75833W        W37496  37.361  30.018  13.967
75834W        W37497   5.845  10.211  13.380
75835W        W37498  24.065  15.144   3.866
75836W        W37499   5.216  28.532  14.843
75837W        W37500  16.570   2.933   3.707
75838W        W37501  12.245  36.487  14.779
75839W        W37502   4.258  18.112   4.744
75840W        W37503  25.015   4.328   1.867
75841W        W37504  11.259   5.232   4.601
75842W        W37505  28.456  12.200  11.479
75843W        W37506  40.880  16.719   5.648
75844W        W37507  33.448  41.890  12.971
75845W        W37508  41.885  24.192  13.531
75846W        W37509   4.278  21.057  12.433
75847W        W37510  25.653   5.708   3.844
75848W        W37511  28.610  12.322  11.940
75849W        W37512   4.826  39.514  13.516
75850W        W37513  16.074  18.278   5.316
75851W        W37514  11.151  19.590  11.111
75852W        W37515  33.463  21.676   2.828
75853W        W37516  26.593  40.984  13.981
75854W        W37517  10.878  11.644  14.837
75855W        W37518  35.547  38.050   0.915
75856W        W37519  23.625  18.673   2.221
75857W        W37520  22.628  41.463   1.821
75858W        W37521  19.735   7.907   0.365
75859W        W37522  37.857   5.706   4.791
75860W        W37523  44.419  32.069  11.008
75861W        W37524  27.612  23.078  11.123
75862W        W37525  19.710   8.308  13.454
75863W        W37526   1.786  26.482   3.739
75864W        W37527  35.100  36.482  11.608
75865W        W37528  41.819  20.039  10.965
75866W        W37529   9.654  18.704   1.334
75867W        W37530  38.563  30.981  12.902
75868W        W37531  43.962  23.170   3.378
75869W        W37532  44.264  32.497  11.419
75870W        W37533  36.392  22.189   0.335
75871W        W37534  24.101  22.746   2.295
75872W        W37535  30.486  24.589   3.861
75873W        W37536  31.920  30.429  12.558
75874W        W37537  26.496   4.928  12.028
75875W        W37538   6.834   2.863  12.518
75876W        W37539  13.194  12.671  10.438
75877W        W37540  37.531  24.204  10.575
75878W        W37541  10.768  18.158  14.978
75879W        W37542  17.788  27.546   1.422
75880W        W37543  12.848  21.746   4.276
75881W        W37544  10.366  10.855   3.652
75882W        W37545  43.831  21.217   1.300
75883W        W37546  24.168   7.232  13.031
75884W        W37547  11.832  20.095   3.792
75885W        W37548  31.417  42.985  10.435
75886W        W37549  22.039  31.638   2.331
75887W        W37550   1.348  14.785   1.249
75888W        W37551  26.673  33.112   1.747
75889W        W37552  39.545   1.431  11.079
75890W        W37553  27.450  32.440  12.065
75891W        W37554  33.556  14.776   3.769
75892W        W37555  33.597  25.161  14.281
75893W        W37556  30.014  12.797   1.709
75894W        W37557   3.836   5.352  13.861
75895W        W37558  27.091  25.551  12.431
75896W        W37559  27.622  30.994   0.764
75897W        W37560  43.449  32.521   2.328
75898W        W37561  13.623  25.101   3.761
75899W        W37562  40.835  22.697  13.043
75900W        W37563  25.971  23.659  13.374
75901W        W37564  10.722   6.907   3.327
75902W        W37565  10.199  25.099   3.847
75903W        W37566  11.770  33.585  14.379
75904W        W37567  25.976   7.865  13.861
75905W        W37568  24.716  17.699   1.373
75906W        W37569  14.251   1.753  12.882
75907W        W37570  10.781  39.869  10.900
75908W        W37571  29.159  13.728   2.702
75909W        W37572  21.200  20.154  14.001
75910W        W37573  22.195  22.181  13.484
75911W        W37574  12.251  11.159  10.947
75912W        W37575  17.238  23.114   3.798
75913W        W37576  40.048  36.502  10.498
75914W        W37577  10.172   9.302   0.846
75915W        W37578   3.343  21.218  10.089
75916W        W37579  22.588  21.680   1.928
75917W        W37580  28.444  25.565   0.248
75918W        W37581   0.428   8.403   1.371
75919W        W37582   7.320  19.677   4.774
75920W        W37583  26.067  41.885   5.158
75921W        W37584  18.103  17.266   1.278
75922W        W37585  12.236  32.469  12.046
75923W        W37586  13.715   6.225   1.862
75924W        W37587  36.543   7.758   1.284
75925W        W37588  21.260  16.103  10.560
75926W        W37589  21.144  29.555   0.340
75927W        W37590   3.266  25.525  10.990
75928W        W37591  24.531   6.309  10.476
75929W        W37592  25.550   5.871  13.056
75930W        W37593   3.731  39.836  13.503
75931W        W37594  31.601   0.903   4.204
75932W        W37595  39.866  38.021  14.977
75933W        W37596  32.097  17.611  11.383
75934W        W37597  22.058  21.175   0.967
75935W        W37598  37.975  17.148  14.505
75936W        W37599  21.644  32.135  12.976
75937W        W37600   8.249  33.404   3.726
75938W        W37601   8.300  43.514  12.438
75939W        W37602  39.438  30.620  14.895
75940W        W37603  25.597   4.431  11.106
75941W        W37604  16.270  37.407   1.367
75942W        W37605  24.638   8.233   1.257
75943W        W37606  39.410  19.145  10.478
75944W        W37607  41.510  23.539  11.442
75945W        W37608  38.856  16.172  13.538
75946W        W37609  26.148  24.544   0.767
75947W        W37610  13.156  28.064  13.482
75948W        W37611  28.616  25.051   0.891
75949W        W37612  39.461  11.352  14.807
75950W        W37613  17.196  26.204  13.342
75951W        W37614   6.738   7.876  10.521
75952W        W37615  42.432  36.350   0.941
75953W        W37616   7.729  43.823  14.402
75954W        W37617  16.288   8.839  12.849
75955W        W37618  28.140  25.196   0.809
75956W        W37619  11.326  40.319   4.650
75957W        W37620  12.267  19.204  12.442
75958W        W37621   5.787  41.498   0.891
75959W        W37622  44.795  19.241   3.194
75960W        W37623  22.092  17.161  11.872
75961W        W37624  12.184   0.824   1.255
75962W        W37625  36.525  14.824  11.546
75963W        W37626   0.804  15.607  13.010
75964W        W37627   8.781  36.404  13.957
75965W        W37628   1.953  22.100  14.956
75966W        W37629  20.546  38.926   1.213
75967W        W37630   1.355   1.414  14.511
75968W        W37631  44.005  38.000   2.251
75969W        W37632   8.719  14.229   2.818
75970W        W37633   9.238  18.225   0.424
75971W        W37634  37.547  29.945   0.783
75972W        W37635  39.361   1.424   1.389
75973W        W37636  40.019  27.153  11.887
75974W        W37637  42.338   7.298  11.570
75975W        W37638  25.581  17.578   3.208
75976W        W37639  14.589  18.196   4.187
75977W        W37640  37.013  32.509   1.244
75978W        W37641   6.428  28.487  12.479
75979W        W37642   4.249  34.528  11.552
75980W        W37643  11.696  21.162  13.914
75981W        W37644  23.118  12.714  11.110
75982W        W37645  15.811  32.483   4.256
75983W        W37646  27.637  12.792  10.435
75984W        W37647  22.034  34.924   3.314
75985W        W37648  32.562  11.790  11.870
75986W        W37649  36.900   0.406  10.904
75987W        W37650  42.341  39.407   1.753
75988W        W37651  24.163  36.437  13.402
75989W        W37652  35.086   5.850   1.355
75990W        W37653   3.854  37.536   2.234
75991W        W37654  16.754  41.372  11.121
75992W        W37655  12.852  11.205   0.822
75993W        W37656   0.748  19.610   3.783
75994W        W37657  40.948  28.994  10.966
75995W        W37658  41.972  22.172  12.440
75996W        W37659  39.408  24.974   2.857
75997W        W37660  41.396   8.765   1.286
75998W        W37661   4.801  32.440   3.870
75999W        W37662  14.669   0.745  11.978
76000W        W37663  44.829  30.642  14.851
76001W        W37664  44.270  28.933   0.297
76002W        W37665  10.145   1.940  14.493
76003W        W37666   7.225  39.881   3.763
76004W        W37667  35.102   0.767   2.190
76005W        W37668  40.857  31.448  13.880
76006W        W37669  20.577   2.466  11.015
76007W        W37670  20.082  27.050  11.410
76008W        W37671  33.552  27.942   4.617
76009W        W37672  37.560  15.683  13.059
76010W        W37673   4.257  22.703  14.934
76011W        W37674  25.157  11.129   1.854
76012W        W37675   1.810  43.293  13.814
76013W        W37676  37.013   6.903  14.891
76014W        W37677  11.371   0.836   3.720
76015W        W37678  22.593   9.202   3.296
76016W        W37679  10.222  36.512  12.349
76017W        W37680   0.936  37.363   2.392
76018W        W37681   1.404  17.720  13.924
76019W        W37682  27.059   1.264   2.227
76020W        W37683  16.098  38.960   2.179
76021W        W37684   3.309  36.922   1.706
76022W        W37685  13.157  38.942   1.915
76023W        W37686  33.899  10.145   1.763
76024W        W37687  22.607   3.817   4.307
76025W        W37688  10.822  41.025  14.028
76026W        W37689   4.359  25.066   3.696
76027W        W37690   4.784  15.742   3.740
76028W        W37691  19.087   1.901  14.984
76029W        W37692  12.639  35.077  10.601
76030W        W37693   2.301  20.258   4.230
76031W        W37694  33.386  25.681  12.019
76032W        W37695  29.114  39.327  12.950
76033W        W37696  37.406  17.106   3.367
76034W        W37697   3.941   8.674   2.778
76035W        W37698  10.808  26.061  10.566
76036W        W37699  43.496  43.496   1.405
76037W        W37700  41.489   5.741  11.862
76038W        W37701  35.602  17.568  10.512
76039W        W37702  33.892  19.145   1.449
76040W        W37703   1.810  42.822  12.851
76041W        W37704  24.065  12.350  10.632
76042W        W37705  11.145   8.252   2.253
76043W        W37706  38.896   1.820   4.769
76044W        W37707  22.103  42.991   4.317
76045W        W37708   8.198   0.352   0.848
76046W        W37709  28.999  26.051   3.278
76047W        W37710  34.986  30.640   4.666
76048W        W37711   3.806  16.800   2.269
76049W        W37712  40.442  21.638   0.318
76050W        W37713  41.371  16.218  12.434
76051W        W37714  40.998   8.710  14.348
76052W        W37715   7.885  44.813  11.467
76053W        W37716  26.078  22.530   0.368
76054W        W37717  42.438  11.709  11.559
76055W        W37718  37.952   3.748  11.064
76056W        W37719   5.342  13.712  13.800
76057W        W37720  20.574   9.734   2.670
76058W        W37721   5.322  20.049   1.283
76059W        W37722  25.666  21.620  13.864
76060W        W37723  15.579  18.629   1.379
76061W        W37724  35.431  38.387   1.922
76062W        W37725  24.504  36.977   3.772
76063W        W37726  42.380   0.946   2.678
76064W        W37727  24.627  39.985   1.709
76065W        W37728  26.616  10.641  12.446
76066W        W37729  42.350  17.131   4.346
76067W        W37730   2.822  42.823   4.212
76068W        W37731  14.198   3.854   2.187
76069W        W37732  43.917   7.840  13.466
76070W        W37733   3.272  33.108   3.670
76071W        W37734  16.727  39.893  11.517
76072W        W37735  41.331  37.571   2.807
76073W        W37736  28.557  44.335   1.403
76074W        W37737  31.035  44.934   0.779
76075W        W37738  23.058  20.155  13.858
76076W        W37739  12.695   6.733  11.007
76077W        W37740  38.050  42.878  14.498
76078W        W37741  14.203   7.881  12.838
76079W        W37742  21.166  12.777  10.074
76080W        W37743  25.053  44.839   0.270
76081W        W37744   6.402  17.117   1.306
76082W        W37745  37.081   5.828  14.809
76083W        W37746   9.775  42.354  14.325
76084W        W37747  37.338   3.380  13.946
76085W        W37748  20.532  17.569  11.555
76086W        W37749  37.086  35.510  12.464
76087W        W37750  17.655  19.585   0.380
76088W        W37751  29.047  29.998  10.963
76089W        W37752  20.184  33.904   3.282
76090W        W37753   0.480  30.514  11.903
76091W        W37754  13.633  44.888  11.960
76092W        W37755  33.876  17.607   3.204
76093W        W37756  26.032  14.767   4.137
76094W        W37757  17.619   0.490  11.437
76095W        W37758  41.528  24.547   3.366
76096W        W37759  31.418  25.063   1.873
76097W        W37760  23.665  18.584  12.066
76098W        W37761   2.451  35.546  14.918
76099W        W37762  30.630  33.989   2.319
76100W        W37763   1.470  21.529  13.811
76101W        W37764   3.872  20.117   0.728
76102W        W37765  15.633  25.000  14.822
76103W        W37766   8.751  27.506   0.452
76104W        W37767  29.551  21.583   4.703
76105W        W37768  32.422  36.448   2.352
76106W        W37769  24.618  27.462   1.219
76107W        W37770   0.410   4.414  11.003
76108W        W37771  13.721  14.288  12.490
76109W        W37772  21.630   2.342   3.243
76110W        W37773  32.087  41.787   2.331
76111W        W37774  11.164  42.033   0.949
76112W        W37775   3.292  20.593  15.000
76113W        W37776  33.874  14.156  12.884
76114W        W37777   0.472  20.050   1.865
76115W        W37778  32.596   2.856   1.436
76116W        W37779  25.550  28.468   0.755
76117W        W37780  34.083  43.012   1.227
76118W        W37781  21.615  24.079   1.220
76119W        W37782  29.497  41.878   9.570
76120W        W37783   6.781  13.108  10.905
76121W        W37784  37.050  23.705  12.393
76122W        W37785   3.438   7.842  12.096
76123W        W37786  17.093  10.807  14.484
76124W        W37787   1.407   8.771   2.712
76125W        W37788  38.474   4.210  12.525
76126W        W37789  26.952  15.252   2.672
76127W        W37790  16.292  14.158   4.650
76128W        W37791  18.192   1.302   3.170
76129W        W37792  22.102  16.318  14.951
76130W        W37793  35.049  29.558  10.416
76131W        W37794  32.525  11.721   2.732
76132W        W37795   9.377  33.397   1.716
76133W        W37796  23.023   1.972  14.806
76134W        W37797  36.941  14.298  14.839
76135W        W37798  33.995  34.121   0.365
76136W        W37799   9.243  24.164   2.192
76137W        W37800  34.996   2.290   1.771
76138W        W37801  16.250  14.255  14.959
76139W        W37802   1.828  15.149   2.329
76140W        W37803  17.102  26.023  12.879
76141W        W37804  20.665  29.947   0.387
76142W        W37805  30.432  31.123  12.888
76143W        W37806  21.118  28.997  12.069
76144W        W37807   0.840  16.079  13.501
76145W        W37808  19.779  24.138   0.471
76146W        W37809  14.102  28.008  11.106
76147W        W37810  40.987  42.470   2.862
76148W        W37811  22.148  22.590  12.418
76149W        W37812  38.521  32.023   1.901
76150W        W37813   3.819  31.039  12.058
76151W        W37814   1.839  16.177   0.306
76152W        W37815  23.047  33.571  11.995
76153W        W37816  15.812  36.516  13.917
76154W        W37817   4.824  27.532   3.730
76155W        W37818   3.234  32.972  11.899
76156W        W37819   7.887  43.911   1.886
76157W        W37820  30.934  32.008   1.790
76158W        W37821  44.312  30.445  14.898
76159W        W37822  43.902  19.699  12.444
76160W        W37823  39.028  22.201  14.989
76161W        W37824  26.626   3.844   4.679
76162W        W37825  44.387  17.670  13.935
76163W        W37826  15.277   1.424  10.644
76164W        W37827  44.761  16.773  12.835
76165W        W37828  35.995  30.533  14.335
76166W        W37829  40.982  23.702   2.723
76167W        W37830  28.565  42.303  10.591
76168W        W37831  22.644  38.379   3.711
76169W        W37832  26.503   5.702  11.558
76170W        W37833  36.984   7.310  10.159
76171W        W37834  24.148  12.129   1.881
76172W        W37835  31.897   1.402   4.745
76173W        W37836   2.861   1.378  10.897
76174W        W37837   5.361  18.787   1.721
76175W        W37838  15.701  32.407   3.771
76176W        W37839  40.024   5.337   2.418
76177W        W37840  17.722  30.617   1.400
76178W        W37841  18.596  24.997  13.500
76179W        W37842  41.900  23.511  12.840
76180W        W37843  17.066  23.680   4.646
76181W        W37844  44.010  21.103   4.734
76182W        W37845  20.543  15.188  13.515
76183W        W37846  21.696  34.077  13.941
76184W        W37847  25.528  26.652   2.402
76185W        W37848   2.451  23.575   2.789
76186W        W37849  26.543  27.567   0.473
76187W        W37850  35.509  23.624  13.345
76188W        W37851  23.726  24.572   1.359
76189W        W37852  11.343  36.962   4.808
76190W        W37853  38.925   2.419  14.010
76191W        W37854  20.173  41.399   4.783
76192W        W37855  13.700  17.774   2.253
76193W        W37856  20.043   9.268  12.530
76194W        W37857  25.102  20.269   2.405
76195W        W37858  44.882  33.874  14.390
76196W        W37859  42.504  34.488   3.812
76197W        W37860   8.740  21.059   4.161
76198W        W37861  23.610  31.024  14.896
76199W        W37862  39.367  11.166   3.702
76200W        W37863  38.018  23.986  11.475
76201W        W37864  38.937  40.971  14.801
76202W        W37865   9.162  33.065   1.276
76203W        W37866  39.364  13.797   5.678
76204W        W37867  35.941  17.705   2.837
76205W        W37868  42.945  24.525  11.441
76206W        W37869  15.823  24.675   1.854
76207W        W37870  37.355   9.235  10.516
76208W        W37871   9.665  30.544  12.007
76209W        W37872  37.430   1.834   2.821
76210W        W37873   9.213   2.245  12.377
76211W        W37874  42.806  34.453  12.406
76212W        W37875  11.306  28.637  10.553
76213W        W37876  10.847  36.888   3.293
76214W        W37877  37.842   8.819  14.953
76215W        W37878  30.079  18.149   3.355
76216W        W37879  12.625  32.922  11.005
76217W        W37880  34.417  21.021  11.475
76218W        W37881  29.053  25.683  14.436
76219W        W37882  24.592   3.830   1.421
76220W        W37883  32.398  15.694   2.331
76221W        W37884   6.766  16.776   1.222
76222W        W37885  39.008  41.405   0.880
76223W        W37886   5.887   1.841   0.913
76224W        W37887  16.079  41.009  11.579
76225W        W37888  29.979  17.139  11.518
76226W        W37889   7.874  10.367   3.688
76227W        W37890  40.318   5.907  14.871
76228W        W37891  25.607   1.405   4.786
76229W        W37892  11.635  18.104   2.181
76230W        W37893  23.108   3.406  11.562
76231W        W37894  23.497  42.345  14.448
76232W        W37895  33.085  41.015   2.228
76233W        W37896  26.980   6.849  14.343
76234W        W37897   5.387  18.591  11.113
76235W        W37898  17.733  25.105   1.331
76236W        W37899  43.901  43.829  12.466
76237W        W37900  21.088  44.816   4.618
76238W        W37901  12.683  28.146   3.730
76239W        W37902  26.615  30.653  10.503
76240W        W37903  33.077  18.173  13.958
76241W        W37904  31.600  33.526   0.276
76242W        W37905  10.300   1.840   2.412
76243W        W37906  31.549   5.357  14.004
76244W        W37907  33.522  31.121  13.062
76245W        W37908   8.189  13.109   2.316
76246W        W37909  39.951   1.328   0.404
76247W        W37910  44.328  35.512   1.748
76248W        W37911   3.440   5.880   3.655
76249W        W37912   5.348   5.347  13.370
76250W        W37913  14.193  43.000   4.695
76251W        W37914  39.999  34.594  10.637
76252W        W37915  40.876  24.189  14.904
76253W        W37916  10.251   6.192  10.461
76254W        W37917  41.346   7.344   5.222
76255W        W37918  27.041   8.780   0.444
76256W        W37919  10.327  23.540  11.867
76257W        W37920  40.352   9.693   1.743
76258W        W37921   2.427   8.284   2.733
76259W        W37922   0.986   7.386   5.248
76260W        W37923  28.615  22.697   4.223
76261W        W37924  25.648  16.670   1.452
76262W        W37925  10.237   7.317  11.910
76263W        W37926  12.710  11.230  11.020
76264W        W37927   3.253  22.618   2.844
76265W        W37928  37.934   2.911   4.681
76266W        W37929  43.950  21.619  11.859
76267W        W37930   5.795  43.478   3.319
76268W        W37931  22.249  25.008   5.255
76269W        W37932  32.619  22.728   2.720
76270W        W37933  34.410  33.381  12.393
76271W        W37934   5.270  17.179   0.775
76272W        W37935   5.358  43.838   1.361
76273W        W37936   6.844  28.668  12.352
76274W        W37937  11.250   2.306  14.865
76275W        W37938  31.496  15.101  11.858
76276W        W37939  12.650  16.243   4.603
76277W        W37940  23.632  10.742   1.410
76278W        W37941  37.472  38.049  11.053
76279W        W37942  44.490  18.063   0.452
76280W        W37943  20.542   0.943   0.315
76281W        W37944  17.656   1.241   3.236
76282W        W37945  27.079  16.625   1.323
76283W        W37946   4.250  38.832   4.657
76284W        W37947   5.922  28.676  10.590
76285W        W37948  20.712  43.379  12.034
76286W        W37949  44.993  12.127  10.563
76287W        W37950  34.435  11.217  12.841
76288W        W37951   5.829   0.354  14.785
76289W        W37952  25.656  10.324   1.371
76290W        W37953   5.745  41.003  11.895
76291W        W37954  20.177  13.124  14.967
76292W        W37955  13.668  24.529   4.723
76293W        W37956   0.478  14.180  13.850
76294W        W37957  26.089   6.345  13.001
76295W        W37958   6.275   5.253  12.950
76296W        W37959   6.343  37.035  11.425
76297W        W37960  32.608  16.719   3.702
76298W        W37961  41.890  30.548   1.900
76299W        W37962   4.390   7.883   2.284
76300W        W37963  21.043  14.747  12.069
76301W        W37964  13.201  11.701  13.361
76302W        W37965  35.533  10.232  13.418
76303W        W37966  33.915  24.569   4.767
76304W        W37967   6.248  35.408  11.459
76305W        W37968  16.253  41.403  11.082
76306W        W37969   0.777   1.940   4.618
76307W        W37970  41.801  21.147   2.704
76308W        W37971  16.718   8.213   3.284
76309W        W37972  28.959  15.098   2.865
76310W        W37973  17.287  37.021  12.463
76311W        W37974  11.626  34.026   0.900
76312W        W37975  10.364   5.903  14.397
76313W        W37976  27.058  27.180  12.520
76314W        W37977   7.239  34.043  11.881
76315W        W37978  26.601   1.330  13.320
76316W        W37979  12.688  39.032  11.068
76317W        W37980   4.268  28.091  14.817
76318W        W37981  38.905  25.470  12.042
76319W        W37982   2.834  38.860  11.926
76320W        W37983  21.205  20.265   1.277
76321W        W37984  35.089   9.679  12.874
76322W        W37985  37.412  14.718   1.292
76323W        W37986  15.773   4.723   3.324
76324W        W37987  29.426  43.952   0.897
76325W        W37988  40.367  19.695   4.154
76326W        W37989  10.686  35.599   1.792
76327W        W37990  37.916  18.228   4.337
76328W        W37991   4.894  10.863   3.309
76329W        W37992  31.982  35.458  13.518
76330W        W37993  29.159  28.544  12.060
76331W        W37994  19.570   1.337  14.921
76332W        W37995  28.562   4.299  13.413
76333W        W37996  15.680  14.146  11.087
76334W        W37997   7.407  39.984  14.495
76335W        W37998  17.678  32.421  12.074
76336W        W37999  15.734  42.388  12.917
76337W        W38000  35.567  39.362  13.803
76338W        W38001  30.997   2.249  13.311
76339W        W38002  33.876  11.771   3.755
76340W        W38003  10.657  10.343  12.549
76341W        W38004  42.867  13.332  11.410
76342W        W38005  34.519  34.507   2.403
76343W        W38006  43.885  22.119   1.878
76344W        W38007   8.375  31.130  11.925
76345W        W38008  11.236  12.686  10.515
76346W        W38009  12.758  27.109  11.898
76347W        W38010  16.259  27.691  12.965
76348W        W38011  21.580  44.957   0.352
76349W        W38012  11.772   8.755  13.335
76350W        W38013  16.738   0.441  14.004
76351W        W38014  24.661  35.374   1.750
76352W        W38015   5.433  26.086  11.523
76353W        W38016  27.133  13.657   2.792
76354W        W38017  37.383  19.664   4.646
76355W        W38018  12.683   7.696  13.424
76356W        W38019  20.179   7.324   2.784
76357W        W38020  23.040  10.637  12.943
76358NA+    NA+38021  22.239  42.849  11.385
76359NA+    NA+38022  16.570  18.726  14.867
76360NA+    NA+38023  38.999  38.565  11.051
76361NA+    NA+38024  20.667  43.875  13.903
76362NA+    NA+38025   3.779  42.995  14.355
76363NA+    NA+38026  10.214  39.808  10.021
76364NA+    NA+38027  43.498  24.195   0.914
76365NA+    NA+38028  19.056  31.062  13.832
76366NA+    NA+38029  29.101  31.081   2.347
76367NA+    NA+38030  33.505   0.460   0.852
76368NA+    NA+38031  33.487  20.193  14.446
76369NA+    NA+38032  17.621  32.960  14.307
76370NA+    NA+38033   4.297  35.945  13.480
76371NA+    NA+38034  31.014  18.581  11.438
76372NA+    NA+38035  28.638  13.318   1.828
76373NA+    NA+38036  30.057  12.339   0.796
76374NA+    NA+38037  28.070   2.336   4.250
76375NA+    NA+38038  13.683  34.379  13.935
76376NA+    NA+38039  23.553  33.894   0.243
76377NA+    NA+38040  11.131  13.182   2.833
76378NA+    NA+38041  42.782   1.893  10.049
76379NA+    NA+38042  42.475  23.525   3.664
76380NA+    NA+38043   2.425  34.086  14.297
76381NA+    NA+38044   9.368  41.874  13.536
76382NA+    NA+38045   3.422  13.610  12.034
76383NA+    NA+38046   3.254  26.523   2.335
76384NA+    NA+38047  32.952   0.469  11.577
76385NA+    NA+38048   6.826  12.249  11.599
76386NA+    NA+38049  39.448  44.899  13.940
76387NA+    NA+38050  26.203   9.373  12.083
76388NA+    NA+38051  32.544  31.445   1.295
76389NA+    NA+38052  12.660  20.615  13.006
76390NA+    NA+38053  36.439  25.111  10.999
76391NA+    NA+38054   4.748   5.926  14.343
76392NA+    NA+38055   0.758  31.412   2.340
76393NA+    NA+38056  39.899  19.702   4.727
76394NA+    NA+38057  24.579  29.138  11.952
76395NA+    NA+38058  35.038  20.273   4.727
76396NA+    NA+38059  33.483  42.286  12.447
76397NA+    NA+38060  25.614  20.647  14.337
76398NA+    NA+38061   5.768   8.667  12.057
76399NA+    NA+38062  25.478  28.179   2.751
76400NA+    NA+38063  11.359  25.689  11.858
76401NA+    NA+38064  31.054  30.515  13.852
76402NA+    NA+38065   1.247  32.937   2.218
76403NA+    NA+38066   1.849  23.237   1.363
76404NA+    NA+38067  25.987  38.451  11.890
76405NA+    NA+38068  30.001  19.719   0.303
76406NA+    NA+38069  42.957   0.880  13.374
76407NA+    NA+38070  22.536  34.005   4.788
76408NA+    NA+38071  39.826   4.273   4.784
76409NA+    NA+38072  44.838   0.969  12.046
76410NA+    NA+38073  20.274  13.209  13.468
76411NA+    NA+38074  39.461  38.013   0.371
76412NA+    NA+38075   9.857   8.892   4.801
76413NA+    NA+38076   9.696   3.355  12.077
76414NA+    NA+38077  40.304  43.950  11.402
76415NA+    NA+38078  42.831  29.034  12.987
76416NA+    NA+38079  27.986  40.462   1.795
76417NA+    NA+38080   8.163   9.364  12.430
76418NA+    NA+38081  17.235  42.502  11.934
76419NA+    NA+38082  17.602  35.986   4.631
76420NA+    NA+38083  26.199  36.379  13.891
76421NA+    NA+38084  37.051   4.327  12.000
76422NA+    NA+38085  27.506   9.151   2.209
76423NA+    NA+38086  16.089  32.109  12.397
76424NA+    NA+38087   8.163  12.816   0.736
76425NA+    NA+38088  10.165  22.011   0.312
76426NA+    NA+38089  40.502  37.545  14.276
76427NA+    NA+38090  26.661  22.239  12.039
76428NA+    NA+38091  36.008  17.303   0.435
76429NA+    NA+38092  38.553  13.296   4.284
76430NA+    NA+38093  35.386  17.614   1.898
76431NA+    NA+38094  32.008  29.135  12.405
76432NA+    NA+38095  20.034  37.058  12.076
76433NA+    NA+38096  35.404  26.960  13.843
76434NA+    NA+38097  16.298  28.624  12.903
76435NA+    NA+38098  22.601  41.991   2.318
76436NA+    NA+38099  16.155  24.704  12.414
76437NA+    NA+38100   5.764  12.857   3.632
76438NA+    NA+38101   2.409   3.341   1.719
76439NA+    NA+38102  14.691   0.852   3.659
76440NA+    NA+38103  17.209  17.286  11.424
76441NA+    NA+38104  11.814  24.973   0.793
76442NA+    NA+38105  13.770  36.536   0.476
76443NA+    NA+38106  29.101   6.329   1.748
76444NA+    NA+38107  16.116  30.641   2.701
76445NA+    NA+38108  35.907  27.015  14.387
76446NA+    NA+38109   4.895  31.601  11.052
76447NA+    NA+38110  11.360   5.224  13.028
76448NA+    NA+38111  21.020  31.523   4.670
76449NA+    NA+38112  15.085  18.723   2.692
76450NA+    NA+38113  27.531  25.539  13.896
76451NA+    NA+38114  16.787  21.598  12.448
76452NA+    NA+38115   1.251  39.478   1.388
76453NA+    NA+38116  28.617   0.370  12.030
76454NA+    NA+38117  10.256  16.793  12.451
76455NA+    NA+38118  12.166   7.899   3.794
76456NA+    NA+38119   3.726   8.239   1.288
76457NA+    NA+38120  30.622  17.195   1.328
76458NA+    NA+38121  24.116  31.918  13.396
76459NA+    NA+38122  27.080  19.692  13.528
76460NA+    NA+38123  35.954  42.877   1.213
76461NA+    NA+38124   6.794  39.002  11.383
76462NA+    NA+38125   8.776  24.662  13.835
76463NA+    NA+38126  12.163  29.933  14.918
76464NA+    NA+38127  44.865  18.642   3.715
76465NA+    NA+38128  20.598  16.258   1.805
76466NA+    NA+38129   3.317  13.263   1.769
76467NA+    NA+38130  11.142  14.666   0.827
76468NA+    NA+38131  32.443   0.843  11.907
76469NA+    NA+38132  34.484   5.815  11.599
76470NA+    NA+38133  31.419   0.781   1.221
76471NA+    NA+38134  41.384  24.191  12.428
76472NA+    NA+38135  14.682  10.667   2.710
76473NA+    NA+38136  14.810  37.423   2.405
76474NA+    NA+38137  29.447  14.206   2.684
76475NA+    NA+38138  40.443  23.195  14.365
76476NA+    NA+38139  44.927  24.638   0.253
76477NA+    NA+38140  23.162  14.684   1.363
76478NA+    NA+38141  36.391  30.598   0.872
76479NA+    NA+38142  34.974  13.636  10.579
76480NA+    NA+38143  13.624  10.264   4.657
76481NA+    NA+38144   6.753  33.553  11.602
76482NA+    NA+38145  21.109   1.433   0.471
76483NA+    NA+38146  15.818  33.967   4.231
76484NA+    NA+38147  13.280  12.136   1.285
76485NA+    NA+38148  42.418  14.270  11.568
76486NA+    NA+38149  38.411   4.388   1.310
76487NA+    NA+38150  35.955  18.199   3.191
76488NA+    NA+38151   9.739  31.909   2.734
76489NA+    NA+38152  10.334   3.233  10.445
76490NA+    NA+38153  30.127  24.700  11.545
76491NA+    NA+38154  31.560  21.600   0.336
76492NA+    NA+38155  41.879  34.923  13.844
76493NA+    NA+38156  31.450  19.282   4.335
76494NA+    NA+38157  37.978  25.078  13.521
76495NA+    NA+38158  18.640  42.479  14.422
76496NA+    NA+38159  15.314   4.344   2.665
76497NA+    NA+38160  43.843  12.195   3.763
76498NA+    NA+38161  41.924  21.079  12.907
76499NA+    NA+38162  26.669  15.249   1.431
76500NA+    NA+38163  31.588  27.132   3.181
76501NA+    NA+38164   9.709  15.263  12.906
76502NA+    NA+38165  38.552  42.356  11.400
76503NA+    NA+38166  14.257  23.178  12.437
76504NA+    NA+38167  33.581   6.223  11.550
76505NA+    NA+38168   2.310  15.101  13.870
76506NA+    NA+38169  30.981  27.515   1.859
76507NA+    NA+38170  16.762   2.256  12.449
76508NA+    NA+38171  42.311  11.764  12.058
76509NA+    NA+38172  11.167   8.309  10.486
76510NA+    NA+38173  29.927   0.921  10.896
76511NA+    NA+38174   9.295  15.292  12.492
76512NA+    NA+38175   9.271  31.580   2.776
76513NA+    NA+38176  30.078  38.903   0.323
76514NA+    NA+38177   0.933  18.689  12.827
76515NA+    NA+38178  25.607  14.708  14.823
76516NA+    NA+38179  16.194  13.198   2.836
76517NA+    NA+38180  18.084  20.235  10.446
76518NA+    NA+38181   8.234   4.758  14.770
76519NA+    NA+38182  12.772  43.958  11.436
76520NA+    NA+38183  36.565  30.029  14.290
76521NA+    NA+38184  41.533   8.895  14.442
76522NA+    NA+38185  10.278  19.258   1.746
76523NA+    NA+38186  36.949  28.447   1.701
76524NA+    NA+38187   7.858  30.639   0.243
76525NA+    NA+38188  18.552  42.933  10.542
76526NA+    NA+38189  14.592  15.272   1.225
76527NA+    NA+38190  41.938  25.566   3.159
76528NA+    NA+38191  22.624  31.105   4.796
76529NA+    NA+38192  26.467  36.957   1.731
76530NA+    NA+38193  41.009  14.782   2.879
76531NA+    NA+38194  39.028  27.537  14.889
76532NA+    NA+38195   6.426  25.097   4.307
76533NA+    NA+38196   4.901  24.508  12.061
76534NA+    NA+38197  34.891  30.420  11.912
76535NA+    NA+38198  16.601  39.821   1.305
76536NA+    NA+38199  18.612   2.378  12.540
76537NA+    NA+38200   8.385  30.008   4.189
76538NA+    NA+38201   6.243  44.276  10.001
76539NA+    NA+38202  10.873  37.505  11.021
76540NA+    NA+38203  10.850   1.802   3.746
76541NA+    NA+38204   3.848   2.934  10.491
76542NA+    NA+38205  18.675  32.047   2.748
76543NA+    NA+38206  31.460  11.785   2.888
76544NA+    NA+38207  10.271  25.218  12.070
76545NA+    NA+38208  20.237  36.347   0.736
76546NA+    NA+38209  44.807  43.898   1.359
76547NA+    NA+38210  10.843  31.085  12.871
76548NA+    NA+38211  39.849   7.769   1.854
76549NA+    NA+38212  33.000  22.623   3.695
76550NA+    NA+38213  33.596   4.817  12.017
76551NA+    NA+38214  23.503  28.494   0.471
76552NA+    NA+38215  33.950  43.297  11.933
76553NA+    NA+38216  44.820  29.975   4.620
76554NA+    NA+38217  25.555  44.468   9.951
76555NA+    NA+38218  31.145  35.414  13.368
76556NA+    NA+38219   7.722  29.966  11.890
76557NA+    NA+38220  37.500  26.160   2.664
76558NA+    NA+38221  33.622  24.554   5.207
76559NA+    NA+38222   5.907  21.519   1.910
76560NA+    NA+38223  19.075   4.900  10.938
76561NA+    NA+38224   6.830  14.811   0.324
76562NA+    NA+38225  32.544  29.003   4.295
76563NA+    NA+38226  40.847  19.237  14.862
76564NA+    NA+38227  12.161  17.110   4.129
76565NA+    NA+38228  31.540   4.398  13.951
76566NA+    NA+38229  36.937  30.656   4.179
76567NA+    NA+38230  17.258  23.006  12.365
76568NA+    NA+38231  43.398  16.096  11.392
76569NA+    NA+38232  30.925  25.531  13.973
76570NA+    NA+38233   0.397  15.766  12.954
76571NA+    NA+38234  20.242  16.712  11.379
76572NA+    NA+38235  33.401  35.440  12.019
76573NA+    NA+38236  41.517  43.298  13.949
76574NA+    NA+38237  17.177  14.239  11.537
76575NA+    NA+38238   9.710  26.093  14.461
76576NA+    NA+38239  39.061  10.675   4.652
76577NA+    NA+38240  13.298   3.744  11.498
76578NA+    NA+38241   1.860  42.290   2.686
76579NA+    NA+38242   2.772  11.367  11.571
76580NA+    NA+38243  21.630  16.257   5.090
76581NA+    NA+38244  14.108  14.815   1.411
76582NA+    NA+38245  11.638   9.218  11.572
76583NA+    NA+38246  41.464  10.318   1.409
76584NA+    NA+38247  38.558   6.857   3.356
76585NA+    NA+38248  21.136  31.045   1.253
76586NA+    NA+38249  31.510  33.019   4.293
76587NA+    NA+38250  35.422  31.076  14.777
76588NA+    NA+38251  17.101  39.416  13.030
76589NA+    NA+38252  44.783  14.297   0.790
76590NA+    NA+38253  15.805  18.765  11.397
76591NA+    NA+38254   9.155   5.414  10.917
76592NA+    NA+38255  33.510  17.269   3.787
76593NA+    NA+38256  29.626  44.465  11.602
76594NA+    NA+38257   9.858   8.835   0.385
76595NA+    NA+38258  16.658  39.542   2.837
76596NA+    NA+38259  20.702  23.109   0.801
76597NA+    NA+38260   9.199  12.661   2.668
76598NA+    NA+38261  10.376   4.747  14.921
76599NA+    NA+38262  22.102  27.179   2.881
76600NA+    NA+38263  15.147  38.549   3.176
76601NA+    NA+38264  19.123  23.543  12.566
76602NA+    NA+38265  18.738  21.022  12.437
76603NA+    NA+38266  18.575  40.960  10.490
76604NA+    NA+38267   8.809   3.736   4.154
76605NA+    NA+38268   3.740   3.363   2.725
76606NA+    NA+38269  33.067   6.407   9.940
76607NA+    NA+38270   8.401  26.178   3.169
76608NA+    NA+38271   7.676  24.126  12.043
76609NA+    NA+38272  23.516  44.272   2.892
76610NA+    NA+38273  10.367  14.654   2.745
76611NA+    NA+38274  28.439  19.196   4.617
76612NA+    NA+38275  40.525  26.472   2.663
76613NA+    NA+38276  40.309  29.572   2.783
76614NA+    NA+38277  42.465   5.834   5.261
76615NA+    NA+38278  34.455  33.016  13.364
76616NA+    NA+38279  43.292  30.650   9.961
76617NA+    NA+38280  31.526   5.907   3.836
76618NA+    NA+38281  31.906   1.804  10.146
76619NA+    NA+38282  29.622  25.531   2.178
76620NA+    NA+38283   4.874   5.818  11.606
76621NA+    NA+38284  16.252  43.464  13.453
76622NA+    NA+38285  24.547  16.287   1.883
76623NA+    NA+38286   4.789  29.427   0.731
76624NA+    NA+38287  17.764  34.391   0.472
76625NA+    NA+38288  10.347  38.983  13.002
76626NA+    NA+38289   1.775  13.319  11.087
76627NA+    NA+38290  43.811  30.491  14.407
76628NA+    NA+38291  16.152  36.032  14.323
76629NA+    NA+38292  11.734  21.514  14.439
76630NA+    NA+38293   9.835  10.783   2.294
76631NA+    NA+38294  37.373  22.737  12.829
76632NA+    NA+38295  37.565  10.357   5.089
76633NA+    NA+38296   5.754  15.792  14.513
76634NA+    NA+38297  13.662   4.441   4.744
76635NA+    NA+38298  23.542  21.735  13.838
76636NA+    NA+38299  37.891  32.585  14.992
76637NA+    NA+38300  26.964  34.402  11.062
76638NA+    NA+38301  27.058  34.011   4.623
76639NA+    NA+38302  23.619  28.178  13.334
76640NA+    NA+38303  35.100  10.222   2.809
76641NA+    NA+38304  23.143  31.097   4.826
76642NA+    NA+38305   6.253   7.379  10.093
76643NA+    NA+38306  35.435  33.106   3.818
76644NA+    NA+38307  32.478   4.417  13.886
76645NA+    NA+38308   7.380  12.618  12.082
76646NA+    NA+38309  38.855   9.787  14.886
76647NA+    NA+38310  32.439  37.072  14.345
76648NA+    NA+38311   6.878  14.673   4.117
76649NA+    NA+38312  24.495  19.234  10.916
76650NA+    NA+38313  25.612  38.474  13.994
76651NA+    NA+38314  25.667  21.218  13.005
76652NA+    NA+38315  11.776   6.379   1.805
76653NA+    NA+38316  30.043  22.087   3.263
76654NA+    NA+38317  39.318  22.020   0.245
76655NA+    NA+38318  10.858  27.103  11.987
76656NA+    NA+38319  19.748   1.237   3.744
76657NA+    NA+38320  41.447  37.401  13.821
76658NA+    NA+38321  35.993  41.449   4.701
76659NA+    NA+38322  42.324   0.862   3.698
76660NA+    NA+38323  38.540  23.554   1.831
76661NA+    NA+38324  42.949  38.956  14.857
76662NA+    NA+38325  10.678  38.925  14.454
76663NA+    NA+38326   9.854  11.855  12.938
76664NA+    NA+38327  18.087   9.793   2.884
76665NA+    NA+38328   1.923  27.084  13.870
76666NA+    NA+38329   2.880  40.803   0.761
76667NA+    NA+38330  11.762  30.625  13.009
76668NA+    NA+38331  24.010  17.610   0.762
76669NA+    NA+38332   2.937  25.662  10.422
76670NA+    NA+38333  34.992   3.883  13.880
76671NA+    NA+38334   2.722  12.778  11.108
76672NA+    NA+38335  17.761  29.062   3.823
76673NA+    NA+38336  10.861  36.514   0.919
76674NA+    NA+38337  30.953  26.631  14.438
76675NA+    NA+38338  26.701  40.339   4.216
76676NA+    NA+38339  33.089  43.005   3.835
76677NA+    NA+38340  22.569  18.246  13.482
76678NA+    NA+38341  33.898  41.304  13.383
76679NA+    NA+38342   9.346   3.291   0.455
76680NA+    NA+38343  15.627   4.873   9.950
76681NA+    NA+38344  29.043   1.896   4.757
76682NA+    NA+38345  20.188   4.228   1.759
76683NA+    NA+38346  39.859  43.011   3.383
76684NA+    NA+38347  14.308  21.110  11.388
76685NA+    NA+38348  22.058  21.033  12.038
76686NA+    NA+38349   6.909  43.985   3.361
76687NA+    NA+38350  32.525  27.125   1.706
76688NA+    NA+38351  42.354  39.500  14.930
76689NA+    NA+38352   6.718   4.359  11.902
76690NA+    NA+38353  15.233  40.368   9.931
76691NA+    NA+38354  38.511  32.902  11.576
76692NA+    NA+38355  39.916  27.480  12.393
76693NA+    NA+38356   4.883  39.058   1.301
76694NA+    NA+38357  24.623  37.899  12.965
76695NA+    NA+38358  38.372  41.806   4.238
76696NA+    NA+38359  41.533   8.160   3.333
76697NA+    NA+38360  14.609  25.107  13.508
76698NA+    NA+38361   0.375  43.497  13.820
76699NA+    NA+38362   8.821  35.002  11.379
76700NA+    NA+38363   5.898  27.582  14.871
76701NA+    NA+38364  25.542  20.736   4.675
76702NA+    NA+38365  21.117  30.960   5.321
76703NA+    NA+38366  15.236   0.863   0.294
76704NA+    NA+38367  12.726  24.531  11.890
76705NA+    NA+38368  22.057  24.694  14.952
76706NA+    NA+38369  36.939   1.427   3.237
76707NA+    NA+38370  29.034  43.427   1.770
76708NA+    NA+38371   8.320  33.026   4.706
76709NA+    NA+38372  22.697  35.081  12.375
76710NA+    NA+38373  30.087  21.712  12.076
76711NA+    NA+38374  44.860  36.559   3.862
76712NA+    NA+38375  25.703   5.733   2.284
76713NA+    NA+38376  23.006  16.208  12.498
76714NA+    NA+38377  13.727  21.045  14.904
76715NA+    NA+38378   6.320   5.228   1.924
76716NA+    NA+38379  40.983  23.204   2.278
76717NA+    NA+38380  32.505  23.683  14.861
76718NA+    NA+38381  29.475   4.846  13.881
76719NA+    NA+38382  27.961  19.725   3.314
76720NA+    NA+38383  14.768  43.395  13.327
76721NA+    NA+38384  40.344   8.309   1.840
76722NA+    NA+38385  44.817  32.130   3.661
76723NA+    NA+38386  39.053  38.999   2.676
76724NA+    NA+38387  42.491   7.236  14.353
76725NA+    NA+38388  14.708  34.998   9.974
76726NA+    NA+38389  35.500  15.649   1.789
76727NA+    NA+38390  26.466  16.299  12.004
76728NA+    NA+38391  28.470   6.772  11.087
76729NA+    NA+38392  36.035   2.745  14.469
76730NA+    NA+38393  11.757  14.699  10.515
76731NA+    NA+38394  10.711   3.352   5.114
76732NA+    NA+38395  37.987   5.695   0.807
76733NA+    NA+38396  14.181  32.111  14.478
76734NA+    NA+38397  25.049  34.076   4.349
76735NA+    NA+38398   7.823  33.424   4.300
76736NA+    NA+38399  32.124   0.406  14.335
76737NA+    NA+38400  14.291  42.481  10.932
76738NA+    NA+38401   2.735  30.495  12.837
76739NA+    NA+38402   6.321  23.010   1.385
76740NA+    NA+38403  43.435  44.967   2.222
76741NA+    NA+38404  26.957   8.313   0.268
76742NA+    NA+38405  14.779  34.035  10.985
76743NA+    NA+38406  32.504  11.665   1.285
76744NA+    NA+38407  42.346  18.594   2.686
76745NA+    NA+38408  16.712  11.196  14.885
76746NA+    NA+38409  17.676  27.462   2.879
76747NA+    NA+38410   8.717  21.532   0.267
76748NA+    NA+38411  43.971  21.116  12.467
76749NA+    NA+38412  16.640  16.277   2.840
76750NA+    NA+38413  40.420   2.896   0.446
76751NA+    NA+38414  24.511   5.796  10.960
76752NA+    NA+38415  27.129   0.263   3.271
76753NA+    NA+38416  12.785  36.431  13.055
76754NA+    NA+38417  37.464  43.941   4.815
76755NA+    NA+38418  13.209  14.218  12.539
76756NA+    NA+38419  23.196  22.172  12.002
76757NA+    NA+38420  34.545  31.646   2.840
76758NA+    NA+38421   8.310  39.445  13.533
76759NA+    NA+38422   0.787  22.628   2.308
76760NA+    NA+38423  26.174  33.414  12.903
76761NA+    NA+38424  21.213   2.410  12.838
76762NA+    NA+38425   2.410  10.149  13.994
76763NA+    NA+38426  43.401  36.045  10.602
76764NA+    NA+38427  44.497  34.600  14.457
76765NA+    NA+38428  30.936  10.209   2.813
76766NA+    NA+38429  19.251  27.105  13.040
76767NA+    NA+38430   3.788  31.997  14.354
76768NA+    NA+38431  28.508   1.934  11.416
76769NA+    NA+38432   4.865  44.832  11.377
76770NA+    NA+38433  30.961  21.669  12.080
76771NA+    NA+38434  15.799  26.657   1.712
76772NA+    NA+38435  25.057  32.623   1.416
76773NA+    NA+38436  36.427  24.501  12.971
76774NA+    NA+38437  37.459  10.383   3.678
76775NA+    NA+38438  13.193   8.818  10.152
76776NA+    NA+38439  19.128  40.466  11.544
76777NA+    NA+38440  42.880   9.306  10.447
76778NA+    NA+38441  30.432  16.171  14.396
76779NA+    NA+38442   5.250  37.526  13.523
76780NA+    NA+38443  12.318  44.502   1.322
76781NA+    NA+38444  30.655  13.174   3.346
76782NA+    NA+38445  10.683  13.194   1.211
76783NA+    NA+38446  28.142   5.410   4.649
76784NA+    NA+38447  26.530  37.411  13.916
76785NA+    NA+38448   0.362   7.365  10.602
76786NA+    NA+38449  24.018  33.554  11.111
76787NA+    NA+38450  24.147  10.786  12.056
76788NA+    NA+38451  27.548  28.002  10.111
76789NA+    NA+38452   5.770  31.520  14.810
76790NA+    NA+38453   5.254   4.308  11.524
76791NA+    NA+38454  43.872  27.172   1.907
76792NA+    NA+38455  42.947  17.183   2.728
76793NA+    NA+38456  31.054   2.741   2.786
76794NA+    NA+38457  19.745   7.352   1.714
76795NA+    NA+38458  37.422  31.553  10.943
76796NA+    NA+38459  19.753  16.284  13.367
76797NA+    NA+38460  25.624  26.050   3.234
76798NA+    NA+38461   2.267  27.060   4.803
76799NA+    NA+38462  32.032   1.733   4.260
76800NA+    NA+38463  31.573  30.548  12.925
76801NA+    NA+38464  21.657   6.921  10.522
76802NA+    NA+38465   6.365  41.455  14.933
76803NA+    NA+38466  22.645  32.051   2.676
76804NA+    NA+38467  30.057   3.254   3.848
76805NA+    NA+38468  43.019  21.666   3.152
76806NA+    NA+38469  12.279   4.768   0.770
76807NA+    NA+38470  22.016  17.745   0.865
76808NA+    NA+38471  20.737  33.877  11.481
76809NA+    NA+38472  15.179  15.311   0.277
76810NA+    NA+38473  18.706   6.287  11.955
76811NA+    NA+38474   0.482  26.954   3.635
76812NA+    NA+38475  35.491  25.534  10.542
76813NA+    NA+38476  13.176  32.599   3.367
76814NA+    NA+38477  22.715  13.258  14.840
76815NA+    NA+38478  26.206  30.038   1.867
76816NA+    NA+38479  16.142  26.076   2.236
76817NA+    NA+38480  33.579  25.196  11.547
76818NA+    NA+38481  15.636  44.873  12.960
76819NA+    NA+38482  25.203  13.294   2.248
76820NA+    NA+38483   8.281  21.745  14.339
76821NA+    NA+38484  39.831  17.639   0.736
76822NA+    NA+38485  17.654   2.432   0.926
76823NA+    NA+38486  13.599  35.416  10.005
76824NA+    NA+38487  44.900  12.845  14.923
76825NA+    NA+38488  18.275  28.051   4.207
76826NA+    NA+38489  16.185   4.405  14.890
76827NA+    NA+38490  42.511   8.811   1.387
76828NA+    NA+38491  31.647  18.671   0.309
76829NA+    NA+38492  20.034  19.269  14.276
76830NA+    NA+38493  32.033  40.011  13.310
76831NA+    NA+38494  28.529  33.492  11.888
76832NA+    NA+38495   2.248  15.659  11.454
76833NA+    NA+38496  42.400   6.270  14.328
76834NA+    NA+38497  21.163  30.063  13.406
76835NA+    NA+38498  13.345  27.092   4.618
76836NA+    NA+38499  27.046  36.546   3.268
76837NA+    NA+38500  15.177  13.737   0.898
76838NA+    NA+38501  24.230  27.995  10.069
76839NA+    NA+38502  42.783   2.825   4.340
76840NA+    NA+38503  41.899  20.555   0.742
76841NA+    NA+38504  39.033  36.442   0.940
76842NA+    NA+38505  28.518  44.421  12.352
76843NA+    NA+38506  20.708  27.495   2.901
76844NA+    NA+38507  17.565  36.952  11.450
76845NA+    NA+38508   6.698  36.893   0.265
76846NA+    NA+38509   2.733   8.269  11.960
76847NA+    NA+38510  33.429   2.389   4.698
76848NA+    NA+38511   7.323  26.569  12.042
76849NA+    NA+38512   0.932  43.774  14.390
76850NA+    NA+38513   5.867  18.606  12.339
76851NA+    NA+38514   3.731  17.232   1.307
76852NA+    NA+38515  20.210  11.778   1.427
76853NA+    NA+38516  10.648  38.454   3.814
76854NA+    NA+38517  17.775   6.807  12.051
76855NA+    NA+38518  14.281  35.378   4.302
76856NA+    NA+38519  31.648  35.452  10.541
76857NA+    NA+38520   9.797  25.041   1.317
76858NA+    NA+38521  28.949  14.752   1.817
76859NA+    NA+38522  43.509  20.028   0.467
76860NA+    NA+38523  35.483  23.157   2.315
76861NA+    NA+38524  23.112  26.953   2.873
76862NA+    NA+38525   0.251  28.502   2.832
76863NA+    NA+38526  15.287  12.814   0.338
76864NA+    NA+38527  15.659  29.529   3.222
76865NA+    NA+38528  17.061  25.684   3.800
76866NA+    NA+38529  21.689  34.417  11.930
76867NA+    NA+38530  20.176   8.730  11.085
76868NA+    NA+38531  15.776  38.486  12.074
76869NA+    NA+38532   1.471  10.353  12.914
76870NA+    NA+38533   9.669   9.264   0.755
76871NA+    NA+38534  19.160   9.809   2.382
76872NA+    NA+38535  27.171  21.522   2.315
76873NA+    NA+38536  23.735  14.588   1.384
76874NA+    NA+38537  14.614  34.416   2.262
76875NA+    NA+38538  38.508  10.824  14.316
76876NA+    NA+38539  40.378  43.393  11.598
76877NA+    NA+38540  39.899  26.174  11.454
76878NA+    NA+38541   6.337  11.184   4.344
76879NA+    NA+38542   9.689  42.500  12.508
76880NA+    NA+38543  39.967  40.453  11.077
76881NA+    NA+38544  42.862  42.026   4.750
76882NA+    NA+38545   2.321  43.954  11.395
76883NA+    NA+38546  11.670  28.930  11.581
76884NA+    NA+38547  40.949  40.833  14.325
76885NA+    NA+38548  16.768  13.323  10.533
76886NA+    NA+38549  23.614  14.624   4.788
76887NA+    NA+38550  33.060   0.922   0.350
76888NA+    NA+38551  44.366  29.640  12.384
76889NA+    NA+38552   3.320   0.389   4.270
76890NA+    NA+38553  18.598  13.812  12.096
76891NA+    NA+38554   0.469   0.493   0.323
76892NA+    NA+38555  14.762  17.689   1.796
76893NA+    NA+38556  12.723   8.712  14.774
76894NA+    NA+38557  22.130  19.136  12.080
76895NA+    NA+38558  31.456  30.495   0.482
76896NA+    NA+38559   9.225   7.908  14.789
76897NA+    NA+38560   5.260   2.798  12.885
76898NA+    NA+38561  19.596  19.660  13.463
76899NA+    NA+38562  40.827  16.575  11.954
76900NA+    NA+38563   1.923  39.865   1.408
76901NA+    NA+38564   8.865  12.153   1.881
76902NA+    NA+38565  35.416   1.898  12.030
76903NA+    NA+38566  25.702  11.177   3.225
76904NA+    NA+38567  17.231  19.624  14.388
76905NA+    NA+38568  40.813  25.561  10.944
76906NA+    NA+38569   5.398  29.130   1.236
76907NA+    NA+38570   6.306  31.148   1.777
76908NA+    NA+38571   9.805  22.181   3.863
76909NA+    NA+38572  40.319  24.481   0.338
76910NA+    NA+38573   0.371   4.836  12.935
76911NA+    NA+38574  15.308  42.522  12.921
76912NA+    NA+38575  12.118  40.798   2.779
76913NA+    NA+38576  21.190  14.114   3.312
76914NA+    NA+38577  12.805  16.138  11.092
76915NA+    NA+38578  15.232  39.362  14.807
76916NA+    NA+38579  37.399  28.994   0.926
76917NA+    NA+38580  21.136  28.102   4.627
76918NA+    NA+38581  34.079  33.508   1.220
76919NA+    NA+38582  12.331  35.416   9.936
76920NA+    NA+38583  44.814  32.894  12.517
76921NA+    NA+38584  12.621  16.666  12.563
76922NA+    NA+38585  13.740  40.492  12.081
76923NA+    NA+38586  18.783  41.950   0.871
76924NA+    NA+38587  10.774  24.528  10.644
76925NA+    NA+38588  39.471  21.116  13.426
76926NA+    NA+38589   4.366  17.262   3.345
76927NA+    NA+38590   3.809  26.617  11.858
76928NA+    NA+38591  13.605  39.965  12.363
76929NA+    NA+38592  34.080  12.296   2.881
76930NA+    NA+38593  10.679  26.545  13.433
76931NA+    NA+38594  21.552  41.905   2.849
76932NA+    NA+38595   3.776   3.797  13.055
76933NA+    NA+38596  19.694  26.017   3.642
76934NA+    NA+38597  13.168  35.523   2.662
76935NA+    NA+38598  17.678  28.056   3.812
76936NA+    NA+38599  17.288  37.430   5.255
76937NA+    NA+38600   7.861   1.456  12.555
76938NA+    NA+38601   0.855  15.231  11.475
76939NA+    NA+38602  27.188   7.308  13.441
76940NA+    NA+38603  40.337  39.035  12.503
76941NA+    NA+38604  21.068  19.708  11.583
76942NA+    NA+38605   4.845  36.462  13.339
76943NA+    NA+38606  36.578   2.432   0.332
76944NA+    NA+38607  21.218  20.635   2.191
76945NA+    NA+38608  19.192  11.340  13.971
76946NA+    NA+38609  38.501  27.636   3.285
76947NA+    NA+38610   5.767  43.781   0.398
76948NA+    NA+38611  24.637  12.710  12.048
76949NA+    NA+38612  32.486  38.357   2.231
76950NA+    NA+38613  43.775  20.050   2.772
76951NA+    NA+38614   6.345   9.813   0.253
76952NA+    NA+38615  37.865  14.806  11.571
76953NA+    NA+38616  14.662  24.664   0.780
76954NA+    NA+38617   7.729   2.414  11.610
76955NA+    NA+38618  14.166   9.792   9.530
76956NA+    NA+38619  43.962  33.618  11.571
76957NA+    NA+38620   0.812   8.379   4.332
76958NA+    NA+38621  24.525  28.948   1.212
76959NA+    NA+38622   1.844  36.017  13.012
76960NA+    NA+38623  32.973  41.344   4.304
76961NA+    NA+38624  39.812  38.856   3.855
76962NA+    NA+38625  20.711  15.130  12.957
76963NA+    NA+38626  31.052  27.169   1.372
76964NA+    NA+38627  32.060  44.366   4.741
76965NA+    NA+38628   2.337  40.494   0.758
76966NA+    NA+38629  16.112  11.810   3.301
76967NA+    NA+38630  43.863  10.246   0.940
76968NA+    NA+38631  43.369  32.070  13.035
76969NA+    NA+38632  36.853   2.876  11.855
76970NA+    NA+38633  20.579  43.284   1.837
76971NA+    NA+38634  44.888  27.098  11.527
76972NA+    NA+38635  35.074  22.060  14.290
76973NA+    NA+38636  44.786  44.928  13.827
76974NA+    NA+38637   7.403  13.310  13.860
76975NA+    NA+38638  41.307  26.067   0.846
76976NA+    NA+38639  44.418  41.972   2.863
76977NA+    NA+38640  40.501   5.373  10.491
76978NA+    NA+38641  13.324  31.950   0.874
76979NA+    NA+38642  37.482  30.957  13.915
76980NA+    NA+38643  34.918   8.723   2.691
76981NA+    NA+38644   0.303  14.275   3.276
76982NA+    NA+38645  38.866  11.358   0.408
76983NA+    NA+38646  23.519  25.664  11.923
76984NA+    NA+38647  42.437  38.073  13.028
76985NA+    NA+38648  26.606  27.026   0.764
76986NA+    NA+38649  34.375   0.354   4.701
76987NA+    NA+38650  23.041  21.673   1.424
76988NA+    NA+38651  13.118  15.099  10.589
76989NA+    NA+38652  11.811  24.647  12.574
76990NA+    NA+38653  42.897  10.229  13.307
76991NA+    NA+38654  34.492  21.681  11.921
76992NA+    NA+38655  39.842  32.110  10.430
76993NA+    NA+38656   9.302  40.819   2.902
76994NA+    NA+38657  42.820  26.621  12.433
76995NA+    NA+38658  27.489  25.623   3.753
76996NA+    NA+38659  17.107   0.746   5.111
76997NA+    NA+38660  28.065  28.067   3.295
76998NA+    NA+38661   7.713  26.477  11.977
76999NA+    NA+38662  15.764  42.453  14.328
77000NA+    NA+38663   9.247  27.003  14.896
77001NA+    NA+38664  13.748  40.991  11.026
77002NA+    NA+38665   6.232  31.466   3.178
77003NA+    NA+38666  26.095  33.494   1.739
77004NA+    NA+38667  38.871  28.442  13.358
77005NA+    NA+38668  43.511  11.339  13.517
77006NA+    NA+38669  27.614  15.793   3.184
77007NA+    NA+38670  21.739   2.825  11.897
77008NA+    NA+38671  36.038  32.939   2.876
77009NA+    NA+38672  39.914   7.196   5.110
77010NA+    NA+38673   6.795  32.949  14.496
77011NA+    NA+38674  42.382  33.060  12.423
77012NA+    NA+38675  43.283  12.159   0.870
77013NA+    NA+38676   2.861  14.103  14.383
77014NA+    NA+38677  39.937  17.113  12.423
77015NA+    NA+38678  16.292  10.183   4.203
77016NA+    NA+38679  33.599   2.868   1.286
77017NA+    NA+38680  28.445  25.603  13.534
77018NA+    NA+38681  27.523   2.858   1.927
77019NA+    NA+38682  16.687  40.313   3.273
77020NA+    NA+38683  23.112  17.648   3.148
77021NA+    NA+38684  29.018  38.391   4.624
77022NA+    NA+38685  14.659   3.435  13.494
77023NA+    NA+38686  19.131  31.638   4.297
77024NA+    NA+38687  33.442   2.419  12.421
77025NA+    NA+38688  37.871  33.068   3.698
77026NA+    NA+38689  23.650  26.584  13.437
77027NA+    NA+38690  31.067   4.856  10.467
77028NA+    NA+38691  25.493  14.761  12.832
77029NA+    NA+38692  16.631  37.905  12.427
77030NA+    NA+38693  17.665  25.620   0.754
77031NA+    NA+38694  15.698  23.160   4.835
77032NA+    NA+38695   6.274  14.144  14.963
77033NA+    NA+38696  18.764  19.609  14.438
77034NA+    NA+38697   4.729   9.383  14.012
77035NA+    NA+38698  17.167   1.833   4.806
77036NA+    NA+38699  26.544  29.512   3.704
77037NA+    NA+38700  33.066  17.115   0.764
77038NA+    NA+38701  21.113  37.421  14.851
77039NA+    NA+38702  24.658   7.748  13.013
77040NA+    NA+38703  31.624  40.934   0.275
77041NA+    NA+38704  36.088   9.867   3.281
77042NA+    NA+38705  23.184  41.473   0.746
77043NA+    NA+38706  25.183  20.531   4.782
77044NA+    NA+38707  38.061  17.248   1.778
77045NA+    NA+38708  19.189  23.695  11.022
77046NA+    NA+38709  12.188  20.117   0.940
77047NA+    NA+38710  29.633  39.910  13.487
77048NA+    NA+38711  40.342  27.986  10.624
77049NA+    NA+38712  19.662   2.321  14.929
77050NA+    NA+38713   9.788  37.997   0.905
77051NA+    NA+38714  23.156  25.698   2.845
77052NA+    NA+38715  18.140  11.174   3.704
77053NA+    NA+38716  21.682  31.617  14.902
77054NA+    NA+38717  15.746  28.679   3.332
77055NA+    NA+38718  17.087  24.117   4.770
77056NA+    NA+38719   5.757   3.815  14.802
77057NA+    NA+38720  12.206  31.906  11.869
77058NA+    NA+38721   0.395  30.949   0.429
77059NA+    NA+38722  38.390  22.613  10.926
77060NA+    NA+38723  22.118  21.605   4.656
77061NA+    NA+38724  40.861   2.423   2.389
77062NA+    NA+38725  17.577  25.643  10.419
77063NA+    NA+38726   9.784  15.117  13.541
77064NA+    NA+38727  18.229   3.739  12.566
77065NA+    NA+38728  26.589  25.995   4.217
77066NA+    NA+38729   5.385   2.797  11.524
77067NA+    NA+38730  12.776   3.297  12.959
77068NA+    NA+38731  17.282  10.276   3.276
77069NA+    NA+38732  26.582   3.249   1.347
77070NA+    NA+38733  33.506  29.941  12.579
77071NA+    NA+38734  11.624   3.837   1.914
77072NA+    NA+38735   0.808  43.870   2.775
77073NA+    NA+38736  34.441  40.844  11.064
77074NA+    NA+38737  33.057  18.786   4.192
77075NA+    NA+38738   1.926  17.280   0.266
77076NA+    NA+38739  11.634  39.873   4.796
77077NA+    NA+38740  15.169   6.758  13.055
77078NA+    NA+38741  15.659  41.362   2.398
77079NA+    NA+38742  37.945   7.904   2.235
77080NA+    NA+38743  25.555  38.839   1.933
77081NA+    NA+38744  27.963  40.390   0.262
77082NA+    NA+38745  41.351  18.111  11.018
77083NA+    NA+38746  24.611  41.396  10.112
77084NA+    NA+38747  10.271  15.798   4.130
77085NA+    NA+38748  25.629  29.584   1.800
77086NA+    NA+38749   1.345  35.899  14.814
77087NA+    NA+38750  30.072   5.361   2.796
77088NA+    NA+38751   5.707  16.277   4.800
77089NA+    NA+38752  30.491  34.575   0.451
77090NA+    NA+38753  31.485  26.539  11.438
77091NA+    NA+38754  13.168  43.882   0.347
77092NA+    NA+38755  41.987  11.165  11.518
77093NA+    NA+38756  20.715  28.449   0.341
77094NA+    NA+38757  29.626  17.579  14.923
77095NA+    NA+38758   2.796  13.697  10.621
77096NA+    NA+38759   5.437  24.140   3.265
77097NA+    NA+38760  42.007  44.376  13.041
77098NA+    NA+38761   4.777  41.975   1.834
77099NA+    NA+38762   8.712  22.510   3.672
77100NA+    NA+38763  23.108  10.720  13.939
77101NA+    NA+38764  29.112   7.741   0.946
77102NA+    NA+38765  11.720   2.336   1.918
77103NA+    NA+38766  35.951  33.519   4.790
77104NA+    NA+38767  27.522  34.595   3.342
77105NA+    NA+38768  37.362  26.627  12.535
77106NA+    NA+38769   3.329  42.937  14.895
77107NA+    NA+38770   5.752   7.172   2.298
77108NA+    NA+38771  42.313  40.933  11.955
77109NA+    NA+38772  32.012  14.808  12.069
77110NA+    NA+38773  11.756  37.357  14.822
77111NA+    NA+38774  13.257   9.350   5.248
77112NA+    NA+38775  25.132  10.662  12.938
77113NA+    NA+38776  11.759   9.657  14.013
77114NA+    NA+38777  39.552  22.223   0.877
77115NA+    NA+38778  41.861  37.030   0.919
77116NA+    NA+38779  10.364  42.813   4.808
77117NA+    NA+38780  19.160  42.477  13.933
77118NA+    NA+38781  35.885  39.831  11.959
77119NA+    NA+38782  20.030   9.846   2.314
77120NA+    NA+38783  37.083  39.951   2.199
77121NA+    NA+38784  38.885  29.572  10.044
77122NA+    NA+38785  33.051  30.550  11.104
77123NA+    NA+38786  21.647   5.933  12.926
77124NA+    NA+38787  37.527   9.732  13.856
77125NA+    NA+38788  41.788  14.671  12.979
77126NA+    NA+38789  14.732  15.619  14.857
77127NA+    NA+38790   5.704  39.439   4.248
77128NA+    NA+38791  32.952  10.226   5.246
77129NA+    NA+38792   8.695  15.662   4.225
77130NA+    NA+38793  19.690  33.478  14.873
77131NA+    NA+38794   5.351  31.483  12.841
77132NA+    NA+38795  19.697  24.974  10.599
77133NA+    NA+38796  29.570  36.511  11.860
77134NA+    NA+38797  34.404  10.663   3.275
77135NA+    NA+38798  29.065  26.098  13.939
77136NA+    NA+38799  10.835  13.119  11.449
77137NA+    NA+38800  25.665  44.891   4.178
77138NA+    NA+38801  14.172  20.034  13.980
77139NA+    NA+38802  15.683  16.633  12.909
77140NA+    NA+38803  35.909  27.001  14.924
77141NA+    NA+38804  24.992  16.246  13.921
77142NA+    NA+38805  24.096  42.475   0.379
77143NA+    NA+38806  15.208   3.426  10.533
77144NA+    NA+38807  33.423  37.034  11.905
77145NA+    NA+38808  41.397  10.840   1.731
77146NA+    NA+38809  34.935   7.415  13.906
77147NA+    NA+38810  18.220  44.009  12.482
77148NA+    NA+38811   3.857  16.309   1.894
77149NA+    NA+38812  34.041  22.651   5.250
77150NA+    NA+38813  39.021  13.737  12.921
77151NA+    NA+38814  38.456  27.950   4.296
77152NA+    NA+38815  12.128  42.873  10.553
77153NA+    NA+38816  35.058  19.146  13.339
77154NA+    NA+38817  40.389  34.431   2.849
77155NA+    NA+38818  38.565  38.495  13.825
77156NA+    NA+38819  21.637  39.421   4.691
77157NA+    NA+38820  33.601  27.191   0.442
77158NA+    NA+38821  12.688   1.741   3.214
77159NA+    NA+38822  24.008   5.851   3.734
77160NA+    NA+38823  33.460  44.937  10.005
77161NA+    NA+38824  21.667  25.982  13.364
77162NA+    NA+38825  43.796  10.342  12.536
77163NA+    NA+38826   3.802  11.253   1.248
77164NA+    NA+38827  11.632  20.711  12.031
77165NA+    NA+38828  16.680  17.079   2.342
77166NA+    NA+38829  41.866  38.011   2.800
77167NA+    NA+38830  38.441  30.931  14.303
77168NA+    NA+38831  29.147   3.786  12.515
77169NA+    NA+38832   4.443   3.886   3.787
77170NA+    NA+38833  17.106  28.960  12.579
77171NA+    NA+38834  37.551  38.359   1.371
77172NA+    NA+38835  21.222  27.010   3.158
77173NA+    NA+38836  44.449  20.605  12.963
77174NA+    NA+38837  40.879  13.658  12.078
77175NA+    NA+38838  35.029  24.579   0.749
77176NA+    NA+38839   4.867  44.497  12.432
77177NA+    NA+38840  29.528  32.548  10.559
77178NA+    NA+38841  12.234  44.863   1.437
77179NA+    NA+38842  40.887  34.451   2.353
77180NA+    NA+38843   0.275  12.671   2.223
77181NA+    NA+38844  37.432  19.117  14.360
77182NA+    NA+38845  39.452  30.056  12.091
77183NA+    NA+38846  26.644  44.797  14.887
77184NA+    NA+38847  20.039  28.946   1.236
77185NA+    NA+38848  13.124  21.667  12.360
77186NA+    NA+38849  31.919  11.851   0.413
77187NA+    NA+38850  12.119   0.956   1.795
77188NA+    NA+38851  42.822   2.826   0.344
77189NA+    NA+38852  22.218  18.126   1.374
77190NA+    NA+38853  32.637  23.084  14.488
77191NA+    NA+38854  34.076  19.779  10.149
77192NA+    NA+38855   3.407  17.100   0.914
77193NA+    NA+38856  25.013  31.938   4.812
77194NA+    NA+38857  14.779  11.649  14.407
77195NA+    NA+38858   4.278  23.570  14.323
77196NA+    NA+38859  33.620  43.766  14.325
77197NA+    NA+38860  31.105  32.037  11.501
77198NA+    NA+38861  21.055   4.325  11.508
77199NA+    NA+38862  44.471  17.210  10.512
77200NA+    NA+38863  24.184  32.625  13.316
77201NA+    NA+38864  35.429  35.887   0.324
77202NA+    NA+38865  43.942  41.459  11.026
77203NA+    NA+38866   6.716  39.322   1.869
77204NA+    NA+38867   0.857   7.724   4.213
77205NA+    NA+38868  42.796  13.272  13.496
77206NA+    NA+38869   5.779  31.421   3.829
77207NA+    NA+38870  13.298  11.297   1.796
77208NA+    NA+38871  34.595  35.029   4.247
77209NA+    NA+38872  26.189  16.093  13.891
77210NA+    NA+38873   3.727  29.432   0.395
77211NA+    NA+38874   8.761  41.828   2.818
77212NA+    NA+38875  41.022   4.363  11.589
77213NA+    NA+38876   2.820  11.829  13.808
77214NA+    NA+38877   1.400  26.621   1.771
77215NA+    NA+38878  25.601  21.228   2.377
77216NA+    NA+38879  34.493  42.944   3.675
77217NA+    NA+38880  22.173  21.621  12.005
77218NA+    NA+38881  39.528  28.495  12.844
77219NA+    NA+38882  29.633  37.073  11.912
77220NA+    NA+38883  21.222  10.294   0.312
77221NA+    NA+38884  32.566   4.265  10.465
77222NA+    NA+38885  35.539  18.279   1.301
77223NA+    NA+38886  36.511  18.222  14.472
77224NA+    NA+38887  39.545  13.241  12.392
77225NA+    NA+38888  35.920  44.292  12.954
77226NA+    NA+38889  42.799  22.708  10.589
77227NA+    NA+38890  36.063   8.171  14.417
77228NA+    NA+38891  38.521  16.724   4.780
77229NA+    NA+38892  13.323  43.287   3.218
77230NA+    NA+38893  22.037   9.803   1.319
77231NA+    NA+38894  11.293   4.217   0.411
77232NA+    NA+38895   9.676  42.859   4.278
77233NA+    NA+38896  22.142  23.584  10.505
77234NA+    NA+38897  29.936  27.133   3.327
77235NA+    NA+38898   7.197  13.615   3.182
77236NA+    NA+38899   2.943   7.897   1.930
77237NA+    NA+38900  27.975  15.210  14.400
77238NA+    NA+38901  34.065  20.540  12.347
77239NA+    NA+38902  13.322   9.717  14.505
77240NA+    NA+38903   6.244  20.636  13.836
77241NA+    NA+38904  43.806  38.453  14.404
77242NA+    NA+38905   8.667  35.916   4.269
77243NA+    NA+38906   5.292   3.391   1.840
77244NA+    NA+38907   9.688   6.867  12.077
77245NA+    NA+38908  41.808  11.238  10.459
77246NA+    NA+38909  16.076  30.083  11.899
77247NA+    NA+38910  10.701  23.162   3.775
77248NA+    NA+38911  14.750  29.029  10.053
77249NA+    NA+38912  40.471  14.743  14.003
77250NA+    NA+38913  23.553   6.753  14.758
77251NA+    NA+38914  17.232  25.086  10.073
77252NA+    NA+38915  10.265  41.816  12.493
77253NA+    NA+38916  24.163   6.725  13.941
77254NA+    NA+38917   7.270  31.124  10.994
77255NA+    NA+38918  11.754  35.043  14.827
77256NA+    NA+38919  39.396  40.459   1.392
77257NA+    NA+38920  29.015  37.452  13.859
77258NA+    NA+38921  16.626   6.212  12.465
77259NA+    NA+38922   4.349   5.732  14.426
77260NA+    NA+38923  36.581   3.895   2.258
77261NA+    NA+38924  16.155   4.299   2.873
77262NA+    NA+38925  40.513  32.578  14.406
77263NA+    NA+38926  28.942  44.329   2.857
77264NA+    NA+38927  16.569  39.889  13.866
77265NA+    NA+38928  22.668  32.522  14.975
77266NA+    NA+38929  43.888  26.108  13.042
77267NA+    NA+38930   7.800   7.669   9.953
77268NA+    NA+38931  37.509  24.486   3.730
77269NA+    NA+38932  35.096   1.347   3.262
77270NA+    NA+38933  43.991  22.118  10.643
77271NA+    NA+38934  17.597  13.257   3.200
77272NA+    NA+38935  35.407  18.104   3.857
77273NA+    NA+38936   4.873  35.042  12.946
77274NA+    NA+38937  28.941   5.230   2.234
77275NA+    NA+38938  44.951  42.517  12.902
77276NA+    NA+38939  15.714   1.951   1.427
77277NA+    NA+38940  42.296   6.233   5.292
77278NA+    NA+38941  36.094  40.371  13.374
77279NA+    NA+38942  20.638  23.195  12.075
77280NA+    NA+38943   7.739  23.729  12.502
77281NA+    NA+38944   3.760   4.418  13.487
77282NA+    NA+38945  30.117  44.814   1.281
77283NA+    NA+38946   9.827   0.809  14.464
77284NA+    NA+38947  15.326  28.654   2.867
77285NA+    NA+38948  13.329   5.711  10.988
77286NA+    NA+38949  31.105   6.181  13.342
77287NA+    NA+38950  27.125  37.441  12.824
77288NA+    NA+38951   7.277  22.538   2.822
77289NA+    NA+38952  26.522  32.042  10.642
77290NA+    NA+38953  10.750  44.423   4.159
77291NA+    NA+38954  19.102  23.558   2.216
77292NA+    NA+38955  24.990  44.344  13.834
77293NA+    NA+38956  36.994  38.840  14.411
77294NA+    NA+38957   4.863  19.216   0.364
77295NA+    NA+38958  38.959   1.331   0.913
77296NA+    NA+38959   7.315  39.546  10.937
77297NA+    NA+38960  10.147   4.395   1.934
77298NA+    NA+38961  22.733   9.672  14.851
77299NA+    NA+38962  31.582  10.826   0.323
77300NA+    NA+38963   5.311   8.308   3.181
77301NA+    NA+38964  23.511   6.201   1.709
77302NA+    NA+38965  25.605  37.501  11.101
77303NA+    NA+38966  26.578  44.326   1.227
77304NA+    NA+38967  44.413  18.562  14.760
77305NA+    NA+38968  27.029  11.674  13.880
77306NA+    NA+38969  25.482  17.578  14.516
77307NA+    NA+38970   7.406   4.210   0.402
77308NA+    NA+38971  15.598  23.996   2.733
77309NA+    NA+38972  37.541  20.730   2.377
77310NA+    NA+38973  25.499  21.521  14.412
77311NA+    NA+38974   1.812  27.480   4.821
77312NA+    NA+38975  32.919  16.082   4.253
77313NA+    NA+38976  14.794  42.871   1.719
77314NA+    NA+38977   9.156  33.905   4.180
77315NA+    NA+38978  29.114  18.118  11.411
77316NA+    NA+38979  16.609  14.255  13.889
77317NA+    NA+38980  18.597  22.180   0.892
77318NA+    NA+38981  25.179   4.875  12.929
77319NA+    NA+38982  39.850  20.213   4.599
77320NA+    NA+38983  25.999  10.307  11.857
77321NA+    NA+38984  17.137  29.662   4.160
77322NA+    NA+38985  30.047  20.137  11.067
77323NA+    NA+38986  20.029  29.650  12.964
77324NA+    NA+38987  14.169  18.760   3.337
77325NA+    NA+38988  31.574  19.643  10.471
77326NA+    NA+38989   8.309  25.125  10.584
77327NA+    NA+38990  16.246  32.449  13.404
77328NA+    NA+38991  38.906  34.019   1.775
77329NA+    NA+38992  24.596  22.084  10.555
77330NA+    NA+38993  39.349   3.794   1.698
77331NA+    NA+38994  10.778  13.262  14.772
77332NA+    NA+38995  15.609  16.641  11.441
77333NA+    NA+38996   4.769  12.744   3.669
77334NA+    NA+38997   0.803  39.481  14.976
77335NA+    NA+38998   7.219  32.568  11.445
77336NA+    NA+38999  14.186  32.940   4.324
77337NA+    NA+39000  12.735  33.539  13.045
77338NA+    NA+39001  14.161  24.500  11.550
77339NA+    NA+39002  36.979   9.880  14.930
77340NA+    NA+39003  44.875  38.068  12.932
77341NA+    NA+39004  32.593  29.118  10.493
77342NA+    NA+39005  18.645  26.120   1.355
77343NA+    NA+39006   5.702   2.230  11.483
77344NA+    NA+39007  25.009  11.134   4.160
77345NA+    NA+39008  14.130  25.663  12.923
77346NA+    NA+39009  21.212  39.932   2.822
77347NA+    NA+39010   2.816  20.658  12.931
77348NA+    NA+39011  22.584  42.029  11.931
77349NA+    NA+39012  22.234  23.558  10.945
77350NA+    NA+39013  33.887  13.307   0.816
77351NA+    NA+39014  29.051   1.403   3.361
77352NA+    NA+39015   7.694   0.744   3.760
77353NA+    NA+39016  40.494  11.848   2.376
77354NA+    NA+39017  34.030  13.661   3.240
77355NA+    NA+39018  30.918  26.648   4.807
77356NA+    NA+39019  42.485  37.564   1.863
77357NA+    NA+39020  25.126  27.528   2.725
77358NA+    NA+39021  32.493  40.470  11.553
77359NA+    NA+39022   9.655  26.997  11.081
77360NA+    NA+39023  39.389  17.652   1.304
77361NA+    NA+39024  24.987  26.661   2.852
77362NA+    NA+39025  28.479  40.333   2.901
77363NA+    NA+39026  28.172  19.192  11.590
77364NA+    NA+39027  30.423  20.542  11.399
77365NA+    NA+39028  27.452  31.935  11.874
77366NA+    NA+39029   5.330  30.656  14.983
77367NA+    NA+39030  24.141  18.594  12.977
77368NA+    NA+39031  24.047   3.755  13.957
77369NA+    NA+39032   4.271  18.632   1.767
77370NA+    NA+39033  41.404  19.120   4.242
77371NA+    NA+39034  28.071  26.030  11.499
77372NA+    NA+39035  30.122  24.725  13.420
77373NA+    NA+39036  38.366  11.849  10.644
77374NA+    NA+39037   9.394   0.917  13.546
77375NA+    NA+39038  38.326  15.782   2.349
77376NA+    NA+39039  18.741  13.634   0.906
77377NA+    NA+39040  14.211  19.577  12.047
77378NA+    NA+39041   9.664  41.325   3.160
77379NA+    NA+39042  10.658  31.599   4.207
77380NA+    NA+39043   6.712   7.852   2.200
77381NA+    NA+39044  14.688  26.008  12.027
77382NA+    NA+39045  16.585  25.216  14.356
77383NA+    NA+39046  38.978  30.944   1.396
77384NA+    NA+39047  15.635  40.417   4.133
77385NA+    NA+39048   9.213   4.212   4.819
77386NA+    NA+39049  22.021  13.328  14.276
77387NA+    NA+39050  19.157  41.896  12.969
77388NA+    NA+39051  38.833  21.651   0.954
77389NA+    NA+39052  30.574  12.352   1.241
77390NA+    NA+39053   7.241  25.104  14.874
77391NA+    NA+39054   0.472  30.036  12.347
77392NA+    NA+39055  19.157  21.247   4.677
77393NA+    NA+39056  21.715  20.050  10.513
77394NA+    NA+39057  40.020  33.569  11.941
77395NA+    NA+39058  22.522   0.770  13.503
77396NA+    NA+39059  17.131  22.507  13.010
77397NA+    NA+39060  27.674  30.920  12.033
77398NA+    NA+39061  10.664  35.009  13.922
77399NA+    NA+39062  15.813   2.255   2.768
77400NA+    NA+39063  19.776  10.318  12.508
77401NA+    NA+39064  32.573  36.516  10.567
77402NA+    NA+39065  29.126  38.907   2.695
77403NA+    NA+39066  34.396  27.594  13.434
77404NA+    NA+39067  10.854  13.608   4.224
77405NA+    NA+39068  28.183  44.868  12.874
77406NA+    NA+39069  19.719   0.396   2.736
77407NA+    NA+39070  23.139  19.200  10.429
77408NA+    NA+39071  39.983  22.148   2.365
77409NA+    NA+39072  31.506  14.672   1.907
77410NA+    NA+39073  41.838  28.937   1.747
77411NA+    NA+39074  36.995   6.899  11.489
77412NA+    NA+39075  25.595  27.679  13.954
77413NA+    NA+39076  35.050  18.072  10.119
77414NA+    NA+39077  10.688  33.558  14.878
77415NA+    NA+39078  42.370  24.066  11.538
77416NA+    NA+39079  44.328  20.592   4.810
77417NA+    NA+39080  27.042  20.072  11.506
77418NA+    NA+39081  39.499  16.257   4.731
77419NA+    NA+39082  38.949   1.977  11.932
77420NA+    NA+39083  40.867  19.655  14.430
77421NA+    NA+39084  23.687  36.354  11.964
77422NA+    NA+39085   9.280  25.470   3.686
77423NA+    NA+39086  33.399  34.101  12.842
77424NA+    NA+39087  25.010  23.046   0.877
77425NA+    NA+39088  21.745  28.674   0.829
77426NA+    NA+39089  32.510   8.833   2.837
77427NA+    NA+39090  16.164  39.892   3.341
77428NA+    NA+39091   9.220  25.135   1.826
77429NA+    NA+39092   4.826  23.005  14.874
77430NA+    NA+39093  36.877  21.634   1.271
77431NA+    NA+39094  33.041  17.252   3.669
77432NA+    NA+39095  13.310  38.935   3.697
77433NA+    NA+39096  35.916  43.961  13.354
77434NA+    NA+39097   9.807  19.059   1.291
77435NA+    NA+39098   1.775  42.864  10.602
77436NA+    NA+39099  36.569  22.664  10.501
77437NA+    NA+39100  44.816   8.890   0.732
77438NA+    NA+39101   8.389  21.022  12.553
77439NA+    NA+39102  13.812  20.225  10.551
77440NA+    NA+39103   7.844  44.460   0.359
77441NA+    NA+39104  27.629  31.024   2.797
77442NA+    NA+39105   7.229  15.173   2.751
77443NA+    NA+39106  25.603  32.018  10.571
77444NA+    NA+39107  27.594   6.314   0.903
77445NA+    NA+39108   0.267  38.038  12.392
77446NA+    NA+39109  43.945  28.572  13.058
77447NA+    NA+39110  43.426  25.976  13.968
77448NA+    NA+39111  32.615  12.651  13.515
77449NA+    NA+39112   0.483  28.093   0.883
77450NA+    NA+39113   9.752   1.363  11.867
77451NA+    NA+39114   8.710   7.228   3.321
77452NA+    NA+39115  36.021  24.514   2.259
77453NA+    NA+39116  40.825  30.425   3.856
77454NA+    NA+39117  21.148  37.407  13.353
77455NA+    NA+39118  16.741  25.657   1.387
77456NA+    NA+39119  44.971  25.599   1.706
77457NA+    NA+39120  42.029  15.301  10.967
77458NA+    NA+39121  37.082  10.354   3.219
77459NA+    NA+39122  32.395   2.949   0.345
77460NA+    NA+39123  19.730  36.353   0.295
77461NA+    NA+39124  32.548  20.028   3.789
77462NA+    NA+39125  41.915  11.174  13.799
77463NA+    NA+39126  18.650  41.908   1.706
77464NA+    NA+39127  37.008  29.077   0.818
77465NA+    NA+39128   3.779   9.192   4.731
77466NA+    NA+39129   5.323  44.269   3.720
77467NA+    NA+39130  18.699  11.825   3.784
77468NA+    NA+39131  31.525   2.390   1.781
77469NA+    NA+39132   4.751  42.820   3.822
77470NA+    NA+39133  12.831  42.801  11.489
77471NA+    NA+39134  42.878  33.922  13.001
77472NA+    NA+39135  43.007  10.210   4.253
77473NA+    NA+39136  35.535  12.629  12.497
77474NA+    NA+39137  37.055  43.007  14.875
77475NA+    NA+39138  41.984  23.649   3.639
77476NA+    NA+39139  14.318  15.196  11.032
77477NA+    NA+39140  19.662   4.938  13.404
77478NA+    NA+39141  21.087  34.937  14.932
77479NA+    NA+39142  15.596  15.132  11.502
77480NA+    NA+39143   8.783  24.593  10.954
77481NA+    NA+39144   3.422  26.571  12.968
77482NA+    NA+39145  31.446   8.259  11.944
77483NA+    NA+39146  39.997  11.754   0.321
77484NA+    NA+39147  32.047   0.362   4.121
77485NA+    NA+39148  11.151  44.774   3.772
77486NA+    NA+39149   4.922  27.967   9.928
77487NA+    NA+39150  39.040   8.684   0.308
77488NA+    NA+39151   1.250   3.321   3.282
77489NA+    NA+39152  11.266  44.261   4.264
77490NA+    NA+39153  12.149  23.074   1.922
77491NA+    NA+39154  32.578  31.924   2.192
77492NA+    NA+39155  31.638   4.438  12.513
77493NA+    NA+39156  23.017  11.791   1.344
77494NA+    NA+39157  30.473   4.273   3.815
77495NA+    NA+39158  41.462  33.592  11.019
77496NA+    NA+39159  26.473   0.325   2.264
77497NA+    NA+39160  28.108  30.607  13.425
77498NA+    NA+39161  42.981  41.362  13.403
77499NA+    NA+39162  12.786  40.447   3.222
77500NA+    NA+39163  12.288  11.363   2.324
77501NA+    NA+39164   8.240   1.919  13.977
77502NA+    NA+39165  31.979   3.854   5.314
77503NA+    NA+39166   7.284   9.742   0.411
77504NA+    NA+39167  30.609  32.572   0.951
77505NA+    NA+39168  10.737  21.144  12.542
77506NA+    NA+39169  43.300  26.573  13.973
77507NA+    NA+39170  31.645  35.478  12.020
77508NA+    NA+39171  17.116  28.060   0.793
77509NA+    NA+39172  31.033  32.968  11.500
77510NA+    NA+39173  32.137  35.912  10.999
77511NA+    NA+39174   6.293  24.106  11.416
77512NA+    NA+39175   6.821   4.792   0.353
77513NA+    NA+39176  21.651   1.372   2.874
77514NA+    NA+39177  36.389   8.891   1.734
77515NA+    NA+39178  14.137   0.466   1.748
77516NA+    NA+39179  42.295  33.517  13.977
77517NA+    NA+39180  12.759  13.600  13.398
77518NA+    NA+39181  23.997  12.258  12.969
77519NA+    NA+39182  41.483  36.856  12.458
77520NA+    NA+39183  17.192  10.796   3.642
77521NA+    NA+39184  36.390  19.057  10.406
77522NA+    NA+39185  16.083  41.294   1.279
77523NA+    NA+39186  13.828  41.329  13.942
77524NA+    NA+39187   8.395  19.597  14.366
77525NA+    NA+39188   2.927   8.244  10.422
77526NA+    NA+39189  10.229  12.149  13.915
77527NA+    NA+39190  40.529  31.971  13.488
77528NA+    NA+39191  19.610  38.013   0.403
77529NA+    NA+39192   7.841  14.270   2.342
77530NA+    NA+39193  21.165  41.012  14.024
77531NA+    NA+39194  31.529  20.060   3.298
77532NA+    NA+39195  18.642  30.004   1.261
77533NA+    NA+39196  30.014  34.396   4.772
77534NA+    NA+39197  37.560  17.612   0.278
77535NA+    NA+39198   1.774  24.165  12.415
77536NA+    NA+39199  29.927  11.663  12.566
77537NA+    NA+39200  37.003  22.745   1.750
77538NA+    NA+39201   6.418  13.218  12.572
77539NA+    NA+39202  14.129  12.850   4.620
77540NA+    NA+39203  12.841  11.781  11.022
77541NA+    NA+39204  17.563   5.322   3.823
77542NA+    NA+39205  38.369   9.158   3.381
77543NA+    NA+39206  31.489   6.264   9.666
77544NA+    NA+39207  44.348  29.921   0.331
77545NA+    NA+39208  18.786   2.912  11.585
77546NA+    NA+39209  41.828  39.375  14.002
77547NA+    NA+39210   4.308   4.226  11.554
77548NA+    NA+39211  44.791   7.401  11.979
77549NA+    NA+39212  29.565  17.197   1.236
77550NA+    NA+39213  14.735  17.262  12.987
77551NA+    NA+39214  38.899   4.710   2.797
77552NA+    NA+39215  12.850  34.462  10.942
77553NA+    NA+39216  25.682  44.990  11.124
77554NA+    NA+39217  21.547  43.817   0.293
77555NA+    NA+39218  13.838   4.705   0.733
77556NA+    NA+39219  20.058  11.216   1.447
77557NA+    NA+39220  44.402  37.448   0.453
77558NA+    NA+39221  31.482  30.957  14.810
77559NA+    NA+39222  40.035  32.035   4.137
77560NA+    NA+39223  23.499  28.610  14.921
77561NA+    NA+39224  25.627   4.919   0.813
77562NA+    NA+39225  41.324  14.735   1.911
77563NA+    NA+39226  17.732  14.609  14.921
77564NA+    NA+39227  20.665  17.294  11.990
77565NA+    NA+39228  35.593  33.929   2.267
77566NA+    NA+39229   9.709  10.272  13.920
77567NA+    NA+39230  29.525   1.407   2.857
77568NA+    NA+39231  12.360   3.219  11.882
77569NA+    NA+39232  33.935  20.203  12.383
77570NA+    NA+39233  22.611  25.562   2.181
77571NA+    NA+39234  35.857   9.763  11.085
77572NA+    NA+39235  28.601   2.790  13.353
77573NA+    NA+39236  36.868   4.814   4.772
77574NA+    NA+39237  16.290  33.577   2.847
77575NA+    NA+39238   8.209   7.376   9.530
77576NA+    NA+39239   0.957   9.343  14.426
77577NA+    NA+39240  11.308  28.939  10.541
77578NA+    NA+39241  17.295  15.733   2.815
77579NA+    NA+39242  30.983   6.770  14.773
77580NA+    NA+39243  39.416  30.142   2.730
77581NA+    NA+39244  21.230   1.372   2.726
77582NA+    NA+39245  23.231  32.008  11.888
77583NA+    NA+39246   3.858  15.730   3.803
77584NA+    NA+39247  29.085  26.084   0.391
77585NA+    NA+39248  16.574  36.528   1.416
77586NA+    NA+39249  27.677  15.780   1.257
77587NA+    NA+39250  35.576   2.741  10.912
77588NA+    NA+39251  37.559   6.801   4.251
77589NA+    NA+39252  40.985  42.343  12.364
77590NA+    NA+39253  43.968  41.328   1.445
77591NA+    NA+39254   4.257   5.857   1.762
77592NA+    NA+39255  12.322  43.282  13.954
77593NA+    NA+39256  18.606  16.217  14.318
77594NA+    NA+39257  38.847  44.977   1.903
77595NA+    NA+39258  27.485  40.507   0.790
77596NA+    NA+39259   6.731  33.076   1.798
77597NA+    NA+39260   3.804  32.514   0.342
77598NA+    NA+39261  41.349  24.094  14.952
77599NA+    NA+39262   6.228   6.197  12.944
77600NA+    NA+39263   3.309  44.964  12.947
77601NA+    NA+39264   9.310  15.113  12.992
77602NA+    NA+39265  35.967  11.226   3.730
77603NA+    NA+39266  37.506  28.557   1.888
77604NA+    NA+39267  19.077  25.021   4.709
77605NA+    NA+39268   8.383  33.031  12.999
77606NA+    NA+39269  16.197  23.716  14.977
77607NA+    NA+39270  18.697  23.712   1.431
77608NA+    NA+39271  11.796  17.109   3.163
77609NA+    NA+39272  41.529   3.320   2.364
77610NA+    NA+39273  10.857  26.156   2.804
77611NA+    NA+39274   6.843  16.150  12.074
77612NA+    NA+39275  43.299  36.959   1.903
77613NA+    NA+39276  13.312  31.993   5.126
77614NA+    NA+39277   2.823  19.538   0.727
77615NA+    NA+39278  41.794  13.231  13.881
77616NA+    NA+39279  37.898  28.017  12.082
77617NA+    NA+39280  23.675  37.990   0.293
77618NA+    NA+39281  37.506  20.765   0.440
77619NA+    NA+39282   9.254   6.721  10.889
77620NA+    NA+39283  12.145  24.524   0.344
77621NA+    NA+39284  10.872  10.771  12.973
77622NA+    NA+39285  40.846  38.402   0.456
77623NA+    NA+39286   2.353  34.521  10.892
77624NA+    NA+39287  36.964  22.119  11.495
77625NA+    NA+39288  31.140   0.297   3.261
77626NA+    NA+39289  11.847  14.112  13.990
77627NA+    NA+39290  15.166   5.744  13.900
77628NA+    NA+39291   5.878  12.358   2.787
77629NA+    NA+39292  29.019  10.236   1.388
77630NA+    NA+39293   9.359   0.746   3.633
77631NA+    NA+39294   9.302  28.457   0.914
77632NA+    NA+39295  21.189  16.133  12.862
77633NA+    NA+39296   3.348   5.823  10.988
77634NA+    NA+39297  24.158  42.968   4.757
77635NA+    NA+39298   9.353  30.548  10.505
77636NA+    NA+39299  14.306  26.136  10.595
77637NA+    NA+39300  42.888   5.209  11.967
77638NA+    NA+39301  25.711   7.304   2.674
77639NA+    NA+39302  36.543  21.087   2.277
77640NA+    NA+39303   5.692  19.536  13.055
77641NA+    NA+39304  12.229  29.477  12.423
77642NA+    NA+39305  17.221  31.132   0.418
77643NA+    NA+39306  36.464  18.729  14.024
77644NA+    NA+39307  18.292  23.683   3.237
77645NA+    NA+39308  42.995  25.070   2.311
77646NA+    NA+39309  34.541   9.823  10.583
77647NA+    NA+39310  36.368  25.147   2.877
77648NA+    NA+39311  21.117  42.397  13.822
77649NA+    NA+39312  20.548   8.665   0.326
77650NA+    NA+39313   8.241  22.089   1.872
77651NA+    NA+39314   2.239  18.269  12.861
77652NA+    NA+39315  31.564   3.327   3.645
77653NA+    NA+39316   1.320  17.064  14.454
77654NA+    NA+39317  40.957  18.577  14.027
77655NA+    NA+39318  27.014   1.295   4.686
77656NA+    NA+39319  17.571  34.041  14.020
77657NA+    NA+39320  26.674  39.473   1.404
77658NA+    NA+39321   6.336  34.587  14.889
77659NA+    NA+39322  14.160  15.747   0.938
77660NA+    NA+39323  32.991  38.916  14.970
77661NA+    NA+39324  42.477  32.108  11.473
77662NA+    NA+39325  35.444  39.515   4.179
77663NA+    NA+39326   6.285  30.444  11.422
77664NA+    NA+39327  20.113  23.617   0.967
77665NA+    NA+39328  13.139  28.440   4.692
77666NA+    NA+39329   5.731  22.124   4.167
77667NA+    NA+39330   3.254  26.102   3.271
77668NA+    NA+39331  21.160  40.371   1.880
77669NA+    NA+39332   7.675  10.149  10.507
77670NA+    NA+39333  13.246  22.558   2.329
77671NA+    NA+39334  31.020  33.388   1.870
77672NA+    NA+39335  36.879  33.405  10.933
77673NA+    NA+39336  36.920   0.333   3.644
77674NA+    NA+39337  36.967   0.260   3.272
77675NA+    NA+39338  40.406  34.481  10.998
77676NA+    NA+39339  12.318  17.167  11.557
77677NA+    NA+39340  36.931   2.414  13.418
77678NA+    NA+39341  22.139  44.825  14.764
77679NA+    NA+39342  11.676  16.315   1.319
77680NA+    NA+39343  32.928  14.141   2.393
77681NA+    NA+39344  10.875   3.387   4.632
77682NA+    NA+39345  42.468  25.561   1.420
77683NA+    NA+39346  25.689  26.610   0.939
77684NA+    NA+39347  44.774  34.495  12.883
77685NA+    NA+39348  24.058  15.783   1.423
77686NA+    NA+39349  34.909  21.040  14.294
77687NA+    NA+39350   2.772  27.041   1.295
77688NA+    NA+39351  22.022  20.675  13.994
77689NA+    NA+39352   6.300  16.569  12.339
77690NA+    NA+39353  24.085  34.049  12.845
77691NA+    NA+39354   6.864   2.252  10.441
77692NA+    NA+39355  11.307  11.755   2.683
77693NA+    NA+39356  39.865  42.007   0.788
77694NA+    NA+39357  13.736  11.779  10.891
77695NA+    NA+39358   1.291  41.935  11.008
77696NA+    NA+39359  23.097  40.941  14.942
77697NA+    NA+39360  18.294  27.635  14.831
77698NA+    NA+39361   5.810  25.132  13.317
77699NA+    NA+39362  14.809  39.865  14.806
77700NA+    NA+39363   3.914   4.837   1.449
77701NA+    NA+39364  21.021  39.880  13.043
77702NA+    NA+39365  27.965  12.767  11.020
77703NA+    NA+39366   5.756  35.001  13.393
77704NA+    NA+39367  38.843   1.425   1.747
77705NA+    NA+39368   5.328   9.254   4.256
77706NA+    NA+39369  10.161  20.727  11.408
77707NA+    NA+39370  38.892   1.242   2.323
77708NA+    NA+39371  38.336  38.365  12.493
77709NA+    NA+39372  21.249  14.721   4.760
77710NA+    NA+39373  36.475  30.525   4.607
77711NA+    NA+39374  23.134  19.278   3.713
77712NA+    NA+39375   5.307  37.011   2.187
77713NA+    NA+39376  32.995  13.769  13.323
77714NA+    NA+39377   5.397  39.983   3.326
77715NA+    NA+39378  20.563   5.193  13.533
77716NA+    NA+39379   5.932   5.224   2.846
77717NA+    NA+39380  35.604   7.229  14.332
77718NA+    NA+39381   9.779   1.885  14.391
77719NA+    NA+39382   4.713   7.406   0.963
77720NA+    NA+39383  22.144  21.635  11.511
77721NA+    NA+39384  24.007   2.443  12.560
77722NA+    NA+39385  37.021  30.085  11.127
77723NA+    NA+39386  38.867  44.875  12.084
77724NA+    NA+39387  31.414  19.641  10.937
77725NA+    NA+39388   3.314   7.763   3.300
77726NA+    NA+39389  36.376   0.928  11.542
77727NA+    NA+39390  24.979  43.292   2.354
77728NA+    NA+39391   9.248  20.767   2.229
77729NA+    NA+39392   2.827  22.008   3.677
77730NA+    NA+39393   3.289   1.788  13.803
77731NA+    NA+39394  15.624   7.790   1.865
77732NA+    NA+39395  30.564  29.075  13.850
77733NA+    NA+39396  37.900  40.858   2.882
77734NA+    NA+39397  41.835  40.858  14.996
77735NA+    NA+39398  40.893  11.305  14.896
77736NA+    NA+39399  10.305  16.181  11.499
77737NA+    NA+39400  37.839  16.086  11.903
77738NA+    NA+39401  28.998  14.325   3.669
77739NA+    NA+39402  11.288  37.836   0.743
77740NA+    NA+39403  35.924  24.105   0.362
77741NA+    NA+39404  23.156  40.956   4.273
77742NA+    NA+39405  30.148  22.180   0.421
77743NA+    NA+39406  22.730  36.889   0.267
77744NA+    NA+39407  18.605  27.154   1.736
77745NA+    NA+39408  28.580  22.173  13.413
77746NA+    NA+39409  42.835  30.470  11.556
77747NA+    NA+39410  28.544  34.107  11.374
77748NA+    NA+39411  19.720  38.064   1.421
77749NA+    NA+39412  32.970  41.363  10.456
77750NA+    NA+39413  24.015  16.239  14.864
77751NA+    NA+39414   3.932  44.888   2.843
77752NA+    NA+39415  27.988   6.783   3.734
77753NA+    NA+39416  32.473  22.704   0.379
77754NA+    NA+39417  28.133  39.964   1.760
77755NA+    NA+39418  36.094  44.852   3.799
77756NA+    NA+39419  10.792  16.164  14.982
77757NA+    NA+39420  30.927   0.302   4.639
77758NA+    NA+39421  20.641   4.739   3.801
77759NA+    NA+39422  26.463  13.217   0.276
77760NA+    NA+39423  24.024  16.137   1.874
77761NA+    NA+39424  11.695   9.772  11.486
77762NA+    NA+39425  12.623  26.673   4.137
77763NA+    NA+39426  29.446   8.742   4.187
77764NA+    NA+39427  18.717  40.894   1.262
77765NA+    NA+39428  18.667   4.414  10.454
77766NA+    NA+39429  32.109  25.972   2.209
77767NA+    NA+39430   8.300  24.062   0.370
77768NA+    NA+39431  27.495  30.024  12.429
77769NA+    NA+39432  23.093  24.568  13.929
77770NA+    NA+39433  42.963  24.148  14.979
77771NA+    NA+39434  25.705  28.602  10.118
77772NA+    NA+39435  13.780  23.525  14.925
77773NA+    NA+39436  38.410  27.074  11.963
77774NA+    NA+39437  19.154  30.127  14.967
77775NA+    NA+39438   6.221  35.469  12.551
77776NA+    NA+39439  32.891   5.728  10.517
77777NA+    NA+39440  15.120  13.633  14.978
77778NA+    NA+39441  21.639  34.570  13.473
77779NA+    NA+39442  42.882   6.254   0.759
77780NA+    NA+39443  26.120  42.312   4.793
77781NA+    NA+39444  11.852   5.816   0.445
77782NA+    NA+39445  20.215  30.436  10.511
77783NA+    NA+39446   9.337   8.764   3.318
77784NA+    NA+39447  43.830  41.787   0.366
77785NA+    NA+39448   1.250  28.439   0.920
77786NA+    NA+39449  19.608  38.513  11.548
77787NA+    NA+39450   3.410  32.464   1.447
77788NA+    NA+39451  19.746  14.246  11.892
77789NA+    NA+39452  18.206  12.322   1.392
77790NA+    NA+39453   4.442   8.249   0.438
77791NA+    NA+39454   7.905  24.646  14.778
77792NA+    NA+39455  35.059  36.877   0.933
77793NA+    NA+39456  35.866   4.290   1.321
77794NA+    NA+39457  26.178  33.919  13.949
77795NA+    NA+39458  36.460  43.853   4.323
77796NA+    NA+39459  38.428  44.781  11.560
77797NA+    NA+39460   1.824  38.903  11.402
77798NA+    NA+39461  44.792  37.988   3.833
77799NA+    NA+39462  35.098  32.114   1.402
77800NA+    NA+39463  24.616  29.509  11.468
77801NA+    NA+39464  30.534  17.124  12.451
77802NA+    NA+39465   4.854  38.993   2.418
77803NA+    NA+39466  37.885   2.958  10.888
77804NA+    NA+39467  18.639  18.578   4.193
77805NA+    NA+39468  16.258  13.141   5.176
77806NA+    NA+39469  43.290  13.735  14.433
77807NA+    NA+39470  10.871  18.620   1.730
77808NA+    NA+39471  27.970  26.055  13.844
77809NA+    NA+39472  21.533   4.213  12.943
77810NA+    NA+39473   1.811   6.759  14.460
77811NA+    NA+39474   7.819  33.970  14.486
77812NA+    NA+39475  15.783  28.049  12.434
77813NA+    NA+39476  20.134  26.576   1.796
77814NA+    NA+39477  15.676   8.759  13.522
77815NA+    NA+39478  38.917  12.228   3.343
77816NA+    NA+39479  21.563  18.243  10.563
77817NA+    NA+39480   3.839  13.639  10.418
77818NA+    NA+39481  15.586  35.077  11.053
77819NA+    NA+39482  28.033  21.714  10.038
77820NA+    NA+39483  17.249   0.275  10.638
77821NA+    NA+39484   1.752  41.035  13.893
77822NA+    NA+39485   7.201  14.610  11.858
77823NA+    NA+39486  22.627   1.374   4.609
77824NA+    NA+39487  26.674  32.473   4.191
77825NA+    NA+39488  23.058   0.838   5.221
77826NA+    NA+39489  13.643  31.116   4.249
77827NA+    NA+39490  35.519  43.479  12.373
77828NA+    NA+39491  32.500  37.568   0.950
77829NA+    NA+39492   1.331  42.792  10.486
77830NA+    NA+39493   8.229  35.867   4.698
77831NA+    NA+39494  14.827  23.582  10.448
77832NA+    NA+39495  18.094   8.872  14.922
77833NA+    NA+39496  16.252  42.896  11.431
77834NA+    NA+39497  17.653  26.092  14.427
77835NA+    NA+39498  21.578  41.427   1.888
77836NA+    NA+39499   7.411   1.876   3.287
77837NA+    NA+39500  26.009   4.404  12.549
77838NA+    NA+39501  36.587  18.604  14.980
77839NA+    NA+39502  11.180  32.025   4.674
77840NA+    NA+39503   7.235  38.980  12.886
77841NA+    NA+39504  33.952   0.436  13.412
77842NA+    NA+39505  42.886  33.617   0.749
77843NA+    NA+39506  29.921   8.266  10.434
77844NA+    NA+39507  32.901  37.471  12.450
77845NA+    NA+39508   6.362   2.859  11.593
77846NA+    NA+39509  23.492  34.595   1.866
77847NA+    NA+39510   7.836   9.848   2.836
77848NA+    NA+39511  12.712   6.343   0.748
77849NA+    NA+39512  38.341  28.102   3.690
77850NA+    NA+39513  28.133   4.858  14.778
77851NA+    NA+39514   1.304  22.049   2.276
77852NA+    NA+39515   4.261  13.174   0.312
77853NA+    NA+39516  41.465   6.858  12.882
77854NA+    NA+39517  26.553  31.604   0.275
77855NA+    NA+39518  40.837  42.001  14.442
77856NA+    NA+39519  34.089  20.668  14.809
77857NA+    NA+39520  44.858  37.399   1.848
77858NA+    NA+39521  20.100  43.816  11.930
77859NA+    NA+39522  12.182  25.666   4.300
77860NA+    NA+39523  43.806  14.794   3.728
77861NA+    NA+39524   5.399  41.822   3.199
77862NA+    NA+39525  36.968  18.733   1.366
77863NA+    NA+39526  36.986  36.048  12.076
77864NA+    NA+39527  17.206  33.427   3.186
77865NA+    NA+39528  24.517   1.871  14.418
77866NA+    NA+39529  22.174  39.497  14.476
77867NA+    NA+39530  31.461  41.527   4.693
77868NA+    NA+39531  23.500  23.622   4.723
77869NA+    NA+39532  21.122  40.480  13.340
77870NA+    NA+39533  14.745  17.122   4.694
77871NA+    NA+39534  28.605  18.590  11.525
77872NA+    NA+39535   8.817  25.138  12.003
77873NA+    NA+39536  44.431  23.548  11.983
77874NA+    NA+39537  19.665  24.229   2.335
77875NA+    NA+39538  11.220  17.714   3.317
77876NA+    NA+39539  17.169   5.314   0.821
77877NA+    NA+39540  38.043  17.598  13.985
77878NA+    NA+39541  22.608  29.639  13.461
77879NA+    NA+39542  37.029  39.493  13.445
77880NA+    NA+39543  15.772  40.948   2.790
77881NA+    NA+39544  18.186  23.201  12.043
77882NA+    NA+39545  10.676  39.929   1.341
77883NA+    NA+39546  24.135  31.576   2.844
77884NA+    NA+39547  32.516  29.447   3.234
77885NA+    NA+39548  14.314  35.041   5.233
77886NA+    NA+39549   5.901  39.985   3.856
77887NA+    NA+39550  34.090  12.269   4.787
77888NA+    NA+39551  17.268  25.705  14.017
77889NA+    NA+39552  32.589  23.152  13.482
77890NA+    NA+39553  28.058   3.280   5.143
77891NA+    NA+39554  29.960  15.114  12.946
77892NA+    NA+39555   7.211   9.178  10.484
77893NA+    NA+39556   4.807   4.809  10.902
77894NA+    NA+39557  32.535   1.926   2.304
77895NA+    NA+39558  34.905   3.902   2.732
77896NA+    NA+39559   2.352  20.546  11.564
77897NA+    NA+39560   0.891   3.268  10.423
77898NA+    NA+39561  20.106  22.631  12.526
77899NA+    NA+39562  10.364   7.873  13.461
77900NA+    NA+39563  25.153  23.156  10.483
77901NA+    NA+39564  27.970  39.479   0.398
77902NA+    NA+39565   8.883   2.747   3.675
77903NA+    NA+39566  34.956   5.332   3.758
77904NA+    NA+39567  21.231  11.175  13.342
77905NA+    NA+39568  11.250  26.634  11.539
77906NA+    NA+39569  24.490  15.753  12.058
77907NA+    NA+39570  39.525   9.753   0.774
77908NA+    NA+39571  12.848  32.970  14.768
77909NA+    NA+39572  42.365  20.674   4.353
77910NA+    NA+39573  43.985  42.512   1.264
77911NA+    NA+39574   2.282  11.833   2.386
77912NA+    NA+39575  21.229   0.348   1.753
77913NA+    NA+39576  10.870  30.652   3.178
77914NA+    NA+39577   5.734  32.518  14.031
77915NA+    NA+39578  26.458   9.871  13.499
77916NA+    NA+39579   5.382  20.682  12.345
77917NA+    NA+39580  32.061  21.062   2.282
77918NA+    NA+39581   3.437   2.432  14.300
77919NA+    NA+39582  36.591  22.578  11.940
77920NA+    NA+39583  39.026  18.166  12.020
77921NA+    NA+39584   2.867  37.908   0.409
77922NA+    NA+39585   7.416  22.609  11.044
77923NA+    NA+39586   9.679   4.878  13.869
77924NA+    NA+39587   7.893  17.119   2.381
77925NA+    NA+39588  42.523  17.188   1.790
77926NA+    NA+39589  18.244  13.682  12.418
77927NA+    NA+39590  18.760   6.820   2.203
77928NA+    NA+39591  29.543  21.627  12.861
77929NA+    NA+39592   0.362  44.359  11.449
77930NA+    NA+39593  22.010   8.659  14.512
77931NA+    NA+39594   5.810  33.890   0.306
77932NA+    NA+39595  29.655  13.762   0.385
77933NA+    NA+39596  38.858  35.538  13.498
77934NA+    NA+39597  17.727   1.376  10.476
77935NA+    NA+39598   5.881  38.364  12.421
77936NA+    NA+39599  42.900  37.372  11.868
77937NA+    NA+39600   7.896  16.780   9.963
77938NA+    NA+39601  24.106  40.409  13.906
77939NA+    NA+39602  25.637  25.551  14.758
77940NA+    NA+39603  19.123  22.662   3.261
77941NA+    NA+39604  24.084  34.094  14.417
77942NA+    NA+39605  44.382  37.046   2.210
77943NA+    NA+39606   8.854  17.120   3.378
77944NA+    NA+39607  41.412  20.030  13.396
77945NA+    NA+39608   2.339   9.687  11.047
77946NA+    NA+39609  11.855   6.351  10.462
77947NA+    NA+39610   6.815   5.215  10.485
77948NA+    NA+39611  18.680  23.181  13.956
77949NA+    NA+39612   0.984  28.956   0.465
77950NA+    NA+39613  10.193  35.590   1.409
77951NA+    NA+39614  11.799  36.549  14.865
77952NA+    NA+39615  40.527  28.015  11.050
77953NA+    NA+39616   1.918  27.607  12.551
77954NA+    NA+39617  35.103  36.485  13.960
77955NA+    NA+39618  44.920  39.865  13.800
77956NA+    NA+39619  11.792   6.815  11.509
77957NA+    NA+39620  35.456   2.771  10.491
77958NA+    NA+39621   6.206  14.253  10.065
77959NA+    NA+39622   6.326  16.157   1.296
77960NA+    NA+39623  38.421  37.388   3.240
77961NA+    NA+39624  43.375  21.739  11.515
77962NA+    NA+39625  34.911   7.188  14.847
77963NA+    NA+39626   8.381   6.262   0.864
77964NA+    NA+39627  42.833  13.730  14.976
77965NA+    NA+39628  28.975   9.196  14.767
77966NA+    NA+39629  16.700  10.359   0.383
77967NA+    NA+39630  13.153  20.198  12.554
77968NA+    NA+39631  22.143   9.215   0.926
77969NA+    NA+39632  13.786   7.339  14.983
77970NA+    NA+39633  23.124   2.874   4.296
77971NA+    NA+39634  26.141  10.826  14.963
77972NA+    NA+39635   5.786  21.063  13.512
77973NA+    NA+39636   2.395  10.330   2.803
77974NA+    NA+39637  31.917   5.428   3.858
77975NA+    NA+39638  38.929   7.887  14.364
77976NA+    NA+39639   2.252  33.095  14.030
77977NA+    NA+39640   4.789  18.173  11.027
77978NA+    NA+39641   5.374  27.134  13.994
77979NA+    NA+39642   6.409  11.716  13.050
77980NA+    NA+39643   0.406   7.828  10.994
77981NA+    NA+39644  29.544   5.922   2.403
77982NA+    NA+39645   3.774   2.317  11.464
77983NA+    NA+39646  27.148  26.987   0.906
77984NA+    NA+39647  43.891  21.071   2.680
77985NA+    NA+39648  36.985   0.378  14.839
77986NA+    NA+39649  38.333  25.469  12.562
77987NA+    NA+39650   4.310  20.560   0.388
77988NA+    NA+39651   7.707  12.747  14.341
77989NA+    NA+39652  15.253  10.273   4.201
77990NA+    NA+39653  41.335  43.868   4.240
77991NA+    NA+39654  23.660  10.217   0.741
77992NA+    NA+39655   1.736  16.606   0.256
77993NA+    NA+39656   2.309  25.494   3.819
77994NA+    NA+39657  31.107  31.102   3.860
77995NA+    NA+39658  23.062  26.664   5.155
77996NA+    NA+39659  11.771   7.892   2.345
77997NA+    NA+39660   9.245   4.435  10.607
77998NA+    NA+39661  27.066  38.048   2.396
77999NA+    NA+39662   8.242  34.946  13.827
78000NA+    NA+39663  43.484  18.239  11.062
78001NA+    NA+39664  42.788  20.656  13.531
78002NA+    NA+39665   1.311   5.302   3.644
78003NA+    NA+39666   8.303  10.176  10.944
78004NA+    NA+39667  25.708   6.330  12.564
78005NA+    NA+39668   7.716  16.210  10.549
78006NA+    NA+39669   9.287  23.053   1.889
78007NA+    NA+39670  40.464  40.848  13.894
78008NA+    NA+39671   8.353   6.336   4.257
78009NA+    NA+39672  38.858   9.232  12.422
78010NA+    NA+39673   9.324  29.577   0.896
78011NA+    NA+39674  15.238  43.400  12.474
78012NA+    NA+39675  32.949  12.217   3.377
78013NA+    NA+39676   9.882  19.610  12.456
78014NA+    NA+39677  37.987   9.794   4.210
78015NA+    NA+39678  34.397  14.775   0.340
78016NA+    NA+39679  39.343  16.606   3.793
78017NA+    NA+39680  26.037  26.169  14.985
78018NA+    NA+39681  35.990  10.838   1.924
78019NA+    NA+39682   7.669  12.351  13.471
78020NA+    NA+39683  17.751  28.545   0.262
78021NA+    NA+39684   5.378  21.737   3.792
78022NA+    NA+39685  20.664  39.540  11.123
78023NA+    NA+39686  25.042  31.113  12.942
78024NA+    NA+39687   1.822   7.277  14.308
78025NA+    NA+39688  16.093   2.297   0.832
78026NA+    NA+39689  13.130  21.069   0.308
78027NA+    NA+39690  18.549  21.661  12.914
78028NA+    NA+39691  18.590  21.026   3.762
78029NA+    NA+39692   3.356  26.510   0.835
78030NA+    NA+39693   3.399  43.835  13.461
78031NA+    NA+39694   9.261   0.786  10.055
78032NA+    NA+39695  43.327  35.566   4.775
78033NA+    NA+39696  39.422  12.310   2.396
78034NA+    NA+39697  40.019  36.909   4.760
78035NA+    NA+39698  28.486   4.256   0.396
78036NA+    NA+39699  44.498   4.208   0.935
78037NA+    NA+39700  27.028  17.722  12.573
78038NA+    NA+39701  41.455   2.757   0.306
78039NA+    NA+39702  38.377  37.075   3.202
78040NA+    NA+39703   0.822   7.884  12.057
78041NA+    NA+39704  39.909  40.984   1.316
78042NA+    NA+39705  17.180  39.344   2.372
78043NA+    NA+39706   1.792  13.301  11.428
78044NA+    NA+39707  41.370  35.006  11.402
78045NA+    NA+39708   6.428   3.248  13.917
78046NA+    NA+39709   4.900  30.651   4.805
78047NA+    NA+39710  39.494   5.408  12.402
78048NA+    NA+39711  20.662  11.347  14.956
78049NA+    NA+39712  23.707  39.545   1.860
78050NA+    NA+39713  37.374  37.883  12.035
78051NA+    NA+39714   5.377  29.972  14.326
78052NA+    NA+39715  10.719  16.795  14.892
78053NA+    NA+39716  26.996   6.217  12.998
78054NA+    NA+39717  31.418  11.282   3.714
78055NA+    NA+39718  26.463  34.439   3.211
78056NA+    NA+39719  43.399  23.057  13.016
78057NA+    NA+39720  39.389   6.685   4.231
78058NA+    NA+39721   7.198   5.729  14.319
78059NA+    NA+39722  37.979   4.744  13.923
78060NA+    NA+39723   2.285  40.926  13.473
78061NA+    NA+39724   7.756  22.093   1.798
78062NA+    NA+39725  10.239  14.274  12.400
78063NA+    NA+39726  42.356  30.962  14.311
78064NA+    NA+39727  32.423  41.440  10.513
78065NA+    NA+39728   2.891   3.927  10.445
78066NA+    NA+39729  31.986   8.806  10.482
78067NA+    NA+39730  42.820  16.758   0.396
78068NA+    NA+39731  34.029  19.189  11.869
78069NA+    NA+39732   0.961   8.306   0.410
78070NA+    NA+39733  14.125   8.897  14.989
78071NA+    NA+39734  23.118  14.277   0.291
78072NA+    NA+39735  30.517  19.039   4.205
78073NA+    NA+39736  10.837  27.075  13.834
78074NA+    NA+39737  22.684  43.421   2.315
78075NA+    NA+39738  34.386  15.099  11.065
78076NA+    NA+39739   2.435   3.282  12.092
78077NA+    NA+39740  30.559  36.378   4.221
78078NA+    NA+39741   1.300   0.932   1.352
78079NA+    NA+39742   7.362  42.332   1.767
78080NA+    NA+39743   9.671  43.343  10.590
78081NA+    NA+39744  24.117   2.300   1.278
78082NA+    NA+39745  14.666  29.624   2.282
78083NA+    NA+39746   7.216  36.448   1.839
78084NA+    NA+39747  36.916   1.977   0.280
78085NA+    NA+39748  44.860  22.559   3.383
78086NA+    NA+39749   4.403  39.445   3.307
78087NA+    NA+39750   8.225   1.273   4.818
78088NA+    NA+39751  42.283  21.156  13.826
78089NA+    NA+39752   0.286  16.106   0.886
78090NA+    NA+39753   4.205  26.579   2.835
78091NA+    NA+39754  30.633  43.782  11.025
78092NA+    NA+39755  14.158  24.174  13.545
78093NA+    NA+39756  23.180  23.192  13.459
78094NA+    NA+39757  39.556  42.916   4.708
78095NA+    NA+39758  12.722   8.888  11.375
78096NA+    NA+39759   1.344  44.441   4.608
78097NA+    NA+39760  20.529  38.360   2.407
78098NA+    NA+39761  13.221  35.967   0.294
78099NA+    NA+39762   0.888  35.550   2.408
78100NA+    NA+39763   4.782  13.761  14.473
78101NA+    NA+39764   3.400  17.125   3.161
78102NA+    NA+39765  43.942  32.606  11.487
78103NA+    NA+39766   9.194   7.269  13.017
78104NA+    NA+39767  22.995   1.443   9.453
78105NA+    NA+39768   4.300   0.349  12.425
78106NA+    NA+39769  29.620  42.351  12.490
78107NA+    NA+39770   0.869   8.386  14.015
78108NA+    NA+39771  35.441   6.355  14.796
78109NA+    NA+39772  24.608  30.579  12.475
78110NA+    NA+39773  21.181  12.828   4.802
78111NA+    NA+39774   6.767  20.589   0.455
78112NA+    NA+39775  16.685  42.842   1.406
78113NA+    NA+39776  42.516  38.362   2.416
78114NA+    NA+39777   5.245  20.138  13.540
78115NA+    NA+39778  23.122  43.293  11.606
78116NA+    NA+39779  37.055  14.733   1.214
78117NA+    NA+39780  37.869  12.722   4.290
78118NA+    NA+39781  33.876  33.436   2.285
78119NA+    NA+39782  38.831   4.916  11.453
78120NA+    NA+39783  18.213  35.022  11.118
78121NA+    NA+39784  43.941   1.865   0.922
78122NA+    NA+39785  27.983  31.599  10.455
78123NA+    NA+39786  22.598   0.915   3.249
78124NA+    NA+39787  32.934  28.459   3.274
78125NA+    NA+39788  24.630   1.748   4.747
78126NA+    NA+39789  14.752  25.200  11.593
78127NA+    NA+39790  18.191   6.922   1.351
78128NA+    NA+39791  39.517  30.161  11.550
78129NA+    NA+39792  18.648  42.415  11.089
78130NA+    NA+39793  29.617   2.310   0.750
78131NA+    NA+39794   1.933  10.258  14.806
78132NA+    NA+39795  34.379   7.821  11.019
78133NA+    NA+39796  18.765  34.036   4.220
78134NA+    NA+39797   3.332  32.937  11.534
78135NA+    NA+39798  42.521   3.444  13.356
78136NA+    NA+39799  43.957  19.218  14.001
78137NA+    NA+39800  21.748  37.530  14.898
78138NA+    NA+39801  34.513  13.128  14.293
78139NA+    NA+39802  33.590   2.454   3.198
78140NA+    NA+39803  38.854  41.961  10.993
78141NA+    NA+39804  25.594  36.527  10.606
78142NA+    NA+39805   4.247  17.073   0.782
78143NA+    NA+39806   0.262  11.201  14.777
78144NA+    NA+39807  37.002  40.959  14.797
78145NA+    NA+39808   6.709  33.113  14.932
78146NA+    NA+39809   2.954  29.632  10.468
78147NA+    NA+39810   3.944  20.641  11.407
78148NA+    NA+39811  24.591  27.978  13.995
78149NA+    NA+39812  12.352   1.926   4.286
78150NA+    NA+39813  12.824   0.279   4.731
78151NA+    NA+39814  36.923  40.030  13.464
78152NA+    NA+39815  36.057  36.919   4.124
78153NA+    NA+39816  31.974   6.723  14.962
78154NA+    NA+39817  15.092  29.648  12.016
78155NA+    NA+39818  22.685  22.102  12.019
78156NA+    NA+39819  17.160   5.736   1.792
78157NA+    NA+39820  25.004   0.333   3.653
78158NA+    NA+39821   4.450  36.874   2.180
78159NA+    NA+39822  14.592  10.162   3.709
78160NA+    NA+39823  43.489  38.377  13.519
78161NA+    NA+39824  30.601  30.163   1.929
78162NA+    NA+39825  14.660  11.720   0.444
78163NA+    NA+39826  34.076  39.323   3.325
78164NA+    NA+39827   6.224   5.197   0.778
78165NA+    NA+39828  32.906   4.904  11.090
78166NA+    NA+39829  34.569  12.655  12.018
78167NA+    NA+39830  42.356   5.765  10.635
78168NA+    NA+39831   2.725  10.788   1.831
78169NA+    NA+39832  20.187  38.405   4.122
78170NA+    NA+39833  31.046  11.273   0.426
78171NA+    NA+39834   4.823  36.568  10.542
78172NA+    NA+39835   4.718   6.837   1.278
78173NA+    NA+39836  43.345  22.696  10.119
78174NA+    NA+39837  36.407  38.909  10.134
78175NA+    NA+39838  12.193  12.725  14.837
78176NA+    NA+39839  23.122   9.332   4.750
78177NA+    NA+39840  43.347  33.921  11.383
78178NA+    NA+39841  41.844  33.049   0.792
78179NA+    NA+39842  29.616  16.206  10.615
78180NA+    NA+39843  18.611   8.284   2.347
78181CL-    CL-39844  41.879  44.886   4.794
78182CL-    CL-39845  24.069  12.644   1.767
78183CL-    CL-39846  35.896   7.196   1.694
78184CL-    CL-39847  15.670  30.546  13.054
78185CL-    CL-39848  34.534   5.217   2.733
78186CL-    CL-39849  44.845  30.414  11.472
78187CL-    CL-39850  25.683  37.356   1.864
78188CL-    CL-39851  27.594  11.777  11.561
78189CL-    CL-39852  40.967  14.664  13.356
78190CL-    CL-39853  42.409  24.588  14.972
78191CL-    CL-39854   8.726  26.579   2.390
78192CL-    CL-39855   5.842  24.576   0.777
78193CL-    CL-39856   4.939  12.846   4.769
78194CL-    CL-39857  28.439  15.772   1.305
78195CL-    CL-39858  10.760  32.987  10.979
78196CL-    CL-39859  17.796   1.257  12.922
78197CL-    CL-39860  41.884  23.660  10.010
78198CL-    CL-39861  26.962  21.137  13.513
78199CL-    CL-39862   7.812  42.356  11.438
78200CL-    CL-39863  11.233  39.056  10.127
78201CL-    CL-39864  20.524  13.220   9.962
78202CL-    CL-39865   6.411  33.054   4.817
78203CL-    CL-39866  40.534   9.685   3.291
78204CL-    CL-39867  37.478   0.876  11.936
78205CL-    CL-39868   7.736  32.551  12.037
78206CL-    CL-39869  41.011  15.284   2.806
78207CL-    CL-39870  28.514  41.503   1.444
78208CL-    CL-39871   0.960   0.344  10.900
78209CL-    CL-39872  15.142  44.978   2.693
78210CL-    CL-39873  30.980  28.129   2.674
78211CL-    CL-39874  32.028  17.233  11.855
78212CL-    CL-39875  40.485  20.064  13.445
78213CL-    CL-39876  13.189  11.807  14.327
78214CL-    CL-39877  22.677  20.226   1.212
78215CL-    CL-39878  35.553  20.590   4.267
78216CL-    CL-39879   6.780  41.510  14.761
78217CL-    CL-39880  21.136  35.888  12.006
78218CL-    CL-39881  41.359  20.626   1.892
78219CL-    CL-39882  13.238  17.581  14.374
78220CL-    CL-39883  36.530   7.693  12.483
78221CL-    CL-39884  17.743  40.865   4.618
78222CL-    CL-39885  29.514  19.688  11.481
78223CL-    CL-39886  38.831  32.990  14.476
78224CL-    CL-39887  26.682  16.141  14.339
78225CL-    CL-39888  34.387  41.823  14.970
78226CL-    CL-39889   2.327  44.505   3.722
78227CL-    CL-39890  41.947   2.440  13.943
78228CL-    CL-39891   3.720   4.829   4.645
78229CL-    CL-39892   3.713  17.697   0.779
78230CL-    CL-39893  32.574  17.615  11.972
78231CL-    CL-39894   3.755  21.184  12.346
78232CL-    CL-39895   5.221  25.215   4.813
78233CL-    CL-39896  17.153  37.075   0.945
78234CL-    CL-39897   8.815  10.809  11.500
78235CL-    CL-39898  43.812   7.253   2.347
78236CL-    CL-39899  27.059  24.999  14.923
78237CL-    CL-39900  42.376   1.974  12.399
78238CL-    CL-39901  33.908  35.570   1.343
78239CL-    CL-39902  12.774   4.422  12.373
78240CL-    CL-39903   4.914   9.763  14.016
78241CL-    CL-39904   9.344  43.366   2.251
78242CL-    CL-39905  35.410  44.929   1.737
78243CL-    CL-39906  10.368  39.355   0.260
78244CL-    CL-39907  14.605  39.809   5.185
78245CL-    CL-39908  18.756  37.075  12.871
78246CL-    CL-39909  44.427  39.053   1.314
78247CL-    CL-39910  16.241  15.187  13.314
78248CL-    CL-39911  15.700  40.536  14.366
78249CL-    CL-39912  17.795   9.646   3.769
78250CL-    CL-39913   9.230  44.310   3.204
78251CL-    CL-39914  27.637  30.636  11.985
78252CL-    CL-39915  12.742  36.975  13.802
78253CL-    CL-39916  29.001  18.081  14.785
78254CL-    CL-39917  42.355  38.869   2.735
78255CL-    CL-39918  19.604  24.107   0.962
78256CL-    CL-39919  20.585   6.293   1.398
78257CL-    CL-39920   0.473   5.783  10.465
78258CL-    CL-39921  19.227   6.340  13.481
78259CL-    CL-39922   9.700   1.256  13.535
78260CL-    CL-39923   7.213   2.853  11.465
78261CL-    CL-39924  34.431   6.193  11.473
78262CL-    CL-39925  33.453  11.197  13.967
78263CL-    CL-39926  34.995  38.975  10.918
78264CL-    CL-39927  31.424  15.596  11.073
78265CL-    CL-39928  23.022  25.153   4.260
78266CL-    CL-39929  33.938  15.169  11.905
78267CL-    CL-39930  24.114  13.621  10.518
78268CL-    CL-39931  18.546  43.880   4.711
78269CL-    CL-39932  10.709  31.063  14.838
78270CL-    CL-39933  34.056  25.681   0.838
78271CL-    CL-39934  30.466   0.263   1.298
78272CL-    CL-39935  37.885  14.263  14.477
78273CL-    CL-39936   8.766  28.515   2.260
78274CL-    CL-39937   5.232  10.158   2.883
78275CL-    CL-39938  27.125  44.293   3.261
78276CL-    CL-39939  25.526  20.114   2.837
78277CL-    CL-39940   9.831   0.342  12.375
78278CL-    CL-39941  38.865   5.928   0.882
78279CL-    CL-39942  40.516  42.833   2.880
78280CL-    CL-39943  14.255  41.376  12.825
78281CL-    CL-39944   8.245  36.502   0.258
78282CL-    CL-39945  17.584   2.358  12.915
78283CL-    CL-39946   7.891   4.273  11.401
78284CL-    CL-39947  20.636  37.998   1.920
78285CL-    CL-39948   0.831  43.882  10.457
78286CL-    CL-39949  13.299  12.356  13.927
78287CL-    CL-39950  34.562  43.015  12.385
78288CL-    CL-39951  23.497  41.011  14.353
78289CL-    CL-39952   0.940  28.577   4.134
78290CL-    CL-39953  21.225   0.957  14.796
78291CL-    CL-39954  36.902  17.642  14.989
78292CL-    CL-39955  36.081  13.772   3.726
78293CL-    CL-39956  34.422   9.873  14.342
78294CL-    CL-39957  43.369  17.097  14.945
78295CL-    CL-39958  42.339  26.577   2.253
78296CL-    CL-39959   7.220  26.082  11.394
78297CL-    CL-39960  10.338  26.010   2.733
78298CL-    CL-39961   5.237  31.084   4.173
78299CL-    CL-39962  26.684  40.909  12.955
78300CL-    CL-39963  36.356  20.245  12.445
78301CL-    CL-39964  33.903  39.057   0.931
78302CL-    CL-39965  19.769  44.821  13.882
78303CL-    CL-39966  32.065  32.929   0.351
78304CL-    CL-39967  13.157  25.145   0.366
78305CL-    CL-39968  13.762   0.360   4.633
78306CL-    CL-39969   9.779  27.547   2.696
78307CL-    CL-39970   4.258  44.763  13.048
78308CL-    CL-39971  31.927  28.027   2.268
78309CL-    CL-39972   1.447  11.313   1.353
78310CL-    CL-39973   9.253  10.347   4.197
78311CL-    CL-39974  10.828  28.065   1.219
78312CL-    CL-39975  38.472  32.103  13.889
78313CL-    CL-39976  41.382   3.336   1.775
78314CL-    CL-39977   8.252  43.816  10.559
78315CL-    CL-39978   9.725  35.378  10.621
78316CL-    CL-39979  35.965  43.881   1.806
78317CL-    CL-39980  35.094  29.612  10.953
78318CL-    CL-39981  14.597   8.823   0.749
78319CL-    CL-39982  33.400  38.974  12.907
78320CL-    CL-39983  12.651  38.405   4.132
78321CL-    CL-39984  15.308  39.462   5.202
78322CL-    CL-39985   7.409  28.167  12.919
78323CL-    CL-39986  41.363   1.737  12.046
78324CL-    CL-39987  17.164   6.717  13.947
78325CL-    CL-39988  14.248  25.547   0.248
78326CL-    CL-39989  27.134  13.630  12.853
78327CL-    CL-39990  21.087  35.965   0.758
78328CL-    CL-39991   5.888  21.697   2.398
78329CL-    CL-39992   5.406  12.667  11.497
78330CL-    CL-39993  11.214  44.847   2.374
78331CL-    CL-39994   8.313  35.058  13.353
78332CL-    CL-39995  11.210  44.827   4.268
78333CL-    CL-39996  25.521  28.974  10.491
78334CL-    CL-39997  21.527  39.557  11.005
78335CL-    CL-39998   3.430  27.177   2.879
78336CL-    CL-39999  22.506  19.573  10.477
78337CL-    CL-40000  40.978  33.003  10.533
78338CL-    CL-40001   1.459   1.342  11.087
78339CL-    CL-40002  40.826   9.241  11.098
78340CL-    CL-40003  23.623   9.203  12.487
78341CL-    CL-40004  19.085   5.755   3.238
78342CL-    CL-40005  13.211  15.219   3.712
78343CL-    CL-40006  11.643  33.486   1.744
78344CL-    CL-40007   9.782  13.627  14.511
78345CL-    CL-40008  39.315   8.382   3.647
78346CL-    CL-40009  15.144  42.788   0.941
78347CL-    CL-40010  15.772  27.008  13.435
78348CL-    CL-40011  12.142  16.654  10.566
78349CL-    CL-40012  24.586  21.076  14.502
78350CL-    CL-40013  38.463  21.223   3.305
78351CL-    CL-40014  12.171  33.452   1.254
78352CL-    CL-40015  13.340  32.904  12.888
78353CL-    CL-40016   5.222  42.499  13.987
78354CL-    CL-40017   6.711  24.193   0.331
78355CL-    CL-40018  15.169  14.330   2.303
78356CL-    CL-40019   1.795  28.532   0.742
78357CL-    CL-40020  10.854   7.906  11.380
78358CL-    CL-40021  21.115  18.290   2.807
78359CL-    CL-40022  31.564  16.717   0.260
78360CL-    CL-40023  29.628   7.730  10.573
78361CL-    CL-40024  35.513  17.134  12.030
78362CL-    CL-40025  36.425  18.571  14.346
78363CL-    CL-40026  10.275  18.236  11.125
78364CL-    CL-40027   8.363  25.098  13.963
78365CL-    CL-40028   7.234  12.790  14.809
78366CL-    CL-40029  33.402  29.932  12.969
78367CL-    CL-40030  33.462  32.402  13.033
78368CL-    CL-40031  14.804   4.896  11.084
78369CL-    CL-40032   9.826  24.006   4.249
78370CL-    CL-40033   3.734  40.465  13.995
78371CL-    CL-40034  11.788  14.763   2.387
78372CL-    CL-40035  44.763   1.254  13.996
78373CL-    CL-40036  20.675  38.834   2.701
78374CL-    CL-40037  12.295  40.350  12.957
78375CL-    CL-40038  36.040  37.572   1.425
78376CL-    CL-40039  36.969  31.957  12.068
78377CL-    CL-40040   2.421  24.486   4.115
78378CL-    CL-40041  29.619   0.368   1.773
78379CL-    CL-40042   9.684   6.760   2.898
78380CL-    CL-40043  39.453  24.687   4.320
78381CL-    CL-40044  35.945  29.114  11.894
78382CL-    CL-40045  30.151  33.557  12.398
78383CL-    CL-40046  21.724  17.673  13.928
78384CL-    CL-40047  28.452  21.753   4.318
78385CL-    CL-40048  30.582  10.848   0.882
78386CL-    CL-40049  39.500  27.665   3.164
78387CL-    CL-40050  29.084  18.552   0.791
78388CL-    CL-40051  39.843  34.026   4.815
78389CL-    CL-40052  27.169  23.720  14.430
78390CL-    CL-40053  34.608  15.094   2.365
78391CL-    CL-40054  14.594  20.615  12.471
78392CL-    CL-40055  35.407  20.250  14.806
78393CL-    CL-40056   1.910  20.032   3.706
78394CL-    CL-40057   3.777   7.772   2.284
78395CL-    CL-40058  30.539  42.795  12.438
78396CL-    CL-40059  24.116   3.765   0.425
78397CL-    CL-40060  11.789  11.303   3.254
78398CL-    CL-40061  38.483  11.760   3.308
78399CL-    CL-40062  32.898  19.283  10.500
78400CL-    CL-40063  30.496  29.099   4.117
78401CL-    CL-40064  15.802  34.535  14.859
78402CL-    CL-40065  22.520  34.381  12.365
78403CL-    CL-40066  19.067  28.576   3.804
78404CL-    CL-40067  23.527   0.950  10.551
78405CL-    CL-40068  28.006  25.075  11.094
78406CL-    CL-40069  22.089   5.849  13.845
78407CL-    CL-40070  32.560  40.973   2.759
78408CL-    CL-40071   8.702  21.062  13.820
78409CL-    CL-40072  16.182  35.874   0.783
78410CL-    CL-40073  39.469  27.119  12.405
78411CL-    CL-40074  43.002  10.683   0.817
78412CL-    CL-40075  35.931  20.036  11.005
78413CL-    CL-40076  36.534  32.994  11.518
78414CL-    CL-40077  22.745   9.717  12.075
78415CL-    CL-40078  16.699   9.704  14.379
78416CL-    CL-40079  39.491  13.606   3.649
78417CL-    CL-40080  26.574  21.717  12.459
78418CL-    CL-40081  26.636  41.037  11.400
78419CL-    CL-40082  16.180   5.838  12.042
78420CL-    CL-40083  40.958  36.933   3.336
78421CL-    CL-40084  39.937   3.270   2.360
78422CL-    CL-40085  17.142  40.523   2.248
78423CL-    CL-40086  36.462  20.159  14.411
78424CL-    CL-40087   6.410  30.440   1.318
78425CL-    CL-40088  24.547   4.864   1.879
78426CL-    CL-40089  10.281  30.108   2.392
78427CL-    CL-40090  30.617  26.030   3.263
78428CL-    CL-40091   6.867  23.155   2.294
78429CL-    CL-40092  10.200  33.562   1.358
78430CL-    CL-40093  17.193   8.814  13.484
78431CL-    CL-40094  15.763  27.057  13.830
78432CL-    CL-40095  43.847  37.488  11.559
78433CL-    CL-40096  20.726  11.259   3.289
78434CL-    CL-40097  27.676  18.609   3.383
78435CL-    CL-40098  12.217  34.604  13.987
78436CL-    CL-40099  18.165   8.320   1.303
78437CL-    CL-40100  19.137  39.979   4.350
78438CL-    CL-40101  34.946   2.921   2.804
78439CL-    CL-40102  22.691  36.434   0.856
78440CL-    CL-40103  40.306  25.532  13.870
78441CL-    CL-40104  12.784   2.773   4.335
78442CL-    CL-40105  18.570  31.640   4.133
78443CL-    CL-40106  32.454  42.802  12.986
78444CL-    CL-40107  31.541   5.344  14.850
78445CL-    CL-40108  39.889  36.486   1.729
78446CL-    CL-40109  25.680  18.582  12.027
78447CL-    CL-40110  44.324  29.093  10.034
78448CL-    CL-40111   5.859   0.454   4.231
78449CL-    CL-40112  15.280   7.771  10.442
78450CL-    CL-40113   9.786  31.926   4.197
78451CL-    CL-40114  38.990  37.868  11.505
78452CL-    CL-40115  36.488   7.397  13.421
78453CL-    CL-40116  13.212  31.598   0.895
78454CL-    CL-40117   4.406  10.270   4.346
78455CL-    CL-40118  21.578   0.755  13.060
78456CL-    CL-40119   9.668  44.833   2.228
78457CL-    CL-40120  31.098  12.149   3.293
78458CL-    CL-40121   2.381  21.623  14.472
78459CL-    CL-40122  23.184   2.889  11.461
78460CL-    CL-40123  16.195  31.570  10.480
78461CL-    CL-40124  37.008  41.929  12.875
78462CL-    CL-40125  10.189  20.533   3.201
78463CL-    CL-40126   0.868  31.949  13.012
78464CL-    CL-40127  39.834  28.039  10.588
78465CL-    CL-40128   4.335  28.029  11.992
78466CL-    CL-40129  41.897   8.839  11.939
78467CL-    CL-40130  28.596  19.130   2.722
78468CL-    CL-40131  17.124  38.015  10.557
78469CL-    CL-40132  20.220  19.592  12.020
78470CL-    CL-40133  39.904  35.079  14.815
78471CL-    CL-40134  25.592   0.479   3.831
78472CL-    CL-40135   4.294  17.790  13.494
78473CL-    CL-40136  29.440  39.830   1.313
78474CL-    CL-40137   0.883  21.099   4.830
78475CL-    CL-40138  44.944  38.452   1.910
78476CL-    CL-40139  11.625  34.474   2.837
78477CL-    CL-40140   8.183  28.033   1.718
78478CL-    CL-40141  18.160  15.202   1.702
78479CL-    CL-40142  13.217  33.123  12.522
78480CL-    CL-40143  40.328  36.465  12.945
78481CL-    CL-40144   6.274  44.485  14.773
78482CL-    CL-40145  30.132  27.083   1.276
78483CL-    CL-40146  41.839  29.992  10.577
78484CL-    CL-40147  39.532  42.918   2.801
78485CL-    CL-40148  36.961  34.938   1.801
78486CL-    CL-40149  12.711   5.256   2.735
78487CL-    CL-40150  22.142   8.301  12.339
78488CL-    CL-40151  20.728   9.258  12.087
78489CL-    CL-40152  37.864   1.369   4.698
78490CL-    CL-40153  18.554  40.934   3.649
78491CL-    CL-40154   1.825  12.759  12.064
78492CL-    CL-40155  22.040  16.253   2.731
78493CL-    CL-40156  38.504  41.515   1.273
78494CL-    CL-40157  12.206  31.565   3.703
78495CL-    CL-40158   7.684  15.750   0.430
78496CL-    CL-40159  42.997  13.343  11.971
78497CL-    CL-40160  13.108  22.531  10.547
78498CL-    CL-40161  17.760  20.735  11.900
78499CL-    CL-40162  36.032  25.666  14.275
78500CL-    CL-40163  27.015  14.150  13.983
78501CL-    CL-40164   0.902  44.914  12.890
78502CL-    CL-40165  40.365   8.318  10.564
78503CL-    CL-40166   3.840   9.238   3.163
78504CL-    CL-40167  16.204  17.080   0.845
78505CL-    CL-40168  22.201  35.974  11.547
78506CL-    CL-40169  13.737  13.142   1.788
78507CL-    CL-40170  40.374  40.817  13.331
78508CL-    CL-40171  36.049  32.527  13.463
78509CL-    CL-40172   1.336  24.156   4.691
78510CL-    CL-40173  16.658  29.490   2.202
78511CL-    CL-40174  31.598   0.827  10.438
78512CL-    CL-40175  21.075  27.643   4.812
78513CL-    CL-40176  23.702  26.032   5.615
78514CL-    CL-40177   5.808  34.403   2.417
78515CL-    CL-40178   1.463  13.599   2.685
78516CL-    CL-40179  37.471  28.175  12.356
78517CL-    CL-40180   1.896  38.057  10.585
78518CL-    CL-40181  12.848   1.258  12.855
78519CL-    CL-40182  41.393  44.926   3.298
78520CL-    CL-40183   2.854  18.092   3.301
78521CL-    CL-40184  14.178  17.641   3.796
78522CL-    CL-40185  37.347   4.701  11.466
78523CL-    CL-40186  12.814  34.002   3.215
78524CL-    CL-40187  26.199  35.553  11.472
78525CL-    CL-40188   3.445  18.589   3.186
78526CL-    CL-40189   8.161   6.729   3.790
78527CL-    CL-40190   1.380   3.812   3.755
78528CL-    CL-40191   3.751   9.776   1.753
78529CL-    CL-40192  20.131  35.598  14.807
78530CL-    CL-40193  22.110  12.664   3.667
78531CL-    CL-40194  12.267   0.360   3.353
78532CL-    CL-40195  10.190  11.293  13.417
78533CL-    CL-40196   4.379  21.634   4.642
78534CL-    CL-40197   7.792  29.579   3.263
78535CL-    CL-40198  44.892   7.189   2.812
78536CL-    CL-40199  34.884  27.447   1.262
78537CL-    CL-40200  10.683  25.156  12.885
78538CL-    CL-40201  15.275  10.649  12.485
78539CL-    CL-40202  26.584  26.471  13.524
78540CL-    CL-40203  35.046  21.581  12.041
78541CL-    CL-40204  41.989  24.671   4.174
78542CL-    CL-40205  41.391  27.677   1.362
78543CL-    CL-40206  30.915  42.315   3.218
78544CL-    CL-40207   8.165  19.543  14.782
78545CL-    CL-40208   3.723  16.747   1.887
78546CL-    CL-40209  14.770  36.986   0.246
78547CL-    CL-40210  26.624  25.550   2.185
78548CL-    CL-40211  40.825   8.370   2.284
78549CL-    CL-40212  25.975  29.622  13.315
78550CL-    CL-40213  36.555  24.081   1.737
78551CL-    CL-40214  32.477  36.040  13.878
78552CL-    CL-40215  41.412  43.441   2.811
78553CL-    CL-40216  43.279  33.076  13.524
78554CL-    CL-40217   1.941  36.533   2.312
78555CL-    CL-40218  10.243  26.584  14.945
78556CL-    CL-40219  17.115  33.104   0.282
78557CL-    CL-40220   5.861  23.103  13.534
78558CL-    CL-40221  40.801  13.209   1.873
78559CL-    CL-40222  40.012  26.688   4.334
78560CL-    CL-40223  41.965  15.297   4.232
78561CL-    CL-40224  41.008   4.701  14.884
78562CL-    CL-40225  43.494  34.870   0.897
78563CL-    CL-40226   2.330   0.888   3.368
78564CL-    CL-40227  26.636  15.244   0.418
78565CL-    CL-40228   6.746   3.313  10.899
78566CL-    CL-40229  13.247  35.941  11.125
78567CL-    CL-40230  12.833   8.768  12.050
78568CL-    CL-40231  19.209  34.985   1.384
78569CL-    CL-40232  10.352   6.354   3.636
78570CL-    CL-40233  26.638  31.486  13.795
78571CL-    CL-40234  41.014  36.023   2.307
78572CL-    CL-40235   5.396  41.503   1.245
78573CL-    CL-40236  39.436  25.648   2.767
78574CL-    CL-40237  39.835  13.145  10.071
78575CL-    CL-40238  42.409  25.530  12.574
78576CL-    CL-40239  24.713  10.382  14.977
78577CL-    CL-40240  15.164  10.803   1.313
78578CL-    CL-40241   1.939  19.665  14.421
78579CL-    CL-40242  25.694  39.463   4.258
78580CL-    CL-40243  30.975  39.352   4.619
78581CL-    CL-40244  38.498  27.090  13.991
78582CL-    CL-40245  33.475  40.414  13.958
78583CL-    CL-40246  26.570   0.952  13.947
78584CL-    CL-40247  44.906   7.328   0.406
78585CL-    CL-40248  22.205   1.868   5.177
78586CL-    CL-40249  30.045  12.738   4.727
78587CL-    CL-40250  30.946  37.886   1.874
78588CL-    CL-40251  10.149   5.192   9.973
78589CL-    CL-40252  25.966  32.035   4.168
78590CL-    CL-40253  43.993  31.496   4.625
78591CL-    CL-40254  14.187  33.094   3.667
78592CL-    CL-40255  32.615  39.344  12.397
78593CL-    CL-40256  40.920  38.076   0.264
78594CL-    CL-40257  44.860  27.963   2.720
78595CL-    CL-40258   2.280   6.797  12.355
78596CL-    CL-40259  40.047  42.308   1.710
78597CL-    CL-40260  42.825  15.628  10.969
78598CL-    CL-40261  43.000  31.083   4.658
78599CL-    CL-40262   8.758  12.696   1.709
78600CL-    CL-40263   5.716  39.390  12.447
78601CL-    CL-40264  27.453  35.388  11.006
78602CL-    CL-40265  42.392  16.776   3.217
78603CL-    CL-40266  28.468   1.975   3.644
78604CL-    CL-40267  38.495  44.818   3.310
78605CL-    CL-40268  34.989  30.987  14.486
78606CL-    CL-40269  42.406  23.513  12.372
78607CL-    CL-40270   0.365  42.997   2.663
78608CL-    CL-40271  22.191   8.682  10.943
78609CL-    CL-40272  39.376  42.854   0.440
78610CL-    CL-40273  32.498  40.525   0.478
78611CL-    CL-40274  11.228   0.858   3.321
78612CL-    CL-40275  13.713  42.364  10.440
78613CL-    CL-40276  16.812  31.058  13.459
78614CL-    CL-40277   7.344  22.572  11.899
78615CL-    CL-40278  10.368  15.635   0.956
78616CL-    CL-40279  35.490  11.343   0.768
78617CL-    CL-40280  44.470  25.172  11.879
78618CL-    CL-40281  35.497  29.920   2.189
78619CL-    CL-40282  37.991  14.162   2.345
78620CL-    CL-40283  36.534   0.748   5.231
78621CL-    CL-40284   9.150  19.120  12.956
78622CL-    CL-40285  32.134   5.224   4.201
78623CL-    CL-40286  23.240   8.772  13.992
78624CL-    CL-40287  12.304  32.951   0.789
78625CL-    CL-40288   3.938  36.023   2.814
78626CL-    CL-40289  16.223  15.690   2.739
78627CL-    CL-40290  13.229  23.048  10.578
78628CL-    CL-40291  41.797  42.483   4.836
78629CL-    CL-40292  36.884  21.038   4.811
78630CL-    CL-40293  44.869  29.938  12.857
78631CL-    CL-40294   6.841  15.818   3.685
78632CL-    CL-40295  32.058   6.310  11.434
78633CL-    CL-40296  30.607  25.015  14.915
78634CL-    CL-40297   1.796  14.190   3.700
78635CL-    CL-40298   2.423  24.000  14.884
78636CL-    CL-40299  44.350   9.711  11.962
78637CL-    CL-40300   7.695  37.056   3.164
78638CL-    CL-40301  36.974   7.716  12.564
78639CL-    CL-40302  38.468  37.412  13.543
78640CL-    CL-40303  16.685   3.810  11.589
78641CL-    CL-40304  13.827  16.758   3.199
78642CL-    CL-40305  33.590  44.814   4.210
78643CL-    CL-40306  39.475  38.940   4.182
78644CL-    CL-40307  35.497  21.063   2.347
78645CL-    CL-40308   6.399  31.488  11.391
78646CL-    CL-40309   7.701   8.794   1.892
78647CL-    CL-40310   7.210   9.374   1.809
78648CL-    CL-40311  42.919  23.494  14.837
78649CL-    CL-40312   3.876  32.501   0.819
78650CL-    CL-40313   1.340  31.536   4.285
78651CL-    CL-40314  19.602  30.564  11.580
78652CL-    CL-40315  32.416   5.861  11.506
78653CL-    CL-40316  20.542  38.389  11.443
78654CL-    CL-40317  38.037  11.364   4.720
78655CL-    CL-40318   7.261  32.435  12.974
78656CL-    CL-40319   7.336  32.047   0.778
78657CL-    CL-40320  27.157  23.130  14.782
78658CL-    CL-40321  26.502  11.706   1.813
78659CL-    CL-40322  12.712  42.820  13.900
78660CL-    CL-40323  35.952   7.212   1.297
78661CL-    CL-40324  44.981  35.406   2.800
78662CL-    CL-40325   7.733   5.260  13.363
78663CL-    CL-40326  43.855  10.379  14.285
78664CL-    CL-40327  15.179  14.094  13.816
78665CL-    CL-40328  33.414  35.949  14.352
78666CL-    CL-40329  44.422   1.878   1.281
78667CL-    CL-40330  22.048  13.254   3.303
78668CL-    CL-40331  40.392  36.421  13.313
78669CL-    CL-40332  23.099  19.196   1.369
78670CL-    CL-40333   5.390  36.442   1.762
78671CL-    CL-40334   9.681  27.473  14.789
78672CL-    CL-40335  40.944  29.424  10.638
78673CL-    CL-40336  43.969  15.696  11.868
78674CL-    CL-40337  17.774  36.873   0.343
78675CL-    CL-40338  23.524  29.512  13.465
78676CL-    CL-40339  34.404  39.941   3.800
78677CL-    CL-40340  20.247  32.603   2.721
78678CL-    CL-40341  29.535  27.651   3.355
78679CL-    CL-40342  28.118  31.591  11.072
78680CL-    CL-40343  24.572  35.891  13.012
78681CL-    CL-40344  19.568  35.397   4.738
78682CL-    CL-40345   1.253   9.799  11.021
78683CL-    CL-40346  17.239  12.154   4.260
78684CL-    CL-40347  13.744  15.213   0.444
78685CL-    CL-40348  21.732  22.187  12.412
78686CL-    CL-40349  32.139  43.937  11.531
78687CL-    CL-40350  36.383  44.911   0.959
78688CL-    CL-40351  36.549  23.580  13.325
78689CL-    CL-40352  20.192   5.724  10.077
78690CL-    CL-40353  22.224  29.088  10.639
78691CL-    CL-40354  38.862   3.448  12.047
78692CL-    CL-40355   6.886  12.178  14.956
78693CL-    CL-40356  34.037  21.721  14.334
78694CL-    CL-40357  44.296  30.636  10.061
78695CL-    CL-40358  35.932  29.150   2.417
78696CL-    CL-40359  38.033  10.804  12.052
78697CL-    CL-40360  16.261   1.390   3.166
78698CL-    CL-40361  23.724  16.206  13.382
78699CL-    CL-40362  14.156  42.887  14.791
78700CL-    CL-40363  22.607  19.052  10.936
78701CL-    CL-40364  13.673  27.612   1.889
78702CL-    CL-40365   4.871  13.777   1.844
78703CL-    CL-40366  13.289  37.014   1.301
78704CL-    CL-40367  37.890   5.370   3.725
78705CL-    CL-40368  30.056  20.546  13.531
78706CL-    CL-40369  23.504  23.212   2.411
78707CL-    CL-40370  15.645  14.833  13.518
78708CL-    CL-40371   3.932   6.221   3.785
78709CL-    CL-40372  11.219  15.581   3.814
78710CL-    CL-40373  17.186  11.741   3.656
78711CL-    CL-40374  18.714   2.398  10.598
78712CL-    CL-40375  42.025  41.442   2.819
78713CL-    CL-40376  12.824   8.863   4.209
78714CL-    CL-40377  37.081   3.898   4.125
78715CL-    CL-40378  16.655  24.482  11.029
78716CL-    CL-40379  32.045  29.446  12.356
78717CL-    CL-40380  35.940  43.328   2.316
78718CL-    CL-40381  36.953  31.998  12.957
78719CL-    CL-40382  17.061  22.238   2.196
78720CL-    CL-40383  18.262  15.703  12.035
78721CL-    CL-40384  27.450  33.547  10.488
78722CL-    CL-40385  18.288   1.753   4.278
78723CL-    CL-40386  32.474  13.220   0.727
78724CL-    CL-40387   7.851  44.839  12.457
78725CL-    CL-40388  17.786  24.069   0.348
78726CL-    CL-40389   9.271  13.719   0.468
78727CL-    CL-40390  22.695  23.081   2.282
78728CL-    CL-40391  22.617  16.156  13.308
78729CL-    CL-40392   7.318   4.392   2.311
78730CL-    CL-40393  11.137  15.305   0.437
78731CL-    CL-40394  14.145   3.315  14.378
78732CL-    CL-40395  25.981   0.314   4.278
78733CL-    CL-40396  21.577   0.255  14.502
78734CL-    CL-40397  24.555  39.003   0.379
78735CL-    CL-40398  42.489   5.352   0.839
78736CL-    CL-40399   2.879  12.338  11.514
78737CL-    CL-40400   0.802  41.842   0.763
78738CL-    CL-40401  16.696   2.431  14.021
78739CL-    CL-40402  25.966  34.974   1.846
78740CL-    CL-40403  22.637  13.755   0.267
78741CL-    CL-40404   6.686   2.859  13.381
78742CL-    CL-40405  39.950  35.602  11.073
78743CL-    CL-40406  10.338  12.678  13.815
78744CL-    CL-40407  20.643  16.709   4.637
78745CL-    CL-40408  34.891   2.921   0.304
78746CL-    CL-40409   8.897  35.496  10.908
78747CL-    CL-40410   6.869  14.318  11.603
78748CL-    CL-40411  16.277   6.699   0.265
78749CL-    CL-40412   8.368  19.723  12.091
78750CL-    CL-40413  10.238  20.554   1.871
78751CL-    CL-40414  21.053  18.603   4.737
78752CL-    CL-40415   3.750  27.495  11.597
78753CL-    CL-40416   7.372  32.538  13.477
78754CL-    CL-40417  13.297   3.450  14.892
78755CL-    CL-40418  13.693  37.362   1.702
78756CL-    CL-40419  28.978  29.090   4.802
78757CL-    CL-40420  26.528  14.699   0.435
78758CL-    CL-40421   6.306  31.118  10.617
78759CL-    CL-40422  28.161  44.335   2.244
78760CL-    CL-40423  26.487  33.084  14.931
78761CL-    CL-40424  24.567  31.972  12.020
78762CL-    CL-40425  18.120  31.940  14.350
78763CL-    CL-40426  29.109   6.855  10.964
78764CL-    CL-40427  23.239  37.878  12.824
78765CL-    CL-40428  43.514  22.680   3.301
78766CL-    CL-40429  18.602  11.197   2.285
78767CL-    CL-40430  23.640  37.404   1.376
78768CL-    CL-40431   2.247  16.618  13.853
78769CL-    CL-40432  10.657  12.794   1.719
78770CL-    CL-40433  42.957  25.657  13.448
78771CL-    CL-40434  33.408   7.286   0.928
78772CL-    CL-40435  23.129   6.875   3.269
78773CL-    CL-40436  32.415  39.546   0.331
78774CL-    CL-40437  29.010  38.035   3.278
78775CL-    CL-40438  20.602   5.282   4.156
78776CL-    CL-40439   5.695  16.751  11.991
78777CL-    CL-40440  11.343  18.174  10.574
78778CL-    CL-40441  15.235  42.316  12.400
78779CL-    CL-40442  44.848  26.471  14.797
78780CL-    CL-40443   3.225  11.814   1.297
78781CL-    CL-40444  19.285   7.218   3.184
78782CL-    CL-40445  12.850  32.138   1.907
78783CL-    CL-40446  21.624  22.166  12.983
78784CL-    CL-40447  42.285  38.844  13.388
78785CL-    CL-40448  35.910   9.680  11.472
78786CL-    CL-40449   7.893   6.864   3.763
78787CL-    CL-40450  15.583  11.339  10.442
78788CL-    CL-40451  13.325  38.070   2.699
78789CL-    CL-40452   5.711  32.135   1.719
78790CL-    CL-40453  30.568  15.137   0.349
78791CL-    CL-40454   2.314  28.520  14.384
78792CL-    CL-40455  43.826  32.038   4.821
78793CL-    CL-40456  27.059  11.709  11.876
78794CL-    CL-40457  27.168  31.053   2.361
78795CL-    CL-40458  14.758  14.095  14.843
78796CL-    CL-40459  38.971   1.973  12.372
78797CL-    CL-40460  15.103  14.738  14.933
78798CL-    CL-40461  15.781   8.776   2.203
78799CL-    CL-40462  17.232   5.433  13.395
78800CL-    CL-40463  12.131  11.210   0.274
78801CL-    CL-40464  26.071  26.173   9.524
78802CL-    CL-40465  23.605  43.318   2.890
78803CL-    CL-40466  33.608   8.887   0.823
78804CL-    CL-40467  33.587   7.864   3.764
78805CL-    CL-40468  28.041  33.522  11.399
78806CL-    CL-40469  16.616  27.629   3.691
78807CL-    CL-40470  39.026  40.381   0.768
78808CL-    CL-40471  16.125  36.011   5.095
78809CL-    CL-40472   7.329  42.293   0.781
78810CL-    CL-40473  27.592   2.898   4.673
78811CL-    CL-40474  21.589  35.478   3.805
78812CL-    CL-40475  13.261  32.484  13.512
78813CL-    CL-40476   6.241  26.093  10.631
78814CL-    CL-40477  13.611  17.280  12.398
78815CL-    CL-40478   1.287   3.429   3.812
78816CL-    CL-40479  26.997  22.732  14.476
78817CL-    CL-40480  31.635   2.274  12.439
78818CL-    CL-40481  21.063  16.082   9.947
78819CL-    CL-40482  31.145  35.852   4.276
78820CL-    CL-40483  39.473  10.342   4.296
78821CL-    CL-40484   4.204  18.667   2.189
78822CL-    CL-40485  12.217   2.331  12.476
78823CL-    CL-40486  15.188   8.384  13.050
78824CL-    CL-40487  15.282  19.602   2.694
78825CL-    CL-40488  12.782  17.790   2.218
78826CL-    CL-40489   5.261  43.381   1.219
78827CL-    CL-40490   5.799  11.298  12.349
78828CL-    CL-40491  34.880  13.171   3.786
78829CL-    CL-40492   6.389  23.224   1.850
78830CL-    CL-40493   6.848  24.047   2.877
78831CL-    CL-40494  36.555  34.379  10.970
78832CL-    CL-40495  21.186   3.331  11.928
78833CL-    CL-40496  13.599   3.274  11.057
78834CL-    CL-40497  39.375  35.037  11.377
78835CL-    CL-40498  15.643  43.406  10.626
78836CL-    CL-40499  35.535  15.225   2.756
78837CL-    CL-40500  43.775  23.650   1.854
78838CL-    CL-40501  28.612  31.616   1.298
78839CL-    CL-40502  30.571  39.936   2.836
78840CL-    CL-40503  29.955   4.436   0.380
78841CL-    CL-40504  24.645  42.842   1.415
78842CL-    CL-40505  23.553   6.326  12.984
78843CL-    CL-40506  27.488   5.745  13.391
78844CL-    CL-40507  13.698  41.392   2.185
78845CL-    CL-40508   3.784   5.926   4.811
78846CL-    CL-40509  12.660  13.832  14.913
78847CL-    CL-40510  42.818  34.041  10.441
78848CL-    CL-40511  23.086  30.164  12.832
78849CL-    CL-40512  11.227  21.187   0.250
78850CL-    CL-40513  36.421  25.682  14.312
78851CL-    CL-40514   5.748  32.087  14.309
78852CL-    CL-40515  14.328  37.081   4.686
78853CL-    CL-40516  23.163  30.157   3.737
78854CL-    CL-40517  14.332  21.716   0.336
78855CL-    CL-40518  36.943  36.476  11.424
78856CL-    CL-40519  11.779  28.547  14.340
78857CL-    CL-40520  30.634  30.930   1.813
78858CL-    CL-40521  22.237  23.684  13.969
78859CL-    CL-40522  33.108  42.973   2.780
78860CL-    CL-40523  40.403  31.557  11.524
78861CL-    CL-40524  11.132  18.284  11.550
78862CL-    CL-40525  23.053  23.037  12.464
78863CL-    CL-40526  37.417  26.048   1.695
78864CL-    CL-40527  38.528  32.087  13.481
78865CL-    CL-40528   5.866  44.763  13.532
78866CL-    CL-40529  31.487   1.836   1.768
78867CL-    CL-40530  25.538   8.204   2.895
78868CL-    CL-40531  38.503  34.913   1.288
78869CL-    CL-40532  41.833  22.199  13.416
78870CL-    CL-40533  33.918  44.442   1.839
78871CL-    CL-40534  28.156  39.554   4.660
78872CL-    CL-40535  31.907  39.454  12.902
78873CL-    CL-40536  25.124  11.739  13.546
78874CL-    CL-40537   5.240  12.287  12.891
78875CL-    CL-40538  11.332  23.155   2.311
78876CL-    CL-40539  23.116  24.148   1.417
78877CL-    CL-40540  20.144  24.037  14.920
78878CL-    CL-40541  42.905  35.521  13.470
78879CL-    CL-40542  18.640  29.635   3.308
78880CL-    CL-40543  20.719  19.545  12.518
78881CL-    CL-40544   2.879  41.390   0.914
78882CL-    CL-40545  35.027  14.627  14.282
78883CL-    CL-40546   5.236  19.649  14.489
78884CL-    CL-40547  29.061  11.716   2.735
78885CL-    CL-40548  38.387  14.302  11.015
78886CL-    CL-40549   7.856  15.691   1.341
78887CL-    CL-40550  22.125  25.505  10.498
78888CL-    CL-40551  33.038  16.722   3.208
78889CL-    CL-40552   4.944  10.834   4.769
78890CL-    CL-40553  23.224   0.910  11.570
78891CL-    CL-40554  24.989  27.130   2.876
78892CL-    CL-40555  40.457  28.530   2.751
78893CL-    CL-40556   0.315   4.410   1.885
78894CL-    CL-40557  40.386  24.644   1.236
78895CL-    CL-40558  22.744  36.070   1.866
78896CL-    CL-40559  14.810  26.668   3.310
78897CL-    CL-40560  20.603  23.173  13.528
78898CL-    CL-40561   4.890  26.663  14.458
78899CL-    CL-40562   3.861  18.162  10.614
78900CL-    CL-40563  18.602   8.676  12.514
78901CL-    CL-40564  31.632  39.515   2.186
78902CL-    CL-40565  26.138  23.512   0.938
78903CL-    CL-40566   3.873  24.132   3.147
78904CL-    CL-40567  14.224  33.875  11.009
78905CL-    CL-40568   0.814  20.203  13.537
78906CL-    CL-40569  44.502  26.611   0.907
78907CL-    CL-40570  12.799  12.202  10.522
78908CL-    CL-40571  19.774  14.261   5.589
78909CL-    CL-40572   3.713  30.151   3.196
78910CL-    CL-40573   3.876   4.816  12.857
78911CL-    CL-40574  40.540  17.148  14.330
78912CL-    CL-40575  10.317  26.143  10.943
78913CL-    CL-40576  34.388   6.907  14.440
78914CL-    CL-40577  33.562  14.264  14.351
78915CL-    CL-40578  34.943   3.355   1.440
78916CL-    CL-40579  38.338   0.817  11.917
78917CL-    CL-40580  11.161   7.360   3.671
78918CL-    CL-40581  17.218  23.097  11.462
78919CL-    CL-40582   2.910  44.388   2.723
78920CL-    CL-40583   5.436   9.156  11.540
78921CL-    CL-40584  33.046  38.063  14.891
78922CL-    CL-40585  15.084  42.335  14.930
78923CL-    CL-40586  23.013  37.437   0.284
78924CL-    CL-40587   9.759  32.440  10.450
78925CL-    CL-40588   2.365  34.102  14.935
78926CL-    CL-40589  38.376  15.135   2.896
78927CL-    CL-40590  13.214  35.971   4.804
78928CL-    CL-40591  15.173  18.579   4.602
78929CL-    CL-40592  13.719   3.358   3.746
78930CL-    CL-40593  38.361  44.271   0.857
78931CL-    CL-40594  37.922  33.097   2.414
78932CL-    CL-40595  28.184  40.826   2.189
78933CL-    CL-40596   7.181   4.267   1.267
78934CL-    CL-40597  15.203  12.655  11.583
78935CL-    CL-40598  29.584   3.906  11.433
78936CL-    CL-40599   5.397  37.946   1.334
78937CL-    CL-40600   5.199  20.529   3.643
78938CL-    CL-40601  15.229  40.340  14.976
78939CL-    CL-40602  36.495  35.547  14.786
78940CL-    CL-40603  25.473  15.789  11.923
78941CL-    CL-40604  25.148   5.848  11.100
78942CL-    CL-40605  32.026  43.796  13.793
78943CL-    CL-40606  16.268   5.690   3.212
78944CL-    CL-40607  24.527   5.357  12.403
78945CL-    CL-40608  16.630  40.309  11.436
78946CL-    CL-40609  16.280  23.092  12.854
78947CL-    CL-40610  22.692  31.900  10.099
78948CL-    CL-40611  30.510  18.587   4.133
78949CL-    CL-40612  41.887  37.958  12.467
78950CL-    CL-40613  26.484  36.887  13.052
78951CL-    CL-40614   3.719  29.468  12.076
78952CL-    CL-40615  26.984  33.614  14.943
78953CL-    CL-40616  39.439  28.649   3.747
78954CL-    CL-40617  21.701   1.318   0.428
78955CL-    CL-40618  34.907  33.017  11.939
78956CL-    CL-40619  29.496   7.690  14.769
78957CL-    CL-40620  12.238  29.630   4.150
78958CL-    CL-40621  40.549   8.844  10.411
78959CL-    CL-40622  33.043  31.092  12.011
78960CL-    CL-40623  15.733  29.979   3.182
78961CL-    CL-40624  11.170   1.903   0.343
78962CL-    CL-40625  36.983   9.296   2.402
78963CL-    CL-40626   6.224  13.212   1.917
78964CL-    CL-40627  35.362  41.528   0.305
78965CL-    CL-40628  17.188  39.549   9.448
78966CL-    CL-40629   3.882  16.204   3.842
78967CL-    CL-40630  33.547  19.148   1.296
78968CL-    CL-40631   0.929   8.702  13.371
78969CL-    CL-40632  16.760  38.022   1.254
78970CL-    CL-40633   5.278  31.447   1.889
78971CL-    CL-40634  25.691  31.018  12.400
78972CL-    CL-40635  30.615   8.362   0.866
78973CL-    CL-40636   5.805  14.239  10.494
78974CL-    CL-40637  31.001  22.665   1.439
78975CL-    CL-40638  17.747  16.605  12.447
78976CL-    CL-40639  40.470  31.493  11.042
78977CL-    CL-40640   7.236  13.696   4.700
78978CL-    CL-40641  23.620  40.039   5.693
78979CL-    CL-40642  13.221   2.327  14.276
78980CL-    CL-40643  12.209   7.847  14.829
78981CL-    CL-40644  12.637  22.060   1.734
78982CL-    CL-40645  42.382   2.351  13.826
78983CL-    CL-40646  28.178  17.183  12.004
78984CL-    CL-40647   0.798  36.957   3.219
78985CL-    CL-40648  23.025  30.505  13.461
78986CL-    CL-40649  25.497  26.125  14.483
78987CL-    CL-40650  16.082  32.975  12.056
78988CL-    CL-40651  43.504  25.478  11.582
78989CL-    CL-40652   7.291  33.978  11.404
78990CL-    CL-40653  42.827   0.929  12.937
78991CL-    CL-40654  24.587  33.460   3.283
78992CL-    CL-40655  24.557   6.424  12.934
78993CL-    CL-40656  28.610  31.917   0.848
78994CL-    CL-40657  16.657  36.976  14.372
78995CL-    CL-40658  28.985   8.826   0.259
78996CL-    CL-40659   6.875  28.076   2.318
78997CL-    CL-40660   5.840  29.556   1.773
78998CL-    CL-40661   9.371  32.636   1.826
78999CL-    CL-40662  11.636   4.796   3.749
79000CL-    CL-40663   1.303  25.975  14.424
79001CL-    CL-40664  35.589  21.657   0.419
79002CL-    CL-40665  18.773  20.055  10.469
79003CL-    CL-40666  19.167  26.952   1.400
79004CL-    CL-40667  24.069  12.244   2.712
79005CL-    CL-40668  26.685  21.734   0.254
79006CL-    CL-40669  21.191  33.471  14.429
79007CL-    CL-40670   8.881   0.412   2.310
79008CL-    CL-40671  30.558  40.989   2.685
79009CL-    CL-40672  33.089   7.242  13.822
79010CL-    CL-40673  35.893  19.661  10.034
79011CL-    CL-40674   2.801   3.242   2.394
79012CL-    CL-40675  14.809   6.922   0.765
79013CL-    CL-40676   4.336  37.490  14.419
79014CL-    CL-40677  36.381  35.002   2.391
79015CL-    CL-40678  36.022  42.998   3.867
79016CL-    CL-40679  37.459  37.919   1.813
79017CL-    CL-40680  24.531  17.788   0.339
79018CL-    CL-40681  23.516  27.159  13.897
79019CL-    CL-40682  14.216  39.507   4.598
79020CL-    CL-40683   6.266  30.591  12.044
79021CL-    CL-40684  36.386  42.293   2.664
79022CL-    CL-40685  11.348  35.461  11.860
79023CL-    CL-40686  17.274   1.958  13.414
79024CL-    CL-40687  13.242   3.329   2.331
79025CL-    CL-40688  34.001  23.621  14.902
79026CL-    CL-40689  21.511  16.312  14.934
79027CL-    CL-40690  36.911  13.235   2.272
79028CL-    CL-40691   2.256  10.338   1.749
79029CL-    CL-40692  27.514  39.886  13.522
79030CL-    CL-40693  26.467  33.387   5.209
79031CL-    CL-40694  18.263   4.269  13.057
79032CL-    CL-40695  24.570  42.895   1.893
79033CL-    CL-40696  27.681  14.690   3.723
79034CL-    CL-40697   4.410  43.830   0.877
79035CL-    CL-40698  32.072  30.147  10.991
79036CL-    CL-40699   0.835  19.595  11.123
79037CL-    CL-40700  41.405  18.254  13.796
79038CL-    CL-40701  42.833   3.743   1.874
79039CL-    CL-40702  22.703  38.421   1.243
79040CL-    CL-40703  12.186  36.933   0.927
79041CL-    CL-40704   8.205  28.177   4.763
79042CL-    CL-40705  33.907  24.046  12.434
79043CL-    CL-40706  17.234  30.499   3.327
79044CL-    CL-40707   7.311  19.589   1.818
79045CL-    CL-40708  22.108   3.829  14.026
79046CL-    CL-40709  29.111  37.985  10.429
79047CL-    CL-40710  16.314  42.910  12.404
79048CL-    CL-40711  34.055   1.400  10.575
79049CL-    CL-40712   6.202  38.446   1.789
79050CL-    CL-40713  28.556  38.425  12.842
79051CL-    CL-40714  21.625  14.160  13.036
79052CL-    CL-40715  33.542   1.466  13.790
79053CL-    CL-40716  15.732  14.100  13.009
79054CL-    CL-40717  31.634   3.870  11.122
79055CL-    CL-40718   8.874  14.173   0.874
79056CL-    CL-40719   3.420  31.117   4.815
79057CL-    CL-40720  30.989  36.846   2.878
79058CL-    CL-40721  35.559  11.697  14.777
79059CL-    CL-40722  21.647  35.946  11.111
79060CL-    CL-40723  11.227   7.323  13.010
79061CL-    CL-40724   8.820  44.001  11.506
79062CL-    CL-40725  36.470  13.724  11.528
79063CL-    CL-40726  40.354  11.303  14.921
79064CL-    CL-40727  16.201  12.244   2.386
79065CL-    CL-40728  35.056   7.890  13.952
79066CL-    CL-40729  35.472  14.621  14.925
79067CL-    CL-40730  36.425  23.180  11.564
79068CL-    CL-40731  11.308  28.181  12.926
79069CL-    CL-40732  37.004  37.839   3.862
79070CL-    CL-40733   9.347   5.792  14.849
79071CL-    CL-40734  28.122  30.547  10.953
79072CL-    CL-40735  32.464  36.574   1.927
79073CL-    CL-40736  32.005   0.276   1.908
79074CL-    CL-40737  42.466   9.830  13.337
79075CL-    CL-40738  42.346   5.864  12.443
79076CL-    CL-40739  34.079  40.028  13.349
79077CL-    CL-40740  21.757  38.076  12.359
79078CL-    CL-40741  40.444  20.714  11.509
79079CL-    CL-40742  35.959   9.710   0.340
79080CL-    CL-40743   2.789  22.172   3.259
79081CL-    CL-40744  24.714  23.546  13.428
79082CL-    CL-40745  31.018  25.533   1.306
79083CL-    CL-40746  19.612  38.395  10.526
79084CL-    CL-40747  29.037   5.305  14.879
79085CL-    CL-40748  26.006  15.160   3.677
79086CL-    CL-40749  19.161  21.721   1.299
79087CL-    CL-40750  17.603  21.593   0.779
79088CL-    CL-40751  16.756   8.185   0.467
79089CL-    CL-40752  19.724  40.454   4.252
79090CL-    CL-40753  44.311  14.302  12.359
79091CL-    CL-40754   3.711   1.321   3.157
79092CL-    CL-40755   0.809   8.314   4.782
79093CL-    CL-40756  31.134  20.727  11.941
79094CL-    CL-40757  10.374  39.841  10.503
79095CL-    CL-40758  38.505   5.300   4.253
79096CL-    CL-40759  18.725  27.448  14.496
79097CL-    CL-40760  27.626  18.570   0.385
79098CL-    CL-40761  43.508  30.582   2.788
79099CL-    CL-40762  29.149  35.439  10.888
79100CL-    CL-40763  33.005  10.234  11.899
79101CL-    CL-40764  19.281   8.255   2.375
79102CL-    CL-40765  30.147  20.230   2.222
79103CL-    CL-40766   8.710  18.691   3.692
79104CL-    CL-40767   0.342  12.612  12.357
79105CL-    CL-40768  35.565   5.731   4.312
79106CL-    CL-40769  36.038  38.987   2.193
79107CL-    CL-40770  33.983   1.877  13.857
79108CL-    CL-40771  34.548   1.271  11.402
79109CL-    CL-40772  18.743  16.179   1.841
79110CL-    CL-40773  38.479  36.995  14.437
79111CL-    CL-40774  39.539  36.932   2.299
79112CL-    CL-40775   9.299  42.429  12.411
79113CL-    CL-40776  17.739  15.770   3.153
79114CL-    CL-40777  14.667  16.698   0.463
79115CL-    CL-40778   1.858  14.324  13.461
79116CL-    CL-40779  41.821   2.300   1.339
79117CL-    CL-40780  35.041  19.244  11.924
79118CL-    CL-40781  23.070  33.403  14.937
79119CL-    CL-40782  35.990  31.523   0.263
79120CL-    CL-40783  35.954  26.527  12.832
79121CL-    CL-40784  42.960  15.287  14.996
79122CL-    CL-40785  32.396  18.084  12.562
79123CL-    CL-40786   8.328   3.876  10.547
79124CL-    CL-40787   6.913  29.941   1.420
79125CL-    CL-40788  12.812  32.022  13.893
79126CL-    CL-40789   7.878  13.604   4.598
79127CL-    CL-40790  20.559  26.533   3.271
79128CL-    CL-40791  39.906   9.292  11.571
79129CL-    CL-40792   2.252  32.989   2.680
79130CL-    CL-40793  31.445  11.743  11.034
79131CL-    CL-40794   5.234  34.057  13.360
79132CL-    CL-40795  12.856  31.429  10.991
79133CL-    CL-40796  37.041  41.000   4.285
79134CL-    CL-40797  29.120   3.803   4.236
79135CL-    CL-40798  18.185   1.338  11.528
79136CL-    CL-40799  18.767  17.790   2.690
79137CL-    CL-40800  19.614  16.238  14.503
79138CL-    CL-40801   6.713   7.384   1.362
79139CL-    CL-40802  29.958  23.164  11.952
79140CL-    CL-40803  35.031  31.029   0.386
79141CL-    CL-40804  15.227  40.040  11.122
79142CL-    CL-40805  40.424  42.476   1.774
79143CL-    CL-40806  21.638  26.958  10.157
79144CL-    CL-40807  33.415  37.044   1.418
79145CL-    CL-40808  21.560  16.129  12.879
79146CL-    CL-40809   4.932  41.019   3.278
79147CL-    CL-40810  39.875   5.263  10.988
79148CL-    CL-40811  11.165  37.040  13.840
79149CL-    CL-40812  34.449  29.084  12.440
79150CL-    CL-40813  16.077  18.296   3.266
79151CL-    CL-40814  14.099   8.664   3.328
79152CL-    CL-40815  34.546  28.082  14.277
79153CL-    CL-40816  22.035  37.864  13.837
79154CL-    CL-40817   3.324  25.552   4.143
79155CL-    CL-40818   7.897   9.351   2.259
79156CL-    CL-40819   0.842  43.967   2.417
79157CL-    CL-40820  44.915  16.289   4.739
79158CL-    CL-40821  36.974  23.215   1.277
79159CL-    CL-40822  36.995  24.480   4.152
79160CL-    CL-40823  28.148   9.869  12.439
79161CL-    CL-40824  36.380  24.616  14.888
79162CL-    CL-40825  29.650  40.904  11.000
79163CL-    CL-40826   6.701  19.083  14.887
79164CL-    CL-40827  42.940   3.286   1.374
79165CL-    CL-40828   4.372   4.211  14.355
79166CL-    CL-40829  30.534  28.523   4.281
79167CL-    CL-40830  33.115   7.766   1.706
79168CL-    CL-40831  22.129  41.408  10.456
79169CL-    CL-40832  27.525  10.192  12.097
79170CL-    CL-40833  25.059  20.538  13.419
79171CL-    CL-40834  13.775  43.366   2.805
79172CL-    CL-40835  32.584  15.203  14.933
79173CL-    CL-40836  26.505  10.849  13.380
79174CL-    CL-40837  33.475  22.031   1.249
79175CL-    CL-40838   2.425   4.777  12.513
79176CL-    CL-40839  29.567  33.577   0.459
79177CL-    CL-40840  36.539  21.606   0.480
79178CL-    CL-40841  40.444  22.150  14.013
79179CL-    CL-40842  20.565  20.670   2.728
79180CL-    CL-40843   3.240  22.169   4.718
79181CL-    CL-40844  37.350  38.970   2.810
79182CL-    CL-40845  10.640  21.573   1.415
79183CL-    CL-40846  26.176  34.602   4.181
79184CL-    CL-40847   9.776  38.019   4.175
79185CL-    CL-40848  13.660  25.063   1.386
79186CL-    CL-40849  28.101  33.479   3.333
79187CL-    CL-40850  10.326  44.820  13.465
79188CL-    CL-40851  11.241  32.950   3.682
79189CL-    CL-40852  40.522   2.898   1.211
79190CL-    CL-40853  26.531  10.372  13.548
79191CL-    CL-40854  11.639   7.862   0.286
79192CL-    CL-40855   3.229  13.262  13.843
79193CL-    CL-40856  24.669  39.339   4.211
79194CL-    CL-40857   4.767  28.501  12.481
79195CL-    CL-40858  11.839  38.498  12.880
79196CL-    CL-40859  11.681  10.679  12.917
79197CL-    CL-40860  21.665  13.693  14.405
79198CL-    CL-40861  44.923  32.958  14.389
79199CL-    CL-40862   2.371  11.665  12.464
79200CL-    CL-40863  20.661  41.043  14.783
79201CL-    CL-40864  34.600   0.783   2.836
79202CL-    CL-40865  30.079  15.083   2.298
79203CL-    CL-40866   6.274  38.949  14.358
79204CL-    CL-40867   5.865  37.429   3.183
79205CL-    CL-40868  41.293  10.832  12.951
79206CL-    CL-40869   1.436   9.844  13.443
79207CL-    CL-40870  32.117   4.762   5.257
79208CL-    CL-40871  26.158  42.393  10.156
79209CL-    CL-40872  13.160  38.526  14.370
79210CL-    CL-40873  27.476   6.734  10.576
79211CL-    CL-40874  33.470  42.991   3.633
79212CL-    CL-40875   0.416   9.162  10.478
79213CL-    CL-40876  34.505   9.215   5.213
79214CL-    CL-40877  22.575  29.573  10.061
79215CL-    CL-40878  15.281  31.456  14.388
79216CL-    CL-40879  25.078  27.099  12.859
79217CL-    CL-40880  38.883  14.822   5.109
79218CL-    CL-40881  16.603  31.413   4.299
79219CL-    CL-40882  42.966  32.123   3.359
79220CL-    CL-40883  23.109   8.260   3.359
79221CL-    CL-40884  31.977  25.180  11.477
79222CL-    CL-40885  28.564   3.763  11.924
79223CL-    CL-40886  22.693  22.242   0.957
79224CL-    CL-40887  34.549  37.435  14.405
79225CL-    CL-40888  31.530  24.700  10.485
79226CL-    CL-40889  21.225   5.740  12.435
79227CL-    CL-40890  43.355  19.120   2.881
79228CL-    CL-40891  11.644  25.062   3.318
79229CL-    CL-40892  38.497  41.428  14.365
79230CL-    CL-40893   7.668  30.955   0.356
79231CL-    CL-40894  17.228  32.085   3.783
79232CL-    CL-40895  15.224   5.363  14.027
79233CL-    CL-40896   2.239   9.180  11.549
79234CL-    CL-40897  43.868  36.459  11.916
79235CL-    CL-40898  16.755  25.189  12.475
79236CL-    CL-40899   4.307  23.553   2.685
79237CL-    CL-40900  33.503  13.179  13.523
79238CL-    CL-40901  16.206   6.814  13.895
79239CL-    CL-40902  38.359  12.665   2.692
79240CL-    CL-40903  17.194  37.510   0.313
79241CL-    CL-40904  27.129  21.730  14.447
79242CL-    CL-40905  30.917  36.501  13.318
79243CL-    CL-40906  41.803   8.675   2.725
79244CL-    CL-40907  13.809  38.491  11.534
79245CL-    CL-40908  28.447  44.453   0.755
79246CL-    CL-40909  15.211  20.092  14.384
79247CL-    CL-40910   1.870  29.046   1.336
79248CL-    CL-40911  27.183   2.298   3.845
79249CL-    CL-40912  31.059   6.923  14.324
79250CL-    CL-40913  12.789   3.820  12.540
79251CL-    CL-40914  42.976  12.280  12.878
79252CL-    CL-40915   0.357  43.870   2.224
79253CL-    CL-40916  26.511  22.168  13.318
79254CL-    CL-40917  21.170  44.273   1.714
79255CL-    CL-40918  17.678  34.877   2.897
79256CL-    CL-40919   6.888  38.375   2.262
79257CL-    CL-40920  29.133  33.901  14.473
79258CL-    CL-40921  22.094  13.190   4.623
79259CL-    CL-40922   5.692  41.291   3.677
79260CL-    CL-40923  41.306  32.493  11.104
79261CL-    CL-40924  10.243   6.882   0.895
79262CL-    CL-40925  32.058   5.433  13.983
79263CL-    CL-40926  12.709  13.841   0.910
79264CL-    CL-40927  33.494   4.430  12.567
79265CL-    CL-40928  43.881  19.189   4.336
79266CL-    CL-40929  25.018  36.451   0.787
79267CL-    CL-40930  21.724  14.137   4.267
79268CL-    CL-40931  25.662  36.939  13.033
79269CL-    CL-40932  13.673  22.706  11.088
79270CL-    CL-40933  12.171   9.336  11.866
79271CL-    CL-40934   9.829  24.659  10.637
79272CL-    CL-40935  39.952  15.641   1.834
79273CL-    CL-40936  25.000  41.442   0.834
79274CL-    CL-40937  25.678  42.901   1.825
79275CL-    CL-40938  38.369  31.560   2.298
79276CL-    CL-40939   3.374  33.479   5.163
79277CL-    CL-40940   8.229  13.293  13.430
79278CL-    CL-40941  40.841  35.441   0.276
79279CL-    CL-40942  15.661  25.977   3.351
79280CL-    CL-40943  22.188   6.240   0.425
79281CL-    CL-40944   5.389  29.585  14.437
79282CL-    CL-40945   3.741   0.832  13.343
79283CL-    CL-40946  39.490  20.267   0.794
79284CL-    CL-40947  20.557  11.818  11.479
79285CL-    CL-40948   2.735  24.195   2.178
79286CL-    CL-40949  32.510  41.504   2.188
79287CL-    CL-40950  27.994  11.306   2.295
79288CL-    CL-40951  22.020  26.610  11.029
79289CL-    CL-40952   4.348  40.949  14.365
79290CL-    CL-40953  11.777  32.974   4.638
79291CL-    CL-40954  11.825  22.182  10.894
79292CL-    CL-40955  24.710  32.454   0.289
79293CL-    CL-40956   2.773   0.980   3.149
79294CL-    CL-40957  25.615  44.402   4.237
79295CL-    CL-40958  28.673   5.428  14.310
79296CL-    CL-40959  27.988  21.754  13.440
79297CL-    CL-40960  25.107  26.176   2.357
79298CL-    CL-40961  10.268  16.288   1.391
79299CL-    CL-40962  31.097  16.303   4.606
79300CL-    CL-40963  39.354  31.034  11.905
79301CL-    CL-40964  18.265  17.098   2.899
79302CL-    CL-40965   7.173  33.476   4.146
79303CL-    CL-40966  20.537  41.528   2.314
79304CL-    CL-40967   3.890  18.691  13.474
79305CL-    CL-40968  24.176  11.773   2.406
79306CL-    CL-40969  42.880  12.717   5.081
79307CL-    CL-40970  11.223  33.968  12.467
79308CL-    CL-40971  23.122   0.358   0.440
79309CL-    CL-40972   7.352  25.701  11.535
79310CL-    CL-40973  32.545  32.481   2.250
79311CL-    CL-40974   1.859   3.236  13.421
79312CL-    CL-40975  44.352  36.584  13.023
79313CL-    CL-40976   6.311   2.949   2.382
79314CL-    CL-40977  26.523  25.630  13.964
79315CL-    CL-40978  38.396  32.892   3.373
79316CL-    CL-40979  42.862  25.659  14.908
79317CL-    CL-40980  43.855  21.039   0.727
79318CL-    CL-40981   2.298  21.181  10.934
79319CL-    CL-40982  18.198   6.791  13.818
79320CL-    CL-40983  15.786   8.876   2.729
79321CL-    CL-40984  40.412  27.674  14.986
79322CL-    CL-40985  37.348  41.471  14.356
79323CL-    CL-40986  42.955  22.670   1.375
79324CL-    CL-40987  35.985  27.056   2.188
79325CL-    CL-40988  22.746   6.866   2.244
79326CL-    CL-40989  24.133  28.967   1.351
79327CL-    CL-40990  22.589   8.807   3.733
79328CL-    CL-40991  39.045   0.916  13.396
79329CL-    CL-40992   4.879  42.514   1.783
79330CL-    CL-40993  24.607  33.494  12.003
79331CL-    CL-40994  18.091   8.827  12.411
79332CL-    CL-40995  14.170  33.042  14.314
79333CL-    CL-40996  25.071  32.608   1.919
79334CL-    CL-40997  13.349   2.809  14.872
79335CL-    CL-40998  14.187  25.570   0.821
79336CL-    CL-40999   8.320  35.403   2.689
79337CL-    CL-41000  36.885  27.174  11.061
79338CL-    CL-41001  18.054  44.767  14.337
79339CL-    CL-41002  39.044  39.521   1.219
79340CL-    CL-41003  31.567  14.222  14.412
79341CL-    CL-41004   2.860  35.401   3.842
79342CL-    CL-41005   3.888  10.649  13.432
79343CL-    CL-41006  22.672  34.897   1.846
79344CL-    CL-41007  11.281   4.299  12.936
79345CL-    CL-41008  13.743  13.184  14.414
79346CL-    CL-41009   2.382  13.259   0.883
79347CL-    CL-41010  34.043   8.234  13.483
79348CL-    CL-41011   6.754  21.189  14.504
79349CL-    CL-41012   6.856   6.797  13.368
79350CL-    CL-41013  30.973   0.264   2.220
79351CL-    CL-41014  19.576  23.589  12.492
79352CL-    CL-41015  34.557  17.709   0.340
79353CL-    CL-41016  17.626   6.249   1.908
79354CL-    CL-41017  37.504   8.783  10.906
79355CL-    CL-41018  27.084   7.748  13.041
79356CL-    CL-41019  20.134  34.027  12.019
79357CL-    CL-41020  15.649  25.130  11.587
79358CL-    CL-41021   7.677  38.538   4.331
79359CL-    CL-41022  10.651  19.583   2.830
79360CL-    CL-41023   4.381  24.505   3.821
79361CL-    CL-41024   4.392  19.704   3.262
79362CL-    CL-41025  29.443  17.194   2.843
79363CL-    CL-41026  36.450  15.766   2.197
79364CL-    CL-41027  28.073  13.319   5.208
79365CL-    CL-41028  11.352  42.487   3.838
79366CL-    CL-41029  18.138   0.784  13.839
79367CL-    CL-41030  18.755  13.178   5.308
79368CL-    CL-41031  33.562  32.498   2.284
79369CL-    CL-41032   6.383  14.820   3.862
79370CL-    CL-41033   8.664  30.546   4.123
79371CL-    CL-41034   4.275  22.630   2.777
79372CL-    CL-41035  24.612   6.751  12.509
79373CL-    CL-41036  31.017  43.504   2.270
79374CL-    CL-41037  27.963  34.096  12.960
79375CL-    CL-41038  11.839  37.914   3.748
79376CL-    CL-41039  20.228   2.935   0.729
79377CL-    CL-41040  37.041  20.168   2.833
79378CL-    CL-41041   2.779  33.034  11.522
79379CL-    CL-41042  10.274   7.671   0.815
79380CL-    CL-41043   6.405  36.098  11.458
79381CL-    CL-41044  38.907  35.569  10.416
79382CL-    CL-41045  33.020   7.216  13.023
79383CL-    CL-41046  37.859  24.080   0.275
79384CL-    CL-41047  19.102  23.727   4.139
79385CL-    CL-41048  33.431  36.929  12.568
79386CL-    CL-41049   3.438  12.140  13.527
79387CL-    CL-41050   1.294  42.408   0.740
79388CL-    CL-41051  33.995  30.993  11.125
79389CL-    CL-41052  14.215   3.310  11.920
79390CL-    CL-41053  23.002  20.695  14.490
79391CL-    CL-41054   0.971   0.355  13.890
79392CL-    CL-41055  10.195  14.282  13.422
79393CL-    CL-41056  35.458  43.885   2.405
79394CL-    CL-41057   0.458  35.911   4.216
79395CL-    CL-41058  42.454  12.214  11.398
79396CL-    CL-41059   0.337  19.156  14.000
79397CL-    CL-41060  31.417  33.599   4.282
79398CL-    CL-41061  30.565  20.676  12.980
79399CL-    CL-41062  41.488  22.628   4.782
79400CL-    CL-41063  33.420  21.174  10.449
79401CL-    CL-41064   6.322  31.137  11.418
79402CL-    CL-41065  29.996  23.604   1.446
79403CL-    CL-41066  34.568  14.153   0.328
79404CL-    CL-41067  12.276   3.842  12.856
79405CL-    CL-41068  31.452  18.172   2.753
79406CL-    CL-41069   1.473   4.909   1.820
79407CL-    CL-41070   7.308  36.095   3.649
79408CL-    CL-41071   8.400  41.850   2.894
79409CL-    CL-41072  41.379   9.356  14.355
79410CL-    CL-41073  28.552  43.930  11.006
79411CL-    CL-41074   2.348  38.499  10.959
79412CL-    CL-41075  31.123   1.899  10.110
79413CL-    CL-41076  11.197   0.835   4.731
79414CL-    CL-41077  18.193  39.529  11.547
79415CL-    CL-41078   3.394   5.711  14.781
79416CL-    CL-41079  44.476   8.743   1.352
79417CL-    CL-41080  41.868  26.624   1.863
79418CL-    CL-41081  11.843  21.172   3.818
79419CL-    CL-41082  42.020   2.326  14.807
79420CL-    CL-41083   0.798  28.940  13.411
79421CL-    CL-41084  33.120  13.701   1.712
79422CL-    CL-41085  18.062  16.700  12.064
79423CL-    CL-41086  35.540  24.161  12.556
79424CL-    CL-41087  39.473  35.864  12.406
79425CL-    CL-41088   1.262  26.086  14.942
79426CL-    CL-41089   3.346   0.292  10.584
79427CL-    CL-41090  24.979  22.194  10.630
79428CL-    CL-41091  27.013  34.589   3.372
79429CL-    CL-41092  27.965   0.981   0.937
79430CL-    CL-41093   4.789  23.562   0.857
79431CL-    CL-41094   4.839  38.336  14.426
79432CL-    CL-41095  44.889  22.053   4.217
79433CL-    CL-41096  15.618  14.103  13.525
79434CL-    CL-41097  31.909   3.819  12.096
79435CL-    CL-41098   2.461   1.788   3.323
79436CL-    CL-41099   4.229  35.991  14.019
79437CL-    CL-41100   4.370  40.896  12.422
79438CL-    CL-41101   4.899  34.511  10.950
79439CL-    CL-41102  25.010  32.603  13.475
79440CL-    CL-41103   7.362  26.117   0.904
79441CL-    CL-41104  12.838   1.457  13.341
79442CL-    CL-41105   8.309  31.102   3.272
79443CL-    CL-41106  24.148   7.783  14.961
79444CL-    CL-41107  34.084  21.702   1.305
79445CL-    CL-41108  44.915  29.958   1.447
79446CL-    CL-41109  16.749  31.038  12.948
79447CL-    CL-41110  38.487  18.686   2.851
79448CL-    CL-41111  28.053  43.329  13.832
79449CL-    CL-41112  40.861  17.781  11.398
79450CL-    CL-41113  44.810  14.139  14.338
79451CL-    CL-41114  22.124  23.552   4.319
79452CL-    CL-41115   4.848  28.437   1.881
79453CL-    CL-41116  34.974  38.044  11.473
79454CL-    CL-41117  31.904  12.633   3.314
79455CL-    CL-41118  15.239  10.377   4.737
79456CL-    CL-41119  28.480  20.630   1.360
79457CL-    CL-41120  42.869   8.382   3.348
79458CL-    CL-41121  26.107  17.738   2.717
79459CL-    CL-41122  24.578  39.550  11.884
79460CL-    CL-41123  18.280  40.305  13.898
79461CL-    CL-41124  39.051  11.696   5.166
79462CL-    CL-41125  18.613   9.210   0.936
79463CL-    CL-41126  31.440   2.731   4.209
79464CL-    CL-41127  21.221  21.158   2.307
79465CL-    CL-41128  37.883  31.488   1.290
79466CL-    CL-41129  25.655  15.184  11.025
79467CL-    CL-41130   7.177   3.239  12.522
79468CL-    CL-41131  37.882  10.375   0.415
79469CL-    CL-41132  15.820  15.767   2.416
79470CL-    CL-41133   6.733  41.878  14.764
79471CL-    CL-41134  36.536   2.385  12.347
79472CL-    CL-41135  37.057   1.379  13.414
79473CL-    CL-41136   6.691  10.170   1.913
79474CL-    CL-41137  19.053  18.259   9.449
79475CL-    CL-41138  19.650  13.784   3.202
79476CL-    CL-41139  19.738  25.583  11.897
79477CL-    CL-41140  19.540  42.307   3.359
79478CL-    CL-41141  30.652   3.789  10.522
79479CL-    CL-41142  34.892   9.653   4.733
79480CL-    CL-41143  37.005  22.648  12.869
79481CL-    CL-41144   6.681  41.322  11.085
79482CL-    CL-41145   0.333  20.186  11.856
79483CL-    CL-41146   7.746  25.975   2.270
79484CL-    CL-41147  13.704  31.462   2.728
79485CL-    CL-41148   4.766  30.426   2.379
79486CL-    CL-41149   9.690  36.521   2.734
79487CL-    CL-41150  10.632   7.172  12.932
79488CL-    CL-41151  21.683   9.217  11.952
79489CL-    CL-41152  10.231  19.662  12.910
79490CL-    CL-41153  41.891  16.194   1.331
79491CL-    CL-41154  30.572  22.567   1.427
79492CL-    CL-41155   3.267  13.721  13.954
79493CL-    CL-41156  37.398  25.530  11.008
79494CL-    CL-41157   2.893  35.902  12.046
79495CL-    CL-41158  35.968  29.937  11.408
79496CL-    CL-41159  27.601  43.479   0.383
79497CL-    CL-41160  32.913  13.809   0.271
79498CL-    CL-41161  17.078  33.112  13.812
79499CL-    CL-41162  10.382  28.481  13.064
79500CL-    CL-41163  12.263  12.744   1.824
79501CL-    CL-41164   2.370  26.471   0.370
79502CL-    CL-41165  37.338  44.375   0.849
79503CL-    CL-41166  28.442  20.061  12.503
79504CL-    CL-41167  42.285  14.804   1.359
79505CL-    CL-41168  16.221  22.104   0.464
79506CL-    CL-41169  11.183  36.998  11.473
79507CL-    CL-41170  28.516   9.193  11.879
79508CL-    CL-41171   1.389  42.956   1.766
79509CL-    CL-41172  33.591  13.329  13.031
79510CL-    CL-41173  19.143   9.749   3.772
79511CL-    CL-41174  33.442  23.571   2.389
79512CL-    CL-41175  34.496  31.916  11.378
79513CL-    CL-41176  23.096  11.175   1.227
79514CL-    CL-41177   9.275  22.109  10.928
79515CL-    CL-41178   4.830  11.226  11.876
79516CL-    CL-41179  13.164  19.166   2.709
79517CL-    CL-41180  10.344  16.716  13.017
79518CL-    CL-41181   7.711  44.286   2.419
79519CL-    CL-41182  43.501   5.400   3.686
79520CL-    CL-41183  37.847  32.496  13.846
79521CL-    CL-41184  31.084  37.447   3.665
79522CL-    CL-41185  18.116  44.910   1.213
79523CL-    CL-41186  11.151  27.618  11.122
79524CL-    CL-41187   5.892  39.825  11.477
79525CL-    CL-41188  12.638  11.302   3.692
79526CL-    CL-41189  29.096   9.760   1.812
79527CL-    CL-41190  10.756  14.820  14.309
79528CL-    CL-41191  42.025   2.744   2.753
79529CL-    CL-41192  42.412  34.613  10.407
79530CL-    CL-41193  24.129  29.479  13.049
79531CL-    CL-41194  29.440  10.215   4.310
79532CL-    CL-41195  41.380  44.463  13.036
79533CL-    CL-41196  10.157  32.029  11.517
79534CL-    CL-41197  11.206  18.148   4.346
79535CL-    CL-41198  26.471  30.417   3.352
79536CL-    CL-41199   0.954  26.666   4.766
79537CL-    CL-41200  10.197   0.911   1.802
79538CL-    CL-41201   6.355  39.938   0.738
79539CL-    CL-41202  40.500  22.630  12.878
79540CL-    CL-41203  24.487  14.279   0.852
79541CL-    CL-41204  17.602  25.084  10.414
79542CL-    CL-41205  36.078   7.412  12.990
79543CL-    CL-41206  36.941   5.845  10.513
79544CL-    CL-41207  35.369  25.192   0.838
79545CL-    CL-41208  31.041  36.573   0.320
79546CL-    CL-41209  42.994  21.156   0.421
79547CL-    CL-41210  18.738  43.829  11.398
79548CL-    CL-41211  43.935  31.152   3.235
79549CL-    CL-41212  11.150  23.607   4.802
79550CL-    CL-41213   4.438  27.977   4.166
79551CL-    CL-41214  10.699  34.573   1.786
79552CL-    CL-41215  38.001  41.464  13.440
79553CL-    CL-41216  37.007  35.552   2.320
79554CL-    CL-41217  38.473  20.111   1.239
79555CL-    CL-41218  14.274  13.118  13.314
79556CL-    CL-41219   0.907   7.225  10.937
79557CL-    CL-41220   8.246   9.755  14.771
79558CL-    CL-41221  38.450   0.366  12.847
79559CL-    CL-41222   1.351  14.661  13.404
79560CL-    CL-41223  14.658  36.895   3.852
79561CL-    CL-41224   2.879  32.079  13.044
79562CL-    CL-41225   1.276  33.964   3.215
79563CL-    CL-41226  41.390  14.158  14.292
79564CL-    CL-41227   1.976   4.892  13.332
79565CL-    CL-41228  10.382  19.170   4.798
79566CL-    CL-41229  14.254   5.395  11.585
79567CL-    CL-41230   5.835  16.591   4.653
79568CL-    CL-41231  10.755  31.083   1.711
79569CL-    CL-41232   7.273  10.264   3.636
79570CL-    CL-41233  31.101  26.969   2.199
79571CL-    CL-41234  23.145  29.602  13.957
79572CL-    CL-41235  30.640  16.793  11.439
79573CL-    CL-41236   7.241  38.355   1.899
79574CL-    CL-41237  16.263   3.399   0.373
79575CL-    CL-41238   1.813   4.869  12.455
79576CL-    CL-41239  29.049  44.753   1.704
79577CL-    CL-41240  44.284  43.299  12.925
79578CL-    CL-41241  18.641  23.698  11.529
79579CL-    CL-41242  32.978  18.719   2.790
79580CL-    CL-41243  13.773   8.332   4.699
79581CL-    CL-41244   0.981   1.754   1.315
79582CL-    CL-41245  13.272   6.914   0.747
79583CL-    CL-41246  41.897  18.574   1.219
79584CL-    CL-41247  32.405  38.522  11.919
79585CL-    CL-41248  14.831  43.483  14.813
79586CL-    CL-41249  20.266  42.877   2.747
79587CL-    CL-41250  13.691  31.946   2.668
79588CL-    CL-41251  23.025  43.938   4.761
79589CL-    CL-41252  15.742  32.532  11.409
79590CL-    CL-41253  24.566  31.575   3.152
79591CL-    CL-41254  39.408   1.333   4.597
79592CL-    CL-41255  41.042  37.933  14.478
79593CL-    CL-41256  18.547  12.856  10.932
79594CL-    CL-41257  23.530  36.494   0.258
79595CL-    CL-41258   0.969  20.136  11.969
79596CL-    CL-41259   5.707  20.647  13.374
79597CL-    CL-41260  37.871   3.215   4.134
79598CL-    CL-41261   3.763   4.908   4.330
79599CL-    CL-41262   6.715  21.612   0.348
79600CL-    CL-41263  38.493  36.963  14.806
79601CL-    CL-41264  16.722  32.420  13.846
79602CL-    CL-41265  43.974  31.599   3.168
79603CL-    CL-41266  20.668  28.443   4.749
79604CL-    CL-41267  43.411  41.439   3.853
79605CL-    CL-41268  22.059  43.837  11.118
79606CL-    CL-41269  14.135  17.744   1.434
79607CL-    CL-41270  33.528   0.766  11.420
79608CL-    CL-41271  14.161   6.197   2.317
79609CL-    CL-41272   0.296  34.409   0.384
79610CL-    CL-41273  31.017  24.000  14.834
79611CL-    CL-41274  26.197  38.571   3.840
79612CL-    CL-41275  30.602   9.301  13.520
79613CL-    CL-41276  29.120  26.972   3.331
79614CL-    CL-41277   2.415  32.020  11.371
79615CL-    CL-41278  25.035  16.318   4.341
79616CL-    CL-41279  16.235  34.883  14.889
79617CL-    CL-41280  37.995  27.147  14.795
79618CL-    CL-41281  12.269  27.473   4.738
79619CL-    CL-41282  11.649  43.919   3.320
79620CL-    CL-41283  34.019  43.508  13.501
79621CL-    CL-41284   4.774   4.337   4.208
79622CL-    CL-41285  21.031   0.302   4.216
79623CL-    CL-41286   8.176  40.022  11.568
79624CL-    CL-41287   2.870  21.039   3.340
79625CL-    CL-41288  34.491   8.305   1.734
79626CL-    CL-41289   5.859  40.487   3.727
79627CL-    CL-41290  26.166  16.294  14.438
79628CL-    CL-41291  34.597  15.766   0.882
79629CL-    CL-41292   7.339  27.132  12.527
79630CL-    CL-41293   7.747   8.309   2.242
79631CL-    CL-41294  13.214  29.548  12.406
79632CL-    CL-41295  17.279  35.363   3.850
79633CL-    CL-41296  11.868  42.851   1.785
79634CL-    CL-41297  10.180   1.312  14.912
79635CL-    CL-41298  31.105  35.404   4.305
79636CL-    CL-41299  18.784  32.574  12.977
79637CL-    CL-41300  10.679  40.486  13.344
79638CL-    CL-41301  42.361  44.000   2.351
79639CL-    CL-41302  37.977  42.804   1.331
79640CL-    CL-41303  29.987  17.640   0.832
79641CL-    CL-41304  21.734  17.168   2.805
79642CL-    CL-41305   0.424  37.384   4.197
79643CL-    CL-41306  35.020  23.600  13.794
79644CL-    CL-41307   3.784  23.222   2.198
79645CL-    CL-41308  10.313  24.542   1.400
79646CL-    CL-41309  10.152  37.504   3.189
79647CL-    CL-41310  42.943  25.146   0.818
79648CL-    CL-41311  23.593  34.604   3.342
79649CL-    CL-41312  39.357  37.402  12.473
79650CL-    CL-41313  22.183  33.062  13.529
79651CL-    CL-41314  38.453  38.992   4.697
79652CL-    CL-41315  38.347  25.209   4.679
79653CL-    CL-41316  26.195  21.069  11.923
79654CL-    CL-41317  38.063  12.204  14.808
79655CL-    CL-41318  13.337  37.547   0.421
79656CL-    CL-41319  16.795  20.207  13.880
79657CL-    CL-41320  25.048  44.941   4.732
79658CL-    CL-41321  35.942  35.579   0.297
79659CL-    CL-41322  29.936  16.168  12.921
79660CL-    CL-41323  37.388  40.543  14.030
79661CL-    CL-41324  42.496  31.949   2.325
79662CL-    CL-41325   4.268  28.653   4.333
79663CL-    CL-41326   4.437   2.730   3.246
79664CL-    CL-41327  22.219  21.589   4.246
79665CL-    CL-41328  27.460  22.654   0.920
79666CL-    CL-41329   2.345  26.098   0.956
79667CL-    CL-41330  19.563  22.629   0.943
79668CL-    CL-41331  31.916  21.618   1.329
79669CL-    CL-41332   3.754  24.058   4.645
79670CL-    CL-41333   7.814   8.786   2.297
79671CL-    CL-41334  13.602  30.462  14.302
79672CL-    CL-41335  42.338  17.562  14.362
79673CL-    CL-41336  42.469   5.215   4.131
79674CL-    CL-41337  13.628  35.361  13.437
79675CL-    CL-41338  24.097  39.841  10.106
79676CL-    CL-41339  17.110  36.935  13.491
79677CL-    CL-41340   9.835  20.269  13.860
79678CL-    CL-41341  40.503  11.127   3.853
79679CL-    CL-41342  30.472  43.331   2.286
79680CL-    CL-41343  28.665  12.748   4.194
79681CL-    CL-41344  25.469  33.598   4.628
79682CL-    CL-41345   8.812  14.144  13.923
79683CL-    CL-41346   7.877   5.925   4.217
79684CL-    CL-41347  24.061   4.915   1.269
79685CL-    CL-41348   6.685  26.595   3.328
79686CL-    CL-41349   2.783  31.487  13.535
79687CL-    CL-41350   9.270  35.928  10.942
79688CL-    CL-41351  32.914  12.335  10.526
79689CL-    CL-41352  25.962  25.998   3.189
79690CL-    CL-41353  15.671  42.510  11.885
79691CL-    CL-41354  11.696  34.011  13.538
79692CL-    CL-41355   7.325  42.523  12.931
79693CL-    CL-41356  34.020  32.113  10.977
79694CL-    CL-41357  43.764  17.645  10.544
79695CL-    CL-41358  20.651  35.492  11.439
79696CL-    CL-41359  30.970  27.154  11.872
79697CL-    CL-41360  21.686  13.190  14.982
79698CL-    CL-41361  38.494   4.815   3.146
79699CL-    CL-41362  32.585  24.130  13.524
79700CL-    CL-41363  33.980   0.900  12.905
79701CL-    CL-41364   3.913  31.559  14.939
79702CL-    CL-41365   5.863  11.345   2.327
79703CL-    CL-41366  11.299   3.776  14.958
79704CL-    CL-41367   3.423  33.922  11.498
79705CL-    CL-41368  11.862  34.559  13.861
79706CL-    CL-41369  14.633  37.398   3.720
79707CL-    CL-41370  29.611  42.787   2.390
79708CL-    CL-41371   1.912  28.599   4.782
79709CL-    CL-41372  36.872  30.063   1.252
79710CL-    CL-41373   9.184  31.010   0.808
79711CL-    CL-41374  14.773  44.994   4.131
79712CL-    CL-41375  13.287   6.306   1.828
79713CL-    CL-41376  10.253  19.080   5.220
79714CL-    CL-41377  14.149   5.241  10.415
79715CL-    CL-41378  42.785   6.798  14.359
79716CL-    CL-41379  16.780  16.615  13.915
79717CL-    CL-41380  35.486  22.164  13.928
79718CL-    CL-41381   0.313   1.894  14.500
79719CL-    CL-41382  34.409  44.395   3.200
79720CL-    CL-41383  23.216  11.149  13.011
79721CL-    CL-41384  32.043  27.521  13.993
79722CL-    CL-41385  26.969  29.519   3.797
79723CL-    CL-41386  34.556   2.854  11.981
79724CL-    CL-41387  40.459   8.842  10.026
79725CL-    CL-41388  38.068  25.565   4.639
79726CL-    CL-41389  39.540  29.120  12.525
79727CL-    CL-41390   2.413   0.752  11.932
79728CL-    CL-41391  36.858  14.171  10.559
79729CL-    CL-41392  42.506  26.543  11.387
79730CL-    CL-41393  39.949  16.170  13.954
79731CL-    CL-41394  33.438  13.175   3.160
79732CL-    CL-41395  22.542  35.409   1.343
79733CL-    CL-41396  29.024  24.583   3.277
79734CL-    CL-41397  40.530  37.991   3.378
79735CL-    CL-41398  15.174   4.762  14.888
79736CL-    CL-41399  21.186  11.738  14.788
79737CL-    CL-41400  25.681   2.263  10.981
79738CL-    CL-41401  36.911  18.172  12.551
79739CL-    CL-41402  24.121   8.782  14.767
79740CL-    CL-41403   5.853  42.818  13.449
79741CL-    CL-41404  44.971  43.502   0.938
79742CL-    CL-41405  21.107   2.892   0.471
79743CL-    CL-41406  40.903  24.696   1.859
79744CL-    CL-41407  20.738  37.552  14.500
79745CL-    CL-41408  30.555  31.630  11.050
79746CL-    CL-41409   6.241  34.513   3.176
79747CL-    CL-41410  40.375   8.256  13.356
79748CL-    CL-41411   7.313  17.670   4.753
79749CL-    CL-41412  18.126  23.998   0.475
79750CL-    CL-41413  38.338  44.326   2.401
79751CL-    CL-41414  19.539  11.779   4.636
79752CL-    CL-41415  16.663  24.026   4.264
79753CL-    CL-41416  31.631   6.227  14.332
79754CL-    CL-41417  28.522  18.748  12.432
79755CL-    CL-41418   7.299   6.367   3.165
79756CL-    CL-41419  10.788   2.866  11.874
79757CL-    CL-41420  28.176   6.695  10.977
79758CL-    CL-41421  41.488   3.719   3.270
79759CL-    CL-41422  14.741  35.430  10.077
79760CL-    CL-41423  15.781  39.003  12.994
79761CL-    CL-41424  16.740  27.099   0.769
79762CL-    CL-41425  36.904  25.508   2.741
79763CL-    CL-41426  22.713  36.457  10.615
79764CL-    CL-41427   8.391  13.319   2.824
79765CL-    CL-41428  23.532   5.316   4.801
79766CL-    CL-41429  32.918   0.344  12.989
79767CL-    CL-41430  18.101  30.605   4.340
79768CL-    CL-41431   7.902  12.781   2.209
79769CL-    CL-41432   0.809  18.567   1.378
79770CL-    CL-41433  11.850  43.327   3.170
79771CL-    CL-41434  34.933  21.180   5.576
79772CL-    CL-41435  10.648  10.776   4.730
79773CL-    CL-41436  17.195   2.831  10.408
79774CL-    CL-41437   6.741  20.104   3.814
79775CL-    CL-41438  15.772  22.696  13.336
79776CL-    CL-41439  17.257  20.715   2.274
79777CL-    CL-41440   5.201   7.331  10.895
79778CL-    CL-41441  29.983  37.473   4.341
79779CL-    CL-41442   0.302   8.863  14.867
79780CL-    CL-41443  40.435   9.669  12.856
79781CL-    CL-41444  30.645  10.337   1.815
79782CL-    CL-41445   5.423  23.640  13.341
79783CL-    CL-41446  33.119  34.491   2.897
79784CL-    CL-41447  43.481   5.781   2.395
79785CL-    CL-41448  19.161  33.076  13.956
79786CL-    CL-41449  13.308   2.954   1.831
79787CL-    CL-41450  28.623  11.679   2.699
79788CL-    CL-41451  37.909  39.387   3.252
79789CL-    CL-41452  21.210  10.213   3.343
79790CL-    CL-41453   4.739   3.850  14.892
79791CL-    CL-41454   5.311  26.051   0.291
79792CL-    CL-41455  37.466   7.836   2.810
79793CL-    CL-41456  17.278   8.788  10.160
79794CL-    CL-41457   9.799  22.569   1.213
79795CL-    CL-41458  29.571   3.853  10.938
79796CL-    CL-41459  23.086   1.887   0.934
79797CL-    CL-41460  42.319  41.832   0.851
79798CL-    CL-41461  19.062  28.600  13.545
79799CL-    CL-41462   5.357   3.903   1.422
79800CL-    CL-41463  31.505  42.972   3.336
79801CL-    CL-41464  15.645  13.306   4.200
79802CL-    CL-41465  27.691  15.262   4.705
79803CL-    CL-41466  14.676  13.309  14.987
79804CL-    CL-41467  14.331   2.754  12.459
79805CL-    CL-41468   5.297  10.220   1.385
79806CL-    CL-41469   5.404  43.986  12.497
79807CL-    CL-41470  38.449  11.158   2.218
79808CL-    CL-41471   3.716   0.295  11.539
79809CL-    CL-41472  11.843  43.372  11.091
79810CL-    CL-41473   3.954  34.571   2.270
79811CL-    CL-41474  37.410   9.695  10.463
79812CL-    CL-41475  13.678  32.898  12.890
79813CL-    CL-41476  25.478   4.801  12.841
79814CL-    CL-41477  31.009   6.797  12.971
79815CL-    CL-41478  21.560   5.932  12.354
79816CL-    CL-41479  30.163   1.379  11.497
79817CL-    CL-41480  16.125  35.368   0.359
79818CL-    CL-41481  17.622   2.854   0.425
79819CL-    CL-41482  18.154  35.594   0.268
79820CL-    CL-41483  24.082  18.552  10.494
79821CL-    CL-41484  30.940   4.743  11.097
79822CL-    CL-41485  16.218  17.598   0.944
79823CL-    CL-41486  37.960   5.893   3.861
79824CL-    CL-41487  24.094   0.333   3.680
79825CL-    CL-41488  11.306  31.117  12.052
79826CL-    CL-41489  19.224   0.279   2.392
79827CL-    CL-41490  36.082   0.260  14.002
79828CL-    CL-41491  37.412  35.584  13.798
79829CL-    CL-41492   5.295  41.468  11.121
79830CL-    CL-41493  32.929  37.518   1.225
79831CL-    CL-41494  18.277  41.409   2.329
79832CL-    CL-41495  12.187  41.913  12.347
79833CL-    CL-41496  35.077  34.121  13.031
79834CL-    CL-41497   8.240  35.976  13.936
79835CL-    CL-41498  15.125   7.873  11.984
79836CL-    CL-41499   2.800   9.222  12.906
79837CL-    CL-41500  19.058   5.934  12.842
79838CL-    CL-41501  12.857   8.395  14.411
79839CL-    CL-41502  32.495  24.600  11.509
79840CL-    CL-41503  28.941   6.284   2.764
79841CL-    CL-41504   3.908   2.379   4.746
79842CL-    CL-41505   1.248  38.378   4.700
79843CL-    CL-41506   0.445  38.026  11.587
79844CL-    CL-41507  32.440  13.763  12.512
79845CL-    CL-41508  21.658  17.099   3.288
79846CL-    CL-41509  11.344   2.810   2.724
79847CL-    CL-41510  16.711   4.391  13.341
79848CL-    CL-41511  38.007  37.529  10.898
79849CL-    CL-41512  35.465  23.716   3.789
79850CL-    CL-41513  18.554  23.505  11.999
79851CL-    CL-41514  39.847  35.901  10.602
79852CL-    CL-41515   7.338  42.779  12.354
79853CL-    CL-41516  11.134  38.458  11.086
79854CL-    CL-41517  27.117  18.690  14.936
79855CL-    CL-41518   3.943  36.504   3.167
79856CL-    CL-41519  16.630  21.167   4.322
79857CL-    CL-41520   4.922  32.995   1.411
79858CL-    CL-41521  27.080   2.775  10.531
79859CL-    CL-41522  22.724   6.719   0.422
79860CL-    CL-41523  17.307  39.345  12.456
79861CL-    CL-41524  27.676   8.755   2.854
79862CL-    CL-41525   9.651   4.736  13.412
79863CL-    CL-41526  38.068  18.194   1.803
79864CL-    CL-41527  33.574  28.467   1.253
79865CL-    CL-41528  27.082   9.763   2.711
79866CL-    CL-41529  30.467  11.187   2.731
79867CL-    CL-41530  19.777  27.060   1.727
79868CL-    CL-41531  31.038  28.437  14.771
79869CL-    CL-41532   3.419  18.786  11.887
79870CL-    CL-41533  13.339  17.764   3.835
79871CL-    CL-41534  40.831   8.306  14.824
79872CL-    CL-41535  41.483  44.275  12.033
79873CL-    CL-41536  13.331  19.194  12.882
79874CL-    CL-41537  28.046  10.294  11.856
79875CL-    CL-41538  28.485  38.508  12.534
79876CL-    CL-41539  41.868  14.829  13.462
79877CL-    CL-41540  32.588  28.019   9.968
79878CL-    CL-41541   7.841  44.840   3.322
79879CL-    CL-41542  19.566   0.895   1.377
79880CL-    CL-41543  43.920  10.643   2.324
79881CL-    CL-41544   7.789  26.474   1.837
79882CL-    CL-41545  19.668  20.041   3.742
79883CL-    CL-41546   4.416  44.280   1.701
79884CL-    CL-41547  31.044  19.596  11.119
79885CL-    CL-41548  37.883   3.818  14.399
79886CL-    CL-41549  26.057  21.022   1.431
79887CL-    CL-41550  27.157  18.661   0.303
79888CL-    CL-41551  43.796   0.334   0.892
79889CL-    CL-41552  22.143   8.392  13.800
79890CL-    CL-41553  19.147   7.833   1.915
79891CL-    CL-41554  33.875  36.058  13.985
79892CL-    CL-41555  20.101  40.489  14.838
79893CL-    CL-41556   8.335  26.538  13.018
79894CL-    CL-41557  36.966  19.618   4.775
79895CL-    CL-41558  27.958   5.931   1.415
79896CL-    CL-41559  20.645  19.196   2.855
79897CL-    CL-41560  10.302   4.779  13.051
79898CL-    CL-41561  19.222  36.482   4.784
79899CL-    CL-41562  22.537   7.744   1.375
79900CL-    CL-41563  42.525  42.875  14.028
79901CL-    CL-41564  39.546  26.146  14.800
79902CL-    CL-41565   0.886  35.587  13.045
79903CL-    CL-41566   7.769  28.012  14.946
79904CL-    CL-41567   6.237  30.039   1.438
79905CL-    CL-41568  31.973  33.460  11.916
79906CL-    CL-41569  28.482  27.946   3.166
79907CL-    CL-41570  30.026  21.164  12.936
79908CL-    CL-41571   6.233   1.767   5.218
79909CL-    CL-41572   3.446   3.710  13.853
79910CL-    CL-41573  21.517  17.178  11.526
79911CL-    CL-41574  16.248  41.788   1.215
79912CL-    CL-41575  36.885  11.322   2.399
79913CL-    CL-41576  32.914  15.327   4.674
79914CL-    CL-41577  19.620  29.150  14.910
79915CL-    CL-41578   4.401   5.427  11.586
79916CL-    CL-41579   7.879  33.545  14.987
79917CL-    CL-41580   5.226  41.909  13.353
79918CL-    CL-41581  41.529   1.476  10.905
79919CL-    CL-41582  13.700  16.133  12.382
79920CL-    CL-41583  28.110   0.864  13.387
79921CL-    CL-41584  26.985  12.256   1.242
79922CL-    CL-41585  44.478  17.267   3.371
79923CL-    CL-41586  21.601   9.288   2.753
79924CL-    CL-41587  39.326  29.559   4.809
79925CL-    CL-41588  28.077  21.195  10.441
79926CL-    CL-41589  41.983  19.678   0.820
79927CL-    CL-41590  21.212   4.863   3.173
79928CL-    CL-41591  16.595  37.491  14.458
79929CL-    CL-41592  36.082  11.242  13.053
79930CL-    CL-41593  43.829  38.567  10.458
79931CL-    CL-41594  41.042  35.083   0.414
79932CL-    CL-41595  23.699  21.548   2.861
79933CL-    CL-41596  21.236   9.685  14.884
79934CL-    CL-41597  33.891  42.813   4.681
79935CL-    CL-41598  20.563   9.219  10.566
79936CL-    CL-41599  12.209  41.512   4.740
79937CL-    CL-41600  23.054   5.697  13.528
79938CL-    CL-41601  14.710   3.736  11.094
79939CL-    CL-41602  20.098  29.089   1.812
79940CL-    CL-41603  12.222  14.273  13.968
79941CL-    CL-41604   8.325  31.927  13.884
79942CL-    CL-41605  29.059   9.854  14.914
79943CL-    CL-41606  44.361  26.636  11.987
79944CL-    CL-41607  23.601  29.158   0.425
79945CL-    CL-41608  13.801  19.634   0.313
79946CL-    CL-41609   9.736   0.788  12.545
79947CL-    CL-41610   7.403   6.889  11.592
79948CL-    CL-41611  12.721  20.724   0.909
79949CL-    CL-41612  42.524  41.349   0.358
79950CL-    CL-41613  44.802  40.383   3.864
79951CL-    CL-41614  23.023  36.012   2.897
79952CL-    CL-41615  28.545  16.291  11.079
79953CL-    CL-41616  44.842  29.135   3.839
79954CL-    CL-41617  15.783  41.347  11.465
79955CL-    CL-41618  36.087  21.629  12.559
79956CL-    CL-41619  29.088  44.331   3.278
79957CL-    CL-41620   0.297  44.766   3.804
79958CL-    CL-41621  17.676  30.031  12.490
79959CL-    CL-41622  36.465  44.343  12.846
79960CL-    CL-41623  24.111  14.619  11.978
79961CL-    CL-41624  36.553  35.490  14.470
79962CL-    CL-41625   9.321  29.616   1.756
79963CL-    CL-41626  25.592  31.441   2.783
79964CL-    CL-41627  19.765  31.560  14.448
79965CL-    CL-41628  36.044  26.667   3.678
79966CL-    CL-41629  38.414  30.055  14.399
79967CL-    CL-41630  40.350  17.704  10.419
79968CL-    CL-41631   5.394  16.310   0.944
79969CL-    CL-41632  26.986  24.584  14.337
79970CL-    CL-41633  44.335  31.902   2.241
79971CL-    CL-41634  13.151  18.221   0.768
79972CL-    CL-41635  28.490  24.162  12.502
79973CL-    CL-41636  25.021   9.354  13.894
79974CL-    CL-41637  28.102  18.560  12.835
79975CL-    CL-41638  44.010  43.315   0.468
79976CL-    CL-41639  41.509  19.615   1.406
79977CL-    CL-41640   6.715  14.617  13.911
79978CL-    CL-41641   1.408   0.447   1.776
79979CL-    CL-41642  14.094  37.051  10.463
79980CL-    CL-41643  32.566  40.422   0.793
79981CL-    CL-41644  40.314  30.999  14.759
79982CL-    CL-41645   2.803   9.861  13.802
79983CL-    CL-41646  44.800  33.487  14.445
79984CL-    CL-41647  33.427  26.641   0.481
79985CL-    CL-41648   2.749  17.113   3.635
79986CL-    CL-41649  16.226   7.853   3.778
79987CL-    CL-41650  35.876  26.084  14.900
79988CL-    CL-41651   1.834   2.841  12.391
79989CL-    CL-41652  42.389  31.471   0.398
79990CL-    CL-41653  42.020  31.104  12.878
79991CL-    CL-41654   6.374  24.026   3.780
79992CL-    CL-41655   8.719  19.620  10.479
79993CL-    CL-41656  13.802  20.712   4.615
79994CL-    CL-41657  31.569  43.332  10.515
79995CL-    CL-41658   1.288  14.290   5.106
79996CL-    CL-41659   8.229  30.587   0.893
79997CL-    CL-41660  39.335  43.766   2.711
79998CL-    CL-41661  17.651  13.819   0.390
79999CL-    CL-41662  38.037   6.732   4.602
80000CL-    CL-41663  17.699  19.592   4.338
80001CL-    CL-41664  37.983   5.234  14.859
80002CL-    CL-41665  27.179   9.679   0.483
80003CL-    CL-41666  35.472   2.893   4.290
  45.00000  45.00000  15.00000   0.00000   0.00000   0.00000   0.00000   0.00000   0.00000

